Title
43125
    1CHL1    C3    1   3.616   6.735   6.768 -0.3102 -0.2530  0.5497
    1CHL1    H3    2   3.572   6.837   6.766 -1.3050 -0.6470  1.3961
    1CHL1    O3    3   3.657   6.715   6.903 -0.1208 -0.1055  0.1186
    1CHL1   H3'    4   3.666   6.619   6.909  0.4344 -0.0068  0.9256
    1CHL1    C4    5   3.504   6.638   6.719 -0.1567 -0.0816 -0.1901
    1CHL1   H4A    6   3.541   6.534   6.734 -1.1802 -0.6015 -1.1053
    1CHL1   H4B    7   3.417   6.659   6.783 -0.2623  0.7916 -0.6093
    1CHL1    C5    8   3.466   6.658   6.571  0.2793  0.7551 -0.1803
    1CHL1    C6    9   3.337   6.672   6.525 -0.2883 -0.2986 -0.0413
    1CHL1    H6   10   3.245   6.664   6.584 -0.1760  0.3290  0.2291
    1CHL1    C7   11   3.307   6.693   6.379 -0.3776  0.0266  0.3652
    1CHL1   H7A   12   3.210   6.647   6.348 -0.6097  1.0203 -0.4500
    1CHL1   H7B   13   3.296   6.804   6.374 -3.4204 -0.1954 -0.2974
    1CHL1    C8   14   3.420   6.645   6.278  0.0644 -0.9735 -0.5380
    1CHL1    H8   15   3.423   6.534   6.278 -0.6556 -0.9958 -1.3603
    1CHL1   C14   16   3.386   6.691   6.143  0.3506  0.2150 -0.2757
    1CHL1   H14   17   3.379   6.802   6.147  1.6927  0.2995  0.3624
    1CHL1   C15   18   3.259   6.635   6.080 -0.7112  0.2268 -0.1679
    1CHL1  H15A   19   3.262   6.526   6.104  1.7006  0.2575 -0.1335
    1CHL1  H15B   20   3.167   6.677   6.126  0.6988  1.7857  1.3378
    1CHL1   C16   21   3.279   6.649   5.930 -0.2435  0.1913 -0.2572
    1CHL1  H16A   22   3.264   6.549   5.884 -1.9504 -0.9887  2.5539
    1CHL1  H16B   23   3.210   6.715   5.874 -0.6844 -1.1259 -1.3190
    1CHL1   C17   24   3.423   6.701   5.901 -0.6969 -0.1709  0.2454
    1CHL1   H17   25   3.410   6.811   5.898 -1.5431 -0.2908 -1.3312
    1CHL1   C13   26   3.498   6.658   6.031  0.9592  0.5313 -0.5750
    1CHL1   C18   27   3.532   6.503   6.022 -0.0587 -0.1648  0.1434
    1CHL1  H18A   28   3.561   6.470   6.124 -0.8508  1.8179  1.0587
    1CHL1  H18B   29   3.450   6.437   5.986 -1.5299  0.8966  1.4074
    1CHL1  H18C   30   3.617   6.502   5.950  0.6715 -0.1021  0.9928
    1CHL1   C12   31   3.622   6.736   6.068 -0.2003 -0.2417  0.5569
    1CHL1  H12A   32   3.700   6.692   6.002 -0.8353 -1.5997  0.6632
    1CHL1  H12B   33   3.608   6.844   6.050  1.0268 -0.3473 -1.3148
    1CHL1   C11   34   3.668   6.702   6.220 -0.1977 -0.1357  1.1068
    1CHL1  H11A   35   3.723   6.608   6.197 -1.6689 -0.5261 -1.0483
    1CHL1  H11B   36   3.750   6.774   6.242  0.3883  0.2570 -1.9111
    1CHL1    C9   37   3.555   6.701   6.328 -0.1798 -0.2593  0.4880
    1CHL1    H9   38   3.531   6.809   6.340 -0.2448 -0.4124  2.0271
    1CHL1   C10   39   3.588   6.659   6.473 -0.5118  0.0816  0.0870
    1CHL1   C19   40   3.640   6.516   6.459  0.1100 -0.1052 -0.2094
    1CHL1  H19A   41   3.560   6.453   6.415  0.1383 -0.5967  0.4312
    1CHL1  H19B   42   3.724   6.513   6.386 -1.2003  2.3425 -1.9837
    1CHL1  H19C   43   3.679   6.479   6.557  0.0634 -2.2177 -0.9443
    1CHL1    C1   44   3.698   6.750   6.520  0.0444 -1.0071 -0.2003
    1CHL1   H1A   45   3.789   6.730   6.459 -0.6938 -1.6380 -1.1243
    1CHL1   H1B   46   3.661   6.853   6.502  0.3269 -0.9603 -0.5129
    1CHL1    C2   47   3.739   6.727   6.671 -0.0598  0.1223 -0.1405
    1CHL1   H2A   48   3.817   6.803   6.691 -0.6930  0.5822  0.6619
    1CHL1   H2B   49   3.776   6.625   6.697  0.7924  0.3082 -0.6024
    1CHL1   C20   50   3.473   6.652   5.762  0.2123 -0.1996 -0.2822
    1CHL1   H20   51   3.509   6.547   5.764 -0.5534 -0.4692 -0.4414
    1CHL1   C21   52   3.580   6.752   5.719  0.0449  0.3145 -0.5105
    1CHL1  H21A   53   3.544   6.857   5.723  1.8799  1.0042 -0.9520
    1CHL1  H21B   54   3.626   6.729   5.620 -1.8559 -1.0867 -1.1340
    1CHL1  H21C   55   3.670   6.748   5.784 -1.4180 -0.0648  1.6042
    1CHL1   C22   56   3.360   6.669   5.655 -0.5967 -0.3710 -0.1965
    1CHL1  H22A   57   3.260   6.625   5.675 -0.4774 -0.0292  1.2417
    1CHL1  H22B   58   3.343   6.779   5.647  0.3589 -0.3119 -2.3214
    1CHL1   C23   59   3.396   6.622   5.513  0.5116 -0.6890  0.8322
    1CHL1  H23A   60   3.500   6.643   5.482 -0.3325 -0.4274 -2.1232
    1CHL1  H23B   61   3.396   6.512   5.498 -1.2218 -0.4805 -1.1655
    1CHL1   C24   62   3.307   6.682   5.407  0.1603 -0.1358  0.4112
    1CHL1  H24A   63   3.208   6.647   5.444  0.4629 -1.5385 -0.0281
    1CHL1  H24B   64   3.311   6.792   5.421 -0.8423 -0.0979  0.4540
    1CHL1   C25   65   3.326   6.638   5.263 -0.2310  0.2005  0.3210
    1CHL1   H25   66   3.296   6.532   5.264 -0.5791  0.2560  3.2175
    1CHL1   C26   67   3.246   6.727   5.165  0.0482 -0.5424 -0.0282
    1CHL1  H26A   68   3.280   6.711   5.060  0.6660 -3.8858  0.5898
    1CHL1  H26B   69   3.143   6.688   5.180  0.2518 -1.7650 -1.5674
    1CHL1  H26C   70   3.240   6.834   5.196 -1.2494 -1.0261  1.5195
    1CHL1   C27   71   3.465   6.654   5.204 -0.3128 -0.3875  0.6097
    1CHL1  H27A   72   3.486   6.763   5.213 -1.6676  0.0250 -0.7648
    1CHL1  H27B   73   3.531   6.596   5.272  2.0217  3.5221  2.0375
    1CHL1  H27C   74   3.479   6.622   5.098  0.7873  0.5510  0.4455
    2CHL1    C3   75   5.925   6.720   6.023 -0.1290  0.9304 -0.3373
    2CHL1    H3   76   5.831   6.780   6.023 -1.5706 -1.1761  1.1296
    2CHL1    O3   77   5.960   6.696   6.154 -0.1947 -0.1974  0.1271
    2CHL1   H3'   78   6.029   6.760   6.173 -0.0718  0.0641 -1.1127
    2CHL1    C4   79   5.906   6.578   5.950  0.2337 -0.6015 -0.4441
    2CHL1   H4A   80   6.002   6.524   5.964 -0.8592 -2.3777  0.5258
    2CHL1   H4B   81   5.831   6.519   6.006 -0.4727 -0.4453 -1.2049
    2CHL1    C5   82   5.884   6.596   5.800 -0.3043 -0.8397  0.2955
    2CHL1    C6   83   5.791   6.529   5.742  0.2474 -0.1789  0.6158
    2CHL1    H6   84   5.746   6.454   5.808  1.2309  0.0022  1.5229
    2CHL1    C7   85   5.763   6.526   5.594  0.2822  0.0170 -0.9450
    2CHL1   H7A   86   5.755   6.421   5.559  1.9298  0.0149 -1.3910
    2CHL1   H7B   87   5.662   6.572   5.581 -0.3974 -0.4229  2.0229
    2CHL1    C8   88   5.877   6.592   5.513 -0.0175  0.0647  0.5136
    2CHL1    H8   89   5.955   6.516   5.495  0.1670  0.5981 -1.0345
    2CHL1   C14   90   5.817   6.634   5.378  0.4795 -0.2470  0.5342
    2CHL1   H14   91   5.744   6.712   5.408 -0.3573 -0.7898 -0.0486
    2CHL1   C15   92   5.747   6.531   5.288  0.3525 -0.4772 -0.1846
    2CHL1  H15A   93   5.795   6.431   5.291 -1.2155 -1.2712 -0.4074
    2CHL1  H15B   94   5.642   6.511   5.318  0.1968  0.9175  0.2861
    2CHL1   C16   95   5.747   6.582   5.148 -1.0699 -0.1548  0.0198
    2CHL1  H16A   96   5.814   6.528   5.077 -1.9501 -2.8467  1.1207
    2CHL1  H16B   97   5.648   6.581   5.097 -2.2006  0.6454  2.0994
    2CHL1   C17   98   5.802   6.727   5.168 -0.4924 -0.1261 -0.3164
    2CHL1   H17   99   5.718   6.793   5.199 -0.6165 -1.7647  3.2707
    2CHL1   C13  100   5.905   6.710   5.291  0.0246  0.4317  0.3829
    2CHL1   C18  101   6.030   6.629   5.247 -0.3702  0.3120 -1.1971
    2CHL1  H18A  102   6.096   6.697   5.190 -2.8036 -0.1876 -4.9347
    2CHL1  H18B  103   6.094   6.591   5.330 -1.2465  0.7822 -0.2796
    2CHL1  H18C  104   6.001   6.539   5.189  0.7777 -2.9689  2.8073
    2CHL1   C12  105   5.950   6.843   5.356  0.1999 -0.4173 -0.5053
    2CHL1  H12A  106   6.013   6.907   5.289  1.1810 -1.8814 -1.0412
    2CHL1  H12B  107   5.859   6.900   5.384  1.7193  1.3982  1.0290
    2CHL1   C11  108   6.018   6.812   5.493  0.5148  0.1128  0.5283
    2CHL1  H11A  109   6.116   6.764   5.472  0.4028 -0.4169  1.1748
    2CHL1  H11B  110   6.043   6.909   5.540  0.4923 -0.1044  0.9982
    2CHL1    C9  111   5.934   6.717   5.584  0.8666  0.0088 -0.2085
    2CHL1    H9  112   5.848   6.785   5.599  0.6204 -0.3735  0.1420
    2CHL1   C10  113   5.978   6.690   5.729  0.3093 -0.4073  0.0818
    2CHL1   C19  114   6.123   6.619   5.710  0.1384  0.1468 -0.0707
    2CHL1  H19A  115   6.176   6.701   5.658 -0.7608  1.0645  0.4210
    2CHL1  H19B  116   6.173   6.586   5.803  0.0430 -3.2379 -1.0618
    2CHL1  H19C  117   6.105   6.522   5.658  0.3968  0.4688 -0.7740
    2CHL1    C1  118   5.988   6.822   5.804 -1.0168 -0.1463  0.1710
    2CHL1   H1A  119   6.071   6.870   5.748 -2.5747  0.4694 -1.7125
    2CHL1   H1B  120   5.890   6.875   5.800 -1.5740 -1.2224 -0.9741
    2CHL1    C2  121   6.031   6.799   5.953 -0.7965 -0.2448  0.2100
    2CHL1   H2A  122   6.041   6.895   6.007 -0.2413 -0.7396  0.9941
    2CHL1   H2B  123   6.129   6.749   5.964  0.4876  2.5757  2.8598
    2CHL1   C20  124   5.867   6.791   5.046 -0.5892  0.1337 -0.2408
    2CHL1   H20  125   5.977   6.796   5.064 -0.7727 -1.1834  1.5728
    2CHL1   C21  126   5.815   6.941   5.055 -0.1178 -0.7442  0.4619
    2CHL1  H21A  127   5.704   6.946   5.063 -0.0963  1.6972 -0.0247
    2CHL1  H21B  128   5.844   7.003   4.967  3.2817 -1.3169  1.0430
    2CHL1  H21C  129   5.845   6.986   5.152 -0.8227  0.7125  0.0396
    2CHL1   C22  130   5.837   6.728   4.911 -0.1598 -0.4002 -0.7816
    2CHL1  H22A  131   5.888   6.629   4.912 -0.9040 -0.8009 -1.1713
    2CHL1  H22B  132   5.728   6.707   4.917 -0.0402 -0.9565 -0.4634
    2CHL1   C23  133   5.867   6.812   4.785  0.1588  0.0847  0.1075
    2CHL1  H23A  134   5.798   6.896   4.762  0.2445  0.0926 -0.1220
    2CHL1  H23B  135   5.972   6.844   4.801  1.0451 -2.3645 -0.2830
    2CHL1   C24  136   5.882   6.715   4.664  0.4226  0.9469  0.5032
    2CHL1  H24A  137   5.945   6.627   4.690 -1.4307 -0.0407  1.8308
    2CHL1  H24B  138   5.781   6.668   4.659  0.4836  0.7739  0.9210
    2CHL1   C25  139   5.913   6.782   4.530 -0.4582  0.4282  0.2561
    2CHL1   H25  140   5.834   6.849   4.489  1.3547  2.1103 -0.6712
    2CHL1   C26  141   6.040   6.866   4.528 -0.7316 -0.2767 -0.9726
    2CHL1  H26A  142   6.124   6.803   4.564  0.3723  1.7978  0.3245
    2CHL1  H26B  143   6.068   6.896   4.425 -0.1845  2.0676 -0.2016
    2CHL1  H26C  144   6.035   6.949   4.601  1.1867 -1.5702  0.7286
    2CHL1   C27  145   5.922   6.664   4.429  0.5675  0.0418 -0.1891
    2CHL1  H27A  146   5.821   6.621   4.411 -0.2590  0.9752  1.9366
    2CHL1  H27B  147   5.967   6.709   4.338  0.6435 -1.6819 -1.0574
    2CHL1  H27C  148   5.992   6.581   4.453 -0.8208 -1.4586 -1.0899
    3CHL1    C3  149   2.057   5.789   6.584 -0.0762 -0.1945 -0.2574
    3CHL1    H3  150   2.002   5.694   6.600  3.5130 -2.4564 -0.3662
    3CHL1    O3  151   2.045   5.850   6.712  0.0199 -0.1756 -0.9282
    3CHL1   H3'  152   1.952   5.831   6.725 -0.3744 -0.8018 -3.9800
    3CHL1    C4  153   2.197   5.761   6.535 -0.7268 -0.9034 -0.0002
    3CHL1   H4A  154   2.251   5.857   6.520 -1.8247 -0.0629  1.1589
    3CHL1   H4B  155   2.252   5.693   6.604 -1.3306 -1.3181  0.0793
    3CHL1    C5  156   2.185   5.672   6.411 -0.3458 -0.4178 -0.6853
    3CHL1    C6  157   2.229   5.548   6.410  0.6634 -0.1734  0.0576
    3CHL1    H6  158   2.267   5.504   6.503  3.3519  0.3523 -0.7029
    3CHL1    C7  159   2.221   5.454   6.291 -0.1399  0.8512 -0.1936
    3CHL1   H7A  160   2.312   5.391   6.287 -0.7823 -0.0600 -0.8503
    3CHL1   H7B  161   2.138   5.380   6.299  1.9961 -1.5278  1.5157
    3CHL1    C8  162   2.202   5.540   6.162  0.6686  0.1307  0.4427
    3CHL1    H8  163   2.299   5.592   6.144  2.1549 -2.3151  1.0049
    3CHL1   C14  164   2.170   5.443   6.050  0.2017 -0.0338 -0.1415
    3CHL1   H14  165   2.085   5.377   6.078  1.4960 -1.2727  1.0358
    3CHL1   C15  166   2.275   5.343   6.011  0.1768  0.0619 -0.4129
    3CHL1  H15A  167   2.377   5.387   6.003  0.5383 -0.5354  0.6433
    3CHL1  H15B  168   2.280   5.255   6.078  0.7778  0.4604  0.0760
    3CHL1   C16  169   2.244   5.308   5.865  0.1097  0.5540 -1.4368
    3CHL1  H16A  170   2.343   5.319   5.816  0.7303 -0.4329 -0.4619
    3CHL1  H16B  171   2.222   5.200   5.849  0.5317  0.5212 -1.8184
    3CHL1   C17  172   2.126   5.402   5.826  0.7354  0.2950  0.4321
    3CHL1   H17  173   2.031   5.347   5.845  1.1907 -0.1667  1.4378
    3CHL1   C13  174   2.131   5.519   5.924  0.0992 -0.2876  0.5175
    3CHL1   C18  175   2.248   5.612   5.879 -0.4081  0.3523  0.1725
    3CHL1  H18A  176   2.339   5.553   5.856 -1.0763 -1.3520  1.6791
    3CHL1  H18B  177   2.219   5.674   5.792  0.4931  2.4860  1.3181
    3CHL1  H18C  178   2.280   5.683   5.958 -1.3316 -0.6080  1.4535
    3CHL1   C12  179   2.006   5.599   5.954 -0.6448 -0.0117 -0.1313
    3CHL1  H12A  180   1.976   5.663   5.868 -0.5946  2.8537  1.8517
    3CHL1  H12B  181   1.919   5.534   5.980 -0.4366 -0.3679 -0.3155
    3CHL1   C11  182   2.022   5.702   6.071 -0.4865 -0.0177 -0.2474
    3CHL1  H11A  183   2.088   5.779   6.026  1.5918 -1.4775  0.1461
    3CHL1  H11B  184   1.927   5.756   6.088 -1.6970 -2.4643  1.2999
    3CHL1    C9  185   2.083   5.639   6.196 -0.6316  0.2126  0.0313
    3CHL1    H9  186   2.008   5.568   6.237 -0.8617  0.2107 -0.3768
    3CHL1   C10  187   2.115   5.741   6.299 -0.2952 -0.5731 -0.3506
    3CHL1   C19  188   2.214   5.856   6.242 -0.0973 -0.4427  0.1728
    3CHL1  H19A  189   2.167   5.915   6.160 -1.4829 -0.9277  0.5864
    3CHL1  H19B  190   2.235   5.932   6.320  0.1031 -2.2387  1.9548
    3CHL1  H19C  191   2.315   5.821   6.211 -0.3244 -0.3580 -0.6820
    3CHL1    C1  192   1.982   5.797   6.345 -0.0658  0.2370 -0.1359
    3CHL1   H1A  193   1.926   5.867   6.279 -1.3870 -1.3515 -0.7732
    3CHL1   H1B  194   1.911   5.717   6.377  0.1582  0.6554  1.4613
    3CHL1    C2  195   1.992   5.884   6.479 -0.1519  0.1670 -0.5637
    3CHL1   H2A  196   1.889   5.915   6.506  0.1575  2.1381 -1.5343
    3CHL1   H2B  197   2.057   5.974   6.472  1.0943 -0.7088 -0.6234
    3CHL1   C20  198   2.137   5.434   5.675  0.0828  0.8353 -0.0225
    3CHL1   H20  199   2.211   5.514   5.652 -0.1897  0.3969 -2.7644
    3CHL1   C21  200   1.999   5.483   5.633  1.4000  0.5505 -0.0467
    3CHL1  H21A  201   1.921   5.404   5.644  0.8765  1.1149  0.3523
    3CHL1  H21B  202   1.998   5.524   5.529  0.7123  2.6898  0.7581
    3CHL1  H21C  203   1.978   5.577   5.687 -0.5013  2.1904 -3.2999
    3CHL1   C22  204   2.183   5.307   5.589  0.2750 -0.0498  0.8497
    3CHL1  H22A  205   2.291   5.286   5.604  0.5771  0.1155 -0.8738
    3CHL1  H22B  206   2.131   5.216   5.625 -0.0783 -0.5439 -0.8419
    3CHL1   C23  207   2.157   5.318   5.442  0.6770 -0.5824 -0.6041
    3CHL1  H23A  208   2.163   5.215   5.400  1.5562 -0.0309 -1.9041
    3CHL1  H23B  209   2.054   5.355   5.418  0.2332  0.9317  2.9840
    3CHL1   C24  210   2.259   5.410   5.374  0.9310 -0.0164 -0.3564
    3CHL1  H24A  211   2.250   5.505   5.431 -0.2788  0.3948 -1.1954
    3CHL1  H24B  212   2.363   5.374   5.393  0.3965 -1.9930 -0.9025
    3CHL1   C25  213   2.244   5.428   5.223 -0.8107 -0.4858 -0.5459
    3CHL1   H25  214   2.135   5.448   5.212 -1.4642 -2.9646  0.6549
    3CHL1   C26  215   2.327   5.551   5.175  0.8069 -0.2716  0.0864
    3CHL1  H26A  216   2.314   5.561   5.065 -1.1235  0.5018  0.3403
    3CHL1  H26B  217   2.299   5.643   5.232  1.6295 -0.3715  0.6723
    3CHL1  H26C  218   2.434   5.531   5.197  0.8491 -1.9433 -1.4057
    3CHL1   C27  219   2.275   5.297   5.147 -0.1440  0.2325  0.1156
    3CHL1  H27A  220   2.385   5.282   5.151  0.1372  1.7468 -0.8834
    3CHL1  H27B  221   2.225   5.211   5.196  2.0555 -1.2767 -0.1258
    3CHL1  H27C  222   2.247   5.308   5.041  1.5288 -0.3524 -0.4225
    4CHL1    C3  223   0.135   5.190   6.692 -0.1713 -0.0516 -0.2463
    4CHL1    H3  224   0.192   5.277   6.733  0.4010 -1.2523  1.6501
    4CHL1    O3  225   0.071   5.134   6.804  0.5843  0.8393  0.0650
    4CHL1   H3'  226   0.036   5.049   6.776 -1.3702  1.1670  1.3042
    4CHL1    C4  227   0.031   5.238   6.589 -0.6426  0.1223 -0.1650
    4CHL1   H4A  228  -0.038   5.158   6.554  1.1259 -1.6961  0.2571
    4CHL1   H4B  229  -0.030   5.315   6.641  0.0656  1.3822 -1.1578
    4CHL1    C5  230   0.107   5.301   6.475 -0.1555 -0.5427  0.1040
    4CHL1    C6  231   0.089   5.429   6.445 -0.0100 -0.4114  0.4213
    4CHL1    H6  232   0.022   5.494   6.503  0.0334  0.2790 -0.2861
    4CHL1    C7  233   0.155   5.494   6.322  0.1577 -0.2306 -0.7009
    4CHL1   H7A  234   0.083   5.562   6.273  1.5043  1.7231 -0.0645
    4CHL1   H7B  235   0.234   5.566   6.353  0.4389 -0.0688 -1.7630
    4CHL1    C8  236   0.208   5.394   6.213  0.0794 -0.6272 -0.1459
    4CHL1    H8  237   0.118   5.353   6.162 -0.3075 -0.5554  0.4678
    4CHL1   C14  238   0.299   5.452   6.109  0.1297 -0.3202  0.0855
    4CHL1   H14  239   0.394   5.489   6.151  0.1077  2.2804 -1.8927
    4CHL1   C15  240   0.243   5.578   6.040  0.2480 -0.0764  0.3974
    4CHL1  H15A  241   0.139   5.565   6.005 -0.2821  2.4065  0.8769
    4CHL1  H15B  242   0.259   5.669   6.102 -1.3161  0.4774  0.0196
    4CHL1   C16  243   0.333   5.581   5.913  0.0798  0.3101  0.0432
    4CHL1  H16A  244   0.271   5.596   5.822 -1.3455  0.6400  1.0148
    4CHL1  H16B  245   0.399   5.670   5.911  1.4914 -0.7141 -1.5820
    4CHL1   C17  246   0.417   5.451   5.910 -0.1562  0.4001 -0.1587
    4CHL1   H17  247   0.509   5.477   5.967 -0.9172  2.5880  0.1649
    4CHL1   C13  248   0.340   5.352   5.994  0.7172 -0.3628 -0.6680
    4CHL1   C18  249   0.219   5.295   5.911 -0.4200  0.0496  0.5201
    4CHL1  H18A  250   0.151   5.371   5.867  1.3683 -0.1257 -2.8479
    4CHL1  H18B  251   0.242   5.227   5.826 -1.3883  1.2994 -0.7760
    4CHL1  H18C  252   0.148   5.239   5.976 -2.7592  1.1808 -0.9348
    4CHL1   C12  253   0.419   5.243   6.070  0.7434  0.1513  0.1525
    4CHL1  H12A  254   0.449   5.160   6.002 -0.8481 -0.9672  0.7424
    4CHL1  H12B  255   0.501   5.294   6.125  2.1343  1.4030 -2.8330
    4CHL1   C11  256   0.341   5.178   6.190 -0.0494 -0.4597 -0.3183
    4CHL1  H11A  257   0.257   5.119   6.146  0.6489 -1.8206  0.1085
    4CHL1  H11B  258   0.409   5.118   6.254 -0.6788  0.0978  0.9171
    4CHL1    C9  259   0.280   5.277   6.288  0.2514 -0.1475 -0.3839
    4CHL1    H9  260   0.367   5.325   6.337 -0.0927 -1.9382  2.1643
    4CHL1   C10  261   0.196   5.207   6.399  0.4406  1.0553 -0.3421
    4CHL1   C19  262   0.111   5.089   6.340 -0.1981 -0.1958 -0.1339
    4CHL1  H19A  263   0.179   5.020   6.286  0.8289  1.6689 -1.3487
    4CHL1  H19B  264   0.050   5.034   6.415 -1.1842 -1.5484 -1.8505
    4CHL1  H19C  265   0.043   5.135   6.266 -0.0404 -0.4342 -0.4309
    4CHL1    C1  266   0.297   5.138   6.500 -0.6783 -0.5550 -0.2928
    4CHL1   H1A  267   0.347   5.056   6.445 -0.8956 -1.2821  0.5760
    4CHL1   H1B  268   0.375   5.209   6.534 -1.1090 -0.1234 -0.1880
    4CHL1    C2  269   0.232   5.081   6.630  0.2792 -0.5118  0.4536
    4CHL1   H2A  270   0.313   5.050   6.699 -1.5174 -0.2367  2.8037
    4CHL1   H2B  271   0.172   4.989   6.612 -1.0959  0.2107  1.2046
    4CHL1   C20  272   0.456   5.410   5.765  0.0749  0.4318 -0.6959
    4CHL1   H20  273   0.360   5.423   5.711 -2.0492  0.6238  2.8168
    4CHL1   C21  274   0.515   5.273   5.751 -0.4038  0.1207 -0.7496
    4CHL1  H21A  275   0.447   5.189   5.777 -1.1797  0.7350 -0.7719
    4CHL1  H21B  276   0.606   5.277   5.815  0.5825 -0.5363 -2.0624
    4CHL1  H21C  277   0.552   5.255   5.648  1.7047 -2.6787  0.3648
    4CHL1   C22  278   0.566   5.514   5.724 -0.8951 -0.0137  0.3232
    4CHL1  H22A  279   0.543   5.619   5.751  0.9960 -0.0135  2.1358
    4CHL1  H22B  280   0.658   5.486   5.779 -1.3258 -2.0689  0.0778
    4CHL1   C23  281   0.590   5.507   5.570 -0.1968 -0.4772  0.3600
    4CHL1  H23A  282   0.653   5.420   5.541  3.4598  1.9722  0.3368
    4CHL1  H23B  283   0.497   5.478   5.517 -0.2633 -0.7363  0.6152
    4CHL1   C24  284   0.663   5.618   5.502 -0.4290 -0.1853  0.9604
    4CHL1  H24A  285   0.599   5.706   5.526 -1.5212 -0.8298  0.4798
    4CHL1  H24B  286   0.752   5.638   5.565  0.2615 -0.9662  0.2626
    4CHL1   C25  287   0.705   5.612   5.345  0.1090  0.3646 -0.4407
    4CHL1   H25  288   0.614   5.608   5.281 -0.4941 -0.1426  0.4369
    4CHL1   C26  289   0.786   5.733   5.304 -0.3758 -0.3888  0.6240
    4CHL1  H26A  290   0.840   5.707   5.210  1.6672  2.3132  0.9441
    4CHL1  H26B  291   0.717   5.818   5.288  1.0365  0.4109 -1.9313
    4CHL1  H26C  292   0.861   5.759   5.381 -0.1147  0.0074  0.2377
    4CHL1   C27  293   0.778   5.472   5.320  0.0532 -0.1834 -0.4636
    4CHL1  H27A  294   0.809   5.462   5.214  0.2153  0.0916 -0.4426
    4CHL1  H27B  295   0.872   5.461   5.379  0.3550  1.7133 -0.5306
    4CHL1  H27C  296   0.705   5.391   5.342  1.1914 -2.0354 -3.0383
    5CHL1    C3  297   5.223   0.461   6.711 -0.5548 -0.1436 -0.4008
    5CHL1    H3  298   5.313   0.398   6.725 -0.6673 -0.3399 -0.5589
    5CHL1    O3  299   5.154   0.479   6.838  0.0340  0.2321  0.3147
    5CHL1   H3'  300   5.068   0.518   6.821 -0.6237 -1.0397  0.5922
    5CHL1    C4  301   5.264   0.596   6.646  0.0471 -0.2635 -0.2726
    5CHL1   H4A  302   5.176   0.663   6.630 -0.0085 -0.1565  0.4725
    5CHL1   H4B  303   5.333   0.656   6.709 -0.1426  0.3322 -0.6125
    5CHL1    C5  304   5.318   0.593   6.509  0.1474  0.0759  0.0195
    5CHL1    C6  305   5.430   0.653   6.471 -0.5934  0.2141  0.3592
    5CHL1    H6  306   5.495   0.715   6.535  0.5728 -0.9164  0.3046
    5CHL1    C7  307   5.479   0.648   6.324 -0.3345 -0.2285 -0.0254
    5CHL1   H7A  308   5.502   0.755   6.304 -0.1297 -0.0263  1.2378
    5CHL1   H7B  309   5.571   0.588   6.309 -0.0107  0.2112  0.1869
    5CHL1    C8  310   5.370   0.600   6.226  0.0270  0.0691  0.5118
    5CHL1    H8  311   5.297   0.682   6.212  1.5948  1.1013 -2.3377
    5CHL1   C14  312   5.417   0.567   6.087 -0.4154 -0.3137 -0.5374
    5CHL1   H14  313   5.506   0.503   6.106  1.3972  2.6443  1.7824
    5CHL1   C15  314   5.483   0.687   6.014 -0.4978  0.3522  0.0537
    5CHL1  H15A  315   5.423   0.776   6.041 -1.2363 -0.6807  2.0033
    5CHL1  H15B  316   5.585   0.697   6.058 -1.7890  1.9139  2.9705
    5CHL1   C16  317   5.497   0.644   5.872 -0.0492 -0.1049  0.0178
    5CHL1  H16A  318   5.450   0.727   5.815  0.2175 -0.3433 -0.5564
    5CHL1  H16B  319   5.602   0.622   5.843 -0.0375 -0.0761  0.0378
    5CHL1   C17  320   5.402   0.521   5.856  0.1048 -0.2369  0.7645
    5CHL1   H17  321   5.471   0.435   5.868 -0.2844 -0.9377 -1.6249
    5CHL1   C13  322   5.320   0.511   5.987  0.3292 -0.4937 -0.0643
    5CHL1   C18  323   5.192   0.605   5.975  0.0434 -0.0579 -0.6603
    5CHL1  H18A  324   5.220   0.701   5.928 -0.0500 -0.6182 -1.8952
    5CHL1  H18B  325   5.113   0.556   5.914 -1.3522 -0.7831  1.6008
    5CHL1  H18C  326   5.149   0.622   6.076  0.1778 -0.6348 -0.5011
    5CHL1   C12  327   5.289   0.365   6.050 -0.3703 -0.2527  0.1650
    5CHL1  H12A  328   5.219   0.317   5.977 -1.3837 -1.2730  1.7602
    5CHL1  H12B  329   5.389   0.318   6.059 -0.7065 -1.0228 -0.0545
    5CHL1   C11  330   5.224   0.376   6.187 -0.1931 -0.0972  0.0206
    5CHL1  H11A  331   5.121   0.414   6.169 -0.7675 -2.6374 -2.8836
    5CHL1  H11B  332   5.208   0.274   6.230 -2.4854  0.6264  1.0176
    5CHL1    C9  333   5.298   0.475   6.283 -0.0567 -0.3308  0.1036
    5CHL1    H9  334   5.379   0.411   6.323 -1.0881  0.6955  4.2798
    5CHL1   C10  335   5.227   0.513   6.412  0.9895  0.5359 -0.5310
    5CHL1   C19  336   5.109   0.605   6.383 -0.5308  0.4278 -0.2669
    5CHL1  H19A  337   5.156   0.700   6.351  1.6054 -0.1061  1.1293
    5CHL1  H19B  338   5.043   0.574   6.299 -0.4375  2.1651 -1.0265
    5CHL1  H19C  339   5.052   0.617   6.478  0.8246 -1.0781  0.7757
    5CHL1    C1  340   5.176   0.381   6.475 -0.1496  0.0790  0.2144
    5CHL1   H1A  341   5.090   0.344   6.416 -0.0059  1.3328 -0.8405
    5CHL1   H1B  342   5.259   0.308   6.485 -1.8279 -2.2007 -1.4815
    5CHL1    C2  343   5.124   0.398   6.619  0.0667  0.5172  0.6190
    5CHL1   H2A  344   5.106   0.299   6.667 -0.4627 -0.4116 -1.3847
    5CHL1   H2B  345   5.021   0.441   6.629 -1.0819 -1.7028 -0.8235
    5CHL1   C20  346   5.342   0.506   5.720 -0.1460 -0.0572  0.4196
    5CHL1   H20  347   5.293   0.600   5.689 -3.9918 -1.6244  1.1908
    5CHL1   C21  348   5.231   0.397   5.708  0.2876  0.4726 -0.2171
    5CHL1  H21A  349   5.148   0.428   5.776 -0.7221  0.7090 -1.5052
    5CHL1  H21B  350   5.271   0.302   5.748  0.1811  0.0766 -1.0218
    5CHL1  H21C  351   5.193   0.387   5.604 -2.8545 -1.6401  0.9629
    5CHL1   C22  352   5.463   0.478   5.616  0.4201 -0.6281  0.7195
    5CHL1  H22A  353   5.547   0.549   5.635  0.5809 -0.7960  0.6328
    5CHL1  H22B  354   5.512   0.380   5.635  1.2322  0.1259  2.8914
    5CHL1   C23  355   5.435   0.470   5.462  0.1924  0.0618 -0.7476
    5CHL1  H23A  356   5.358   0.548   5.448 -0.1621  0.3301  2.2078
    5CHL1  H23B  357   5.525   0.507   5.409  2.2248 -1.6606  1.2520
    5CHL1   C24  358   5.389   0.336   5.409  0.4922  0.2259 -0.2004
    5CHL1  H24A  359   5.475   0.266   5.414  0.0279 -0.3627 -0.2431
    5CHL1  H24B  360   5.306   0.282   5.461  0.2590 -2.3241 -2.9246
    5CHL1   C25  361   5.352   0.356   5.258  0.6840 -0.2515  0.5880
    5CHL1   H25  362   5.427   0.431   5.224  0.4255  0.2170  1.0311
    5CHL1   C26  363   5.363   0.226   5.174 -0.0780  0.4558  0.4774
    5CHL1  H26A  364   5.466   0.196   5.145  0.3176  2.2462 -0.1094
    5CHL1  H26B  365   5.306   0.146   5.226 -0.2309  1.7406  2.4088
    5CHL1  H26C  366   5.317   0.265   5.081  0.3737  0.1039  0.1024
    5CHL1   C27  367   5.224   0.438   5.238  0.1809  0.2654 -0.0633
    5CHL1  H27A  368   5.215   0.521   5.312  0.8439  0.8698 -0.6499
    5CHL1  H27B  369   5.215   0.469   5.132  0.7513 -0.1146 -0.2302
    5CHL1  H27C  370   5.139   0.370   5.264  0.2969  0.5901  1.2497
    6CHL1    C3  371   6.471   4.263   6.226  0.0928 -0.5718 -0.2821
    6CHL1    H3  372   6.370   4.304   6.204  0.5005 -0.5462 -2.3325
    6CHL1    O3  373   6.533   4.348   6.315 -0.3874 -0.0514  0.1835
    6CHL1   H3'  374   6.574   4.306   6.391  0.9945  1.6360  0.4616
    6CHL1    C4  375   6.451   4.115   6.279 -0.1950 -0.5478 -0.4741
    6CHL1   H4A  376   6.541   4.077   6.333  0.3545  2.9132  1.3583
    6CHL1   H4B  377   6.385   4.123   6.369  1.2808 -1.1487  0.7036
    6CHL1    C5  378   6.407   4.019   6.170 -0.1837 -0.8130  0.6968
    6CHL1    C6  379   6.306   3.940   6.187 -0.2033  0.0320 -0.6525
    6CHL1    H6  380   6.266   3.943   6.290 -0.9849  0.5977 -0.9646
    6CHL1    C7  381   6.288   3.831   6.094  0.0824 -0.2751 -0.0394
    6CHL1   H7A  382   6.250   3.739   6.143 -1.0091 -1.3465 -2.6899
    6CHL1   H7B  383   6.206   3.853   6.021  0.7494  2.5441 -0.0332
    6CHL1    C8  384   6.402   3.791   5.992  0.3748 -0.2644  0.2830
    6CHL1    H8  385   6.484   3.729   6.033  1.6866 -0.5658 -2.5776
    6CHL1   C14  386   6.358   3.698   5.880  0.4286 -0.2990 -0.3967
    6CHL1   H14  387   6.275   3.750   5.826  2.4968  0.1776 -3.3790
    6CHL1   C15  388   6.291   3.566   5.921 -0.3452  0.4007  0.1424
    6CHL1  H15A  389   6.368   3.508   5.978  1.8770  1.5953 -1.4703
    6CHL1  H15B  390   6.202   3.577   5.986  0.0771 -0.1303  0.8450
    6CHL1   C16  391   6.283   3.500   5.785  0.2999  0.3999  0.1175
    6CHL1  H16A  392   6.331   3.400   5.798  1.4486  0.9743  0.4604
    6CHL1  H16B  393   6.180   3.490   5.744  0.6034 -0.3034 -0.5030
    6CHL1   C17  394   6.375   3.582   5.684 -0.3873  0.5264  0.7064
    6CHL1   H17  395   6.304   3.648   5.628 -0.3227 -0.8058 -1.0198
    6CHL1   C13  396   6.464   3.672   5.775  0.1010  0.3590  0.2583
    6CHL1   C18  397   6.570   3.577   5.839 -0.2728  0.2023 -0.1174
    6CHL1  H18A  398   6.605   3.611   5.938 -2.5975  0.0093  0.8403
    6CHL1  H18B  399   6.542   3.473   5.867  0.5473  0.4517  1.7201
    6CHL1  H18C  400   6.660   3.579   5.774 -0.2567  0.8943 -0.0836
    6CHL1   C12  401   6.519   3.797   5.711  0.4390  0.0681 -0.2851
    6CHL1  H12A  402   6.610   3.767   5.654  2.1050  0.0238  2.2757
    6CHL1  H12B  403   6.454   3.853   5.640  1.1377 -0.8282 -1.6905
    6CHL1   C11  404   6.560   3.899   5.818  0.0378  0.7496  0.2746
    6CHL1  H11A  405   6.659   3.866   5.856 -0.2569  0.7616  1.0731
    6CHL1  H11B  406   6.570   3.998   5.769  0.6432  1.3647  1.5586
    6CHL1    C9  407   6.455   3.919   5.930  0.1977 -0.1693 -0.5479
    6CHL1    H9  408   6.365   3.967   5.885 -0.8462 -0.7124  0.8883
    6CHL1   C10  409   6.500   4.018   6.046  0.0653  0.4341  0.0650
    6CHL1   C19  410   6.635   3.968   6.099 -0.2781 -0.6684  0.1548
    6CHL1  H19A  411   6.710   3.999   6.023  1.4033 -0.3340  1.8619
    6CHL1  H19B  412   6.674   4.008   6.195 -1.1338  0.7941 -0.0774
    6CHL1  H19C  413   6.635   3.858   6.112 -0.7695 -0.8815 -1.4998
    6CHL1    C1  414   6.516   4.165   5.991  0.2324  0.0542  0.7553
    6CHL1   H1A  415   6.594   4.167   5.912 -0.8762  1.7650 -0.3779
    6CHL1   H1B  416   6.417   4.194   5.949  0.0336  0.5491  1.5253
    6CHL1    C2  417   6.559   4.266   6.103 -0.6512  0.5252  0.6800
    6CHL1   H2A  418   6.555   4.363   6.050 -2.3039 -0.2564 -0.7404
    6CHL1   H2B  419   6.660   4.234   6.134 -0.3538 -1.9635 -2.3162
    6CHL1   C20  420   6.433   3.495   5.563 -0.2447 -0.2639  0.2775
    6CHL1   H20  421   6.512   3.425   5.599 -0.7865 -0.4727  1.0982
    6CHL1   C21  422   6.500   3.590   5.453  0.3533  0.2364 -0.3946
    6CHL1  H21A  423   6.429   3.675   5.440 -0.0167 -0.4290 -3.3656
    6CHL1  H21B  424   6.525   3.544   5.355  0.0484  0.3513 -0.5246
    6CHL1  H21C  425   6.598   3.630   5.489  1.2620 -1.5646 -0.7719
    6CHL1   C22  426   6.318   3.413   5.493  0.0103  0.0319 -0.5466
    6CHL1  H22A  427   6.249   3.381   5.575 -0.3614  0.2585 -0.7685
    6CHL1  H22B  428   6.259   3.470   5.418 -1.4814 -2.2365 -1.1911
    6CHL1   C23  429   6.369   3.279   5.432 -0.6328 -0.0589  0.3038
    6CHL1  H23A  430   6.437   3.309   5.350  2.0205  0.9577  2.7288
    6CHL1  H23B  431   6.432   3.225   5.505 -1.0281  1.6600  1.9873
    6CHL1   C24  432   6.262   3.181   5.387  0.2777 -0.3418  0.0533
    6CHL1  H24A  433   6.209   3.148   5.479  0.4705  0.5288  0.4902
    6CHL1  H24B  434   6.192   3.242   5.327 -0.1320  0.4149  1.2617
    6CHL1   C25  435   6.302   3.059   5.305 -0.3630 -0.7745  0.0847
    6CHL1   H25  436   6.214   2.993   5.297 -0.6666 -0.2203 -1.4473
    6CHL1   C26  437   6.340   3.096   5.165 -0.4213  0.1434 -0.8154
    6CHL1  H26A  438   6.265   3.154   5.107 -2.0827 -1.5031 -0.4137
    6CHL1  H26B  439   6.436   3.150   5.153 -1.2345  2.1159  1.0654
    6CHL1  H26C  440   6.346   3.000   5.109  0.2224  0.2540 -0.9411
    6CHL1   C27  441   6.419   2.985   5.374 -0.5579  0.6524 -0.5185
    6CHL1  H27A  442   6.402   2.967   5.482 -3.3982  1.4878 -0.7509
    6CHL1  H27B  443   6.439   2.890   5.319  1.3895  1.3046 -1.0191
    6CHL1  H27C  444   6.507   3.049   5.355 -1.3982  2.0936  0.2576
    7CHL1    C3  445   2.230   4.318   6.255 -0.0888  0.6567 -0.0846
    7CHL1    H3  446   2.335   4.290   6.228 -0.6211  0.8072 -2.5848
    7CHL1    O3  447   2.212   4.358   6.389 -0.1856  0.3096  0.1003
    7CHL1   H3'  448   2.194   4.279   6.441  0.3677  0.0830 -0.0449
    7CHL1    C4  449   2.200   4.431   6.165  0.5411  0.1212 -0.0862
    7CHL1   H4A  450   2.106   4.483   6.194  1.0120  1.0649 -0.2075
    7CHL1   H4B  451   2.268   4.516   6.188  0.9280  0.2356 -1.5137
    7CHL1    C5  452   2.190   4.391   6.018  0.4091  0.8038 -0.0292
    7CHL1    C6  453   2.270   4.431   5.926  0.2553  0.1183  0.3154
    7CHL1    H6  454   2.342   4.512   5.947  0.0669  0.5563 -0.6931
    7CHL1    C7  455   2.273   4.382   5.782  0.1251 -0.2111  0.1097
    7CHL1   H7A  456   2.278   4.474   5.721 -2.0019  0.4912  0.9071
    7CHL1   H7B  457   2.360   4.315   5.765 -0.1789 -0.5024 -0.3016
    7CHL1    C8  458   2.136   4.302   5.744 -0.2986 -0.3556 -0.4984
    7CHL1    H8  459   2.054   4.377   5.735 -2.1749 -2.4971 -2.6104
    7CHL1   C14  460   2.137   4.231   5.606  0.0435 -0.2315  0.1795
    7CHL1   H14  461   2.232   4.175   5.621  0.4857  1.1915  3.9007
    7CHL1   C15  462   2.157   4.312   5.478  0.1554  0.1008 -0.1180
    7CHL1  H15A  463   2.107   4.411   5.487 -0.8383 -0.3871 -0.2082
    7CHL1  H15B  464   2.268   4.318   5.484  0.1329 -0.3374  1.1044
    7CHL1   C16  465   2.110   4.215   5.373 -0.7928  0.0932  0.2013
    7CHL1  H16A  466   2.031   4.265   5.313  2.0199  1.5316 -2.6041
    7CHL1  H16B  467   2.195   4.188   5.307 -1.3934 -1.5962  0.0692
    7CHL1   C17  468   2.065   4.086   5.446  0.0206 -0.7962  0.5893
    7CHL1   H17  469   2.157   4.024   5.450 -0.8877 -2.4134 -1.7080
    7CHL1   C13  470   2.027   4.134   5.583 -0.3452 -0.2942  0.0088
    7CHL1   C18  471   1.884   4.203   5.580 -0.1752  0.0859  0.5102
    7CHL1  H18A  472   1.878   4.268   5.490 -2.3683  0.3087  0.7751
    7CHL1  H18B  473   1.804   4.127   5.587 -0.6852 -0.0068 -3.7780
    7CHL1  H18C  474   1.863   4.277   5.660  1.5392  0.3675  0.7401
    7CHL1   C12  475   2.028   4.030   5.684 -0.1135 -0.4525 -0.5401
    7CHL1  H12A  476   1.958   3.946   5.669  0.0008 -0.7814  0.6585
    7CHL1  H12B  477   2.124   3.975   5.688  0.7703  1.0206  3.1511
    7CHL1   C11  478   2.009   4.091   5.822 -0.2303 -0.3659 -0.0395
    7CHL1  H11A  479   1.910   4.142   5.828 -0.5463 -0.7039 -1.8154
    7CHL1  H11B  480   2.018   4.023   5.909  0.9109  1.1906  1.1228
    7CHL1    C9  481   2.116   4.202   5.854  0.1861  0.3087  0.0390
    7CHL1    H9  482   2.211   4.146   5.865 -1.6349 -3.0317  0.0788
    7CHL1   C10  483   2.096   4.265   5.993 -0.5886 -0.6755  0.7046
    7CHL1   C19  484   1.954   4.312   6.004 -0.2492 -0.0469  0.3082
    7CHL1  H19A  485   1.925   4.355   5.906  1.7584 -0.6504 -0.6151
    7CHL1  H19B  486   1.884   4.227   6.022 -1.3031  0.9577  1.0920
    7CHL1  H19C  487   1.939   4.386   6.086 -0.4652 -1.1794  1.3310
    7CHL1    C1  488   2.134   4.148   6.103  0.2454 -0.7136  0.7401
    7CHL1   H1A  489   2.056   4.069   6.106  0.8357 -1.5323 -2.3787
    7CHL1   H1B  490   2.226   4.093   6.075 -1.7006 -2.3770 -3.0442
    7CHL1    C2  491   2.137   4.203   6.244 -0.0090  0.0456 -0.6351
    7CHL1   H2A  492   2.174   4.120   6.308  2.2858  1.2835 -0.2475
    7CHL1   H2B  493   2.036   4.237   6.275 -0.6414 -2.2774  0.0831
    7CHL1   C20  494   1.955   4.010   5.358 -0.4103  0.4242  0.0394
    7CHL1   H20  495   1.875   4.085   5.343  2.6129  3.5237 -2.3122
    7CHL1   C21  496   1.919   3.876   5.432  0.1678  0.3158  0.3955
    7CHL1  H21A  497   1.846   3.891   5.514  0.9007 -0.2214  1.1699
    7CHL1  H21B  498   2.005   3.818   5.471 -0.9631 -0.8311  1.2759
    7CHL1  H21C  499   1.870   3.807   5.360 -0.1030  1.1166 -0.2010
    7CHL1   C22  500   2.006   3.973   5.213  0.2194  0.1273 -0.1021
    7CHL1  H22A  501   1.921   3.918   5.167 -0.1098  0.6838 -0.1719
    7CHL1  H22B  502   2.024   4.061   5.147 -0.7971  0.2760 -0.1964
    7CHL1   C23  503   2.130   3.884   5.186  0.6021  0.3463 -0.3443
    7CHL1  H23A  504   2.217   3.932   5.234  0.2188  1.6941 -0.9522
    7CHL1  H23B  505   2.117   3.783   5.232 -0.9412  0.3066 -0.8047
    7CHL1   C24  506   2.163   3.869   5.038 -0.6869  0.5432 -0.5506
    7CHL1  H24A  507   2.074   3.833   4.984  1.4802 -2.5311 -2.3465
    7CHL1  H24B  508   2.198   3.962   4.988  1.6216  0.0340 -0.0240
    7CHL1   C25  509   2.269   3.770   5.008 -0.2296  1.2581 -0.2847
    7CHL1   H25  510   2.248   3.674   5.060  0.7322  0.0804 -1.9570
    7CHL1   C26  511   2.268   3.730   4.853  0.0710  0.2541  0.0695
    7CHL1  H26A  512   2.313   3.630   4.836 -0.3299  0.3011 -1.3547
    7CHL1  H26B  513   2.165   3.725   4.812  0.1024 -3.0034  0.1543
    7CHL1  H26C  514   2.314   3.812   4.794 -0.3786  0.6099  0.2053
    7CHL1   C27  515   2.410   3.799   5.064 -0.7017  0.3621  0.2783
    7CHL1  H27A  516   2.413   3.808   5.174  1.5399  3.2141  0.1339
    7CHL1  H27B  517   2.489   3.730   5.026  0.5612 -0.2210  3.6094
    7CHL1  H27C  518   2.441   3.896   5.019 -0.7023  0.8172  1.2338
    8CHL1    C3  519   0.400   6.059   6.230 -0.2840 -0.2292  0.3510
    8CHL1    H3  520   0.467   6.143   6.201  0.7976  0.1199  3.5050
    8CHL1    O3  521   0.451   6.008   6.349  0.1117  0.7116  0.3593
    8CHL1   H3'  522   0.407   5.924   6.364  0.9461 -0.2524 -2.0746
    8CHL1    C4  523   0.259   6.115   6.248  0.0296  0.1444 -0.5322
    8CHL1   H4A  524   0.193   6.035   6.287  0.7464 -0.1238  0.1756
    8CHL1   H4B  525   0.260   6.197   6.324 -1.5222  0.7796 -1.1607
    8CHL1    C5  526   0.213   6.168   6.117  0.1256 -0.7442  0.1403
    8CHL1    C6  527   0.178   6.301   6.099  0.3073  0.1437  0.7978
    8CHL1    H6  528   0.172   6.360   6.192  1.2871  0.1932  0.8397
    8CHL1    C7  529   0.110   6.351   5.975  0.3417 -0.0277 -0.4699
    8CHL1   H7A  530   0.023   6.409   6.012  0.0667 -0.5248 -0.3230
    8CHL1   H7B  531   0.166   6.422   5.910 -0.3923 -1.6602 -3.0461
    8CHL1    C8  532   0.058   6.235   5.887 -0.1664 -0.4647 -0.2360
    8CHL1    H8  533  -0.037   6.197   5.932  0.4488 -1.8022 -0.0314
    8CHL1   C14  534   0.027   6.290   5.754  0.4768  0.3619  0.1484
    8CHL1   H14  535   0.128   6.315   5.714  0.8178 -0.7102  0.3133
    8CHL1   C15  536  -0.060   6.418   5.745 -0.4513 -0.0038 -0.4809
    8CHL1  H15A  537  -0.152   6.413   5.807 -0.4472 -0.3122 -0.4971
    8CHL1  H15B  538  -0.006   6.510   5.775 -2.0834  0.4442  1.1985
    8CHL1   C16  539  -0.113   6.413   5.603  0.1727 -0.0612 -0.2008
    8CHL1  H16A  540  -0.222   6.393   5.610 -0.1474  2.0008  2.1199
    8CHL1  H16B  541  -0.098   6.510   5.552  0.3743  1.3502  2.3602
    8CHL1   C17  542  -0.056   6.288   5.527  0.1157  0.2669 -0.4934
    8CHL1   H17  543   0.039   6.319   5.478 -0.4595  3.9689  0.4235
    8CHL1   C13  544  -0.025   6.190   5.649 -0.5886 -0.2186 -0.2881
    8CHL1   C18  545  -0.149   6.122   5.695 -0.2371  0.6675 -0.2586
    8CHL1  H18A  546  -0.234   6.190   5.718 -1.9598 -0.6258 -2.4197
    8CHL1  H18B  547  -0.203   6.050   5.630 -1.9604  2.1996 -0.6194
    8CHL1  H18C  548  -0.126   6.079   5.795  0.3093  1.6337  0.0379
    8CHL1   C12  549   0.085   6.084   5.628 -0.1491  0.3687 -0.2931
    8CHL1  H12A  550   0.056   5.996   5.567 -0.9168  0.6825 -0.4004
    8CHL1  H12B  551   0.170   6.126   5.570 -1.3704  0.9537 -1.7218
    8CHL1   C11  552   0.129   6.022   5.766  0.3437 -0.4571  1.3159
    8CHL1  H11A  553   0.037   5.964   5.789  0.4322 -0.5526  1.4307
    8CHL1  H11B  554   0.207   5.948   5.739  2.3485  1.5923  1.1938
    8CHL1    C9  555   0.167   6.122   5.874  0.2732 -0.0859 -0.5039
    8CHL1    H9  556   0.263   6.168   5.840  2.7780 -3.8184  0.9150
    8CHL1   C10  557   0.204   6.064   6.010  0.4335 -0.3526  0.5500
    8CHL1   C19  558   0.088   5.967   6.045  0.0384 -0.4576 -0.3160
    8CHL1  H19A  559   0.088   5.873   5.986  2.7411 -1.8786  1.7338
    8CHL1  H19B  560   0.092   5.934   6.151 -0.0336  0.3115 -0.0658
    8CHL1  H19C  561  -0.010   6.020   6.046 -0.2288 -0.9619  0.6757
    8CHL1    C1  562   0.338   5.993   5.990 -0.1106  0.9601  0.1323
    8CHL1   H1A  563   0.324   5.904   5.926  0.0107  1.0435 -0.0111
    8CHL1   H1B  564   0.410   6.061   5.939 -1.2214  0.4413 -2.3000
    8CHL1    C2  565   0.393   5.943   6.126  0.3286 -0.0020 -0.1342
    8CHL1   H2A  566   0.490   5.891   6.119 -0.1572 -1.0106  0.3904
    8CHL1   H2B  567   0.318   5.868   6.160 -1.1154  1.2654 -0.3714
    8CHL1   C20  568  -0.160   6.232   5.423  0.3143 -0.6933 -0.2651
    8CHL1   H20  569  -0.251   6.211   5.484  1.2679 -0.0449  1.4411
    8CHL1   C21  570  -0.109   6.107   5.357  0.7342 -0.1533 -0.2896
    8CHL1  H21A  571  -0.179   6.089   5.272  1.4713  1.0009 -1.1673
    8CHL1  H21B  572  -0.095   6.019   5.423  1.1504 -0.0160 -0.1907
    8CHL1  H21C  573  -0.008   6.136   5.320  0.5751  2.1045  0.9142
    8CHL1   C22  574  -0.186   6.330   5.316  0.7816 -1.2162  1.5100
    8CHL1  H22A  575  -0.209   6.431   5.355  0.9155 -0.1842 -0.9112
    8CHL1  H22B  576  -0.103   6.335   5.241 -2.1542 -1.0481 -2.0028
    8CHL1   C23  577  -0.322   6.304   5.230 -0.5424  0.8480 -0.4667
    8CHL1  H23A  578  -0.321   6.213   5.166 -2.4672 -0.3691  1.1122
    8CHL1  H23B  579  -0.396   6.294   5.312  1.3964 -0.4807  1.2262
    8CHL1   C24  580  -0.351   6.433   5.149  0.0448  0.0452  0.0331
    8CHL1  H24A  581  -0.346   6.517   5.222  1.7824  0.7670 -0.8732
    8CHL1  H24B  582  -0.272   6.446   5.072 -0.7675 -0.5131 -0.9305
    8CHL1   C25  583  -0.490   6.427   5.079 -0.8922 -0.3810  0.1417
    8CHL1   H25  584  -0.510   6.523   5.027 -2.0823 -0.2520  0.8024
    8CHL1   C26  585  -0.474   6.321   4.961 -0.1457 -0.6711  0.5819
    8CHL1  H26A  586  -0.553   6.348   4.888 -0.1945 -0.1809  0.8167
    8CHL1  H26B  587  -0.373   6.316   4.915 -0.3805  0.2679 -0.0525
    8CHL1  H26C  588  -0.505   6.221   4.998 -0.3304 -0.9140 -0.1984
    8CHL1   C27  589  -0.612   6.407   5.167 -0.3417 -0.2551 -0.2627
    8CHL1  H27A  590  -0.615   6.305   5.211 -1.8252 -0.8413 -1.6309
    8CHL1  H27B  591  -0.624   6.490   5.240  2.1084 -0.2257  0.2094
    8CHL1  H27C  592  -0.700   6.409   5.100  0.3085 -1.5832 -1.2030
    9CHL1    C3  593   2.664   5.789   6.702  0.4979  0.0790 -0.1836
    9CHL1    H3  594   2.610   5.694   6.721  3.4319 -1.9971 -1.4149
    9CHL1    O3  595   2.695   5.856   6.825  0.2063  0.6422 -0.3820
    9CHL1   H3'  596   2.672   5.948   6.811 -0.1732  0.5200 -0.5849
    9CHL1    C4  597   2.796   5.763   6.630  0.7306  0.9738  0.1027
    9CHL1   H4A  598   2.852   5.859   6.634  0.2530  1.2539  0.1419
    9CHL1   H4B  599   2.844   5.689   6.697 -0.9401 -0.9691 -0.7527
    9CHL1    C5  600   2.791   5.694   6.501  0.5217  0.3664  0.1954
    9CHL1    C6  601   2.863   5.577   6.479  0.0975  0.3518 -0.2553
    9CHL1    H6  602   2.929   5.536   6.557 -0.5428 -0.6008 -0.2059
    9CHL1    C7  603   2.864   5.510   6.345  0.0115 -0.4203 -0.2993
    9CHL1   H7A  604   2.966   5.481   6.313  0.2453  0.5826 -0.5036
    9CHL1   H7B  605   2.796   5.423   6.358  1.4855 -1.4233  1.1588
    9CHL1    C8  606   2.807   5.594   6.231 -0.2520  0.1556  0.1363
    9CHL1    H8  607   2.873   5.677   6.196 -0.1795 -0.3227 -0.8970
    9CHL1   C14  608   2.772   5.504   6.110 -0.2779 -0.1970  0.3819
    9CHL1   H14  609   2.680   5.448   6.138 -1.6917  1.5482 -0.5929
    9CHL1   C15  610   2.871   5.397   6.068 -0.9329  0.3858 -0.0586
    9CHL1  H15A  611   2.971   5.446   6.065 -1.7991  2.2938  0.4906
    9CHL1  H15B  612   2.869   5.309   6.136 -1.6325 -0.5605 -1.2623
    9CHL1   C16  613   2.823   5.357   5.928 -0.4222  0.5181  0.3031
    9CHL1  H16A  614   2.915   5.360   5.865  0.9138 -3.3794  1.8007
    9CHL1  H16B  615   2.781   5.255   5.936 -1.6181  0.9654 -0.0752
    9CHL1   C17  616   2.710   5.456   5.888 -0.0377 -0.8312  0.2881
    9CHL1   H17  617   2.612   5.410   5.915 -1.3563  0.9632 -1.1914
    9CHL1   C13  618   2.729   5.580   5.984 -0.1313  0.4235 -0.6150
    9CHL1   C18  619   2.843   5.673   5.945  0.4071 -0.6571 -0.0418
    9CHL1  H18A  620   2.812   5.733   5.856  0.7697  1.9123  1.4474
    9CHL1  H18B  621   2.864   5.757   6.014  1.0749 -0.6737 -0.2215
    9CHL1  H18C  622   2.942   5.624   5.935  3.4632  4.5553  0.5496
    9CHL1   C12  623   2.604   5.668   6.023 -0.1763 -0.1289 -1.1409
    9CHL1  H12A  624   2.588   5.743   5.943  1.5425  0.0056 -1.4126
    9CHL1  H12B  625   2.523   5.593   6.034  0.5476 -0.6062  1.7573
    9CHL1   C11  626   2.623   5.755   6.154  0.1165  0.3667  0.9642
    9CHL1  H11A  627   2.690   5.836   6.117 -2.0354  1.5490 -0.5551
    9CHL1  H11B  628   2.525   5.796   6.187 -0.3017 -0.5520  0.8888
    9CHL1    C9  629   2.675   5.671   6.276  0.4926  0.2287  0.0562
    9CHL1    H9  630   2.603   5.589   6.295  0.0062  0.9157  1.2686
    9CHL1   C10  631   2.699   5.762   6.405  0.6757 -0.3389  0.3872
    9CHL1   C19  632   2.787   5.883   6.357  0.0221 -0.1604 -0.5055
    9CHL1  H19A  633   2.878   5.859   6.299  0.2842  2.1609 -1.1504
    9CHL1  H19B  634   2.714   5.943   6.300 -0.0064  0.1171 -0.1786
    9CHL1  H19C  635   2.815   5.949   6.442  1.1839  1.0183 -1.7747
    9CHL1    C1  636   2.565   5.806   6.469  0.1738 -0.2796  0.0378
    9CHL1   H1A  637   2.524   5.878   6.394  0.6024 -0.8254 -0.7289
    9CHL1   H1B  638   2.494   5.722   6.483  0.3319 -0.3141  0.6611
    9CHL1    C2  639   2.594   5.879   6.599  0.6726  0.5810 -0.0926
    9CHL1   H2A  640   2.496   5.907   6.643 -0.5001 -0.0919 -2.1097
    9CHL1   H2B  641   2.657   5.967   6.574  0.6643  0.5765 -0.1296
    9CHL1   C20  642   2.712   5.479   5.736 -0.2606  0.4828 -0.4000
    9CHL1   H20  643   2.805   5.533   5.708  0.3786 -0.0205  0.6709
    9CHL1   C21  644   2.595   5.573   5.702 -0.4330 -0.4883  0.3056
    9CHL1  H21A  645   2.594   5.590   5.592 -2.6817 -0.7421  0.2412
    9CHL1  H21B  646   2.614   5.675   5.743 -0.1739 -0.1617 -0.5965
    9CHL1  H21C  647   2.490   5.542   5.720 -0.1628 -2.4510 -1.1894
    9CHL1   C22  648   2.707   5.347   5.648 -0.1643  0.1144  0.4198
    9CHL1  H22A  649   2.790   5.278   5.676 -0.6705 -0.3884  0.7010
    9CHL1  H22B  650   2.608   5.298   5.658 -0.9370  1.7537  1.0849
    9CHL1   C23  651   2.738   5.378   5.497 -0.2706  0.3089 -0.0002
    9CHL1  H23A  652   2.672   5.456   5.454 -0.5061  0.4284  0.5810
    9CHL1  H23B  653   2.843   5.413   5.506 -0.4978  0.5409  2.0797
    9CHL1   C24  654   2.734   5.249   5.406 -0.7437  0.5590 -0.4458
    9CHL1  H24A  655   2.785   5.167   5.459 -3.8494 -1.2210 -0.0152
    9CHL1  H24B  656   2.631   5.210   5.395 -0.3267 -0.1028 -2.5048
    9CHL1   C25  657   2.786   5.283   5.252 -0.2501  0.3107 -0.5371
    9CHL1   H25  658   2.744   5.384   5.233  2.2906  1.4575 -0.4644
    9CHL1   C26  659   2.936   5.293   5.250 -0.9512 -1.1175  0.3305
    9CHL1  H26A  660   2.996   5.202   5.267 -0.5200 -1.5576 -2.9746
    9CHL1  H26B  661   2.967   5.350   5.160  2.6815  0.3197  2.2618
    9CHL1  H26C  662   2.964   5.372   5.323 -1.0173  0.5608 -1.3801
    9CHL1   C27  663   2.738   5.179   5.151  0.2628  0.4796 -0.3135
    9CHL1  H27A  664   2.627   5.168   5.142  0.1065  0.1361  1.7023
    9CHL1  H27B  665   2.773   5.199   5.047 -0.0145  0.7918 -0.3517
    9CHL1  H27C  666   2.777   5.082   5.188 -0.4052  0.3776  0.1484
   10CHL1    C3  667   0.337   0.251   6.223  0.0553  0.2644  0.6928
   10CHL1    H3  668   0.358   0.144   6.200 -0.7166  0.1708  0.4072
   10CHL1    O3  669   0.314   0.280   6.359 -0.4724  0.4992 -0.0568
   10CHL1   H3'  670   0.245   0.220   6.389 -1.7256  1.1576 -1.4772
   10CHL1    C4  671   0.448   0.350   6.172  0.0067  0.2915 -0.1795
   10CHL1   H4A  672   0.433   0.446   6.225  1.7299 -0.6922  2.2721
   10CHL1   H4B  673   0.539   0.308   6.220  1.1215  2.4853 -0.2323
   10CHL1    C5  674   0.465   0.365   6.023  0.3497  0.5714 -0.1179
   10CHL1    C6  675   0.580   0.339   5.954 -0.0031  0.5449 -0.6069
   10CHL1    H6  676   0.674   0.313   6.004 -0.2550 -0.1097 -0.4555
   10CHL1    C7  677   0.585   0.339   5.806 -0.6021 -0.0140 -0.7143
   10CHL1   H7A  678   0.683   0.383   5.777 -0.9645  0.6719 -0.9279
   10CHL1   H7B  679   0.591   0.234   5.770  0.2088 -1.2169  2.5932
   10CHL1    C8  680   0.471   0.413   5.733 -0.4778 -1.0340 -0.2876
   10CHL1    H8  681   0.499   0.520   5.740  0.7215 -1.2824 -0.9918
   10CHL1   C14  682   0.463   0.386   5.584 -0.3824  0.6438 -0.1147
   10CHL1   H14  683   0.436   0.279   5.573  0.2607  0.0857  2.9320
   10CHL1   C15  684   0.600   0.396   5.493 -0.6803 -0.0283 -0.1837
   10CHL1  H15A  685   0.661   0.479   5.535 -1.8626  0.0330  1.5351
   10CHL1  H15B  686   0.658   0.302   5.509  0.8857  0.5704 -2.0674
   10CHL1   C16  687   0.554   0.421   5.355  0.5086 -0.1202 -0.7829
   10CHL1  H16A  688   0.591   0.523   5.331 -1.0051  0.4009 -1.0589
   10CHL1  H16B  689   0.588   0.347   5.280  1.5122 -0.7453  0.2604
   10CHL1   C17  690   0.396   0.430   5.364 -0.0716  0.1969 -0.1521
   10CHL1   H17  691   0.364   0.326   5.342 -0.0211  0.4628 -1.5994
   10CHL1   C13  692   0.359   0.456   5.509 -0.3289 -0.5955  0.3634
   10CHL1   C18  693   0.366   0.611   5.530 -0.0786 -0.9639  0.1886
   10CHL1  H18A  694   0.356   0.636   5.638 -0.7753  1.7839 -0.4395
   10CHL1  H18B  695   0.466   0.650   5.503  0.0817 -0.0431  1.9876
   10CHL1  H18C  696   0.281   0.667   5.486 -0.6903  0.1894  2.6631
   10CHL1   C12  697   0.226   0.399   5.570  0.1651  0.3220  0.4038
   10CHL1  H12A  698   0.137   0.443   5.520 -0.4811 -1.2423  0.1437
   10CHL1  H12B  699   0.210   0.290   5.554 -0.9838  0.6603 -0.9917
   10CHL1   C11  700   0.209   0.430   5.720 -0.0609  0.1334 -0.3897
   10CHL1  H11A  701   0.199   0.540   5.725 -1.7124  0.1533 -2.6931
   10CHL1  H11B  702   0.120   0.385   5.770  0.1396  0.4004  0.2221
   10CHL1    C9  703   0.336   0.377   5.800 -0.1099 -0.2666  0.9828
   10CHL1    H9  704   0.325   0.268   5.784 -1.2524 -0.0640  0.2694
   10CHL1   C10  705   0.332   0.391   5.949  0.6752 -0.3117  0.3717
   10CHL1   C19  706   0.308   0.540   5.977  0.7626 -0.2106  0.4717
   10CHL1  H19A  707   0.377   0.609   5.924  1.0462 -0.8966 -0.0751
   10CHL1  H19B  708   0.217   0.581   5.928  2.8618  1.3486 -2.3871
   10CHL1  H19C  709   0.288   0.563   6.084  1.0232 -0.2074  0.5198
   10CHL1    C1  710   0.219   0.300   6.008 -0.1365 -0.8835  0.3800
   10CHL1   H1A  711   0.119   0.340   5.981 -0.4103 -0.4929  1.8816
   10CHL1   H1B  712   0.222   0.195   5.972 -1.4877 -0.7812 -0.0861
   10CHL1    C2  713   0.207   0.284   6.158 -0.1170  0.3113  0.0437
   10CHL1   H2A  714   0.135   0.207   6.194  0.7920 -1.2462 -1.3465
   10CHL1   H2B  715   0.167   0.379   6.200  0.6750  0.2449  0.9731
   10CHL1   C20  716   0.333   0.508   5.253  0.6829 -0.0847  0.3474
   10CHL1   H20  717   0.343   0.613   5.288 -3.1198  0.9293 -1.0868
   10CHL1   C21  718   0.184   0.469   5.236  0.5703  0.3563 -0.1681
   10CHL1  H21A  719   0.132   0.503   5.328  0.6161 -0.3573  0.1304
   10CHL1  H21B  720   0.173   0.358   5.231 -1.0191  0.3487  1.8282
   10CHL1  H21C  721   0.142   0.517   5.146  0.5974  1.4762  0.3964
   10CHL1   C22  722   0.406   0.485   5.121 -0.5220  0.7002 -0.9452
   10CHL1  H22A  723   0.517   0.487   5.132 -0.7332 -0.4078  2.8090
   10CHL1  H22B  724   0.378   0.385   5.083 -1.3350 -0.1600  1.7370
   10CHL1   C23  725   0.374   0.595   5.014  0.3139  0.9244 -0.1233
   10CHL1  H23A  726   0.417   0.550   4.922 -0.4899 -0.2000  0.0302
   10CHL1  H23B  727   0.266   0.618   5.005  0.3588  0.7015 -1.4030
   10CHL1   C24  728   0.442   0.724   5.047 -0.2396 -0.0656  0.0507
   10CHL1  H24A  729   0.383   0.769   5.130  2.1266  2.2711  0.6190
   10CHL1  H24B  730   0.548   0.705   5.078 -0.6079 -0.9448  0.8195
   10CHL1   C25  731   0.450   0.820   4.923 -0.3480  0.5308  0.4150
   10CHL1   H25  732   0.498   0.911   4.965  1.2787  0.1236 -0.5128
   10CHL1   C26  733   0.535   0.751   4.810  0.0277 -0.1181  0.4717
   10CHL1  H26A  734   0.481   0.667   4.761  1.1538 -1.0590  0.8130
   10CHL1  H26B  735   0.557   0.822   4.728  2.2634  0.8823  1.8359
   10CHL1  H26C  736   0.632   0.714   4.849 -0.3716  3.3483  5.8242
   10CHL1   C27  737   0.306   0.854   4.871 -0.4651 -0.0792  0.0302
   10CHL1  H27A  738   0.306   0.921   4.782 -3.1231 -0.5670 -0.4281
   10CHL1  H27B  739   0.258   0.764   4.826  1.2514 -1.0220  0.0003
   10CHL1  H27C  740   0.241   0.885   4.956 -0.5017 -1.5197  0.5485
   11CHL1    C3  741   4.329   4.426   3.588 -0.1458  0.3229  0.1461
   11CHL1    H3  742   4.264   4.490   3.651  0.9479  2.4062 -0.7426
   11CHL1    O3  743   4.265   4.413   3.460  0.1958 -0.0302 -0.0550
   11CHL1   H3'  744   4.331   4.366   3.409  1.1270 -1.3417  2.1812
   11CHL1    C4  745   4.470   4.499   3.566  0.0340 -1.0356 -0.3431
   11CHL1   H4A  746   4.530   4.430   3.503  1.4170 -0.1900  0.0083
   11CHL1   H4B  747   4.433   4.593   3.520 -0.7902  0.4529  2.9970
   11CHL1    C5  748   4.524   4.519   3.709 -0.4038  0.0137  0.4208
   11CHL1    C6  749   4.535   4.642   3.749 -0.8852 -0.3695 -0.1356
   11CHL1    H6  750   4.516   4.721   3.674  3.4679 -0.1197 -1.2032
   11CHL1    C7  751   4.591   4.681   3.887  0.0154  0.6189  1.0218
   11CHL1   H7A  752   4.666   4.763   3.886 -1.0402  1.6081  1.4341
   11CHL1   H7B  753   4.510   4.702   3.960  1.5623  1.6374  2.5569
   11CHL1    C8  754   4.674   4.562   3.939 -0.7718 -0.5842  0.2536
   11CHL1    H8  755   4.768   4.535   3.887 -0.5522 -1.9438  1.2974
   11CHL1   C14  756   4.716   4.593   4.081  0.0206  0.2780  1.2003
   11CHL1   H14  757   4.616   4.612   4.124 -1.5770  0.6050 -2.3582
   11CHL1   C15  758   4.805   4.716   4.109  0.1802 -0.0337  0.0741
   11CHL1  H15A  759   4.892   4.726   4.041  1.3787  0.9348  1.6518
   11CHL1  H15B  760   4.742   4.807   4.116 -0.9816 -0.8652  0.8936
   11CHL1   C16  761   4.854   4.688   4.258  0.0144 -0.1539  0.7973
   11CHL1  H16A  762   4.965   4.696   4.259 -0.0245  0.5826  0.1527
   11CHL1  H16B  763   4.811   4.763   4.328 -0.1599  0.9617 -0.4601
   11CHL1   C17  764   4.799   4.548   4.300  0.1111  0.0389  0.3767
   11CHL1   H17  765   4.699   4.557   4.347 -0.4054  1.2186 -0.8818
   11CHL1   C13  766   4.779   4.473   4.160  0.3276 -0.2900 -0.7312
   11CHL1   C18  767   4.915   4.430   4.095  0.0155 -0.0908  0.5018
   11CHL1  H18A  768   4.898   4.368   4.004  0.2010 -0.7545  0.9101
   11CHL1  H18B  769   4.977   4.518   4.065  1.3579 -0.3907  2.2408
   11CHL1  H18C  770   4.981   4.367   4.158 -0.7433 -1.4382 -0.0000
   11CHL1   C12  771   4.671   4.356   4.158 -0.3742 -0.8378 -1.0177
   11CHL1  H12A  772   4.708   4.268   4.214 -1.7795  0.3525  2.0015
   11CHL1  H12B  773   4.580   4.383   4.216  0.1515  0.6868 -0.8501
   11CHL1   C11  774   4.632   4.314   4.019 -0.6279 -0.0105 -1.0229
   11CHL1  H11A  775   4.722   4.267   3.975 -0.3147  0.7724 -1.2144
   11CHL1  H11B  776   4.554   4.235   4.029  1.2493 -1.7391  1.0759
   11CHL1    C9  777   4.584   4.435   3.937  0.1278  0.0318  0.0846
   11CHL1    H9  778   4.489   4.460   3.988  0.6166  1.4419  0.3572
   11CHL1   C10  779   4.548   4.392   3.794  0.0416 -0.2975  0.4356
   11CHL1   C19  780   4.656   4.306   3.732 -0.1398 -0.7333  0.1520
   11CHL1  H19A  781   4.664   4.213   3.794 -1.7545  0.1543  1.8304
   11CHL1  H19B  782   4.633   4.276   3.628 -1.3567  0.1353  0.1409
   11CHL1  H19C  783   4.749   4.365   3.741 -0.0431 -0.7459 -0.6933
   11CHL1    C1  784   4.423   4.304   3.792  0.1664  0.1656  0.4445
   11CHL1   H1A  785   4.455   4.209   3.840  1.6640 -0.4658 -1.6429
   11CHL1   H1B  786   4.349   4.359   3.854 -0.1578 -1.8387  1.9365
   11CHL1    C2  787   4.356   4.288   3.654 -0.3569 -0.9277 -0.1906
   11CHL1   H2A  788   4.256   4.241   3.667 -0.8331 -0.2014 -1.0961
   11CHL1   H2B  789   4.425   4.234   3.585  0.1333  0.4455 -0.8113
   11CHL1   C20  790   4.886   4.484   4.415  0.3462  0.2354  0.5127
   11CHL1   H20  791   4.848   4.379   4.416 -1.9922  1.0016 -0.6825
   11CHL1   C21  792   4.845   4.560   4.544 -0.1192  0.1247 -0.2790
   11CHL1  H21A  793   4.859   4.669   4.530 -0.4789  0.2549  0.3794
   11CHL1  H21B  794   4.915   4.537   4.627  2.6318  1.1608 -2.1525
   11CHL1  H21C  795   4.744   4.532   4.579 -0.2505 -2.0262 -2.1277
   11CHL1   C22  796   5.036   4.494   4.405 -0.1558 -0.7143  0.0706
   11CHL1  H22A  797   5.068   4.498   4.299  1.5013  2.5983  0.5513
   11CHL1  H22B  798   5.063   4.594   4.445  0.2374 -1.4415  1.7314
   11CHL1   C23  799   5.115   4.390   4.481 -0.9028  0.1247 -0.1429
   11CHL1  H23A  800   5.093   4.402   4.590 -1.2372  0.6761 -0.2731
   11CHL1  H23B  801   5.092   4.283   4.460  2.3582 -0.6177 -0.5816
   11CHL1   C24  802   5.269   4.399   4.465 -0.0189  0.3575  0.1918
   11CHL1  H24A  803   5.310   4.350   4.375  1.8227  1.1027  0.5792
   11CHL1  H24B  804   5.288   4.509   4.460  0.1248  0.3893  1.1496
   11CHL1   C25  805   5.331   4.340   4.589 -0.4196 -0.2487  0.1854
   11CHL1   H25  806   5.285   4.382   4.681 -1.4526 -0.8446 -0.0413
   11CHL1   C26  807   5.319   4.184   4.600  0.4958 -0.3084  0.0985
   11CHL1  H26A  808   5.346   4.144   4.499 -1.7576 -3.5656  0.6122
   11CHL1  H26B  809   5.385   4.145   4.681  0.5854 -2.6961 -1.0056
   11CHL1  H26C  810   5.211   4.161   4.612  0.0465  0.4874 -1.8745
   11CHL1   C27  811   5.478   4.374   4.597  0.1231  0.0972 -0.7099
   11CHL1  H27A  812   5.530   4.351   4.692 -0.8629  2.5343  0.5052
   11CHL1  H27B  813   5.547   4.327   4.523  1.1979 -2.2444  1.6378
   11CHL1  H27C  814   5.476   4.484   4.584  2.5618  0.3651  0.6805
   12CHL1    C3  815   2.015   0.925   6.488 -0.1442  0.3846  0.2795
   12CHL1    H3  816   2.123   0.944   6.477 -0.4542  1.7453 -0.7547
   12CHL1    O3  817   1.995   0.817   6.580  0.1189  0.9101  0.4789
   12CHL1   H3'  818   1.901   0.807   6.600  0.4138  0.0977  1.5732
   12CHL1    C4  819   1.957   1.057   6.534  0.0563 -0.5875  0.0514
   12CHL1   H4A  820   1.850   1.038   6.554 -0.2571  0.1493 -0.8199
   12CHL1   H4B  821   2.009   1.085   6.628  2.1615  1.6155 -1.6378
   12CHL1    C5  822   1.963   1.171   6.433 -0.2477 -0.1757  0.0173
   12CHL1    C6  823   2.006   1.299   6.454  0.4329  0.4369  0.6837
   12CHL1    H6  824   2.052   1.340   6.545  2.4007  1.7545 -0.8030
   12CHL1    C7  825   1.995   1.407   6.352  0.5879  0.1551 -0.1015
   12CHL1   H7A  826   1.941   1.494   6.397 -1.3102 -1.1116  0.1849
   12CHL1   H7B  827   2.099   1.436   6.326  0.8854 -0.2699  0.5872
   12CHL1    C8  828   1.913   1.383   6.231 -0.0413  0.8213 -0.1760
   12CHL1    H8  829   1.804   1.401   6.245 -0.4167 -0.8704 -0.7073
   12CHL1   C14  830   1.956   1.476   6.122 -0.2788 -0.5640  0.7831
   12CHL1   H14  831   2.062   1.470   6.090 -1.0475  0.9970 -2.4744
   12CHL1   C15  832   1.953   1.628   6.151  0.3439  0.0457 -0.6511
   12CHL1  H15A  833   1.853   1.643   6.195 -0.1356 -3.5880 -0.1946
   12CHL1  H15B  834   2.026   1.655   6.230 -2.4790  1.6087  1.6142
   12CHL1   C16  835   1.977   1.693   6.013  0.3394  0.4192 -0.1298
   12CHL1  H16A  836   1.893   1.765   6.003 -1.0589 -1.1403 -0.0483
   12CHL1  H16B  837   2.074   1.746   6.011 -0.0640  1.1444 -1.1457
   12CHL1   C17  838   1.949   1.577   5.913  0.0671  0.4604 -0.6622
   12CHL1   H17  839   2.053   1.546   5.891  0.1569 -0.7848  1.3245
   12CHL1   C13  840   1.883   1.460   5.987 -0.8479  0.1854  0.1828
   12CHL1   C18  841   1.729   1.494   5.992  0.2720 -0.2994  0.1213
   12CHL1  H18A  842   1.689   1.477   5.890  0.7401  0.6527 -0.2382
   12CHL1  H18B  843   1.686   1.425   6.068  0.3498 -0.9539 -0.4182
   12CHL1  H18C  844   1.716   1.603   6.011  0.4066 -0.0823 -0.9394
   12CHL1   C12  845   1.911   1.316   5.942  0.4903  0.3368  0.2335
   12CHL1  H12A  846   1.850   1.294   5.852 -0.2578  2.2785  0.2195
   12CHL1  H12B  847   2.019   1.294   5.930  0.1554 -2.0486  1.0328
   12CHL1   C11  848   1.869   1.211   6.046  0.0046  0.0567  0.2169
   12CHL1  H11A  849   1.760   1.230   6.058 -0.1462  1.1195 -2.1839
   12CHL1  H11B  850   1.892   1.109   6.009  0.2929  0.7436 -1.6109
   12CHL1    C9  851   1.940   1.236   6.186  0.2432 -0.3119  0.1323
   12CHL1    H9  852   2.047   1.231   6.160  0.6497  1.2897  1.3423
   12CHL1   C10  853   1.911   1.134   6.292 -0.1623  0.0846  0.1201
   12CHL1   C19  854   1.757   1.118   6.311  0.6999 -0.5997 -0.4996
   12CHL1  H19A  855   1.720   1.057   6.396  2.1580 -0.8467  0.0030
   12CHL1  H19B  856   1.706   1.214   6.333  0.6255 -0.6727 -0.3532
   12CHL1  H19C  857   1.711   1.080   6.218  1.2141 -0.2570 -0.8962
   12CHL1    C1  858   1.966   0.991   6.251  0.1040 -0.2128  0.6922
   12CHL1   H1A  859   1.899   0.961   6.168  0.9100  0.4708 -0.2290
   12CHL1   H1B  860   2.070   0.999   6.215  0.4827 -4.2692  0.4280
   12CHL1    C2  861   1.953   0.881   6.350  0.3961 -0.2550  0.1700
   12CHL1   H2A  862   2.009   0.787   6.332 -2.0326 -1.7893  0.3416
   12CHL1   H2B  863   1.850   0.854   6.378 -0.1682  2.2305  0.7728
   12CHL1   C20  864   1.887   1.630   5.782 -0.6060  0.4751 -0.4205
   12CHL1   H20  865   1.784   1.665   5.805 -1.2436 -1.6654  0.2364
   12CHL1   C21  866   1.873   1.513   5.688  0.0988 -0.4289  0.1022
   12CHL1  H21A  867   1.794   1.442   5.721 -0.4586  0.2029  0.1334
   12CHL1  H21B  868   1.967   1.453   5.692 -0.9355 -2.1736 -0.5285
   12CHL1  H21C  869   1.843   1.555   5.590 -2.7449 -2.3144  0.0297
   12CHL1   C22  870   1.968   1.745   5.719 -0.1943  0.2951 -0.4805
   12CHL1  H22A  871   1.988   1.819   5.800  2.9018 -0.4206 -0.4556
   12CHL1  H22B  872   2.066   1.697   5.701  1.1385  0.3024  4.9749
   12CHL1   C23  873   1.914   1.815   5.598  0.1734  0.5062 -0.0683
   12CHL1  H23A  874   1.894   1.736   5.522 -0.8120 -1.2512  1.9376
   12CHL1  H23B  875   1.821   1.871   5.620  2.4188  4.4270  0.3083
   12CHL1   C24  876   2.005   1.932   5.558 -0.1407  0.4907  0.2071
   12CHL1  H24A  877   2.013   1.998   5.648  0.0310 -1.0728  1.3789
   12CHL1  H24B  878   2.106   1.891   5.535 -0.4533  0.2358 -0.7280
   12CHL1   C25  879   1.951   2.009   5.430 -0.0976 -0.0317 -0.2607
   12CHL1   H25  880   1.842   2.019   5.452  0.0771  0.4037  0.4072
   12CHL1   C26  881   2.023   2.146   5.403  0.4825 -0.3786 -0.0429
   12CHL1  H26A  882   1.963   2.208   5.332  1.3408  0.4376 -0.0718
   12CHL1  H26B  883   2.054   2.207   5.491 -1.2294  0.2099  0.2009
   12CHL1  H26C  884   2.119   2.120   5.355 -0.6781 -0.3380 -2.5809
   12CHL1   C27  885   1.970   1.930   5.298 -0.5910 -0.2033 -0.1714
   12CHL1  H27A  886   2.076   1.913   5.268 -0.8404  0.2850 -1.3782
   12CHL1  H27B  887   1.932   1.826   5.310 -0.5682  0.0545  3.1167
   12CHL1  H27C  888   1.916   1.973   5.212 -0.2080  0.0720 -0.2771
   13CHL1    C3  889   2.226   2.738   6.566  0.3401 -0.2026 -0.1545
   13CHL1    H3  890   2.311   2.666   6.566  2.1338  1.7810 -1.7458
   13CHL1    O3  891   2.202   2.766   6.702  0.2299 -0.4926 -0.0433
   13CHL1   H3'  892   2.167   2.689   6.745 -2.3042 -1.1686 -2.9808
   13CHL1    C4  893   2.265   2.867   6.488 -0.1506  0.4175  0.0201
   13CHL1   H4A  894   2.176   2.930   6.510 -0.5914 -0.4259  0.7114
   13CHL1   H4B  895   2.354   2.904   6.543 -1.1673 -0.0018  2.0298
   13CHL1    C5  896   2.285   2.842   6.340  0.8351  0.9893  0.2411
   13CHL1    C6  897   2.401   2.877   6.279 -0.3055 -0.7357  0.2368
   13CHL1    H6  898   2.475   2.937   6.333 -0.8824  0.4078 -0.1914
   13CHL1    C7  899   2.426   2.852   6.132 -0.2442  0.0286 -0.0138
   13CHL1   H7A  900   2.468   2.944   6.084 -0.2238  1.4544  2.5875
   13CHL1   H7B  901   2.495   2.767   6.117  0.4794  0.1125  2.5143
   13CHL1    C8  902   2.299   2.811   6.051  0.2079 -0.2640  0.2652
   13CHL1    H8  903   2.239   2.899   6.022  1.8937  0.3892 -1.4763
   13CHL1   C14  904   2.351   2.742   5.925  0.9343  0.2472  0.3886
   13CHL1   H14  905   2.419   2.661   5.960 -1.3888 -1.9329  0.1161
   13CHL1   C15  906   2.438   2.818   5.825  0.6169 -0.0791 -0.4398
   13CHL1  H15A  907   2.396   2.918   5.805  0.9884  0.3557  0.8326
   13CHL1  H15B  908   2.540   2.844   5.861 -0.1012  1.9116  0.2706
   13CHL1   C16  909   2.444   2.723   5.703 -0.5454 -0.3426 -0.0338
   13CHL1  H16A  910   2.436   2.776   5.606  0.7792 -3.5611 -2.0529
   13CHL1  H16B  911   2.542   2.671   5.711 -0.0426  0.7448  1.4277
   13CHL1   C17  912   2.320   2.628   5.716 -0.5829  0.2897  0.7261
   13CHL1   H17  913   2.364   2.534   5.756 -0.9609  0.4691  1.6017
   13CHL1   C13  914   2.240   2.679   5.839 -0.1239  0.0533 -0.2115
   13CHL1   C18  915   2.146   2.797   5.796 -0.1881  0.3071 -0.0445
   13CHL1  H18A  916   2.103   2.846   5.887  3.3945 -1.3509  2.7855
   13CHL1  H18B  917   2.198   2.876   5.737  0.3468 -0.0751 -0.0853
   13CHL1  H18C  918   2.070   2.761   5.723  0.3671  1.7688 -1.3899
   13CHL1   C12  919   2.168   2.570   5.916 -0.1888 -0.0287 -0.6505
   13CHL1  H12A  920   2.084   2.517   5.866  0.3306 -0.8403 -0.6822
   13CHL1  H12B  921   2.238   2.486   5.935 -0.9657 -0.0621  2.8897
   13CHL1   C11  922   2.111   2.631   6.048  0.0499 -0.5497  0.4679
   13CHL1  H11A  923   2.018   2.686   6.021 -0.0604 -1.4623 -1.1504
   13CHL1  H11B  924   2.075   2.543   6.105 -0.0652 -1.7248 -1.3474
   13CHL1    C9  925   2.213   2.715   6.132  0.4616 -0.5400 -0.1939
   13CHL1    H9  926   2.293   2.640   6.150  2.1063  1.0015 -0.8063
   13CHL1   C10  927   2.168   2.762   6.267 -0.0076  0.9768 -0.2921
   13CHL1   C19  928   2.055   2.862   6.247  0.8085 -0.3562  0.0018
   13CHL1  H19A  929   2.086   2.956   6.196  1.8048  0.2992  1.7301
   13CHL1  H19B  930   1.970   2.815   6.194 -0.4876  1.0677  0.7315
   13CHL1  H19C  931   2.011   2.896   6.344  3.1664  3.1483  0.0098
   13CHL1    C1  932   2.114   2.649   6.363 -0.7474 -0.2868  0.2331
   13CHL1   H1A  933   2.016   2.621   6.317 -1.2321  1.5260  0.0812
   13CHL1   H1B  934   2.182   2.562   6.353 -1.5883 -0.8050 -1.4626
   13CHL1    C2  935   2.101   2.675   6.515  0.0262 -0.0645 -0.2553
   13CHL1   H2A  936   2.075   2.588   6.579 -2.0336  0.1912 -0.6541
   13CHL1   H2B  937   2.015   2.746   6.521 -0.2920 -0.3715 -1.0633
   13CHL1   C20  938   2.242   2.608   5.582  0.4701  0.4202  0.1136
   13CHL1   H20  939   2.214   2.710   5.548  1.3953  1.6793  2.8458
   13CHL1   C21  940   2.123   2.505   5.590 -0.6027 -0.1983  0.6211
   13CHL1  H21A  941   2.049   2.547   5.662 -0.5432 -0.0568  0.5996
   13CHL1  H21B  942   2.163   2.413   5.638 -0.3848 -0.1127  0.6064
   13CHL1  H21C  943   2.072   2.485   5.494 -0.5916 -0.9099  0.7567
   13CHL1   C22  944   2.344   2.561   5.474  0.4097  0.4830  0.3867
   13CHL1  H22A  945   2.398   2.653   5.441 -0.8188  1.0037 -0.2357
   13CHL1  H22B  946   2.411   2.483   5.516 -0.0648 -0.3949 -0.4297
   13CHL1   C23  947   2.280   2.517   5.337 -0.2312  0.3039  0.8612
   13CHL1  H23A  948   2.227   2.419   5.344  0.4201 -0.0363  1.0320
   13CHL1  H23B  949   2.210   2.596   5.301  1.0820 -0.2102 -3.4932
   13CHL1   C24  950   2.393   2.494   5.231 -0.3570  0.2913 -0.8608
   13CHL1  H24A  951   2.441   2.593   5.215  0.3132  0.2755  0.8197
   13CHL1  H24B  952   2.469   2.430   5.281 -1.0205  1.4863  1.8822
   13CHL1   C25  953   2.352   2.427   5.096  0.8114 -1.4167 -0.6684
   13CHL1   H25  954   2.275   2.491   5.047  0.7409 -0.8182  0.2110
   13CHL1   C26  955   2.470   2.418   4.999  0.3244 -0.3425 -0.4786
   13CHL1  H26A  956   2.551   2.358   5.046 -1.6236 -1.5709  1.4563
   13CHL1  H26B  957   2.450   2.367   4.902 -0.1296  0.4029 -0.7816
   13CHL1  H26C  958   2.514   2.516   4.972  0.1187 -0.2721 -0.5541
   13CHL1   C27  959   2.288   2.289   5.115 -0.2971 -0.3090 -0.1704
   13CHL1  H27A  960   2.372   2.225   5.149  0.5181 -0.3117 -2.0847
   13CHL1  H27B  961   2.200   2.285   5.183 -0.7564 -0.8345 -0.7835
   13CHL1  H27C  962   2.254   2.253   5.015 -1.1876  1.0522 -0.3937
   14CHL1    C3  963   3.389   0.200   6.877 -0.1390 -0.4725 -0.2199
   14CHL1    H3  964   3.464   0.119   6.861 -0.9493 -1.2136 -0.3452
   14CHL1    O3  965   3.391   0.237   7.011 -0.6359 -0.7837 -0.0868
   14CHL1   H3'  966   3.308   0.281   7.034  0.1249  0.1501  1.0287
   14CHL1    C4  967   3.421   0.319   6.785 -0.3448  0.5550  0.2332
   14CHL1   H4A  968   3.354   0.403   6.811 -0.4125 -0.0669  2.2549
   14CHL1   H4B  969   3.526   0.346   6.810  0.2414 -1.9010  0.7407
   14CHL1    C5  970   3.404   0.283   6.640  0.0697  0.2362 -0.3315
   14CHL1    C6  971   3.501   0.303   6.551 -0.2014  0.1620 -0.1732
   14CHL1    H6  972   3.601   0.338   6.583  0.1623 -1.4690  0.5861
   14CHL1    C7  973   3.480   0.284   6.401 -0.2731  0.6480 -0.0862
   14CHL1   H7A  974   3.522   0.373   6.350  1.0529  0.8866  1.3507
   14CHL1   H7B  975   3.547   0.204   6.362  1.0599  1.9217 -0.4759
   14CHL1    C8  976   3.326   0.267   6.358  0.7387 -0.5918 -0.1447
   14CHL1    H8  977   3.285   0.369   6.367 -2.2194 -1.4948 -2.0220
   14CHL1   C14  978   3.317   0.215   6.216  0.4236  0.0405 -0.4597
   14CHL1   H14  979   3.373   0.119   6.214 -0.1031 -0.2646 -1.1124
   14CHL1   C15  980   3.380   0.299   6.109 -0.1634  0.4106 -0.2728
   14CHL1  H15A  981   3.341   0.403   6.112 -1.5037 -0.0785  2.2368
   14CHL1  H15B  982   3.491   0.302   6.118 -0.1478 -0.6427  0.0122
   14CHL1   C16  983   3.332   0.239   5.978 -0.6646  0.2368  0.4911
   14CHL1  H16A  984   3.314   0.324   5.909 -1.2217  0.8311  1.3421
   14CHL1  H16B  985   3.405   0.184   5.916 -1.6544 -1.5279  0.8366
   14CHL1   C17  986   3.205   0.154   6.011 -0.0213  0.2815  0.8800
   14CHL1   H17  987   3.246   0.051   6.007  1.0285  0.7404 -0.6685
   14CHL1   C13  988   3.177   0.185   6.162 -0.3837 -0.2408 -0.2179
   14CHL1   C18  989   3.099   0.314   6.168 -0.0081  0.0170 -0.0717
   14CHL1  H18A  990   3.095   0.358   6.270  3.7887  2.2922 -0.7064
   14CHL1  H18B  991   3.135   0.380   6.086  0.6783 -3.1908 -2.5328
   14CHL1  H18C  992   2.996   0.294   6.132  0.1291 -0.5546 -0.1481
   14CHL1   C12  993   3.105   0.089   6.263 -1.0031 -0.3869 -0.1444
   14CHL1  H12A  994   3.000   0.073   6.231 -1.3880  4.2472 -1.9390
   14CHL1  H12B  995   3.167  -0.004   6.261 -0.3633 -0.0810  2.1592
   14CHL1   C11  996   3.117   0.139   6.410 -0.3394  0.9242 -0.7214
   14CHL1  H11A  997   3.041   0.220   6.409 -2.1177 -0.6171  1.2994
   14CHL1  H11B  998   3.068   0.065   6.476  4.3766 -1.2877  0.8101
   14CHL1    C9  999   3.253   0.183   6.455 -1.0383  0.0375 -0.1295
   14CHL1    H9 1000   3.319   0.093   6.459  1.7260  2.0045  2.1281
   14CHL1   C10 1001   3.259   0.231   6.602 -0.2528 -0.1709 -0.0054
   14CHL1   C19 1002   3.150   0.336   6.611 -0.2932  0.6947 -0.3207
   14CHL1  H19A 1003   3.143   0.402   6.522  1.6926 -0.6491 -1.5512
   14CHL1  H19B 1004   3.063   0.269   6.627 -0.1023 -0.2401 -2.8846
   14CHL1  H19C 1005   3.164   0.384   6.710  0.7314 -1.7751  0.8322
   14CHL1    C1 1006   3.240   0.105   6.698  0.5812 -0.4479  0.2089
   14CHL1   H1A 1007   3.142   0.058   6.674  0.4134 -0.3645  0.7231
   14CHL1   H1B 1008   3.319   0.029   6.678  0.6611 -0.3593  0.1886
   14CHL1    C2 1009   3.249   0.146   6.849  0.0915 -0.2159  0.5127
   14CHL1   H2A 1010   3.236   0.054   6.909  1.3389 -0.2677  0.7382
   14CHL1   H2B 1011   3.160   0.209   6.872 -0.0671  0.0213 -0.7195
   14CHL1   C20 1012   3.094   0.155   5.900  0.1077 -0.1703  0.4895
   14CHL1   H20 1013   3.054   0.258   5.891  1.4145  0.1825 -2.4931
   14CHL1   C21 1014   2.983   0.049   5.937 -0.0171 -0.1491 -0.0714
   14CHL1  H21A 1015   3.036  -0.049   5.944 -0.3034 -0.4735 -1.9139
   14CHL1  H21B 1016   2.899   0.046   5.864  0.2842 -1.0229 -0.3949
   14CHL1  H21C 1017   2.940   0.069   6.038  1.4459  1.4360  0.2782
   14CHL1   C22 1018   3.166   0.112   5.763  0.4734  0.1488 -0.1158
   14CHL1  H22A 1019   3.244   0.188   5.740  2.6461 -1.5652  1.2474
   14CHL1  H22B 1020   3.212   0.013   5.783  0.6265  0.0493 -0.9279
   14CHL1   C23 1021   3.066   0.083   5.646 -0.2610 -0.2955 -0.7608
   14CHL1  H23A 1022   3.002  -0.001   5.682 -2.2416  1.5430  0.2097
   14CHL1  H23B 1023   3.006   0.176   5.636  1.4728  0.7690 -1.5071
   14CHL1   C24 1024   3.130   0.045   5.510  0.0318 -0.6116 -0.2371
   14CHL1  H24A 1025   3.203   0.124   5.483 -3.0193  1.6914 -2.4881
   14CHL1  H24B 1026   3.185  -0.049   5.529  0.1840 -0.5115 -0.1724
   14CHL1   C25 1027   3.024   0.028   5.395  0.2275 -0.6410 -0.4720
   14CHL1   H25 1028   3.076  -0.005   5.302 -0.8548 -2.8019 -0.3697
   14CHL1   C26 1029   2.922  -0.085   5.424 -0.6370  0.1583 -0.3244
   14CHL1  H26A 1030   2.858  -0.094   5.333  1.1612  2.1161 -1.8674
   14CHL1  H26B 1031   2.972  -0.180   5.454  0.6372  0.5890 -1.0129
   14CHL1  H26C 1032   2.852  -0.070   5.509 -0.5798 -1.5075  0.0587
   14CHL1   C27 1033   2.961   0.166   5.359  0.1698  0.0958  0.2715
   14CHL1  H27A 1034   2.907   0.139   5.265 -1.4180 -0.6390  1.3402
   14CHL1  H27B 1035   2.893   0.187   5.445  0.5127 -2.8164  1.3709
   14CHL1  H27C 1036   3.031   0.243   5.321  0.2252 -1.1902 -2.4167
   15CHL1    C3 1037   4.013   6.393   6.681  0.3500 -0.3244 -0.3203
   15CHL1    H3 1038   3.908   6.422   6.660 -0.0795 -1.4041  0.2376
   15CHL1    O3 1039   4.051   6.344   6.813  0.7774  0.0878  0.6442
   15CHL1   H3' 1040   4.145   6.326   6.811  0.4678 -1.7427 -1.0078
   15CHL1    C4 1041   4.051   6.286   6.579  0.6570  0.2542  0.3306
   15CHL1   H4A 1042   4.150   6.235   6.587  0.2328 -0.4045  1.7552
   15CHL1   H4B 1043   3.987   6.201   6.612  0.2536 -0.1719 -1.4169
   15CHL1    C5 1044   4.026   6.335   6.436 -0.2919 -0.5196 -0.3351
   15CHL1    C6 1045   3.941   6.274   6.350 -0.0189  0.3139 -0.5095
   15CHL1    H6 1046   3.884   6.186   6.384 -1.9420  1.9634  0.7974
   15CHL1    C7 1047   3.919   6.321   6.215 -0.6242 -0.0773  0.1048
   15CHL1   H7A 1048   3.917   6.231   6.150  0.1919 -0.4103  0.5288
   15CHL1   H7B 1049   3.813   6.356   6.209 -1.5180 -2.4993  0.6220
   15CHL1    C8 1050   4.027   6.419   6.165 -0.4119  0.0122 -0.1889
   15CHL1    H8 1051   4.123   6.366   6.149  0.6003  1.8199 -0.4348
   15CHL1   C14 1052   3.982   6.471   6.029 -0.1467  1.0681  0.5144
   15CHL1   H14 1053   3.886   6.526   6.039 -2.0841 -2.1601  0.8666
   15CHL1   C15 1054   3.946   6.366   5.924  0.3539  0.6019  0.9784
   15CHL1  H15A 1055   4.012   6.277   5.932 -1.0412 -0.4938  0.6762
   15CHL1  H15B 1056   3.843   6.332   5.947 -0.4154  1.5006 -0.9708
   15CHL1   C16 1057   3.950   6.438   5.794  0.0071 -0.1767 -0.1665
   15CHL1  H16A 1058   4.007   6.397   5.708 -0.4812 -0.2412 -0.4670
   15CHL1  H16B 1059   3.849   6.451   5.748  0.1425  1.0191 -0.1566
   15CHL1   C17 1060   4.001   6.577   5.827 -0.0754  0.2781  0.1329
   15CHL1   H17 1061   3.910   6.634   5.857 -0.8606 -1.9725  2.4030
   15CHL1   C13 1062   4.071   6.563   5.967  0.2860 -0.9665  0.2593
   15CHL1   C18 1063   4.208   6.490   5.935  0.1910 -0.2307 -0.2470
   15CHL1  H18A 1064   4.265   6.463   6.026  3.1520 -0.0715 -1.9265
   15CHL1  H18B 1065   4.198   6.407   5.862  1.3160  0.2595 -1.0017
   15CHL1  H18C 1066   4.278   6.562   5.887 -0.1062 -0.5202 -1.1451
   15CHL1   C12 1067   4.083   6.691   6.064 -0.1483  0.0366 -0.3659
   15CHL1  H12A 1068   4.153   6.767   6.023  1.4335 -0.0999  1.8874
   15CHL1  H12B 1069   3.979   6.732   6.067 -0.6573 -0.9506 -2.4233
   15CHL1   C11 1070   4.127   6.650   6.208 -0.1968  1.0071  0.1255
   15CHL1  H11A 1071   4.238   6.639   6.202 -0.4873 -2.8868 -1.0555
   15CHL1  H11B 1072   4.120   6.742   6.270  1.0394 -0.8663  3.2909
   15CHL1    C9 1073   4.055   6.525   6.268  0.1950  0.6669 -0.4321
   15CHL1    H9 1074   3.955   6.569   6.288 -0.3692 -0.3235 -0.9864
   15CHL1   C10 1075   4.104   6.465   6.403 -0.2255 -0.3307 -0.2498
   15CHL1   C19 1076   4.250   6.432   6.403  0.1943 -0.0846  0.5303
   15CHL1  H19A 1077   4.271   6.380   6.307 -0.0379  0.6232  0.0904
   15CHL1  H19B 1078   4.310   6.525   6.395 -1.0140  0.5477 -2.8663
   15CHL1  H19C 1079   4.290   6.378   6.491  1.2527 -0.0013  0.1109
   15CHL1    C1 1080   4.077   6.575   6.509  0.3123  0.2909  0.2421
   15CHL1   H1A 1081   4.141   6.663   6.482 -0.9550  0.9185 -0.8384
   15CHL1   H1B 1082   3.972   6.609   6.499  0.7084  1.3492 -0.6482
   15CHL1    C2 1083   4.095   6.524   6.651 -0.0977 -0.1981  0.7082
   15CHL1   H2A 1084   4.063   6.597   6.727  0.2780  1.2700 -0.4969
   15CHL1   H2B 1085   4.201   6.503   6.679  0.1963  1.7291  1.1864
   15CHL1   C20 1086   4.082   6.651   5.713  0.0265 -0.2854  0.4391
   15CHL1   H20 1087   4.187   6.619   5.695  0.0333  0.3441 -0.7581
   15CHL1   C21 1088   4.094   6.800   5.748 -0.5470 -0.0872  0.3894
   15CHL1  H21A 1089   3.993   6.847   5.749 -1.2511 -1.2980 -2.4541
   15CHL1  H21B 1090   4.145   6.855   5.665  0.6241  1.3626  2.0032
   15CHL1  H21C 1091   4.160   6.822   5.835 -0.5354 -1.3828  0.7178
   15CHL1   C22 1092   4.020   6.630   5.572 -0.5143 -0.2051 -0.0645
   15CHL1  H22A 1093   4.003   6.524   5.545  1.9702 -1.0845  1.5504
   15CHL1  H22B 1094   3.926   6.690   5.572  0.6799  1.7581 -0.4817
   15CHL1   C23 1095   4.110   6.686   5.451 -0.4005  0.5468 -0.1261
   15CHL1  H23A 1096   4.116   6.796   5.460  0.7287  0.6580 -1.7985
   15CHL1  H23B 1097   4.209   6.636   5.455 -0.1489  1.0188 -0.4265
   15CHL1   C24 1098   4.047   6.662   5.306 -0.3165  0.2678 -0.0221
   15CHL1  H24A 1099   4.111   6.715   5.233 -0.9921 -1.0369 -1.6257
   15CHL1  H24B 1100   4.044   6.552   5.288  0.4634  0.1241  0.6748
   15CHL1   C25 1101   3.900   6.714   5.277  0.1413  1.4305 -0.3718
   15CHL1   H25 1102   3.834   6.642   5.329  0.2115  1.9482  0.4422
   15CHL1   C26 1103   3.879   6.859   5.329  0.3251 -0.8476 -0.6216
   15CHL1  H26A 1104   3.935   6.936   5.273  1.2192 -1.3013 -0.3810
   15CHL1  H26B 1105   3.771   6.886   5.327  0.6835  0.7173 -0.1228
   15CHL1  H26C 1106   3.916   6.876   5.433 -0.8971 -0.1558 -0.2854
   15CHL1   C27 1107   3.884   6.712   5.123  0.6815 -0.6301  0.6828
   15CHL1  H27A 1108   3.782   6.754   5.106  1.9999  2.3202 -0.4648
   15CHL1  H27B 1109   3.955   6.782   5.075  1.0752 -1.6509 -0.2851
   15CHL1  H27C 1110   3.900   6.612   5.076  0.7508 -0.4133  0.2433
   16CHL1    C3 1111   3.528   4.992   6.742  0.7098 -0.1695 -0.0615
   16CHL1    H3 1112   3.452   5.065   6.705  0.1700  0.0295  1.3937
   16CHL1    O3 1113   3.533   5.011   6.883 -0.3977 -0.0008  0.6644
   16CHL1   H3' 1114   3.573   4.930   6.914 -0.7405 -0.5883 -0.3783
   16CHL1    C4 1115   3.498   4.852   6.692  0.4733  0.5105  0.0527
   16CHL1   H4A 1116   3.574   4.782   6.734 -1.1596 -1.1630  0.3777
   16CHL1   H4B 1117   3.403   4.813   6.735 -0.1680 -1.8701 -3.1461
   16CHL1    C5 1118   3.496   4.842   6.541 -0.8334  1.0882 -0.3130
   16CHL1    C6 1119   3.383   4.815   6.475 -0.5425 -0.2012 -0.6036
   16CHL1    H6 1120   3.296   4.782   6.534 -0.0020 -0.2139  0.1867
   16CHL1    C7 1121   3.378   4.812   6.319  0.0653 -0.2805 -0.5586
   16CHL1   H7A 1122   3.337   4.713   6.290  1.3466 -1.6425  1.9339
   16CHL1   H7B 1123   3.300   4.878   6.276  1.2377  2.6188  1.4753
   16CHL1    C8 1124   3.515   4.826   6.250  0.3664  0.0512  0.3616
   16CHL1    H8 1125   3.569   4.729   6.260 -0.6749 -0.5355  0.3763
   16CHL1   C14 1126   3.509   4.857   6.097  0.4041  0.3257 -0.3791
   16CHL1   H14 1127   3.459   4.956   6.095 -0.0770  0.2523  2.6639
   16CHL1   C15 1128   3.426   4.757   6.013  0.1008 -0.3496 -0.2867
   16CHL1  H15A 1129   3.453   4.651   6.034  0.7585  0.1272  1.5070
   16CHL1  H15B 1130   3.320   4.788   6.023  0.2075  0.4565 -1.4718
   16CHL1   C16 1131   3.479   4.791   5.877  0.0539 -0.3068  1.1727
   16CHL1  H16A 1132   3.526   4.699   5.837  1.4376  0.7710  0.2179
   16CHL1  H16B 1133   3.401   4.822   5.805  1.9817  0.0631 -0.8595
   16CHL1   C17 1134   3.583   4.912   5.886 -0.0169 -0.5156 -0.4224
   16CHL1   H17 1135   3.525   5.007   5.888  1.4616  0.4431 -1.4451
   16CHL1   C13 1136   3.641   4.891   6.023  0.1547  0.0565 -0.2444
   16CHL1   C18 1137   3.743   4.773   6.020  0.7427 -0.1611 -0.0619
   16CHL1  H18A 1138   3.831   4.810   5.964  0.0460  0.6907 -0.6188
   16CHL1  H18B 1139   3.766   4.734   6.122  1.6224 -0.1388 -0.2528
   16CHL1  H18C 1140   3.696   4.683   5.974 -1.9047  0.5219  1.1117
   16CHL1   C12 1141   3.702   5.016   6.090 -0.2921  0.2009 -0.1824
   16CHL1  H12A 1142   3.802   5.037   6.047 -0.7260 -0.4648 -1.6044
   16CHL1  H12B 1143   3.636   5.105   6.084 -1.2560 -0.3280  1.6554
   16CHL1   C11 1144   3.718   4.986   6.238 -0.5620  0.2979  0.0322
   16CHL1  H11A 1145   3.795   4.907   6.242  0.6415  1.3932 -0.6538
   16CHL1  H11B 1146   3.766   5.068   6.296  2.1322  0.5900 -2.3918
   16CHL1    C9 1147   3.597   4.933   6.320 -0.0372  0.2152  0.0003
   16CHL1    H9 1148   3.529   5.021   6.323  0.6955  0.7891  0.5610
   16CHL1   C10 1149   3.622   4.895   6.470 -0.4572  0.1287 -0.9014
   16CHL1   C19 1150   3.735   4.794   6.480 -0.0407 -0.4129 -0.4921
   16CHL1  H19A 1151   3.736   4.731   6.388  1.9666  1.5746 -1.9498
   16CHL1  H19B 1152   3.832   4.848   6.476  0.1204 -0.7557 -2.4757
   16CHL1  H19C 1153   3.742   4.742   6.578 -2.4231  1.0879  0.5605
   16CHL1    C1 1154   3.659   5.034   6.545  0.0687 -0.1757 -0.0816
   16CHL1   H1A 1155   3.757   5.065   6.502  0.2965 -1.3288 -0.4321
   16CHL1   H1B 1156   3.580   5.109   6.521 -1.5922 -1.9795 -0.4993
   16CHL1    C2 1157   3.667   5.040   6.692 -0.2633 -0.9304 -0.0395
   16CHL1   H2A 1158   3.674   5.146   6.724 -0.4344 -0.2209 -2.2152
   16CHL1   H2B 1159   3.752   4.981   6.732  0.9958  0.1934 -0.9603
   16CHL1   C20 1160   3.673   4.925   5.763  0.7658  0.1677 -0.3384
   16CHL1   H20 1161   3.709   4.822   5.743  2.0201  0.7572 -1.2293
   16CHL1   C21 1162   3.785   5.031   5.774 -0.1903  0.4884 -0.5092
   16CHL1  H21A 1163   3.847   4.992   5.857 -3.3499 -1.6024  1.0446
   16CHL1  H21B 1164   3.744   5.129   5.807 -1.1924 -0.9326  2.8480
   16CHL1  H21C 1165   3.847   5.046   5.682 -0.0734 -1.4903 -0.8006
   16CHL1   C22 1166   3.589   4.969   5.641  0.1977 -0.0431 -0.2938
   16CHL1  H22A 1167   3.487   4.928   5.657  0.8694 -1.7217 -0.1190
   16CHL1  H22B 1168   3.570   5.078   5.653  0.7965 -0.0326  0.6966
   16CHL1   C23 1169   3.649   4.912   5.517 -0.1662  0.0535 -0.0497
   16CHL1  H23A 1170   3.755   4.943   5.505 -0.2453  0.7698  0.9659
   16CHL1  H23B 1171   3.645   4.802   5.528  0.7613  0.1133  1.1384
   16CHL1   C24 1172   3.570   4.938   5.391  0.4162 -0.4035  0.4496
   16CHL1  H24A 1173   3.471   4.892   5.409 -0.3678  0.3125 -1.7701
   16CHL1  H24B 1174   3.562   5.047   5.370  0.7321 -0.9173 -2.8095
   16CHL1   C25 1175   3.635   4.872   5.271 -1.0172 -0.1727 -0.3695
   16CHL1   H25 1176   3.638   4.764   5.297 -0.6047  0.2323  1.4091
   16CHL1   C26 1177   3.556   4.899   5.135  0.7099  0.2925 -0.3094
   16CHL1  H26A 1178   3.588   4.828   5.057 -1.1344 -1.1826  0.1994
   16CHL1  H26B 1179   3.446   4.908   5.148  0.4687 -0.6317 -1.5883
   16CHL1  H26C 1180   3.583   5.003   5.106 -1.4395  0.9071 -0.2311
   16CHL1   C27 1181   3.785   4.896   5.244  0.2206 -0.2341 -0.2697
   16CHL1  H27A 1182   3.824   4.819   5.175  2.3636  0.9985 -0.5310
   16CHL1  H27B 1183   3.790   4.992   5.188 -0.5333 -1.6009 -2.8155
   16CHL1  H27C 1184   3.848   4.891   5.335 -0.6676  0.9710  0.4436
   17CHL1    C3 1185   4.630   0.576   6.532  0.1202 -0.6921 -0.7937
   17CHL1    H3 1186   4.549   0.501   6.525 -0.3763 -0.1794 -0.5551
   17CHL1    O3 1187   4.653   0.594   6.668  1.1487  0.0415 -0.4704
   17CHL1   H3' 1188   4.563   0.592   6.702  1.9294  2.2563  2.0945
   17CHL1    C4 1189   4.761   0.517   6.473 -0.6292  0.6211 -0.2609
   17CHL1   H4A 1190   4.846   0.579   6.507 -1.3315  2.1619 -1.2085
   17CHL1   H4B 1191   4.765   0.414   6.516 -1.4602  0.6316 -0.1280
   17CHL1    C5 1192   4.762   0.503   6.325 -0.3920  0.0533 -0.0113
   17CHL1    C6 1193   4.793   0.383   6.270 -0.4454  0.4802  0.1979
   17CHL1    H6 1194   4.836   0.303   6.332  2.9661  0.0469 -2.4759
   17CHL1    C7 1195   4.795   0.353   6.124 -0.4079  0.7851  0.2015
   17CHL1   H7A 1196   4.894   0.310   6.097  0.2593  2.1519  0.3670
   17CHL1   H7B 1197   4.712   0.280   6.117 -0.3623  0.2825  3.5018
   17CHL1    C8 1198   4.777   0.476   6.036 -0.2008  0.1969 -0.7882
   17CHL1    H8 1199   4.874   0.528   6.028  0.6463 -1.0541  0.7135
   17CHL1   C14 1200   4.727   0.436   5.892 -0.2917  0.3699  0.7591
   17CHL1   H14 1201   4.628   0.387   5.901 -1.7319  2.0043 -3.5067
   17CHL1   C15 1202   4.810   0.329   5.812  0.2360 -0.1637  0.5527
   17CHL1  H15A 1203   4.916   0.358   5.831  0.7875 -3.3074  3.1532
   17CHL1  H15B 1204   4.784   0.224   5.835 -1.7797 -0.2627 -1.8138
   17CHL1   C16 1205   4.767   0.356   5.663 -0.6399  0.6090  0.4171
   17CHL1  H16A 1206   4.852   0.401   5.608 -2.3924  0.6327 -2.5173
   17CHL1  H16B 1207   4.722   0.266   5.614 -1.0118  0.1733  1.5225
   17CHL1   C17 1208   4.663   0.478   5.677 -0.4592  0.6379 -0.5394
   17CHL1   H17 1209   4.568   0.422   5.697 -0.3974  0.7712  0.1525
   17CHL1   C13 1210   4.704   0.557   5.800  0.6197 -0.1737 -0.8198
   17CHL1   C18 1211   4.832   0.638   5.770 -1.1157  0.3452 -0.2673
   17CHL1  H18A 1212   4.805   0.720   5.699  1.4055  2.3962  0.9936
   17CHL1  H18B 1213   4.877   0.684   5.860  1.4748  0.6086 -1.6028
   17CHL1  H18C 1214   4.910   0.578   5.719 -0.0529  2.1483 -0.8573
   17CHL1   C12 1215   4.597   0.642   5.863 -0.1960 -0.0432  0.1331
   17CHL1  H12A 1216   4.585   0.733   5.800  0.0014  0.2450  0.5078
   17CHL1  H12B 1217   4.498   0.591   5.870 -0.2667  0.1378  0.4988
   17CHL1   C11 1218   4.642   0.694   5.999  0.3392  0.7174  0.1365
   17CHL1  H11A 1219   4.732   0.757   5.986  0.0885  1.1252  0.3555
   17CHL1  H11B 1220   4.570   0.761   6.051 -0.1449  0.9993 -0.8858
   17CHL1    C9 1221   4.675   0.576   6.096  0.9233  0.3862  0.4411
   17CHL1    H9 1222   4.579   0.521   6.099  1.0910  0.0840  0.2873
   17CHL1   C10 1223   4.701   0.615   6.244 -0.7766 -0.1983 -0.0356
   17CHL1   C19 1224   4.807   0.732   6.225  0.1421 -0.6021 -0.2951
   17CHL1  H19A 1225   4.842   0.779   6.320  0.2071  0.9764 -1.0697
   17CHL1  H19B 1226   4.902   0.699   6.177  0.8549 -0.3734  0.9124
   17CHL1  H19C 1227   4.768   0.817   6.166 -2.2481 -1.2666  0.2124
   17CHL1    C1 1228   4.568   0.667   6.308 -0.0970 -0.2940 -0.0702
   17CHL1   H1A 1229   4.535   0.763   6.262  1.4489  0.0684 -0.4496
   17CHL1   H1B 1230   4.487   0.593   6.291 -0.9435  0.5372  0.2333
   17CHL1    C2 1231   4.588   0.701   6.455 -0.2301  0.0025 -0.3091
   17CHL1   H2A 1232   4.492   0.742   6.492  1.0189  1.7005  1.1750
   17CHL1   H2B 1233   4.675   0.768   6.467 -0.6289  0.4092  0.4160
   17CHL1   C20 1234   4.635   0.554   5.540  0.7669  0.0096 -0.5539
   17CHL1   H20 1235   4.705   0.640   5.545 -1.2266  1.7052 -0.5833
   17CHL1   C21 1236   4.488   0.604   5.530 -0.5553  0.1296  0.2735
   17CHL1  H21A 1237   4.482   0.671   5.441 -0.6854 -1.2748 -0.8141
   17CHL1  H21B 1238   4.459   0.663   5.619  0.8352 -2.4757  2.6028
   17CHL1  H21C 1239   4.425   0.514   5.512 -0.4672  0.6248 -3.2416
   17CHL1   C22 1240   4.678   0.478   5.408 -0.6813  0.0712  0.1515
   17CHL1  H22A 1241   4.780   0.439   5.431 -0.7171  0.0333  0.2453
   17CHL1  H22B 1242   4.620   0.383   5.408 -0.1264 -0.2778  0.6799
   17CHL1   C23 1243   4.641   0.547   5.279  0.0894  0.1927  0.2570
   17CHL1  H23A 1244   4.535   0.530   5.250  0.2555 -2.1750  0.8652
   17CHL1  H23B 1245   4.662   0.654   5.305  2.6093 -0.4351  1.1156
   17CHL1   C24 1246   4.715   0.493   5.167 -0.1673  0.0360  0.0725
   17CHL1  H24A 1247   4.821   0.485   5.198 -0.0889 -0.6481 -0.3689
   17CHL1  H24B 1248   4.672   0.397   5.131 -0.9337  1.0624 -1.8844
   17CHL1   C25 1249   4.718   0.562   5.028 -0.1151 -0.0802 -0.3012
   17CHL1   H25 1250   4.730   0.487   4.947  2.6898  0.5659 -0.5810
   17CHL1   C26 1251   4.601   0.660   4.998  0.1103 -0.2243  0.2781
   17CHL1  H26A 1252   4.516   0.606   4.950 -1.3811  1.1379  1.2985
   17CHL1  H26B 1253   4.560   0.702   5.092 -0.2032  1.4611 -0.5740
   17CHL1  H26C 1254   4.622   0.742   4.926 -1.1947  0.2334  0.4050
   17CHL1   C27 1255   4.849   0.642   5.025 -0.4472 -0.3574  0.4333
   17CHL1  H27A 1256   4.845   0.710   5.113 -0.2886  1.1166 -0.6550
   17CHL1  H27B 1257   4.941   0.580   5.027 -0.1417  0.1044  1.7166
   17CHL1  H27C 1258   4.859   0.713   4.940 -1.9058  1.0668  1.3888
   18CHL1    C3 1259   2.387   2.345   6.402 -0.3283 -0.1055 -0.5273
   18CHL1    H3 1260   2.285   2.345   6.359  0.0136  0.3027 -1.3709
   18CHL1    O3 1261   2.392   2.394   6.535  0.2306 -0.1275 -0.5177
   18CHL1   H3' 1262   2.464   2.346   6.575 -1.0551 -1.7950 -0.1046
   18CHL1    C4 1263   2.439   2.198   6.391 -0.6904  0.2682  0.0891
   18CHL1   H4A 1264   2.546   2.224   6.408 -1.1166  3.4831 -1.2780
   18CHL1   H4B 1265   2.388   2.139   6.470 -2.1630  0.6562 -0.5282
   18CHL1    C5 1266   2.439   2.145   6.245  0.2299  0.1810 -0.2609
   18CHL1    C6 1267   2.388   2.029   6.212 -0.2802 -0.5506  0.4864
   18CHL1    H6 1268   2.345   1.960   6.287 -1.2878  0.8430  1.2181
   18CHL1    C7 1269   2.392   1.974   6.070  0.0889 -0.7461 -0.4428
   18CHL1   H7A 1270   2.426   1.868   6.061 -1.3079 -1.2235 -0.3321
   18CHL1   H7B 1271   2.286   1.973   6.038  0.4018  2.6157 -1.9483
   18CHL1    C8 1272   2.482   2.060   5.974  0.7440  0.3330 -0.3097
   18CHL1    H8 1273   2.586   2.040   6.005  0.3611  0.5217  1.1910
   18CHL1   C14 1274   2.442   2.018   5.834  0.3007 -0.3888 -0.0474
   18CHL1   H14 1275   2.334   2.043   5.820  0.5607  1.3955  0.9307
   18CHL1   C15 1276   2.445   1.868   5.795  0.1204 -0.5740  0.6257
   18CHL1  H15A 1277   2.541   1.816   5.819  0.3655 -0.4753 -0.0921
   18CHL1  H15B 1278   2.365   1.806   5.839 -1.7833 -0.6510 -2.6112
   18CHL1   C16 1279   2.436   1.879   5.641  0.2124 -0.1823 -0.3899
   18CHL1  H16A 1280   2.513   1.827   5.581 -0.4568  0.9111 -2.2830
   18CHL1  H16B 1281   2.343   1.825   5.613 -1.0568  0.7006  1.8473
   18CHL1   C17 1282   2.452   2.023   5.595 -0.1433  0.4773 -0.1373
   18CHL1   H17 1283   2.347   2.060   5.595 -0.4444 -0.3057 -1.5969
   18CHL1   C13 1284   2.518   2.095   5.723  0.1175  0.7414 -0.2186
   18CHL1   C18 1285   2.670   2.058   5.739  0.3820 -0.6870  0.2999
   18CHL1  H18A 1286   2.680   1.950   5.716 -0.8709 -0.4663 -1.4912
   18CHL1  H18B 1287   2.720   2.123   5.664  0.1893  2.1125  2.4100
   18CHL1  H18C 1288   2.706   2.082   5.841  0.6263  2.4320 -0.4082
   18CHL1   C12 1289   2.493   2.244   5.746 -0.1235  0.2157  0.0868
   18CHL1  H12A 1290   2.550   2.305   5.673 -0.6213  1.5624  0.8007
   18CHL1  H12B 1291   2.385   2.263   5.731 -0.1494 -1.1630 -1.9763
   18CHL1   C11 1292   2.527   2.295   5.892 -0.2606 -0.1235 -0.2539
   18CHL1  H11A 1293   2.637   2.279   5.900 -0.1928  1.2538  3.4051
   18CHL1  H11B 1294   2.494   2.400   5.902  1.7632  0.7019 -1.6137
   18CHL1    C9 1295   2.460   2.209   6.004 -0.9027  0.4487 -0.0468
   18CHL1    H9 1296   2.353   2.232   5.987 -0.8173  1.6158  0.8954
   18CHL1   C10 1297   2.497   2.250   6.144 -0.8767  0.2598  0.2846
   18CHL1   C19 1298   2.656   2.267   6.160 -0.3920 -0.1314 -0.6484
   18CHL1  H19A 1299   2.710   2.174   6.132 -1.2678  0.2653 -4.1703
   18CHL1  H19B 1300   2.689   2.348   6.092  0.7151  0.2640  0.3280
   18CHL1  H19C 1301   2.702   2.291   6.258  1.2149 -0.9987 -1.1565
   18CHL1    C1 1302   2.444   2.395   6.169  0.3666  0.5849  0.4267
   18CHL1   H1A 1303   2.485   2.460   6.089  0.5161  0.3008  0.2706
   18CHL1   H1B 1304   2.337   2.386   6.139  1.5935 -1.6110 -4.3247
   18CHL1    C2 1305   2.461   2.447   6.307 -0.5314 -1.0748  0.9025
   18CHL1   H2A 1306   2.430   2.554   6.309 -1.4761 -1.2284 -2.0305
   18CHL1   H2B 1307   2.568   2.453   6.337 -0.0282  1.1748 -1.0345
   18CHL1   C20 1308   2.510   2.041   5.455 -0.2449  0.4528  0.4594
   18CHL1   H20 1309   2.607   1.989   5.450 -0.9382 -0.7670 -2.1883
   18CHL1   C21 1310   2.529   2.188   5.419 -0.1081 -0.1472 -0.1096
   18CHL1  H21A 1311   2.566   2.194   5.314  1.5930  1.4011  0.5355
   18CHL1  H21B 1312   2.601   2.243   5.482 -0.5108  1.8817 -1.3152
   18CHL1  H21C 1313   2.431   2.240   5.418  0.2160  0.6402 -3.4797
   18CHL1   C22 1314   2.409   1.975   5.358  0.0703  0.9389 -0.0009
   18CHL1  H22A 1315   2.359   1.883   5.396  0.0758  0.6061 -0.7753
   18CHL1  H22B 1316   2.328   2.049   5.341 -1.1816 -0.2035  0.7787
   18CHL1   C23 1317   2.470   1.926   5.226  0.7426  0.4699  0.0632
   18CHL1  H23A 1318   2.541   2.007   5.199  1.0816  0.1598  0.0174
   18CHL1  H23B 1319   2.528   1.831   5.227 -2.4751 -1.6118 -0.2843
   18CHL1   C24 1320   2.362   1.916   5.119  0.7681 -0.0738 -0.0172
   18CHL1  H24A 1321   2.293   1.828   5.127  0.1184  0.3869 -0.4180
   18CHL1  H24B 1322   2.290   1.998   5.139  1.3314  0.3900  0.1336
   18CHL1   C25 1323   2.415   1.928   4.977 -0.7691  0.6722  0.1931
   18CHL1   H25 1324   2.477   2.020   4.967 -0.7198  1.0144  2.8719
   18CHL1   C26 1325   2.507   1.808   4.946 -0.4082 -0.3316  0.2664
   18CHL1  H26A 1326   2.531   1.793   4.839 -1.4765  0.9361 -0.1729
   18CHL1  H26B 1327   2.602   1.812   5.005 -0.2148  2.1719 -0.1027
   18CHL1  H26C 1328   2.445   1.718   4.966  0.8855 -1.1673  0.6258
   18CHL1   C27 1329   2.307   1.948   4.866  0.2422  0.3211 -0.1250
   18CHL1  H27A 1330   2.345   1.945   4.762 -0.5671 -0.0897 -0.4101
   18CHL1  H27B 1331   2.239   1.861   4.879 -0.0225  0.3182 -1.3744
   18CHL1  H27C 1332   2.247   2.041   4.874  1.0001  0.8092  0.0373
   19CHL1    C3 1333   5.773   2.736   6.576  0.2863 -0.1846 -0.4461
   19CHL1    H3 1334   5.705   2.650   6.562 -1.1868  0.9086 -0.2193
   19CHL1    O3 1335   5.853   2.706   6.691 -0.2177  0.1257 -0.3089
   19CHL1   H3' 1336   5.895   2.622   6.669  0.1952  0.6850 -1.7838
   19CHL1    C4 1337   5.868   2.777   6.469  0.8084  0.5311 -0.1824
   19CHL1   H4A 1338   5.934   2.864   6.490  0.4113  1.2404 -1.7748
   19CHL1   H4B 1339   5.942   2.697   6.449  1.7726  0.9385  1.5708
   19CHL1    C5 1340   5.790   2.816   6.343  0.0323  0.1691  0.2201
   19CHL1    C6 1341   5.813   2.742   6.230 -0.3055 -0.0031  0.1927
   19CHL1    H6 1342   5.879   2.654   6.226 -0.5069 -0.2090  1.0870
   19CHL1    C7 1343   5.751   2.772   6.102  0.0401 -0.1491 -0.4919
   19CHL1   H7A 1344   5.824   2.767   6.018 -0.0526  0.3418 -0.6068
   19CHL1   H7B 1345   5.678   2.692   6.078 -2.1937  1.2282  1.3234
   19CHL1    C8 1346   5.674   2.907   6.104  0.5461 -0.4279  0.7418
   19CHL1    H8 1347   5.755   2.980   6.084 -1.7348  1.4674 -2.6123
   19CHL1   C14 1348   5.567   2.903   5.994 -0.1681  0.3478  0.8203
   19CHL1   H14 1349   5.500   2.822   6.031  0.2195  0.0330  0.8454
   19CHL1   C15 1350   5.605   2.858   5.858  0.5051 -0.1890 -0.0997
   19CHL1  H15A 1351   5.699   2.901   5.818 -0.1387  1.3310 -0.0429
   19CHL1  H15B 1352   5.612   2.748   5.844  0.9264 -0.0768 -0.7898
   19CHL1   C16 1353   5.488   2.912   5.769  0.7669  0.6036  0.3663
   19CHL1  H16A 1354   5.522   2.977   5.685  0.3600 -1.6958 -1.7158
   19CHL1  H16B 1355   5.425   2.833   5.723  0.3859  0.2711  1.4453
   19CHL1   C17 1356   5.397   3.003   5.860 -0.1934  0.0744  0.0323
   19CHL1   H17 1357   5.325   2.932   5.906 -0.4335  0.2631 -0.0503
   19CHL1   C13 1358   5.487   3.036   5.979  0.2108 -0.9922  0.3680
   19CHL1   C18 1359   5.586   3.149   5.936 -0.8721  0.1189 -0.8343
   19CHL1  H18A 1360   5.513   3.233   5.943  0.0862  0.8337  1.4667
   19CHL1  H18B 1361   5.672   3.156   6.005 -0.8870 -1.5281 -0.6099
   19CHL1  H18C 1362   5.626   3.141   5.833  2.0115  1.1580  0.0966
   19CHL1   C12 1363   5.418   3.067   6.111  0.0617 -0.1547  0.0916
   19CHL1  H12A 1364   5.369   3.167   6.119  0.3850 -0.0967  1.7210
   19CHL1  H12B 1365   5.341   2.987   6.120  0.7516 -0.7617  0.6797
   19CHL1   C11 1366   5.513   3.062   6.232 -0.1408 -0.5972  0.0940
   19CHL1  H11A 1367   5.579   3.149   6.213  1.2286 -1.6742 -0.2059
   19CHL1  H11B 1368   5.461   3.079   6.329  1.5915  0.7382  0.8531
   19CHL1    C9 1369   5.595   2.934   6.238  0.1784  0.1624  0.3313
   19CHL1    H9 1370   5.524   2.849   6.249 -1.0438  1.2908  1.4674
   19CHL1   C10 1371   5.685   2.928   6.364 -0.1427 -0.0390  0.1529
   19CHL1   C19 1372   5.753   3.066   6.385 -0.0637 -0.5410 -0.4499
   19CHL1  H19A 1373   5.801   3.091   6.288 -1.1503  0.9160 -0.6477
   19CHL1  H19B 1374   5.673   3.138   6.415 -0.2078 -0.8432 -0.1055
   19CHL1  H19C 1375   5.820   3.067   6.473 -0.8058  0.0512  0.1279
   19CHL1    C1 1376   5.600   2.890   6.482 -0.4127  0.5319 -0.1473
   19CHL1   H1A 1377   5.557   2.988   6.512  2.1633  1.6923  0.0364
   19CHL1   H1B 1378   5.517   2.816   6.475 -1.2001  1.3064  0.8092
   19CHL1    C2 1379   5.680   2.851   6.615  0.5874 -0.1354  0.1886
   19CHL1   H2A 1380   5.610   2.836   6.700 -0.5997  3.4021 -0.0030
   19CHL1   H2B 1381   5.751   2.934   6.637  0.5698 -0.5677  2.0501
   19CHL1   C20 1382   5.321   3.110   5.787 -0.0253 -0.5291 -0.5369
   19CHL1   H20 1383   5.387   3.198   5.767 -0.1465  0.6041  3.2734
   19CHL1   C21 1384   5.214   3.180   5.874 -1.2498 -0.0357 -0.0216
   19CHL1  H21A 1385   5.136   3.111   5.913  0.3977 -1.6731  0.5361
   19CHL1  H21B 1386   5.165   3.260   5.814  0.0574  0.1415 -0.8794
   19CHL1  H21C 1387   5.254   3.228   5.966 -3.8223 -0.4463  1.4067
   19CHL1   C22 1388   5.256   3.066   5.652  0.1166  0.4866 -0.0416
   19CHL1  H22A 1389   5.316   2.985   5.606 -0.0505 -0.5876  1.5474
   19CHL1  H22B 1390   5.152   3.035   5.677  0.0082  1.8459  1.4010
   19CHL1   C23 1391   5.244   3.176   5.546 -0.2044 -0.1847 -0.6534
   19CHL1  H23A 1392   5.154   3.229   5.585  0.4925  1.3298 -1.0522
   19CHL1  H23B 1393   5.328   3.248   5.542 -0.7808  0.6595  1.1306
   19CHL1   C24 1394   5.207   3.130   5.407  0.2030  0.0091 -0.1876
   19CHL1  H24A 1395   5.301   3.110   5.350  0.2378 -1.1779  0.2636
   19CHL1  H24B 1396   5.151   3.035   5.414 -1.2252  0.8329  0.0615
   19CHL1   C25 1397   5.117   3.227   5.317 -0.0340  0.2480  0.6078
   19CHL1   H25 1398   5.142   3.334   5.333 -0.3967  0.7625 -1.8164
   19CHL1   C26 1399   5.123   3.181   5.175  0.7660  0.1703  0.8990
   19CHL1  H26A 1400   5.228   3.170   5.141  0.7171 -0.6370  0.9833
   19CHL1  H26B 1401   5.073   3.082   5.163 -0.5915  0.7818  1.3931
   19CHL1  H26C 1402   5.077   3.259   5.110  2.3872 -0.9893 -1.8293
   19CHL1   C27 1403   4.972   3.215   5.363  0.4996  0.2460 -0.4245
   19CHL1  H27A 1404   4.965   3.230   5.473  2.0050  0.4266 -0.3259
   19CHL1  H27B 1405   4.915   3.293   5.309  0.0878 -1.0853 -1.9848
   19CHL1  H27C 1406   4.921   3.118   5.340 -1.7827  0.9950  1.1465
   20CHL1    C3 1407   4.488   1.656   6.226 -0.1093 -0.1284  0.1376
   20CHL1    H3 1408   4.409   1.732   6.213  1.4777  1.4279 -0.8379
   20CHL1    O3 1409   4.508   1.638   6.368  0.4952  0.4482  0.3596
   20CHL1   H3' 1410   4.433   1.682   6.409  0.3067 -1.2540  1.9534
   20CHL1    C4 1411   4.440   1.538   6.141 -0.1433 -0.4972  0.1211
   20CHL1   H4A 1412   4.494   1.448   6.179  0.5489 -0.9961 -1.9130
   20CHL1   H4B 1413   4.334   1.537   6.175 -0.3110 -0.8164 -0.3922
   20CHL1    C5 1414   4.460   1.550   5.994  1.0342 -0.0963 -0.0294
   20CHL1    C6 1415   4.352   1.544   5.911  0.4593  0.6973 -0.3141
   20CHL1    H6 1416   4.261   1.498   5.954  1.8924  0.2508  2.5121
   20CHL1    C7 1417   4.361   1.551   5.765 -0.1742  0.5661 -0.7880
   20CHL1   H7A 1418   4.309   1.458   5.733  1.0732 -0.1162 -0.8832
   20CHL1   H7B 1419   4.304   1.641   5.734  0.8311  1.1739 -0.9180
   20CHL1    C8 1420   4.511   1.543   5.710 -0.8821 -0.8533  0.0632
   20CHL1    H8 1421   4.549   1.440   5.730  0.0147 -0.4489  0.5049
   20CHL1   C14 1422   4.517   1.576   5.564 -0.7913 -0.6958 -0.1005
   20CHL1   H14 1423   4.485   1.682   5.555 -0.8859 -0.7718 -0.7169
   20CHL1   C15 1424   4.407   1.506   5.475 -0.6489 -0.2342 -0.5359
   20CHL1  H15A 1425   4.393   1.402   5.512  0.7975 -1.0567 -2.1464
   20CHL1  H15B 1426   4.320   1.574   5.469 -0.1823  0.4432  0.1329
   20CHL1   C16 1427   4.481   1.516   5.341  0.4123 -0.0537  0.7502
   20CHL1  H16A 1428   4.488   1.414   5.296 -0.7993  1.3041 -2.8588
   20CHL1  H16B 1429   4.434   1.577   5.261 -0.3854 -1.4595  0.0944
   20CHL1   C17 1430   4.612   1.596   5.357 -0.5281 -0.0978 -0.5570
   20CHL1   H17 1431   4.588   1.705   5.353 -2.6635 -0.5428 -1.4794
   20CHL1   C13 1432   4.654   1.573   5.499  1.1433  0.6489 -0.5451
   20CHL1   C18 1433   4.717   1.428   5.509 -0.2137 -0.8782  0.0783
   20CHL1  H18A 1434   4.726   1.397   5.615  0.4136  0.8955  0.5863
   20CHL1  H18B 1435   4.669   1.353   5.443  0.5030 -1.9408  0.7354
   20CHL1  H18C 1436   4.824   1.432   5.479 -0.6558 -2.3170 -1.8949
   20CHL1   C12 1437   4.735   1.680   5.572 -0.0005 -0.5623  0.4144
   20CHL1  H12A 1438   4.839   1.689   5.534 -0.4558  2.0756 -0.4742
   20CHL1  H12B 1439   4.685   1.780   5.563  0.6125 -0.3977 -1.8728
   20CHL1   C11 1440   4.733   1.653   5.718 -0.8539 -0.3979 -0.1092
   20CHL1  H11A 1441   4.807   1.574   5.744 -0.4461  0.5410  1.8164
   20CHL1  H11B 1442   4.777   1.743   5.768 -1.0078 -0.5220  0.2550
   20CHL1    C9 1443   4.596   1.638   5.791 -0.5086 -0.5805  0.1457
   20CHL1    H9 1444   4.547   1.738   5.782 -1.4436 -0.9914  0.5239
   20CHL1   C10 1445   4.595   1.596   5.940 -0.5787  0.1650 -1.1083
   20CHL1   C19 1446   4.699   1.477   5.958 -0.3176 -0.1633 -0.2771
   20CHL1  H19A 1447   4.689   1.448   6.065 -3.2907  1.0734 -0.1308
   20CHL1  H19B 1448   4.682   1.393   5.887  2.4209 -0.3576 -0.8167
   20CHL1  H19C 1449   4.805   1.504   5.937 -0.6389 -1.6426 -4.9692
   20CHL1    C1 1450   4.637   1.719   6.017 -0.1374  0.1103 -0.1604
   20CHL1   H1A 1451   4.742   1.744   5.991 -0.8802 -0.5908 -4.5516
   20CHL1   H1B 1452   4.583   1.807   5.976  1.6070  2.3205  1.9568
   20CHL1    C2 1453   4.620   1.711   6.169  0.5344  1.2140  0.1261
   20CHL1   H2A 1454   4.646   1.804   6.223 -0.9734  0.2176  2.7727
   20CHL1   H2B 1455   4.690   1.636   6.212 -0.5707 -1.0904 -1.8154
   20CHL1   C20 1456   4.705   1.573   5.244  0.1705 -0.0619  0.3177
   20CHL1   H20 1457   4.759   1.479   5.272 -0.2764  0.2384  2.3077
   20CHL1   C21 1458   4.814   1.686   5.243 -0.0552 -0.1088 -0.4611
   20CHL1  H21A 1459   4.893   1.659   5.170  0.9941 -0.6946  0.8343
   20CHL1  H21B 1460   4.865   1.701   5.341 -2.0267  2.3531  0.2922
   20CHL1  H21C 1461   4.767   1.785   5.225  1.2904  0.6889  0.1928
   20CHL1   C22 1462   4.656   1.559   5.096  0.1081 -0.1902  0.5487
   20CHL1  H22A 1463   4.731   1.497   5.042 -0.4260  0.4273 -0.9564
   20CHL1  H22B 1464   4.566   1.494   5.092 -0.7760  1.0696 -1.9323
   20CHL1   C23 1465   4.616   1.688   5.021 -0.2376 -0.7775  0.3822
   20CHL1  H23A 1466   4.528   1.728   5.075 -1.6059 -1.4464 -1.2541
   20CHL1  H23B 1467   4.707   1.753   5.024 -1.8946  1.6404  1.3349
   20CHL1   C24 1468   4.575   1.682   4.871 -0.2278 -0.2690  0.5110
   20CHL1  H24A 1469   4.654   1.629   4.812 -0.2304  0.2272  0.0581
   20CHL1  H24B 1470   4.484   1.620   4.854 -0.0206 -0.8294  1.3710
   20CHL1   C25 1471   4.570   1.815   4.800  0.2055  0.5329 -0.4547
   20CHL1   H25 1472   4.672   1.857   4.792  0.6842 -0.9349 -3.5919
   20CHL1   C26 1473   4.526   1.793   4.651  0.2828  0.1920  0.3174
   20CHL1  H26A 1474   4.595   1.722   4.601  0.2262 -0.6417  1.3961
   20CHL1  H26B 1475   4.418   1.772   4.661  0.0540  1.3854  0.4663
   20CHL1  H26C 1476   4.528   1.897   4.613 -1.1597  0.7722  1.6967
   20CHL1   C27 1477   4.466   1.915   4.867 -0.5623 -0.0813 -0.6143
   20CHL1  H27A 1478   4.473   2.006   4.804 -0.0312  0.0385 -0.3878
   20CHL1  H27B 1479   4.361   1.878   4.874 -0.7214  0.5278  0.5669
   20CHL1  H27C 1480   4.500   1.939   4.970 -0.2986  0.9952 -0.9430
   21CHL1    C3 1481   1.743   5.501   6.506 -0.4731 -0.3888 -1.1411
   21CHL1    H3 1482   1.734   5.602   6.461  0.8435 -0.9649 -2.7760
   21CHL1    O3 1483   1.757   5.520   6.647  0.1629 -0.0859 -0.2992
   21CHL1   H3' 1484   1.682   5.473   6.683 -0.1448  0.4642 -0.2059
   21CHL1    C4 1485   1.599   5.438   6.482  0.2795 -0.9149 -0.3816
   21CHL1   H4A 1486   1.602   5.341   6.538  0.6954 -0.6173  0.1159
   21CHL1   H4B 1487   1.525   5.511   6.522  1.1028  1.1089 -2.3934
   21CHL1    C5 1488   1.567   5.407   6.339  0.5146  0.3419  0.2515
   21CHL1    C6 1489   1.452   5.443   6.271 -0.4220  0.1713 -0.2638
   21CHL1    H6 1490   1.372   5.497   6.324 -1.1300 -0.6732 -0.4636
   21CHL1    C7 1491   1.423   5.420   6.127 -0.2278 -0.0551 -0.5200
   21CHL1   H7A 1492   1.319   5.384   6.107 -0.4131  0.6504 -0.8618
   21CHL1   H7B 1493   1.451   5.515   6.078  1.4467 -0.0128  0.4551
   21CHL1    C8 1494   1.512   5.302   6.070 -0.4436  0.5908  0.0962
   21CHL1    H8 1495   1.467   5.206   6.102  0.0827  0.7461  1.3644
   21CHL1   C14 1496   1.521   5.319   5.921  0.0490  0.1555 -0.1147
   21CHL1   H14 1497   1.571   5.416   5.902  2.2134 -0.7803  0.4973
   21CHL1   C15 1498   1.387   5.319   5.851  0.5174 -0.3031 -0.4274
   21CHL1  H15A 1499   1.318   5.248   5.901  1.4736 -1.2450 -0.4026
   21CHL1  H15B 1500   1.346   5.422   5.863  0.7019 -0.3373  0.6267
   21CHL1   C16 1501   1.410   5.288   5.704  0.1926  0.0524  0.4729
   21CHL1  H16A 1502   1.333   5.213   5.676  0.5657 -1.1816  2.5322
   21CHL1  H16B 1503   1.383   5.370   5.635  1.6866 -0.2915 -0.5766
   21CHL1   C17 1504   1.559   5.248   5.691  0.4157  0.0792  0.4145
   21CHL1   H17 1505   1.605   5.342   5.654  2.1302  0.8465  4.0488
   21CHL1   C13 1506   1.607   5.227   5.840 -0.0620 -0.3477 -0.0461
   21CHL1   C18 1507   1.565   5.080   5.882  0.3204 -0.3041 -0.4055
   21CHL1  H18A 1508   1.615   4.999   5.825 -0.1822 -1.4279  0.7084
   21CHL1  H18B 1509   1.578   5.072   5.992 -0.9799 -0.2806 -0.2389
   21CHL1  H18C 1510   1.457   5.070   5.858  0.4743 -0.3292 -1.1240
   21CHL1   C12 1511   1.753   5.245   5.875  0.0781 -0.6908  0.2229
   21CHL1  H12A 1512   1.805   5.159   5.829 -2.8678 -2.4633 -0.0024
   21CHL1  H12B 1513   1.793   5.343   5.841  0.3715 -1.4271 -1.6629
   21CHL1   C11 1514   1.767   5.245   6.027  0.5565 -0.0306 -1.0426
   21CHL1  H11A 1515   1.776   5.141   6.065  1.9290  0.4547  0.0428
   21CHL1  H11B 1516   1.859   5.306   6.039 -0.0672  0.7774 -0.1483
   21CHL1    C9 1517   1.660   5.319   6.115  0.9357 -0.5461  0.2009
   21CHL1    H9 1518   1.678   5.424   6.084  1.3166  0.3197  3.1223
   21CHL1   C10 1519   1.680   5.326   6.269  0.9918  0.9645  0.2041
   21CHL1   C19 1520   1.685   5.179   6.330  0.5487  0.0301  0.1810
   21CHL1  H19A 1521   1.681   5.184   6.441 -1.0749  2.7827  0.0652
   21CHL1  H19B 1522   1.594   5.130   6.291  0.5446  0.0365  0.1821
   21CHL1  H19C 1523   1.775   5.122   6.296 -0.0784 -0.6172 -0.4278
   21CHL1    C1 1524   1.812   5.393   6.305 -0.2402  0.1028  0.4093
   21CHL1   H1A 1525   1.895   5.329   6.268 -0.4846 -0.1899  0.3638
   21CHL1   H1B 1526   1.820   5.486   6.244 -0.2126 -0.3236 -0.2509
   21CHL1    C2 1527   1.852   5.413   6.450 -0.2101  0.6886  0.3141
   21CHL1   H2A 1528   1.953   5.458   6.462 -0.6663  1.4490  1.5459
   21CHL1   H2B 1529   1.843   5.315   6.502 -1.1752 -0.2316 -1.4964
   21CHL1   C20 1530   1.571   5.138   5.585 -0.7751 -0.6084 -1.0172
   21CHL1   H20 1531   1.499   5.059   5.615 -1.8171  0.6462 -0.0800
   21CHL1   C21 1532   1.720   5.096   5.581  0.6663 -0.3269  0.4326
   21CHL1  H21A 1533   1.752   5.058   5.681  0.1165 -2.3019 -0.0925
   21CHL1  H21B 1534   1.771   5.192   5.562 -2.5685  1.7886  1.5207
   21CHL1  H21C 1535   1.752   5.018   5.509  2.1537 -0.4243  1.1550
   21CHL1   C22 1536   1.529   5.184   5.444 -0.1090 -0.1338 -0.2579
   21CHL1  H22A 1537   1.440   5.248   5.459 -0.6835 -0.4391 -2.1549
   21CHL1  H22B 1538   1.606   5.240   5.388 -0.9005  0.9361 -0.3001
   21CHL1   C23 1539   1.491   5.065   5.358 -0.2074 -0.2345  0.4652
   21CHL1  H23A 1540   1.571   4.990   5.378  0.6202  0.6369  0.5301
   21CHL1  H23B 1541   1.397   5.023   5.401 -0.5578 -0.9459 -0.9393
   21CHL1   C24 1542   1.481   5.102   5.209 -0.6597 -0.3299 -0.3593
   21CHL1  H24A 1543   1.397   5.175   5.206 -1.7789 -1.4657  1.5483
   21CHL1  H24B 1544   1.580   5.146   5.183 -0.5195 -1.3628 -1.6819
   21CHL1   C25 1545   1.436   4.981   5.123 -0.1120 -0.1488  1.0103
   21CHL1   H25 1546   1.367   4.915   5.181 -1.4010 -1.5855 -1.9640
   21CHL1   C26 1547   1.370   5.039   4.993  0.4187 -0.0635  0.2275
   21CHL1  H26A 1548   1.422   5.128   4.952 -3.2705  2.2312  0.1535
   21CHL1  H26B 1549   1.360   4.957   4.919 -2.4686  0.8912 -0.5499
   21CHL1  H26C 1550   1.269   5.070   5.028  1.3786 -0.2183  3.4567
   21CHL1   C27 1551   1.551   4.896   5.083 -0.0180  0.2497  0.4724
   21CHL1  H27A 1552   1.526   4.831   4.997 -2.6474  1.4182  0.2738
   21CHL1  H27B 1553   1.638   4.953   5.045 -0.1793 -0.1658 -0.5384
   21CHL1  H27C 1554   1.578   4.828   5.168 -2.2733 -3.3422 -1.4407
   22CHL1    C3 1555   0.955   0.366   6.656 -0.1825 -1.1161 -0.4807
   22CHL1    H3 1556   1.061   0.389   6.680 -0.7996  2.0648 -0.4285
   22CHL1    O3 1557   0.879   0.381   6.773  0.2747 -0.0384  0.3262
   22CHL1   H3' 1558   0.902   0.461   6.819  0.6285 -0.0134  0.1037
   22CHL1    C4 1559   0.910   0.475   6.559  0.4347  0.6496 -0.4587
   22CHL1   H4A 1560   0.800   0.483   6.546  0.2495  0.2592  0.7579
   22CHL1   H4B 1561   0.949   0.568   6.606 -0.2071 -0.4673  2.4834
   22CHL1    C5 1562   0.972   0.464   6.423  0.0263  0.2331  0.4673
   22CHL1    C6 1563   1.039   0.566   6.366  0.0815 -0.5397  0.3162
   22CHL1    H6 1564   1.049   0.661   6.421 -1.4831 -1.2315  1.9209
   22CHL1    C7 1565   1.078   0.564   6.221 -0.4143 -0.2767  0.1517
   22CHL1   H7A 1566   1.050   0.666   6.188 -1.5817 -0.1514  1.4409
   22CHL1   H7B 1567   1.189   0.569   6.214 -0.4959  0.5313 -0.7826
   22CHL1    C8 1568   1.037   0.446   6.135  0.0920 -0.1477 -0.1796
   22CHL1    H8 1569   0.931   0.453   6.104 -0.4733  1.3124  1.8197
   22CHL1   C14 1570   1.144   0.427   6.025 -0.1768 -0.0593 -0.2639
   22CHL1   H14 1571   1.239   0.398   6.074  0.6866  0.9152 -1.2989
   22CHL1   C15 1572   1.186   0.544   5.938 -0.0514  0.0349  1.0211
   22CHL1  H15A 1573   1.098   0.598   5.897 -0.3238 -0.3796  1.0533
   22CHL1  H15B 1574   1.251   0.610   5.999  1.7435 -1.8775  1.2965
   22CHL1   C16 1575   1.266   0.479   5.829  0.3852 -0.1876  0.7105
   22CHL1  H16A 1576   1.257   0.544   5.739 -0.7611 -0.1019  0.8772
   22CHL1  H16B 1577   1.373   0.487   5.861  1.1015  1.7029 -1.8510
   22CHL1   C17 1578   1.235   0.331   5.833 -0.4517 -0.0377  0.7911
   22CHL1   H17 1579   1.315   0.274   5.886 -0.5170 -0.0575  0.8690
   22CHL1   C13 1580   1.110   0.321   5.928  0.7318 -0.6519  0.0262
   22CHL1   C18 1581   0.980   0.360   5.850 -0.0154  0.1488 -0.1419
   22CHL1  H18A 1582   0.936   0.268   5.807  0.4185 -0.5622  0.9127
   22CHL1  H18B 1583   0.903   0.405   5.916  0.7003 -0.9350  1.4915
   22CHL1  H18C 1584   0.994   0.431   5.765 -0.5662 -0.0531 -0.4075
   22CHL1   C12 1585   1.097   0.184   6.005 -0.1555  0.4301 -0.0810
   22CHL1  H12A 1586   1.053   0.105   5.941  0.6202 -1.1386  1.2713
   22CHL1  H12B 1587   1.199   0.151   6.034  0.3094  0.3947 -1.6805
   22CHL1   C11 1588   1.006   0.194   6.125 -0.4488 -0.1956  0.7133
   22CHL1  H11A 1589   0.902   0.212   6.088  0.2257  0.9120 -0.7531
   22CHL1  H11B 1590   1.002   0.112   6.200 -0.5371  0.5926  1.5918
   22CHL1    C9 1591   1.033   0.317   6.221  0.0115 -0.0942  0.4573
   22CHL1    H9 1592   1.138   0.306   6.256  0.7085 -0.1831 -1.5332
   22CHL1   C10 1593   0.944   0.327   6.350 -0.0788  0.0095 -0.0436
   22CHL1   C19 1594   0.798   0.309   6.303 -0.1730  0.3119  0.3509
   22CHL1  H19A 1595   0.719   0.319   6.380  0.4741  1.0726  0.9292
   22CHL1  H19B 1596   0.779   0.382   6.222 -1.2478 -0.1794  0.1402
   22CHL1  H19C 1597   0.788   0.207   6.259  0.6605  0.5253 -0.3642
   22CHL1    C1 1598   0.989   0.219   6.450 -0.6445  0.2191 -0.1133
   22CHL1   H1A 1599   0.955   0.127   6.398  0.0180  0.7692 -1.5752
   22CHL1   H1B 1600   1.099   0.221   6.441 -0.7839 -0.8019 -3.6606
   22CHL1    C2 1601   0.939   0.228   6.591 -0.1805 -0.6824 -0.8329
   22CHL1   H2A 1602   0.979   0.142   6.648 -0.7421 -0.5765 -0.2755
   22CHL1   H2B 1603   0.830   0.211   6.598  0.1524 -2.0933  2.1412
   22CHL1   C20 1604   1.225   0.263   5.694  0.0987  0.3647 -0.5805
   22CHL1   H20 1605   1.147   0.313   5.633 -0.2917  0.0345 -0.3532
   22CHL1   C21 1606   1.180   0.111   5.691  0.4169  0.3528  0.0671
   22CHL1  H21A 1607   1.076   0.101   5.727  0.0211 -0.8475 -1.3114
   22CHL1  H21B 1608   1.248   0.048   5.753 -0.5491 -3.5083 -2.4311
   22CHL1  H21C 1609   1.171   0.081   5.584 -1.0729 -0.8975  0.5198
   22CHL1   C22 1610   1.368   0.279   5.630  0.6166 -0.3793  0.9980
   22CHL1  H22A 1611   1.408   0.380   5.650  0.3419 -0.1088  0.2321
   22CHL1  H22B 1612   1.440   0.203   5.667  3.2377  0.1304 -2.4758
   22CHL1   C23 1613   1.354   0.266   5.475  0.0614 -0.0810  0.3543
   22CHL1  H23A 1614   1.275   0.194   5.445 -1.6147  1.4491  0.8930
   22CHL1  H23B 1615   1.320   0.366   5.440 -0.1492 -0.2778 -0.0062
   22CHL1   C24 1616   1.484   0.236   5.411  0.4792  0.7790  0.0286
   22CHL1  H24A 1617   1.557   0.319   5.428 -1.5934  2.9385 -1.0762
   22CHL1  H24B 1618   1.527   0.150   5.466  2.5166 -0.3913 -3.0953
   22CHL1   C25 1619   1.480   0.224   5.259 -0.1546  0.7822 -0.6855
   22CHL1   H25 1620   1.426   0.135   5.220  2.2507 -1.3205  0.4854
   22CHL1   C26 1621   1.419   0.347   5.197 -0.1749  0.2801  0.2188
   22CHL1  H26A 1622   1.311   0.335   5.218  0.0672 -1.9885  0.4113
   22CHL1  H26B 1623   1.465   0.436   5.247  0.6065 -1.0072  1.8841
   22CHL1  H26C 1624   1.441   0.349   5.088  1.7702 -0.1304  0.5669
   22CHL1   C27 1625   1.632   0.222   5.217 -0.3202 -0.2747 -0.2344
   22CHL1  H27A 1626   1.701   0.306   5.237 -0.7001 -0.0200  0.0208
   22CHL1  H27B 1627   1.672   0.126   5.256 -0.4971 -0.5437 -0.7088
   22CHL1  H27C 1628   1.638   0.207   5.107  1.8962 -0.3241 -0.1516
   23CHL1    C3 1629   2.467   6.518   6.604 -0.1471  0.0384 -0.7202
   23CHL1    H3 1630   2.517   6.610   6.566 -1.1131  0.7120 -0.4037
   23CHL1    O3 1631   2.426   6.545   6.735 -0.6003 -0.7082  0.3007
   23CHL1   H3' 1632   2.391   6.460   6.760 -0.7101 -0.5073  0.8384
   23CHL1    C4 1633   2.344   6.492   6.517  0.7295 -0.4712  0.1429
   23CHL1   H4A 1634   2.282   6.413   6.564  1.9501 -1.6215 -0.1101
   23CHL1   H4B 1635   2.280   6.583   6.523  0.4756 -0.7648  3.5335
   23CHL1    C5 1636   2.380   6.449   6.382  0.4278  0.1298 -0.6274
   23CHL1    C6 1637   2.331   6.509   6.273 -0.1096  0.7072  0.9409
   23CHL1    H6 1638   2.260   6.592   6.289 -2.0347 -0.5771 -0.4678
   23CHL1    C7 1639   2.361   6.465   6.133 -1.3106  0.2033 -0.7048
   23CHL1   H7A 1640   2.264   6.467   6.080 -1.6226 -2.3252 -0.3230
   23CHL1   H7B 1641   2.440   6.531   6.090 -1.5193 -0.2897 -1.8747
   23CHL1    C8 1642   2.421   6.326   6.126 -0.3807  0.1374 -0.3371
   23CHL1    H8 1643   2.342   6.248   6.140 -0.0390 -0.0361  0.6709
   23CHL1   C14 1644   2.481   6.293   5.980 -0.2585  0.5230 -0.2961
   23CHL1   H14 1645   2.564   6.366   5.968  0.6145 -0.6685 -1.7202
   23CHL1   C15 1646   2.381   6.328   5.869 -0.0552  0.4921 -0.2085
   23CHL1  H15A 1647   2.280   6.281   5.877 -0.6961  1.4031 -2.1853
   23CHL1  H15B 1648   2.369   6.435   5.838  1.1626  0.0699 -2.3477
   23CHL1   C16 1649   2.458   6.264   5.755 -0.9542 -0.1113  0.7488
   23CHL1  H16A 1650   2.393   6.197   5.695  1.5912 -0.9263 -1.3083
   23CHL1  H16B 1651   2.498   6.345   5.690  0.4574 -1.6721 -0.4049
   23CHL1   C17 1652   2.587   6.183   5.806 -0.3167  0.0611 -0.1254
   23CHL1   H17 1653   2.676   6.249   5.806 -0.2275 -0.0520  0.7873
   23CHL1   C13 1654   2.553   6.161   5.954 -0.1089  0.9740 -0.0046
   23CHL1   C18 1655   2.443   6.050   5.959 -0.4446  0.0734  0.1425
   23CHL1  H18A 1656   2.484   5.949   5.937 -2.8955 -0.7155 -1.2493
   23CHL1  H18B 1657   2.404   6.040   6.062 -0.5102 -0.7448  0.0433
   23CHL1  H18C 1658   2.358   6.060   5.887 -1.1030  0.8828  1.0119
   23CHL1   C12 1659   2.660   6.152   6.064  0.7419  0.3467  0.1587
   23CHL1  H12A 1660   2.703   6.050   6.057 -1.3892 -0.6049  0.0261
   23CHL1  H12B 1661   2.743   6.224   6.053  0.4893  0.4231 -1.5641
   23CHL1   C11 1662   2.606   6.173   6.208  0.3349 -0.1337 -0.2747
   23CHL1  H11A 1663   2.539   6.087   6.228 -2.5838  2.0078 -0.0325
   23CHL1  H11B 1664   2.688   6.172   6.283  0.3771 -1.2017 -0.3263
   23CHL1    C9 1665   2.533   6.309   6.228  0.0065  0.0497  0.1485
   23CHL1    H9 1666   2.599   6.395   6.204  0.7470 -0.4349  0.4060
   23CHL1   C10 1667   2.477   6.330   6.372 -0.0864  0.3388  0.3820
   23CHL1   C19 1668   2.401   6.199   6.418  0.1827 -0.7059  0.3116
   23CHL1  H19A 1669   2.328   6.163   6.344  1.1168 -0.7196 -0.6262
   23CHL1  H19B 1670   2.469   6.114   6.441  0.3196 -0.7350 -0.2016
   23CHL1  H19C 1671   2.342   6.222   6.510 -0.2762  0.7199 -0.3141
   23CHL1    C1 1672   2.603   6.352   6.464  0.9721 -0.6312  0.2893
   23CHL1   H1A 1673   2.670   6.263   6.474  3.2021  0.6581 -1.9878
   23CHL1   H1B 1674   2.666   6.430   6.415 -0.8659 -0.5686 -2.1666
   23CHL1    C2 1675   2.563   6.400   6.602 -0.1946  0.4208  0.5374
   23CHL1   H2A 1676   2.648   6.418   6.671  0.6324 -0.6700 -0.1651
   23CHL1   H2B 1677   2.501   6.325   6.656 -0.9373  0.1676 -0.6269
   23CHL1   C20 1678   2.633   6.059   5.724  0.1683  0.4527  0.1558
   23CHL1   H20 1679   2.555   5.981   5.737 -1.2197  1.8794  0.6163
   23CHL1   C21 1680   2.765   6.006   5.783  0.3716 -0.3044 -0.0692
   23CHL1  H21A 1681   2.732   5.965   5.880  1.0376 -0.8371 -0.0629
   23CHL1  H21B 1682   2.839   6.087   5.799  0.4319 -0.1321 -1.1070
   23CHL1  H21C 1683   2.798   5.914   5.731 -0.4015 -0.9117  0.4937
   23CHL1   C22 1684   2.641   6.094   5.573 -0.2340 -0.1317 -0.4925
   23CHL1  H22A 1685   2.543   6.140   5.550  0.0357  2.3679  2.5957
   23CHL1  H22B 1686   2.719   6.171   5.558 -0.0877 -0.1731  0.0268
   23CHL1   C23 1687   2.672   5.984   5.474  0.2127  0.4122  0.2814
   23CHL1  H23A 1688   2.782   5.971   5.473  0.1321 -0.4302 -1.5204
   23CHL1  H23B 1689   2.606   5.902   5.507  1.2656 -0.6934 -0.2643
   23CHL1   C24 1690   2.626   6.021   5.327  0.2285  0.2984 -0.4256
   23CHL1  H24A 1691   2.528   6.073   5.331 -0.6344 -1.3117  0.5747
   23CHL1  H24B 1692   2.700   6.090   5.281  1.3396 -0.3847  0.2750
   23CHL1   C25 1693   2.603   5.916   5.224  0.0578  0.9290  0.3172
   23CHL1   H25 1694   2.515   5.855   5.254 -0.2372  0.4722 -1.3732
   23CHL1   C26 1695   2.551   5.978   5.097  0.1735 -0.3560 -0.1466
   23CHL1  H26A 1696   2.483   5.914   5.037  1.0665 -1.6583  0.1632
   23CHL1  H26B 1697   2.495   6.069   5.127  0.7836  0.5181 -1.5419
   23CHL1  H26C 1698   2.637   6.005   5.032  0.3790 -2.9017 -1.0328
   23CHL1   C27 1699   2.717   5.828   5.210 -0.4023 -0.1541 -0.0755
   23CHL1  H27A 1700   2.696   5.754   5.129 -2.7411  0.8211 -0.4500
   23CHL1  H27B 1701   2.813   5.881   5.195 -1.6353  2.2006 -0.0694
   23CHL1  H27C 1702   2.733   5.774   5.306  3.6109  1.2296  0.2021
   24CHL1    C3 1703   5.143   3.848   6.644  0.2139  0.4640  0.3093
   24CHL1    H3 1704   5.244   3.895   6.642  0.2625  0.3936  0.9273
   24CHL1    O3 1705   5.113   3.787   6.766 -0.1663 -0.5414 -0.3105
   24CHL1   H3' 1706   5.018   3.794   6.767 -0.1560  1.3048 -2.7748
   24CHL1    C4 1707   5.043   3.967   6.627  1.0486 -0.0657  0.3295
   24CHL1   H4A 1708   4.943   3.928   6.657  1.3451 -1.7974 -0.7401
   24CHL1   H4B 1709   5.071   4.048   6.698  1.3986 -0.8661  1.1218
   24CHL1    C5 1710   5.032   4.023   6.490 -0.1438  0.2022  1.2325
   24CHL1    C6 1711   5.031   4.154   6.478 -0.1546  0.8146  0.1217
   24CHL1    H6 1712   5.034   4.219   6.567  0.5949  1.5239 -0.4002
   24CHL1    C7 1713   5.024   4.217   6.337 -0.2519 -0.0872 -0.8444
   24CHL1   H7A 1714   4.968   4.313   6.337  1.1947  0.7951 -0.7840
   24CHL1   H7B 1715   5.130   4.242   6.314  0.1333 -0.8497  0.0171
   24CHL1    C8 1716   4.976   4.121   6.224 -0.8220  0.0013  0.3173
   24CHL1    H8 1717   4.867   4.109   6.243 -1.2627  0.6144 -1.5876
   24CHL1   C14 1718   4.998   4.185   6.081  0.3982 -0.4033  0.0044
   24CHL1   H14 1719   5.109   4.187   6.068  0.1633 -0.9541 -2.4174
   24CHL1   C15 1720   4.940   4.327   6.057 -0.8591 -0.4380 -0.3425
   24CHL1  H15A 1721   4.842   4.343   6.106 -0.6691  0.8230 -0.3258
   24CHL1  H15B 1722   5.006   4.401   6.107  0.0355 -1.0194 -0.6472
   24CHL1   C16 1723   4.939   4.352   5.904  0.3521  0.5768  0.5350
   24CHL1  H16A 1724   4.837   4.384   5.875  1.3979  0.6116 -3.9133
   24CHL1  H16B 1725   5.005   4.438   5.878 -0.3632  1.2037  0.7776
   24CHL1   C17 1726   4.974   4.201   5.836  0.5877  0.6482  0.5236
   24CHL1   H17 1727   5.081   4.195   5.808  0.8379  0.9636  1.3649
   24CHL1   C13 1728   4.951   4.102   5.960 -0.2387 -0.4680  0.5519
   24CHL1   C18 1729   4.799   4.084   5.976  0.1947 -0.2779  0.6441
   24CHL1  H18A 1730   4.738   4.176   5.963 -0.2391 -0.6728 -0.2042
   24CHL1  H18B 1731   4.763   4.004   5.907  0.4128  0.6526 -0.5655
   24CHL1  H18C 1732   4.778   4.053   6.080 -1.6679  0.7187  0.5987
   24CHL1   C12 1733   5.026   3.968   5.974  0.3154 -0.4970  0.5840
   24CHL1  H12A 1734   4.983   3.902   5.896  2.0885 -0.5037 -0.4457
   24CHL1  H12B 1735   5.132   3.991   5.950  0.0045 -0.3984 -0.7900
   24CHL1   C11 1736   5.018   3.894   6.104  0.4342 -0.4819  0.2220
   24CHL1  H11A 1737   4.915   3.854   6.112 -0.3545  1.5401  0.8756
   24CHL1  H11B 1738   5.084   3.806   6.119  0.1090 -0.5521  1.3598
   24CHL1    C9 1739   5.038   3.984   6.231 -0.1536 -0.7781  0.0852
   24CHL1    H9 1740   5.147   4.005   6.228 -0.5954  1.9881 -3.2237
   24CHL1   C10 1741   5.025   3.922   6.370  0.0136  0.2782 -0.3696
   24CHL1   C19 1742   4.883   3.853   6.375 -1.1259  0.6767 -0.1287
   24CHL1  H19A 1743   4.836   3.838   6.474  2.1058  0.8746  1.5678
   24CHL1  H19B 1744   4.816   3.909   6.306 -0.5741  0.9801 -0.4356
   24CHL1  H19C 1745   4.890   3.748   6.341 -1.0876  0.9455 -0.9746
   24CHL1    C1 1746   5.134   3.814   6.395  0.3926  0.2879  0.2227
   24CHL1   H1A 1747   5.129   3.734   6.318  0.1085 -0.5424  1.1044
   24CHL1   H1B 1748   5.233   3.865   6.393 -0.2041  1.6451  2.0162
   24CHL1    C2 1749   5.136   3.740   6.535  0.2187  0.0475  0.4367
   24CHL1   H2A 1750   5.219   3.666   6.537 -2.8129 -3.5794  0.7495
   24CHL1   H2B 1751   5.046   3.676   6.542  0.7246 -0.4935  4.0890
   24CHL1   C20 1752   4.893   4.180   5.704  0.2282 -0.0297 -0.8127
   24CHL1   H20 1753   4.783   4.183   5.722 -0.0340  1.7114 -2.3812
   24CHL1   C21 1754   4.931   4.043   5.655 -0.0642  0.1546 -0.1120
   24CHL1  H21A 1755   5.032   4.016   5.691  0.0478  0.7472  0.0375
   24CHL1  H21B 1756   4.920   4.026   5.546 -2.6117  0.0479  0.0928
   24CHL1  H21C 1757   4.863   3.968   5.701 -0.0922  1.5546  2.3012
   24CHL1   C22 1758   4.917   4.289   5.598  0.0756  0.4097 -0.1120
   24CHL1  H22A 1759   4.880   4.382   5.646 -0.9148 -0.2779  0.4941
   24CHL1  H22B 1760   5.027   4.295   5.584  0.0453 -1.0504 -1.1535
   24CHL1   C23 1761   4.837   4.269   5.475  0.6114  0.3015 -0.2645
   24CHL1  H23A 1762   4.874   4.173   5.433 -0.4920  0.3311 -1.3653
   24CHL1  H23B 1763   4.728   4.262   5.496  0.1688  0.5309 -2.2610
   24CHL1   C24 1764   4.850   4.382   5.366  0.0851  0.6518 -0.2283
   24CHL1  H24A 1765   4.808   4.478   5.403 -2.5794 -0.6768  0.4574
   24CHL1  H24B 1766   4.955   4.405   5.342  1.1970 -0.0662  3.3349
   24CHL1   C25 1767   4.783   4.342   5.228  0.2063  0.4181 -0.5269
   24CHL1   H25 1768   4.677   4.322   5.256  0.2577  2.8463  1.8212
   24CHL1   C26 1769   4.794   4.462   5.134 -0.5965 -0.0741  0.5808
   24CHL1  H26A 1770   4.752   4.432   5.036  0.8428  1.5295 -0.6010
   24CHL1  H26B 1771   4.740   4.549   5.178 -0.6169 -0.6680  1.7942
   24CHL1  H26C 1772   4.898   4.497   5.113 -0.9635  1.6703  1.4347
   24CHL1   C27 1773   4.841   4.212   5.173 -0.2369  0.2102  0.7820
   24CHL1  H27A 1774   4.833   4.126   5.243 -2.0063 -1.5946 -1.4953
   24CHL1  H27B 1775   4.807   4.180   5.073  1.8268  0.4560 -0.0512
   24CHL1  H27C 1776   4.951   4.227   5.161 -0.3412  1.0334  0.7908
   25CHL1    C3 1777   6.612   5.143   6.421 -0.3240  0.3706  0.5320
   25CHL1    H3 1778   6.702   5.081   6.440  0.1968  0.7765 -0.5136
   25CHL1    O3 1779   6.583   5.189   6.555 -0.0927 -0.0307  0.2377
   25CHL1   H3' 1780   6.549   5.113   6.604  2.0716 -1.5952 -0.5125
   25CHL1    C4 1781   6.640   5.267   6.329 -0.0903  0.4088  0.2627
   25CHL1   H4A 1782   6.561   5.345   6.341  1.3576  2.0513 -0.3921
   25CHL1   H4B 1783   6.726   5.317   6.378 -0.1550 -0.0140  0.8129
   25CHL1    C5 1784   6.660   5.231   6.186  0.1374 -0.2684  0.8525
   25CHL1    C6 1785   6.773   5.255   6.117 -0.6374  0.0035  0.3152
   25CHL1    H6 1786   6.850   5.310   6.173 -1.0522  2.6858 -1.5563
   25CHL1    C7 1787   6.780   5.240   5.967  0.2733 -0.1852 -0.3242
   25CHL1   H7A 1788   6.823   5.331   5.921  0.6990  0.0400  0.5108
   25CHL1   H7B 1789   6.848   5.155   5.944  1.9977  0.9091  0.5247
   25CHL1    C8 1790   6.641   5.226   5.904  0.0812  0.1871 -0.5286
   25CHL1    H8 1791   6.578   5.317   5.901 -1.0283 -0.5474 -0.3320
   25CHL1   C14 1792   6.646   5.177   5.765 -0.1548 -0.1985 -0.3631
   25CHL1   H14 1793   6.719   5.093   5.770  0.2675  0.1828 -0.0384
   25CHL1   C15 1794   6.703   5.280   5.665 -0.4751 -0.1351 -0.3799
   25CHL1  H15A 1795   6.647   5.376   5.674  2.0377  1.1705  3.3330
   25CHL1  H15B 1796   6.809   5.296   5.691  0.0562  1.5699 -3.1435
   25CHL1   C16 1797   6.676   5.211   5.527  0.5155  0.1763  0.1841
   25CHL1  H16A 1798   6.646   5.299   5.464  0.6011 -1.0821 -1.7041
   25CHL1  H16B 1799   6.768   5.163   5.489  0.0892 -0.3710 -0.1740
   25CHL1   C17 1800   6.566   5.100   5.552 -0.0284  0.0160  0.0595
   25CHL1   H17 1801   6.629   5.009   5.548 -2.4528 -1.7386 -2.3445
   25CHL1   C13 1802   6.517   5.121   5.695  1.3864  0.1268  0.0630
   25CHL1   C18 1803   6.410   5.241   5.686 -0.7070 -0.6015  0.3517
   25CHL1  H18A 1804   6.397   5.282   5.788  0.0915 -1.0590  0.6454
   25CHL1  H18B 1805   6.447   5.314   5.611  0.2595 -1.3252  0.1108
   25CHL1  H18C 1806   6.315   5.198   5.647  0.4611 -2.4047 -0.6356
   25CHL1   C12 1807   6.460   5.008   5.767  0.1969  0.0718  0.7790
   25CHL1  H12A 1808   6.365   4.980   5.715  0.0841 -2.0189  1.9929
   25CHL1  H12B 1809   6.531   4.922   5.761 -0.1415 -0.1287 -1.7884
   25CHL1   C11 1810   6.436   5.046   5.915  0.2327  0.5246 -0.4209
   25CHL1  H11A 1811   6.346   5.109   5.931  1.3340  2.2103 -0.6006
   25CHL1  H11B 1812   6.417   4.952   5.970 -1.4723  0.9722 -0.2080
   25CHL1    C9 1813   6.561   5.119   5.984  0.1531  0.1511  0.0039
   25CHL1    H9 1814   6.630   5.032   5.987  1.8252  1.2257 -2.9892
   25CHL1   C10 1815   6.536   5.160   6.123 -0.3715 -0.2893 -0.8302
   25CHL1   C19 1816   6.417   5.269   6.128 -0.3361 -0.4035  0.4985
   25CHL1  H19A 1817   6.326   5.229   6.079 -0.2162  1.1774 -1.1403
   25CHL1  H19B 1818   6.398   5.291   6.235  1.1314  2.2621  0.3183
   25CHL1  H19C 1819   6.447   5.362   6.075 -1.4173 -0.8398 -0.9319
   25CHL1    C1 1820   6.499   5.035   6.216  0.2404 -0.7928 -0.0525
   25CHL1   H1A 1821   6.401   4.999   6.178  0.2256 -1.2059  0.3714
   25CHL1   H1B 1822   6.581   4.960   6.208  1.0182 -0.3721  2.8502
   25CHL1    C2 1823   6.493   5.065   6.364 -0.3401  0.5261 -0.8684
   25CHL1   H2A 1824   6.499   4.970   6.422 -1.1063  1.1623  0.3114
   25CHL1   H2B 1825   6.397   5.112   6.395 -1.2155 -2.3010  1.2126
   25CHL1   C20 1826   6.474   5.068   5.427  0.0440  0.0069 -0.4135
   25CHL1   H20 1827   6.408   5.152   5.395  0.1256  0.8287  1.4709
   25CHL1   C21 1828   6.391   4.951   5.473 -0.4955 -0.3223 -0.5829
   25CHL1  H21A 1829   6.451   4.880   5.534  0.9840  0.5111 -1.0102
   25CHL1  H21B 1830   6.355   4.890   5.388 -1.6053  2.1559 -2.0013
   25CHL1  H21C 1831   6.299   4.979   5.528  1.2624 -1.4443  3.2607
   25CHL1   C22 1832   6.561   5.027   5.303 -0.2138  0.7170  0.0309
   25CHL1  H22A 1833   6.647   5.097   5.301  1.7068 -1.4703  1.1636
   25CHL1  H22B 1834   6.600   4.923   5.311  1.3814  1.3709  1.1312
   25CHL1   C23 1835   6.487   5.043   5.164 -0.1799 -0.1955  0.3659
   25CHL1  H23A 1836   6.406   4.968   5.175  1.3089 -2.0969 -0.9297
   25CHL1  H23B 1837   6.456   5.148   5.146  0.8017  0.1449  0.5942
   25CHL1   C24 1838   6.570   4.986   5.048  0.3333  0.0476 -0.0312
   25CHL1  H24A 1839   6.596   5.066   4.975 -3.3588 -0.6341 -2.3739
   25CHL1  H24B 1840   6.659   4.942   5.098  2.2872  2.3818 -1.2023
   25CHL1   C25 1841   6.481   4.890   4.969 -0.6679 -0.5742 -0.0091
   25CHL1   H25 1842   6.430   4.829   5.047 -2.8792  0.1527 -0.8178
   25CHL1   C26 1843   6.382   4.964   4.880 -0.2243 -0.0440  0.2638
   25CHL1  H26A 1844   6.432   5.028   4.804 -0.4106 -0.3533 -0.1217
   25CHL1  H26B 1845   6.312   4.891   4.835  0.2951  0.5080 -1.5260
   25CHL1  H26C 1846   6.320   5.018   4.955 -0.5261 -3.1530  2.4092
   25CHL1   C27 1847   6.565   4.786   4.886 -0.5813  0.2556 -0.1361
   25CHL1  H27A 1848   6.620   4.825   4.798 -0.8654  0.8956 -0.0329
   25CHL1  H27B 1849   6.630   4.724   4.952 -1.6591  0.8190  1.5267
   25CHL1  H27C 1850   6.495   4.711   4.843 -1.2539  0.5494  0.4144
   26CHL1    C3 1851   4.666   2.395   6.543  0.2117  0.5073 -0.4051
   26CHL1    H3 1852   4.565   2.372   6.502  1.4740 -0.5684 -3.1551
   26CHL1    O3 1853   4.667   2.429   6.680 -0.2302 -0.1659 -0.1961
   26CHL1   H3' 1854   4.757   2.458   6.695  0.3896 -1.7102 -0.7918
   26CHL1    C4 1855   4.755   2.267   6.520 -0.0874 -0.8912  0.1115
   26CHL1   H4A 1856   4.855   2.303   6.551 -0.5905  0.5898  0.1284
   26CHL1   H4B 1857   4.705   2.185   6.575  1.1505 -1.8155 -0.1109
   26CHL1    C5 1858   4.752   2.239   6.370 -0.5900 -0.5874  0.0855
   26CHL1    C6 1859   4.726   2.119   6.327 -0.2580  0.8204  0.9908
   26CHL1    H6 1860   4.720   2.033   6.394  2.9936  0.7932  1.3893
   26CHL1    C7 1861   4.725   2.073   6.179 -0.4112  0.2103 -0.1594
   26CHL1   H7A 1862   4.796   1.988   6.184  1.1314  1.5164  1.2484
   26CHL1   H7B 1863   4.625   2.044   6.140 -0.0586 -0.9517 -0.2307
   26CHL1    C8 1864   4.784   2.179   6.091 -0.3611  0.1017 -0.4342
   26CHL1    H8 1865   4.893   2.164   6.107 -0.0667  1.0780 -1.4401
   26CHL1   C14 1866   4.750   2.164   5.944  0.4729 -0.5157 -0.1776
   26CHL1   H14 1867   4.641   2.184   5.955  0.4457  0.1546 -1.4878
   26CHL1   C15 1868   4.752   2.029   5.889 -0.0273  0.6523  0.0579
   26CHL1  H15A 1869   4.839   1.963   5.907  0.1218  0.7524 -0.2840
   26CHL1  H15B 1870   4.665   1.970   5.924 -0.9853  0.4582 -2.4486
   26CHL1   C16 1871   4.728   2.042   5.740 -0.2775  0.3003 -0.1700
   26CHL1  H16A 1872   4.823   2.006   5.694  0.5198  0.7532  1.0973
   26CHL1  H16B 1873   4.643   1.975   5.711  0.4736 -0.3132 -0.9992
   26CHL1   C17 1874   4.711   2.193   5.720 -0.0112  0.0616 -0.6359
   26CHL1   H17 1875   4.605   2.224   5.733 -0.0153 -0.6320  1.2863
   26CHL1   C13 1876   4.791   2.254   5.836 -1.1517  0.3231 -0.5230
   26CHL1   C18 1877   4.940   2.241   5.815 -0.2487 -0.0979 -0.0489
   26CHL1  H18A 1878   4.983   2.139   5.806 -1.2527 -0.5341 -0.1391
   26CHL1  H18B 1879   4.966   2.301   5.726  1.0805  0.0068  0.3926
   26CHL1  H18C 1880   4.992   2.293   5.898  0.3041  0.1611 -0.5543
   26CHL1   C12 1881   4.750   2.398   5.879  0.2853 -0.3551  0.1559
   26CHL1  H12A 1882   4.792   2.480   5.817  0.4202  2.0697  3.1855
   26CHL1  H12B 1883   4.639   2.404   5.878  0.2727 -0.6451 -1.2625
   26CHL1   C11 1884   4.802   2.427   6.024 -0.8183  0.2949  0.0987
   26CHL1  H11A 1885   4.913   2.431   6.026 -0.7813  1.2263 -1.4378
   26CHL1  H11B 1886   4.765   2.527   6.056 -0.0483 -0.0264  2.1155
   26CHL1    C9 1887   4.754   2.326   6.135  1.0343 -0.0150  0.5963
   26CHL1    H9 1888   4.644   2.318   6.118  1.3771 -2.5451 -0.9923
   26CHL1   C10 1889   4.789   2.353   6.276  0.0143 -0.2807 -0.7471
   26CHL1   C19 1890   4.944   2.378   6.284  0.2674  0.1452 -0.3125
   26CHL1  H19A 1891   5.002   2.308   6.221  0.1411 -0.1816 -0.0701
   26CHL1  H19B 1892   4.968   2.478   6.242 -1.4431  1.0246  0.6719
   26CHL1  H19C 1893   4.977   2.373   6.390 -1.3771 -0.4097  0.2108
   26CHL1    C1 1894   4.719   2.483   6.317  0.3667 -0.0297 -0.5571
   26CHL1   H1A 1895   4.758   2.573   6.265  1.0055 -1.2757 -2.3739
   26CHL1   H1B 1896   4.611   2.480   6.292  0.5533 -1.1617 -1.3255
   26CHL1    C2 1897   4.726   2.517   6.469 -0.3362  0.2233 -0.1423
   26CHL1   H2A 1898   4.675   2.606   6.512 -0.2170  0.2345 -0.0232
   26CHL1   H2B 1899   4.834   2.531   6.489  0.3465 -1.1911 -2.4815
   26CHL1   C20 1900   4.735   2.236   5.573 -1.1035  0.4127  0.3277
   26CHL1   H20 1901   4.835   2.212   5.532 -1.1525 -0.9239  0.9402
   26CHL1   C21 1902   4.719   2.393   5.561 -0.5126  0.5040  0.5656
   26CHL1  H21A 1903   4.732   2.423   5.456 -1.8768 -0.1901  0.1628
   26CHL1  H21B 1904   4.801   2.440   5.619 -0.8325  2.2602 -0.3536
   26CHL1  H21C 1905   4.625   2.440   5.599  0.4767  2.8314  0.2773
   26CHL1   C22 1906   4.634   2.169   5.478 -0.8961  0.5263  0.2089
   26CHL1  H22A 1907   4.624   2.058   5.484 -1.1772  0.5253 -0.2183
   26CHL1  H22B 1908   4.532   2.206   5.499 -0.3955  1.0116  1.9111
   26CHL1   C23 1909   4.665   2.187   5.330  0.3428 -0.2677  0.1372
   26CHL1  H23A 1910   4.572   2.163   5.275 -0.7428 -1.4854  2.3377
   26CHL1  H23B 1911   4.694   2.292   5.311 -0.8066  0.3676  1.6570
   26CHL1   C24 1912   4.776   2.094   5.270  0.9439 -0.3450 -0.2066
   26CHL1  H24A 1913   4.868   2.106   5.332 -0.7244 -0.1857  2.3435
   26CHL1  H24B 1914   4.729   1.993   5.272 -1.5562  0.7533  1.4306
   26CHL1   C25 1915   4.800   2.122   5.120 -0.5845  0.4909 -0.0228
   26CHL1   H25 1916   4.701   2.105   5.074 -0.2416 -2.9256  0.2448
   26CHL1   C26 1917   4.843   2.267   5.094 -0.7043  0.4092 -0.5208
   26CHL1  H26A 1918   4.766   2.340   5.126  0.3177  1.4465 -0.3621
   26CHL1  H26B 1919   4.940   2.301   5.136 -0.1583 -0.7818 -0.7720
   26CHL1  H26C 1920   4.846   2.285   4.984 -2.3851 -1.5988 -0.9508
   26CHL1   C27 1921   4.896   2.021   5.058 -0.1900  0.2250  0.3293
   26CHL1  H27A 1922   5.000   2.052   5.083  0.3126 -0.6920 -0.5755
   26CHL1  H27B 1923   4.884   1.916   5.090  0.4288  0.0749  0.0797
   26CHL1  H27C 1924   4.866   2.020   4.951 -0.9464  0.9388  0.5192
   27CHL1    C3 1925   4.236   3.336   3.474  0.1635  1.0129  0.5141
   27CHL1    H3 1926   4.135   3.376   3.496 -0.6610  0.3996 -1.8695
   27CHL1    O3 1927   4.219   3.263   3.356 -0.6334  0.0367 -0.2624
   27CHL1   H3' 1928   4.276   3.186   3.353  1.8747  1.7989 -0.6389
   27CHL1    C4 1929   4.337   3.443   3.443  0.5372 -0.3220  0.2335
   27CHL1   H4A 1930   4.426   3.401   3.393  0.2615 -0.1047 -0.4508
   27CHL1   H4B 1931   4.289   3.512   3.371  0.4132  0.9347  1.4728
   27CHL1    C5 1932   4.385   3.518   3.565 -0.3972 -0.0457 -0.2671
   27CHL1    C6 1933   4.377   3.649   3.567 -0.1634  0.3712 -0.0951
   27CHL1    H6 1934   4.349   3.716   3.484  0.1211  0.5137 -0.0773
   27CHL1    C7 1935   4.414   3.737   3.684 -0.5018  0.0383  0.0572
   27CHL1   H7A 1936   4.469   3.828   3.653  0.6382 -0.7606 -0.3241
   27CHL1   H7B 1937   4.321   3.769   3.737  0.7143  0.4659  2.0501
   27CHL1    C8 1938   4.495   3.661   3.788 -0.0554  0.1600 -0.2062
   27CHL1    H8 1939   4.600   3.655   3.751  0.1719  1.4747  0.1727
   27CHL1   C14 1940   4.474   3.738   3.917 -0.1016  0.4796 -0.3538
   27CHL1   H14 1941   4.366   3.743   3.942  0.5541  2.3697  2.6687
   27CHL1   C15 1942   4.498   3.887   3.900 -0.2553  0.2160 -0.2305
   27CHL1  H15A 1943   4.588   3.900   3.836 -0.7764 -0.1139 -1.0507
   27CHL1  H15B 1944   4.418   3.952   3.857  0.2677  0.5420 -0.7270
   27CHL1   C16 1945   4.530   3.935   4.041  0.3240 -1.1999  0.0660
   27CHL1  H16A 1946   4.634   3.972   4.053  0.6538 -2.2713  0.6775
   27CHL1  H16B 1947   4.463   4.017   4.076 -1.0566 -1.9519 -0.7478
   27CHL1   C17 1948   4.525   3.806   4.127  0.8623  0.2052 -0.4950
   27CHL1   H17 1949   4.418   3.797   4.156  1.2484  0.1268  1.0083
   27CHL1   C13 1950   4.553   3.692   4.036 -0.8442 -0.2708  0.4915
   27CHL1   C18 1951   4.708   3.690   4.019 -0.0385 -1.0623 -0.0122
   27CHL1  H18A 1952   4.748   3.622   3.940  0.0841 -0.5123 -0.4320
   27CHL1  H18B 1953   4.748   3.791   3.997  1.2310 -1.2673  1.1811
   27CHL1  H18C 1954   4.749   3.665   4.119  0.7039 -2.7057 -0.6786
   27CHL1   C12 1955   4.504   3.549   4.070  0.2150 -0.2439  0.0563
   27CHL1  H12A 1956   4.565   3.492   4.144  0.1077  0.2316  0.5181
   27CHL1  H12B 1957   4.398   3.550   4.104  0.3679 -1.5973  0.6133
   27CHL1   C11 1958   4.500   3.456   3.942  0.2832 -0.5783  0.6608
   27CHL1  H11A 1959   4.603   3.434   3.908  0.0774  1.1882 -1.4066
   27CHL1  H11B 1960   4.443   3.363   3.962 -0.2410 -0.4078  0.0186
   27CHL1    C9 1961   4.439   3.522   3.821  0.6967  0.0822  0.4205
   27CHL1    H9 1962   4.336   3.538   3.859  0.9649 -0.3621  1.3826
   27CHL1   C10 1963   4.423   3.435   3.687  0.7394 -0.2987 -0.0799
   27CHL1   C19 1964   4.564   3.377   3.661 -0.2170  0.3148 -0.4180
   27CHL1  H19A 1965   4.573   3.314   3.570 -3.2867 -2.8312  1.2085
   27CHL1  H19B 1966   4.634   3.463   3.649 -1.4428  1.2186 -1.3007
   27CHL1  H19C 1967   4.594   3.316   3.748  1.0813  1.7153  0.1758
   27CHL1    C1 1968   4.317   3.325   3.710  0.9822 -0.9835 -0.1066
   27CHL1   H1A 1969   4.346   3.267   3.800  1.0319  1.7090  1.7035
   27CHL1   H1B 1970   4.219   3.369   3.740  1.3175  0.8222 -1.5123
   27CHL1    C2 1971   4.279   3.235   3.589  0.2834 -0.2799 -0.6097
   27CHL1   H2A 1972   4.196   3.167   3.616  1.5237 -0.3371  3.7486
   27CHL1   H2B 1973   4.372   3.185   3.556  0.3261 -0.9062  0.4347
   27CHL1   C20 1974   4.601   3.825   4.263  0.4579 -0.3578 -1.0672
   27CHL1   H20 1975   4.706   3.835   4.229  0.8199 -3.0349 -0.9520
   27CHL1   C21 1976   4.577   3.693   4.345 -0.1585  0.1187  0.1124
   27CHL1  H21A 1977   4.590   3.707   4.455 -0.3222  0.0085  0.1459
   27CHL1  H21B 1978   4.641   3.610   4.307 -0.3780  0.1066 -0.2311
   27CHL1  H21C 1979   4.471   3.665   4.333  0.1377 -1.2539  0.5498
   27CHL1   C22 1980   4.560   3.949   4.343  0.8093  0.0027  0.0716
   27CHL1  H22A 1981   4.570   4.037   4.275 -0.5767 -0.8744 -1.3183
   27CHL1  H22B 1982   4.457   3.946   4.386  1.1518  2.0197  1.1965
   27CHL1   C23 1983   4.660   3.978   4.457 -0.7241 -0.5619 -0.2229
   27CHL1  H23A 1984   4.653   3.904   4.540 -0.4759 -0.7521 -0.3730
   27CHL1  H23B 1985   4.757   3.967   4.405 -0.9308  0.3566 -0.8298
   27CHL1   C24 1986   4.664   4.120   4.507 -0.0527 -0.1285  0.0324
   27CHL1  H24A 1987   4.755   4.132   4.570  0.3793 -0.0969 -0.5909
   27CHL1  H24B 1988   4.674   4.184   4.417 -1.5155  1.2112  0.7610
   27CHL1   C25 1989   4.544   4.165   4.592  0.2602 -0.0103 -0.3015
   27CHL1   H25 1990   4.455   4.115   4.549  0.4924 -0.2192 -0.5397
   27CHL1   C26 1991   4.542   4.118   4.742  0.5269  0.4696  0.1122
   27CHL1  H26A 1992   4.447   4.150   4.789 -0.0483  0.4898 -1.0150
   27CHL1  H26B 1993   4.532   4.008   4.733  1.5318  0.4560 -1.2186
   27CHL1  H26C 1994   4.636   4.148   4.793  0.8880 -0.1508 -0.1831
   27CHL1   C27 1995   4.526   4.315   4.572  0.1345 -0.1756  0.3991
   27CHL1  H27A 1996   4.444   4.347   4.639 -0.8079 -1.0082 -0.3241
   27CHL1  H27B 1997   4.624   4.362   4.598  0.2964  1.5123 -2.7393
   27CHL1  H27C 1998   4.504   4.348   4.468 -0.4788 -3.4499 -0.6133
   28CHL1    C3 1999   2.207   4.359   3.278 -0.8180 -0.2340 -0.4181
   28CHL1    H3 2000   2.243   4.455   3.319 -0.6544 -0.4314 -0.0939
   28CHL1    O3 2001   2.250   4.343   3.142 -0.1645 -0.0796 -0.1192
   28CHL1   H3' 2002   2.344   4.360   3.149 -0.3020  0.0368  2.8272
   28CHL1    C4 2003   2.274   4.245   3.351  0.3010  0.3292  0.3379
   28CHL1   H4A 2004   2.234   4.148   3.315 -1.6235  0.1158  2.7602
   28CHL1   H4B 2005   2.383   4.254   3.333  0.0705  1.0410 -0.7859
   28CHL1    C5 2006   2.248   4.259   3.499 -0.1195  0.6888 -0.8613
   28CHL1    C6 2007   2.345   4.267   3.587 -0.3512 -0.4427  0.3692
   28CHL1    H6 2008   2.448   4.272   3.547 -1.0595 -2.1875 -1.9390
   28CHL1    C7 2009   2.316   4.280   3.728 -0.3598 -0.7525 -0.2091
   28CHL1   H7A 2010   2.394   4.227   3.788  0.1633  1.5520  1.2676
   28CHL1   H7B 2011   2.325   4.388   3.750  1.8020 -0.8326 -0.4019
   28CHL1    C8 2012   2.182   4.227   3.765  0.5088  0.5903  0.1206
   28CHL1    H8 2013   2.183   4.116   3.766  1.2440  0.5755  1.7252
   28CHL1   C14 2014   2.148   4.252   3.904 -0.3376 -0.5985 -0.3882
   28CHL1   H14 2015   2.140   4.362   3.921  1.1961 -0.3635 -0.9918
   28CHL1   C15 2016   2.257   4.215   4.009  0.4118  0.4072 -0.1906
   28CHL1  H15A 2017   2.297   4.111   4.007 -0.9002 -0.1037 -1.6440
   28CHL1  H15B 2018   2.346   4.281   4.013  1.9787 -1.6728  2.6369
   28CHL1   C16 2019   2.175   4.213   4.144 -0.2304  0.0874 -0.0207
   28CHL1  H16A 2020   2.204   4.118   4.193 -0.4799 -0.5054 -0.9926
   28CHL1  H16B 2021   2.191   4.295   4.217 -0.8711  1.1254 -1.0145
   28CHL1   C17 2022   2.028   4.225   4.113  0.3632  0.0907  0.0912
   28CHL1   H17 2023   2.003   4.333   4.112 -0.7382 -0.1493 -1.0581
   28CHL1   C13 2024   2.011   4.194   3.964 -0.2768 -0.2598 -0.1286
   28CHL1   C18 2025   2.010   4.043   3.963  0.3842  0.5610  0.3172
   28CHL1  H18A 2026   2.073   3.993   4.041 -0.3356  2.3187  2.1057
   28CHL1  H18B 2027   1.908   4.004   3.982  0.7311 -0.1965  0.6771
   28CHL1  H18C 2028   2.037   4.016   3.859 -0.2687  0.5387  0.1532
   28CHL1   C12 2029   1.896   4.258   3.878 -0.1309 -0.0237 -0.3350
   28CHL1  H12A 2030   1.797   4.210   3.895  0.0174  0.4854  2.3980
   28CHL1  H12B 2031   1.893   4.368   3.894  2.7370 -0.1062  1.6152
   28CHL1   C11 2032   1.929   4.232   3.730  0.6332 -0.3464  0.2542
   28CHL1  H11A 2033   1.912   4.125   3.704 -0.1743 -0.0870 -0.3614
   28CHL1  H11B 2034   1.861   4.293   3.666  0.7257 -2.2976 -1.8682
   28CHL1    C9 2035   2.067   4.270   3.675  0.1381 -0.1525 -0.5617
   28CHL1    H9 2036   2.067   4.381   3.677 -0.4571 -0.1498  1.1407
   28CHL1   C10 2037   2.097   4.249   3.531 -0.3354 -0.0179 -0.6042
   28CHL1   C19 2038   2.051   4.105   3.492 -0.2189  0.1469  0.4421
   28CHL1  H19A 2039   2.101   4.028   3.555 -0.9333 -0.7895 -0.1062
   28CHL1  H19B 2040   1.942   4.111   3.515  0.4383  1.7131  3.8864
   28CHL1  H19C 2041   2.064   4.081   3.385 -1.3389  1.5295 -0.0309
   28CHL1    C1 2042   2.022   4.364   3.446  0.4619  0.1394  0.1937
   28CHL1   H1A 2043   1.914   4.349   3.464  0.6795 -1.8204  0.1638
   28CHL1   H1B 2044   2.066   4.462   3.475  3.0011  0.5386 -4.1896
   28CHL1    C2 2045   2.059   4.355   3.298  0.4112  0.6508 -0.3376
   28CHL1   H2A 2046   2.012   4.438   3.241  0.5677  0.6818 -0.4212
   28CHL1   H2B 2047   2.024   4.262   3.249 -0.7927  1.3182 -0.7680
   28CHL1   C20 2048   1.941   4.154   4.219  0.1245  0.2333  0.0634
   28CHL1   H20 2049   1.969   4.047   4.207 -0.2988 -0.1642  2.3089
   28CHL1   C21 2050   1.797   4.190   4.186 -0.4910 -0.3613  0.3244
   28CHL1  H21A 2051   1.762   4.143   4.092  2.4858 -2.0288 -0.0422
   28CHL1  H21B 2052   1.782   4.299   4.172 -0.4450 -0.3243  0.5592
   28CHL1  H21C 2053   1.726   4.168   4.269  0.1683  2.4151  1.7422
   28CHL1   C22 2054   1.972   4.184   4.360 -0.1008  0.0835 -0.3560
   28CHL1  H22A 2055   2.081   4.169   4.378  0.8067  2.4715 -2.9653
   28CHL1  H22B 2056   1.954   4.289   4.392 -0.1254 -0.6865  2.3636
   28CHL1   C23 2057   1.896   4.099   4.462 -0.1736 -0.5107 -0.3920
   28CHL1  H23A 2058   1.789   4.099   4.432 -0.2326  1.5656 -0.3624
   28CHL1  H23B 2059   1.938   3.997   4.455 -1.8347 -1.2715  0.3912
   28CHL1   C24 2060   1.906   4.152   4.612  0.7045  0.5269  0.2033
   28CHL1  H24A 2061   2.004   4.198   4.641  0.6668 -0.7843  2.7047
   28CHL1  H24B 2062   1.829   4.225   4.645  1.1890  0.2495  2.0771
   28CHL1   C25 2063   1.880   4.034   4.715 -0.2800 -0.1840  0.3079
   28CHL1   H25 2064   1.968   3.966   4.715 -0.2306 -0.1236  0.8834
   28CHL1   C26 2065   1.863   4.085   4.860 -0.2344 -0.3840 -0.0068
   28CHL1  H26A 2066   1.956   4.136   4.893  1.0636 -2.3414 -0.4525
   28CHL1  H26B 2067   1.777   4.153   4.878  1.2978  1.6973 -0.0529
   28CHL1  H26C 2068   1.839   3.997   4.923  0.1677 -0.1431  0.4938
   28CHL1   C27 2069   1.762   3.940   4.678  0.2528 -0.0470  0.0034
   28CHL1  H27A 2070   1.662   3.982   4.701 -1.0654 -3.1038  0.3852
   28CHL1  H27B 2071   1.762   3.912   4.571  0.2161  1.6906 -0.4721
   28CHL1  H27C 2072   1.770   3.845   4.736  1.0375 -0.1195 -0.2144
   29CHL1    C3 2073   3.820   1.402   3.674 -0.1649  0.0392 -0.0877
   29CHL1    H3 2074   3.918   1.439   3.710  0.2658 -1.1041 -0.0198
   29CHL1    O3 2075   3.818   1.373   3.542 -0.4129  0.9094  0.2311
   29CHL1   H3' 2076   3.725   1.378   3.521 -0.3234  0.4710 -0.2892
   29CHL1    C4 2077   3.804   1.267   3.744 -1.2094 -0.3249 -1.3657
   29CHL1   H4A 2078   3.724   1.198   3.710 -1.0427 -1.9223  1.2784
   29CHL1   H4B 2079   3.894   1.203   3.733 -0.1456  0.8487  0.1576
   29CHL1    C5 2080   3.778   1.302   3.893 -0.2487 -0.3224  0.2899
   29CHL1    C6 2081   3.864   1.269   3.990  0.1704 -0.2059 -0.9044
   29CHL1    H6 2082   3.949   1.202   3.971  1.0109  1.1117 -1.9909
   29CHL1    C7 2083   3.836   1.281   4.135 -0.4023  0.6373 -0.3000
   29CHL1   H7A 2084   3.879   1.187   4.178 -1.6234 -0.4221 -1.3036
   29CHL1   H7B 2085   3.896   1.365   4.176 -0.5250 -0.0241  1.3263
   29CHL1    C8 2086   3.691   1.302   4.166  0.2826 -0.5085  0.9596
   29CHL1    H8 2087   3.651   1.200   4.148  0.0103 -0.1208 -0.8403
   29CHL1   C14 2088   3.679   1.355   4.307 -0.2216  0.3363  0.0640
   29CHL1   H14 2089   3.716   1.460   4.308  0.3714  0.1331  1.2743
   29CHL1   C15 2090   3.762   1.287   4.419 -0.2226 -0.2430  0.0037
   29CHL1  H15A 2091   3.763   1.181   4.384 -0.9977  0.2644 -1.6631
   29CHL1  H15B 2092   3.865   1.328   4.413  0.3375 -1.6058 -0.1677
   29CHL1   C16 2093   3.689   1.317   4.546  0.3879 -0.8859 -1.0300
   29CHL1  H16A 2094   3.652   1.215   4.574 -0.4656 -0.6617 -1.3076
   29CHL1  H16B 2095   3.753   1.362   4.625 -0.2258 -0.7281 -0.6084
   29CHL1   C17 2096   3.567   1.408   4.504 -1.3357  0.0503  0.2229
   29CHL1   H17 2097   3.602   1.514   4.500  0.7156 -0.6001 -3.5798
   29CHL1   C13 2098   3.542   1.367   4.354 -0.0095  0.5721 -0.3178
   29CHL1   C18 2099   3.475   1.230   4.346  0.0704  0.3428  0.1611
   29CHL1  H18A 2100   3.472   1.189   4.242 -0.2062  0.3539  0.1647
   29CHL1  H18B 2101   3.530   1.151   4.403  0.8357 -0.6319 -1.8199
   29CHL1  H18C 2102   3.367   1.223   4.369  0.1843 -0.4612  0.5075
   29CHL1   C12 2103   3.469   1.474   4.272 -0.1501  0.1572  0.7902
   29CHL1  H12A 2104   3.367   1.481   4.316 -0.0757 -0.4785  1.0713
   29CHL1  H12B 2105   3.516   1.574   4.285  1.1467 -0.1877 -0.9041
   29CHL1   C11 2106   3.470   1.436   4.122 -0.1127  0.1543  1.1073
   29CHL1  H11A 2107   3.407   1.349   4.097 -0.5414  0.7518  0.0303
   29CHL1  H11B 2108   3.431   1.521   4.061  0.8474 -2.1683 -3.1008
   29CHL1    C9 2109   3.622   1.405   4.078  0.5051 -0.0522 -0.2253
   29CHL1    H9 2110   3.671   1.503   4.096  0.4992  0.0339 -0.6651
   29CHL1   C10 2111   3.652   1.370   3.927  1.1242 -0.4359 -0.2063
   29CHL1   C19 2112   3.528   1.291   3.875  0.3019 -0.6772 -0.1218
   29CHL1  H19A 2113   3.437   1.354   3.884  0.9839  0.2933  0.2844
   29CHL1  H19B 2114   3.535   1.263   3.768 -0.6585  1.3588 -0.7568
   29CHL1  H19C 2115   3.515   1.197   3.932  0.6654 -0.5870  0.1149
   29CHL1    C1 2116   3.665   1.507   3.860  0.3649  0.3340  0.6314
   29CHL1   H1A 2117   3.568   1.561   3.865 -0.7169 -1.4277 -0.2769
   29CHL1   H1B 2118   3.733   1.570   3.920 -2.1160  1.5193  2.3972
   29CHL1    C2 2119   3.702   1.502   3.704  0.1885 -0.0730  0.2257
   29CHL1   H2A 2120   3.724   1.606   3.674 -0.7843  0.4278  1.1871
   29CHL1   H2B 2121   3.620   1.468   3.638 -0.1279  1.8200 -0.4099
   29CHL1   C20 2122   3.454   1.396   4.612  0.2970  0.1817 -0.0185
   29CHL1   H20 2123   3.407   1.295   4.608 -0.5100  0.5643 -0.5278
   29CHL1   C21 2124   3.340   1.508   4.586  0.0655 -0.7271  0.2700
   29CHL1  H21A 2125   3.392   1.607   4.584 -0.3296 -0.5370 -0.6486
   29CHL1  H21B 2126   3.277   1.517   4.677  1.5572  0.7682  1.2169
   29CHL1  H21C 2127   3.279   1.506   4.494 -0.9600 -0.4125  0.9215
   29CHL1   C22 2128   3.511   1.413   4.756  0.4802 -0.2408 -0.3851
   29CHL1  H22A 2129   3.600   1.350   4.776  1.2763 -0.2342 -3.4795
   29CHL1  H22B 2130   3.560   1.512   4.767  1.4875 -0.8279  0.7134
   29CHL1   C23 2131   3.409   1.397   4.874 -0.4084  0.5020  0.2330
   29CHL1  H23A 2132   3.341   1.483   4.886 -0.8718  0.0394  0.9857
   29CHL1  H23B 2133   3.355   1.305   4.841 -0.6656  1.3240 -1.8493
   29CHL1   C24 2134   3.479   1.380   5.017 -0.4574  0.2986 -0.9148
   29CHL1  H24A 2135   3.557   1.301   5.011  0.4183  0.8525  1.7433
   29CHL1  H24B 2136   3.530   1.476   5.039  0.0566 -0.0915 -0.3658
   29CHL1   C25 2137   3.373   1.368   5.139  0.4006 -0.0413 -0.9686
   29CHL1   H25 2138   3.327   1.469   5.142 -1.6351 -0.8924  2.8665
   29CHL1   C26 2139   3.271   1.253   5.125 -0.2007  0.2089  0.1436
   29CHL1  H26A 2140   3.218   1.258   5.028 -0.1949  2.6170  0.1960
   29CHL1  H26B 2141   3.319   1.153   5.130  0.8940  0.7704  1.5893
   29CHL1  H26C 2142   3.194   1.256   5.205  2.0520 -0.4923  2.4742
   29CHL1   C27 2143   3.433   1.351   5.281 -0.1138  0.8876  0.3495
   29CHL1  H27A 2144   3.489   1.445   5.300 -0.2952  0.8775  0.9542
   29CHL1  H27B 2145   3.342   1.337   5.343 -0.5415 -1.4007 -0.6779
   29CHL1  H27C 2146   3.504   1.265   5.285 -2.5418 -1.2143  0.5894
   30CHL1    C3 2147   6.527   6.887   3.215 -0.2468 -0.1560 -0.0475
   30CHL1    H3 2148   6.457   6.972   3.205 -0.1392 -0.0113  0.4285
   30CHL1    O3 2149   6.559   6.849   3.084  0.5214  0.9628  0.8955
   30CHL1   H3' 2150   6.643   6.894   3.090 -0.0363  2.0509  0.8732
   30CHL1    C4 2151   6.645   6.925   3.297  0.2579 -0.3986 -0.3794
   30CHL1   H4A 2152   6.717   6.841   3.297 -0.7707 -1.3092  0.4003
   30CHL1   H4B 2153   6.682   7.016   3.245  1.9245 -1.0594 -0.4166
   30CHL1    C5 2154   6.613   6.952   3.438 -0.0695  0.2026  0.2116
   30CHL1    C6 2155   6.651   7.067   3.501 -0.1381 -1.0508  0.2049
   30CHL1    H6 2156   6.714   7.136   3.442 -0.9754  1.0463  1.6150
   30CHL1    C7 2157   6.635   7.099   3.649 -0.0138 -0.4519  0.5838
   30CHL1   H7A 2158   6.730   7.114   3.705 -0.6978 -0.6106  1.8248
   30CHL1   H7B 2159   6.561   7.181   3.664  0.4528  0.0614  0.1034
   30CHL1    C8 2160   6.561   6.981   3.726 -0.4296  0.0559  0.2571
   30CHL1    H8 2161   6.638   6.913   3.768 -0.0086 -0.1726 -0.8464
   30CHL1   C14 2162   6.481   7.043   3.838  0.0611 -0.9874 -0.3706
   30CHL1   H14 2163   6.392   7.094   3.794 -1.0450 -0.8381  1.9224
   30CHL1   C15 2164   6.539   7.155   3.934 -0.1353 -0.4698  0.4505
   30CHL1  H15A 2165   6.637   7.123   3.975 -0.7124 -0.4914  1.8829
   30CHL1  H15B 2166   6.546   7.255   3.886  1.1440  0.5152  2.5828
   30CHL1   C16 2167   6.427   7.165   4.039  0.7452 -0.4287  0.5245
   30CHL1  H16A 2168   6.464   7.182   4.142 -0.9628 -0.9502  1.2588
   30CHL1  H16B 2169   6.366   7.256   4.019  2.6017  0.8645  0.4340
   30CHL1   C17 2170   6.335   7.036   4.033 -0.4809 -0.0003 -0.1375
   30CHL1   H17 2171   6.240   7.057   3.981  0.7118  0.5997 -2.1719
   30CHL1   C13 2172   6.412   6.944   3.933 -0.1733 -0.2633 -0.1803
   30CHL1   C18 2173   6.524   6.872   4.008 -0.6283 -0.1878 -0.0140
   30CHL1  H18A 2174   6.584   6.803   3.945  1.3970 -0.1453  1.7629
   30CHL1  H18B 2175   6.592   6.935   4.069 -1.8422  0.4722  0.7083
   30CHL1  H18C 2176   6.475   6.794   4.071 -5.6011 -0.3867 -3.4903
   30CHL1   C12 2177   6.329   6.846   3.848  0.3098  0.1576 -0.3077
   30CHL1  H12A 2178   6.302   6.760   3.913  2.7954 -0.2129  0.3349
   30CHL1  H12B 2179   6.236   6.897   3.815  0.5622  0.7050 -0.1839
   30CHL1   C11 2180   6.416   6.780   3.733 -0.7571 -0.0006  0.3100
   30CHL1  H11A 2181   6.501   6.724   3.776  0.4346 -1.0499 -3.1190
   30CHL1  H11B 2182   6.359   6.697   3.686 -0.7354 -0.5763  1.2772
   30CHL1    C9 2183   6.467   6.892   3.637 -0.0734 -0.0243 -0.4992
   30CHL1    H9 2184   6.382   6.958   3.611 -2.4684 -1.3913  3.0939
   30CHL1   C10 2185   6.528   6.837   3.511 -1.0399  0.1908  0.7534
   30CHL1   C19 2186   6.629   6.726   3.546  0.4822 -0.1379  0.3999
   30CHL1  H19A 2187   6.690   6.705   3.455 -1.1956 -1.0950 -0.5725
   30CHL1  H19B 2188   6.700   6.757   3.626  3.2741  1.3715 -2.4550
   30CHL1  H19C 2189   6.575   6.633   3.575 -1.1586  0.1582 -1.4882
   30CHL1    C1 2190   6.415   6.788   3.423  0.4876  0.0985 -0.0998
   30CHL1   H1A 2191   6.378   6.691   3.461 -0.2241  0.6834  0.7335
   30CHL1   H1B 2192   6.328   6.858   3.429  2.3156  2.3449  2.6131
   30CHL1    C2 2193   6.452   6.764   3.269 -0.3577 -0.4967  0.5850
   30CHL1   H2A 2194   6.369   6.746   3.197 -1.8530  3.7104  1.0232
   30CHL1   H2B 2195   6.521   6.677   3.274  1.2912  0.8134  1.9147
   30CHL1   C20 2196   6.290   6.978   4.169 -0.2741  0.2864  0.2550
   30CHL1   H20 2197   6.383   6.960   4.227 -0.9600  0.6155  1.4941
   30CHL1   C21 2198   6.228   6.841   4.180  0.0120 -0.3823 -0.3572
   30CHL1  H21A 2199   6.189   6.829   4.283 -0.5414 -1.7136 -0.6867
   30CHL1  H21B 2200   6.300   6.762   4.148  1.0890  0.0654  0.8630
   30CHL1  H21C 2201   6.140   6.842   4.112 -1.3556 -0.5035  1.3293
   30CHL1   C22 2202   6.199   7.080   4.244  0.4177 -0.0061  0.2882
   30CHL1  H22A 2203   6.187   7.053   4.351 -0.6018 -2.1514 -0.3232
   30CHL1  H22B 2204   6.249   7.179   4.234  2.1253 -0.8898 -0.3709
   30CHL1   C23 2205   6.054   7.091   4.189  0.3237  0.0541 -0.9744
   30CHL1  H23A 2206   6.058   7.129   4.084  1.1159 -1.1000 -1.3736
   30CHL1  H23B 2207   6.001   6.994   4.180 -0.3728  0.4662 -1.5296
   30CHL1   C24 2208   5.960   7.188   4.271 -0.2616  0.0502  0.0855
   30CHL1  H24A 2209   5.946   7.149   4.374  1.8670  0.8158  0.7414
   30CHL1  H24B 2210   6.010   7.288   4.278  1.3258 -0.7140  0.1755
   30CHL1   C25 2211   5.827   7.205   4.194  0.5908 -0.1814 -0.6321
   30CHL1   H25 2212   5.835   7.235   4.087  0.0988 -0.5665 -0.7832
   30CHL1   C26 2213   5.741   7.074   4.199  0.5572 -0.0862  0.3430
   30CHL1  H26A 2214   5.717   7.026   4.296 -2.6715 -0.1268 -0.3816
   30CHL1  H26B 2215   5.638   7.095   4.163  0.4040  0.8985  1.2827
   30CHL1  H26C 2216   5.790   6.999   4.133 -0.2635 -2.1536  1.9989
   30CHL1   C27 2217   5.759   7.323   4.273  0.4807 -0.0324  0.9629
   30CHL1  H27A 2218   5.813   7.418   4.253 -1.3048  0.8697  0.2381
   30CHL1  H27B 2219   5.655   7.340   4.238  0.8652  0.7951  0.1961
   30CHL1  H27C 2220   5.752   7.303   4.382 -0.9115 -0.1865  0.8690
   31CHL1    C3 2221   6.489   1.638   3.053 -1.3719 -0.0754  0.2187
   31CHL1    H3 2222   6.483   1.724   3.123  1.2268 -0.0788  0.5395
   31CHL1    O3 2223   6.501   1.685   2.920 -0.4605 -0.6997 -0.5611
   31CHL1   H3' 2224   6.417   1.713   2.884  0.3839  0.0884 -2.0368
   31CHL1    C4 2225   6.627   1.575   3.091  0.4354 -0.1466 -0.5701
   31CHL1   H4A 2226   6.649   1.488   3.026 -1.4733 -1.2993  0.2162
   31CHL1   H4B 2227   6.701   1.656   3.080  0.3654 -0.3144 -2.5906
   31CHL1    C5 2228   6.611   1.528   3.236 -0.2711 -0.3428  0.4874
   31CHL1    C6 2229   6.703   1.563   3.325  0.5627 -0.4492  0.3020
   31CHL1    H6 2230   6.783   1.628   3.287 -0.0027 -0.2635 -0.5802
   31CHL1    C7 2231   6.722   1.514   3.464  0.0165 -0.4568  0.2981
   31CHL1   H7A 2232   6.825   1.474   3.477  1.2848  1.2879 -2.9977
   31CHL1   H7B 2233   6.716   1.588   3.546 -0.9763 -2.5907  2.2643
   31CHL1    C8 2234   6.628   1.391   3.493  0.1627  0.2278  0.0050
   31CHL1    H8 2235   6.670   1.296   3.453  1.5906  0.1774  1.4936
   31CHL1   C14 2236   6.600   1.383   3.639 -0.6044  0.3840  0.0698
   31CHL1   H14 2237   6.541   1.477   3.648 -0.3308  0.8695 -2.3569
   31CHL1   C15 2238   6.727   1.394   3.731 -0.7835  0.0047  0.2176
   31CHL1  H15A 2239   6.804   1.328   3.687 -2.9291 -2.1898 -0.4264
   31CHL1  H15B 2240   6.765   1.498   3.742  0.6590 -0.4093 -0.5967
   31CHL1   C16 2241   6.676   1.349   3.865  0.5975  0.6271  0.0742
   31CHL1  H16A 2242   6.735   1.264   3.904 -0.3686 -0.3027 -0.4455
   31CHL1  H16B 2243   6.666   1.431   3.939 -2.2923  1.3996 -1.0503
   31CHL1   C17 2244   6.531   1.289   3.844 -0.1619  0.5437 -0.1763
   31CHL1   H17 2245   6.462   1.374   3.868  1.1055  1.7781 -0.7824
   31CHL1   C13 2246   6.513   1.269   3.690  0.1713  0.5066 -0.4403
   31CHL1   C18 2247   6.576   1.131   3.643 -0.7390 -0.6710  0.3509
   31CHL1  H18A 2248   6.681   1.132   3.680  0.1353  0.2036 -1.9909
   31CHL1  H18B 2249   6.528   1.045   3.693  0.1572 -0.4544  1.6348
   31CHL1  H18C 2250   6.580   1.108   3.534 -0.0017 -2.4327  0.7177
   31CHL1   C12 2251   6.377   1.288   3.624 -0.3845 -0.8004 -0.0753
   31CHL1  H12A 2252   6.309   1.204   3.652 -0.8347 -0.3053  0.3460
   31CHL1  H12B 2253   6.338   1.382   3.668  2.4492  0.4330 -0.0300
   31CHL1   C11 2254   6.385   1.308   3.472  0.4283 -0.3352 -0.2961
   31CHL1  H11A 2255   6.404   1.207   3.427  1.3043 -0.9802  1.4426
   31CHL1  H11B 2256   6.287   1.331   3.425  0.9059 -0.7180 -1.5229
   31CHL1    C9 2257   6.489   1.409   3.418  0.5321  0.1161 -0.1671
   31CHL1    H9 2258   6.442   1.504   3.452 -1.7228 -1.6381  2.0144
   31CHL1   C10 2259   6.505   1.431   3.267 -0.3072  0.4028 -0.5669
   31CHL1   C19 2260   6.542   1.292   3.206 -0.1028 -0.1827 -0.0582
   31CHL1  H19A 2261   6.644   1.259   3.232  0.4000  0.2460 -1.4056
   31CHL1  H19B 2262   6.464   1.217   3.231 -0.3017 -0.1897 -0.6861
   31CHL1  H19C 2263   6.551   1.293   3.095  2.2017 -5.2324 -0.1998
   31CHL1    C1 2264   6.377   1.483   3.211 -0.2652 -0.3161 -0.2831
   31CHL1   H1A 2265   6.298   1.404   3.212 -0.8016  0.1566 -1.6516
   31CHL1   H1B 2266   6.349   1.571   3.272 -0.0531 -1.3233  1.3151
   31CHL1    C2 2267   6.374   1.531   3.066 -0.3480 -0.3675  0.2374
   31CHL1   H2A 2268   6.277   1.584   3.058  0.5591  1.3976  0.4132
   31CHL1   H2B 2269   6.376   1.456   2.984  0.9753 -1.5700  1.2994
   31CHL1   C20 2270   6.503   1.173   3.938 -0.4260  0.6762 -0.0263
   31CHL1   H20 2271   6.577   1.095   3.911 -2.9147 -1.9229  0.2264
   31CHL1   C21 2272   6.361   1.104   3.910  0.0986 -0.4570 -0.3015
   31CHL1  H21A 2273   6.286   1.186   3.904 -0.7288 -1.1193  0.7895
   31CHL1  H21B 2274   6.336   1.024   3.983 -1.4910 -1.8065 -2.1988
   31CHL1  H21C 2275   6.355   1.047   3.815  1.1847 -1.6360  0.3161
   31CHL1   C22 2276   6.510   1.218   4.088  0.0691  0.0943 -1.0389
   31CHL1  H22A 2277   6.609   1.258   4.120  1.1004 -2.8539 -0.2096
   31CHL1  H22B 2278   6.429   1.291   4.105  0.3399  0.0956  0.4197
   31CHL1   C23 2279   6.478   1.109   4.193 -0.0369 -0.0876 -0.9243
   31CHL1  H23A 2280   6.369   1.086   4.195 -0.1077 -0.0396 -2.6071
   31CHL1  H23B 2281   6.541   1.020   4.172 -1.6019 -0.7675 -3.2282
   31CHL1   C24 2282   6.506   1.164   4.333 -0.6218  0.3238  0.6315
   31CHL1  H24A 2283   6.612   1.198   4.338  0.4795 -2.4550 -1.4259
   31CHL1  H24B 2284   6.440   1.252   4.347  0.4432  1.8682 -2.8891
   31CHL1   C25 2285   6.464   1.070   4.445  0.2916  0.2170 -0.5264
   31CHL1   H25 2286   6.354   1.060   4.436  0.4967 -0.8588 -2.5758
   31CHL1   C26 2287   6.521   0.928   4.411 -0.2467  0.2472 -0.3498
   31CHL1  H26A 2288   6.630   0.932   4.392 -0.0875 -2.2221 -0.2840
   31CHL1  H26B 2289   6.507   0.856   4.495 -3.7660 -1.4338 -2.1544
   31CHL1  H26C 2290   6.473   0.872   4.328  1.6525 -2.1796  0.0731
   31CHL1   C27 2291   6.513   1.135   4.578  0.3024  0.4343 -0.2725
   31CHL1  H27A 2292   6.623   1.128   4.562  0.5151 -0.7283  1.3952
   31CHL1  H27B 2293   6.485   1.241   4.596  0.1929  0.6260 -1.4797
   31CHL1  H27C 2294   6.478   1.068   4.659  0.1520 -0.2775 -0.9151
   32CHL1    C3 2295   3.671   0.707   3.721 -0.0638 -0.1346 -0.0995
   32CHL1    H3 2296   3.700   0.600   3.727  3.0965  0.6579  0.6948
   32CHL1    O3 2297   3.680   0.743   3.581  0.0049  0.0986  0.2460
   32CHL1   H3' 2298   3.679   0.839   3.586 -0.7320  0.0800  0.6286
   32CHL1    C4 2299   3.538   0.747   3.779 -0.2647 -0.4392 -0.7683
   32CHL1   H4A 2300   3.514   0.855   3.767  0.9879 -0.1605 -0.9280
   32CHL1   H4B 2301   3.448   0.706   3.730 -0.6492 -0.5775  0.0466
   32CHL1    C5 2302   3.542   0.732   3.931 -0.3124  0.1127  0.2315
   32CHL1    C6 2303   3.450   0.664   3.994  0.4565 -0.6049 -0.1745
   32CHL1    H6 2304   3.365   0.622   3.938 -0.3994 -1.1200  1.4579
   32CHL1    C7 2305   3.432   0.642   4.141 -0.7431  0.2006 -0.1275
   32CHL1   H7A 2306   3.326   0.652   4.173 -0.3950 -2.6934  2.3512
   32CHL1   H7B 2307   3.468   0.542   4.172 -0.6285  0.1120 -0.5402
   32CHL1    C8 2308   3.525   0.738   4.228  0.5885  0.1452 -0.1408
   32CHL1    H8 2309   3.489   0.842   4.216 -1.1439 -0.6259 -2.4093
   32CHL1   C14 2310   3.543   0.675   4.362  0.0763  0.3902 -0.4332
   32CHL1   H14 2311   3.585   0.578   4.329  1.1109  0.9304 -0.7584
   32CHL1   C15 2312   3.420   0.640   4.451  0.6689 -0.3502  0.3865
   32CHL1  H15A 2313   3.341   0.718   4.453  0.8597 -0.1592  0.4962
   32CHL1  H15B 2314   3.368   0.545   4.425 -0.9230  0.6981 -0.4605
   32CHL1   C16 2315   3.475   0.628   4.594  0.9221  0.5672  0.2663
   32CHL1  H16A 2316   3.417   0.700   4.655  0.2307 -0.9460  1.4607
   32CHL1  H16B 2317   3.446   0.525   4.625  3.0588 -0.1894 -0.0893
   32CHL1   C17 2318   3.627   0.650   4.578  0.4124 -1.1067 -0.2481
   32CHL1   H17 2319   3.658   0.553   4.534  0.5314 -1.0939 -0.1930
   32CHL1   C13 2320   3.640   0.748   4.456  0.1723 -0.4370  0.1006
   32CHL1   C18 2321   3.586   0.886   4.492  0.0544  0.2171  0.1698
   32CHL1  H18A 2322   3.514   0.921   4.415  1.3929  1.4389 -0.5708
   32CHL1  H18B 2323   3.532   0.902   4.588 -2.0087  0.7721 -1.0183
   32CHL1  H18C 2324   3.659   0.969   4.491 -1.1164  1.2864  0.3376
   32CHL1   C12 2325   3.776   0.754   4.382 -0.0117  0.1615  0.4499
   32CHL1  H12A 2326   3.847   0.810   4.447  0.3435  0.4105 -0.1445
   32CHL1  H12B 2327   3.823   0.655   4.363 -0.0205 -0.1485  1.9419
   32CHL1   C11 2328   3.774   0.812   4.244 -0.7274 -0.2723  0.0682
   32CHL1  H11A 2329   3.754   0.921   4.258  0.7497 -0.0451  0.5889
   32CHL1  H11B 2330   3.876   0.815   4.200 -0.4649  1.8901  0.7015
   32CHL1    C9 2331   3.671   0.737   4.158 -0.1018 -0.2633 -0.2479
   32CHL1    H9 2332   3.697   0.629   4.157 -0.6212 -0.4428  1.9161
   32CHL1   C10 2333   3.668   0.783   4.011  0.5302  0.3410 -0.1451
   32CHL1   C19 2334   3.662   0.940   4.008 -0.2026 -0.0190  0.8586
   32CHL1  H19A 2335   3.758   0.989   4.036  0.6084  0.7999 -2.8509
   32CHL1  H19B 2336   3.633   0.981   3.909  0.7304  0.9750  0.9835
   32CHL1  H19C 2337   3.583   0.977   4.077 -1.0399  1.8341 -0.9812
   32CHL1    C1 2338   3.797   0.741   3.935  0.5028 -0.2370 -0.4971
   32CHL1   H1A 2339   3.891   0.776   3.982 -0.1681 -0.1164  0.7987
   32CHL1   H1B 2340   3.804   0.631   3.943  0.6053 -0.1870  0.1608
   32CHL1    C2 2341   3.786   0.776   3.789 -0.9433  0.6040 -0.4433
   32CHL1   H2A 2342   3.882   0.739   3.747 -1.2045  0.9337 -1.3432
   32CHL1   H2B 2343   3.787   0.887   3.779 -0.6114  0.6100 -0.3704
   32CHL1   C20 2344   3.710   0.674   4.709 -0.1073  0.1792 -0.2067
   32CHL1   H20 2345   3.690   0.778   4.745 -0.2444 -0.6971  2.4798
   32CHL1   C21 2346   3.859   0.654   4.690 -0.7446  0.7463  0.4934
   32CHL1  H21A 2347   3.905   0.663   4.790  0.1439 -0.2648  0.1984
   32CHL1  H21B 2348   3.918   0.723   4.626  0.5383 -1.9446 -1.4127
   32CHL1  H21C 2349   3.886   0.552   4.654 -2.9599  0.6063 -0.9900
   32CHL1   C22 2350   3.670   0.592   4.833 -0.1010  0.7138  0.5726
   32CHL1  H22A 2351   3.735   0.624   4.917  2.4445  1.5047 -1.5669
   32CHL1  H22B 2352   3.564   0.620   4.849 -0.0425  1.5048 -0.3269
   32CHL1   C23 2353   3.680   0.441   4.806 -0.2297  0.4954 -0.1452
   32CHL1  H23A 2354   3.646   0.409   4.705 -0.1834 -0.9417  0.2801
   32CHL1  H23B 2355   3.788   0.416   4.817 -0.7377 -1.5395  0.6864
   32CHL1   C24 2356   3.602   0.364   4.919  0.1468  0.0246 -0.0055
   32CHL1  H24A 2357   3.664   0.372   5.011 -1.2854  1.5803  0.8775
   32CHL1  H24B 2358   3.509   0.419   4.942  0.1631 -0.5129  1.4599
   32CHL1   C25 2359   3.571   0.216   4.893 -0.2009  0.3435  0.9475
   32CHL1   H25 2360   3.477   0.213   4.835 -0.5590  0.3582  1.5256
   32CHL1   C26 2361   3.687   0.137   4.839 -0.0860 -0.2549  0.5025
   32CHL1  H26A 2362   3.720   0.176   4.740  0.2871 -4.2912 -1.1632
   32CHL1  H26B 2363   3.772   0.139   4.911  0.0791  1.7412  0.3184
   32CHL1  H26C 2364   3.659   0.030   4.828  1.2325 -0.8246  2.2934
   32CHL1   C27 2365   3.530   0.144   5.025  0.1506  0.1709  0.1991
   32CHL1  H27A 2366   3.487   0.048   4.987 -3.2740  0.7086  2.2704
   32CHL1  H27B 2367   3.623   0.129   5.083  1.6813 -0.9092 -2.3616
   32CHL1  H27C 2368   3.452   0.195   5.085 -0.4899 -0.8332  0.2425
   33CHL1    C3 2369   2.431   6.086   3.279  0.0588 -0.1949 -0.6049
   33CHL1    H3 2370   2.479   5.987   3.292 -1.2341 -0.6674  0.8212
   33CHL1    O3 2371   2.437   6.144   3.151 -0.1540 -0.4706  0.1269
   33CHL1   H3' 2372   2.531   6.157   3.141 -0.1266 -0.8632 -0.1296
   33CHL1    C4 2373   2.287   6.066   3.317  0.1500  1.0488 -0.0497
   33CHL1   H4A 2374   2.228   6.157   3.297 -0.5656  0.6139  0.0657
   33CHL1   H4B 2375   2.248   5.991   3.245  1.7908 -1.6656  1.6878
   33CHL1    C5 2376   2.264   6.012   3.455 -0.3829 -0.9590 -0.2089
   33CHL1    C6 2377   2.193   5.899   3.476  0.0684 -0.3158 -0.1169
   33CHL1    H6 2378   2.155   5.844   3.389  1.6336 -0.1991 -0.9053
   33CHL1    C7 2379   2.159   5.846   3.608  0.1410 -0.5963 -0.1244
   33CHL1   H7A 2380   2.050   5.829   3.613 -0.1411  0.6912 -1.2414
   33CHL1   H7B 2381   2.209   5.747   3.616 -1.5030 -1.4428  0.1248
   33CHL1    C8 2382   2.195   5.946   3.725  0.5368 -0.0851 -0.7520
   33CHL1    H8 2383   2.119   6.026   3.718 -0.2772 -0.9873 -4.0098
   33CHL1   C14 2384   2.203   5.863   3.855 -0.3317  0.5270  0.1148
   33CHL1   H14 2385   2.290   5.795   3.839 -1.1359 -0.4068 -0.3648
   33CHL1   C15 2386   2.088   5.776   3.900 -0.3624  0.2299 -0.0778
   33CHL1  H15A 2387   1.992   5.828   3.922 -1.4727 -1.9393  0.5182
   33CHL1  H15B 2388   2.074   5.688   3.833  0.8877 -0.7627  0.9161
   33CHL1   C16 2389   2.140   5.720   4.031 -0.3949 -0.7128 -0.3315
   33CHL1  H16A 2390   2.054   5.715   4.102 -0.2264 -1.4290 -0.1715
   33CHL1  H16B 2391   2.184   5.619   4.034  2.1756  0.3481  0.5323
   33CHL1   C17 2392   2.244   5.829   4.081 -0.0866  0.0840 -0.1732
   33CHL1   H17 2393   2.347   5.787   4.078 -0.1373 -0.5127  2.7754
   33CHL1   C13 2394   2.245   5.943   3.975  0.1253  0.0661  0.7684
   33CHL1   C18 2395   2.144   6.061   4.009  0.0484  0.3516  0.1808
   33CHL1  H18A 2396   2.059   6.012   4.061 -0.4063  0.6994 -0.2272
   33CHL1  H18B 2397   2.189   6.146   4.065 -0.1180  0.7732 -0.3147
   33CHL1  H18C 2398   2.117   6.124   3.921  1.4725  1.5629  0.5811
   33CHL1   C12 2399   2.391   6.004   3.943  0.0958  0.7572 -0.0029
   33CHL1  H12A 2400   2.415   6.072   4.027 -0.1806 -1.0237  1.6043
   33CHL1  H12B 2401   2.466   5.923   3.945 -3.6060 -3.1872  4.2010
   33CHL1   C11 2402   2.393   6.090   3.816 -0.7562  0.4484  0.6540
   33CHL1  H11A 2403   2.337   6.183   3.841 -1.0872  0.5904 -0.5486
   33CHL1  H11B 2404   2.496   6.126   3.797  0.9527 -4.7452 -1.9029
   33CHL1    C9 2405   2.330   6.010   3.694  0.1132 -0.4437  0.3811
   33CHL1    H9 2406   2.390   5.919   3.671 -0.0243 -0.4202 -0.0884
   33CHL1   C10 2407   2.333   6.094   3.558  0.2448 -0.2516  0.2305
   33CHL1   C19 2408   2.256   6.229   3.585 -0.6174  0.3778 -0.1144
   33CHL1  H19A 2409   2.237   6.286   3.491  1.9586  0.4983 -0.6315
   33CHL1  H19B 2410   2.162   6.211   3.640 -1.7484 -2.9272 -2.7915
   33CHL1  H19C 2411   2.318   6.297   3.647 -0.8204 -1.2030  1.8995
   33CHL1    C1 2412   2.481   6.127   3.519  0.3249 -0.3715 -0.0045
   33CHL1   H1A 2413   2.518   6.201   3.594  1.6387 -0.5627 -0.4294
   33CHL1   H1B 2414   2.537   6.031   3.521 -0.4112 -0.8620 -1.5922
   33CHL1    C2 2415   2.496   6.182   3.383 -0.2146 -0.9913  0.6301
   33CHL1   H2A 2416   2.599   6.208   3.353 -1.2168  1.1696 -1.2649
   33CHL1   H2B 2417   2.439   6.278   3.382  2.7946  0.9503  1.7654
   33CHL1   C20 2418   2.228   5.868   4.233 -0.0386  0.0403 -0.2796
   33CHL1   H20 2419   2.127   5.912   4.246 -0.3866 -1.3542  2.5541
   33CHL1   C21 2420   2.331   5.967   4.289 -0.6891 -0.5120 -0.4126
   33CHL1  H21A 2421   2.431   5.920   4.306 -0.1682  0.0731 -1.6721
   33CHL1  H21B 2422   2.297   5.988   4.392  1.1563  0.7193 -0.0047
   33CHL1  H21C 2423   2.326   6.061   4.231 -4.0149 -0.4906 -0.2805
   33CHL1   C22 2424   2.239   5.746   4.326 -0.5471 -1.0256  0.1929
   33CHL1  H22A 2425   2.204   5.658   4.269  0.6055 -1.4776  0.1572
   33CHL1  H22B 2426   2.343   5.731   4.361 -0.5014 -0.7026  0.2014
   33CHL1   C23 2427   2.155   5.773   4.455 -0.4164  0.2736 -0.3451
   33CHL1  H23A 2428   2.206   5.859   4.503 -1.5988  1.9551 -1.9535
   33CHL1  H23B 2429   2.046   5.788   4.435 -0.2810  1.5012 -0.2422
   33CHL1   C24 2430   2.175   5.652   4.546 -0.4797  0.4586  0.8453
   33CHL1  H24A 2431   2.142   5.559   4.495 -0.8039  1.0594 -0.0601
   33CHL1  H24B 2432   2.285   5.640   4.560 -0.2102 -0.8801 -1.9303
   33CHL1   C25 2433   2.105   5.651   4.683 -0.9486  0.5238 -0.2806
   33CHL1   H25 2434   2.111   5.761   4.702 -0.0265  0.8663 -2.2757
   33CHL1   C26 2435   1.950   5.624   4.683 -0.2429  0.2276 -0.2938
   33CHL1  H26A 2436   1.906   5.707   4.623  1.2380  1.5874  0.4272
   33CHL1  H26B 2437   1.926   5.525   4.639  0.9316 -0.2607  0.1131
   33CHL1  H26C 2438   1.903   5.624   4.784 -1.0139  0.9452 -0.6391
   33CHL1   C27 2439   2.180   5.558   4.781 -0.1816  0.1367  0.5021
   33CHL1  H27A 2440   2.117   5.543   4.872 -0.3947  0.3155  0.3835
   33CHL1  H27B 2441   2.185   5.457   4.735  0.3277  1.0711 -1.6167
   33CHL1  H27C 2442   2.279   5.595   4.815  0.4029 -0.8472 -0.0615
   34CHL1    C3 2443   0.989   1.019   3.553 -0.5802 -0.4831  0.3218
   34CHL1    H3 2444   0.960   1.124   3.531  1.5818 -0.1919 -1.5533
   34CHL1    O3 2445   1.040   0.959   3.431  0.2477 -1.0173  0.4210
   34CHL1   H3' 2446   0.971   0.960   3.364 -0.2841  0.5848  0.9418
   34CHL1    C4 2447   1.084   1.001   3.665 -0.2996 -0.5837  0.0175
   34CHL1   H4A 2448   1.144   0.908   3.670  0.0470 -0.4445 -1.2773
   34CHL1   H4B 2449   1.163   1.077   3.645 -0.2085 -1.0898 -1.6710
   34CHL1    C5 2450   1.025   1.024   3.802 -0.1356 -0.3225 -0.1690
   34CHL1    C6 2451   1.085   1.116   3.883  0.3383 -0.7362 -0.2316
   34CHL1    H6 2452   1.179   1.165   3.853  0.4274 -1.5281 -1.3293
   34CHL1    C7 2453   1.020   1.149   4.022  0.3844  0.5276  1.2774
   34CHL1   H7A 2454   1.099   1.176   4.096  0.6111  0.5579  1.0245
   34CHL1   H7B 2455   0.958   1.239   4.007 -1.3897 -0.7110  0.7952
   34CHL1    C8 2456   0.919   1.042   4.071  0.2877  0.1961 -0.1026
   34CHL1    H8 2457   0.982   0.954   4.097  0.6198  0.6612  0.6961
   34CHL1   C14 2458   0.847   1.089   4.194 -0.6152 -0.7312 -0.0045
   34CHL1   H14 2459   0.785   1.173   4.155  1.0895 -0.2563 -1.8472
   34CHL1   C15 2460   0.922   1.143   4.309 -0.5910  0.0275 -0.0930
   34CHL1  H15A 2461   0.991   1.060   4.337 -0.5625  0.3460  0.8219
   34CHL1  H15B 2462   0.978   1.236   4.285  2.1577 -1.2485  0.9022
   34CHL1   C16 2463   0.818   1.147   4.424 -0.7243  0.7450 -0.5414
   34CHL1  H16A 2464   0.865   1.098   4.512  1.5717  1.5526 -1.2587
   34CHL1  H16B 2465   0.784   1.250   4.446 -3.2547 -0.0451 -0.3066
   34CHL1   C17 2466   0.690   1.075   4.370 -0.3272 -0.2332  0.6177
   34CHL1   H17 2467   0.625   1.153   4.325 -0.2341 -0.1305  0.6623
   34CHL1   C13 2468   0.736   0.997   4.247  0.7666  1.0273 -0.3175
   34CHL1   C18 2469   0.796   0.859   4.296  0.5060 -0.4066  0.0946
   34CHL1  H18A 2470   0.717   0.789   4.330 -0.9211  0.2942 -1.6480
   34CHL1  H18B 2471   0.838   0.805   4.208 -0.8437 -1.2096 -0.0824
   34CHL1  H18C 2472   0.873   0.866   4.375  1.3546  2.6262 -0.8555
   34CHL1   C12 2473   0.634   0.960   4.135  0.2872 -0.0029 -0.0010
   34CHL1  H12A 2474   0.558   0.886   4.166  0.9121 -0.0464  1.4954
   34CHL1  H12B 2475   0.585   1.056   4.107  0.9761 -0.2244 -2.1450
   34CHL1   C11 2476   0.708   0.909   4.007  0.2462  0.1705 -0.2619
   34CHL1  H11A 2477   0.731   0.803   4.028  0.4175  0.7071  2.5886
   34CHL1  H11B 2478   0.632   0.905   3.926  0.2305 -1.3556 -0.1894
   34CHL1    C9 2479   0.823   1.002   3.960 -0.1638  0.0764 -0.3802
   34CHL1    H9 2480   0.772   1.096   3.929 -1.4465 -0.0763  1.0965
   34CHL1   C10 2481   0.893   0.948   3.828  0.3668 -0.0307  0.1471
   34CHL1   C19 2482   0.936   0.803   3.846 -0.1661  0.2597 -0.4174
   34CHL1  H19A 2483   0.994   0.784   3.938  0.8329 -4.1121 -1.7174
   34CHL1  H19B 2484   0.853   0.733   3.822 -0.9103  1.3018 -0.9915
   34CHL1  H19C 2485   1.013   0.773   3.772 -0.2057 -0.4477 -0.1749
   34CHL1    C1 2486   0.797   0.958   3.707 -0.2460 -0.4357 -0.7192
   34CHL1   H1A 2487   0.712   0.890   3.725 -0.4556  0.4998  2.3122
   34CHL1   H1B 2488   0.759   1.062   3.696 -2.1389 -0.8013  1.5727
   34CHL1    C2 2489   0.864   0.932   3.573 -0.5485  0.1419 -0.5952
   34CHL1   H2A 2490   0.810   0.931   3.476 -2.5234  0.9385  0.4305
   34CHL1   H2B 2491   0.906   0.829   3.581 -0.5722  0.2354  1.1777
   34CHL1   C20 2492   0.608   1.007   4.480  0.7209  1.1993  0.3458
   34CHL1   H20 2493   0.666   0.920   4.515 -3.0635 -1.8121 -0.2010
   34CHL1   C21 2494   0.475   0.950   4.426  0.2197 -0.4143 -0.0516
   34CHL1  H21A 2495   0.441   1.027   4.354  3.3951  1.0305 -0.2117
   34CHL1  H21B 2496   0.403   0.944   4.510 -0.9544 -0.3719 -1.0308
   34CHL1  H21C 2497   0.497   0.854   4.376  2.6105  0.4269 -0.7877
   34CHL1   C22 2498   0.570   1.094   4.606 -0.0029 -0.3238 -0.3857
   34CHL1  H22A 2499   0.517   1.025   4.675 -0.9361  0.9734  0.2162
   34CHL1  H22B 2500   0.671   1.127   4.637  1.0703 -2.2982 -1.5727
   34CHL1   C23 2501   0.465   1.204   4.590  0.4390  0.2586  0.3388
   34CHL1  H23A 2502   0.489   1.275   4.508 -2.2597 -0.3210 -1.0354
   34CHL1  H23B 2503   0.362   1.168   4.573  0.7606 -0.6867  0.3740
   34CHL1   C24 2504   0.437   1.289   4.722 -0.6998  0.0879  0.6156
   34CHL1  H24A 2505   0.377   1.228   4.793 -1.7600 -0.9202 -1.0727
   34CHL1  H24B 2506   0.540   1.300   4.761  0.3945 -1.9455 -1.4413
   34CHL1   C25 2507   0.361   1.419   4.704 -0.2972 -1.0316  0.2609
   34CHL1   H25 2508   0.394   1.465   4.608  2.8633 -1.0011  1.2579
   34CHL1   C26 2509   0.209   1.404   4.687 -0.3707 -0.4400 -0.1303
   34CHL1  H26A 2510   0.164   1.505   4.677 -0.2886 -0.4263 -0.3729
   34CHL1  H26B 2511   0.188   1.347   4.593  1.0383  0.5226 -1.0666
   34CHL1  H26C 2512   0.170   1.362   4.782 -1.2964 -1.0622 -0.7637
   34CHL1   C27 2513   0.394   1.514   4.822  0.2307 -0.4886 -0.0185
   34CHL1  H27A 2514   0.504   1.528   4.830  0.3112 -1.4956  0.7894
   34CHL1  H27B 2515   0.353   1.617   4.816 -0.8704 -0.9568 -0.8145
   34CHL1  H27C 2516   0.357   1.472   4.918  1.1572 -0.1856  0.4850
   35CHL1    C3 2517   3.993   2.826   3.755  0.2323 -0.0440 -0.5017
   35CHL1    H3 2518   4.091   2.775   3.743 -0.8651 -2.2892 -0.6098
   35CHL1    O3 2519   3.913   2.769   3.653  0.2793 -0.6526 -0.6928
   35CHL1   H3' 2520   3.902   2.676   3.674  2.4765 -0.7762  0.1873
   35CHL1    C4 2521   3.943   2.799   3.895  1.1175 -0.0342  0.1909
   35CHL1   H4A 2522   3.838   2.829   3.914  1.1248 -0.7958  1.5425
   35CHL1   H4B 2523   3.942   2.690   3.915  0.9247 -0.1920 -0.6430
   35CHL1    C5 2524   4.020   2.867   4.005  0.1750  0.0419 -0.1462
   35CHL1    C6 2525   4.080   2.798   4.103  0.9246  0.0767 -0.0946
   35CHL1    H6 2526   4.064   2.689   4.098  2.4115 -0.1841  0.5055
   35CHL1    C7 2527   4.149   2.855   4.221 -0.5301  0.4649  0.1121
   35CHL1   H7A 2528   4.121   2.799   4.312  0.4712 -0.3740 -0.0812
   35CHL1   H7B 2529   4.258   2.836   4.215 -0.5504  0.6027 -1.0500
   35CHL1    C8 2530   4.125   3.011   4.225 -0.4889  0.4753 -1.1839
   35CHL1    H8 2531   4.022   3.034   4.259  0.1967 -1.3511  2.7374
   35CHL1   C14 2532   4.220   3.074   4.325 -0.3425  0.8990  1.0278
   35CHL1   H14 2533   4.317   3.037   4.284 -0.1216  3.0876 -0.6319
   35CHL1   C15 2534   4.228   3.017   4.466 -0.1872 -0.3575 -0.0135
   35CHL1  H15A 2535   4.122   3.022   4.500  0.1232  1.9070  0.8108
   35CHL1  H15B 2536   4.273   2.916   4.461 -1.3039 -0.8852  0.3258
   35CHL1   C16 2537   4.302   3.121   4.546 -0.2053  0.6998  0.6954
   35CHL1  H16A 2538   4.244   3.168   4.628 -1.7765 -0.4985  0.2999
   35CHL1  H16B 2539   4.396   3.082   4.590 -1.3095 -1.4304  1.2837
   35CHL1   C17 2540   4.330   3.243   4.448 -0.0083  0.0030 -0.1014
   35CHL1   H17 2541   4.425   3.209   4.399  1.0544 -1.0512  2.5244
   35CHL1   C13 2542   4.225   3.229   4.334  0.3721 -0.3047 -0.3640
   35CHL1   C18 2543   4.084   3.283   4.384  0.2310  0.4557 -0.2378
   35CHL1  H18A 2544   4.080   3.228   4.481  0.8883  0.3763 -0.2514
   35CHL1  H18B 2545   4.079   3.393   4.399  0.5268  0.7965 -2.3290
   35CHL1  H18C 2546   3.994   3.247   4.330  1.1505 -1.1137 -0.7895
   35CHL1   C12 2547   4.250   3.289   4.197  0.6441 -0.2663 -0.9818
   35CHL1  H12A 2548   4.260   3.399   4.203 -1.2652 -0.1477  1.2612
   35CHL1  H12B 2549   4.346   3.240   4.168  0.7020 -1.5993  1.1956
   35CHL1   C11 2550   4.152   3.241   4.091  0.5751  0.0480 -0.3511
   35CHL1  H11A 2551   4.052   3.284   4.113  0.4492  0.6125 -1.8924
   35CHL1  H11B 2552   4.175   3.284   3.991  1.4908  0.2959 -0.0489
   35CHL1    C9 2553   4.147   3.081   4.093  0.3427 -0.5689 -0.0897
   35CHL1    H9 2554   4.249   3.052   4.062  0.4699  0.3140 -0.5209
   35CHL1   C10 2555   4.042   3.025   3.990  0.5137 -0.3199 -0.8654
   35CHL1   C19 2556   3.903   3.097   4.009  0.4025 -0.3035 -0.0704
   35CHL1  H19A 2557   3.902   3.207   3.996 -0.7069 -0.2926  0.0356
   35CHL1  H19B 2558   3.819   3.059   3.947 -1.9955  2.5797  1.1430
   35CHL1  H19C 2559   3.872   3.088   4.115 -0.9561  0.7928 -0.3469
   35CHL1    C1 2560   4.083   3.048   3.843  0.4933  0.8162  0.9488
   35CHL1   H1A 2561   4.076   3.157   3.825 -1.1699  0.2211 -2.8566
   35CHL1   H1B 2562   4.188   3.020   3.822  0.1258  0.3749 -0.4081
   35CHL1    C2 2563   3.990   2.977   3.738 -0.4574 -0.3075  0.1803
   35CHL1   H2A 2564   4.022   2.983   3.632 -0.0701 -2.4613  0.1144
   35CHL1   H2B 2565   3.892   3.028   3.744 -0.1951  0.2532 -0.3151
   35CHL1   C20 2566   4.345   3.388   4.505  0.5343 -0.2314  0.6500
   35CHL1   H20 2567   4.325   3.458   4.422 -1.0820 -0.9582  0.4045
   35CHL1   C21 2568   4.493   3.399   4.549  0.7136 -0.9641 -0.1098
   35CHL1  H21A 2569   4.544   3.397   4.451 -0.3801 -0.5968 -0.6934
   35CHL1  H21B 2570   4.535   3.318   4.613 -0.1502 -2.3345 -1.2186
   35CHL1  H21C 2571   4.519   3.489   4.609  0.3989 -0.5180 -0.6356
   35CHL1   C22 2572   4.259   3.422   4.632 -0.8446 -0.0265  0.1556
   35CHL1  H22A 2573   4.154   3.388   4.619 -0.6427 -0.6662  0.1889
   35CHL1  H22B 2574   4.306   3.378   4.722  0.1829  0.1574 -0.2820
   35CHL1   C23 2575   4.248   3.576   4.645 -0.0314 -0.0300 -0.8389
   35CHL1  H23A 2576   4.349   3.623   4.645  0.5790 -1.2952 -0.2106
   35CHL1  H23B 2577   4.194   3.608   4.553  0.7298  1.4360 -0.8063
   35CHL1   C24 2578   4.163   3.625   4.768  0.2518  0.1531  0.7462
   35CHL1  H24A 2579   4.053   3.623   4.754  0.1218  3.3230  0.4372
   35CHL1  H24B 2580   4.182   3.561   4.857  0.5797 -0.8544 -0.0301
   35CHL1   C25 2581   4.207   3.763   4.822 -0.2815  0.1312  0.1121
   35CHL1   H25 2582   4.318   3.760   4.814 -0.2219 -0.1593  0.9609
   35CHL1   C26 2583   4.156   3.875   4.741 -0.5600  0.0637  0.0083
   35CHL1  H26A 2584   4.191   3.973   4.779  0.1889 -1.0933  2.5517
   35CHL1  H26B 2585   4.194   3.859   4.638  0.9370 -0.5638  0.6232
   35CHL1  H26C 2586   4.045   3.882   4.740 -0.5490  0.2065 -0.2948
   35CHL1   C27 2587   4.174   3.780   4.970  0.2102 -0.5383 -0.4645
   35CHL1  H27A 2588   4.212   3.877   5.008 -2.1694 -0.6674  2.5937
   35CHL1  H27B 2589   4.064   3.784   4.982  0.2409 -2.2872  0.9291
   35CHL1  H27C 2590   4.216   3.692   5.023  0.6106 -1.8016 -2.7270
   36CHL1    C3 2591   3.777   3.660   3.475  0.6299  0.2077  0.2904
   36CHL1    H3 2592   3.781   3.770   3.494 -3.0952  0.3551  0.8759
   36CHL1    O3 2593   3.760   3.637   3.334 -0.0711 -0.4803 -0.0397
   36CHL1   H3' 2594   3.690   3.699   3.310  1.0449  0.3487 -1.3281
   36CHL1    C4 2595   3.896   3.580   3.543  0.7715 -0.2949  0.3400
   36CHL1   H4A 2596   3.892   3.474   3.510 -1.7800 -0.4443  0.8710
   36CHL1   H4B 2597   3.993   3.603   3.493  0.4787 -1.8207 -1.0289
   36CHL1    C5 2598   3.899   3.595   3.693  0.8894  0.8647 -0.2735
   36CHL1    C6 2599   4.004   3.642   3.758  0.1985  0.3442  0.0792
   36CHL1    H6 2600   4.098   3.672   3.709  2.2184 -3.0495  1.5834
   36CHL1    C7 2601   4.015   3.661   3.906  0.0211  0.4132  0.3801
   36CHL1   H7A 2602   4.106   3.612   3.947 -1.0383 -0.2380  2.0812
   36CHL1   H7B 2603   4.016   3.767   3.937 -0.1668  0.2881  0.8227
   36CHL1    C8 2604   3.896   3.596   3.987 -0.7564  1.1822  0.3187
   36CHL1    H8 2605   3.920   3.487   3.985 -0.3801  1.2455 -2.0201
   36CHL1   C14 2606   3.896   3.647   4.134  0.7191  0.4031  0.8221
   36CHL1   H14 2607   3.880   3.754   4.111 -1.4996 -0.3928 -1.9174
   36CHL1   C15 2608   4.015   3.643   4.230 -0.9755 -0.2392 -0.6551
   36CHL1  H15A 2609   4.059   3.541   4.229 -1.3961 -0.4204 -0.6823
   36CHL1  H15B 2610   4.093   3.711   4.189 -1.2435 -0.6304 -1.8659
   36CHL1   C16 2611   3.955   3.679   4.364 -0.8415  0.0877  0.6379
   36CHL1  H16A 2612   3.973   3.600   4.441 -1.9966 -0.5591  0.2770
   36CHL1  H16B 2613   3.989   3.783   4.381  0.0129  0.0258 -0.5479
   36CHL1   C17 2614   3.798   3.685   4.349 -0.5789 -0.5582 -0.0044
   36CHL1   H17 2615   3.781   3.795   4.343 -0.1854 -0.5111 -0.3428
   36CHL1   C13 2616   3.774   3.615   4.219  0.6458  0.0100 -0.1057
   36CHL1   C18 2617   3.779   3.465   4.249  0.2693  0.4826  0.6780
   36CHL1  H18A 2618   3.674   3.440   4.272  0.5484  1.1126  2.9549
   36CHL1  H18B 2619   3.817   3.407   4.162 -0.6606  0.0823  0.5323
   36CHL1  H18C 2620   3.853   3.445   4.330 -0.9588 -0.5122  1.5981
   36CHL1   C12 2621   3.653   3.666   4.128  0.5355 -0.5852 -0.5912
   36CHL1  H12A 2622   3.557   3.656   4.185  1.9647  0.6047  2.2213
   36CHL1  H12B 2623   3.668   3.775   4.116  0.6401 -0.3226  1.4891
   36CHL1   C11 2624   3.647   3.586   4.001 -0.1019  0.4141  0.3518
   36CHL1  H11A 2625   3.662   3.477   4.014  0.2227  0.6061  1.7626
   36CHL1  H11B 2626   3.560   3.590   3.932  0.7475  2.0626 -0.6744
   36CHL1    C9 2627   3.770   3.623   3.918  0.4613  0.5246 -0.8717
   36CHL1    H9 2628   3.767   3.734   3.908 -0.9047  0.9971  2.9284
   36CHL1   C10 2629   3.770   3.565   3.765  0.0984  0.0283  0.2887
   36CHL1   C19 2630   3.752   3.410   3.769 -0.4250 -0.4208  0.6406
   36CHL1  H19A 2631   3.654   3.382   3.812 -0.7633  0.1455  0.2507
   36CHL1  H19B 2632   3.755   3.362   3.668 -1.5781 -0.4785  0.6205
   36CHL1  H19C 2633   3.835   3.368   3.831  0.6523  1.5819  0.6316
   36CHL1    C1 2634   3.650   3.625   3.691 -0.3555  0.0205 -0.1983
   36CHL1   H1A 2635   3.552   3.590   3.730  0.0800  0.0354  0.9495
   36CHL1   H1B 2636   3.643   3.734   3.710  0.5523 -0.0608  0.6677
   36CHL1    C2 2637   3.650   3.600   3.540 -0.6829 -0.2109 -1.0558
   36CHL1   H2A 2638   3.561   3.652   3.499 -1.5579  0.1992  1.1839
   36CHL1   H2B 2639   3.649   3.491   3.518  1.3260 -0.9862  2.0606
   36CHL1   C20 2640   3.725   3.632   4.477 -0.6315  0.1768  0.0383
   36CHL1   H20 2641   3.747   3.524   4.492 -1.1771 -0.0190 -0.5148
   36CHL1   C21 2642   3.571   3.653   4.464  0.1574  0.0279  0.8804
   36CHL1  H21A 2643   3.542   3.754   4.429 -2.2468 -0.1412  2.2013
   36CHL1  H21B 2644   3.522   3.634   4.562  1.3148 -2.2196  1.0940
   36CHL1  H21C 2645   3.536   3.581   4.387  3.9642  1.9343 -3.0068
   36CHL1   C22 2646   3.783   3.705   4.607 -0.1737  0.4729  0.5112
   36CHL1  H22A 2647   3.892   3.689   4.616 -0.5815 -3.7284  0.2371
   36CHL1  H22B 2648   3.752   3.811   4.599 -0.8308  0.3033  0.7821
   36CHL1   C23 2649   3.725   3.638   4.732  0.1880 -0.5852  0.4693
   36CHL1  H23A 2650   3.616   3.661   4.727  0.0147 -1.2635  0.9493
   36CHL1  H23B 2651   3.753   3.530   4.730  1.4140 -0.2926  0.8526
   36CHL1   C24 2652   3.766   3.714   4.866  0.1162 -0.5509  0.2522
   36CHL1  H24A 2653   3.875   3.732   4.869  0.1873 -0.8956 -0.1237
   36CHL1  H24B 2654   3.716   3.813   4.855 -1.4292 -1.3546 -0.3479
   36CHL1   C25 2655   3.728   3.646   4.997 -0.2326  1.1677 -1.1379
   36CHL1   H25 2656   3.622   3.614   4.992 -0.0657  0.4886 -0.4900
   36CHL1   C26 2657   3.810   3.521   5.032 -0.0383  0.2432 -0.4463
   36CHL1  H26A 2658   3.791   3.435   4.964 -1.2062  0.1069  0.0265
   36CHL1  H26B 2659   3.921   3.527   5.029  0.0061  0.3944  0.8899
   36CHL1  H26C 2660   3.781   3.490   5.135 -1.9724 -0.5916 -1.1927
   36CHL1   C27 2661   3.754   3.744   5.114  0.1344 -0.1412 -0.0789
   36CHL1  H27A 2662   3.742   3.701   5.216 -0.9796  4.3198  1.9253
   36CHL1  H27B 2663   3.857   3.787   5.114 -0.2115  1.0715  3.5082
   36CHL1  H27C 2664   3.676   3.823   5.107  1.0190  0.6210 -3.0318
   37CHL1    C3 2665   0.840   5.248   3.209 -0.1322  0.2939  0.3700
   37CHL1    H3 2666   0.927   5.293   3.260  2.3163 -3.3888 -0.1911
   37CHL1    O3 2667   0.873   5.251   3.073 -0.3252 -0.1918  0.0006
   37CHL1   H3' 2668   0.939   5.183   3.059  1.3036  1.6527 -1.9737
   37CHL1    C4 2669   0.837   5.103   3.259 -0.8796  0.1130  0.9595
   37CHL1   H4A 2670   0.767   5.051   3.190  0.2343 -0.8568  0.5340
   37CHL1   H4B 2671   0.939   5.061   3.250 -0.4341  0.8122  2.5045
   37CHL1    C5 2672   0.784   5.081   3.394  0.5209  0.7596  0.0066
   37CHL1    C6 2673   0.850   5.010   3.482 -0.6500  0.2591  0.2196
   37CHL1    H6 2674   0.951   4.978   3.454 -0.5868  1.1284 -0.5852
   37CHL1    C7 2675   0.797   4.967   3.615  0.2595 -0.0439  0.1623
   37CHL1   H7A 2676   0.816   4.860   3.638 -1.1214 -0.0642  1.3877
   37CHL1   H7B 2677   0.837   5.036   3.693 -1.9881  1.1385  0.3535
   37CHL1    C8 2678   0.642   4.984   3.605  0.0964  0.5920  0.5673
   37CHL1    H8 2679   0.592   4.912   3.537  0.0952  1.1335 -0.0245
   37CHL1   C14 2680   0.585   4.948   3.745 -0.1550 -0.4593  0.4216
   37CHL1   H14 2681   0.644   5.027   3.797  1.9122 -1.7046  0.0642
   37CHL1   C15 2682   0.612   4.813   3.811  0.2584 -0.5574  0.1617
   37CHL1  H15A 2683   0.594   4.732   3.737  0.2563  0.2616 -0.7491
   37CHL1  H15B 2684   0.716   4.798   3.847  1.4427  1.3064 -2.1986
   37CHL1   C16 2685   0.517   4.813   3.923  0.2944  0.3504  0.0740
   37CHL1  H16A 2686   0.446   4.728   3.923 -0.1877  0.7086 -1.6958
   37CHL1  H16B 2687   0.565   4.817   4.023 -1.0574  2.9791  0.7124
   37CHL1   C17 2688   0.437   4.946   3.925 -0.5852  0.4607 -0.7988
   37CHL1   H17 2689   0.489   5.023   3.986  0.8075  0.7938 -2.3226
   37CHL1   C13 2690   0.442   4.989   3.777  0.2664  0.3397  0.3044
   37CHL1   C18 2691   0.346   4.900   3.697 -0.5101 -1.0010 -0.1869
   37CHL1  H18A 2692   0.239   4.931   3.702 -0.8062 -1.8459 -1.1318
   37CHL1  H18B 2693   0.375   4.901   3.589  0.4242  1.5555  0.0117
   37CHL1  H18C 2694   0.366   4.794   3.720  3.4536 -0.5863 -1.0269
   37CHL1   C12 2695   0.436   5.140   3.745 -0.3147  0.0557 -0.3051
   37CHL1  H12A 2696   0.340   5.194   3.763 -0.7604  0.0393 -2.3342
   37CHL1  H12B 2697   0.510   5.193   3.809  0.4205 -0.8470 -0.3981
   37CHL1   C11 2698   0.467   5.175   3.595 -0.3793  0.7179 -0.7838
   37CHL1  H11A 2699   0.387   5.127   3.534 -1.0257 -1.2419  1.4650
   37CHL1  H11B 2700   0.465   5.285   3.578 -0.4616  0.7054 -0.8545
   37CHL1    C9 2701   0.614   5.125   3.562  0.0992  0.1123  0.8193
   37CHL1    H9 2702   0.683   5.193   3.616 -1.3413  0.8177  1.8272
   37CHL1   C10 2703   0.649   5.139   3.414  0.1259 -0.1775 -0.2515
   37CHL1   C19 2704   0.539   5.077   3.325  0.2377  0.0031  0.1625
   37CHL1  H19A 2705   0.494   4.987   3.372 -0.7648  0.1874 -0.4060
   37CHL1  H19B 2706   0.460   5.153   3.306  0.9556  0.3536 -1.6313
   37CHL1  H19C 2707   0.573   5.054   3.222  3.1283  0.4145  0.9400
   37CHL1    C1 2708   0.651   5.291   3.376  0.0535 -0.0030 -0.8070
   37CHL1   H1A 2709   0.550   5.337   3.373 -0.1070  0.0129  2.1562
   37CHL1   H1B 2710   0.708   5.345   3.454 -2.6067 -0.2797  1.4712
   37CHL1    C2 2711   0.710   5.319   3.236  0.5055  0.5064  0.0217
   37CHL1   H2A 2712   0.726   5.429   3.238  0.1112  0.5576  0.8636
   37CHL1   H2B 2713   0.644   5.289   3.152  0.2239 -0.5943  0.6220
   37CHL1   C20 2714   0.302   4.932   4.003 -0.5315 -0.7424  0.3403
   37CHL1   H20 2715   0.250   4.851   3.947 -0.0407  0.0200 -1.2825
   37CHL1   C21 2716   0.230   5.070   3.992  1.0630 -0.0165  0.1557
   37CHL1  H21A 2717   0.133   5.065   4.047  1.0644  1.1051  0.2840
   37CHL1  H21B 2718   0.215   5.093   3.884  0.9511  0.9104  0.3647
   37CHL1  H21C 2719   0.296   5.149   4.033  1.3288  0.2639 -0.7967
   37CHL1   C22 2720   0.309   4.885   4.148 -0.5207 -0.0398 -0.0873
   37CHL1  H22A 2721   0.363   4.788   4.147 -3.0522 -1.5620  0.8734
   37CHL1  H22B 2722   0.367   4.958   4.208 -0.4863  0.4902 -0.7552
   37CHL1   C23 2723   0.175   4.859   4.224  0.1342  0.2474  0.4926
   37CHL1  H23A 2724   0.108   4.946   4.240 -1.4939 -0.6431 -1.0615
   37CHL1  H23B 2725   0.125   4.783   4.161  3.6545 -0.7390 -1.4010
   37CHL1   C24 2726   0.200   4.794   4.363  0.1454 -0.2792 -0.5524
   37CHL1  H24A 2727   0.309   4.772   4.364  0.4426  1.0991 -0.5801
   37CHL1  H24B 2728   0.158   4.868   4.434 -1.4556 -1.2314 -0.4549
   37CHL1   C25 2729   0.131   4.653   4.382  0.0904  0.3631  0.9764
   37CHL1   H25 2730   0.154   4.590   4.293 -1.0493  1.8818 -0.4635
   37CHL1   C26 2731   0.179   4.583   4.506  0.0154  0.4635  0.2815
   37CHL1  H26A 2732   0.182   4.646   4.597 -1.9908 -0.5491  1.1026
   37CHL1  H26B 2733   0.111   4.500   4.532 -1.3911  1.0085 -1.4480
   37CHL1  H26C 2734   0.281   4.542   4.489  1.2399  2.6294  1.8189
   37CHL1   C27 2735  -0.026   4.680   4.384  0.5607 -0.1182 -0.2533
   37CHL1  H27A 2736  -0.060   4.738   4.472 -0.1034  1.3929 -1.4525
   37CHL1  H27B 2737  -0.058   4.743   4.298  0.9193 -0.0996 -0.3724
   37CHL1  H27C 2738  -0.087   4.588   4.373 -1.9592  1.3280  0.6018
   38CHL1    C3 2739   2.932   1.587   3.715  0.4770  0.5178  0.9738
   38CHL1    H3 2740   2.823   1.578   3.695  0.9108 -0.5658 -1.1513
   38CHL1    O3 2741   2.996   1.605   3.592 -0.3310  0.0129  0.3652
   38CHL1   H3' 2742   3.086   1.592   3.623 -0.2125 -3.7420 -1.0016
   38CHL1    C4 2743   2.972   1.706   3.808  0.2901  0.1081 -0.0462
   38CHL1   H4A 2744   3.079   1.736   3.803  0.2085  0.3600 -0.3917
   38CHL1   H4B 2745   2.922   1.799   3.772 -1.0042 -0.9690 -1.1522
   38CHL1    C5 2746   2.918   1.676   3.945 -0.7176 -0.2760  0.8013
   38CHL1    C6 2747   2.842   1.762   4.011  0.7757  1.0256 -0.4756
   38CHL1    H6 2748   2.811   1.857   3.965 -1.9299  0.3408 -0.2191
   38CHL1    C7 2749   2.781   1.727   4.143 -0.1788  0.5511 -0.5898
   38CHL1   H7A 2750   2.759   1.819   4.202 -2.2640 -0.2249 -0.0844
   38CHL1   H7B 2751   2.681   1.685   4.118  0.1194 -0.0249 -0.8335
   38CHL1    C8 2752   2.862   1.628   4.228  0.4123  0.0247  0.1081
   38CHL1    H8 2753   2.949   1.682   4.270  0.6637 -2.6892  3.6304
   38CHL1   C14 2754   2.787   1.596   4.355  0.4011 -0.2702  0.2320
   38CHL1   H14 2755   2.689   1.551   4.327 -2.0474  3.2118  2.4035
   38CHL1   C15 2756   2.751   1.719   4.436 -0.7706  0.8844 -0.4419
   38CHL1  H15A 2757   2.831   1.794   4.449 -1.0805  1.0053  0.9218
   38CHL1  H15B 2758   2.661   1.765   4.389 -0.8175 -1.3493 -2.7996
   38CHL1   C16 2759   2.715   1.651   4.564  0.4307  0.6281 -0.4083
   38CHL1  H16A 2760   2.774   1.704   4.641  2.2122 -1.6289 -0.1112
   38CHL1  H16B 2761   2.607   1.667   4.585 -0.1929  1.3664 -3.6617
   38CHL1   C17 2762   2.762   1.506   4.565  0.2117  0.3967  0.7530
   38CHL1   H17 2763   2.673   1.445   4.539  1.6028 -2.1112  1.6028
   38CHL1   C13 2764   2.856   1.499   4.442  0.2088 -0.2945  0.0832
   38CHL1   C18 2765   2.990   1.549   4.484  0.8900 -0.5618 -0.2950
   38CHL1  H18A 2766   3.059   1.562   4.398 -1.1390 -0.7057 -1.9987
   38CHL1  H18B 2767   2.985   1.647   4.537 -1.4756 -1.0129  0.4252
   38CHL1  H18C 2768   3.048   1.492   4.560  3.4114  0.9918 -0.9229
   38CHL1   C12 2769   2.868   1.369   4.360  0.7111  0.2937  0.7388
   38CHL1  H12A 2770   2.919   1.284   4.410  1.7451  0.5103  0.0903
   38CHL1  H12B 2771   2.764   1.335   4.344  0.4064  0.8660  1.4371
   38CHL1   C11 2772   2.944   1.386   4.230  0.0613 -0.2438 -0.2835
   38CHL1  H11A 2773   3.051   1.403   4.254 -0.0514 -0.7778  0.6396
   38CHL1  H11B 2774   2.928   1.295   4.169  3.2691 -0.4057 -1.0625
   38CHL1    C9 2775   2.884   1.509   4.144  0.4826  0.1725 -0.7648
   38CHL1    H9 2776   2.781   1.476   4.119 -0.4478  2.2155  0.2140
   38CHL1   C10 2777   2.964   1.542   4.012  0.9984  0.1761  0.2156
   38CHL1   C19 2778   3.118   1.553   4.040 -0.0986 -0.4188 -0.2713
   38CHL1  H19A 2779   3.165   1.465   4.089  1.8177  1.6163  1.7849
   38CHL1  H19B 2780   3.166   1.569   3.941  0.9233 -1.6208  0.0037
   38CHL1  H19C 2781   3.140   1.644   4.101  1.1913  0.7857 -2.4187
   38CHL1    C1 2782   2.933   1.423   3.904  0.2835 -0.0092  0.1898
   38CHL1   H1A 2783   2.999   1.348   3.950  2.1848  1.3071 -0.2765
   38CHL1   H1B 2784   2.824   1.405   3.920  0.2068  0.9346  0.8373
   38CHL1    C2 2785   2.982   1.453   3.768  0.0149 -0.1840  0.6945
   38CHL1   H2A 2786   2.950   1.376   3.694 -2.5624  1.2185  0.2610
   38CHL1   H2B 2787   3.093   1.456   3.767  0.2122 -3.3863 -0.2587
   38CHL1   C20 2788   2.816   1.452   4.699  0.2913 -0.1876 -0.0493
   38CHL1   H20 2789   2.902   1.509   4.740  0.1136 -1.7027  2.7151
   38CHL1   C21 2790   2.866   1.308   4.686 -0.0746  0.3191  0.1813
   38CHL1  H21A 2791   2.796   1.237   4.636  0.0870 -0.7639  1.4273
   38CHL1  H21B 2792   2.885   1.271   4.789  2.6252 -3.0692 -1.3117
   38CHL1  H21C 2793   2.961   1.289   4.631  1.3020  1.5055  2.0420
   38CHL1   C22 2794   2.704   1.465   4.810 -0.9864 -0.6415 -0.4412
   38CHL1  H22A 2795   2.687   1.575   4.813 -4.0462 -1.0307 -0.1529
   38CHL1  H22B 2796   2.609   1.412   4.784 -1.2203 -1.3746  1.7285
   38CHL1   C23 2797   2.744   1.425   4.955 -0.4835  0.1305  0.7559
   38CHL1  H23A 2798   2.772   1.317   4.954  0.6357  0.3621 -2.0007
   38CHL1  H23B 2799   2.838   1.473   4.990 -0.8187 -0.7961  3.1456
   38CHL1   C24 2800   2.637   1.459   5.057 -0.1378  0.1498  0.1053
   38CHL1  H24A 2801   2.627   1.570   5.057  2.4216  0.4488  1.0150
   38CHL1  H24B 2802   2.544   1.411   5.021 -0.4386  1.0592 -0.3742
   38CHL1   C25 2803   2.674   1.407   5.196  0.0602 -0.1469  0.6173
   38CHL1   H25 2804   2.784   1.409   5.213  0.3864 -2.6227 -0.7572
   38CHL1   C26 2805   2.598   1.489   5.303  0.0870  0.1708 -0.5507
   38CHL1  H26A 2806   2.619   1.441   5.401 -0.5734 -0.2218 -0.6044
   38CHL1  H26B 2807   2.634   1.595   5.302  1.7923 -0.3062  1.4222
   38CHL1  H26C 2808   2.489   1.493   5.284  0.0137 -0.3435 -0.2500
   38CHL1   C27 2809   2.640   1.260   5.205  0.0172 -0.4309  0.5982
   38CHL1  H27A 2810   2.694   1.195   5.132  0.0160 -2.2148  2.1083
   38CHL1  H27B 2811   2.651   1.221   5.308 -3.0029  0.6637  1.4311
   38CHL1  H27C 2812   2.533   1.247   5.176 -0.1339 -0.5991  1.2137
   39CHL1    C3 2813   2.237   3.236   2.977  0.0252 -0.4047 -0.7253
   39CHL1    H3 2814   2.338   3.220   3.021  0.5371 -1.1195 -2.0599
   39CHL1    O3 2815   2.262   3.240   2.839 -0.0142  0.4539 -0.2122
   39CHL1   H3' 2816   2.311   3.321   2.821 -0.9511  0.5107 -2.9277
   39CHL1    C4 2817   2.147   3.115   3.007  0.2077  0.1836 -0.3195
   39CHL1   H4A 2818   2.055   3.120   2.945 -0.7943 -1.5017  0.9326
   39CHL1   H4B 2819   2.191   3.017   2.976  2.4044  0.7652  0.7688
   39CHL1    C5 2820   2.106   3.099   3.156  0.0598 -0.2211 -0.7700
   39CHL1    C6 2821   2.136   2.989   3.223  0.5636  0.5509 -0.3284
   39CHL1    H6 2822   2.184   2.901   3.178 -1.3771 -0.7316 -0.0216
   39CHL1    C7 2823   2.096   2.965   3.365  0.5640  0.3957 -0.2515
   39CHL1   H7A 2824   2.040   2.869   3.372 -0.1097  0.8187  0.3374
   39CHL1   H7B 2825   2.184   2.964   3.433  2.1157  1.1352 -2.1506
   39CHL1    C8 2826   1.998   3.073   3.425  1.0480 -0.4603  0.0269
   39CHL1    H8 2827   1.896   3.063   3.383  0.2692  2.3066  1.0180
   39CHL1   C14 2828   1.985   3.069   3.581  0.8699  0.3207  0.3827
   39CHL1   H14 2829   2.085   3.100   3.619  0.2488  0.9590  1.5402
   39CHL1   C15 2830   1.946   2.936   3.641 -0.0975  0.1751  0.1772
   39CHL1  H15A 2831   1.859   2.892   3.588  1.1886 -0.1414 -1.8248
   39CHL1  H15B 2832   2.032   2.873   3.609 -1.9034 -1.9443 -0.6903
   39CHL1   C16 2833   1.926   2.972   3.789  0.9298  1.2882  0.4454
   39CHL1  H16A 2834   1.835   2.923   3.828  0.1639  1.0272 -1.5437
   39CHL1  H16B 2835   2.013   2.934   3.846  0.2540  0.3676  0.8816
   39CHL1   C17 2836   1.923   3.131   3.797  1.1477 -0.3851  0.1709
   39CHL1   H17 2837   2.022   3.165   3.833 -0.5499  1.0870  4.0056
   39CHL1   C13 2838   1.891   3.171   3.646 -0.6802 -0.6964  0.6240
   39CHL1   C18 2839   1.748   3.165   3.615  0.2538  0.8114 -0.0466
   39CHL1  H18A 2840   1.685   3.081   3.650 -0.2052  0.8238 -0.8077
   39CHL1  H18B 2841   1.701   3.256   3.657 -3.8024 -0.1162 -2.1332
   39CHL1  H18C 2842   1.737   3.178   3.505  1.4295  1.3314 -0.1298
   39CHL1   C12 2843   1.954   3.311   3.611  0.0809 -0.5163  0.0844
   39CHL1  H12A 2844   1.901   3.393   3.664  0.8291  1.0252 -1.4643
   39CHL1  H12B 2845   2.061   3.311   3.642 -0.2641  1.5532  1.4611
   39CHL1   C11 2846   1.965   3.334   3.457 -0.1660  0.2488 -0.2506
   39CHL1  H11A 2847   1.860   3.335   3.420  0.4055  0.4486 -1.9972
   39CHL1  H11B 2848   1.998   3.435   3.425 -1.8469  1.7448  2.3594
   39CHL1    C9 2849   2.047   3.210   3.384 -0.2997 -0.6468 -0.3899
   39CHL1    H9 2850   2.147   3.224   3.430 -0.5771 -1.4415  0.5058
   39CHL1   C10 2851   2.047   3.220   3.229  0.0480  0.3183  0.0539
   39CHL1   C19 2852   1.891   3.242   3.189 -0.6566 -0.3763 -0.1675
   39CHL1  H19A 2853   1.862   3.346   3.215 -0.9476 -0.9863  2.1830
   39CHL1  H19B 2854   1.883   3.241   3.078  2.3062  1.0444 -0.4740
   39CHL1  H19C 2855   1.821   3.163   3.223  0.1016 -1.4644 -1.0570
   39CHL1    C1 2856   2.132   3.353   3.187  0.0439  0.2759  0.0409
   39CHL1   H1A 2857   2.088   3.451   3.215  0.0296  1.1192 -2.6694
   39CHL1   H1B 2858   2.233   3.345   3.232  0.7063  0.7031 -1.3068
   39CHL1    C2 2859   2.168   3.363   3.034 -0.3377 -0.0772 -0.4395
   39CHL1   H2A 2860   2.239   3.448   3.027  1.9655 -1.6861  1.5358
   39CHL1   H2B 2861   2.078   3.375   2.971 -0.0964 -0.4138 -0.8521
   39CHL1   C20 2862   1.822   3.179   3.907 -0.6371  0.3385 -0.6745
   39CHL1   H20 2863   1.725   3.129   3.883 -0.1068 -0.7720 -0.6018
   39CHL1   C21 2864   1.799   3.333   3.905 -0.1786 -0.1841 -0.0138
   39CHL1  H21A 2865   1.767   3.368   4.006  1.3781  1.4446 -0.0353
   39CHL1  H21B 2866   1.719   3.369   3.837  1.2100  1.5770 -0.7875
   39CHL1  H21C 2867   1.895   3.385   3.888 -1.6897  2.5056 -1.0021
   39CHL1   C22 2868   1.858   3.119   4.043 -0.1828 -0.6691  0.1876
   39CHL1  H22A 2869   1.764   3.114   4.102  0.4112 -0.9683  1.1322
   39CHL1  H22B 2870   1.886   3.012   4.039  0.3888 -0.4859 -0.9141
   39CHL1   C23 2871   1.955   3.206   4.114  0.3882  0.7045 -0.0967
   39CHL1  H23A 2872   2.036   3.239   4.045 -0.3723  2.2902 -0.2889
   39CHL1  H23B 2873   1.914   3.304   4.147  2.4330  1.2369  1.0203
   39CHL1   C24 2874   2.009   3.127   4.239  0.3768 -0.4162  0.8559
   39CHL1  H24A 2875   2.064   3.045   4.187  0.8361  0.5356 -0.1916
   39CHL1  H24B 2876   2.084   3.183   4.299  1.3160 -0.5398 -0.1661
   39CHL1   C25 2877   1.899   3.066   4.333 -0.1894  0.1385 -0.0801
   39CHL1   H25 2878   1.844   2.989   4.275  1.1102 -0.9017  0.0258
   39CHL1   C26 2879   1.969   2.976   4.441 -0.3405 -0.2534  0.1627
   39CHL1  H26A 2880   2.029   3.044   4.506  1.3082 -0.9213 -0.6221
   39CHL1  H26B 2881   1.893   2.921   4.500  0.6889 -1.6407  0.2303
   39CHL1  H26C 2882   2.040   2.902   4.399  0.3220  0.6961 -0.4440
   39CHL1   C27 2883   1.814   3.168   4.411 -0.0997  0.5365 -0.2469
   39CHL1  H27A 2884   1.721   3.120   4.449  2.0487 -1.9178  2.3509
   39CHL1  H27B 2885   1.883   3.213   4.485  0.4309 -0.9989  0.2113
   39CHL1  H27C 2886   1.779   3.248   4.342  2.2903  1.7092 -0.1943
   40CHL1    C3 2887   4.831   5.244   3.535  0.3541  1.1185 -0.4271
   40CHL1    H3 2888   4.881   5.344   3.534  0.6537  1.1549  3.5292
   40CHL1    O3 2889   4.748   5.194   3.434 -0.2484  0.4387 -0.4313
   40CHL1   H3' 2890   4.685   5.134   3.475 -1.5691  1.3879 -1.0110
   40CHL1    C4 2891   4.929   5.129   3.561  0.0417  0.1132  0.0474
   40CHL1   H4A 2892   4.868   5.037   3.569  0.4450 -0.0195  5.3946
   40CHL1   H4B 2893   5.000   5.123   3.477  1.8267 -0.3139  1.5172
   40CHL1    C5 2894   5.005   5.145   3.690  0.5591 -0.1169  0.0641
   40CHL1    C6 2895   5.139   5.146   3.690  0.0659 -0.1402 -0.1566
   40CHL1    H6 2896   5.182   5.135   3.590  0.7242 -1.1097  0.2238
   40CHL1    C7 2897   5.227   5.171   3.810  0.2123 -0.2853 -0.8075
   40CHL1   H7A 2898   5.313   5.101   3.813  1.1891  0.7989 -2.0115
   40CHL1   H7B 2899   5.273   5.272   3.806 -0.7370  0.1405 -1.2065
   40CHL1    C8 2900   5.149   5.144   3.942  0.7932  0.1142  0.1283
   40CHL1    H8 2901   5.128   5.035   3.939  1.3996 -0.0108  0.3477
   40CHL1   C14 2902   5.230   5.185   4.068 -0.9953 -0.4555  0.3309
   40CHL1   H14 2903   5.240   5.294   4.050 -1.4514 -0.3947  0.4163
   40CHL1   C15 2904   5.372   5.128   4.083  0.1169  0.5655 -0.7051
   40CHL1  H15A 2905   5.360   5.019   4.064 -1.5316  0.7097 -0.6534
   40CHL1  H15B 2906   5.444   5.173   4.012  1.0113  0.6027  0.1956
   40CHL1   C16 2907   5.402   5.155   4.235 -0.1644 -0.0573  0.2494
   40CHL1  H16A 2908   5.435   5.061   4.285 -3.1896 -0.9703  0.7561
   40CHL1  H16B 2909   5.480   5.234   4.239  0.2514 -0.2664 -2.2892
   40CHL1   C17 2910   5.278   5.218   4.291  0.3225  0.3318 -0.2422
   40CHL1   H17 2911   5.294   5.325   4.267 -1.3444  0.4498 -0.9414
   40CHL1   C13 2912   5.157   5.178   4.206 -0.2606  0.7066  0.1398
   40CHL1   C18 2913   5.133   5.023   4.235  0.9417 -0.6118 -0.2428
   40CHL1  H18A 2914   5.070   4.973   4.158 -0.2734  1.9113 -0.9846
   40CHL1  H18B 2915   5.231   4.970   4.236  0.6306 -1.1890  0.2191
   40CHL1  H18C 2916   5.085   5.014   4.334  0.4579  0.1865 -0.3974
   40CHL1   C12 2917   5.031   5.263   4.199  0.1595  0.8691 -0.2368
   40CHL1  H12A 2918   4.971   5.242   4.291 -0.7150 -0.5560 -1.0831
   40CHL1  H12B 2919   5.063   5.369   4.204 -0.0153  0.8703  2.2662
   40CHL1   C11 2920   4.940   5.239   4.082  0.0255  0.2489 -0.2113
   40CHL1  H11A 2921   4.884   5.145   4.101  0.3054  0.2191  0.5260
   40CHL1  H11B 2922   4.862   5.317   4.071  0.3304  0.3178 -2.3411
   40CHL1    C9 2923   5.009   5.215   3.940  0.0291  0.0519 -0.9199
   40CHL1    H9 2924   5.042   5.321   3.928 -2.0212  0.6596 -1.5285
   40CHL1   C10 2925   4.919   5.176   3.815 -0.4862  0.4455 -0.1090
   40CHL1   C19 2926   4.859   5.041   3.842 -0.0986  0.5481 -0.2074
   40CHL1  H19A 2927   4.798   5.013   3.754  0.0269  3.8053 -1.4619
   40CHL1  H19B 2928   4.932   4.959   3.858  0.2700  1.0575  0.8176
   40CHL1  H19C 2929   4.786   5.035   3.926  0.3869 -2.9139  0.1062
   40CHL1    C1 2930   4.822   5.287   3.779 -0.0062 -1.0566 -0.0120
   40CHL1   H1A 2931   4.756   5.307   3.866  0.2729  0.6352 -0.1616
   40CHL1   H1B 2932   4.882   5.378   3.755 -0.9602 -0.7413 -1.3430
   40CHL1    C2 2933   4.736   5.252   3.657  0.2242 -0.4145  1.1615
   40CHL1   H2A 2934   4.662   5.331   3.630  1.4871  0.3297 -0.2783
   40CHL1   H2B 2935   4.674   5.163   3.678  0.3175 -1.3501 -2.0135
   40CHL1   C20 2936   5.274   5.213   4.445  0.1503 -0.3412  0.1092
   40CHL1   H20 2937   5.303   5.110   4.476  1.2848  0.2990  1.2738
   40CHL1   C21 2938   5.129   5.248   4.496 -0.0613  0.1342 -0.0032
   40CHL1  H21A 2939   5.047   5.178   4.468 -0.4025  0.5337 -0.0224
   40CHL1  H21B 2940   5.102   5.351   4.463  0.1244  0.4608  0.8411
   40CHL1  H21C 2941   5.126   5.248   4.607  2.1178 -1.7653  0.1373
   40CHL1   C22 2942   5.375   5.308   4.518  0.1593  0.3622 -0.4125
   40CHL1  H22A 2943   5.476   5.290   4.475  0.6367 -0.1884  0.9043
   40CHL1  H22B 2944   5.351   5.414   4.499 -3.2726  0.4019  2.9834
   40CHL1   C23 2945   5.382   5.282   4.667  0.5947 -0.1843 -0.2033
   40CHL1  H23A 2946   5.298   5.320   4.729  0.3950 -1.9973  0.6821
   40CHL1  H23B 2947   5.385   5.172   4.677 -2.0720 -0.2345  0.9108
   40CHL1   C24 2948   5.516   5.315   4.745 -0.1007 -0.0836  0.2716
   40CHL1  H24A 2949   5.590   5.268   4.676 -0.6672 -1.1912  0.3926
   40CHL1  H24B 2950   5.533   5.423   4.760  1.4204 -0.0095 -1.5475
   40CHL1   C25 2951   5.525   5.249   4.882 -0.1748  0.7168 -0.3357
   40CHL1   H25 2952   5.464   5.156   4.882 -0.5956  0.7463  4.3587
   40CHL1   C26 2953   5.670   5.218   4.915  0.0117  0.1933  0.1388
   40CHL1  H26A 2954   5.747   5.291   4.881  0.9859 -1.9325 -2.5599
   40CHL1  H26B 2955   5.682   5.218   5.025 -1.3814 -1.0359  0.3237
   40CHL1  H26C 2956   5.702   5.117   4.881 -0.3497  0.0211  0.3046
   40CHL1   C27 2957   5.473   5.351   4.988  0.3292 -0.0383 -0.0067
   40CHL1  H27A 2958   5.440   5.304   5.083 -1.3941 -0.7409 -0.9094
   40CHL1  H27B 2959   5.553   5.426   5.008  1.7522 -1.7925  1.2429
   40CHL1  H27C 2960   5.383   5.410   4.959 -0.0864  0.1346  1.5320
   41CHL1    C3 2961   3.347   1.888   3.642  0.0313  0.3503 -0.2723
   41CHL1    H3 2962   3.252   1.833   3.629 -0.4642  1.0394  0.3958
   41CHL1    O3 2963   3.405   1.899   3.512  0.0855 -0.4018 -0.0080
   41CHL1   H3' 2964   3.447   1.816   3.486  0.6803 -0.4944  1.1745
   41CHL1    C4 2965   3.313   2.032   3.696  0.3384 -0.0941  0.6297
   41CHL1   H4A 2966   3.409   2.088   3.699  0.7494 -0.7478  0.1131
   41CHL1   H4B 2967   3.253   2.086   3.620  1.3032 -0.8785 -0.7349
   41CHL1    C5 2968   3.254   2.027   3.835  0.3864 -0.1023 -0.1255
   41CHL1    C6 2969   3.135   2.083   3.862  0.9255  0.3681 -0.2859
   41CHL1    H6 2970   3.076   2.137   3.786  0.9168 -1.1467 -1.3977
   41CHL1    C7 2971   3.066   2.079   4.001 -0.6883 -0.0497  0.3141
   41CHL1   H7A 2972   3.024   2.179   4.027 -1.1416  0.0053 -0.5783
   41CHL1   H7B 2973   2.991   1.998   3.994 -2.9397  1.7629  1.8447
   41CHL1    C8 2974   3.174   2.050   4.105  0.8924 -0.8475 -0.0216
   41CHL1    H8 2975   3.244   2.135   4.125  0.3520 -0.5467  0.6439
   41CHL1   C14 2976   3.097   2.021   4.230  0.0019 -0.1205 -1.0631
   41CHL1   H14 2977   3.048   1.923   4.215  0.3181 -1.1673  3.3325
   41CHL1   C15 2978   2.991   2.122   4.274  0.4276 -0.2280 -0.0566
   41CHL1  H15A 2979   3.044   2.219   4.267 -2.3459  1.2628 -2.4994
   41CHL1  H15B 2980   2.897   2.125   4.214  0.3217  3.5658  0.0392
   41CHL1   C16 2981   2.958   2.082   4.423 -0.4116  0.1698 -0.2174
   41CHL1  H16A 2982   2.941   2.174   4.482  0.9630 -1.6457  3.3681
   41CHL1  H16B 2983   2.862   2.026   4.432 -0.5661  0.7692  3.9380
   41CHL1   C17 2984   3.073   1.980   4.463  0.0665  0.2239  0.2138
   41CHL1   H17 2985   3.028   1.882   4.434  0.2934  1.0550 -3.3083
   41CHL1   C13 2986   3.188   1.991   4.351  0.5198  0.3147 -0.2216
   41CHL1   C18 2987   3.279   2.109   4.395 -0.3647  0.0733 -0.0977
   41CHL1  H18A 2988   3.221   2.202   4.412 -0.7530 -0.1323 -0.2995
   41CHL1  H18B 2989   3.334   2.091   4.490  1.1114 -0.7733 -1.0673
   41CHL1  H18C 2990   3.348   2.129   4.310  0.4334  2.0896  0.9542
   41CHL1   C12 2991   3.271   1.864   4.314  0.4526 -0.3296 -1.0217
   41CHL1  H12A 2992   3.347   1.840   4.390  0.1309  1.3414 -0.1186
   41CHL1  H12B 2993   3.191   1.787   4.308  1.5068 -1.4971 -0.4849
   41CHL1   C11 2994   3.350   1.887   4.188  0.7364 -0.6170  0.4226
   41CHL1  H11A 2995   3.420   1.970   4.210  1.1738 -0.7744 -0.3122
   41CHL1  H11B 2996   3.400   1.790   4.165  0.0484 -0.6500 -1.0818
   41CHL1    C9 2997   3.259   1.929   4.065 -0.1908 -0.7491  0.2378
   41CHL1    H9 2998   3.182   1.848   4.059 -0.7035 -0.3073  0.8241
   41CHL1   C10 2999   3.340   1.946   3.943 -0.3286 -0.4646 -0.3812
   41CHL1   C19 3000   3.466   2.030   3.972  0.0334 -0.4643 -0.6674
   41CHL1  H19A 3001   3.552   1.969   4.007  2.4533  1.7664 -2.3583
   41CHL1  H19B 3002   3.514   2.080   3.885 -1.5935 -1.4646 -2.2067
   41CHL1  H19C 3003   3.443   2.114   4.041 -0.7206  1.5957 -3.2693
   41CHL1    C1 3004   3.374   1.804   3.879 -0.2562 -0.5707 -0.5678
   41CHL1   H1A 3005   3.444   1.745   3.942  0.9719  1.0435 -0.3440
   41CHL1   H1B 3006   3.278   1.752   3.860 -0.9007  0.3291  0.1529
   41CHL1    C2 3007   3.441   1.815   3.736 -0.0753  0.0115 -0.1175
   41CHL1   H2A 3008   3.457   1.717   3.687  1.9268 -0.1547  0.7326
   41CHL1   H2B 3009   3.542   1.862   3.746  0.4335  0.1219 -4.0095
   41CHL1   C20 3010   3.119   1.982   4.607 -0.1091 -0.2488 -0.3655
   41CHL1   H20 3011   3.178   2.074   4.624 -3.3039  1.9820 -0.4665
   41CHL1   C21 3012   3.201   1.862   4.659 -0.0169  0.8093  0.2006
   41CHL1  H21A 3013   3.142   1.768   4.653  2.6350 -0.9969  0.7580
   41CHL1  H21B 3014   3.240   1.869   4.763  0.0153 -2.0777  0.4537
   41CHL1  H21C 3015   3.286   1.856   4.588 -1.3418 -0.5252 -1.3538
   41CHL1   C22 3016   2.997   1.997   4.699  0.2273 -0.0284  0.2018
   41CHL1  H22A 3017   2.950   2.098   4.695 -1.4625 -0.7849  0.1918
   41CHL1  H22B 3018   2.912   1.931   4.671 -0.2949  0.5322  0.4299
   41CHL1   C23 3019   3.025   1.971   4.850 -0.7392  1.0840  0.1457
   41CHL1  H23A 3020   3.053   1.865   4.868  2.2331  2.0558  1.9091
   41CHL1  H23B 3021   3.116   2.032   4.869 -1.2150  1.4765  1.2234
   41CHL1   C24 3022   2.907   2.014   4.927  0.3987 -0.5684 -0.7987
   41CHL1  H24A 3023   2.868   2.115   4.900  0.2287 -0.8088 -1.4755
   41CHL1  H24B 3024   2.831   1.943   4.886  0.0055 -0.2902 -0.5542
   41CHL1   C25 3025   2.925   1.992   5.077 -0.5675  0.2909  0.0589
   41CHL1   H25 3026   3.024   2.027   5.113 -0.6335  2.2340 -1.4869
   41CHL1   C26 3027   2.823   2.080   5.156 -0.6502  0.0674  0.1218
   41CHL1  H26A 3028   2.840   2.189   5.158  1.1396 -0.1953  0.6955
   41CHL1  H26B 3029   2.720   2.071   5.116  0.3328 -0.1381 -2.5568
   41CHL1  H26C 3030   2.820   2.048   5.263 -0.4457 -0.5694 -0.0581
   41CHL1   C27 3031   2.906   1.837   5.123  0.3779  0.2908  0.1660
   41CHL1  H27A 3032   2.806   1.806   5.085  0.9479  0.1899 -1.3243
   41CHL1  H27B 3033   2.981   1.765   5.085 -0.8138 -1.3121  0.7440
   41CHL1  H27C 3034   2.910   1.841   5.234  1.2341 -0.5690  0.1806
   42CHL1    C3 3035   0.871   0.442   3.174  0.1627  0.2932  0.2450
   42CHL1    H3 3036   0.767   0.426   3.209  0.0849  1.6238  0.6552
   42CHL1    O3 3037   0.857   0.497   3.046  0.1228 -0.0549 -0.1102
   42CHL1   H3' 3038   0.946   0.520   3.020 -0.1078 -0.6890 -1.5641
   42CHL1    C4 3039   0.947   0.539   3.257  0.0530 -0.1633  0.2192
   42CHL1   H4A 3040   1.041   0.580   3.214  1.0985 -0.9487  1.6923
   42CHL1   H4B 3041   0.892   0.635   3.271  0.0133  0.0081 -1.0028
   42CHL1    C5 3042   0.972   0.472   3.391  0.0123  0.3797  0.4519
   42CHL1    C6 3043   0.938   0.535   3.505  0.0408  0.6114 -0.0021
   42CHL1    H6 3044   0.891   0.634   3.498  2.8101  1.9467 -1.3365
   42CHL1    C7 3045   0.955   0.482   3.642  0.5209 -0.1314  0.2973
   42CHL1   H7A 3046   0.985   0.555   3.720 -0.3192  0.4021  0.1264
   42CHL1   H7B 3047   0.862   0.432   3.675  1.1496  0.5087  3.3039
   42CHL1    C8 3048   1.057   0.363   3.647 -0.6475  0.6041 -0.3966
   42CHL1    H8 3049   1.157   0.409   3.634 -0.6170 -0.1119 -3.6646
   42CHL1   C14 3050   1.050   0.295   3.780 -0.3291  0.2052  0.5961
   42CHL1   H14 3051   0.950   0.249   3.793  0.2379 -1.6338 -1.0939
   42CHL1   C15 3052   1.066   0.382   3.899  0.0893  0.2092 -0.0384
   42CHL1  H15A 3053   1.145   0.459   3.887 -0.0990  0.6802  1.5398
   42CHL1  H15B 3054   0.980   0.451   3.909 -1.2594 -1.2996 -0.8607
   42CHL1   C16 3055   1.096   0.294   4.020  0.1672  0.1456  0.2643
   42CHL1  H16A 3056   1.197   0.325   4.055  0.5069  0.1363 -0.6813
   42CHL1  H16B 3057   1.016   0.297   4.097 -1.3676  1.7025 -1.3120
   42CHL1   C17 3058   1.115   0.153   3.956 -0.5264 -0.0579 -0.4647
   42CHL1   H17 3059   1.012   0.109   3.955 -1.1447  1.1982  1.5806
   42CHL1   C13 3060   1.145   0.185   3.803  0.3422 -0.0107 -0.3609
   42CHL1   C18 3061   1.296   0.234   3.791  0.7293 -0.0109 -0.1333
   42CHL1  H18A 3062   1.324   0.319   3.856 -0.6324 -0.0760  0.5725
   42CHL1  H18B 3063   1.365   0.150   3.816 -0.9092 -1.3856 -0.0056
   42CHL1  H18C 3064   1.321   0.262   3.686  2.2160 -0.2196  0.1372
   42CHL1   C12 3065   1.115   0.072   3.700  0.0737  0.1235  0.4193
   42CHL1  H12A 3066   1.195  -0.005   3.700  0.9865  1.0499 -0.2019
   42CHL1  H12B 3067   1.020   0.020   3.724  0.0411  0.6980  1.6210
   42CHL1   C11 3068   1.121   0.129   3.552 -0.0193  0.2292 -0.0626
   42CHL1  H11A 3069   1.227   0.145   3.524  0.2892 -1.1328  0.2939
   42CHL1  H11B 3070   1.078   0.052   3.485  2.5097 -0.8017 -0.6038
   42CHL1    C9 3071   1.033   0.261   3.532 -0.1929  0.1786  0.4021
   42CHL1    H9 3072   0.929   0.228   3.556  0.6316 -1.1605  2.4381
   42CHL1   C10 3073   1.037   0.328   3.388  0.2925  0.1601 -0.4167
   42CHL1   C19 3074   1.178   0.353   3.348  0.0677  0.2675  0.8890
   42CHL1  H19A 3075   1.232   0.256   3.344 -0.8866 -0.2831  0.9586
   42CHL1  H19B 3076   1.182   0.399   3.247  1.4696  0.1809  0.8826
   42CHL1  H19C 3077   1.232   0.428   3.409 -1.1766  0.3716  1.8851
   42CHL1    C1 3078   0.961   0.234   3.291 -0.1806 -0.3751  0.6670
   42CHL1   H1A 3079   1.012   0.144   3.251 -1.8692 -1.3636  0.6438
   42CHL1   H1B 3080   0.869   0.202   3.345  0.6128 -1.5174  1.3816
   42CHL1    C2 3081   0.943   0.307   3.156  0.3410  0.4905  0.2241
   42CHL1   H2A 3082   0.884   0.233   3.099 -1.0897  0.1691  2.0265
   42CHL1   H2B 3083   1.038   0.315   3.099  0.1134 -1.1111 -0.4440
   42CHL1   C20 3084   1.214   0.063   4.040  0.4943  0.8021 -0.4756
   42CHL1   H20 3085   1.321   0.087   4.023  0.4917  0.1953 -1.4774
   42CHL1   C21 3086   1.206  -0.081   3.987  0.2435 -0.1216  0.6954
   42CHL1  H21A 3087   1.223  -0.098   3.878  1.3875  0.3290  0.7832
   42CHL1  H21B 3088   1.106  -0.122   4.012 -0.8642  0.3838 -2.4440
   42CHL1  H21C 3089   1.282  -0.142   4.040  1.6663 -0.4695 -1.5912
   42CHL1   C22 3090   1.187   0.058   4.189  0.5386  0.0931 -0.4650
   42CHL1  H22A 3091   1.163   0.161   4.224 -1.0090 -0.1471 -0.7299
   42CHL1  H22B 3092   1.093  -0.000   4.197  1.1176 -0.6554  1.5028
   42CHL1   C23 3093   1.310   0.016   4.277  0.5620 -0.2592 -0.0354
   42CHL1  H23A 3094   1.362  -0.060   4.216 -0.4126 -1.4229  0.5424
   42CHL1  H23B 3095   1.376   0.105   4.288 -2.7134  2.4803 -0.6281
   42CHL1   C24 3096   1.270  -0.039   4.412  0.3620  0.2282 -0.2840
   42CHL1  H24A 3097   1.214   0.038   4.468 -0.3904 -0.9035  0.5480
   42CHL1  H24B 3098   1.202  -0.126   4.402  1.1439 -0.6896  1.8094
   42CHL1   C25 3099   1.388  -0.076   4.503 -0.3735 -0.5380 -0.6207
   42CHL1   H25 3100   1.466  -0.121   4.437  1.4339  2.2596 -0.5656
   42CHL1   C26 3101   1.451   0.052   4.566  0.0108 -0.0852  0.2158
   42CHL1  H26A 3102   1.528   0.035   4.644  1.6009  0.5374 -1.1627
   42CHL1  H26B 3103   1.501   0.102   4.480  0.7324 -3.6440 -1.6155
   42CHL1  H26C 3104   1.372   0.120   4.604  0.3009  1.4047 -1.6948
   42CHL1   C27 3105   1.350  -0.173   4.614 -0.3300  0.6588  0.5955
   42CHL1  H27A 3106   1.436  -0.200   4.679  0.3056 -0.3200 -0.6285
   42CHL1  H27B 3107   1.273  -0.130   4.683 -1.8819 -0.6603 -0.2344
   42CHL1  H27C 3108   1.307  -0.268   4.575  1.8717 -0.6667  1.2273
   43CHL1    C3 3109   6.145   5.828   6.324  0.1375  0.2981  0.6346
   43CHL1    H3 3110   6.057   5.892   6.302 -1.8764 -0.9274  4.2984
   43CHL1    O3 3111   6.195   5.853   6.451 -0.0218  0.1596 -0.0732
   43CHL1   H3' 3112   6.285   5.818   6.456  0.3807  1.1655 -0.0938
   43CHL1    C4 3113   6.103   5.677   6.317 -0.8593  0.5069 -0.2552
   43CHL1   H4A 3114   6.191   5.616   6.346 -0.2882 -0.4080 -3.4878
   43CHL1   H4B 3115   6.030   5.679   6.400 -1.9204  2.9500 -1.1466
   43CHL1    C5 3116   6.043   5.643   6.185  0.1017  0.1627  0.8029
   43CHL1    C6 3117   5.922   5.593   6.175 -0.7138 -0.0062  0.5554
   43CHL1    H6 3118   5.863   5.573   6.265  0.4598  1.6425  1.7694
   43CHL1    C7 3119   5.861   5.553   6.047  0.5563 -0.5478 -0.1603
   43CHL1   H7A 3120   5.819   5.451   6.049 -0.6472 -0.0507  0.5565
   43CHL1   H7B 3121   5.787   5.631   6.019  1.5760  0.9795  1.1372
   43CHL1    C8 3122   5.955   5.557   5.922 -0.1508  0.1330 -0.7103
   43CHL1    H8 3123   6.018   5.466   5.933  0.5434  0.8698  2.3043
   43CHL1   C14 3124   5.877   5.558   5.804  0.4800  0.5240  1.5051
   43CHL1   H14 3125   5.809   5.646   5.807 -3.3501 -1.8435 -2.5503
   43CHL1   C15 3126   5.780   5.434   5.774  0.1377  0.0516 -0.1635
   43CHL1  H15A 3127   5.839   5.344   5.803 -0.8729  0.3423  3.3119
   43CHL1  H15B 3128   5.700   5.443   5.850  0.4447 -1.0384  0.3171
   43CHL1   C16 3129   5.733   5.454   5.633  0.0135  0.0146  0.6736
   43CHL1  H16A 3130   5.745   5.359   5.576 -0.3454 -0.9618  2.1429
   43CHL1  H16B 3131   5.626   5.481   5.619 -0.0401 -0.5889 -0.1617
   43CHL1   C17 3132   5.823   5.562   5.576  0.2260 -0.4529 -0.0030
   43CHL1   H17 3133   5.762   5.654   5.581  2.1242  0.8309  0.3589
   43CHL1   C13 3134   5.950   5.576   5.667 -0.1207  0.5016 -0.1900
   43CHL1   C18 3135   6.051   5.461   5.642 -0.3070  0.4521 -0.4099
   43CHL1  H18A 3136   6.123   5.453   5.726 -0.7625 -1.2398 -0.1323
   43CHL1  H18B 3137   5.996   5.366   5.622 -0.7292  0.0714  2.2066
   43CHL1  H18C 3138   6.107   5.497   5.553  1.1774 -0.8592 -0.0621
   43CHL1   C12 3139   6.030   5.711   5.677 -0.3282 -0.2608  0.2638
   43CHL1  H12A 3140   6.092   5.740   5.589 -1.5447  2.0589  0.0854
   43CHL1  H12B 3141   5.959   5.796   5.689  0.7273  0.4417  1.9282
   43CHL1   C11 3142   6.126   5.709   5.799  0.0297  1.5420  0.1915
   43CHL1  H11A 3143   6.211   5.640   5.782 -0.7853  1.0029 -2.2284
   43CHL1  H11B 3144   6.169   5.810   5.812  0.6834  1.3611 -0.5033
   43CHL1    C9 3145   6.044   5.676   5.928 -0.4099 -1.0625 -0.7238
   43CHL1    H9 3146   5.977   5.765   5.930  0.4615 -0.3561 -1.8063
   43CHL1   C10 3147   6.130   5.679   6.061  0.2048  0.0334  0.4893
   43CHL1   C19 3148   6.246   5.580   6.037  0.1486 -0.2829 -0.0897
   43CHL1  H19A 3149   6.312   5.625   5.959 -0.6512  0.6999 -0.2159
   43CHL1  H19B 3150   6.308   5.575   6.129 -1.2249 -2.3703  0.8109
   43CHL1  H19C 3151   6.214   5.476   6.014 -0.5020 -0.5821  1.9579
   43CHL1    C1 3152   6.186   5.828   6.081 -0.1529 -0.4693 -1.0509
   43CHL1   H1A 3153   6.269   5.843   6.009  1.9884 -1.1905  1.1412
   43CHL1   H1B 3154   6.100   5.897   6.068 -0.5042 -0.6983 -0.0735
   43CHL1    C2 3155   6.256   5.847   6.218  0.8556  0.5107  0.3829
   43CHL1   H2A 3156   6.305   5.947   6.224 -0.7504  1.4823 -1.6522
   43CHL1   H2B 3157   6.337   5.774   6.239 -1.6669 -2.2728  1.0183
   43CHL1   C20 3158   5.846   5.537   5.421 -0.4986  0.3586 -0.5217
   43CHL1   H20 3159   5.898   5.440   5.405 -1.9750 -0.4288 -0.7204
   43CHL1   C21 3160   5.929   5.643   5.369 -0.4640 -0.5601 -0.3425
   43CHL1  H21A 3161   6.023   5.659   5.426  0.1609  0.9556 -1.7409
   43CHL1  H21B 3162   5.875   5.739   5.356 -1.3543 -0.8483  1.0340
   43CHL1  H21C 3163   5.943   5.602   5.266 -2.5826 -1.4383 -0.3354
   43CHL1   C22 3164   5.719   5.518   5.331  0.1254  0.2205  0.8076
   43CHL1  H22A 3165   5.737   5.498   5.223 -0.4777 -1.7000  1.0296
   43CHL1  H22B 3166   5.671   5.422   5.359 -0.9426  0.3230 -0.5772
   43CHL1   C23 3167   5.606   5.621   5.347  0.4123 -0.4350 -0.0488
   43CHL1  H23A 3168   5.567   5.616   5.451 -0.4585  2.1309 -0.1777
   43CHL1  H23B 3169   5.647   5.724   5.348 -3.9995  1.5633 -1.8238
   43CHL1   C24 3170   5.496   5.609   5.238 -0.0212  0.2486 -0.1037
   43CHL1  H24A 3171   5.541   5.602   5.136 -1.2671  2.0892 -0.8363
   43CHL1  H24B 3172   5.467   5.502   5.237  1.0969 -0.0758 -1.5200
   43CHL1   C25 3173   5.379   5.707   5.245  0.3946  0.8406 -0.0316
   43CHL1   H25 3174   5.341   5.717   5.348  0.4257  3.4531 -0.1912
   43CHL1   C26 3175   5.423   5.850   5.214  0.8883 -0.6896 -0.0713
   43CHL1  H26A 3176   5.482   5.878   5.304 -0.0364 -4.0116  1.7511
   43CHL1  H26B 3177   5.484   5.853   5.121  1.2154  1.9941  0.1600
   43CHL1  H26C 3178   5.346   5.928   5.197  1.4606 -0.2619 -0.7374
   43CHL1   C27 3179   5.269   5.667   5.148 -0.3752  0.4218 -0.4144
   43CHL1  H27A 3180   5.320   5.665   5.049 -1.9190 -0.0520 -1.2353
   43CHL1  H27B 3181   5.239   5.562   5.170  0.9230 -0.2422 -1.5976
   43CHL1  H27C 3182   5.181   5.734   5.148 -1.6303 -1.1037  2.1350
   44CHL1    C3 3183   2.630   3.021   3.106 -0.0558  0.1213 -1.1864
   44CHL1    H3 3184   2.688   2.928   3.124 -0.0235  0.5159  0.9645
   44CHL1    O3 3185   2.622   3.053   2.972  0.3244  0.2545 -0.3025
   44CHL1   H3' 3186   2.683   3.126   2.957  0.0742  0.2822 -1.2305
   44CHL1    C4 3187   2.490   2.992   3.160 -0.2718  0.1423  0.4212
   44CHL1   H4A 3188   2.428   3.083   3.148 -3.6211 -1.6133  2.8416
   44CHL1   H4B 3189   2.440   2.907   3.109  0.9283 -1.9026  2.4782
   44CHL1    C5 3190   2.501   2.980   3.314 -0.0548  1.1366 -0.6774
   44CHL1    C6 3191   2.446   2.872   3.374 -0.5434 -0.1977 -0.2361
   44CHL1    H6 3192   2.398   2.790   3.318  0.5682 -1.5736  0.7385
   44CHL1    C7 3193   2.431   2.870   3.529 -0.0931  0.1803  0.2286
   44CHL1   H7A 3194   2.324   2.850   3.549 -0.3911  2.0861  0.7389
   44CHL1   H7B 3195   2.484   2.791   3.587 -0.3941 -0.6521 -0.6152
   44CHL1    C8 3196   2.453   3.000   3.598 -0.4931 -0.3427 -1.4931
   44CHL1    H8 3197   2.369   3.071   3.584 -0.0404  1.4575  3.2069
   44CHL1   C14 3198   2.461   2.980   3.745 -0.2250  0.4557 -1.2329
   44CHL1   H14 3199   2.551   2.917   3.757 -0.5573 -0.2692 -2.4010
   44CHL1   C15 3200   2.347   2.903   3.810  0.1647  0.4697 -0.0370
   44CHL1  H15A 3201   2.248   2.935   3.771 -0.7493 -2.2384 -0.1453
   44CHL1  H15B 3202   2.365   2.794   3.809 -1.5873  0.1245  1.2187
   44CHL1   C16 3203   2.352   2.946   3.961 -0.5761  0.4416 -0.0688
   44CHL1  H16A 3204   2.260   3.002   3.990  2.1900  3.9154  2.8661
   44CHL1  H16B 3205   2.375   2.864   4.031 -0.3498 -0.1134 -0.7758
   44CHL1   C17 3206   2.470   3.053   3.978 -0.4245  0.7911 -0.4502
   44CHL1   H17 3207   2.560   2.989   3.991 -1.3636 -0.4815  0.0957
   44CHL1   C13 3208   2.487   3.107   3.830  1.1109 -0.4415  0.8194
   44CHL1   C18 3209   2.381   3.221   3.817 -0.1690  0.4800 -0.0870
   44CHL1  H18A 3210   2.385   3.255   3.711  1.0892  1.0947  0.1282
   44CHL1  H18B 3211   2.279   3.196   3.851  0.4916 -0.5806  1.2061
   44CHL1  H18C 3212   2.417   3.304   3.882  1.6098 -0.0609 -0.3199
   44CHL1   C12 3213   2.630   3.155   3.787  0.5288 -0.1034  0.1827
   44CHL1  H12A 3214   2.671   3.244   3.839 -0.6216  1.3935 -1.3957
   44CHL1  H12B 3215   2.695   3.067   3.807  1.4315 -0.0889 -2.4056
   44CHL1   C11 3216   2.634   3.182   3.637  0.4731 -0.6525  0.8251
   44CHL1  H11A 3217   2.581   3.277   3.616  1.5814 -0.5007 -1.7537
   44CHL1  H11B 3218   2.740   3.202   3.612 -0.1450  1.3130 -0.3858
   44CHL1    C9 3219   2.582   3.063   3.547 -0.0208 -0.3153  0.0883
   44CHL1    H9 3220   2.654   2.979   3.557  0.4460 -0.1866 -1.8233
   44CHL1   C10 3221   2.568   3.092   3.395 -0.0489 -0.2697  0.4077
   44CHL1   C19 3222   2.487   3.231   3.367  0.0324 -0.1812  0.3958
   44CHL1  H19A 3223   2.466   3.245   3.259 -1.8774  1.4591  0.9245
   44CHL1  H19B 3224   2.388   3.229   3.417  0.3037  0.0112  0.9542
   44CHL1  H19C 3225   2.551   3.316   3.400  0.8707 -1.4258  2.1583
   44CHL1    C1 3226   2.712   3.104   3.328 -0.0552  0.1857  0.2616
   44CHL1   H1A 3227   2.767   3.188   3.376 -0.3517  0.9184 -0.6444
   44CHL1   H1B 3228   2.771   3.012   3.345 -0.9604 -0.3645  0.4825
   44CHL1    C2 3229   2.710   3.129   3.171  0.6463 -0.0132 -0.2250
   44CHL1   H2A 3230   2.809   3.132   3.122  0.0496  2.2967 -1.4319
   44CHL1   H2B 3231   2.654   3.224   3.158  1.6079  0.2251 -3.2043
   44CHL1   C20 3232   2.458   3.143   4.099 -0.1780 -0.0896  0.3970
   44CHL1   H20 3233   2.357   3.191   4.096  0.3671  1.1213  0.8935
   44CHL1   C21 3234   2.568   3.248   4.097 -0.1804 -0.3232  0.1862
   44CHL1  H21A 3235   2.572   3.302   4.194  1.3705  1.6511 -0.8850
   44CHL1  H21B 3236   2.548   3.330   4.025 -0.9228  0.2293  1.0081
   44CHL1  H21C 3237   2.670   3.206   4.081  0.5657  1.7431 -0.9195
   44CHL1   C22 3238   2.471   3.050   4.221 -0.6716 -0.9172  0.4433
   44CHL1  H22A 3239   2.389   2.979   4.198 -0.4842 -1.1977  0.6337
   44CHL1  H22B 3240   2.567   2.996   4.235  0.0486 -0.0259 -0.8511
   44CHL1   C23 3241   2.450   3.112   4.355  0.1264  0.4566  0.7958
   44CHL1  H23A 3242   2.546   3.144   4.401 -0.1568 -0.6979  2.2671
   44CHL1  H23B 3243   2.373   3.192   4.346 -1.9093 -1.3830  0.8466
   44CHL1   C24 3244   2.382   3.016   4.444 -0.0631  0.2541 -0.2312
   44CHL1  H24A 3245   2.279   2.994   4.407 -0.2444  0.6264  0.0441
   44CHL1  H24B 3246   2.437   2.919   4.442 -1.1561 -0.4110 -2.7646
   44CHL1   C25 3247   2.368   3.055   4.593 -0.1526  0.4014  0.3407
   44CHL1   H25 3248   2.466   3.032   4.640 -1.3907 -1.6557  2.1299
   44CHL1   C26 3249   2.309   3.195   4.612  0.5717  0.6046  0.0221
   44CHL1  H26A 3250   2.331   3.223   4.717  0.2895  0.8879  0.0071
   44CHL1  H26B 3251   2.353   3.272   4.545  0.5687  3.2489  2.8186
   44CHL1  H26C 3252   2.199   3.186   4.598  0.7198 -1.8224  0.0163
   44CHL1   C27 3253   2.276   2.956   4.671 -0.0898 -0.7599 -0.4541
   44CHL1  H27A 3254   2.320   2.854   4.674 -2.3511 -1.7802  2.0093
   44CHL1  H27B 3255   2.267   2.975   4.780  0.8150 -3.0793  0.0921
   44CHL1  H27C 3256   2.181   2.946   4.614 -0.1365  1.9093 -0.9833
   45CHL1    C3 3257   3.896   4.101   3.566  0.3510  0.1798 -0.1873
   45CHL1    H3 3258   3.963   4.184   3.535  1.2679 -0.5575 -0.2074
   45CHL1    O3 3259   3.835   4.028   3.459 -0.8576 -0.1246 -0.3262
   45CHL1   H3' 3260   3.780   4.088   3.408 -3.2078 -1.0932  0.8815
   45CHL1    C4 3261   3.978   4.004   3.657  0.2834  0.1593 -0.1221
   45CHL1   H4A 3262   3.923   3.907   3.659  2.7748 -1.3339 -0.0664
   45CHL1   H4B 3263   4.073   3.986   3.603  0.3342 -2.1011  0.6281
   45CHL1    C5 3264   4.000   4.047   3.798 -0.1369 -0.7996  0.4690
   45CHL1    C6 3265   4.126   4.028   3.850  0.1050 -0.3188  0.1075
   45CHL1    H6 3266   4.201   3.983   3.783  0.3546  0.5670 -0.2227
   45CHL1    C7 3267   4.169   4.074   3.984  0.1649  0.0292 -0.4004
   45CHL1   H7A 3268   4.226   3.995   4.036 -0.3538 -0.2777 -0.2920
   45CHL1   H7B 3269   4.224   4.171   3.986 -1.5295  1.0238  1.4900
   45CHL1    C8 3270   4.043   4.104   4.071  0.4140  0.1177 -0.1229
   45CHL1    H8 3271   3.999   4.006   4.098  0.5276  0.4782  1.4840
   45CHL1   C14 3272   4.093   4.180   4.195 -0.1610 -0.4416 -0.5136
   45CHL1   H14 3273   4.129   4.279   4.160 -2.7495  1.7757  2.5372
   45CHL1   C15 3274   4.213   4.133   4.277  0.0121 -0.0840 -0.8796
   45CHL1  H15A 3275   4.223   4.022   4.277  0.3426 -0.0746  1.0390
   45CHL1  H15B 3276   4.306   4.168   4.227  0.1697 -0.6608 -0.9976
   45CHL1   C16 3277   4.192   4.183   4.427 -0.2110  0.6903 -0.1306
   45CHL1  H16A 3278   4.160   4.100   4.493  0.2455  1.2023  0.7541
   45CHL1  H16B 3279   4.278   4.237   4.471  0.6922 -2.0613  1.7205
   45CHL1   C17 3280   4.075   4.287   4.407  0.5641 -0.3118 -0.3642
   45CHL1   H17 3281   4.131   4.374   4.366  0.5350 -0.9548 -1.8429
   45CHL1   C13 3282   3.985   4.226   4.291  0.0058  0.8126  0.4065
   45CHL1   C18 3283   3.910   4.108   4.337  0.3888 -0.1992 -0.5404
   45CHL1  H18A 3284   3.855   4.051   4.259 -0.4707 -0.6254  0.3603
   45CHL1  H18B 3285   3.972   4.034   4.392  0.3387  1.6138  2.1544
   45CHL1  H18C 3286   3.835   4.139   4.413 -0.1819 -0.6622 -0.9019
   45CHL1   C12 3287   3.899   4.326   4.218 -0.3827  0.7704 -0.5869
   45CHL1  H12A 3288   3.820   4.361   4.287  0.1970  1.0973 -0.0864
   45CHL1  H12B 3289   3.958   4.410   4.176 -0.9753  1.1247 -0.7255
   45CHL1   C11 3290   3.838   4.261   4.090  0.1157  0.0384 -0.2999
   45CHL1  H11A 3291   3.767   4.182   4.124  0.0438  1.1818  2.5305
   45CHL1  H11B 3292   3.779   4.334   4.031  0.5473 -0.0563 -0.8509
   45CHL1    C9 3293   3.948   4.194   3.997  0.0315 -0.4905 -0.6655
   45CHL1    H9 3294   4.004   4.280   3.955  3.3161 -1.9402  0.4038
   45CHL1   C10 3295   3.893   4.116   3.874  0.1106 -0.2078 -0.5932
   45CHL1   C19 3296   3.777   4.011   3.911 -0.3595 -0.1140  1.1529
   45CHL1  H19A 3297   3.695   4.071   3.958 -1.2611  0.1361 -0.6514
   45CHL1  H19B 3298   3.747   3.967   3.813  1.5043 -0.2747  0.6167
   45CHL1  H19C 3299   3.824   3.930   3.970  1.1203  0.3940  0.7149
   45CHL1    C1 3300   3.822   4.221   3.785  0.2944  0.6483  0.7589
   45CHL1   H1A 3301   3.735   4.265   3.839  0.0378  2.9243 -1.3554
   45CHL1   H1B 3302   3.899   4.299   3.765 -0.2177  1.0693  0.4009
   45CHL1    C2 3303   3.783   4.167   3.643 -0.1633 -0.4548  0.1296
   45CHL1   H2A 3304   3.735   4.256   3.599 -1.6731 -0.8261  0.9381
   45CHL1   H2B 3305   3.697   4.097   3.653 -1.0844  0.7061  0.5626
   45CHL1   C20 3306   4.013   4.334   4.540  0.2652 -0.3497  0.7342
   45CHL1   H20 3307   3.905   4.339   4.513  0.5069 -2.4065 -0.8132
   45CHL1   C21 3308   4.067   4.480   4.567 -0.5081 -0.0527 -0.6804
   45CHL1  H21A 3309   4.042   4.548   4.484  0.0466  0.5874 -0.3359
   45CHL1  H21B 3310   4.178   4.475   4.579 -0.3793 -0.6739 -1.9898
   45CHL1  H21C 3311   4.020   4.516   4.661 -0.8512 -2.3632  0.1135
   45CHL1   C22 3312   4.018   4.248   4.667 -0.0119 -0.1095 -0.0788
   45CHL1  H22A 3313   3.957   4.157   4.647  0.8939 -0.1666 -3.0568
   45CHL1  H22B 3314   4.124   4.223   4.688 -0.6565 -1.1153  2.3213
   45CHL1   C23 3315   3.967   4.309   4.798  0.1600 -0.1126 -0.0742
   45CHL1  H23A 3316   4.037   4.388   4.831  0.4237 -0.4743  0.2505
   45CHL1  H23B 3317   3.867   4.355   4.789  0.8306  1.3282 -0.3556
   45CHL1   C24 3318   3.963   4.219   4.921 -0.8697  0.5400  0.4200
   45CHL1  H24A 3319   3.907   4.129   4.890 -2.6482  1.6493  0.2741
   45CHL1  H24B 3320   4.066   4.191   4.950 -1.1691 -0.6648  0.3592
   45CHL1   C25 3321   3.896   4.279   5.041 -0.1753 -0.2424  0.2015
   45CHL1   H25 3322   3.797   4.316   5.006  0.1689 -0.2246 -0.8118
   45CHL1   C26 3323   3.878   4.174   5.150 -0.2233  0.3346  0.4727
   45CHL1  H26A 3324   3.977   4.146   5.193  0.0456  2.4645  1.4025
   45CHL1  H26B 3325   3.816   4.204   5.237 -0.7691 -1.1721  0.6161
   45CHL1  H26C 3326   3.832   4.076   5.127  2.7961 -0.9712 -0.5336
   45CHL1   C27 3327   3.964   4.404   5.110  0.1755  1.0974 -0.2710
   45CHL1  H27A 3328   3.978   4.489   5.040  0.5390  1.8200  0.6431
   45CHL1  H27B 3329   3.906   4.446   5.195  0.6863  0.4601  0.4092
   45CHL1  H27C 3330   4.063   4.372   5.150 -0.7860 -2.0078 -0.1752
   46CHL1    C3 3331   5.014   6.143   3.334  0.0934 -1.0126 -0.4215
   46CHL1    H3 3332   5.123   6.161   3.346  0.3352 -2.2328 -0.5571
   46CHL1    O3 3333   4.992   6.122   3.204 -0.3598  0.8246  1.1153
   46CHL1   H3' 3334   4.898   6.123   3.188 -0.2618 -0.0871  0.4216
   46CHL1    C4 3335   4.983   6.029   3.426 -0.1835 -0.2065  0.2105
   46CHL1   H4A 3336   4.884   5.991   3.396  0.6096 -1.4603 -0.9271
   46CHL1   H4B 3337   5.057   5.953   3.394  0.3579  0.3081  0.2129
   46CHL1    C5 3338   5.005   6.064   3.570  0.1631  0.4611 -0.1868
   46CHL1    C6 3339   5.093   5.997   3.644  0.1429 -0.1737  0.7446
   46CHL1    H6 3340   5.141   5.909   3.599  1.9208  0.4131  1.3868
   46CHL1    C7 3341   5.118   6.034   3.790  0.3913 -0.1151  0.3358
   46CHL1   H7A 3342   5.103   5.947   3.857 -0.0499 -0.6306 -0.4147
   46CHL1   H7B 3343   5.218   6.082   3.800  0.2743  0.6821 -1.7680
   46CHL1    C8 3344   5.029   6.134   3.865 -0.4635 -0.5040  0.4607
   46CHL1    H8 3345   4.934   6.081   3.888 -2.2883  1.3428 -2.1951
   46CHL1   C14 3346   5.095   6.191   3.987 -0.5337 -0.3232  0.0370
   46CHL1   H14 3347   5.188   6.238   3.950 -1.5530 -0.8901 -3.6863
   46CHL1   C15 3348   5.137   6.090   4.096 -0.0883  0.6466  0.0608
   46CHL1  H15A 3349   5.061   6.009   4.091  3.2629 -2.7077 -1.6416
   46CHL1  H15B 3350   5.225   6.028   4.066 -1.5834 -0.3875 -2.5073
   46CHL1   C16 3351   5.151   6.168   4.223  0.2247  0.3797 -0.4373
   46CHL1  H16A 3352   5.082   6.119   4.295 -0.8458 -0.6840 -2.1029
   46CHL1  H16B 3353   5.258   6.173   4.251  0.4926 -0.5609 -1.2069
   46CHL1   C17 3354   5.101   6.305   4.196 -0.0286 -0.1645 -0.6044
   46CHL1   H17 3355   5.185   6.373   4.172 -1.9950  1.4588 -3.4101
   46CHL1   C13 3356   5.013   6.297   4.069 -0.1273  0.3389  0.2213
   46CHL1   C18 3357   4.864   6.248   4.112 -0.6148  0.7358 -0.2580
   46CHL1  H18A 3358   4.816   6.332   4.166 -0.5031  0.3187  0.5021
   46CHL1  H18B 3359   4.793   6.235   4.027  0.4177  0.6715 -1.1316
   46CHL1  H18C 3360   4.874   6.149   4.161 -0.3178  0.9101  0.0348
   46CHL1   C12 3361   4.991   6.413   3.961 -0.7420  0.2026  0.3472
   46CHL1  H12A 3362   4.927   6.497   3.994 -1.9839 -1.0342  1.2365
   46CHL1  H12B 3363   5.092   6.453   3.936 -0.3528 -0.5633  0.6533
   46CHL1   C11 3364   4.920   6.362   3.830 -0.1298  0.4545 -0.4349
   46CHL1  H11A 3365   4.819   6.325   3.857 -0.7987  2.7694  0.4468
   46CHL1  H11B 3366   4.901   6.451   3.767 -0.6238  1.2661  0.8266
   46CHL1    C9 3367   4.989   6.245   3.761 -0.2190 -0.4458  0.2965
   46CHL1    H9 3368   5.085   6.290   3.729  0.5716 -1.3890  1.2431
   46CHL1   C10 3369   4.936   6.193   3.620  0.4365 -0.7807  0.5016
   46CHL1   C19 3370   4.782   6.172   3.620  0.0590 -0.3271 -0.5495
   46CHL1  H19A 3371   4.739   6.136   3.524  3.5936 -2.0102 -1.6810
   46CHL1  H19B 3372   4.773   6.096   3.700  0.8669 -1.7711 -1.7825
   46CHL1  H19C 3373   4.730   6.262   3.658  1.2761  0.2580 -0.2191
   46CHL1    C1 3374   4.961   6.304   3.520 -0.7597  0.5367 -0.2412
   46CHL1   H1A 3375   4.915   6.402   3.547 -1.0360 -0.0467  1.5262
   46CHL1   H1B 3376   5.068   6.331   3.510 -0.2322 -1.5856 -0.8670
   46CHL1    C2 3377   4.935   6.271   3.375  0.6013 -0.6814  0.0182
   46CHL1   H2A 3378   4.953   6.352   3.301  0.6970 -1.1804 -0.5161
   46CHL1   H2B 3379   4.831   6.232   3.367  0.8461 -1.3438  0.0271
   46CHL1   C20 3380   5.044   6.376   4.322  0.3437 -0.1271 -0.2737
   46CHL1   H20 3381   4.965   6.308   4.361  0.8491  0.4219  1.7947
   46CHL1   C21 3382   4.981   6.514   4.296 -0.0719  0.1867  0.5344
   46CHL1  H21A 3383   5.063   6.589   4.289 -0.9471  1.0745 -0.5339
   46CHL1  H21B 3384   4.921   6.557   4.379  0.5211  1.7362  0.1984
   46CHL1  H21C 3385   4.919   6.530   4.205 -1.0050 -0.3302  1.0643
   46CHL1   C22 3386   5.152   6.375   4.433 -0.6879 -0.5572  0.5540
   46CHL1  H22A 3387   5.189   6.271   4.450  0.0693 -0.5278 -0.7758
   46CHL1  H22B 3388   5.234   6.441   4.399 -0.9147 -0.1789  0.7442
   46CHL1   C23 3389   5.099   6.426   4.566 -0.6455  0.0439  0.1367
   46CHL1  H23A 3390   5.178   6.405   4.642 -0.8897  1.3440  0.7722
   46CHL1  H23B 3391   5.074   6.534   4.575 -0.8733 -0.1170  2.0513
   46CHL1   C24 3392   4.975   6.346   4.630  0.5249  0.4038 -0.0065
   46CHL1  H24A 3393   4.887   6.335   4.562  0.9801 -0.8893 -0.4210
   46CHL1  H24B 3394   4.998   6.243   4.664  0.0669  0.4792  0.5314
   46CHL1   C25 3395   4.915   6.424   4.757 -0.9028 -0.6203  0.1538
   46CHL1   H25 3396   4.864   6.513   4.716  0.5093 -0.8240 -2.2545
   46CHL1   C26 3397   4.793   6.354   4.819 -0.1054  0.3295  0.7268
   46CHL1  H26A 3398   4.818   6.247   4.836  0.6185  0.1071 -1.4402
   46CHL1  H26B 3399   4.755   6.401   4.913  2.5967  1.6867  1.2380
   46CHL1  H26C 3400   4.712   6.349   4.743  0.1941 -2.6580  0.4790
   46CHL1   C27 3401   5.019   6.454   4.865  0.1140  0.4837  0.3990
   46CHL1  H27A 3402   4.972   6.511   4.948  3.2811  1.0522  1.9541
   46CHL1  H27B 3403   5.063   6.361   4.908  1.4232  0.9304  0.0975
   46CHL1  H27C 3404   5.104   6.511   4.822 -0.6124  0.8207 -0.6182
   47CHL1    C3 3405   3.840   5.658   3.566 -0.1593 -0.1850  1.1105
   47CHL1    H3 3406   3.744   5.606   3.581  0.3802 -1.3686  0.5622
   47CHL1    O3 3407   3.843   5.718   3.440 -0.2097 -0.1241  0.4864
   47CHL1   H3' 3408   3.805   5.661   3.373  0.3089  1.1821 -0.9730
   47CHL1    C4 3409   3.873   5.770   3.672  0.6679  0.1745  0.0954
   47CHL1   H4A 3410   3.962   5.827   3.637  1.0357 -0.4811 -0.0442
   47CHL1   H4B 3411   3.787   5.840   3.664 -1.8409 -2.2893  3.0833
   47CHL1    C5 3412   3.891   5.711   3.808 -0.5647  0.1259 -0.0717
   47CHL1    C6 3413   3.812   5.748   3.910  0.3091 -0.0676  0.4258
   47CHL1    H6 3414   3.745   5.834   3.897  1.0690  0.5904  0.7388
   47CHL1    C7 3415   3.824   5.709   4.048 -0.6398 -0.2660 -0.9831
   47CHL1   H7A 3416   3.821   5.797   4.116  3.2359 -1.7765  1.4533
   47CHL1   H7B 3417   3.748   5.635   4.080  0.0563 -0.6776 -0.2490
   47CHL1    C8 3418   3.964   5.642   4.077  1.3297 -0.5868 -0.1703
   47CHL1    H8 3419   4.039   5.724   4.080  0.6361  0.0715 -0.4500
   47CHL1   C14 3420   3.971   5.585   4.221 -0.0632 -0.3536 -0.0959
   47CHL1   H14 3421   3.892   5.508   4.208 -1.1600  1.0138 -1.9458
   47CHL1   C15 3422   3.928   5.670   4.340 -0.3080 -0.2162  0.0414
   47CHL1  H15A 3423   3.973   5.771   4.334 -0.7369  0.1204  1.8894
   47CHL1  H15B 3424   3.820   5.696   4.349  0.0831  1.5497  0.0492
   47CHL1   C16 3425   3.973   5.589   4.458  0.6310  0.4573  1.0171
   47CHL1  H16A 3426   4.032   5.663   4.516  0.4510  1.0233  0.4891
   47CHL1  H16B 3427   3.882   5.565   4.517  1.5440  0.5444  2.5021
   47CHL1   C17 3428   4.059   5.468   4.399 -0.6953  0.4711 -0.3564
   47CHL1   H17 3429   3.998   5.375   4.396  1.4217 -0.9553 -3.2372
   47CHL1   C13 3430   4.097   5.501   4.257 -0.1484 -0.1997  0.3072
   47CHL1   C18 3431   4.223   5.598   4.232  0.2812 -0.2049  0.7919
   47CHL1  H18A 3432   4.319   5.545   4.247  1.2892  1.0647 -0.8405
   47CHL1  H18B 3433   4.229   5.623   4.124 -0.5817 -0.1176  0.7561
   47CHL1  H18C 3434   4.226   5.695   4.286  0.0298  1.3290 -1.7807
   47CHL1   C12 3435   4.086   5.381   4.160  0.0681  0.0261  0.1899
   47CHL1  H12A 3436   4.162   5.301   4.175  0.0729  0.2014  1.1922
   47CHL1  H12B 3437   3.986   5.334   4.169  0.3971 -1.2123 -1.9145
   47CHL1   C11 3438   4.100   5.428   4.011 -0.0679 -0.1207  0.5590
   47CHL1  H11A 3439   4.199   5.474   3.990  0.1967 -0.1867  1.5881
   47CHL1  H11B 3440   4.091   5.330   3.958 -1.1619 -0.9621  2.2053
   47CHL1    C9 3441   3.992   5.534   3.968  0.4540 -0.1529  0.3697
   47CHL1    H9 3442   3.895   5.480   3.960  0.1937  0.4581 -0.7868
   47CHL1   C10 3443   3.993   5.596   3.826  0.0330  0.6917 -0.7355
   47CHL1   C19 3444   4.130   5.651   3.785 -0.2580  0.0101  0.2033
   47CHL1  H19A 3445   4.148   5.743   3.844 -1.6325  0.6295 -0.2903
   47CHL1  H19B 3446   4.204   5.570   3.796  0.4636  0.5356 -0.5907
   47CHL1  H19C 3447   4.143   5.690   3.682 -0.7896  3.0518  1.1879
   47CHL1    C1 3448   3.953   5.492   3.721  0.0004  0.0892  0.2766
   47CHL1   H1A 3449   4.026   5.408   3.725 -1.2603 -1.0263  0.5357
   47CHL1   H1B 3450   3.853   5.445   3.730  0.6562 -0.9976  2.4193
   47CHL1    C2 3451   3.945   5.545   3.571  0.4580 -0.2379  0.7650
   47CHL1   H2A 3452   3.909   5.464   3.505 -3.9918  2.7159 -0.9125
   47CHL1   H2B 3453   4.045   5.580   3.538  0.1225  2.3260  2.1831
   47CHL1   C20 3454   4.178   5.432   4.489 -0.1149  0.6566  0.4637
   47CHL1   H20 3455   4.239   5.525   4.493  2.0245 -0.4863 -2.4818
   47CHL1   C21 3456   4.268   5.329   4.427  0.2511 -0.2941  0.5784
   47CHL1  H21A 3457   4.329   5.369   4.343  1.6893 -1.1171  1.1992
   47CHL1  H21B 3458   4.210   5.238   4.403 -1.3999  0.8799 -0.0238
   47CHL1  H21C 3459   4.340   5.289   4.502  1.5915  0.4882 -0.2431
   47CHL1   C22 3460   4.136   5.382   4.627 -0.1204  0.4221  0.0074
   47CHL1  H22A 3461   4.043   5.433   4.661  1.0286  1.6205  1.5290
   47CHL1  H22B 3462   4.098   5.278   4.624  1.6952 -0.3012  0.8330
   47CHL1   C23 3463   4.243   5.381   4.742  0.1049 -0.6728 -0.0620
   47CHL1  H23A 3464   4.332   5.320   4.716 -0.9670 -2.0913 -0.4993
   47CHL1  H23B 3465   4.269   5.489   4.740 -0.0014 -0.6615 -1.7146
   47CHL1   C24 3466   4.187   5.317   4.867  0.0004  1.2321  0.0351
   47CHL1  H24A 3467   4.107   5.389   4.894 -1.5608 -0.0269 -1.0598
   47CHL1  H24B 3468   4.143   5.223   4.829  0.6535  0.9056  0.0689
   47CHL1   C25 3469   4.282   5.293   4.979 -0.3277  0.0393  0.1878
   47CHL1   H25 3470   4.333   5.390   4.997  1.2333 -0.4652 -1.1980
   47CHL1   C26 3471   4.223   5.249   5.113 -0.1689  0.5030 -0.0849
   47CHL1  H26A 3472   4.142   5.316   5.149 -1.7650 -1.8589  1.0453
   47CHL1  H26B 3473   4.183   5.146   5.099  2.3106 -0.4147 -0.9026
   47CHL1  H26C 3474   4.291   5.250   5.201  0.5495  3.3021 -0.5778
   47CHL1   C27 3475   4.397   5.192   4.952 -0.1720  0.0300 -0.0246
   47CHL1  H27A 3476   4.470   5.199   5.036 -2.2022 -2.5066  2.1693
   47CHL1  H27B 3477   4.356   5.088   4.946  0.4002 -0.1131 -1.9238
   47CHL1  H27C 3478   4.453   5.221   4.861  1.4875 -0.3641  0.8263
   48CHL1    C3 3479   4.569   5.752   3.780 -0.2884 -0.3280  0.2110
   48CHL1    H3 3480   4.464   5.790   3.785 -0.6833 -1.5060  2.7987
   48CHL1    O3 3481   4.608   5.719   3.645  0.6069  0.4832  0.6928
   48CHL1   H3' 3482   4.539   5.657   3.621 -0.6945  1.7126  1.1099
   48CHL1    C4 3483   4.652   5.865   3.861 -0.1987 -0.4959 -0.4452
   48CHL1   H4A 3484   4.756   5.828   3.857  0.4641  1.4091 -2.3673
   48CHL1   H4B 3485   4.654   5.961   3.805  0.0216 -0.3362 -0.1712
   48CHL1    C5 3486   4.618   5.873   4.011  0.0638  0.5216  0.7944
   48CHL1    C6 3487   4.588   5.988   4.076  0.7487 -0.2219  0.1330
   48CHL1    H6 3488   4.575   6.083   4.022  0.3668  0.1273  0.8239
   48CHL1    C7 3489   4.567   6.010   4.220  0.1493  0.8944 -0.2254
   48CHL1   H7A 3490   4.612   6.106   4.255 -0.2348  0.4204  1.7245
   48CHL1   H7B 3491   4.458   6.011   4.244  0.2462  2.6324  0.2469
   48CHL1    C8 3492   4.618   5.889   4.303 -0.5139  0.0264  0.1851
   48CHL1    H8 3493   4.729   5.889   4.299 -0.5264 -0.8105 -0.2876
   48CHL1   C14 3494   4.567   5.892   4.443  0.1882 -0.6076 -0.0627
   48CHL1   H14 3495   4.456   5.884   4.437  0.1208  0.3465 -0.2558
   48CHL1   C15 3496   4.596   6.010   4.533  0.3297 -0.6322  0.7345
   48CHL1  H15A 3497   4.703   6.034   4.512 -0.0917  1.3230  0.6401
   48CHL1  H15B 3498   4.551   6.110   4.514  1.2815  0.1403  2.3846
   48CHL1   C16 3499   4.581   5.953   4.676  0.0313 -0.5738 -0.0030
   48CHL1  H16A 3500   4.682   5.971   4.719 -0.1580 -0.6085  0.4648
   48CHL1  H16B 3501   4.501   6.003   4.735  0.9852  1.0872 -0.0737
   48CHL1   C17 3502   4.561   5.797   4.660 -0.1496 -0.5936  0.0962
   48CHL1   H17 3503   4.451   5.790   4.646 -0.0861 -1.6528  0.0265
   48CHL1   C13 3504   4.614   5.771   4.518  0.1595  0.1126  0.5886
   48CHL1   C18 3505   4.769   5.766   4.521  0.0626  0.3040 -0.6301
   48CHL1  H18A 3506   4.810   5.687   4.588  1.1559  1.2746 -0.1341
   48CHL1  H18B 3507   4.818   5.754   4.422  0.1942  2.4066 -0.8532
   48CHL1  H18C 3508   4.814   5.863   4.550  1.4212 -0.6527  0.5526
   48CHL1   C12 3509   4.564   5.639   4.453 -0.1158  0.0483 -0.0019
   48CHL1  H12A 3510   4.590   5.553   4.520 -1.4643 -0.9461 -0.7059
   48CHL1  H12B 3511   4.455   5.640   4.472 -0.0008 -0.6772  0.8129
   48CHL1   C11 3512   4.604   5.625   4.313 -0.2043 -0.0982 -0.2263
   48CHL1  H11A 3513   4.713   5.603   4.316 -0.0437  0.7827  1.2837
   48CHL1  H11B 3514   4.550   5.544   4.259 -1.2065  0.8612 -0.7007
   48CHL1    C9 3515   4.581   5.755   4.225 -0.2057  0.2581  0.3421
   48CHL1    H9 3516   4.471   5.747   4.215  0.0691 -1.5276 -2.1796
   48CHL1   C10 3517   4.627   5.736   4.078  0.5731  0.2430  0.0999
   48CHL1   C19 3518   4.768   5.672   4.074  0.5088 -0.1585 -0.1737
   48CHL1  H19A 3519   4.764   5.568   4.113 -1.1267  0.2719  0.8949
   48CHL1  H19B 3520   4.802   5.648   3.971 -1.4333 -1.6159 -0.5242
   48CHL1  H19C 3521   4.839   5.737   4.131  1.4323 -1.1021 -0.2194
   48CHL1    C1 3522   4.527   5.643   4.005  0.0001  0.5606 -0.0325
   48CHL1   H1A 3523   4.512   5.547   4.058  0.0094  1.1857  1.1228
   48CHL1   H1B 3524   4.427   5.692   4.016 -0.2689 -0.0475  0.2934
   48CHL1    C2 3525   4.563   5.616   3.855  0.0875  0.2189 -0.0158
   48CHL1   H2A 3526   4.490   5.544   3.812  0.2069  0.8896 -1.3970
   48CHL1   H2B 3527   4.659   5.562   3.840 -0.6827 -0.9958 -0.7928
   48CHL1   C20 3528   4.594   5.704   4.780 -0.2928 -1.1060 -0.5205
   48CHL1   H20 3529   4.618   5.604   4.737 -1.7041 -1.0696 -1.4544
   48CHL1   C21 3530   4.475   5.678   4.866  0.4214 -0.3153 -0.3126
   48CHL1  H21A 3531   4.506   5.618   4.954 -1.0751 -1.4392 -0.5234
   48CHL1  H21B 3532   4.385   5.629   4.823 -1.1007  0.8277  1.4173
   48CHL1  H21C 3533   4.449   5.773   4.918 -1.3261 -0.9614  0.0616
   48CHL1   C22 3534   4.730   5.742   4.855 -0.1312 -0.7684 -0.1602
   48CHL1  H22A 3535   4.797   5.791   4.782 -0.3553  0.3325  0.3521
   48CHL1  H22B 3536   4.713   5.825   4.927 -1.4534 -0.8148 -0.4010
   48CHL1   C23 3537   4.805   5.621   4.920  0.3728 -0.0662 -0.0563
   48CHL1  H23A 3538   4.881   5.659   4.992  0.4343 -1.7950  0.8388
   48CHL1  H23B 3539   4.738   5.568   4.991  1.9254 -0.0766  1.4725
   48CHL1   C24 3540   4.868   5.521   4.819 -0.2767 -0.1973  0.4677
   48CHL1  H24A 3541   4.783   5.469   4.771  1.2329 -2.1145 -0.3025
   48CHL1  H24B 3542   4.917   5.579   4.738  0.8784 -0.8065  0.7057
   48CHL1   C25 3543   4.957   5.407   4.881  0.0656  0.6803  0.3234
   48CHL1   H25 3544   4.984   5.345   4.792  1.0015  1.4059  0.0820
   48CHL1   C26 3545   5.089   5.458   4.926 -0.5339 -0.1742  0.1073
   48CHL1  H26A 3546   5.142   5.518   4.849  1.9494 -0.9834  1.0619
   48CHL1  H26B 3547   5.079   5.506   5.026 -2.3342  1.0571 -0.6120
   48CHL1  H26C 3548   5.146   5.366   4.951 -1.3974  0.0837  3.5839
   48CHL1   C27 3549   4.869   5.318   4.980  0.3830 -0.1524 -0.9899
   48CHL1  H27A 3550   4.937   5.236   5.013  0.4039 -0.4544 -1.7720
   48CHL1  H27B 3551   4.818   5.368   5.065  1.4185 -0.0507 -0.4031
   48CHL1  H27C 3552   4.794   5.279   4.908  1.6010 -1.1880 -1.7445
   49CHL1    C3 3553   3.112   3.552   3.368  0.1158  0.3347  0.1779
   49CHL1    H3 3554   3.129   3.447   3.398 -0.9376  0.6857  2.1412
   49CHL1    O3 3555   3.115   3.574   3.231  0.2608 -0.1268  0.3727
   49CHL1   H3' 3556   3.091   3.667   3.228  2.1385  0.4187  0.9296
   49CHL1    C4 3557   2.982   3.592   3.434  0.0430  0.1453  0.1709
   49CHL1   H4A 3558   2.968   3.697   3.403  0.8881 -0.4219 -2.3825
   49CHL1   H4B 3559   2.908   3.529   3.379 -0.0187  0.1286  0.2710
   49CHL1    C5 3560   2.976   3.566   3.580 -0.4603  0.3211  0.2803
   49CHL1    C6 3561   2.880   3.484   3.635 -0.3473 -0.5557  0.6974
   49CHL1    H6 3562   2.804   3.434   3.573  0.5199 -0.5454 -0.4116
   49CHL1    C7 3563   2.870   3.457   3.790  0.7764 -0.4590 -0.0168
   49CHL1   H7A 3564   2.764   3.477   3.816  0.3145 -2.3217 -0.3095
   49CHL1   H7B 3565   2.905   3.360   3.832 -0.4109 -0.0247  2.1407
   49CHL1    C8 3566   2.950   3.562   3.868 -0.2061 -0.8866 -0.1641
   49CHL1    H8 3567   2.900   3.661   3.869  0.7643 -0.3823 -0.4748
   49CHL1   C14 3568   2.969   3.523   4.017  0.1211  0.2322  0.1426
   49CHL1   H14 3569   3.016   3.423   4.020 -0.2349  0.0498 -0.2133
   49CHL1   C15 3570   2.844   3.495   4.097 -0.1987 -0.4224 -0.0498
   49CHL1  H15A 3571   2.772   3.578   4.076 -1.7420 -1.7847 -0.3684
   49CHL1  H15B 3572   2.789   3.401   4.077 -1.2899 -0.0088  0.8565
   49CHL1   C16 3573   2.887   3.507   4.243 -0.5709  0.0857  0.2790
   49CHL1  H16A 3574   2.820   3.571   4.304 -0.8992 -0.5245  0.5678
   49CHL1  H16B 3575   2.889   3.409   4.295 -2.4743 -0.4421 -0.5391
   49CHL1   C17 3576   3.028   3.568   4.239  0.1069 -0.7064  0.6060
   49CHL1   H17 3577   3.096   3.480   4.238  2.2068  0.7274 -3.7923
   49CHL1   C13 3578   3.050   3.622   4.099 -0.4295  0.2870  0.2001
   49CHL1   C18 3579   2.979   3.764   4.094 -0.6624 -0.2227 -0.4103
   49CHL1  H18A 3580   2.968   3.795   3.988 -0.7892 -1.1200 -0.6762
   49CHL1  H18B 3581   2.881   3.757   4.146  0.2826 -0.7868  1.3911
   49CHL1  H18C 3582   3.034   3.843   4.149  0.3703 -0.8848 -0.4665
   49CHL1   C12 3583   3.189   3.637   4.032  0.2130  0.3706  0.3729
   49CHL1  H12A 3584   3.258   3.698   4.093  0.5869  1.1087 -0.7596
   49CHL1  H12B 3585   3.241   3.539   4.034  2.4887  1.4648 -1.0501
   49CHL1   C11 3586   3.186   3.674   3.884  0.6005 -0.6789  0.3101
   49CHL1  H11A 3587   3.147   3.778   3.880 -0.9993 -1.3005 -2.3769
   49CHL1  H11B 3588   3.284   3.658   3.834 -0.3114 -1.6737 -1.2147
   49CHL1    C9 3589   3.088   3.585   3.802  0.8581  0.6006  0.2051
   49CHL1    H9 3590   3.133   3.484   3.798 -0.3331 -0.1072  2.8131
   49CHL1   C10 3591   3.082   3.640   3.654 -0.3410 -0.9385  0.1746
   49CHL1   C19 3592   3.053   3.796   3.658  0.1130  0.5334  0.0468
   49CHL1  H19A 3593   2.960   3.816   3.716  0.6189  1.7946  0.4521
   49CHL1  H19B 3594   3.140   3.853   3.696  0.3501  0.0514  0.2227
   49CHL1  H19C 3595   3.031   3.835   3.556 -0.1322 -1.5591 -0.7420
   49CHL1    C1 3596   3.224   3.621   3.592  0.7163 -0.0205  0.2635
   49CHL1   H1A 3597   3.281   3.707   3.634 -1.2950  1.1591  0.7281
   49CHL1   H1B 3598   3.281   3.529   3.617  0.9466  0.1975  0.5583
   49CHL1    C2 3599   3.225   3.633   3.437 -0.3495 -0.6790  0.6224
   49CHL1   H2A 3600   3.327   3.598   3.413 -0.1731 -0.5101  1.1061
   49CHL1   H2B 3601   3.200   3.738   3.411 -1.9072 -1.3671 -0.8761
   49CHL1   C20 3602   3.067   3.654   4.366 -0.0165  0.2247  0.5733
   49CHL1   H20 3603   2.991   3.734   4.356  1.3144  1.2904 -2.3457
   49CHL1   C21 3604   3.209   3.713   4.360 -0.4145  0.8150  0.0662
   49CHL1  H21A 3605   3.229   3.786   4.279 -1.4169  1.2140  0.1771
   49CHL1  H21B 3606   3.281   3.632   4.333 -1.2942 -0.0821  0.3446
   49CHL1  H21C 3607   3.222   3.765   4.457 -2.2015  0.2964  0.6233
   49CHL1   C22 3608   3.030   3.582   4.500 -0.4790  0.0978  0.0296
   49CHL1  H22A 3609   2.929   3.537   4.502 -0.0623 -0.8702  1.7620
   49CHL1  H22B 3610   3.100   3.498   4.520 -0.8531  0.1715  1.9071
   49CHL1   C23 3611   3.043   3.666   4.632  0.5481  0.9368 -0.1248
   49CHL1  H23A 3612   3.150   3.690   4.646  1.1167 -1.2345 -0.3855
   49CHL1  H23B 3613   2.985   3.761   4.620 -0.3491  0.4948  0.5714
   49CHL1   C24 3614   2.984   3.587   4.754 -0.5146  0.2186 -0.7409
   49CHL1  H24A 3615   2.880   3.548   4.749 -0.7816  0.7896  0.2496
   49CHL1  H24B 3616   3.060   3.507   4.760  2.1830  2.6043 -0.7068
   49CHL1   C25 3617   2.990   3.658   4.894 -0.5951  0.0693  0.6230
   49CHL1   H25 3618   3.097   3.686   4.905 -1.0581  1.4214  2.0096
   49CHL1   C26 3619   2.906   3.788   4.889 -0.0805 -0.3050  0.5344
   49CHL1  H26A 3620   2.806   3.757   4.852  1.0686 -1.7151 -1.5563
   49CHL1  H26B 3621   2.887   3.834   4.989  1.1157 -1.5941  1.3961
   49CHL1  H26C 3622   2.958   3.862   4.825  2.0561 -1.1739  1.1713
   49CHL1   C27 3623   2.929   3.572   5.004  0.0118  0.0208 -0.4516
   49CHL1  H27A 3624   2.937   3.623   5.102 -0.1431  0.8267 -0.8481
   49CHL1  H27B 3625   2.822   3.556   4.981 -0.8979  1.5521  2.2673
   49CHL1  H27C 3626   2.979   3.472   5.006 -1.3887 -0.6885  0.7429
   50CHL1    C3 3627   5.942   2.413   3.285  0.0058 -0.2843 -0.2952
   50CHL1    H3 3628   5.838   2.431   3.320  0.6099  0.2399  1.3239
   50CHL1    O3 3629   5.945   2.431   3.139 -0.1596 -0.4189 -0.2041
   50CHL1   H3' 3630   5.851   2.423   3.120 -0.3279  1.3391 -0.3453
   50CHL1    C4 3631   6.044   2.511   3.356  0.1343 -0.2817 -0.0304
   50CHL1   H4A 3632   6.139   2.501   3.299  0.6941  1.0363  0.6025
   50CHL1   H4B 3633   6.012   2.617   3.349 -0.8063 -0.4997  0.7561
   50CHL1    C5 3634   6.061   2.481   3.507 -0.1390  0.4233  0.5206
   50CHL1    C6 3635   6.041   2.574   3.593  0.6649  0.5869  0.4617
   50CHL1    H6 3636   6.024   2.679   3.564  1.8117  0.2611 -1.5765
   50CHL1    C7 3637   6.041   2.550   3.745 -0.4385 -0.5803 -0.9733
   50CHL1   H7A 3638   6.084   2.636   3.801  1.2408 -2.4707  0.7919
   50CHL1   H7B 3639   5.937   2.543   3.784 -0.1812  2.8196  0.6848
   50CHL1    C8 3640   6.116   2.422   3.789  0.0664  0.1598  0.0517
   50CHL1    H8 3641   6.224   2.446   3.775  0.5676 -2.4669 -1.0302
   50CHL1   C14 3642   6.092   2.380   3.933 -0.1715 -0.2912  0.1794
   50CHL1   H14 3643   5.986   2.359   3.958 -0.6192  1.8785  0.2789
   50CHL1   C15 3644   6.128   2.483   4.044  0.1828  0.4636  0.3739
   50CHL1  H15A 3645   6.222   2.538   4.020  0.2267  0.4735  0.5601
   50CHL1  H15B 3646   6.046   2.557   4.050 -0.6500 -0.4749  0.9383
   50CHL1   C16 3647   6.133   2.394   4.169 -0.7942  0.0116  0.3658
   50CHL1  H16A 3648   6.221   2.424   4.229  1.0465  0.0364 -2.1952
   50CHL1  H16B 3649   6.050   2.415   4.240 -1.7545  1.6427 -1.1295
   50CHL1   C17 3650   6.128   2.251   4.121 -0.5933  0.0278 -0.4144
   50CHL1   H17 3651   6.022   2.217   4.123  0.0482 -2.2223 -1.0761
   50CHL1   C13 3652   6.171   2.253   3.967  0.0310 -0.5704 -0.1400
   50CHL1   C18 3653   6.323   2.267   3.956  0.3908  0.7930 -0.3022
   50CHL1  H18A 3654   6.332   2.316   3.857 -1.6828  0.0586 -0.9040
   50CHL1  H18B 3655   6.365   2.331   4.037 -0.5607  0.7533  0.2285
   50CHL1  H18C 3656   6.374   2.169   3.957  0.6286  0.9103 -0.7070
   50CHL1   C12 3657   6.115   2.144   3.878 -1.1571  0.2647  0.8110
   50CHL1  H12A 3658   6.169   2.048   3.895 -0.0735  0.2143 -2.3021
   50CHL1  H12B 3659   6.005   2.132   3.879 -1.1036 -1.7748 -2.4524
   50CHL1   C11 3660   6.160   2.176   3.738 -0.1482 -0.1572 -0.4125
   50CHL1  H11A 3661   6.271   2.180   3.728 -0.1123 -0.8306 -0.3770
   50CHL1  H11B 3662   6.121   2.087   3.683  0.1415 -0.2449 -0.4762
   50CHL1    C9 3663   6.087   2.308   3.697 -0.3204 -0.1970 -0.3287
   50CHL1    H9 3664   5.978   2.303   3.720 -0.1782  1.9898  1.1338
   50CHL1   C10 3665   6.088   2.337   3.546 -0.1710 -0.4792  0.4536
   50CHL1   C19 3666   6.227   2.294   3.497  0.5390 -0.0315  0.7285
   50CHL1  H19A 3667   6.243   2.306   3.388 -1.0809  0.2235  0.4950
   50CHL1  H19B 3668   6.304   2.345   3.559  1.2550  0.5133 -0.5874
   50CHL1  H19C 3669   6.231   2.183   3.503 -1.5161 -0.3141 -1.5732
   50CHL1    C1 3670   5.981   2.243   3.472  0.1835 -0.1819 -0.7968
   50CHL1   H1A 3671   6.008   2.138   3.495  0.5615 -0.1786 -1.2211
   50CHL1   H1B 3672   5.881   2.260   3.518 -0.5348 -1.2976 -1.8734
   50CHL1    C2 3673   5.964   2.267   3.324 -0.3434  0.4084 -0.0133
   50CHL1   H2A 3674   5.881   2.203   3.287  0.1860 -0.0694 -0.4108
   50CHL1   H2B 3675   6.055   2.235   3.269  1.4062  3.0288  1.1388
   50CHL1   C20 3676   6.213   2.155   4.216 -0.3103  0.0008 -0.6602
   50CHL1   H20 3677   6.311   2.204   4.235 -0.4491 -0.4567  1.4284
   50CHL1   C21 3678   6.235   2.014   4.164  0.0275 -0.5954 -0.1897
   50CHL1  H21A 3679   6.252   1.940   4.245 -0.3436 -0.6705 -0.1798
   50CHL1  H21B 3680   6.313   2.014   4.085 -0.5989  0.3183 -0.8276
   50CHL1  H21C 3681   6.141   1.970   4.125 -0.3528 -1.1339  1.2684
   50CHL1   C22 3682   6.143   2.141   4.353  0.1153 -0.7641 -0.0363
   50CHL1  H22A 3683   6.097   2.238   4.380 -0.1472 -0.8925 -0.0253
   50CHL1  H22B 3684   6.061   2.066   4.354  0.6373 -1.3397  0.2164
   50CHL1   C23 3685   6.245   2.113   4.469 -0.5774 -0.1186  0.9273
   50CHL1  H23A 3686   6.311   2.027   4.446  2.7791  2.7465 -1.1270
   50CHL1  H23B 3687   6.309   2.204   4.467 -3.4371  2.0341 -0.8663
   50CHL1   C24 3688   6.169   2.105   4.602 -0.2244  0.0134  0.0124
   50CHL1  H24A 3689   6.108   2.194   4.628  1.0471  0.6653  0.8678
   50CHL1  H24B 3690   6.103   2.015   4.603 -0.8795  0.4800  1.1625
   50CHL1   C25 3691   6.251   2.077   4.727  0.0902 -0.0300  1.1225
   50CHL1   H25 3692   6.337   2.147   4.732  0.9699 -1.0418  0.4774
   50CHL1   C26 3693   6.162   2.082   4.847  0.0266  0.7461  0.2531
   50CHL1  H26A 3694   6.111   2.180   4.848  3.3246  2.6237 -0.3769
   50CHL1  H26B 3695   6.090   1.999   4.864  1.4306 -0.1432  2.3098
   50CHL1  H26C 3696   6.223   2.079   4.941  0.9671 -0.7977 -0.3578
   50CHL1   C27 3697   6.320   1.941   4.714  0.3763  0.0186  0.0660
   50CHL1  H27A 3698   6.242   1.863   4.707 -1.7955  1.5125  4.2675
   50CHL1  H27B 3699   6.397   1.934   4.634  1.6970 -1.0356  1.3570
   50CHL1  H27C 3700   6.389   1.926   4.801  0.1028 -0.4706  0.1961
   51CHL1    C3 3701   1.667   4.499   3.189 -0.3409  0.1544  0.2071
   51CHL1    H3 3702   1.716   4.401   3.207 -1.0224  0.1144  2.1558
   51CHL1    O3 3703   1.690   4.526   3.055 -0.2722  0.0314  0.1164
   51CHL1   H3' 3704   1.776   4.484   3.053 -0.7995 -1.5806  3.6746
   51CHL1    C4 3705   1.521   4.482   3.225 -0.3866 -0.3272 -0.1157
   51CHL1   H4A 3706   1.486   4.580   3.187 -2.6257  1.1301  4.8182
   51CHL1   H4B 3707   1.483   4.402   3.158  0.2959 -0.2350 -0.6238
   51CHL1    C5 3708   1.492   4.465   3.373 -0.0029 -0.4080 -0.0310
   51CHL1    C6 3709   1.427   4.354   3.413 -0.5214 -0.1629  1.0196
   51CHL1    H6 3710   1.385   4.284   3.339 -1.9618  3.7233 -2.1643
   51CHL1    C7 3711   1.413   4.316   3.560  0.5250  0.1276 -0.4643
   51CHL1   H7A 3712   1.310   4.283   3.585  0.5357 -0.1842 -0.8349
   51CHL1   H7B 3713   1.484   4.237   3.593  0.1763  0.2498  0.6327
   51CHL1    C8 3714   1.436   4.441   3.655 -0.3454 -0.3311  0.2909
   51CHL1    H8 3715   1.348   4.509   3.652  0.5364  0.8391  0.1742
   51CHL1   C14 3716   1.446   4.398   3.800  0.8824 -0.0445 -0.0057
   51CHL1   H14 3717   1.539   4.338   3.808  0.2262 -0.9346  1.2729
   51CHL1   C15 3718   1.329   4.316   3.874 -0.5185 -0.7807  0.0035
   51CHL1  H15A 3719   1.234   4.372   3.866 -1.3288 -2.2575 -0.9539
   51CHL1  H15B 3720   1.321   4.210   3.842 -1.3405 -1.2743  1.7262
   51CHL1   C16 3721   1.372   4.327   4.022  0.5901 -0.1424 -0.2451
   51CHL1  H16A 3722   1.283   4.371   4.071  0.8477 -0.0210  0.1219
   51CHL1  H16B 3723   1.392   4.227   4.067 -1.5105 -1.2229 -1.5564
   51CHL1   C17 3724   1.483   4.434   4.034  0.5702 -0.1401 -1.1801
   51CHL1   H17 3725   1.576   4.372   4.035  1.4280  1.0879  0.8172
   51CHL1   C13 3726   1.478   4.518   3.905 -0.2381 -0.1821 -0.4050
   51CHL1   C18 3727   1.358   4.619   3.912 -0.0205  0.2143  0.0603
   51CHL1  H18A 3728   1.339   4.662   3.811  0.3772  3.3546  1.2198
   51CHL1  H18B 3729   1.261   4.575   3.944 -0.5879  2.2878  1.3375
   51CHL1  H18C 3730   1.382   4.709   3.972 -0.8374  0.2440  0.3506
   51CHL1   C12 3731   1.607   4.574   3.861 -0.0339 -0.1909 -0.5124
   51CHL1  H12A 3732   1.638   4.660   3.925 -0.6654  0.5695 -1.2048
   51CHL1  H12B 3733   1.676   4.488   3.867 -1.7636 -1.5923  0.0605
   51CHL1   C11 3734   1.615   4.621   3.717 -0.2359 -0.1224 -0.5130
   51CHL1  H11A 3735   1.556   4.715   3.717  0.1183  0.1761  2.0784
   51CHL1  H11B 3736   1.719   4.645   3.687 -1.3925  2.9581 -2.6150
   51CHL1    C9 3737   1.563   4.513   3.623  0.3821 -0.1931  0.6098
   51CHL1    H9 3738   1.634   4.429   3.631 -1.1684 -1.5493  0.6193
   51CHL1   C10 3739   1.555   4.567   3.476 -0.7107  0.2462  0.0042
   51CHL1   C19 3740   1.467   4.695   3.471 -0.2566  0.2486 -0.0670
   51CHL1  H19A 3741   1.513   4.776   3.532 -1.5774  2.5277 -1.9190
   51CHL1  H19B 3742   1.463   4.730   3.366  0.7187  1.1557  0.1840
   51CHL1  H19C 3743   1.361   4.681   3.503 -0.3761  0.7568 -0.2410
   51CHL1    C1 3744   1.706   4.600   3.430 -0.0861  0.6333  0.0718
   51CHL1   H1A 3745   1.746   4.689   3.483 -1.0739  2.0953 -1.5466
   51CHL1   H1B 3746   1.769   4.521   3.477 -2.2990 -0.6310  1.0401
   51CHL1    C2 3747   1.730   4.606   3.278  0.6639  0.1006  0.0266
   51CHL1   H2A 3748   1.840   4.618   3.269  0.6136 -0.5632 -1.9834
   51CHL1   H2B 3749   1.682   4.700   3.241  1.0116 -0.6796 -2.5532
   51CHL1   C20 3750   1.482   4.502   4.177 -0.9939 -0.1741  0.5185
   51CHL1   H20 3751   1.393   4.567   4.171 -0.1925  0.8167 -2.4447
   51CHL1   C21 3752   1.601   4.596   4.201 -0.0420  0.1105  0.5648
   51CHL1  H21A 3753   1.692   4.532   4.194 -0.0296  0.2340 -0.8589
   51CHL1  H21B 3754   1.609   4.650   4.297  1.3666  1.5991 -0.3241
   51CHL1  H21C 3755   1.602   4.676   4.124 -1.7206 -0.5263 -0.1781
   51CHL1   C22 3756   1.461   4.410   4.306  0.9448 -0.4199  0.0466
   51CHL1  H22A 3757   1.377   4.338   4.295  0.9834 -0.4694  0.0697
   51CHL1  H22B 3758   1.553   4.348   4.319  0.0892 -1.2049  3.0503
   51CHL1   C23 3759   1.449   4.478   4.445  0.0036 -0.8409 -0.4935
   51CHL1  H23A 3760   1.525   4.558   4.454  0.0950 -0.9567 -0.2455
   51CHL1  H23B 3761   1.349   4.526   4.457 -0.8845 -2.4358 -1.1192
   51CHL1   C24 3762   1.478   4.377   4.559 -0.6434 -0.1415  0.2923
   51CHL1  H24A 3763   1.410   4.290   4.543 -2.4882  1.3082 -0.1801
   51CHL1  H24B 3764   1.587   4.359   4.548 -0.3658  2.0102 -1.0696
   51CHL1   C25 3765   1.434   4.433   4.702  0.0892 -0.1761  0.1241
   51CHL1   H25 3766   1.331   4.469   4.686  0.0322  0.4327  1.7151
   51CHL1   C26 3767   1.438   4.323   4.809 -0.2616 -0.6702  0.1759
   51CHL1  H26A 3768   1.540   4.281   4.824  0.0890  0.3810  0.8591
   51CHL1  H26B 3769   1.390   4.348   4.906  0.9840  0.5059  0.5236
   51CHL1  H26C 3770   1.380   4.238   4.768 -0.4885  0.0010 -0.9645
   51CHL1   C27 3771   1.508   4.566   4.748 -0.1977 -0.6087 -0.0307
   51CHL1  H27A 3772   1.614   4.548   4.776 -0.0038  0.7584  0.1770
   51CHL1  H27B 3773   1.525   4.624   4.655  1.3023 -2.8166 -1.2173
   51CHL1  H27C 3774   1.454   4.621   4.829 -1.5965 -1.5615 -0.2781
   52CHL1    C3 3775   0.414   6.128   3.174  0.1897 -0.2713 -0.2582
   52CHL1    H3 3776   0.523   6.150   3.180  0.6449 -2.2730 -0.5704
   52CHL1    O3 3777   0.361   6.187   3.053  0.0941  0.0000  0.1965
   52CHL1   H3' 3778   0.403   6.272   3.043 -2.6192  1.2508 -2.2343
   52CHL1    C4 3779   0.386   5.974   3.176 -0.0790 -0.3123 -0.6050
   52CHL1   H4A 3780   0.278   5.969   3.153 -0.3208  1.0228  0.1214
   52CHL1   H4B 3781   0.435   5.934   3.084  0.3557 -1.5491  0.1280
   52CHL1    C5 3782   0.424   5.920   3.313 -0.4249 -0.6728  0.1190
   52CHL1    C6 3783   0.516   5.824   3.314 -0.3998 -0.1729 -0.3118
   52CHL1    H6 3784   0.556   5.781   3.221 -2.5453  2.6028 -2.7293
   52CHL1    C7 3785   0.547   5.752   3.446  0.4224  0.2135  0.1087
   52CHL1   H7A 3786   0.576   5.648   3.420 -1.4172  0.0255 -1.4374
   52CHL1   H7B 3787   0.644   5.797   3.476  1.8801 -1.5968 -1.6624
   52CHL1    C8 3788   0.436   5.767   3.551  0.7331 -0.5919 -0.0723
   52CHL1    H8 3789   0.346   5.717   3.509  1.1160 -1.2518 -0.1087
   52CHL1   C14 3790   0.473   5.702   3.685  0.3735 -0.7694  0.1350
   52CHL1   H14 3791   0.563   5.761   3.713  0.0150 -0.0417 -0.2317
   52CHL1   C15 3792   0.516   5.557   3.675 -0.4911  0.3539  0.1448
   52CHL1  H15A 3793   0.442   5.504   3.612 -1.7333  1.1729  0.8805
   52CHL1  H15B 3794   0.619   5.547   3.636 -1.0299 -0.3103 -1.1538
   52CHL1   C16 3795   0.504   5.508   3.821  0.0358 -0.1394  0.7545
   52CHL1  H16A 3796   0.437   5.419   3.825  0.8090 -0.7497  0.4079
   52CHL1  H16B 3797   0.605   5.488   3.863  0.0961 -2.5648 -0.3733
   52CHL1   C17 3798   0.434   5.626   3.903  0.4324 -0.0481 -0.1272
   52CHL1   H17 3799   0.521   5.680   3.948 -1.0858  1.6262  0.9660
   52CHL1   C13 3800   0.372   5.718   3.798  0.7810 -0.7219  0.3464
   52CHL1   C18 3801   0.236   5.655   3.752 -0.3290  0.0870 -0.4204
   52CHL1  H18A 3802   0.148   5.682   3.815 -0.5971  1.7258 -1.4369
   52CHL1  H18B 3803   0.204   5.689   3.651  2.2952  0.0115 -1.3440
   52CHL1  H18C 3804   0.246   5.545   3.737 -0.4690  0.1560 -1.0376
   52CHL1   C12 3805   0.356   5.868   3.817 -0.3514 -0.1480 -0.4395
   52CHL1  H12A 3806   0.277   5.894   3.890  0.7475  1.7128  0.1571
   52CHL1  H12B 3807   0.447   5.918   3.856 -0.2259 -0.8229  0.1580
   52CHL1   C11 3808   0.315   5.945   3.690  0.5399 -0.3156  0.3614
   52CHL1  H11A 3809   0.210   5.912   3.674  0.6949 -0.3579 -0.6601
   52CHL1  H11B 3810   0.319   6.054   3.713  1.3925 -0.0529 -0.9338
   52CHL1    C9 3811   0.402   5.924   3.565 -0.0678  0.4033  0.7018
   52CHL1    H9 3812   0.497   5.974   3.595 -0.2114  1.2741 -0.2594
   52CHL1   C10 3813   0.351   5.983   3.434  0.5713 -0.1450  0.0279
   52CHL1   C19 3814   0.201   5.955   3.429  0.3780  0.0213  0.3014
   52CHL1  H19A 3815   0.157   6.029   3.500 -0.3984  1.6305 -1.7649
   52CHL1  H19B 3816   0.164   5.976   3.327  0.5809  0.9621  0.4105
   52CHL1  H19C 3817   0.183   5.850   3.461  1.4510 -0.2902 -0.1051
   52CHL1    C1 3818   0.380   6.134   3.430 -0.1220 -0.1680  0.2119
   52CHL1   H1A 3819   0.335   6.191   3.514  2.6769 -0.9337  2.4152
   52CHL1   H1B 3820   0.490   6.150   3.442  0.2200 -0.2471 -2.3326
   52CHL1    C2 3821   0.341   6.197   3.293  0.3787  0.3288  0.3675
   52CHL1   H2A 3822   0.362   6.307   3.288  0.5798  0.2405 -1.3370
   52CHL1   H2B 3823   0.232   6.191   3.272  0.5443 -0.8401 -0.2148
   52CHL1   C20 3824   0.350   5.583   4.027  0.8749  0.3214 -0.0377
   52CHL1   H20 3825   0.264   5.524   3.990 -0.1005  2.0703 -0.6883
   52CHL1   C21 3826   0.288   5.708   4.094 -0.4975 -0.2230  0.9164
   52CHL1  H21A 3827   0.368   5.784   4.106 -0.4342 -0.2490  0.6486
   52CHL1  H21B 3828   0.229   5.688   4.186 -2.6136 -2.5268 -0.8273
   52CHL1  H21C 3829   0.209   5.748   4.028  0.4059  2.2039  1.1900
   52CHL1   C22 3830   0.424   5.486   4.123  0.0678 -1.1167  0.1121
   52CHL1  H22A 3831   0.459   5.399   4.064 -0.2170 -1.1498 -0.0109
   52CHL1  H22B 3832   0.515   5.532   4.167  0.0949 -1.6343  0.6253
   52CHL1   C23 3833   0.330   5.441   4.239  0.0936  0.2126  0.2494
   52CHL1  H23A 3834   0.310   5.529   4.304 -0.7121 -0.5061  0.9869
   52CHL1  H23B 3835   0.237   5.404   4.191  1.1492 -1.2688 -0.7180
   52CHL1   C24 3836   0.397   5.328   4.332  1.2364 -0.5048  0.2218
   52CHL1  H24A 3837   0.393   5.238   4.267 -1.1013 -2.0170  2.3116
   52CHL1  H24B 3838   0.500   5.348   4.370  0.6814 -0.4370  1.7322
   52CHL1   C25 3839   0.300   5.295   4.452 -0.0521 -0.4020  0.0618
   52CHL1   H25 3840   0.268   5.385   4.508  0.1294 -0.6917  0.6396
   52CHL1   C26 3841   0.171   5.230   4.407  0.6240  0.4268 -0.4799
   52CHL1  H26A 3842   0.109   5.299   4.345 -0.9480 -0.1749  0.3735
   52CHL1  H26B 3843   0.197   5.135   4.355 -0.9197 -0.9780  1.1861
   52CHL1  H26C 3844   0.107   5.203   4.494 -1.3414  1.1774 -1.6371
   52CHL1   C27 3845   0.377   5.204   4.547 -0.2122  0.4803 -0.4034
   52CHL1  H27A 3846   0.412   5.118   4.487  0.2464 -0.5338  1.2299
   52CHL1  H27B 3847   0.455   5.254   4.610 -0.2646 -0.8568  0.7719
   52CHL1  H27C 3848   0.312   5.166   4.629  0.6701  1.2912  0.7122
   53CHL1    C3 3849   3.852   5.026   3.454 -0.8475  0.3205 -0.0245
   53CHL1    H3 3850   3.951   5.032   3.405 -0.4532  0.0292  0.7205
   53CHL1    O3 3851   3.744   5.064   3.366 -0.5684  0.0403 -0.6320
   53CHL1   H3' 3852   3.725   4.983   3.318 -2.7146  0.6677 -0.9453
   53CHL1    C4 3853   3.838   4.877   3.504  0.2440 -0.0553 -0.0400
   53CHL1   H4A 3854   3.730   4.869   3.530  1.1656 -1.6344  4.2525
   53CHL1   H4B 3855   3.866   4.806   3.423  0.9980 -2.1654  1.9391
   53CHL1    C5 3856   3.902   4.845   3.634 -0.0181 -0.7936  0.0080
   53CHL1    C6 3857   3.980   4.736   3.635 -0.5295 -0.1262  0.2905
   53CHL1    H6 3858   3.980   4.674   3.544 -0.0697  3.8561 -2.6682
   53CHL1    C7 3859   4.064   4.689   3.753  0.2099  0.3218 -0.0226
   53CHL1   H7A 3860   4.053   4.579   3.770  0.7558 -0.2163 -2.6765
   53CHL1   H7B 3861   4.170   4.708   3.725 -0.0105 -1.1463 -2.0477
   53CHL1    C8 3862   4.033   4.764   3.879  0.0010  0.4290  0.0714
   53CHL1    H8 3863   3.937   4.723   3.918  0.6395 -2.7497 -1.3929
   53CHL1   C14 3864   4.138   4.743   3.992  0.0391  0.1131  0.5202
   53CHL1   H14 3865   4.227   4.799   3.957 -0.4793  2.2798  2.4451
   53CHL1   C15 3866   4.184   4.602   4.016 -0.4099 -0.5336 -0.2422
   53CHL1  H15A 3867   4.093   4.539   4.018 -1.4193  0.8669  2.3442
   53CHL1  H15B 3868   4.262   4.558   3.950  0.7366 -1.3161  1.5416
   53CHL1   C16 3869   4.247   4.608   4.158  0.9141 -0.3387 -0.9486
   53CHL1  H16A 3870   4.185   4.532   4.210 -0.4289  2.0559  1.2043
   53CHL1  H16B 3871   4.352   4.574   4.171  0.3101 -2.7030 -1.7746
   53CHL1   C17 3872   4.222   4.757   4.212 -0.4935  0.6219  0.8572
   53CHL1   H17 3873   4.314   4.811   4.181 -1.0627  0.6528 -0.9266
   53CHL1   C13 3874   4.106   4.812   4.127  0.1356 -0.0340 -0.1578
   53CHL1   C18 3875   3.973   4.753   4.174 -0.0800 -0.8198 -0.4918
   53CHL1  H18A 3876   3.967   4.778   4.282  0.7372  1.6397 -0.9566
   53CHL1  H18B 3877   3.885   4.790   4.116 -0.2365 -1.0809 -0.4217
   53CHL1  H18C 3878   3.965   4.642   4.169 -0.6474 -0.8643  1.0186
   53CHL1   C12 3879   4.094   4.965   4.096  0.3086 -0.0394  0.5948
   53CHL1  H12A 3880   4.067   5.024   4.186  3.5974  1.8893  0.4696
   53CHL1  H12B 3881   4.197   4.998   4.072 -0.3160  1.0224 -0.7380
   53CHL1   C11 3882   3.996   4.992   3.988  0.2231 -0.1922  0.8729
   53CHL1  H11A 3883   3.892   4.971   4.022 -0.8656  0.8768 -1.5417
   53CHL1  H11B 3884   3.993   5.102   3.976  0.4901 -0.4345 -2.4575
   53CHL1    C9 3885   4.013   4.912   3.858 -0.5913  0.2932 -0.2035
   53CHL1    H9 3886   4.110   4.952   3.821 -0.0045 -1.7591 -1.0367
   53CHL1   C10 3887   3.903   4.947   3.749  0.6136  0.2299 -0.0905
   53CHL1   C19 3888   3.765   4.950   3.809 -0.5558 -0.8314  0.4894
   53CHL1  H19A 3889   3.752   5.045   3.865  2.3053  1.0157 -1.6672
   53CHL1  H19B 3890   3.688   4.970   3.732  1.4155  0.1549 -1.3254
   53CHL1  H19C 3891   3.739   4.862   3.871  1.2288 -3.7098 -2.5337
   53CHL1    C1 3892   3.941   5.088   3.696 -0.1187 -0.0679  0.2543
   53CHL1   H1A 3893   3.938   5.165   3.776  0.7120 -1.8578  2.1021
   53CHL1   H1B 3894   4.045   5.084   3.656  0.1137 -1.0077  0.9266
   53CHL1    C2 3895   3.856   5.129   3.580  0.0824 -0.1459  0.0693
   53CHL1   H2A 3896   3.899   5.225   3.545  1.2410 -0.8436 -0.4840
   53CHL1   H2B 3897   3.754   5.144   3.621  0.9925  0.2179  2.3285
   53CHL1   C20 3898   4.219   4.770   4.363  0.1638  0.1678 -0.7953
   53CHL1   H20 3899   4.150   4.695   4.408  0.9732 -1.3277 -1.9393
   53CHL1   C21 3900   4.188   4.914   4.410 -0.2802 -0.6558 -0.6814
   53CHL1  H21A 3901   4.255   4.984   4.356 -0.3885  0.9690  1.1593
   53CHL1  H21B 3902   4.196   4.937   4.519 -2.4910  0.6859 -0.7502
   53CHL1  H21C 3903   4.079   4.927   4.391 -0.1091  1.7245 -0.3389
   53CHL1   C22 3904   4.361   4.720   4.428  0.2856 -0.5932  0.2518
   53CHL1  H22A 3905   4.378   4.611   4.416 -1.1032 -1.0520  1.9721
   53CHL1  H22B 3906   4.441   4.775   4.373 -0.7229 -0.4923 -1.1907
   53CHL1   C23 3907   4.373   4.751   4.574 -0.2335  0.0172 -0.5209
   53CHL1  H23A 3908   4.372   4.862   4.577  2.2739  0.0819  0.4633
   53CHL1  H23B 3909   4.287   4.712   4.631  2.1567 -1.4493  2.3195
   53CHL1   C24 3910   4.503   4.701   4.651 -0.6165 -0.6837  0.3418
   53CHL1  H24A 3911   4.509   4.591   4.634  0.6686 -1.1656  3.3133
   53CHL1  H24B 3912   4.588   4.751   4.599 -1.3765 -0.0336 -0.3026
   53CHL1   C25 3913   4.498   4.710   4.804  0.6897 -0.2131 -0.9380
   53CHL1   H25 3914   4.405   4.660   4.839  0.7533  0.9183  0.9580
   53CHL1   C26 3915   4.625   4.640   4.864 -0.2189 -0.2384 -0.9221
   53CHL1  H26A 3916   4.606   4.532   4.845 -1.6328  0.0278 -1.0840
   53CHL1  H26B 3917   4.719   4.670   4.811  0.3176  1.5101  0.8997
   53CHL1  H26C 3918   4.632   4.674   4.969  0.3931 -0.5706 -0.8505
   53CHL1   C27 3919   4.502   4.856   4.847 -0.1874  0.0597 -0.6423
   53CHL1  H27A 3920   4.402   4.898   4.824  0.2786  1.0373 -0.9682
   53CHL1  H27B 3921   4.524   4.871   4.955  0.7042 -0.4985 -0.7342
   53CHL1  H27C 3922   4.580   4.905   4.785  2.0671  1.3293  2.8525
   54CHL1    C3 3923   2.580   3.652   3.107  1.0313 -0.1117 -0.3497
   54CHL1    H3 3924   2.533   3.552   3.094  0.5161  0.0293  0.3286
   54CHL1    O3 3925   2.640   3.701   2.995  0.0597  0.2765  0.4327
   54CHL1   H3' 3926   2.661   3.791   3.023  0.9772  0.2109 -0.0176
   54CHL1    C4 3927   2.467   3.748   3.145  0.8706  0.2562 -0.0050
   54CHL1   H4A 3928   2.508   3.851   3.144 -0.7312  0.9415  0.5246
   54CHL1   H4B 3929   2.392   3.745   3.064  1.3269  1.3911 -0.4972
   54CHL1    C5 3930   2.397   3.732   3.281  0.1267 -0.3698 -0.4869
   54CHL1    C6 3931   2.266   3.733   3.289  0.7796 -0.7579 -0.2113
   54CHL1    H6 3932   2.219   3.754   3.192  2.6101  1.5324 -0.6939
   54CHL1    C7 3933   2.200   3.718   3.420 -0.0520 -0.5563 -0.7323
   54CHL1   H7A 3934   2.124   3.798   3.433 -0.6014 -0.8457 -2.0490
   54CHL1   H7B 3935   2.160   3.616   3.438 -2.3875  0.4744  0.4440
   54CHL1    C8 3936   2.293   3.730   3.540 -0.4631  0.5094  0.9434
   54CHL1    H8 3937   2.315   3.838   3.558  0.4651  0.5033 -0.0123
   54CHL1   C14 3938   2.224   3.673   3.662 -0.0860 -0.2651  0.3918
   54CHL1   H14 3939   2.225   3.563   3.647 -0.7198 -0.2393  0.1542
   54CHL1   C15 3940   2.081   3.712   3.682  0.2671  1.1532 -0.3600
   54CHL1  H15A 3941   2.080   3.823   3.686 -3.5373  1.2106  0.5773
   54CHL1  H15B 3942   2.022   3.672   3.597 -0.3995  1.8264 -0.2358
   54CHL1   C16 3943   2.060   3.663   3.824  0.0944 -0.3159  0.4777
   54CHL1  H16A 3944   2.020   3.750   3.881 -1.9483 -0.6088 -0.4146
   54CHL1  H16B 3945   1.987   3.579   3.828  0.6276 -0.7633  0.8565
   54CHL1   C17 3946   2.200   3.632   3.883  0.3973 -0.4396  0.2386
   54CHL1   H17 3947   2.222   3.523   3.878  1.4754 -0.2358  0.2604
   54CHL1   C13 3948   2.305   3.689   3.794 -0.2085 -0.3050  0.2169
   54CHL1   C18 3949   2.323   3.838   3.824  0.9323 -0.6860  0.4182
   54CHL1  H18A 3950   2.225   3.888   3.838 -0.1281 -2.5249 -0.2168
   54CHL1  H18B 3951   2.386   3.859   3.913  0.1212 -2.4921  1.4551
   54CHL1  H18C 3952   2.367   3.889   3.735 -0.9530 -0.1262 -0.2518
   54CHL1   C12 3953   2.448   3.623   3.778  0.9891 -0.3291 -0.2713
   54CHL1  H12A 3954   2.505   3.633   3.873 -0.0816  0.7119  0.2962
   54CHL1  H12B 3955   2.423   3.516   3.757 -2.4048  0.5321 -1.3373
   54CHL1   C11 3956   2.516   3.676   3.650 -0.4406  0.0255  0.6205
   54CHL1  H11A 3957   2.543   3.784   3.661 -3.3380  0.9653 -0.5809
   54CHL1  H11B 3958   2.606   3.614   3.630  0.5530  1.0439  1.7849
   54CHL1    C9 3959   2.426   3.663   3.520 -1.0082  0.1753  1.0006
   54CHL1    H9 3960   2.410   3.555   3.500  0.1288  0.3257 -0.9615
   54CHL1   C10 3961   2.499   3.718   3.389  0.2769  0.3783 -0.0675
   54CHL1   C19 3962   2.561   3.854   3.415  0.1903 -0.2590 -0.8445
   54CHL1  H19A 3963   2.595   3.907   3.324  0.1197  0.7760 -0.2808
   54CHL1  H19B 3964   2.498   3.926   3.472  0.8536 -0.6826  0.4776
   54CHL1  H19C 3965   2.650   3.836   3.479  1.5039 -1.5422 -2.9011
   54CHL1    C1 3966   2.609   3.617   3.347 -0.1378  0.5604 -0.4061
   54CHL1   H1A 3967   2.695   3.600   3.416  0.5636 -0.0362 -1.4110
   54CHL1   H1B 3968   2.566   3.516   3.332  3.8445 -1.0755 -2.1645
   54CHL1    C2 3969   2.683   3.652   3.221  0.0933  0.6182 -0.1134
   54CHL1   H2A 3970   2.745   3.562   3.200 -0.7991  0.4522 -2.3594
   54CHL1   H2B 3971   2.753   3.739   3.219  1.3770 -0.3429  1.2749
   54CHL1   C20 3972   2.204   3.667   4.030  0.7190 -0.6629 -0.1284
   54CHL1   H20 3973   2.198   3.777   4.044 -1.6907 -0.9163  1.4278
   54CHL1   C21 3974   2.349   3.639   4.090  0.1919 -0.2616 -0.1682
   54CHL1  H21A 3975   2.424   3.713   4.054 -1.1486  0.7296 -1.0421
   54CHL1  H21B 3976   2.377   3.541   4.046  0.3477  0.2699 -1.3003
   54CHL1  H21C 3977   2.353   3.637   4.201 -2.2382  0.8696  0.0215
   54CHL1   C22 3978   2.101   3.593   4.120 -0.6097  0.0976 -0.4279
   54CHL1  H22A 3979   2.004   3.620   4.071 -0.8797  0.6340  0.3829
   54CHL1  H22B 3980   2.121   3.485   4.107 -1.7564 -0.1923  0.0501
   54CHL1   C23 3981   2.086   3.636   4.268  0.3864 -0.0042 -0.4420
   54CHL1  H23A 3982   2.185   3.634   4.319  1.1475 -0.4518 -1.8811
   54CHL1  H23B 3983   2.036   3.731   4.295 -0.5378 -0.2317 -1.3003
   54CHL1   C24 3984   2.025   3.520   4.361 -0.4073  0.0500  0.6460
   54CHL1  H24A 3985   1.914   3.527   4.356 -0.4288 -0.6941 -0.1232
   54CHL1  H24B 3986   2.065   3.422   4.328  3.3367  1.7233 -0.2770
   54CHL1   C25 3987   2.065   3.535   4.514 -0.3661  0.3359  0.9625
   54CHL1   H25 3988   2.175   3.524   4.522 -0.5220 -1.1605  1.2861
   54CHL1   C26 3989   2.024   3.675   4.569  0.1990  0.0464  0.2592
   54CHL1  H26A 3990   2.043   3.690   4.678 -0.5558  1.7721  0.1772
   54CHL1  H26B 3991   2.079   3.758   4.520  0.7094 -0.7912 -0.6312
   54CHL1  H26C 3992   1.914   3.686   4.563  0.1861  0.0015  0.3885
   54CHL1   C27 3993   2.012   3.415   4.590 -0.0677 -0.1398 -0.3904
   54CHL1  H27A 3994   2.059   3.405   4.690 -1.0677 -1.5042 -0.0210
   54CHL1  H27B 3995   1.902   3.404   4.595 -0.3253  1.1369 -2.2034
   54CHL1  H27C 3996   2.053   3.328   4.534 -0.7964 -0.6052 -0.2078
   55CHL1    C3 3997   1.035   2.916   6.582 -0.4838  0.2479  0.9304
   55CHL1    H3 3998   1.118   2.988   6.566 -0.0820 -0.6261 -1.3398
   55CHL1    O3 3999   1.040   2.901   6.722 -0.4506 -0.1448  0.9139
   55CHL1   H3' 4000   0.956   2.864   6.752 -2.0974  1.5476 -1.2752
   55CHL1    C4 4001   0.898   2.976   6.537  0.2506  0.1873 -1.0258
   55CHL1   H4A 4002   0.815   2.930   6.594  1.6808 -0.0520  0.9641
   55CHL1   H4B 4003   0.902   3.081   6.574  2.6265 -0.5840  1.1540
   55CHL1    C5 4004   0.886   2.978   6.389  0.3822  0.0455  1.0627
   55CHL1    C6 4005   0.845   3.089   6.323  0.4990  0.0419  0.6523
   55CHL1    H6 4006   0.820   3.175   6.387  0.4561 -0.1554  0.9049
   55CHL1    C7 4007   0.806   3.089   6.178  0.8009 -0.6983  1.0936
   55CHL1   H7A 4008   0.700   3.120   6.159  0.9855 -0.6707  0.0243
   55CHL1   H7B 4009   0.866   3.168   6.127 -1.4252  0.2383 -0.2776
   55CHL1    C8 4010   0.833   2.953   6.100 -0.4398  0.2511 -0.3315
   55CHL1    H8 4011   0.739   2.896   6.120 -1.9595  2.9646  0.6888
   55CHL1   C14 4012   0.861   2.972   5.951  0.1704  0.1244  0.2493
   55CHL1   H14 4013   0.955   3.030   5.947 -0.3589  1.1870  2.0895
   55CHL1   C15 4014   0.761   3.056   5.870 -0.2277  0.5592 -0.3060
   55CHL1  H15A 4015   0.655   3.034   5.895 -0.5797  1.4499 -0.9344
   55CHL1  H15B 4016   0.776   3.166   5.867  1.0674  0.4320  0.5427
   55CHL1   C16 4017   0.787   3.009   5.730  0.2189  0.2512  0.4477
   55CHL1  H16A 4018   0.699   2.962   5.680 -0.3282  1.9518 -0.2626
   55CHL1  H16B 4019   0.826   3.091   5.666  0.4134  0.2608  0.5809
   55CHL1   C17 4020   0.893   2.890   5.729 -0.0318  0.1586 -0.0867
   55CHL1   H17 4021   0.994   2.935   5.724 -0.4297  0.9976 -1.0993
   55CHL1   C13 4022   0.883   2.842   5.869  0.5369  0.1165 -0.1180
   55CHL1   C18 4023   0.756   2.760   5.882  0.3039  0.0922  0.4704
   55CHL1  H18A 4024   0.747   2.740   5.991  1.4305 -0.2414  0.5221
   55CHL1  H18B 4025   0.664   2.808   5.844  0.4837  0.2896  0.2818
   55CHL1  H18C 4026   0.758   2.661   5.830 -1.4924 -1.4574  3.1120
   55CHL1   C12 4027   1.012   2.770   5.935  0.9121  0.9277  0.5594
   55CHL1  H12A 4028   1.049   2.674   5.893 -1.6795  0.8235 -1.7967
   55CHL1  H12B 4029   1.100   2.827   5.899 -0.3371  1.1974 -2.3453
   55CHL1   C11 4030   0.996   2.757   6.083 -0.7211  0.0638 -0.5212
   55CHL1  H11A 4031   0.937   2.667   6.109 -1.1753  0.3740 -0.4633
   55CHL1  H11B 4032   1.101   2.736   6.110 -0.9592 -2.1183 -1.1295
   55CHL1    C9 4033   0.952   2.886   6.163 -0.5296 -0.5412 -0.2559
   55CHL1    H9 4034   1.031   2.963   6.157  0.8411 -1.9673 -1.2139
   55CHL1   C10 4035   0.922   2.854   6.313 -0.0826  0.3892  0.0071
   55CHL1   C19 4036   0.798   2.755   6.331 -1.3613  0.1866  0.3158
   55CHL1  H19A 4037   0.703   2.811   6.316  0.6103  3.4814 -0.8838
   55CHL1  H19B 4038   0.800   2.661   6.273 -2.3615  0.7950 -0.7450
   55CHL1  H19C 4039   0.816   2.729   6.438  3.1945 -0.9079 -0.5239
   55CHL1    C1 4040   1.062   2.792   6.367  0.3154  0.2137  0.1440
   55CHL1   H1A 4041   1.081   2.697   6.312 -2.1877 -1.8072  2.4910
   55CHL1   H1B 4042   1.144   2.860   6.335  1.3146 -1.5614 -1.2672
   55CHL1    C2 4043   1.079   2.785   6.517 -0.4430 -0.5486  0.9154
   55CHL1   H2A 4044   1.181   2.767   6.557  0.1231 -1.0807 -0.6855
   55CHL1   H2B 4045   1.004   2.709   6.549 -1.0166 -1.1698 -1.6725
   55CHL1   C20 4046   0.880   2.800   5.613  0.0835 -0.2219 -0.1901
   55CHL1   H20 4047   0.776   2.763   5.613  0.0314 -0.0764 -0.3082
   55CHL1   C21 4048   0.979   2.680   5.619  0.1556  0.2536  0.1846
   55CHL1  H21A 4049   1.083   2.714   5.601 -0.0059  0.7169  0.1265
   55CHL1  H21B 4050   0.963   2.604   5.540 -0.3868 -0.5819  1.0756
   55CHL1  H21C 4051   0.968   2.616   5.709  0.9576  0.3202  0.3426
   55CHL1   C22 4052   0.903   2.883   5.484  0.5717  0.0896 -0.2010
   55CHL1  H22A 4053   0.841   2.975   5.485 -0.1982 -0.4176  1.0435
   55CHL1  H22B 4054   1.011   2.908   5.474  0.3856  1.3886  0.6767
   55CHL1   C23 4055   0.839   2.817   5.361 -0.6344  0.2614 -0.1148
   55CHL1  H23A 4056   0.902   2.729   5.334 -0.7458  0.4985 -1.1823
   55CHL1  H23B 4057   0.734   2.784   5.373 -0.2819 -0.8054  0.1379
   55CHL1   C24 4058   0.847   2.902   5.231 -0.2020  0.5414 -0.1137
   55CHL1  H24A 4059   0.765   2.977   5.238  0.7131  1.6019 -0.4725
   55CHL1  H24B 4060   0.950   2.945   5.233  2.4491 -4.9486  2.4404
   55CHL1   C25 4061   0.832   2.809   5.112  0.3271  0.3884 -0.0353
   55CHL1   H25 4062   0.911   2.732   5.110 -1.9590 -2.1270 -3.0853
   55CHL1   C26 4063   0.694   2.741   5.112  0.5768 -0.4121 -0.4268
   55CHL1  H26A 4064   0.689   2.681   5.018  1.4921 -0.5504 -0.3880
   55CHL1  H26B 4065   0.685   2.671   5.199 -0.2953 -0.3842 -0.4796
   55CHL1  H26C 4066   0.612   2.816   5.118 -0.6004 -1.7773  1.8852
   55CHL1   C27 4067   0.855   2.895   4.987 -0.1500  0.0834 -0.5136
   55CHL1  H27A 4068   0.838   2.842   4.891  1.1871  0.0230 -0.7395
   55CHL1  H27B 4069   0.787   2.982   4.997 -3.5871 -2.5905  1.9438
   55CHL1  H27C 4070   0.956   2.941   4.991 -0.2949  0.3708  0.0055
   56CHL1    C3 4071   0.614   4.012   2.751  0.2731 -0.3057  0.4245
   56CHL1    H3 4072   0.702   3.944   2.744 -0.2310 -1.4861  3.7421
   56CHL1    O3 4073   0.581   4.052   2.624  0.1611 -0.3639 -0.6911
   56CHL1   H3' 4074   0.500   4.103   2.620  0.2555 -0.0833  0.4521
   56CHL1    C4 4075   0.499   3.941   2.814 -0.1500  0.1571 -0.2576
   56CHL1   H4A 4076   0.406   4.003   2.811 -1.8646 -2.1794  1.0480
   56CHL1   H4B 4077   0.472   3.850   2.756 -0.6737 -0.1354  0.4351
   56CHL1    C5 4078   0.520   3.902   2.960  0.4727  0.7906  0.5677
   56CHL1    C6 4079   0.507   3.775   2.997 -0.3528 -0.2682  0.2292
   56CHL1    H6 4080   0.478   3.697   2.924 -0.3774 -0.0357 -0.0105
   56CHL1    C7 4081   0.535   3.740   3.142 -0.2022 -0.9405 -0.0998
   56CHL1   H7A 4082   0.451   3.679   3.180 -1.7786  0.7856 -0.6968
   56CHL1   H7B 4083   0.630   3.682   3.142  1.3857  1.5092  0.1866
   56CHL1    C8 4084   0.530   3.853   3.241  0.0530  0.4072  0.6772
   56CHL1    H8 4085   0.423   3.881   3.240 -1.1322 -3.4968 -1.6554
   56CHL1   C14 4086   0.578   3.811   3.375  1.1395 -0.0325  0.3957
   56CHL1   H14 4087   0.688   3.794   3.366  1.6809  2.3815  1.6428
   56CHL1   C15 4088   0.517   3.683   3.440  0.6547 -0.0907 -0.1461
   56CHL1  H15A 4089   0.407   3.689   3.428  0.6842  0.3299 -0.2271
   56CHL1  H15B 4090   0.561   3.592   3.395  1.4160  0.3143 -0.2416
   56CHL1   C16 4091   0.549   3.692   3.593  0.2293 -0.2179 -0.8444
   56CHL1  H16A 4092   0.453   3.691   3.649  1.4123 -1.1646  1.2739
   56CHL1  H16B 4093   0.615   3.611   3.630  0.0459  0.2942  0.6462
   56CHL1   C17 4094   0.615   3.833   3.611 -0.7511 -0.3250  0.0414
   56CHL1   H17 4095   0.721   3.836   3.581 -1.0721  2.2850 -1.1178
   56CHL1   C13 4096   0.569   3.916   3.490 -0.1321 -0.6649  0.2277
   56CHL1   C18 4097   0.423   3.966   3.506 -0.3542  0.6135 -0.1635
   56CHL1  H18A 4098   0.387   4.002   3.408  1.6895  2.9375 -0.1450
   56CHL1  H18B 4099   0.345   3.900   3.551  0.0272  1.5839  2.0520
   56CHL1  H18C 4100   0.427   4.058   3.568 -1.3202  1.6190 -1.5362
   56CHL1   C12 4101   0.669   4.029   3.435 -0.2401  0.1789  0.6555
   56CHL1  H12A 4102   0.668   4.113   3.508 -1.1209  1.3881 -0.7078
   56CHL1  H12B 4103   0.768   3.978   3.436  0.1334  0.8958  0.5249
   56CHL1   C11 4104   0.636   4.089   3.298  0.6128  0.4689 -0.5368
   56CHL1  H11A 4105   0.553   4.161   3.319  3.0346  3.3477 -0.1866
   56CHL1  H11B 4106   0.726   4.150   3.277  1.4801 -0.3790  0.5925
   56CHL1    C9 4107   0.606   3.976   3.193 -0.3364  0.1227  0.5207
   56CHL1    H9 4108   0.702   3.921   3.184  0.3764  1.3058  0.6861
   56CHL1   C10 4109   0.563   4.023   3.049  0.2975  0.3386  0.9736
   56CHL1   C19 4110   0.443   4.121   3.072  0.3398 -0.4063  0.0202
   56CHL1  H19A 4111   0.396   4.149   2.976  2.4114  0.6118 -0.7660
   56CHL1  H19B 4112   0.366   4.077   3.139  0.6745 -1.2530 -0.1373
   56CHL1  H19C 4113   0.471   4.215   3.124  0.3344 -0.8425  0.8357
   56CHL1    C1 4114   0.683   4.096   2.980 -0.2949  0.0618 -0.2394
   56CHL1   H1A 4115   0.720   4.176   3.048 -0.2913  0.4686 -0.7056
   56CHL1   H1B 4116   0.766   4.023   2.969 -1.1307 -0.9166 -0.1933
   56CHL1    C2 4117   0.661   4.135   2.836  0.5105  0.6750  0.1907
   56CHL1   H2A 4118   0.752   4.174   2.786  0.3955 -0.1590 -0.6959
   56CHL1   H2B 4119   0.575   4.206   2.829 -1.1566 -1.3649 -1.3274
   56CHL1   C20 4120   0.605   3.890   3.759 -0.8513  0.3601  0.3628
   56CHL1   H20 4121   0.499   3.892   3.792 -1.0943 -0.1364 -0.3548
   56CHL1   C21 4122   0.661   4.031   3.772  0.1240 -0.1042 -0.3036
   56CHL1  H21A 4123   0.593   4.105   3.724 -0.0113  0.5570  0.8563
   56CHL1  H21B 4124   0.760   4.038   3.722  1.4088 -2.9274  1.6017
   56CHL1  H21C 4125   0.676   4.071   3.875  2.1108  0.2767 -0.7005
   56CHL1   C22 4126   0.677   3.804   3.866  0.4503  0.8388  0.1544
   56CHL1  H22A 4127   0.669   3.698   3.835 -1.3504  1.4872 -1.8639
   56CHL1  H22B 4128   0.787   3.823   3.863  0.2122  2.3006 -1.9810
   56CHL1   C23 4129   0.617   3.817   4.011  0.2636  0.3971  0.2625
   56CHL1  H23A 4130   0.634   3.920   4.049  1.6596 -0.9603  3.6762
   56CHL1  H23B 4131   0.507   3.806   4.019  0.1844  1.0212  0.0786
   56CHL1   C24 4132   0.682   3.717   4.105  0.1680  0.4548  0.0501
   56CHL1  H24A 4133   0.600   3.668   4.164  0.1496  0.9255  0.4206
   56CHL1  H24B 4134   0.719   3.637   4.038  1.3911  0.6966  0.4253
   56CHL1   C25 4135   0.795   3.766   4.198 -0.3683 -0.1142  0.1615
   56CHL1   H25 4136   0.869   3.824   4.139 -1.6233  0.7627 -0.6134
   56CHL1   C26 4137   0.741   3.864   4.300  0.0663 -0.9429 -0.4858
   56CHL1  H26A 4138   0.823   3.889   4.371  0.7826  1.2732 -1.9923
   56CHL1  H26B 4139   0.700   3.959   4.259  1.1180  0.1536  0.8956
   56CHL1  H26C 4140   0.664   3.819   4.366 -2.3334  3.9497  0.5962
   56CHL1   C27 4141   0.865   3.647   4.276 -0.0462 -0.0706 -0.0198
   56CHL1  H27A 4142   0.801   3.602   4.355 -1.7338  1.0703 -0.6863
   56CHL1  H27B 4143   0.892   3.562   4.209 -0.9107 -0.5610  0.2438
   56CHL1  H27C 4144   0.964   3.679   4.315 -0.1817  1.1543 -0.6271
   57SAPC     N 4145   1.428   4.247   7.357 -0.5320  0.0401 -0.3365
   57SAPC   C12 4146   1.449   4.392   7.391  0.2213  0.2771 -0.1360
   57SAPC  H12A 4147   1.473   4.442   7.298 -0.6041  0.2524 -0.3754
   57SAPC  H12B 4148   1.537   4.394   7.453 -0.5390  1.9867  0.9792
   57SAPC   C13 4149   1.546   4.200   7.277  0.2285 -0.3040  0.2757
   57SAPC  H13A 4150   1.535   4.096   7.251 -0.2561 -0.1546 -0.1442
   57SAPC  H13B 4151   1.543   4.258   7.186 -0.9756 -0.4111  0.2325
   57SAPC  H13C 4152   1.637   4.207   7.335 -0.3456 -2.5426  1.5509
   57SAPC   C14 4153   1.417   4.162   7.479  0.6678 -0.3255  0.6559
   57SAPC  H14A 4154   1.392   4.062   7.446 -1.2920  0.5465 -0.7349
   57SAPC  H14B 4155   1.511   4.155   7.531  1.2415 -0.8690 -0.4330
   57SAPC  H14C 4156   1.340   4.196   7.546  0.5011  0.0125  0.2987
   57SAPC   C15 4157   1.304   4.228   7.275  0.7167 -0.2757  0.1472
   57SAPC  H15A 4158   1.309   4.136   7.219 -1.2591 -0.7050  0.5790
   57SAPC  H15B 4159   1.213   4.240   7.332  0.5572 -0.5909 -0.0347
   57SAPC  H15C 4160   1.302   4.302   7.197 -0.1324 -0.7168 -0.2730
   57SAPC   C11 4161   1.327   4.469   7.452  0.0357  0.5229 -0.2834
   57SAPC  H11A 4162   1.369   4.549   7.516 -0.9039  1.0144 -0.2774
   57SAPC  H11B 4163   1.274   4.399   7.520  0.0891  0.0360 -0.7358
   57SAPC     P 4164   1.265   4.638   7.260  0.2666  0.0935 -0.2035
   57SAPC   O13 4165   1.150   4.728   7.291 -0.2760 -0.0983 -0.4629
   57SAPC   O14 4166   1.407   4.689   7.274  0.6845 -0.1367  0.2651
   57SAPC   O12 4167   1.242   4.507   7.343 -0.4628 -0.8341 -0.0043
   57SAPC   O11 4168   1.248   4.590   7.109  0.5090 -0.3749  0.2730
   57SAPC    C1 4169   1.333   4.500   7.045  0.2151 -0.6520  0.1910
   57SAPC    HA 4170   1.428   4.551   7.019 -0.1620 -0.7636 -1.5649
   57SAPC    HB 4171   1.370   4.413   7.102  2.9851  0.6610  0.5809
   57SAPC    C2 4172   1.282   4.438   6.910 -0.0854 -0.3464  0.1293
   57SAPC    HS 4173   1.360   4.371   6.869 -0.1156  1.5874 -3.5284
   57SAPC   O21 4174   1.247   4.550   6.824  0.5300 -0.0068  0.2994
   57SAPC   C21 4175   1.271   4.529   6.694  0.0262  0.1734  0.4302
   57SAPC   O22 4176   1.348   4.445   6.647 -0.0398 -0.4865 -0.6908
   57SAPC   C22 4177   1.205   4.647   6.617 -0.1614 -0.4182  0.5396
   57SAPC   H2R 4178   1.118   4.677   6.680  1.1186  2.0232  1.2513
   57SAPC   H2S 4179   1.264   4.740   6.609 -1.9864  0.9450  2.0715
   57SAPC    C3 4180   1.156   4.355   6.926  0.2109  0.3111  0.1268
   57SAPC    HX 4181   1.094   4.420   6.991 -0.3349 -0.5317  0.4644
   57SAPC    HY 4182   1.189   4.263   6.978 -1.7020 -0.9861 -0.8327
   57SAPC   O31 4183   1.082   4.325   6.796  0.0266  0.3410  0.6447
   57SAPC   C31 4184   1.000   4.221   6.804 -0.7507 -0.3875 -0.2052
   57SAPC   O32 4185   0.973   4.159   6.903 -0.2274 -0.7295 -0.6016
   57SAPC   C32 4186   0.961   4.194   6.665  0.7293 -0.1633 -0.3717
   57SAPC   H2X 4187   1.043   4.195   6.590 -0.4854  1.1959 -1.7467
   57SAPC   H2Y 4188   0.888   4.274   6.635 -0.0795 -0.4074  0.8864
   57SAPC   C23 4189   1.163   4.612   6.473 -0.4186 -0.3287 -0.2379
   57SAPC   H3R 4190   1.258   4.593   6.419  0.4014 -2.2462  1.6742
   57SAPC   H3S 4191   1.135   4.712   6.435  3.0138  0.7020 -0.3238
   57SAPC   C24 4192   1.070   4.490   6.448  0.1388  0.0627 -0.5303
   57SAPC   H4R 4193   1.001   4.479   6.535  1.8532 -1.3746  0.7197
   57SAPC   H4S 4194   1.139   4.406   6.430  1.2760  1.1437 -1.4047
   57SAPC   C25 4195   0.980   4.514   6.329 -0.2689 -0.0197  0.2238
   57SAPC   H5R 4196   0.926   4.610   6.332 -1.4767 -0.6353 -0.9417
   57SAPC   C26 4197   0.957   4.436   6.218  1.2866 -0.3041 -0.0277
   57SAPC   H6R 4198   0.885   4.475   6.145 -0.0271 -0.3743  1.1874
   57SAPC   C27 4199   1.032   4.302   6.197  0.3942  0.1885  0.0087
   57SAPC   H7R 4200   1.105   4.278   6.278  0.2285  0.8379  0.3521
   57SAPC   H7S 4201   1.101   4.324   6.113  0.0916 -2.9260 -1.2210
   57SAPC   C28 4202   0.943   4.187   6.160  0.0436 -0.0497  0.4362
   57SAPC   H8R 4203   0.888   4.139   6.242 -1.2854  0.0315 -0.3720
   57SAPC   C29 4204   0.915   4.146   6.035  1.2380 -0.0791 -0.4453
   57SAPC   H9R 4205   0.852   4.057   6.043  0.4144  0.5278 -0.0562
   57SAPC  C210 4206   0.971   4.221   5.912  0.3895  0.5267  0.5276
   57SAPC  H10R 4207   1.080   4.238   5.924  0.2905  0.7384  1.1479
   57SAPC  H10S 4208   0.911   4.313   5.900  1.8146  1.8679  3.0622
   57SAPC  C211 4209   0.968   4.132   5.789  0.0893 -0.5041  0.7105
   57SAPC  H11R 4210   1.020   4.035   5.792 -1.4112 -1.5344 -2.5022
   57SAPC  C212 4211   0.915   4.155   5.667 -0.9546  0.5991  0.2393
   57SAPC  H12R 4212   0.949   4.091   5.584  4.2353  1.4282  1.4194
   57SAPC  C213 4213   0.839   4.280   5.626 -0.7989  0.5957 -0.4682
   57SAPC  H13R 4214   0.846   4.359   5.703  1.7023  0.4094 -0.4029
   57SAPC  H13S 4215   0.734   4.251   5.604 -0.0579 -2.4051 -0.6229
   57SAPC  C214 4216   0.909   4.342   5.503  0.6348  0.1562 -0.3614
   57SAPC  H14R 4217   0.983   4.420   5.529  1.0299 -0.0601 -0.8212
   57SAPC  C215 4218   0.874   4.324   5.374 -0.1749 -0.4493 -0.3671
   57SAPC  H15R 4219   0.934   4.381   5.301 -0.0654 -1.9254 -1.4715
   57SAPC  C216 4220   0.783   4.220   5.316 -0.1977 -0.0740 -0.1141
   57SAPC  H16R 4221   0.701   4.181   5.381 -1.8437 -0.0127 -2.0636
   57SAPC  H16S 4222   0.850   4.139   5.282  1.4862  2.1357 -2.4226
   57SAPC  C217 4223   0.705   4.282   5.204  0.6226  0.1431 -0.8010
   57SAPC  H17R 4224   0.620   4.345   5.237  0.6248 -0.4292  0.3434
   57SAPC  H17S 4225   0.655   4.205   5.142 -0.1704 -0.5402  0.6254
   57SAPC  C218 4226   0.785   4.348   5.089  0.9154  0.4339  0.3157
   57SAPC  H18R 4227   0.826   4.448   5.116 -0.0971  1.3957 -1.5016
   57SAPC  H18S 4228   0.715   4.371   5.006  0.5407  1.6473  0.9347
   57SAPC  C219 4229   0.902   4.266   5.034  0.1094  0.4744  0.5511
   57SAPC  H19R 4230   0.980   4.255   5.112 -1.0525 -2.0473  1.4597
   57SAPC  H19S 4231   0.949   4.333   4.959 -0.6010  0.1487 -0.2097
   57SAPC  C220 4232   0.875   4.130   4.972  0.5007  0.0712  0.5356
   57SAPC  H20R 4233   0.967   4.073   4.947  0.4982  0.8743 -1.4589
   57SAPC  H20S 4234   0.819   4.146   4.878  1.7522  0.7699 -0.1232
   57SAPC  H20T 4235   0.814   4.068   5.041 -0.6370  0.5996  0.0319
   57SAPC   C33 4236   0.874   4.068   6.657 -0.0174  0.2486 -0.0080
   57SAPC   H3X 4237   0.781   4.075   6.718  0.5238  1.3987  0.7063
   57SAPC   H3Y 4238   0.947   3.990   6.688  0.7975  2.3188  3.8485
   57SAPC   C34 4239   0.827   4.026   6.514 -0.5244 -0.4572  0.8502
   57SAPC   H4X 4240   0.907   4.044   6.440  0.6088 -2.0025  1.6303
   57SAPC   H4Y 4241   0.739   4.091   6.492  0.8917  1.6665  1.1768
   57SAPC   C35 4242   0.810   3.875   6.493  0.3789  0.1129  0.6173
   57SAPC   H5X 4243   0.741   3.838   6.571  0.0951  1.2949  0.9563
   57SAPC   H5Y 4244   0.903   3.817   6.506 -0.0442 -0.6491  0.2983
   57SAPC   C36 4245   0.761   3.849   6.351  0.3846 -0.0495  1.0848
   57SAPC   H6X 4246   0.832   3.899   6.282  1.0614  1.5897  2.8761
   57SAPC   H6Y 4247   0.662   3.900   6.354  0.2399 -0.1311 -0.8254
   57SAPC   C37 4248   0.745   3.702   6.331  0.0872 -0.0190  0.2671
   57SAPC   H7X 4249   0.698   3.662   6.423  0.0628  1.0416  0.7236
   57SAPC   H7Y 4250   0.849   3.663   6.322  0.6274  0.8292  2.3522
   57SAPC   C38 4251   0.667   3.655   6.211 -0.6759 -0.2492 -0.0713
   57SAPC   H8X 4252   0.691   3.701   6.112 -0.3164 -1.8432 -0.7556
   57SAPC   H8Y 4253   0.560   3.679   6.229 -0.1483  0.0276  3.1669
   57SAPC   C39 4254   0.666   3.505   6.192  0.5767  0.2712 -0.4068
   57SAPC   H9X 4255   0.634   3.475   6.294  1.6876  2.2662  0.6126
   57SAPC   H9Y 4256   0.760   3.452   6.166 -0.5771 -1.4586 -1.1656
   57SAPC  C310 4257   0.570   3.467   6.081 -0.4173  0.5126 -0.4212
   57SAPC  H10X 4258   0.473   3.519   6.093  0.9747  2.8684  1.6699
   57SAPC  H10Y 4259   0.576   3.357   6.084  0.0477  0.4899 -1.5546
   57SAPC  C311 4260   0.611   3.502   5.932  0.0064 -0.0146 -0.3402
   57SAPC  H11X 4261   0.697   3.438   5.904  0.2411 -0.1895  0.7408
   57SAPC  H11Y 4262   0.644   3.608   5.926 -2.0994  0.7469  0.4726
   57SAPC  C312 4263   0.492   3.487   5.845 -0.4928 -0.1144  0.8028
   57SAPC  H12X 4264   0.413   3.554   5.886  0.9915  1.4317  1.2475
   57SAPC  H12Y 4265   0.452   3.383   5.841  1.0345 -0.6995 -1.3314
   57SAPC  C313 4266   0.522   3.528   5.698  0.0871 -0.1092 -0.1095
   57SAPC  H13X 4267   0.608   3.597   5.688  1.0747 -1.1606  0.8151
   57SAPC  H13Y 4268   0.430   3.576   5.658 -0.0020 -0.3202 -0.1558
   57SAPC  C314 4269   0.554   3.396   5.627  0.1876  0.3832  0.0144
   57SAPC  H14X 4270   0.471   3.327   5.653  0.6379  0.2923  1.2287
   57SAPC  H14Y 4271   0.651   3.358   5.665  1.2544 -0.6194 -3.3118
   57SAPC  C315 4272   0.571   3.416   5.479 -0.4150  0.0834 -0.0833
   57SAPC  H15X 4273   0.614   3.322   5.438  0.0921  1.0083 -1.7876
   57SAPC  H15Y 4274   0.660   3.480   5.460 -0.2028 -0.4461 -0.9406
   57SAPC  C316 4275   0.451   3.467   5.407 -0.5398 -0.1727 -0.1126
   57SAPC  H16X 4276   0.426   3.569   5.443  0.9941  0.5158 -0.9059
   57SAPC  H16Y 4277   0.368   3.401   5.440  0.1042 -2.2053 -2.3183
   57SAPC  C317 4278   0.470   3.460   5.254  0.5538 -0.2040  0.2430
   57SAPC  H17X 4279   0.508   3.361   5.220 -0.9101 -0.1631 -1.6473
   57SAPC  H17Y 4280   0.553   3.529   5.227 -0.6969  1.1771 -0.2348
   57SAPC  C318 4281   0.342   3.505   5.180 -0.0039  0.3937  1.0291
   57SAPC  H18X 4282   0.372   3.524   5.074  0.8838 -1.0880  0.9774
   57SAPC  H18Y 4283   0.310   3.604   5.218  0.3113  1.2411 -0.7867
   57SAPC  H18Z 4284   0.260   3.430   5.179  1.3237 -1.2078 -2.0387
   58SAPC     N 4285   5.523   4.677   7.300  0.2230 -0.0993 -0.2845
   58SAPC   C12 4286   5.400   4.601   7.262  0.4752  0.0063  0.2657
   58SAPC  H12A 4287   5.374   4.620   7.159  0.0754  1.0468  0.5450
   58SAPC  H12B 4288   5.329   4.658   7.322  0.4021  0.0289  0.1586
   58SAPC   C13 4289   5.631   4.657   7.189  0.8144 -0.0817 -0.4424
   58SAPC  H13A 4290   5.729   4.662   7.235  1.5974  0.0630 -2.0354
   58SAPC  H13B 4291   5.618   4.561   7.141  1.2583 -0.1224 -0.4924
   58SAPC  H13C 4292   5.631   4.729   7.108 -1.1654  1.7905  1.0927
   58SAPC   C14 4293   5.504   4.824   7.313 -0.1844  0.6580  0.1610
   58SAPC  H14A 4294   5.471   4.854   7.215 -1.0918  2.3545  0.9347
   58SAPC  H14B 4295   5.447   4.869   7.393  0.3983  0.0030  0.9614
   58SAPC  H14C 4296   5.605   4.856   7.334 -0.4362 -0.1303  3.0038
   58SAPC   C15 4297   5.574   4.626   7.431  0.2251  0.4156  0.3315
   58SAPC  H15A 4298   5.493   4.639   7.502 -0.2431  0.1592 -0.1503
   58SAPC  H15B 4299   5.611   4.525   7.420  0.7713  0.6195  0.2833
   58SAPC  H15C 4300   5.651   4.691   7.470 -0.0297  0.3761  0.9047
   58SAPC   C11 4301   5.393   4.454   7.286 -0.1856 -0.3556  0.3896
   58SAPC  H11A 4302   5.287   4.421   7.274 -0.2973 -0.1290  0.7671
   58SAPC  H11B 4303   5.426   4.430   7.389 -2.0683  0.0868  1.1367
   58SAPC     P 4304   5.454   4.359   7.044  0.2305 -0.0134 -0.4790
   58SAPC   O13 4305   5.513   4.469   6.970  0.3566  0.5252 -0.7842
   58SAPC   O14 4306   5.500   4.230   7.005 -0.0235  0.3899 -0.4909
   58SAPC   O12 4307   5.481   4.383   7.197  0.4391  0.3549 -0.0708
   58SAPC   O11 4308   5.294   4.366   7.030 -0.8081  0.2181 -0.0400
   58SAPC    C1 4309   5.228   4.475   6.969 -0.2855  0.0087  0.2711
   58SAPC    HA 4310   5.121   4.478   7.001 -0.3212 -2.1019  0.4669
   58SAPC    HB 4311   5.272   4.572   7.001  1.7325 -0.5435 -0.7048
   58SAPC    C2 4312   5.214   4.453   6.819  0.1098  0.0819  0.3606
   58SAPC    HS 4313   5.151   4.362   6.807  3.1870 -2.0379 -0.9921
   58SAPC   O21 4314   5.338   4.437   6.748 -0.0825  0.2267  0.2104
   58SAPC   C21 4315   5.369   4.318   6.723 -0.2607  0.6755 -0.6297
   58SAPC   O22 4316   5.316   4.217   6.762  0.1314 -0.5782  0.1588
   58SAPC   C22 4317   5.505   4.312   6.645 -0.1315  0.1190  0.3663
   58SAPC   H2R 4318   5.544   4.413   6.623 -0.6562 -0.0169 -1.3330
   58SAPC   H2S 4319   5.577   4.271   6.719  1.2358 -0.3379 -1.1540
   58SAPC    C3 4320   5.143   4.573   6.761 -0.3834 -0.5992 -0.0237
   58SAPC    HX 4321   5.199   4.665   6.790  0.1506 -1.3791  1.5476
   58SAPC    HY 4322   5.040   4.578   6.803 -0.7716  1.5410 -1.0668
   58SAPC   O31 4323   5.124   4.544   6.620  0.4903  0.1834 -0.2640
   58SAPC   C31 4324   5.178   4.630   6.541 -0.0666  0.1439  0.4091
   58SAPC   O32 4325   5.206   4.747   6.562 -0.2597  0.2260 -0.0955
   58SAPC   C32 4326   5.192   4.569   6.400  0.6766  0.4258  0.2770
   58SAPC   H2X 4327   5.087   4.568   6.363  0.7656 -1.6129 -0.0456
   58SAPC   H2Y 4328   5.234   4.467   6.418 -1.8213 -0.9355 -1.0372
   58SAPC   C23 4329   5.503   4.215   6.523 -0.4354 -0.2895 -0.0120
   58SAPC   H3R 4330   5.480   4.114   6.563  0.5692 -0.7584 -0.5573
   58SAPC   H3S 4331   5.606   4.218   6.480 -0.1827  1.8148  0.6424
   58SAPC   C24 4332   5.408   4.258   6.407  0.1394  0.1592 -0.9193
   58SAPC   H4R 4333   5.445   4.352   6.360  0.3227 -0.4241 -1.9861
   58SAPC   H4S 4334   5.308   4.270   6.453  1.2973  1.7103  1.3637
   58SAPC   C25 4335   5.417   4.148   6.301 -0.0635 -0.2132  0.1572
   58SAPC   H5R 4336   5.397   4.048   6.340 -1.2943  0.2748  0.8177
   58SAPC   C26 4337   5.449   4.160   6.167 -0.3992  0.2107 -0.4919
   58SAPC   H6R 4338   5.438   4.063   6.116 -0.7687 -0.4652  0.8173
   58SAPC   C27 4339   5.475   4.286   6.088  0.7424 -0.5396 -0.6326
   58SAPC   H7R 4340   5.538   4.356   6.146  2.9753 -0.2522 -3.2117
   58SAPC   H7S 4341   5.383   4.345   6.066  1.5836  1.2134  0.4431
   58SAPC   C28 4342   5.558   4.254   5.967  0.0339  0.2745 -0.6282
   58SAPC   H8R 4343   5.666   4.266   5.985 -0.2402  0.4067  1.1560
   58SAPC   C29 4344   5.514   4.219   5.846 -0.7572  0.2264 -0.5370
   58SAPC   H9R 4345   5.581   4.186   5.765  0.2746  1.4842 -0.2364
   58SAPC  C210 4346   5.371   4.190   5.801 -0.4550 -0.5623 -0.1852
   58SAPC  H10R 4347   5.343   4.283   5.747  0.0012  0.1786  0.8044
   58SAPC  H10S 4348   5.305   4.191   5.891  0.4132 -1.2365  0.4692
   58SAPC  C211 4349   5.346   4.061   5.740 -0.1152  0.4059 -0.5448
   58SAPC  H11R 4350   5.348   3.980   5.814  1.7702  0.4344 -0.5203
   58SAPC  C212 4351   5.327   4.027   5.617  0.5084 -0.5174 -0.7893
   58SAPC  H12R 4352   5.340   3.919   5.602  2.1666 -0.3164 -0.9566
   58SAPC  C213 4353   5.311   4.117   5.499 -0.2586  0.1742 -0.1164
   58SAPC  H13R 4354   5.405   4.117   5.439 -1.4280 -1.4949 -2.1007
   58SAPC  H13S 4355   5.304   4.224   5.525 -0.4630  0.1766 -0.1820
   58SAPC  C214 4356   5.204   4.073   5.403 -1.3735 -0.1705  0.2233
   58SAPC  H14R 4357   5.125   4.005   5.437 -1.3257 -1.2046 -1.5685
   58SAPC  C215 4358   5.209   4.108   5.266 -0.0380  0.1085  0.1316
   58SAPC  H15R 4359   5.125   4.072   5.205  0.1371 -0.0000 -0.0450
   58SAPC  C216 4360   5.294   4.210   5.198 -0.7581  0.6255 -0.4119
   58SAPC  H16R 4361   5.351   4.264   5.276 -1.1923  1.5086 -0.6951
   58SAPC  H16S 4362   5.225   4.282   5.149  0.1277  0.0954 -2.5474
   58SAPC  C217 4363   5.394   4.164   5.090  0.2877 -0.1644  0.1900
   58SAPC  H17R 4364   5.454   4.255   5.065 -1.1477  1.3899  2.1302
   58SAPC  H17S 4365   5.347   4.126   4.996  0.5866 -0.2925  0.0899
   58SAPC  C218 4366   5.492   4.055   5.130 -0.9730 -0.1792 -0.0789
   58SAPC  H18R 4367   5.453   3.954   5.151 -0.4576 -0.5565 -0.8767
   58SAPC  H18S 4368   5.549   4.075   5.223 -0.4838  1.9687 -0.7816
   58SAPC  C219 4369   5.588   4.016   5.014 -0.0232 -1.5563  0.2234
   58SAPC  H19R 4370   5.647   4.105   4.984  1.6147 -1.8501  2.3395
   58SAPC  H19S 4371   5.528   3.974   4.930  0.4738 -1.0995 -0.3650
   58SAPC  C220 4372   5.690   3.920   5.059  1.3121 -0.0227  0.0595
   58SAPC  H20R 4373   5.749   3.956   5.146  0.2751 -0.6186  1.0278
   58SAPC  H20S 4374   5.757   3.882   4.978 -0.3206 -0.1961 -1.2693
   58SAPC  H20T 4375   5.633   3.832   5.096 -0.4472  0.7398 -0.7544
   58SAPC   C33 4376   5.265   4.657   6.288 -0.6829  0.1091  0.0138
   58SAPC   H3X 4377   5.376   4.653   6.296 -0.4719  2.1928 -1.0968
   58SAPC   H3Y 4378   5.226   4.759   6.312 -1.7198 -0.3474  0.3307
   58SAPC   C34 4379   5.233   4.626   6.143 -0.2965 -0.3197  0.8024
   58SAPC   H4X 4380   5.123   4.611   6.145 -0.2811 -0.3489  2.2613
   58SAPC   H4Y 4381   5.278   4.526   6.122 -0.8848 -0.7932  1.7024
   58SAPC   C35 4382   5.267   4.731   6.038  0.5373  0.5097  0.3814
   58SAPC   H5X 4383   5.376   4.740   6.021  0.6435  0.8975  1.2013
   58SAPC   H5Y 4384   5.232   4.826   6.083 -1.2375 -0.4125  1.0831
   58SAPC   C36 4385   5.197   4.701   5.906 -0.1327  0.5011  0.2991
   58SAPC   H6X 4386   5.197   4.789   5.838  1.8915  0.3271 -0.0013
   58SAPC   H6Y 4387   5.089   4.691   5.930 -0.3795  0.3436 -0.8365
   58SAPC   C37 4388   5.257   4.571   5.828 -0.2677 -0.3491  0.3000
   58SAPC   H7X 4389   5.242   4.482   5.892  1.4065 -1.1590 -0.3610
   58SAPC   H7Y 4390   5.367   4.587   5.819 -0.2006 -1.6394 -2.1842
   58SAPC   C38 4391   5.199   4.554   5.690  1.1611 -0.0498 -0.0528
   58SAPC   H8X 4392   5.097   4.511   5.702  0.4853  1.3158 -0.6100
   58SAPC   H8Y 4393   5.251   4.469   5.642  0.8159  0.3165 -1.1063
   58SAPC   C39 4394   5.187   4.679   5.599 -0.1657 -0.5135  0.0107
   58SAPC   H9X 4395   5.115   4.758   5.631  2.1249  2.8692 -2.4647
   58SAPC   H9Y 4396   5.153   4.648   5.498  0.5329 -0.5645 -0.2082
   58SAPC  C310 4397   5.316   4.759   5.578  0.0262 -0.0706  0.3647
   58SAPC  H10X 4398   5.363   4.779   5.677 -0.6347  2.9326  0.1583
   58SAPC  H10Y 4399   5.294   4.857   5.531 -0.7207 -1.4050 -2.2765
   58SAPC  C311 4400   5.418   4.669   5.497  0.1646 -0.2415  0.2462
   58SAPC  H11X 4401   5.406   4.561   5.517 -0.4524  0.0279  1.4131
   58SAPC  H11Y 4402   5.524   4.693   5.524  0.7754 -3.0391  0.6354
   58SAPC  C312 4403   5.397   4.680   5.347  0.3300  0.2786  0.1149
   58SAPC  H12X 4404   5.430   4.781   5.313  0.4665  0.4934  0.8603
   58SAPC  H12Y 4405   5.289   4.665   5.325 -0.2114 -0.5485  2.9316
   58SAPC  C313 4406   5.483   4.581   5.266  0.2411  0.7847 -0.2559
   58SAPC  H13X 4407   5.457   4.476   5.292  2.0084  0.5434  0.6649
   58SAPC  H13Y 4408   5.591   4.598   5.285  0.7210  0.5355 -2.4664
   58SAPC  C314 4409   5.460   4.591   5.113  0.9117 -0.5038 -0.8509
   58SAPC  H14X 4410   5.350   4.590   5.104  1.0078  0.5149 -2.6154
   58SAPC  H14Y 4411   5.493   4.504   5.051 -0.8745 -1.9025  0.0651
   58SAPC  C315 4412   5.499   4.729   5.054 -0.0579  0.5687 -0.7112
   58SAPC  H15X 4413   5.590   4.763   5.110 -0.2786  1.0294 -0.6226
   58SAPC  H15Y 4414   5.421   4.801   5.088  0.4685 -0.5472  3.4602
   58SAPC  C316 4415   5.537   4.751   4.906  0.3748  0.8271  0.6225
   58SAPC  H16X 4416   5.554   4.861   4.895  0.3492  0.5715 -3.1640
   58SAPC  H16Y 4417   5.447   4.723   4.848  0.5145 -0.7573  1.1201
   58SAPC  C317 4418   5.661   4.680   4.859 -0.0118  0.6027 -0.6826
   58SAPC  H17X 4419   5.671   4.716   4.755  0.1748 -1.0050 -1.2514
   58SAPC  H17Y 4420   5.638   4.572   4.864 -0.7056  0.7909  1.8018
   58SAPC  C318 4421   5.793   4.712   4.931 -0.1528  1.0248  0.9173
   58SAPC  H18X 4422   5.880   4.675   4.873  0.6269  1.6412  1.6611
   58SAPC  H18Y 4423   5.785   4.686   5.038 -2.0338  2.3565  1.1515
   58SAPC  H18Z 4424   5.812   4.822   4.933  3.5624  0.6802 -2.5052
   59SAPC     N 4425   5.336   6.364   7.129  0.1354 -0.1807 -0.3221
   59SAPC   C12 4426   5.195   6.330   7.070 -0.8926 -0.4462  0.2965
   59SAPC  H12A 4427   5.146   6.255   7.129 -0.9714 -0.5209  0.1347
   59SAPC  H12B 4428   5.206   6.289   6.971 -1.2756  0.7657 -0.2709
   59SAPC   C13 4429   5.343   6.457   7.252  0.1962  0.1429 -0.5729
   59SAPC  H13A 4430   5.447   6.461   7.279  0.1101  1.3724 -0.3296
   59SAPC  H13B 4431   5.312   6.558   7.229  2.0919  0.3060 -2.8983
   59SAPC  H13C 4432   5.272   6.425   7.326  2.0875 -0.2405  1.1610
   59SAPC   C14 4433   5.405   6.233   7.170  0.3115 -0.3392 -0.3683
   59SAPC  H14A 4434   5.389   6.159   7.093 -0.6801 -0.5994  0.0700
   59SAPC  H14B 4435   5.511   6.255   7.176  1.1357 -3.6347 -0.8563
   59SAPC  H14C 4436   5.370   6.207   7.269  1.1327 -0.6249 -0.1452
   59SAPC   C15 4437   5.423   6.422   7.018  0.4205 -0.3610 -0.3126
   59SAPC  H15A 4438   5.441   6.341   6.948 -0.3564 -1.5987  0.8658
   59SAPC  H15B 4439   5.377   6.514   6.983 -0.0132 -0.2171  0.6030
   59SAPC  H15C 4440   5.522   6.446   7.054 -0.4227  0.3973  1.6380
   59SAPC   C11 4441   5.096   6.445   7.057  1.1954  0.9443  0.5113
   59SAPC  H11A 4442   5.023   6.439   6.973 -1.0219  1.6246  2.3080
   59SAPC  H11B 4443   5.162   6.531   7.033  1.3902  0.8880  0.8418
   59SAPC     P 4444   4.895   6.408   7.235 -0.6832 -0.2465 -0.1023
   59SAPC   O13 4445   4.915   6.262   7.225  0.3838 -0.4896  0.3555
   59SAPC   O14 4446   4.857   6.463   7.369 -0.3787  0.1063 -0.0263
   59SAPC   O12 4447   5.035   6.465   7.188  0.1870  0.3671 -0.0428
   59SAPC   O11 4448   4.801   6.450   7.127 -0.2501  0.0549  0.4242
   59SAPC    C1 4449   4.746   6.584   7.111 -0.2998  0.8509 -0.1060
   59SAPC    HA 4450   4.672   6.604   7.191  0.2592  1.2125  0.3276
   59SAPC    HB 4451   4.829   6.658   7.108  1.2364 -0.8378 -1.2410
   59SAPC    C2 4452   4.675   6.602   6.974 -0.1621  1.1414  0.6717
   59SAPC    HS 4453   4.577   6.551   6.987  0.2628  0.1071 -0.0814
   59SAPC   O21 4454   4.754   6.551   6.868 -0.3925  0.3192  0.5061
   59SAPC   C21 4455   4.701   6.445   6.806 -0.3915 -0.3958 -0.0233
   59SAPC   O22 4456   4.610   6.379   6.849 -0.4111  0.1482 -0.0109
   59SAPC   C22 4457   4.775   6.420   6.673  0.1046 -1.5318  0.2161
   59SAPC   H2R 4458   4.801   6.514   6.620  1.3897 -1.0558  1.6226
   59SAPC   H2S 4459   4.867   6.365   6.701  0.3911 -1.0131  0.2971
   59SAPC    C3 4460   4.647   6.749   6.948 -0.2084 -0.2464  0.4667
   59SAPC    HX 4461   4.749   6.790   6.942  0.9651 -2.6451  2.3280
   59SAPC    HY 4462   4.604   6.797   7.038  0.7811  0.1214  0.7526
   59SAPC   O31 4463   4.580   6.776   6.829 -0.3467  0.1684 -0.1101
   59SAPC   C31 4464   4.443   6.756   6.835  0.1076 -0.0968 -0.1903
   59SAPC   O32 4465   4.387   6.733   6.937  0.0093  0.3548 -0.4036
   59SAPC   C32 4466   4.397   6.755   6.696 -0.1404 -0.4750  0.1126
   59SAPC   H2X 4467   4.286   6.747   6.704 -0.8315  2.0371 -3.9218
   59SAPC   H2Y 4468   4.438   6.665   6.645 -1.0380 -0.5844 -0.4342
   59SAPC   C23 4469   4.696   6.332   6.571  0.1436  0.6579 -0.5328
   59SAPC   H3R 4470   4.624   6.272   6.630  2.2082  0.3064  1.8285
   59SAPC   H3S 4471   4.772   6.270   6.519 -2.0744 -2.4454 -0.3150
   59SAPC   C24 4472   4.612   6.397   6.466  0.0200 -0.3226  0.3365
   59SAPC   H4R 4473   4.553   6.477   6.517 -0.0994  0.1152 -0.4661
   59SAPC   H4S 4474   4.534   6.328   6.427  1.4393 -1.4456 -0.6123
   59SAPC   C25 4475   4.680   6.437   6.334  0.9623 -0.4939  0.2922
   59SAPC   H5R 4476   4.746   6.358   6.294  0.7491 -1.2207  1.3501
   59SAPC   C26 4477   4.674   6.556   6.274 -0.2096 -0.3300  0.1298
   59SAPC   H6R 4478   4.735   6.567   6.183 -0.7881  1.2270 -0.0936
   59SAPC   C27 4479   4.610   6.685   6.320 -0.0960  0.8526  0.2767
   59SAPC   H7R 4480   4.657   6.703   6.419  0.5815 -1.1978  0.3798
   59SAPC   H7S 4481   4.501   6.675   6.335 -0.4209  1.7459 -1.2126
   59SAPC   C28 4482   4.638   6.801   6.225  0.3114  0.3009  0.2039
   59SAPC   H8R 4483   4.693   6.887   6.267  0.6896  0.4816 -0.6183
   59SAPC   C29 4484   4.599   6.814   6.095  0.3314 -0.9899 -0.1707
   59SAPC   H9R 4485   4.604   6.916   6.054  0.8595 -0.6205  0.7957
   59SAPC  C210 4486   4.519   6.718   6.020  0.6987  0.9075  0.6767
   59SAPC  H10R 4487   4.441   6.777   5.966 -0.4076 -1.4694 -0.4848
   59SAPC  H10S 4488   4.471   6.640   6.083  0.8648  1.4065  1.4294
   59SAPC  C211 4489   4.613   6.653   5.921  0.5058 -0.2505  0.0173
   59SAPC  H11R 4490   4.692   6.587   5.959  0.9260  0.9429  1.3199
   59SAPC  C212 4491   4.615   6.683   5.798  0.1761  0.2187  0.5113
   59SAPC  H12R 4492   4.704   6.647   5.744  0.0220  1.6682 -0.7721
   59SAPC  C213 4493   4.523   6.765   5.712 -0.3527 -0.4646  0.2029
   59SAPC  H13R 4494   4.427   6.770   5.768  0.1028 -2.9103  1.3264
   59SAPC  H13S 4495   4.505   6.722   5.612 -0.8149  2.6440 -1.1730
   59SAPC  C214 4496   4.566   6.908   5.683 -0.3926  0.0753  0.5495
   59SAPC  H14R 4497   4.638   6.952   5.753 -0.5931  0.8686  0.2612
   59SAPC  C215 4498   4.490   6.991   5.616 -0.3871 -0.3877  0.0412
   59SAPC  H15R 4499   4.526   7.095   5.612 -0.7697 -0.2341  0.5697
   59SAPC  C216 4500   4.366   6.965   5.534  0.7370  0.0312 -0.5305
   59SAPC  H16R 4501   4.282   7.026   5.576  0.1669 -1.4684  0.5939
   59SAPC  H16S 4502   4.327   6.861   5.537 -0.9565  0.6419 -0.1193
   59SAPC  C217 4503   4.400   6.999   5.388  0.1493 -0.2429  0.1579
   59SAPC  H17R 4504   4.457   6.918   5.337 -2.1465 -1.5499 -0.4656
   59SAPC  H17S 4505   4.457   7.093   5.374  0.8393 -0.4488  1.4698
   59SAPC  C218 4506   4.273   7.021   5.304 -0.3907 -0.6818 -1.3471
   59SAPC  H18R 4507   4.247   7.129   5.318  0.9315 -0.2988 -1.6906
   59SAPC  H18S 4508   4.194   6.950   5.336 -1.1387  0.9888  0.7634
   59SAPC  C219 4509   4.299   6.988   5.150 -0.2650 -0.0607  0.0388
   59SAPC  H19R 4510   4.203   7.007   5.098  0.4822 -0.4402 -1.5158
   59SAPC  H19S 4511   4.333   6.883   5.139  1.9656  0.7848 -1.9531
   59SAPC  C220 4512   4.403   7.080   5.085  0.5754 -0.0644  0.2364
   59SAPC  H20R 4513   4.505   7.062   5.125  0.0121  1.0878  2.3749
   59SAPC  H20S 4514   4.384   7.188   5.105  2.5584  0.4597 -0.5088
   59SAPC  H20T 4515   4.407   7.064   4.975  1.1613  0.7827  0.1210
   59SAPC   C33 4516   4.420   6.875   6.600  0.2469 -0.4582 -0.3564
   59SAPC   H3X 4517   4.418   6.835   6.496  0.5338 -4.0784  0.8958
   59SAPC   H3Y 4518   4.523   6.915   6.610 -0.9213  3.6019 -2.4549
   59SAPC   C34 4519   4.312   6.979   6.627 -0.1538 -0.1233 -0.2086
   59SAPC   H4X 4520   4.319   7.002   6.735  0.8680 -0.3566 -0.2158
   59SAPC   H4Y 4521   4.214   6.932   6.605 -0.8127  0.5184  1.2322
   59SAPC   C35 4522   4.323   7.122   6.564 -0.2199  0.0394  0.4409
   59SAPC   H5X 4523   4.411   7.165   6.617  1.5804 -3.7866  0.9762
   59SAPC   H5Y 4524   4.237   7.181   6.601 -2.8204 -0.5901 -3.9412
   59SAPC   C36 4525   4.314   7.131   6.412 -0.3336  0.3665 -0.0193
   59SAPC   H6X 4526   4.240   7.209   6.383 -0.4622 -0.0538 -0.8475
   59SAPC   H6Y 4527   4.261   7.035   6.397  2.0035 -1.0622  0.3930
   59SAPC   C37 4528   4.451   7.116   6.336 -0.5620  0.1390 -0.1881
   59SAPC   H7X 4529   4.493   7.015   6.358  1.2675  0.4845 -1.8625
   59SAPC   H7Y 4530   4.526   7.184   6.382 -1.3077 -0.0972  1.4542
   59SAPC   C38 4531   4.446   7.127   6.182  0.5575  0.1461 -0.2174
   59SAPC   H8X 4532   4.528   7.067   6.137  1.1831 -1.1138  2.3594
   59SAPC   H8Y 4533   4.476   7.233   6.167  1.8425  0.0282  1.2094
   59SAPC   C39 4534   4.306   7.099   6.109 -0.1797  0.4198 -0.3682
   59SAPC   H9X 4535   4.229   7.160   6.161 -0.0918 -0.2628  0.5877
   59SAPC   H9Y 4536   4.287   6.991   6.129 -0.2945  0.7242  1.2683
   59SAPC  C310 4537   4.302   7.114   5.953  0.7452 -0.0897 -0.5617
   59SAPC  H10X 4538   4.204   7.082   5.910 -0.8926  0.5777  2.4384
   59SAPC  H10Y 4539   4.380   7.047   5.912  1.7230  1.6984 -1.7730
   59SAPC  C311 4540   4.327   7.256   5.902 -0.6026  0.2723 -0.3897
   59SAPC  H11X 4541   4.426   7.287   5.944 -1.2112  2.3726 -0.3931
   59SAPC  H11Y 4542   4.251   7.313   5.960  0.2184  0.9723  0.0430
   59SAPC  C312 4543   4.318   7.292   5.754  0.4668 -0.7154  0.7474
   59SAPC  H12X 4544   4.395   7.236   5.697 -0.5123 -1.7359  0.3735
   59SAPC  H12Y 4545   4.338   7.401   5.744 -2.4048  0.2015  3.3311
   59SAPC  C313 4546   4.179   7.273   5.687  0.0488 -0.0600 -0.6381
   59SAPC  H13X 4547   4.100   7.321   5.748  0.5559  0.8335 -0.6624
   59SAPC  H13Y 4548   4.154   7.166   5.675  0.3061 -0.1052 -0.7759
   59SAPC  C314 4549   4.176   7.325   5.540 -0.2112 -0.1591  0.6977
   59SAPC  H14X 4550   4.258   7.274   5.485 -2.0012 -1.7850 -0.6143
   59SAPC  H14Y 4551   4.210   7.431   5.545 -1.3659  0.1887  1.8416
   59SAPC  C315 4552   4.045   7.308   5.460 -0.4368  0.7835 -0.2025
   59SAPC  H15X 4553   3.961   7.340   5.526 -3.1506 -3.2291 -1.3613
   59SAPC  H15Y 4554   4.021   7.200   5.448 -1.0562  0.9580 -0.6035
   59SAPC  C316 4555   4.062   7.383   5.331 -0.2318 -0.0249  0.0354
   59SAPC  H16X 4556   4.156   7.362   5.275  0.2615  1.0472  0.4331
   59SAPC  H16Y 4557   4.074   7.492   5.349  0.5201 -0.1524  0.3411
   59SAPC  C317 4558   3.943   7.358   5.235 -0.0324 -0.0365 -0.3716
   59SAPC  H17X 4559   3.937   7.443   5.164 -1.3787  1.3150  1.2884
   59SAPC  H17Y 4560   3.846   7.348   5.288  0.3101 -0.5131  0.1736
   59SAPC  C318 4561   3.963   7.234   5.142  0.1194 -0.3975 -0.3004
   59SAPC  H18X 4562   3.943   7.147   5.207  0.4567 -0.1156  0.1914
   59SAPC  H18Y 4563   4.064   7.229   5.097  0.5888 -1.2182  0.8146
   59SAPC  H18Z 4564   3.890   7.233   5.058 -0.2180  0.5868 -0.0353
   60SAPC     N 4565   2.608   0.380   7.808 -0.1391 -0.3093  0.3120
   60SAPC   C12 4566   2.583   0.461   7.681  0.0692  0.3046  0.2034
   60SAPC  H12A 4567   2.645   0.549   7.688 -0.9942  1.1692 -0.7364
   60SAPC  H12B 4568   2.485   0.500   7.657  0.6145  0.2108 -2.5799
   60SAPC   C13 4569   2.611   0.470   7.929 -0.3732  0.4453 -0.5377
   60SAPC  H13A 4570   2.636   0.416   8.019  0.5852  0.6760 -0.6423
   60SAPC  H13B 4571   2.691   0.543   7.923 -0.0600  0.1262 -0.2636
   60SAPC  H13C 4572   2.520   0.525   7.944 -0.1788  0.0563  2.6767
   60SAPC   C14 4573   2.501   0.278   7.837 -0.3700  0.1453  0.4462
   60SAPC  H14A 4574   2.403   0.323   7.848  0.1934  1.7957 -0.8592
   60SAPC  H14B 4575   2.503   0.212   7.751  0.7529  2.5582 -1.4940
   60SAPC  H14C 4576   2.515   0.216   7.924 -0.1603  0.9039  0.9642
   60SAPC   C15 4577   2.744   0.310   7.798 -0.0151  0.2090 -0.1680
   60SAPC  H15A 4578   2.764   0.261   7.893  1.6556 -2.0515 -1.5855
   60SAPC  H15B 4579   2.750   0.227   7.730  0.0652 -0.6419  0.8426
   60SAPC  H15C 4580   2.823   0.383   7.792  0.4342 -0.3438 -1.0754
   60SAPC   C11 4581   2.629   0.397   7.545  0.1905  0.3450  0.0697
   60SAPC  H11A 4582   2.738   0.373   7.548 -0.1011 -0.9899  2.0478
   60SAPC  H11B 4583   2.624   0.471   7.463  1.8008  0.7614  0.3040
   60SAPC     P 4584   2.418   0.266   7.459 -0.1146 -0.1088  0.0288
   60SAPC   O13 4585   2.343   0.163   7.530 -0.6494 -0.3777 -0.2620
   60SAPC   O14 4586   2.350   0.391   7.439 -0.0279 -0.1385  0.0680
   60SAPC   O12 4587   2.560   0.277   7.516 -0.0267  0.3124  0.4145
   60SAPC   O11 4588   2.458   0.218   7.314 -0.9664 -0.4049  0.2064
   60SAPC    C1 4589   2.571   0.128   7.283  0.8266 -0.9887 -0.1456
   60SAPC    HA 4590   2.663   0.179   7.318 -0.0771 -0.3679  1.4521
   60SAPC    HB 4591   2.552   0.041   7.349  2.1512 -0.5707  0.8221
   60SAPC    C2 4592   2.591   0.090   7.134 -0.5373 -0.3106 -0.0207
   60SAPC    HS 4593   2.689   0.040   7.121 -1.0155 -0.5433 -3.4482
   60SAPC   O21 4594   2.577   0.209   7.051  0.3085 -0.1884 -0.3551
   60SAPC   C21 4595   2.661   0.308   7.094  0.4818  0.3097  0.2984
   60SAPC   O22 4596   2.771   0.282   7.136  0.2132  0.5094  0.5918
   60SAPC   C22 4597   2.602   0.440   7.070 -0.7394 -0.0036  1.0050
   60SAPC   H2R 4598   2.516   0.421   7.001  1.6011 -0.7590 -1.8973
   60SAPC   H2S 4599   2.566   0.481   7.167 -0.1313 -1.4718  1.8860
   60SAPC    C3 4600   2.488  -0.018   7.085 -0.7890  0.0405  0.3627
   60SAPC    HX 4601   2.387   0.015   7.119 -0.4212  0.4817  1.0517
   60SAPC    HY 4602   2.507  -0.108   7.147 -1.1732  0.6804  1.4392
   60SAPC   O31 4603   2.502  -0.044   6.945 -0.4878  0.8028  0.4365
   60SAPC   C31 4604   2.429   0.033   6.862 -0.0718 -0.1714  0.5778
   60SAPC   O32 4605   2.332   0.094   6.900  0.0927 -0.3863 -0.2351
   60SAPC   C32 4606   2.481   0.024   6.721  0.3011 -0.1055 -0.0176
   60SAPC   H2X 4607   2.482  -0.085   6.699 -0.8177 -0.6548  2.3434
   60SAPC   H2Y 4608   2.588   0.055   6.724  0.4632 -0.2697 -2.2404
   60SAPC   C23 4609   2.706   0.544   6.996  1.2577  0.1050  0.3028
   60SAPC   H3R 4610   2.794   0.568   7.059  0.8714  1.6582  0.2724
   60SAPC   H3S 4611   2.647   0.638   6.994 -0.8358 -1.1467 -0.7121
   60SAPC   C24 4612   2.732   0.497   6.853 -0.1250 -0.0272  0.2939
   60SAPC   H4R 4613   2.633   0.493   6.804 -0.7105 -0.6107  1.4621
   60SAPC   H4S 4614   2.772   0.393   6.850  0.0231 -0.0468  1.8170
   60SAPC   C25 4615   2.826   0.589   6.775  0.7040  0.2093 -0.3922
   60SAPC   H5R 4616   2.897   0.646   6.835 -0.0238 -1.0165  1.7240
   60SAPC   C26 4617   2.814   0.628   6.647 -0.2146  0.2603 -0.5371
   60SAPC   H6R 4618   2.887   0.703   6.613 -0.6365  0.4759 -0.9921
   60SAPC   C27 4619   2.715   0.592   6.542  0.6701  0.2464 -0.4402
   60SAPC   H7R 4620   2.694   0.682   6.481  0.1193 -0.2712 -1.0216
   60SAPC   H7S 4621   2.619   0.558   6.588 -0.4572  2.3652 -1.1175
   60SAPC   C28 4622   2.763   0.473   6.457  0.3418  0.0282 -0.7516
   60SAPC   H8R 4623   2.789   0.383   6.516 -2.5695 -0.8616 -0.6783
   60SAPC   C29 4624   2.759   0.459   6.325  0.2026 -0.5480  0.1868
   60SAPC   H9R 4625   2.790   0.363   6.281  0.9998 -1.0627  1.7902
   60SAPC  C210 4626   2.718   0.562   6.219 -0.2773  0.2437 -0.3450
   60SAPC  H10R 4627   2.794   0.565   6.137 -1.0143 -0.5946 -1.0832
   60SAPC  H10S 4628   2.724   0.661   6.270 -0.5146 -0.7420  1.6872
   60SAPC  C211 4629   2.579   0.536   6.160 -0.0374 -0.5506  0.6854
   60SAPC  H11R 4630   2.497   0.544   6.233  1.0612  1.9091  1.7623
   60SAPC  C212 4631   2.547   0.529   6.031  0.6360  0.1714 -0.2086
   60SAPC  H12R 4632   2.438   0.525   6.016  0.4735 -2.3214  1.0697
   60SAPC  C213 4633   2.633   0.549   5.910  0.3811 -0.4412  0.1899
   60SAPC  H13R 4634   2.703   0.634   5.917 -1.7591  1.4504 -0.2334
   60SAPC  H13S 4635   2.563   0.584   5.831 -0.7374 -0.0491  1.3099
   60SAPC  C214 4636   2.708   0.419   5.874  0.4644  0.1910 -0.3177
   60SAPC  H14R 4637   2.737   0.351   5.956 -0.8908 -0.8093 -0.6356
   60SAPC  C215 4638   2.757   0.394   5.752 -0.2342 -0.0950 -0.0481
   60SAPC  H15R 4639   2.836   0.319   5.745  0.8828  1.0210  0.1783
   60SAPC  C216 4640   2.735   0.486   5.627  0.2000  0.4991  0.1988
   60SAPC  H16R 4641   2.835   0.505   5.584 -0.5112 -1.1796 -2.5054
   60SAPC  H16S 4642   2.696   0.586   5.655 -2.1112 -0.2734  0.0120
   60SAPC  C217 4643   2.642   0.422   5.521 -0.5612 -0.2136 -0.4278
   60SAPC  H17R 4644   2.547   0.392   5.570  0.1669  1.8680  2.4947
   60SAPC  H17S 4645   2.683   0.337   5.462  1.1398  2.1857 -2.9492
   60SAPC  C218 4646   2.597   0.519   5.415 -0.2902  0.1327 -0.5484
   60SAPC  H18R 4647   2.691   0.570   5.386  1.6277 -3.6035 -1.5219
   60SAPC  H18S 4648   2.524   0.597   5.446 -0.2689  0.2691 -0.8326
   60SAPC  C219 4649   2.540   0.444   5.288 -0.1849 -0.4869  0.2768
   60SAPC  H19R 4650   2.484   0.519   5.228  0.6260 -0.8862 -1.0196
   60SAPC  H19S 4651   2.471   0.362   5.316  1.3426 -1.1996  2.1943
   60SAPC  C220 4652   2.639   0.398   5.180 -0.6291  0.0971  0.3410
   60SAPC  H20R 4653   2.698   0.310   5.211  0.8425  0.2954 -1.6847
   60SAPC  H20S 4654   2.716   0.478   5.173 -0.5715 -0.1126 -2.8707
   60SAPC  H20T 4655   2.605   0.388   5.074 -1.0773  3.1857  0.1092
   60SAPC   C33 4656   2.402   0.099   6.612 -0.2022 -0.2716  0.7084
   60SAPC   H3X 4657   2.383   0.205   6.638 -0.2811 -0.2862  0.7103
   60SAPC   H3Y 4658   2.302   0.051   6.601 -0.3553 -0.0736  1.2479
   60SAPC   C34 4659   2.461   0.106   6.469  0.2526 -0.6972  0.2826
   60SAPC   H4X 4660   2.562   0.152   6.471  0.1005 -0.3696  0.5292
   60SAPC   H4Y 4661   2.401   0.165   6.396  0.1006 -0.7106  0.3956
   60SAPC   C35 4662   2.489  -0.035   6.414  0.2570 -0.2091 -0.3259
   60SAPC   H5X 4663   2.413  -0.112   6.438  0.9799 -0.4299  1.3934
   60SAPC   H5Y 4664   2.580  -0.071   6.467  0.4865 -0.2796 -0.7690
   60SAPC   C36 4665   2.520  -0.040   6.261 -0.3671  0.2949 -0.5306
   60SAPC   H6X 4666   2.555  -0.142   6.232 -0.6205 -0.4021  1.4556
   60SAPC   H6Y 4667   2.602   0.034   6.250 -0.2813  0.2579 -0.1667
   60SAPC   C37 4668   2.411   0.004   6.168 -0.7306 -0.3165  0.9123
   60SAPC   H7X 4669   2.413   0.114   6.153  2.0129 -0.7415 -3.1102
   60SAPC   H7Y 4670   2.312  -0.023   6.212 -1.2893  0.4619  0.1576
   60SAPC   C38 4671   2.421  -0.071   6.028  0.3563  0.3037  0.1397
   60SAPC   H8X 4672   2.324  -0.073   5.975  0.6904 -0.6233 -0.4527
   60SAPC   H8Y 4673   2.437  -0.179   6.047  0.4038  0.5845  1.8626
   60SAPC   C39 4674   2.534  -0.012   5.933  0.4256  0.3012 -0.5307
   60SAPC   H9X 4675   2.630  -0.006   5.988  0.3489  1.4523 -0.4984
   60SAPC   H9Y 4676   2.506   0.094   5.912 -0.4450  0.3199  0.6319
   60SAPC  C310 4677   2.567  -0.115   5.821  0.7038 -0.1752  0.0852
   60SAPC  H10X 4678   2.576  -0.216   5.865 -0.4351  0.0207  0.8379
   60SAPC  H10Y 4679   2.666  -0.083   5.782 -0.2697  3.1048 -0.0438
   60SAPC  C311 4680   2.457  -0.118   5.708 -0.3311 -0.4820 -0.5992
   60SAPC  H11X 4681   2.458  -0.014   5.669  2.6598 -0.1069  0.2117
   60SAPC  H11Y 4682   2.362  -0.145   5.759 -0.2437  0.0002 -0.1750
   60SAPC  C312 4683   2.487  -0.219   5.596 -0.2266 -0.1836  0.5433
   60SAPC  H12X 4684   2.514  -0.311   5.652  0.4981  0.2265  0.8825
   60SAPC  H12Y 4685   2.569  -0.178   5.533 -3.4107  1.4056 -2.8856
   60SAPC  C313 4686   2.381  -0.243   5.499 -0.1777  0.5212  0.0063
   60SAPC  H13X 4687   2.308  -0.312   5.546  1.2860 -0.4575  0.9643
   60SAPC  H13Y 4688   2.423  -0.297   5.411 -0.3695 -0.1073  0.2903
   60SAPC  C314 4689   2.305  -0.123   5.446  0.3145  0.3896  0.1777
   60SAPC  H14X 4690   2.232  -0.075   5.515 -0.8784 -0.2471 -0.6056
   60SAPC  H14Y 4691   2.246  -0.160   5.359 -1.4816 -0.7971  1.8250
   60SAPC  C315 4692   2.394  -0.012   5.390 -0.7483  0.1900 -0.4307
   60SAPC  H15X 4693   2.469   0.020   5.465 -0.6083 -2.1270  0.4925
   60SAPC  H15Y 4694   2.328   0.074   5.364  1.5125  1.8163 -1.1141
   60SAPC  C316 4695   2.476  -0.045   5.267 -0.1610 -0.4837  0.9797
   60SAPC  H16X 4696   2.422  -0.102   5.189  0.2538  1.5964 -0.9172
   60SAPC  H16Y 4697   2.551  -0.121   5.296 -1.0203 -1.5400  0.4915
   60SAPC  C317 4698   2.541   0.071   5.190 -0.1082 -0.2708 -0.3726
   60SAPC  H17X 4699   2.601   0.123   5.268 -2.3948 -2.6028  3.1783
   60SAPC  H17Y 4700   2.466   0.143   5.150  2.1642  3.3479  1.3618
   60SAPC  C318 4701   2.631   0.032   5.072  0.5237 -0.0191  0.1325
   60SAPC  H18X 4702   2.716  -0.036   5.098  1.0182 -1.5788 -4.5764
   60SAPC  H18Y 4703   2.655   0.118   5.007 -1.3519  0.4023 -0.0625
   60SAPC  H18Z 4704   2.574  -0.025   4.995 -1.0661 -0.8559  1.8437
   61SAPC     N 4705   1.661   0.860   7.093  0.2747  1.1021  0.0408
   61SAPC   C12 4706   1.689   0.779   7.219 -0.2068  0.5853  0.0537
   61SAPC  H12A 4707   1.606   0.720   7.254 -0.0751  1.1031  1.2951
   61SAPC  H12B 4708   1.686   0.848   7.302 -0.3925  0.2496  0.3287
   61SAPC   C13 4709   1.630   0.756   6.979  0.0532 -0.0219 -0.1441
   61SAPC  H13A 4710   1.540   0.699   6.992 -1.7210  1.9298 -2.7952
   61SAPC  H13B 4711   1.624   0.798   6.880  0.5381 -2.4820 -1.2930
   61SAPC  H13C 4712   1.706   0.680   6.990  0.7962  0.8292  0.9342
   61SAPC   C14 4713   1.535   0.947   7.098  0.0233 -0.1341  1.0984
   61SAPC  H14A 4714   1.441   0.897   7.115 -0.9609  0.0832 -2.7336
   61SAPC  H14B 4715   1.547   1.030   7.166  2.4225  1.2771 -0.8738
   61SAPC  H14C 4716   1.517   0.994   7.003 -1.2222 -0.0840  1.3545
   61SAPC   C15 4717   1.778   0.941   7.069 -0.2921 -0.6070  0.1419
   61SAPC  H15A 4718   1.855   0.882   7.023 -0.4976  0.4658 -1.6668
   61SAPC  H15B 4719   1.762   1.015   6.992 -0.0348 -1.5092 -0.8160
   61SAPC  H15C 4720   1.817   0.993   7.155  0.1758 -2.8707  1.3761
   61SAPC   C11 4721   1.825   0.694   7.221  0.3453  0.5810 -0.0074
   61SAPC  H11A 4722   1.851   0.651   7.321  0.2591 -1.4155 -0.7874
   61SAPC  H11B 4723   1.912   0.747   7.176  1.7339  0.0969  1.9593
   61SAPC     P 4724   1.734   0.451   7.172  0.4067 -0.0704 -0.0334
   61SAPC   O13 4725   1.845   0.360   7.218 -0.1935 -0.1229  0.0382
   61SAPC   O14 4726   1.629   0.479   7.274 -0.0326 -0.0295  1.0615
   61SAPC   O12 4727   1.799   0.589   7.132 -0.4458  0.1693  0.1070
   61SAPC   O11 4728   1.673   0.403   7.035  0.2695  0.0565  0.0931
   61SAPC    C1 4729   1.751   0.392   6.916  0.0192  0.1477  0.3528
   61SAPC    HA 4730   1.784   0.488   6.871  0.2186 -0.8684 -1.7666
   61SAPC    HB 4731   1.841   0.332   6.940 -0.0936 -0.0696  0.2309
   61SAPC    C2 4732   1.673   0.302   6.815  0.1592  0.0907 -0.6396
   61SAPC    HS 4733   1.741   0.290   6.727  0.7765  2.7151 -0.6204
   61SAPC   O21 4734   1.550   0.379   6.778  0.0441 -0.5421 -0.7337
   61SAPC   C21 4735   1.571   0.456   6.671 -0.5160  0.0182  0.1621
   61SAPC   O22 4736   1.685   0.486   6.633  0.3100  0.6542 -0.1438
   61SAPC   C22 4737   1.443   0.504   6.608  0.3251 -0.4299  0.2858
   61SAPC   H2R 4738   1.363   0.434   6.640  0.0419  0.3482  1.3499
   61SAPC   H2S 4739   1.420   0.603   6.654 -0.4915 -0.6092  0.2774
   61SAPC    C3 4740   1.637   0.167   6.878 -0.2185 -1.0790 -1.0635
   61SAPC    HX 4741   1.566   0.194   6.959  1.2931 -0.7673  0.2091
   61SAPC    HY 4742   1.726   0.121   6.926  1.0695  2.5415  0.3671
   61SAPC   O31 4743   1.584   0.082   6.778  0.3136  0.2958  0.2752
   61SAPC   C31 4744   1.452   0.079   6.760  0.2292  0.3096 -0.0639
   61SAPC   O32 4745   1.363   0.127   6.831 -0.6863  0.0699  0.0959
   61SAPC   C32 4746   1.431  -0.019   6.644  1.1143  0.4932 -0.0319
   61SAPC   H2X 4747   1.339  -0.075   6.672  0.4196  1.8532  0.4725
   61SAPC   H2Y 4748   1.514  -0.092   6.631  0.5327  0.0222 -1.3099
   61SAPC   C23 4749   1.440   0.514   6.450  0.5851  0.0396 -0.8417
   61SAPC   H3R 4750   1.331   0.537   6.444  0.9916  2.3859 -0.2445
   61SAPC   H3S 4751   1.459   0.433   6.376 -2.1851  0.3840 -2.0881
   61SAPC   C24 4752   1.508   0.642   6.397 -0.3426  0.0108  0.3810
   61SAPC   H4R 4753   1.499   0.732   6.461 -0.1525  0.7118 -0.5548
   61SAPC   H4S 4754   1.449   0.675   6.308 -0.4358 -0.5051  0.2488
   61SAPC   C25 4755   1.652   0.628   6.352  0.2268  0.3282 -0.1890
   61SAPC   H5R 4756   1.725   0.648   6.432  1.2411  5.1436 -1.9857
   61SAPC   C26 4757   1.707   0.621   6.231 -0.0231  0.5537  0.0205
   61SAPC   H6R 4758   1.816   0.611   6.229 -0.2298 -2.4569 -1.9632
   61SAPC   C27 4759   1.635   0.597   6.105  0.9036  0.1997 -0.2481
   61SAPC   H7R 4760   1.642   0.687   6.040  3.9108  0.8143  0.7955
   61SAPC   H7S 4761   1.528   0.575   6.125  1.3982 -2.3631 -0.1353
   61SAPC   C28 4762   1.712   0.471   6.063 -0.0679  0.7067  0.7146
   61SAPC   H8R 4763   1.716   0.383   6.130 -1.4937  1.9929  2.5937
   61SAPC   C29 4764   1.784   0.458   5.944  0.4264 -0.3127  0.2701
   61SAPC   H9R 4765   1.831   0.359   5.937  2.3308  0.2074  3.4854
   61SAPC  C210 4766   1.796   0.551   5.827  0.0902  0.2892  0.6814
   61SAPC  H10R 4767   1.901   0.586   5.824  0.1073  0.2088  0.2760
   61SAPC  H10S 4768   1.730   0.641   5.834  0.3995  0.7012 -1.2440
   61SAPC  C211 4769   1.758   0.486   5.690 -0.1056 -0.2998 -0.5835
   61SAPC  H11R 4770   1.728   0.380   5.693  0.9362 -0.6859 -2.1932
   61SAPC  C212 4771   1.731   0.551   5.573 -0.3915 -0.0883  0.5190
   61SAPC  H12R 4772   1.711   0.496   5.480  0.8035  1.2848 -0.5960
   61SAPC  C213 4773   1.727   0.708   5.565 -0.0286  0.2793  0.0233
   61SAPC  H13R 4774   1.835   0.732   5.566  0.0294  0.5081 -3.0000
   61SAPC  H13S 4775   1.679   0.754   5.654 -0.0375  0.9165 -0.3033
   61SAPC  C214 4776   1.654   0.770   5.446 -0.2044 -0.2771  0.3556
   61SAPC  H14R 4777   1.732   0.797   5.373  2.0523 -3.1074  1.5021
   61SAPC  C215 4778   1.525   0.788   5.413 -0.2075  0.2218  0.0713
   61SAPC  H15R 4779   1.513   0.837   5.315 -0.2348  1.9507  0.9191
   61SAPC  C216 4780   1.404   0.760   5.503  0.2041  0.3221  1.2113
   61SAPC  H16R 4781   1.425   0.674   5.570 -1.1186 -2.5413 -1.7781
   61SAPC  H16S 4782   1.322   0.725   5.436 -0.0004 -1.7829  2.4775
   61SAPC  C217 4783   1.356   0.880   5.580 -0.2536 -0.4915  0.6117
   61SAPC  H17R 4784   1.315   0.953   5.507  1.5650  2.1557  2.0923
   61SAPC  H17S 4785   1.429   0.935   5.642 -0.3651  2.7817 -1.8776
   61SAPC  C218 4786   1.237   0.843   5.671 -0.3266  0.8766  0.2448
   61SAPC  H18R 4787   1.277   0.787   5.758 -0.8227 -0.0346 -0.1103
   61SAPC  H18S 4788   1.158   0.778   5.629  0.1292  0.4035  0.1197
   61SAPC  C219 4789   1.159   0.964   5.722  0.2940  0.0128 -0.4951
   61SAPC  H19R 4790   1.060   0.967   5.673 -1.0535 -1.2337  1.9425
   61SAPC  H19S 4791   1.215   1.057   5.699  2.7827 -1.5879 -1.4073
   61SAPC  C220 4792   1.132   0.958   5.872 -0.5693  0.6725  0.6035
   61SAPC  H20R 4793   1.133   0.854   5.910  2.2120  0.7229  0.8108
   61SAPC  H20S 4794   1.036   1.006   5.902  0.3070  1.5532  2.1560
   61SAPC  H20T 4795   1.214   1.014   5.922  1.1868 -0.5548 -0.8288
   61SAPC   C33 4796   1.397   0.061   6.518  0.4143 -0.5597  0.0365
   61SAPC   H3X 4797   1.353   0.163   6.528 -0.9434 -1.0622 -0.6145
   61SAPC   H3Y 4798   1.317  -0.001   6.471  0.2549  0.1635 -0.6703
   61SAPC   C34 4799   1.518   0.061   6.425 -0.0243  0.0869  0.2126
   61SAPC   H4X 4800   1.527  -0.045   6.392 -2.7138  0.4262 -1.9744
   61SAPC   H4Y 4801   1.614   0.095   6.468  1.0176 -1.4088 -0.8318
   61SAPC   C35 4802   1.482   0.130   6.291  0.0007  0.1598  0.2365
   61SAPC   H5X 4803   1.489   0.239   6.311  1.0981  0.1758 -0.1318
   61SAPC   H5Y 4804   1.377   0.119   6.259  0.4755  0.3221 -1.4848
   61SAPC   C36 4805   1.591   0.102   6.190  0.7120  0.2432 -0.3713
   61SAPC   H6X 4806   1.645   0.013   6.228  0.5851  0.9942  1.6754
   61SAPC   H6Y 4807   1.675   0.175   6.196  0.8958 -0.0462  0.8234
   61SAPC   C37 4808   1.539   0.086   6.052 -0.1282 -0.2610  0.2028
   61SAPC   H7X 4809   1.512   0.180   5.999 -3.0012 -1.9003 -1.5267
   61SAPC   H7Y 4810   1.445   0.026   6.055 -0.4204  0.2468  2.1907
   61SAPC   C38 4811   1.631   0.003   5.964 -0.0975  0.7735 -0.2278
   61SAPC   H8X 4812   1.659  -0.084   6.028 -0.6921  1.0747  0.4455
   61SAPC   H8Y 4813   1.727   0.057   5.950  0.8119 -0.5374  0.6499
   61SAPC   C39 4814   1.561  -0.034   5.831  0.1559 -0.4996 -0.2724
   61SAPC   H9X 4815   1.531   0.051   5.766 -3.6513  0.4448  2.3519
   61SAPC   H9Y 4816   1.469  -0.093   5.853 -1.1745  1.5414  0.0221
   61SAPC  C310 4817   1.652  -0.125   5.743  0.5348  0.0008 -0.0607
   61SAPC  H10X 4818   1.705  -0.192   5.814 -0.4778 -0.8957 -0.1220
   61SAPC  H10Y 4819   1.724  -0.053   5.698  1.5785 -0.3130  1.0607
   61SAPC  C311 4820   1.587  -0.189   5.623  0.1229  0.2328  0.7587
   61SAPC  H11X 4821   1.544  -0.110   5.558 -1.7720 -1.5637 -0.2914
   61SAPC  H11Y 4822   1.506  -0.261   5.648  0.4284  0.8095  3.7633
   61SAPC  C312 4823   1.696  -0.254   5.528 -0.2015 -0.1644  0.0604
   61SAPC  H12X 4824   1.663  -0.353   5.489  3.2783 -0.1557 -3.6652
   61SAPC  H12Y 4825   1.785  -0.276   5.590 -0.6891  0.2430  0.9142
   61SAPC  C313 4826   1.734  -0.163   5.420  0.4325 -0.1317  0.0017
   61SAPC  H13X 4827   1.744  -0.063   5.468  0.1444 -0.7538  1.4271
   61SAPC  H13Y 4828   1.641  -0.153   5.360  0.0542 -1.3414  0.3468
   61SAPC  C314 4829   1.861  -0.215   5.341  0.2238  0.0018  0.1586
   61SAPC  H14X 4830   1.829  -0.318   5.314 -1.6190  0.2218  1.3483
   61SAPC  H14Y 4831   1.957  -0.228   5.396 -0.0590 -1.1308  0.4111
   61SAPC  C315 4832   1.884  -0.134   5.212  0.6638  0.8163 -0.3803
   61SAPC  H15X 4833   1.903  -0.025   5.229  1.6108  0.4830  0.9038
   61SAPC  H15Y 4834   1.799  -0.148   5.143  0.0253  0.7996  0.3991
   61SAPC  C316 4835   2.005  -0.194   5.135  0.4835 -0.3957 -0.2984
   61SAPC  H16X 4836   1.978  -0.292   5.089 -2.4739  0.5379 -0.7997
   61SAPC  H16Y 4837   2.087  -0.213   5.208 -0.1005 -0.3394  0.3843
   61SAPC  C317 4838   2.050  -0.105   5.008  0.1340  0.3470  0.3263
   61SAPC  H17X 4839   1.968  -0.081   4.938  1.6204  2.0656 -0.9146
   61SAPC  H17Y 4840   2.112  -0.175   4.949  0.3693  0.6388  0.2276
   61SAPC  C318 4841   2.132   0.019   5.026 -0.3841 -0.4968 -0.2491
   61SAPC  H18X 4842   2.149   0.063   4.926  1.3980  1.8071  0.9702
   61SAPC  H18Y 4843   2.231   0.007   5.076 -0.4870  0.1361  0.1093
   61SAPC  H18Z 4844   2.079   0.094   5.089  0.6264  0.6173 -0.6985
   62SAPC     N 4845   4.127   5.861   7.463  0.5719  0.8464  0.0723
   62SAPC   C12 4846   4.207   5.853   7.333 -0.1949  0.3212  0.0041
   62SAPC  H12A 4847   4.301   5.800   7.343  0.2429  0.1798 -3.7221
   62SAPC  H12B 4848   4.225   5.956   7.307 -0.5787  0.4721  0.3309
   62SAPC   C13 4849   4.008   5.960   7.456  0.2271 -0.4567 -0.1913
   62SAPC  H13A 4850   3.938   5.925   7.381  0.0709 -2.4895  0.8347
   62SAPC  H13B 4851   3.952   5.970   7.547 -0.3784 -0.7112 -0.5294
   62SAPC  H13C 4852   4.036   6.057   7.418  0.2044 -0.2622  0.2841
   62SAPC   C14 4853   4.074   5.727   7.509  0.5383  0.2511 -0.6985
   62SAPC  H14A 4854   4.002   5.687   7.439 -0.8155 -0.7088  1.1408
   62SAPC  H14B 4855   4.148   5.649   7.503  1.3338  1.1072 -2.7318
   62SAPC  H14C 4856   4.017   5.734   7.601  1.7573  0.5218  0.0716
   62SAPC   C15 4857   4.215   5.903   7.574  0.1394  0.5073  0.3710
   62SAPC  H15A 4858   4.242   6.007   7.582 -2.3496  1.2793 -0.3423
   62SAPC  H15B 4859   4.156   5.875   7.660 -0.8684 -0.3792 -0.5686
   62SAPC  H15C 4860   4.300   5.837   7.573 -0.3940 -0.2260 -1.6344
   62SAPC   C11 4861   4.143   5.778   7.212 -0.3299  0.3933 -0.7940
   62SAPC  H11A 4862   4.194   5.817   7.122  1.9633  0.6879  0.5324
   62SAPC  H11B 4863   4.034   5.799   7.211 -0.2225  0.9387 -1.3703
   62SAPC     P 4864   4.282   5.557   7.177  0.2716  0.0796 -0.2437
   62SAPC   O13 4865   4.388   5.586   7.279  0.1443  0.7126 -0.1688
   62SAPC   O14 4866   4.238   5.416   7.167  0.4559 -0.1124  0.8320
   62SAPC   O12 4867   4.154   5.634   7.222 -0.2185 -0.2204 -0.2051
   62SAPC   O11 4868   4.327   5.613   7.041  0.3042 -0.5766 -0.4940
   62SAPC    C1 4869   4.235   5.614   6.928 -0.0742 -0.0373 -0.0593
   62SAPC    HA 4870   4.189   5.514   6.910  1.0755 -0.5627 -0.1768
   62SAPC    HB 4871   4.157   5.692   6.938  0.7835  0.7564  0.6544
   62SAPC    C2 4872   4.312   5.649   6.799  0.9175 -0.4445 -0.3774
   62SAPC    HS 4873   4.372   5.739   6.826  1.8212 -0.8950 -0.8696
   62SAPC   O21 4874   4.215   5.683   6.699 -0.1497  0.3137  0.1612
   62SAPC   C21 4875   4.135   5.785   6.706  0.1863  0.0552  0.2272
   62SAPC   O22 4876   4.139   5.875   6.784 -0.3866 -0.1136 -0.4288
   62SAPC   C22 4877   4.022   5.760   6.603 -0.9478  0.1569 -0.0418
   62SAPC   H2R 4878   3.979   5.661   6.632 -1.6792 -0.5941 -3.3015
   62SAPC   H2S 4879   3.937   5.829   6.622 -1.0460  0.4085 -1.3247
   62SAPC    C3 4880   4.409   5.534   6.763 -0.4818  0.4700  0.3430
   62SAPC    HX 4881   4.348   5.452   6.720 -0.1444  0.2651  0.2479
   62SAPC    HY 4882   4.469   5.504   6.852  2.5450  1.5199 -1.1929
   62SAPC   O31 4883   4.503   5.575   6.658 -0.0977 -0.0431 -0.4595
   62SAPC   C31 4884   4.543   5.468   6.582 -0.3593  0.0339 -0.2380
   62SAPC   O32 4885   4.530   5.346   6.609  0.0914  0.1881  0.3682
   62SAPC   C32 4886   4.615   5.531   6.471 -0.1373 -0.9026 -0.2963
   62SAPC   H2X 4887   4.713   5.479   6.466 -0.9907 -2.6193  0.3255
   62SAPC   H2Y 4888   4.615   5.642   6.472 -1.6634 -0.8897 -0.2663
   62SAPC   C23 4889   4.085   5.763   6.457 -0.0689  0.5409 -1.2613
   62SAPC   H3R 4890   4.014   5.724   6.381  0.4394 -0.1941 -1.3729
   62SAPC   H3S 4891   4.178   5.703   6.456  1.4314  2.4742  2.6623
   62SAPC   C24 4892   4.101   5.912   6.416 -0.1292 -0.6775 -0.1683
   62SAPC   H4R 4893   4.139   5.972   6.501 -0.7223  0.0130 -0.3799
   62SAPC   H4S 4894   4.002   5.961   6.401 -0.5662 -1.0064  1.4493
   62SAPC   C25 4895   4.194   5.929   6.295 -0.1696  0.4391 -0.1438
   62SAPC   H5R 4896   4.299   5.946   6.324 -0.0070 -0.7495  0.0187
   62SAPC   C26 4897   4.156   5.941   6.164  0.3937  0.5811  0.4125
   62SAPC   H6R 4898   4.230   5.949   6.083  1.1258 -0.1219  0.9855
   62SAPC   C27 4899   4.016   5.920   6.112  0.3195 -0.0945 -0.0543
   62SAPC   H7R 4900   3.986   6.015   6.064  2.6323  0.5044 -0.4338
   62SAPC   H7S 4901   3.949   5.909   6.200  0.5172 -0.3089  0.0709
   62SAPC   C28 4902   4.000   5.798   6.016 -0.5235 -0.0209 -0.4237
   62SAPC   H8R 4903   3.993   5.699   6.062 -1.1770  0.9420  1.6985
   62SAPC   C29 4904   3.984   5.801   5.885 -0.9114 -0.3817  0.5289
   62SAPC   H9R 4905   3.979   5.701   5.840 -0.4170 -0.8276  1.4628
   62SAPC  C210 4906   3.975   5.928   5.799  1.3124  0.4678  0.9768
   62SAPC  H10R 4907   4.051   5.937   5.719  0.6744 -2.0081  0.0035
   62SAPC  H10S 4908   3.988   6.022   5.857  0.2987  1.4461 -0.3275
   62SAPC  C211 4909   3.847   5.910   5.720  0.3103  0.1316 -0.3357
   62SAPC  H11R 4910   3.854   5.831   5.644  2.0321 -0.4550  0.3674
   62SAPC  C212 4911   3.746   5.995   5.727  0.2616 -0.1043  0.8275
   62SAPC  H12R 4912   3.655   5.965   5.673  0.2287  1.1960  0.1296
   62SAPC  C213 4913   3.731   6.112   5.822 -0.4402  0.3053  1.0000
   62SAPC  H13R 4914   3.777   6.203   5.778  1.3109 -0.2554  1.5749
   62SAPC  H13S 4915   3.792   6.097   5.913  2.4507  3.2022 -0.2895
   62SAPC  C214 4916   3.587   6.146   5.856 -0.5729  0.8942 -0.5213
   62SAPC  H14R 4917   3.550   6.221   5.784  0.3765 -0.1036 -2.1113
   62SAPC  C215 4918   3.518   6.095   5.960 -0.1474  0.4970  0.5874
   62SAPC  H15R 4919   3.416   6.133   5.977 -0.0360  1.6842 -1.1391
   62SAPC  C216 4920   3.584   6.006   6.063 -0.6119  1.3636 -0.3876
   62SAPC  H16R 4921   3.644   5.928   6.011 -0.3799  0.2449  1.4685
   62SAPC  H16S 4922   3.505   5.935   6.098  0.8149 -0.7764 -1.2941
   62SAPC  C217 4923   3.650   6.076   6.178 -0.9010 -0.5026 -0.4659
   62SAPC  H17R 4924   3.709   6.164   6.147 -3.6300  2.2189  1.4265
   62SAPC  H17S 4925   3.709   6.002   6.236 -0.5430  0.8788  1.0135
   62SAPC  C218 4926   3.546   6.121   6.281  0.2965  0.1780 -1.1410
   62SAPC  H18R 4927   3.471   6.040   6.292  0.4151 -0.1730 -2.5953
   62SAPC  H18S 4928   3.482   6.201   6.238  0.8655  0.7592 -0.9186
   62SAPC  C219 4929   3.601   6.174   6.418  0.4853  0.0150 -0.2494
   62SAPC  H19R 4930   3.678   6.249   6.392  0.9604 -0.9255 -1.6988
   62SAPC  H19S 4931   3.650   6.087   6.467 -1.9330 -0.4453  1.5683
   62SAPC  C220 4932   3.496   6.224   6.515 -0.3377  0.3302 -0.5899
   62SAPC  H20R 4933   3.547   6.275   6.600  0.7774  1.9025 -2.1369
   62SAPC  H20S 4934   3.448   6.134   6.559 -1.1286 -0.4390 -2.9119
   62SAPC  H20T 4935   3.415   6.288   6.473 -0.0986 -0.7639 -2.8289
   62SAPC   C33 4936   4.552   5.495   6.341 -0.3411 -0.5927  0.3240
   62SAPC   H3X 4937   4.530   5.388   6.320 -3.5029 -0.1060  0.5948
   62SAPC   H3Y 4938   4.622   5.535   6.264 -1.1270  0.8404  0.3183
   62SAPC   C34 4939   4.418   5.574   6.307 -0.4482 -0.2434  0.3981
   62SAPC   H4X 4940   4.434   5.684   6.304 -0.8573 -0.1992 -1.3509
   62SAPC   H4Y 4941   4.350   5.553   6.393 -0.9822 -0.3165 -0.0358
   62SAPC   C35 4942   4.354   5.535   6.175  0.5217 -0.1393  0.3299
   62SAPC   H5X 4943   4.252   5.572   6.195 -0.0487 -2.2017  1.6136
   62SAPC   H5Y 4944   4.350   5.429   6.139  1.1739 -0.1090  0.1495
   62SAPC   C36 4945   4.413   5.610   6.057 -0.5100  0.7462  1.2469
   62SAPC   H6X 4946   4.522   5.587   6.052 -0.7933 -0.9982  2.3609
   62SAPC   H6Y 4947   4.399   5.719   6.077  0.8297  1.1049  0.4115
   62SAPC   C37 4948   4.330   5.582   5.926  0.7866  0.4993 -0.2542
   62SAPC   H7X 4949   4.221   5.601   5.926  0.6126 -0.4722 -0.3914
   62SAPC   H7Y 4950   4.343   5.475   5.900 -1.3811  0.6551 -2.2322
   62SAPC   C38 4951   4.383   5.665   5.811 -0.0186 -0.2330  0.0585
   62SAPC   H8X 4952   4.492   5.661   5.793  0.2802  0.1806  1.6230
   62SAPC   H8Y 4953   4.386   5.766   5.858  3.1313 -0.9234  1.5587
   62SAPC   C39 4954   4.304   5.679   5.681  0.2594 -0.0238 -1.1609
   62SAPC   H9X 4955   4.322   5.769   5.619  0.5956  0.9903  0.3413
   62SAPC   H9Y 4956   4.196   5.685   5.708  0.1828 -0.5907 -1.3265
   62SAPC  C310 4957   4.331   5.555   5.586  0.4674  0.8556 -0.4333
   62SAPC  H10X 4958   4.319   5.472   5.658 -0.7982  4.4927  4.0773
   62SAPC  H10Y 4959   4.436   5.567   5.552  0.2936 -0.3879 -1.4724
   62SAPC  C311 4960   4.227   5.548   5.472 -0.0792  0.2497 -0.6617
   62SAPC  H11X 4961   4.129   5.581   5.512 -0.1486  0.4486 -0.9875
   62SAPC  H11Y 4962   4.220   5.440   5.448 -1.3807  0.1203  0.2231
   62SAPC  C312 4963   4.252   5.632   5.348 -0.1602 -0.4775 -0.3759
   62SAPC  H12X 4964   4.348   5.612   5.295 -0.3586  0.7052 -1.1931
   62SAPC  H12Y 4965   4.275   5.731   5.393  0.8849 -0.4329 -0.9712
   62SAPC  C313 4966   4.131   5.636   5.256  0.2082 -0.1350 -0.2935
   62SAPC  H13X 4967   4.043   5.683   5.305  0.2652 -1.1878  0.8714
   62SAPC  H13Y 4968   4.083   5.537   5.240  1.0618 -0.7349  0.7789
   62SAPC  C314 4969   4.169   5.681   5.116  0.1774  0.1649 -0.5911
   62SAPC  H14X 4970   4.248   5.612   5.080  0.0058 -1.6634  2.2424
   62SAPC  H14Y 4971   4.215   5.782   5.124 -1.9531  1.0342  2.7144
   62SAPC  C315 4972   4.048   5.692   5.021 -0.3639  0.3086 -0.0881
   62SAPC  H15X 4973   3.976   5.769   5.056 -0.0503  1.1336 -1.2032
   62SAPC  H15Y 4974   3.999   5.593   5.028  0.3154  0.0298  1.2888
   62SAPC  C316 4975   4.084   5.720   4.880  0.2810 -0.4949 -0.1782
   62SAPC  H16X 4976   3.997   5.691   4.818  2.4176 -0.2235 -3.5476
   62SAPC  H16Y 4977   4.169   5.654   4.850  2.3264  1.7308  0.3494
   62SAPC  C317 4978   4.109   5.869   4.849 -0.4565  0.0895 -0.2837
   62SAPC  H17X 4979   4.203   5.898   4.901 -0.4954 -2.5227  1.4470
   62SAPC  H17Y 4980   4.022   5.934   4.871 -1.5052 -0.8233 -1.6131
   62SAPC  C318 4981   4.136   5.876   4.695 -0.6374  0.0387 -0.0504
   62SAPC  H18X 4982   4.189   5.783   4.665 -2.1286 -1.4093  1.5894
   62SAPC  H18Y 4983   4.209   5.957   4.672  0.9311 -1.2856  0.0876
   62SAPC  H18Z 4984   4.037   5.876   4.645 -0.5698 -1.5774 -0.2287
   63SAPC     N 4985   5.111   1.965   7.183  0.1442  0.7026  0.0153
   63SAPC   C12 4986   5.175   1.944   7.052  0.1206  0.6863  0.2019
   63SAPC  H12A 4987   5.237   1.855   7.050 -1.4332 -0.4885 -2.9455
   63SAPC  H12B 4988   5.240   2.025   7.022  1.1773  0.5680  2.0557
   63SAPC   C13 4989   5.042   1.839   7.225  0.0570  0.3605 -0.6821
   63SAPC  H13A 4990   4.993   1.834   7.321 -3.4768 -3.3737 -2.3979
   63SAPC  H13B 4991   4.969   1.811   7.150  1.7944 -0.6950 -2.0575
   63SAPC  H13C 4992   5.114   1.759   7.238 -0.8238 -0.9706 -3.2794
   63SAPC   C14 4993   5.205   2.012   7.287  0.0158 -0.3721 -0.1207
   63SAPC  H14A 4994   5.284   1.942   7.309  2.0047  1.9011  0.2726
   63SAPC  H14B 4995   5.247   2.103   7.247  0.5830 -0.8188 -0.5510
   63SAPC  H14C 4996   5.159   2.044   7.380  0.9630  0.7513 -0.0162
   63SAPC   C15 4997   5.012   2.084   7.165  0.3869 -0.0592 -0.2819
   63SAPC  H15A 4998   4.944   2.104   7.246 -0.5053  1.0015 -1.2547
   63SAPC  H15B 4999   5.072   2.173   7.151  1.1120 -0.5163 -0.1511
   63SAPC  H15C 5000   4.963   2.062   7.071 -2.6305  1.2208  0.8827
   63SAPC   C11 5001   5.086   1.916   6.927 -0.4203  0.2077  0.1907
   63SAPC  H11A 5002   4.993   1.860   6.947  1.5751 -3.9277 -1.0597
   63SAPC  H11B 5003   5.150   1.856   6.860 -0.8028 -0.4768  0.4366
   63SAPC     P 5004   5.143   2.118   6.767 -0.3580  0.0200 -0.0849
   63SAPC   O13 5005   5.084   2.243   6.721  0.0375 -0.7411  0.1758
   63SAPC   O14 5006   5.272   2.131   6.831  0.3164 -0.7498  0.3410
   63SAPC   O12 5007   5.044   2.039   6.868 -0.0741 -0.1494  0.0181
   63SAPC   O11 5008   5.156   2.021   6.640  0.3868 -0.8101  0.3142
   63SAPC    C1 5009   5.037   1.964   6.587 -0.2687  0.1401 -0.6518
   63SAPC    HA 5010   5.006   1.873   6.642 -1.1315  2.2436  2.6575
   63SAPC    HB 5011   4.954   2.037   6.598  0.9264  1.7587 -1.8780
   63SAPC    C2 5012   5.049   1.949   6.427  0.4543  0.0626  0.4376
   63SAPC    HS 5013   4.952   1.961   6.374  0.5885 -0.8376 -0.0189
   63SAPC   O21 5014   5.120   1.832   6.377  0.4172 -0.3210  0.1449
   63SAPC   C21 5015   5.040   1.729   6.388 -0.0182 -0.1404 -0.4825
   63SAPC   O22 5016   4.918   1.735   6.396  0.4840 -0.0385  0.3778
   63SAPC   C22 5017   5.119   1.598   6.373  0.0543  0.6879  0.0982
   63SAPC   H2R 5018   5.219   1.614   6.329  0.1130 -2.2846 -1.0811
   63SAPC   H2S 5019   5.148   1.556   6.471  0.4084  2.1330  0.6352
   63SAPC    C3 5020   5.120   2.084   6.379 -0.6039 -0.2452  0.7486
   63SAPC    HX 5021   5.221   2.087   6.424 -1.4192 -0.6344  2.7332
   63SAPC    HY 5022   5.059   2.171   6.414  0.2272  0.3222  0.8113
   63SAPC   O31 5023   5.132   2.072   6.234 -0.0772 -0.0058 -0.7705
   63SAPC   C31 5024   5.247   2.065   6.174 -0.0955 -0.0906 -0.2363
   63SAPC   O32 5025   5.359   2.049   6.223  0.2347 -0.3778 -0.2207
   63SAPC   C32 5026   5.218   2.070   6.019  0.8769  1.1595 -0.5146
   63SAPC   H2X 5027   5.136   2.139   5.991 -0.3022 -0.3784 -0.9721
   63SAPC   H2Y 5028   5.183   1.967   5.999  2.8536  0.7011 -1.9540
   63SAPC   C23 5029   5.054   1.493   6.284  0.7794 -0.5727  0.3562
   63SAPC   H3R 5030   4.948   1.469   6.305  0.0738  2.0675  0.1404
   63SAPC   H3S 5031   5.099   1.394   6.311  1.2283 -1.0446 -1.8983
   63SAPC   C24 5032   5.071   1.512   6.129 -0.4257 -0.6559  0.0362
   63SAPC   H4R 5033   5.042   1.425   6.066  2.8425 -0.5108 -1.9293
   63SAPC   H4S 5034   5.178   1.520   6.103 -0.9811 -0.1053 -2.3960
   63SAPC   C25 5035   5.005   1.638   6.077  0.2621  0.4791  0.2735
   63SAPC   H5R 5036   4.937   1.689   6.147  1.4543  0.9368  1.1221
   63SAPC   C26 5037   5.030   1.697   5.955 -0.1011  0.0305  0.1116
   63SAPC   H6R 5038   4.965   1.777   5.917 -0.6335 -1.1877 -1.6847
   63SAPC   C27 5039   5.123   1.641   5.846  0.4513  0.1305  0.3677
   63SAPC   H7R 5040   5.055   1.601   5.768  0.5797 -1.5109  1.0545
   63SAPC   H7S 5041   5.170   1.544   5.874 -3.3953 -2.1694 -0.5192
   63SAPC   C28 5042   5.241   1.718   5.797  0.4784 -0.3891 -0.0926
   63SAPC   H8R 5043   5.337   1.703   5.849  1.0140  0.4125 -0.8205
   63SAPC   C29 5044   5.239   1.806   5.696 -0.0856 -0.9739  0.3266
   63SAPC   H9R 5045   5.332   1.854   5.662  0.7745 -2.2971  0.7622
   63SAPC  C210 5046   5.111   1.837   5.624  0.1755 -0.3615 -0.3496
   63SAPC  H10R 5047   5.089   1.939   5.662  2.4377  1.1068 -2.6293
   63SAPC  H10S 5048   5.030   1.766   5.650 -0.8204  0.8916  0.0891
   63SAPC  C211 5049   5.135   1.826   5.483 -0.6958  0.2211  0.1862
   63SAPC  H11R 5050   5.080   1.746   5.429 -0.7861  1.5755 -1.8409
   63SAPC  C212 5051   5.209   1.907   5.405  0.3882 -0.3841  0.2530
   63SAPC  H12R 5052   5.202   1.887   5.297  0.2364 -2.6883  0.6355
   63SAPC  C213 5053   5.293   2.027   5.441 -0.3353  0.0938  0.5126
   63SAPC  H13R 5054   5.401   2.006   5.457 -0.4594  0.0310  1.2630
   63SAPC  H13S 5055   5.260   2.070   5.538  0.4244  1.1331  0.3270
   63SAPC  C214 5056   5.271   2.132   5.332  0.9606  0.3638 -0.5204
   63SAPC  H14R 5057   5.162   2.133   5.313  0.8347 -2.5008 -0.5070
   63SAPC  C215 5058   5.349   2.215   5.263  0.1645 -0.4117 -0.7419
   63SAPC  H15R 5059   5.301   2.276   5.185  1.0380  0.6699 -0.4535
   63SAPC  C216 5060   5.500   2.222   5.277 -0.0738  0.7426 -0.1915
   63SAPC  H16R 5061   5.540   2.143   5.344  1.1379  2.7982  1.6565
   63SAPC  H16S 5062   5.526   2.323   5.316 -1.3861  1.1042 -0.2113
   63SAPC  C217 5063   5.580   2.213   5.139 -0.0908 -0.5092  0.3480
   63SAPC  H17R 5064   5.689   2.230   5.153  0.3253 -1.2841 -1.6745
   63SAPC  H17S 5065   5.553   2.290   5.065  1.8525 -0.4866 -0.3944
   63SAPC  C218 5066   5.570   2.069   5.082  0.7899  0.2456 -0.3360
   63SAPC  H18R 5067   5.465   2.061   5.044  0.6391 -2.0353  0.4283
   63SAPC  H18S 5068   5.572   1.994   5.164  2.0414  0.2765 -0.3219
   63SAPC  C219 5069   5.688   2.024   4.996 -0.0416 -0.0486 -0.8307
   63SAPC  H19R 5070   5.655   1.936   4.936 -0.0797 -0.5504 -0.0838
   63SAPC  H19S 5071   5.768   1.992   5.066  0.1019 -0.0810 -1.0058
   63SAPC  C220 5072   5.738   2.136   4.903 -0.4087  0.4299  0.3515
   63SAPC  H20R 5073   5.663   2.178   4.832  0.8189  2.0989  0.0081
   63SAPC  H20S 5074   5.819   2.094   4.840  0.9484 -0.9075  2.8212
   63SAPC  H20T 5075   5.779   2.226   4.953 -1.9192  2.0062 -1.1088
   63SAPC   C33 5076   5.341   2.079   5.927 -0.7378 -0.0484 -0.4313
   63SAPC   H3X 5077   5.386   2.180   5.939 -0.1225 -0.4420  0.7184
   63SAPC   H3Y 5078   5.302   2.058   5.825 -0.4473  0.5089 -0.6605
   63SAPC   C34 5079   5.461   1.987   5.944 -0.3985  0.5904  0.4634
   63SAPC   H4X 5080   5.435   1.882   5.918 -0.4956  1.0418 -1.4776
   63SAPC   H4Y 5081   5.485   1.983   6.052 -1.9110  4.3316  1.1235
   63SAPC   C35 5082   5.585   2.040   5.872 -0.2789 -0.4721 -0.0119
   63SAPC   H5X 5083   5.677   1.986   5.904 -0.4258  0.6731  2.6557
   63SAPC   H5Y 5084   5.605   2.148   5.891  2.1224 -0.8734  0.0434
   63SAPC   C36 5085   5.566   2.046   5.723 -0.5982 -1.0008  0.5076
   63SAPC   H6X 5086   5.467   2.095   5.706 -0.0415 -0.3304 -0.9529
   63SAPC   H6Y 5087   5.560   1.946   5.676  0.3027 -1.2822  0.9804
   63SAPC   C37 5088   5.675   2.129   5.656 -0.1502  0.8262 -0.7319
   63SAPC   H7X 5089   5.749   2.150   5.736 -0.7216  0.0968  0.0101
   63SAPC   H7Y 5090   5.632   2.222   5.614 -0.2003  0.3671 -1.7237
   63SAPC   C38 5091   5.739   2.040   5.553  0.3230 -0.3374 -0.6559
   63SAPC   H8X 5092   5.786   2.106   5.477 -0.3093 -0.5245 -1.2155
   63SAPC   H8Y 5093   5.666   1.980   5.495 -0.4226 -0.9423  0.8463
   63SAPC   C39 5094   5.840   1.946   5.608  0.3315 -0.1155 -0.4189
   63SAPC   H9X 5095   5.793   1.884   5.688  1.8014  0.6220  1.0860
   63SAPC   H9Y 5096   5.921   2.005   5.657  0.0798 -0.8781  0.9715
   63SAPC  C310 5097   5.905   1.862   5.500  0.1525  0.1864  0.3395
   63SAPC  H10X 5098   5.832   1.833   5.422 -0.5643 -0.8980  1.3836
   63SAPC  H10Y 5099   5.953   1.769   5.538 -1.8601 -0.8029  0.5724
   63SAPC  C311 5100   6.024   1.928   5.428  0.2600 -0.0508  0.8851
   63SAPC  H11X 5101   6.108   1.945   5.498  0.8086  0.5811  0.0982
   63SAPC  H11Y 5102   5.987   2.030   5.401  3.2997  0.5297 -1.6995
   63SAPC  C312 5103   6.086   1.854   5.314  0.0943 -0.6997  0.3083
   63SAPC  H12X 5104   6.097   1.751   5.352 -0.5059 -0.6067  0.7459
   63SAPC  H12Y 5105   6.184   1.898   5.286 -0.3077  0.5424  0.7727
   63SAPC  C313 5106   5.998   1.850   5.187 -0.0905  0.8755  0.4936
   63SAPC  H13X 5107   5.975   1.955   5.156  1.8280  2.0191  2.6157
   63SAPC  H13Y 5108   5.899   1.818   5.225 -0.6187  0.3842 -1.2294
   63SAPC  C314 5109   6.052   1.775   5.066 -0.5825  0.2377  0.0713
   63SAPC  H14X 5110   6.142   1.826   5.027 -1.1645 -0.0246 -1.7181
   63SAPC  H14Y 5111   5.983   1.771   4.979 -0.0307 -0.4227 -0.3527
   63SAPC  C315 5112   6.070   1.627   5.106  0.3114 -0.1069 -0.3347
   63SAPC  H15X 5113   5.965   1.606   5.135  0.0043  0.9508 -0.6197
   63SAPC  H15Y 5114   6.140   1.622   5.193  0.1270  0.3704 -0.1571
   63SAPC  C316 5115   6.119   1.528   5.001 -0.1839  0.5868 -0.3487
   63SAPC  H16X 5116   6.033   1.515   4.932  0.1888 -0.6074 -0.6044
   63SAPC  H16Y 5117   6.141   1.427   5.044  0.3069 -0.6229 -3.2198
   63SAPC  C317 5118   6.242   1.564   4.916  0.0886  0.1419  0.4233
   63SAPC  H17X 5119   6.335   1.580   4.975 -0.1472 -0.2776  0.9128
   63SAPC  H17Y 5120   6.213   1.659   4.866 -1.4113 -0.3294  0.3533
   63SAPC  C318 5121   6.260   1.456   4.803 -0.5395  0.0325  0.3642
   63SAPC  H18X 5122   6.171   1.441   4.738  0.1718 -0.3673 -0.5361
   63SAPC  H18Y 5123   6.276   1.359   4.854 -3.0641 -0.5600  0.2045
   63SAPC  H18Z 5124   6.345   1.477   4.735 -1.1381  1.5419  0.0242
   64SAPC     N 5125   6.794   2.397   7.107  0.3661 -0.6222 -0.2284
   64SAPC   C12 5126   6.698   2.517   7.139  0.0425  0.2122 -0.3525
   64SAPC  H12A 5127   6.713   2.605   7.079  4.5937  1.3651  2.0448
   64SAPC  H12B 5128   6.730   2.548   7.237 -1.8615  0.1566  0.3253
   64SAPC   C13 5129   6.933   2.443   7.112 -0.2337 -0.4651  0.2904
   64SAPC  H13A 5130   6.955   2.529   7.051 -0.0488 -0.1651  0.7760
   64SAPC  H13B 5131   6.976   2.470   7.207  1.1430  1.7706 -0.8846
   64SAPC  H13C 5132   6.995   2.370   7.063  0.0635  1.3292 -2.2102
   64SAPC   C14 5133   6.778   2.285   7.207  0.3385  0.7050 -0.0747
   64SAPC  H14A 5134   6.756   2.333   7.301  1.7560  0.7092  0.2654
   64SAPC  H14B 5135   6.691   2.228   7.177 -0.5828  1.4700  1.0365
   64SAPC  H14C 5136   6.857   2.212   7.212  0.3430  0.7771  1.2472
   64SAPC   C15 5137   6.757   2.338   6.972  0.3377 -0.3915  0.7352
   64SAPC  H15A 5138   6.660   2.292   6.973 -1.1307  2.4881  1.2230
   64SAPC  H15B 5139   6.754   2.416   6.897 -0.9471 -0.9925  0.1419
   64SAPC  H15C 5140   6.836   2.275   6.934 -0.8642 -0.8658 -1.0857
   64SAPC   C11 5141   6.547   2.473   7.149  0.8453 -0.6919  0.5495
   64SAPC  H11A 5142   6.486   2.556   7.190 -0.7152 -1.8569  0.6943
   64SAPC  H11B 5143   6.541   2.392   7.225 -1.9857 -0.3204  0.8388
   64SAPC     P 5144   6.337   2.399   7.014  0.2769  0.0179 -0.3122
   64SAPC   O13 5145   6.306   2.306   7.126 -0.4753  0.1119 -0.0654
   64SAPC   O14 5146   6.270   2.535   7.006 -0.2203 -0.0800 -0.1321
   64SAPC   O12 5147   6.497   2.429   7.023  0.1026  0.1044  0.0817
   64SAPC   O11 5148   6.313   2.321   6.880  0.0177  0.0498 -0.3511
   64SAPC    C1 5149   6.421   2.267   6.805 -0.6055 -0.4291 -0.0216
   64SAPC    HA 5150   6.497   2.344   6.780 -1.0438 -0.2903 -0.9582
   64SAPC    HB 5151   6.469   2.183   6.859 -1.9482 -0.3402  1.3837
   64SAPC    C2 5152   6.374   2.237   6.658  0.3676  0.9789 -0.8640
   64SAPC    HS 5153   6.468   2.237   6.599  0.3296 -1.1203 -0.9993
   64SAPC   O21 5154   6.289   2.345   6.607 -0.0412 -0.1007  0.0409
   64SAPC   C21 5155   6.346   2.466   6.588 -0.2517  0.0304 -0.2734
   64SAPC   O22 5156   6.461   2.484   6.603 -0.2155 -0.0185 -0.3759
   64SAPC   C22 5157   6.229   2.556   6.551 -0.1505 -0.1626  0.0113
   64SAPC   H2R 5158   6.156   2.498   6.491  0.1812 -1.2312  0.6122
   64SAPC   H2S 5159   6.173   2.588   6.642 -0.7722  0.5576 -0.6031
   64SAPC    C3 5160   6.312   2.095   6.646 -0.0162 -0.2865  0.6070
   64SAPC    HX 5161   6.239   2.083   6.729  0.7994 -0.3523  1.3268
   64SAPC    HY 5162   6.396   2.022   6.645  0.2041 -0.1689 -2.8033
   64SAPC   O31 5163   6.252   2.088   6.517 -0.1835  0.1869  0.4333
   64SAPC   C31 5164   6.132   2.133   6.502 -0.4540 -0.4827  0.0694
   64SAPC   O32 5165   6.059   2.174   6.590  0.1164 -0.0430 -0.3718
   64SAPC   C32 5166   6.091   2.117   6.362 -0.0603 -0.0238  0.0350
   64SAPC   H2X 5167   6.015   2.036   6.361  0.5948 -0.6663 -1.3785
   64SAPC   H2Y 5168   6.183   2.084   6.308  0.7616  2.1386  0.0062
   64SAPC   C23 5169   6.274   2.683   6.483 -0.2571  0.0370 -0.2869
   64SAPC   H3R 5170   6.358   2.726   6.541 -2.0787  0.1862  2.3976
   64SAPC   H3S 5171   6.191   2.757   6.471 -0.0893  0.3048  0.1912
   64SAPC   C24 5172   6.328   2.658   6.344  0.3896 -0.0928  0.1353
   64SAPC   H4R 5173   6.409   2.583   6.350 -0.2053 -0.7280  0.3575
   64SAPC   H4S 5174   6.372   2.755   6.312 -0.7309  0.4817  0.2741
   64SAPC   C25 5175   6.215   2.617   6.248 -0.6954 -1.2578  0.1994
   64SAPC   H5R 5176   6.139   2.549   6.290 -1.8675  0.0506  0.2436
   64SAPC   C26 5177   6.222   2.633   6.120 -0.3154 -0.3548 -0.2820
   64SAPC   H6R 5178   6.141   2.596   6.056 -0.2685  0.0350 -0.5701
   64SAPC   C27 5179   6.307   2.730   6.036 -0.3378  0.0851 -0.0242
   64SAPC   H7R 5180   6.381   2.677   5.972 -1.1973  0.0902 -1.0554
   64SAPC   H7S 5181   6.372   2.785   6.108 -0.5834 -1.0451  1.0947
   64SAPC   C28 5182   6.216   2.826   5.959 -0.0997  0.1216 -0.3903
   64SAPC   H8R 5183   6.142   2.875   6.024  2.1298  1.6582  1.1136
   64SAPC   C29 5184   6.233   2.865   5.828 -0.1496  0.1443 -0.0640
   64SAPC   H9R 5185   6.164   2.941   5.789 -0.2297  1.0348  1.6878
   64SAPC  C210 5186   6.335   2.810   5.725  0.0491 -0.0897  0.3830
   64SAPC  H10R 5187   6.406   2.739   5.772 -1.3612 -0.8289  1.4634
   64SAPC  H10S 5188   6.401   2.886   5.677 -0.1597 -0.4893 -0.5500
   64SAPC  C211 5189   6.267   2.732   5.614  1.0578  0.3772 -0.2476
   64SAPC  H11R 5190   6.194   2.790   5.556 -1.5212 -2.5139 -0.1364
   64SAPC  C212 5191   6.236   2.600   5.615 -0.8730  0.7791  0.0895
   64SAPC  H12R 5192   6.183   2.563   5.526 -0.5670  2.0900 -0.6622
   64SAPC  C213 5193   6.290   2.487   5.710  0.1340  0.1415  0.0181
   64SAPC  H13R 5194   6.203   2.444   5.763 -0.0949  2.2450  1.4810
   64SAPC  H13S 5195   6.348   2.537   5.790 -1.1814  1.0376  0.4483
   64SAPC  C214 5196   6.369   2.391   5.625  0.0244 -0.1047 -0.0670
   64SAPC  H14R 5197   6.478   2.383   5.644  0.0963 -1.4740 -0.9018
   64SAPC  C215 5198   6.323   2.306   5.535  0.1226 -0.2025  0.8304
   64SAPC  H15R 5199   6.388   2.236   5.480 -1.3053 -0.2400 -0.8934
   64SAPC  C216 5200   6.172   2.290   5.511  0.3994  0.0051 -0.2117
   64SAPC  H16R 5201   6.099   2.360   5.558  0.4737  0.2263 -0.4234
   64SAPC  H16S 5202   6.144   2.190   5.552  2.8015 -0.1739  1.1957
   64SAPC  C217 5203   6.130   2.293   5.361  0.2556 -0.2481  0.9153
   64SAPC  H17R 5204   6.030   2.249   5.342  0.2427  0.4055 -0.7023
   64SAPC  H17S 5205   6.193   2.222   5.304  1.7201  1.5251  0.2132
   64SAPC  C218 5206   6.131   2.429   5.280 -0.4821 -0.0959 -0.0181
   64SAPC  H18R 5207   6.218   2.488   5.316 -1.2730  0.6131  0.7691
   64SAPC  H18S 5208   6.037   2.480   5.311 -0.5853 -0.3446  0.0845
   64SAPC  C219 5209   6.136   2.416   5.129  0.8398 -0.0839  0.0014
   64SAPC  H19R 5210   6.111   2.314   5.091 -2.2105 -0.0547  1.5806
   64SAPC  H19S 5211   6.240   2.432   5.095  0.1084 -0.5653 -2.6563
   64SAPC  C220 5212   6.042   2.517   5.049  0.0842  0.9258 -0.3354
   64SAPC  H20R 5213   6.072   2.621   5.072  1.2440  0.3097  1.0835
   64SAPC  H20S 5214   5.933   2.499   5.060 -0.1013  2.2324  0.0940
   64SAPC  H20T 5215   6.064   2.501   4.942  1.0819  1.6903 -0.2568
   64SAPC   C33 5216   6.030   2.251   6.312 -0.3212  0.2371 -0.1026
   64SAPC   H3X 5217   6.114   2.323   6.305  0.5816 -0.5820  1.8549
   64SAPC   H3Y 5218   5.950   2.282   6.383  0.3980 -0.0307  0.8331
   64SAPC   C34 5219   5.972   2.231   6.172  0.0291  0.4850  0.4933
   64SAPC   H4X 5220   5.894   2.153   6.167  0.3400  0.2370 -2.0245
   64SAPC   H4Y 5221   6.054   2.185   6.112 -0.9127 -0.9794  0.2725
   64SAPC   C35 5222   5.907   2.357   6.107  0.0172 -0.1808 -0.7208
   64SAPC   H5X 5223   5.977   2.441   6.128 -0.3625  0.4386 -1.8454
   64SAPC   H5Y 5224   5.805   2.368   6.149 -0.0378 -1.5315 -0.4379
   64SAPC   C36 5225   5.889   2.345   5.959  0.0607  0.0463 -0.0334
   64SAPC   H6X 5226   5.812   2.268   5.937 -0.7839 -0.0843  2.9449
   64SAPC   H6Y 5227   5.985   2.320   5.908  0.4326  0.5736  0.3996
   64SAPC   C37 5228   5.842   2.480   5.906 -0.8820  0.2545  0.2035
   64SAPC   H7X 5229   5.908   2.563   5.939 -1.8829  1.1584 -0.0071
   64SAPC   H7Y 5230   5.738   2.505   5.936 -0.7014 -1.0863  2.1214
   64SAPC   C38 5231   5.860   2.490   5.759  0.1616  1.5811  0.5589
   64SAPC   H8X 5232   5.831   2.397   5.705  0.4396  1.9613 -0.2663
   64SAPC   H8Y 5233   5.965   2.504   5.726  0.6731 -0.0160  1.3939
   64SAPC   C39 5234   5.770   2.585   5.681  0.1151  0.4785  0.1829
   64SAPC   H9X 5235   5.785   2.691   5.709 -0.6573  1.1753 -1.8149
   64SAPC   H9Y 5236   5.664   2.552   5.687  0.9619 -2.2085  1.9723
   64SAPC  C310 5237   5.811   2.581   5.531  0.8961  0.1613  0.4379
   64SAPC  H10X 5238   5.806   2.476   5.496  1.8968  0.6231 -1.2091
   64SAPC  H10Y 5239   5.909   2.629   5.515  0.8440  0.1671  0.1259
   64SAPC  C311 5240   5.703   2.654   5.448  0.4167  0.3053 -0.6758
   64SAPC  H11X 5241   5.602   2.611   5.462 -0.2831  1.9227 -0.5419
   64SAPC  H11Y 5242   5.726   2.641   5.340 -0.2497 -2.7722 -0.5194
   64SAPC  C312 5243   5.695   2.804   5.473 -0.1998 -0.0712 -0.1888
   64SAPC  H12X 5244   5.676   2.833   5.579  1.3990  0.1901  0.0496
   64SAPC  H12Y 5245   5.617   2.854   5.411  0.7632  1.2842 -0.3531
   64SAPC  C313 5246   5.823   2.885   5.429 -0.3292 -1.2061  0.1554
   64SAPC  H13X 5247   5.872   2.835   5.342 -1.3928 -1.0852 -0.5303
   64SAPC  H13Y 5248   5.895   2.876   5.513 -0.0127  1.1318  0.1889
   64SAPC  C314 5249   5.806   3.030   5.400  0.0934  0.8119  0.0957
   64SAPC  H14X 5250   5.703   3.052   5.367  0.6670  1.3472 -1.4395
   64SAPC  H14Y 5251   5.874   3.064   5.319 -0.6324 -1.8332 -1.7477
   64SAPC  C315 5252   5.831   3.112   5.531  0.3842  0.0974  0.5131
   64SAPC  H15X 5253   5.927   3.082   5.578  1.6525  1.6824 -0.9537
   64SAPC  H15Y 5254   5.755   3.088   5.609 -1.8519  2.7191 -0.6585
   64SAPC  C316 5255   5.825   3.263   5.508  0.3925 -0.3811  0.2574
   64SAPC  H16X 5256   5.735   3.295   5.453 -0.5242 -1.1392  1.2741
   64SAPC  H16Y 5257   5.922   3.292   5.461  1.3628 -0.1365  2.2571
   64SAPC  C317 5258   5.830   3.326   5.647 -0.3086 -0.4165 -0.1219
   64SAPC  H17X 5259   5.906   3.266   5.703 -0.0708 -0.0194 -0.0158
   64SAPC  H17Y 5260   5.733   3.305   5.698 -1.1365  1.0925 -1.0388
   64SAPC  C318 5261   5.872   3.472   5.646 -0.2168 -0.0961 -0.5071
   64SAPC  H18X 5262   5.836   3.535   5.561 -0.2533 -0.8485 -1.0661
   64SAPC  H18Y 5263   5.982   3.480   5.633  0.0017 -2.3546 -0.4074
   64SAPC  H18Z 5264   5.846   3.520   5.742  2.2661  1.5371 -0.5644
   65SAPC     N 5265   1.449   5.216   2.575  0.6909 -0.5160  0.1811
   65SAPC   C12 5266   1.326   5.147   2.630  0.5412  0.6206 -0.5920
   65SAPC  H12A 5267   1.356   5.061   2.687 -1.2157 -0.8445 -1.7592
   65SAPC  H12B 5268   1.253   5.119   2.555 -1.8038 -0.8187  2.0359
   65SAPC   C13 5269   1.513   5.136   2.467 -0.2963 -0.5735 -0.3934
   65SAPC  H13A 5270   1.529   5.034   2.501 -0.1542 -0.1324  0.8976
   65SAPC  H13B 5271   1.453   5.142   2.377  0.9692 -1.1517 -1.3095
   65SAPC  H13C 5272   1.609   5.177   2.439 -0.6431  1.2944  0.9387
   65SAPC   C14 5273   1.401   5.343   2.517 -0.4185 -0.1878  0.6973
   65SAPC  H14A 5274   1.345   5.398   2.592 -0.4031  0.3623  0.3159
   65SAPC  H14B 5275   1.487   5.401   2.487 -1.0010  0.5602  0.4273
   65SAPC  H14C 5276   1.339   5.332   2.429  3.1633  0.9212 -2.2090
   65SAPC   C15 5277   1.554   5.242   2.680  0.6774 -0.4868  0.1615
   65SAPC  H15A 5278   1.630   5.301   2.631  0.2752 -2.8167 -3.5711
   65SAPC  H15B 5279   1.517   5.291   2.770 -1.1656  0.0345 -0.8169
   65SAPC  H15C 5280   1.614   5.157   2.708  0.8798 -0.5328 -0.3979
   65SAPC   C11 5281   1.234   5.230   2.716  0.1977  1.2760 -0.1208
   65SAPC  H11A 5282   1.202   5.318   2.657  3.2212  1.3020 -1.9506
   65SAPC  H11B 5283   1.281   5.278   2.805  0.4488  0.3922  0.2431
   65SAPC     P 5284   1.135   5.022   2.851  0.5179 -0.1818 -0.2098
   65SAPC   O13 5285   1.042   5.041   2.967  0.4806 -0.0870 -0.1667
   65SAPC   O14 5286   1.110   4.907   2.764  0.0724 -0.1025  0.1156
   65SAPC   O12 5287   1.126   5.150   2.759  0.1738  0.3387  0.2280
   65SAPC   O11 5288   1.279   5.021   2.907 -0.2804 -0.0700 -0.4354
   65SAPC    C1 5289   1.370   4.912   2.882  0.7504  0.1148 -0.6213
   65SAPC    HA 5290   1.328   4.826   2.824 -1.1099  0.1009  0.6628
   65SAPC    HB 5291   1.462   4.946   2.830  0.5428  1.3717 -0.1963
   65SAPC    C2 5292   1.417   4.854   3.027 -0.0518 -0.3887  0.4958
   65SAPC    HS 5293   1.478   4.762   3.017  0.6812  0.3008 -2.6016
   65SAPC   O21 5294   1.291   4.804   3.087 -0.5515  0.1959 -0.4257
   65SAPC   C21 5295   1.258   4.681   3.050  1.1985  0.2085  0.0336
   65SAPC   O22 5296   1.312   4.611   2.969 -1.0363  0.7827  0.0737
   65SAPC   C22 5297   1.132   4.655   3.135 -0.6031 -0.3122 -0.4809
   65SAPC   H2R 5298   1.161   4.664   3.242  2.7759 -1.8167 -1.1542
   65SAPC   H2S 5299   1.068   4.746   3.135  0.4161  0.4652  1.3993
   65SAPC    C3 5300   1.484   4.958   3.115  0.4225  0.4439 -0.2305
   65SAPC    HX 5301   1.447   4.950   3.220  0.3751  0.7828 -0.2210
   65SAPC    HY 5302   1.455   5.061   3.085 -1.1948  0.0045 -0.2768
   65SAPC   O31 5303   1.622   4.934   3.124  0.1821  0.1826 -0.1737
   65SAPC   C31 5304   1.699   4.948   3.017 -0.2787 -0.5680  0.4446
   65SAPC   O32 5305   1.666   5.017   2.917 -0.4454 -0.4254 -0.0324
   65SAPC   C32 5306   1.828   4.874   3.031  0.3177  0.6842 -0.3443
   65SAPC   H2X 5307   1.899   4.898   2.949  0.5806 -0.2288 -0.3905
   65SAPC   H2Y 5308   1.814   4.765   3.020  2.2726  0.1593  1.5150
   65SAPC   C23 5309   1.068   4.517   3.114 -0.2678  0.2854 -0.0725
   65SAPC   H3R 5310   1.093   4.482   3.012  2.8630 -1.5501  1.1688
   65SAPC   H3S 5311   0.958   4.532   3.118 -0.2440  0.3387  0.5985
   65SAPC   C24 5312   1.109   4.404   3.209  0.0007 -0.1504  0.2180
   65SAPC   H4R 5313   1.084   4.436   3.313  0.4436  2.0942 -0.3250
   65SAPC   H4S 5314   1.219   4.396   3.199  0.1044  1.0442  0.2371
   65SAPC   C25 5315   1.038   4.279   3.167  0.1962 -0.1879  0.3605
   65SAPC   H5R 5316   1.018   4.273   3.059  1.6230 -0.6381  0.0952
   65SAPC   C26 5317   1.012   4.171   3.248 -0.1547 -0.1283  0.1831
   65SAPC   H6R 5318   0.952   4.085   3.215  0.6469 -0.5438 -0.2295
   65SAPC   C27 5319   1.045   4.149   3.391 -0.3174  0.1858  0.5286
   65SAPC   H7R 5320   0.949   4.109   3.429  0.3490 -1.9015  0.1570
   65SAPC   H7S 5321   1.073   4.249   3.430 -1.0019  1.1653 -1.3530
   65SAPC   C28 5322   1.157   4.044   3.400  0.5641  0.2336 -0.4852
   65SAPC   H8R 5323   1.208   4.014   3.307  2.0946 -1.6121  0.8760
   65SAPC   C29 5324   1.185   3.986   3.518  0.0121  0.1764  0.4920
   65SAPC   H9R 5325   1.272   3.919   3.516 -0.0924  0.0502 -0.3394
   65SAPC  C210 5326   1.100   4.011   3.643  0.5219 -0.1955 -0.4152
   65SAPC  H10R 5327   0.999   4.055   3.624  1.6731  3.4544  1.0501
   65SAPC  H10S 5328   1.145   4.079   3.719  0.3960 -0.4297 -0.1307
   65SAPC  C211 5329   1.064   3.873   3.696  0.9358 -0.4277 -0.7054
   65SAPC  H11R 5330   1.016   3.794   3.637  0.9738 -0.8499 -0.1848
   65SAPC  C212 5331   1.066   3.848   3.833  0.6359  0.8890  0.6417
   65SAPC  H12R 5332   1.036   3.746   3.862 -1.4031  0.7360 -1.6291
   65SAPC  C213 5333   1.122   3.925   3.944 -0.1341 -0.4757 -0.1106
   65SAPC  H13R 5334   1.205   3.989   3.909 -1.1523  0.6273 -0.5754
   65SAPC  H13S 5335   1.168   3.861   4.023  1.5428 -0.1523 -0.7983
   65SAPC  C214 5336   1.015   4.020   4.001 -0.2300  0.9674 -0.2754
   65SAPC  H14R 5337   0.931   4.041   3.933 -1.1804  0.6387  0.7637
   65SAPC  C215 5338   1.016   4.069   4.126 -0.5208  0.2753  0.5642
   65SAPC  H15R 5339   0.936   4.134   4.163  0.4198  2.6807 -1.3565
   65SAPC  C216 5340   1.111   4.036   4.231 -0.3443 -0.4217 -0.3068
   65SAPC  H16R 5341   1.213   4.009   4.196  0.1562  1.1298 -0.1030
   65SAPC  H16S 5342   1.066   3.961   4.299 -0.6876 -0.7053 -0.8418
   65SAPC  C217 5343   1.149   4.162   4.316  0.5254 -0.1116 -0.0553
   65SAPC  H17R 5344   1.195   4.247   4.261  1.1486  0.5179  1.3777
   65SAPC  H17S 5345   1.217   4.121   4.394  0.1804 -0.6781 -0.0484
   65SAPC  C218 5346   1.034   4.227   4.409  0.0896  0.7362 -0.4023
   65SAPC  H18R 5347   0.987   4.146   4.468 -1.3010  1.1779 -0.8663
   65SAPC  H18S 5348   0.955   4.264   4.340 -1.6915  0.6061  1.4446
   65SAPC  C219 5349   1.085   4.339   4.493  0.1977 -0.0456 -0.1671
   65SAPC  H19R 5350   1.162   4.395   4.436 -0.1605  1.6098  0.9069
   65SAPC  H19S 5351   1.126   4.287   4.582 -0.5430 -2.0071 -0.9108
   65SAPC  C220 5352   0.971   4.432   4.541 -0.2047 -0.5032  0.3810
   65SAPC  H20R 5353   0.879   4.378   4.570 -0.6923  0.9865  1.7643
   65SAPC  H20S 5354   0.941   4.497   4.456 -0.8092 -0.7811  0.3763
   65SAPC  H20T 5355   0.999   4.504   4.621  2.3323 -1.8191  0.7854
   65SAPC   C33 5356   1.899   4.883   3.162  0.4197 -0.5526  0.1820
   65SAPC   H3X 5357   1.840   4.843   3.247  1.4338 -0.9271  0.7249
   65SAPC   H3Y 5358   1.932   4.988   3.181  1.4298 -0.9322  0.6121
   65SAPC   C34 5359   2.031   4.800   3.163 -0.1509  0.5251  0.0305
   65SAPC   H4X 5360   2.084   4.827   3.069 -0.6679 -0.1860 -0.4808
   65SAPC   H4Y 5361   2.003   4.693   3.149 -2.8681  0.9921  1.1550
   65SAPC   C35 5362   2.110   4.825   3.290  0.2344  0.2552  0.0484
   65SAPC   H5X 5363   2.114   4.936   3.292 -1.5164  0.3573 -0.4694
   65SAPC   H5Y 5364   2.215   4.788   3.292  0.1043 -0.1945 -1.1133
   65SAPC   C36 5365   2.042   4.769   3.407  0.2484  0.3277  0.3965
   65SAPC   H6X 5366   2.063   4.660   3.400  1.1476  0.4370  1.1503
   65SAPC   H6Y 5367   1.934   4.790   3.424 -0.0175  1.3278 -2.1106
   65SAPC   C37 5368   2.113   4.801   3.537 -0.5989 -0.8540  0.2125
   65SAPC   H7X 5369   2.082   4.906   3.558  0.9833 -0.4588  0.6687
   65SAPC   H7Y 5370   2.222   4.790   3.517 -0.5219 -0.5472  0.4551
   65SAPC   C38 5371   2.074   4.714   3.659 -0.3991  0.5891 -0.4591
   65SAPC   H8X 5372   2.115   4.613   3.639 -0.2335  0.7780 -1.0976
   65SAPC   H8Y 5373   1.963   4.712   3.660 -0.4368  1.1271 -1.5179
   65SAPC   C39 5374   2.137   4.768   3.786 -0.2174 -0.9776  0.1476
   65SAPC   H9X 5375   2.094   4.868   3.808  0.7360 -0.4061 -0.5577
   65SAPC   H9Y 5376   2.242   4.797   3.768 -1.1219  1.0971 -2.3342
   65SAPC  C310 5377   2.120   4.668   3.900  0.1433  0.0399 -0.0721
   65SAPC  H10X 5378   2.150   4.568   3.861 -0.9473  0.6317 -2.6318
   65SAPC  H10Y 5379   2.012   4.666   3.927  0.7809 -1.5897  2.6880
   65SAPC  C311 5380   2.188   4.723   4.027 -0.2640  0.5086 -0.0359
   65SAPC  H11X 5381   2.164   4.829   4.049 -1.4808  0.3028 -0.3388
   65SAPC  H11Y 5382   2.297   4.711   4.006 -0.6137  0.0186 -1.6985
   65SAPC  C312 5383   2.150   4.652   4.158  0.8298  0.4764 -0.0787
   65SAPC  H12X 5384   2.233   4.670   4.230 -0.1225  0.5351  1.0366
   65SAPC  H12Y 5385   2.155   4.543   4.134  0.0703  0.3762  0.1941
   65SAPC  C313 5386   2.015   4.682   4.214  0.3444  0.3859 -0.5107
   65SAPC  H13X 5387   1.931   4.686   4.141  1.3349 -0.1227 -1.7049
   65SAPC  H13Y 5388   2.017   4.787   4.252  0.1335 -0.9834  3.7739
   65SAPC  C314 5389   1.986   4.586   4.330 -0.4639 -0.7751  0.0739
   65SAPC  H14X 5390   2.041   4.490   4.314  1.4920  0.0668  1.3692
   65SAPC  H14Y 5391   1.878   4.561   4.343 -0.3819 -0.8662  0.5929
   65SAPC  C315 5392   2.033   4.647   4.459 -0.6145  0.8537 -0.2635
   65SAPC  H15X 5393   1.970   4.737   4.473 -2.3020 -0.6196  2.2946
   65SAPC  H15Y 5394   2.142   4.669   4.464 -0.7814  1.4845  0.6687
   65SAPC  C316 5395   2.002   4.557   4.584  0.6005 -0.4932  0.1137
   65SAPC  H16X 5396   2.064   4.465   4.584 -2.0236 -2.3557  1.2841
   65SAPC  H16Y 5397   1.897   4.524   4.579  0.7665 -1.2441  1.3124
   65SAPC  C317 5398   2.020   4.651   4.707  0.1644 -0.5602  0.1569
   65SAPC  H17X 5399   1.949   4.735   4.708 -0.6268 -1.2190  1.4931
   65SAPC  H17Y 5400   2.120   4.700   4.702  0.1727 -0.6621 -1.6927
   65SAPC  C318 5401   2.000   4.572   4.844 -0.4261 -0.0910  0.4480
   65SAPC  H18X 5402   1.920   4.495   4.830 -0.6402  0.3043 -0.5898
   65SAPC  H18Y 5403   1.970   4.639   4.927  1.1334 -0.1440  1.0838
   65SAPC  H18Z 5404   2.085   4.509   4.879 -0.5715 -1.2280 -1.1049
   66SAPC     N 5405   5.155   5.300   2.532  0.5036 -0.0080 -0.1462
   66SAPC   C12 5406   5.180   5.451   2.559  0.1285  0.2241  0.0934
   66SAPC  H12A 5407   5.112   5.519   2.510  0.5904 -0.5815 -1.7667
   66SAPC  H12B 5408   5.278   5.479   2.524  0.5954 -0.3957  0.8703
   66SAPC   C13 5409   5.159   5.271   2.386  0.1639  0.2757 -0.7879
   66SAPC  H13A 5410   5.113   5.351   2.330  0.5934  1.3834  0.3918
   66SAPC  H13B 5411   5.262   5.255   2.359  1.1282  1.7001  1.7559
   66SAPC  H13C 5412   5.104   5.181   2.362 -1.5108  0.5498  1.6677
   66SAPC   C14 5413   5.255   5.210   2.597  0.1476  0.3118  0.4681
   66SAPC  H14A 5414   5.261   5.218   2.705 -2.4203 -0.9401  0.7725
   66SAPC  H14B 5415   5.238   5.107   2.571  1.9708 -0.3621  1.7594
   66SAPC  H14C 5416   5.350   5.241   2.556 -0.1963 -0.7687 -1.2317
   66SAPC   C15 5417   5.017   5.259   2.577  0.0589  0.2493 -0.0019
   66SAPC  H15A 5418   4.999   5.153   2.562 -0.2960 -0.0392  2.1214
   66SAPC  H15B 5419   5.008   5.277   2.683 -0.0397 -0.7634  0.1768
   66SAPC  H15C 5420   4.934   5.307   2.529  0.3640  0.8143  0.0213
   66SAPC   C11 5421   5.176   5.493   2.708  0.3942 -0.4572 -0.3959
   66SAPC  H11A 5422   5.216   5.409   2.768  0.4055 -0.0971  0.1072
   66SAPC  H11B 5423   5.081   5.519   2.759  1.2702  0.1815  0.9392
   66SAPC     P 5424   5.410   5.604   2.761  0.0240  1.0632 -0.1210
   66SAPC   O13 5425   5.479   5.541   2.646 -0.3787 -0.0533  0.5343
   66SAPC   O14 5426   5.462   5.736   2.801 -0.4051 -0.2827 -0.5593
   66SAPC   O12 5427   5.259   5.613   2.730  0.0595 -0.2895 -0.2084
   66SAPC   O11 5428   5.423   5.503   2.883 -0.0828  0.4196 -0.0318
   66SAPC    C1 5429   5.335   5.514   3.000  0.1007 -0.6923  0.4896
   66SAPC    HA 5430   5.235   5.555   2.975 -0.1576  0.2630  2.8465
   66SAPC    HB 5431   5.324   5.416   3.050 -1.0448 -2.1901 -2.4703
   66SAPC    C2 5432   5.400   5.628   3.089  0.1328  0.4171 -0.4877
   66SAPC    HS 5433   5.385   5.731   3.050 -3.6402  0.2592  0.2313
   66SAPC   O21 5434   5.541   5.587   3.109 -0.3939 -0.6644 -0.3078
   66SAPC   C21 5435   5.631   5.681   3.133 -0.1085  0.1376 -0.0614
   66SAPC   O22 5436   5.614   5.802   3.122  0.1282 -0.6254  0.7345
   66SAPC   C22 5437   5.757   5.612   3.177 -0.2182  0.4425 -0.4686
   66SAPC   H2R 5438   5.738   5.580   3.282  0.2937  1.4647 -0.0452
   66SAPC   H2S 5439   5.785   5.530   3.108  0.0810  1.7336 -1.9543
   66SAPC    C3 5440   5.326   5.634   3.223 -0.5742  0.3814 -0.1425
   66SAPC    HX 5441   5.328   5.537   3.277  0.1533 -0.1785 -1.1388
   66SAPC    HY 5442   5.218   5.657   3.212 -0.7239  0.5356  1.4356
   66SAPC   O31 5443   5.394   5.722   3.312 -0.3688  0.1821 -0.5895
   66SAPC   C31 5444   5.359   5.855   3.307 -0.5728  0.1005 -0.4899
   66SAPC   O32 5445   5.277   5.898   3.232  0.7603  0.3877  0.1039
   66SAPC   C32 5446   5.409   5.927   3.428 -0.1649 -0.1011  0.0843
   66SAPC   H2X 5447   5.365   5.874   3.516  2.5668 -0.4471  1.3336
   66SAPC   H2Y 5448   5.359   6.027   3.426  0.5464  0.2557 -0.3317
   66SAPC   C23 5449   5.881   5.703   3.193 -0.1226  0.4472  1.4791
   66SAPC   H3R 5450   5.852   5.795   3.249 -4.4049 -0.4425  1.0663
   66SAPC   H3S 5451   5.908   5.734   3.089  1.1536 -1.1133  1.3044
   66SAPC   C24 5452   5.998   5.633   3.272 -0.5288 -0.1813 -1.0950
   66SAPC   H4R 5453   6.040   5.548   3.214 -2.8424 -1.0493 -1.6388
   66SAPC   H4S 5454   5.954   5.595   3.366 -1.9868  1.9813 -0.8222
   66SAPC   C25 5455   6.105   5.737   3.298  0.2386 -0.3823  0.1739
   66SAPC   H5R 5456   6.165   5.745   3.206  2.9107 -0.0113  1.8331
   66SAPC   C26 5457   6.140   5.811   3.403  0.1220 -0.4755  0.2564
   66SAPC   H6R 5458   6.237   5.863   3.408  1.0196 -1.9479 -1.1758
   66SAPC   C27 5459   6.062   5.828   3.534 -0.3328 -0.4916  0.5724
   66SAPC   H7R 5460   6.081   5.737   3.594 -2.6781 -0.2596  1.8135
   66SAPC   H7S 5461   5.955   5.814   3.506 -0.0361  1.9946 -2.3592
   66SAPC   C28 5462   6.075   5.948   3.623 -1.0335  0.0639  0.2246
   66SAPC   H8R 5463   6.049   6.046   3.581  1.7112  0.0936 -1.6582
   66SAPC   C29 5464   6.138   5.949   3.742 -0.3446 -0.7894  0.2172
   66SAPC   H9R 5465   6.131   6.046   3.795  0.5691 -0.0725 -0.9305
   66SAPC  C210 5466   6.178   5.834   3.827 -0.4102  0.5900  0.2448
   66SAPC  H10R 5467   6.260   5.857   3.898 -1.8129  1.6778  1.5843
   66SAPC  H10S 5468   6.213   5.747   3.768  1.1508 -0.1571  2.1508
   66SAPC  C211 5469   6.064   5.786   3.910 -0.2923 -0.4422  0.4142
   66SAPC  H11R 5470   5.971   5.767   3.854 -0.9208 -0.4795  1.4451
   66SAPC  C212 5471   6.058   5.751   4.037 -0.7868  0.8379 -0.4829
   66SAPC  H12R 5472   5.964   5.707   4.071 -0.8879  1.2450 -0.2281
   66SAPC  C213 5473   6.174   5.767   4.135  0.2764  0.0981  0.2083
   66SAPC  H13R 5474   6.226   5.863   4.117  1.6822 -0.7306 -0.2575
   66SAPC  H13S 5475   6.247   5.683   4.138 -0.6316 -0.7550 -0.7477
   66SAPC  C214 5476   6.118   5.784   4.274  0.0145  0.2813 -0.0322
   66SAPC  H14R 5477   6.018   5.829   4.285 -1.4196 -1.4461 -4.0071
   66SAPC  C215 5478   6.181   5.736   4.385  0.2656 -0.3462  0.2057
   66SAPC  H15R 5479   6.136   5.764   4.482 -1.7899  0.0175 -0.7793
   66SAPC  C216 5480   6.316   5.671   4.392 -0.5510  0.3164 -0.2308
   66SAPC  H16R 5481   6.386   5.713   4.317 -1.5656  0.6107 -1.0467
   66SAPC  H16S 5482   6.318   5.561   4.380 -1.0119  0.2888 -0.0781
   66SAPC  C217 5483   6.393   5.719   4.522 -0.0231 -0.7931 -1.2066
   66SAPC  H17R 5484   6.493   5.675   4.543  0.1468  0.1071  0.0234
   66SAPC  H17S 5485   6.335   5.695   4.614  2.8063  0.6423  1.1235
   66SAPC  C218 5486   6.409   5.876   4.531 -0.6953 -0.0799  0.5901
   66SAPC  H18R 5487   6.460   5.899   4.627 -0.8320  0.6734  0.4884
   66SAPC  H18S 5488   6.314   5.933   4.540 -0.1123  1.2517 -1.0415
   66SAPC  C219 5489   6.479   5.942   4.410 -0.3614 -0.6056 -0.0701
   66SAPC  H19R 5490   6.422   5.912   4.319  0.8947 -1.4167 -0.6211
   66SAPC  H19S 5491   6.579   5.894   4.404 -0.8754 -1.7781  0.2837
   66SAPC  C220 5492   6.495   6.095   4.411  0.1734 -0.4529 -0.4214
   66SAPC  H20R 5493   6.555   6.133   4.496 -0.2042  0.5768 -0.5989
   66SAPC  H20S 5494   6.400   6.151   4.395  1.7841  1.5417 -4.3297
   66SAPC  H20T 5495   6.553   6.118   4.319 -1.5870  0.5673 -1.3474
   66SAPC   C33 5496   5.562   5.948   3.438  0.2693 -0.3911 -0.0302
   66SAPC   H3X 5497   5.604   6.022   3.366  0.9475 -2.5962 -2.0597
   66SAPC   H3Y 5498   5.607   5.851   3.408  0.7425  0.0492 -0.7809
   66SAPC   C34 5499   5.607   5.992   3.580  0.3833  0.1887  0.0744
   66SAPC   H4X 5500   5.518   6.025   3.638 -0.6954 -2.2337 -0.0785
   66SAPC   H4Y 5501   5.676   6.079   3.577  0.7955 -0.1358 -0.0326
   66SAPC   C35 5502   5.669   5.880   3.667  0.3252  0.0224 -0.2094
   66SAPC   H5X 5503   5.754   5.838   3.610 -0.5578 -0.9540 -0.8367
   66SAPC   H5Y 5504   5.608   5.789   3.683 -1.2593  1.2055  0.8281
   66SAPC   C36 5505   5.721   5.936   3.802 -0.1741  0.2686 -0.0657
   66SAPC   H6X 5506   5.773   6.033   3.788  0.4763  0.2152  1.6952
   66SAPC   H6Y 5507   5.797   5.873   3.853  0.6246  2.5959  1.7996
   66SAPC   C37 5508   5.608   5.965   3.899  0.4009  0.0418 -0.4478
   66SAPC   H7X 5509   5.544   5.877   3.920  0.9109 -0.4090 -0.7764
   66SAPC   H7Y 5510   5.548   6.050   3.860 -2.1805 -0.5605  1.8558
   66SAPC   C38 5511   5.673   6.008   4.027 -0.4365  0.1939 -0.5012
   66SAPC   H8X 5512   5.749   6.084   4.000 -0.3761  0.0706 -0.6790
   66SAPC   H8Y 5513   5.725   5.925   4.080  0.4585  2.4315  2.4074
   66SAPC   C39 5514   5.575   6.067   4.128 -0.2282 -0.5204 -0.1077
   66SAPC   H9X 5515   5.478   6.015   4.113 -0.5584  0.2341 -0.6216
   66SAPC   H9Y 5516   5.557   6.175   4.111 -2.0460 -0.4221  2.0502
   66SAPC  C310 5517   5.615   6.033   4.274  0.5348 -0.2109  0.0821
   66SAPC  H10X 5518   5.715   6.079   4.288  0.2545  0.2559  0.5477
   66SAPC  H10Y 5519   5.617   5.922   4.285 -0.5773 -0.5400 -2.3208
   66SAPC  C311 5520   5.510   6.086   4.372 -0.3883  0.3253 -0.3417
   66SAPC  H11X 5521   5.431   6.009   4.362  0.1833 -0.2094 -0.8227
   66SAPC  H11Y 5522   5.466   6.185   4.346 -2.0343  0.0886  1.3294
   66SAPC  C312 5523   5.563   6.099   4.516 -0.0527 -0.2495  0.5423
   66SAPC  H12X 5524   5.480   6.132   4.581 -1.0146  0.7113 -1.1057
   66SAPC  H12Y 5525   5.632   6.185   4.529 -0.5897  0.0481  1.4995
   66SAPC  C313 5526   5.624   5.968   4.569 -0.1298  0.2552  0.0053
   66SAPC  H13X 5527   5.710   5.939   4.506 -0.4589 -0.3494 -0.1779
   66SAPC  H13Y 5528   5.552   5.885   4.549  0.2920 -0.2099  0.3993
   66SAPC  C314 5529   5.663   5.969   4.718  0.0091 -0.1903  0.2478
   66SAPC  H14X 5530   5.580   5.998   4.785  1.0980 -0.3067  1.7157
   66SAPC  H14Y 5531   5.741   6.046   4.739 -0.9837  0.4031  1.9910
   66SAPC  C315 5532   5.707   5.834   4.770  0.1836 -0.1802 -0.0040
   66SAPC  H15X 5533   5.807   5.818   4.723  1.4215  0.4349  2.2311
   66SAPC  H15Y 5534   5.645   5.746   4.745  0.1381 -0.0471 -0.3683
   66SAPC  C316 5535   5.735   5.837   4.920  0.1668 -1.0556 -0.1430
   66SAPC  H16X 5536   5.644   5.880   4.968 -0.5122 -3.1915  0.6102
   66SAPC  H16Y 5537   5.817   5.905   4.952 -0.7814  0.5774 -1.0021
   66SAPC  C317 5538   5.745   5.698   4.980 -0.4919 -0.5889  0.3929
   66SAPC  H17X 5539   5.639   5.670   4.959 -0.6233  1.5815 -2.5155
   66SAPC  H17Y 5540   5.762   5.705   5.090 -1.6808 -0.2722  0.5693
   66SAPC  C318 5541   5.848   5.597   4.928  0.1058  0.4709 -0.1350
   66SAPC  H18X 5542   5.828   5.570   4.822 -0.4806 -2.1514  0.5912
   66SAPC  H18Y 5543   5.846   5.508   4.995 -0.6499 -0.7712 -1.7324
   66SAPC  H18Z 5544   5.946   5.649   4.937 -1.0199  2.7023 -0.1011
   67SAPC     N 5545   3.595   6.783   2.391  0.0048 -0.6156  0.3704
   67SAPC   C12 5546   3.655   6.860   2.514  0.4452  0.6153  0.4345
   67SAPC  H12A 5547   3.607   6.957   2.521 -2.0670 -0.4051 -1.2179
   67SAPC  H12B 5548   3.757   6.890   2.494 -0.4549  3.5161 -0.3696
   67SAPC   C13 5549   3.678   6.655   2.361 -0.5694 -0.0257  0.0402
   67SAPC  H13A 5550   3.658   6.582   2.438  1.3415  0.4494  1.0532
   67SAPC  H13B 5551   3.643   6.607   2.270  1.2924 -1.5113  0.0380
   67SAPC  H13C 5552   3.782   6.682   2.355 -0.7760  0.7240 -0.2311
   67SAPC   C14 5553   3.451   6.729   2.408  0.2979 -0.0644  0.6343
   67SAPC  H14A 5554   3.384   6.804   2.448 -1.3087 -1.7654  1.3196
   67SAPC  H14B 5555   3.400   6.690   2.321 -1.4621  0.9158  1.1652
   67SAPC  H14C 5556   3.452   6.652   2.484 -1.0973 -0.4918  0.2571
   67SAPC   C15 5557   3.595   6.873   2.268 -0.2659 -0.5940 -0.5338
   67SAPC  H15A 5558   3.691   6.912   2.238 -0.0009  1.3754  2.4462
   67SAPC  H15B 5559   3.543   6.826   2.185  1.0735  1.7512 -2.8292
   67SAPC  H15C 5560   3.535   6.959   2.293  0.5247 -0.1226 -0.2307
   67SAPC   C11 5561   3.648   6.798   2.650 -0.4989  0.9963  0.0387
   67SAPC  H11A 5562   3.702   6.853   2.730 -0.3727 -0.9446  1.3528
   67SAPC  H11B 5563   3.708   6.705   2.653 -0.0227  1.3221  2.5267
   67SAPC     P 5564   3.417   6.892   2.717  0.1667 -0.0540 -0.0890
   67SAPC   O13 5565   3.487   7.023   2.711  0.2431  0.5001  0.3853
   67SAPC   O14 5566   3.299   6.873   2.629 -0.5542 -0.0702  0.0027
   67SAPC   O12 5567   3.515   6.771   2.692  0.8547  1.2557 -0.3868
   67SAPC   O11 5568   3.368   6.875   2.866 -0.3590  0.2260  0.2522
   67SAPC    C1 5569   3.367   6.749   2.938 -0.1273  0.0689  0.4545
   67SAPC    HA 5570   3.339   6.664   2.873 -2.2143 -0.6141  2.1127
   67SAPC    HB 5571   3.471   6.725   2.968 -0.1432  0.1253  0.5560
   67SAPC    C2 5572   3.272   6.741   3.062 -0.1455  0.1677  1.1804
   67SAPC    HS 5573   3.175   6.772   3.018  0.6593  0.9964 -0.0469
   67SAPC   O21 5574   3.311   6.832   3.166 -0.4578  0.3325 -0.1771
   67SAPC   C21 5575   3.212   6.869   3.242  0.2296  0.2634  0.0707
   67SAPC   O22 5576   3.092   6.854   3.222  0.0019  0.0543  0.1350
   67SAPC   C22 5577   3.266   6.933   3.365  0.3611 -0.3569 -0.6929
   67SAPC   H2R 5578   3.374   6.948   3.347  0.1349  1.2065 -0.9500
   67SAPC   H2S 5579   3.222   7.035   3.368 -0.8566 -0.8332 -1.3711
   67SAPC    C3 5580   3.252   6.590   3.108 -0.0647 -0.3411  0.2922
   67SAPC    HX 5581   3.355   6.553   3.127  0.2025  0.2846  0.0743
   67SAPC    HY 5582   3.217   6.538   3.016 -1.8375 -0.5915  1.0709
   67SAPC   O31 5583   3.166   6.576   3.219  0.6352  0.1663 -0.1424
   67SAPC   C31 5584   3.094   6.470   3.220 -0.3553  0.7184  0.0133
   67SAPC   O32 5585   3.104   6.365   3.153  0.3861  0.4167  0.0606
   67SAPC   C32 5586   2.997   6.488   3.335 -0.0917  0.1878  0.1481
   67SAPC   H2X 5587   2.917   6.555   3.298 -0.1073 -0.7277 -1.6088
   67SAPC   H2Y 5588   3.049   6.523   3.427 -0.3807  1.1990 -0.0640
   67SAPC   C23 5589   3.217   6.855   3.494 -0.5234  0.1646 -0.7308
   67SAPC   H3R 5590   3.217   6.744   3.486 -1.1660  0.1285 -0.3222
   67SAPC   H3S 5591   3.108   6.880   3.499 -0.8125 -0.3425 -3.2112
   67SAPC   C24 5592   3.289   6.899   3.625 -0.5438  0.2845 -0.4896
   67SAPC   H4R 5593   3.234   6.848   3.708 -0.4277 -0.2383 -0.7277
   67SAPC   H4S 5594   3.271   7.006   3.649 -4.5156  0.5527 -3.6312
   67SAPC   C25 5595   3.441   6.868   3.628 -0.9126  0.3973 -0.0883
   67SAPC   H5R 5596   3.496   6.913   3.544  0.0111 -0.5800 -0.0214
   67SAPC   C26 5597   3.511   6.817   3.732 -0.4781  0.4916  0.2645
   67SAPC   H6R 5598   3.619   6.811   3.712 -0.5332  0.4811 -0.0414
   67SAPC   C27 5599   3.461   6.763   3.859  0.5084 -0.3196  0.4112
   67SAPC   H7R 5600   3.464   6.652   3.855  1.2011 -0.2633 -1.6232
   67SAPC   H7S 5601   3.353   6.777   3.884  0.6126 -0.5215  0.9931
   67SAPC   C28 5602   3.552   6.798   3.977  0.6326 -0.2539  0.0866
   67SAPC   H8R 5603   3.641   6.858   3.953  1.2648 -1.1701  0.0984
   67SAPC   C29 5604   3.519   6.773   4.104 -0.1458  0.2199 -0.3391
   67SAPC   H9R 5605   3.589   6.802   4.183 -1.0187  2.6330 -0.3854
   67SAPC  C210 5606   3.398   6.694   4.157  0.3639 -0.8376  0.7500
   67SAPC  H10R 5607   3.327   6.680   4.073 -0.3323  0.9340  1.0012
   67SAPC  H10S 5608   3.351   6.761   4.232  1.4055 -0.0734  0.7514
   67SAPC  C211 5609   3.434   6.565   4.226  0.1414 -0.0315  0.1208
   67SAPC  H11R 5610   3.504   6.495   4.178  0.2348  0.2127 -0.1030
   67SAPC  C212 5611   3.385   6.529   4.343 -0.3757  0.1870 -0.5018
   67SAPC  H12R 5612   3.423   6.438   4.390  1.3423  0.9740 -0.2732
   67SAPC  C213 5613   3.292   6.600   4.443  1.1512 -0.0441  0.2909
   67SAPC  H13R 5614   3.216   6.528   4.480  0.8032  0.8856  1.4240
   67SAPC  H13S 5615   3.236   6.685   4.397 -1.9307 -2.2255 -0.2559
   67SAPC  C214 5616   3.373   6.650   4.565  0.7070 -0.1664  0.0617
   67SAPC  H14R 5617   3.438   6.734   4.537  2.3042 -0.0990  3.4909
   67SAPC  C215 5618   3.348   6.629   4.696 -0.2144  0.3171 -0.0012
   67SAPC  H15R 5619   3.402   6.693   4.768  0.3970  0.1301 -0.2835
   67SAPC  C216 5620   3.241   6.546   4.766 -0.3685  0.8930 -0.5179
   67SAPC  H16R 5621   3.177   6.482   4.701 -0.4845 -2.2160  2.3820
   67SAPC  H16S 5622   3.167   6.604   4.826 -0.2165  0.6623 -0.0993
   67SAPC  C217 5623   3.301   6.461   4.878  0.5923 -0.3951  0.0774
   67SAPC  H17R 5624   3.231   6.387   4.922  2.4969 -1.8701  0.7400
   67SAPC  H17S 5625   3.332   6.522   4.965  1.9406 -0.8852 -0.0421
   67SAPC  C218 5626   3.422   6.372   4.844  0.6354 -0.4675 -0.6340
   67SAPC  H18R 5627   3.510   6.439   4.847 -1.0647  1.8682  0.5495
   67SAPC  H18S 5628   3.410   6.338   4.739  1.5829  1.9652 -1.6216
   67SAPC  C219 5629   3.438   6.244   4.926  0.0070 -0.8536  0.3314
   67SAPC  H19R 5630   3.524   6.177   4.905 -0.3510 -1.7864  1.6700
   67SAPC  H19S 5631   3.344   6.187   4.908 -0.3417 -0.4263  0.7791
   67SAPC  C220 5632   3.447   6.282   5.073 -0.0822 -0.0564 -0.2552
   67SAPC  H20R 5633   3.549   6.323   5.086 -0.9442  1.7863  1.1289
   67SAPC  H20S 5634   3.436   6.195   5.142  0.8341 -0.0803 -0.1204
   67SAPC  H20T 5635   3.386   6.369   5.104  1.3356  1.1358 -0.6980
   67SAPC   C33 5636   2.926   6.356   3.373 -0.3084  1.1147 -0.5519
   67SAPC   H3X 5637   2.857   6.316   3.295 -1.4437 -0.8521  1.3729
   67SAPC   H3Y 5638   2.860   6.381   3.458 -0.0691 -0.8861  0.2661
   67SAPC   C34 5639   3.013   6.242   3.440  0.0543  0.1886  0.1541
   67SAPC   H4X 5640   3.077   6.288   3.519 -0.1682  2.7681 -1.0681
   67SAPC   H4Y 5641   3.077   6.181   3.372 -1.0965 -1.6727  0.6564
   67SAPC   C35 5642   2.921   6.146   3.523 -0.1434 -0.0190 -0.2862
   67SAPC   H5X 5643   2.878   6.072   3.451  2.7490 -2.3049  0.1374
   67SAPC   H5Y 5644   2.845   6.215   3.565 -0.6926 -0.9529  0.2990
   67SAPC   C36 5645   2.992   6.073   3.637  0.4215  0.1062  0.5311
   67SAPC   H6X 5646   3.050   6.142   3.702  0.6441 -0.3745  0.8490
   67SAPC   H6Y 5647   3.058   5.998   3.587  0.0735  0.4758 -0.4849
   67SAPC   C37 5648   2.894   5.979   3.716 -0.5481 -0.6992 -0.3702
   67SAPC   H7X 5649   2.941   5.889   3.760  1.2394 -0.5753 -1.9261
   67SAPC   H7Y 5650   2.812   5.942   3.650 -3.1461 -0.9668  2.7290
   67SAPC   C38 5651   2.829   6.063   3.834 -0.3268  0.1077 -0.1479
   67SAPC   H8X 5652   2.787   6.159   3.797  0.0549 -0.0250 -0.9418
   67SAPC   H8Y 5653   2.905   6.097   3.908  0.8226 -1.0391 -0.7577
   67SAPC   C39 5654   2.725   5.980   3.905  0.0986  0.0537  0.8827
   67SAPC   H9X 5655   2.644   5.966   3.830  0.8429 -0.6252  0.1882
   67SAPC   H9Y 5656   2.678   6.040   3.986 -1.0395  0.9586 -0.3849
   67SAPC  C310 5657   2.772   5.842   3.964 -0.4225  0.2263 -0.5553
   67SAPC  H10X 5658   2.800   5.776   3.880  1.3498  0.4994 -0.2131
   67SAPC  H10Y 5659   2.690   5.803   4.028 -0.2794 -2.8905 -2.0932
   67SAPC  C311 5660   2.883   5.865   4.065 -0.1253 -0.8457 -0.3453
   67SAPC  H11X 5661   2.843   5.957   4.113  0.2359 -0.1698 -1.3031
   67SAPC  H11Y 5662   2.979   5.895   4.016  1.1363  0.6645  2.7402
   67SAPC  C312 5663   2.923   5.758   4.160  0.6866 -0.3076 -0.3857
   67SAPC  H12X 5664   3.015   5.791   4.213  2.4751 -1.6036 -2.5156
   67SAPC  H12Y 5665   2.955   5.666   4.106  1.8538 -0.1790  0.0436
   67SAPC  C313 5666   2.813   5.740   4.267  0.3157 -0.0912 -0.1411
   67SAPC  H13X 5667   2.822   5.636   4.304 -0.2791  0.0667  0.4604
   67SAPC  H13Y 5668   2.709   5.766   4.238  0.1166 -2.6292 -1.9994
   67SAPC  C314 5669   2.826   5.847   4.377 -1.0788  0.3589 -0.6981
   67SAPC  H14X 5670   2.823   5.941   4.317 -0.0844  1.0821  0.3540
   67SAPC  H14Y 5671   2.928   5.838   4.421 -0.5869 -0.1224 -1.8880
   67SAPC  C315 5672   2.716   5.832   4.484  0.7862 -0.4208  0.3298
   67SAPC  H15X 5673   2.625   5.779   4.449 -0.3891  1.9753 -0.5157
   67SAPC  H15Y 5674   2.679   5.933   4.514  1.1103  0.0508 -0.8014
   67SAPC  C316 5675   2.759   5.775   4.618 -0.0441  0.3817  0.0292
   67SAPC  H16X 5676   2.843   5.839   4.654  0.7848  0.0797 -1.3017
   67SAPC  H16Y 5677   2.785   5.668   4.604 -0.6929  0.2743 -0.3836
   67SAPC  C317 5678   2.645   5.778   4.710 -0.0684  0.4592 -0.3294
   67SAPC  H17X 5679   2.566   5.717   4.660 -0.4749  1.0290 -0.3949
   67SAPC  H17Y 5680   2.602   5.881   4.713 -1.8902 -0.1965 -1.6275
   67SAPC  C318 5681   2.689   5.718   4.838 -0.5936  0.0155 -0.2843
   67SAPC  H18X 5682   2.616   5.740   4.918  1.6539  0.1446  1.8553
   67SAPC  H18Y 5683   2.779   5.769   4.877 -0.9012 -1.0248  1.9451
   67SAPC  H18Z 5684   2.710   5.609   4.828  0.0794  0.0201  0.8758
   68SAPC     N 5685   4.145   0.776   2.641 -0.2925 -0.1077  0.1983
   68SAPC   C12 5686   4.251   0.838   2.726  0.1798 -0.5379  0.0563
   68SAPC  H12A 5687   4.277   0.937   2.693  0.3504 -1.2047 -1.9442
   68SAPC  H12B 5688   4.339   0.776   2.718 -1.0364 -2.3667  0.3006
   68SAPC   C13 5689   4.012   0.850   2.645 -0.4928 -0.0741  0.4567
   68SAPC  H13A 5690   3.979   0.844   2.747 -1.7934 -1.1264 -0.0033
   68SAPC  H13B 5691   4.028   0.954   2.620  1.4503 -0.0565  1.5488
   68SAPC  H13C 5692   3.946   0.795   2.580 -1.2467  0.1564  1.0108
   68SAPC   C14 5693   4.189   0.758   2.498 -0.0627  0.0813  0.1959
   68SAPC  H14A 5694   4.111   0.706   2.443  0.8976 -0.3706 -0.7690
   68SAPC  H14B 5695   4.221   0.851   2.455  1.4052  0.1860  1.4631
   68SAPC  H14C 5696   4.280   0.700   2.491 -0.0966  0.0412  0.0765
   68SAPC   C15 5697   4.116   0.638   2.681  0.3179  0.5627  0.4825
   68SAPC  H15A 5698   4.043   0.623   2.758 -1.4492 -1.3353 -1.4314
   68SAPC  H15B 5699   4.076   0.583   2.597 -1.0452  0.2380  1.3243
   68SAPC  H15C 5700   4.204   0.576   2.691 -0.7496 -0.7289  2.4595
   68SAPC   C11 5701   4.218   0.854   2.869  0.3464  0.5212 -0.7915
   68SAPC  H11A 5702   4.311   0.890   2.919 -0.3871 -0.4736  1.4125
   68SAPC  H11B 5703   4.190   0.753   2.905  3.1099 -0.3621 -0.9436
   68SAPC     P 5704   4.139   1.103   2.881 -0.2098  0.2681 -0.0196
   68SAPC   O13 5705   4.212   1.131   2.753 -0.1293  0.3526  0.0017
   68SAPC   O14 5706   4.015   1.182   2.906  0.3108  0.1975  0.5837
   68SAPC   O12 5707   4.112   0.950   2.883  0.3173 -0.1897  0.5668
   68SAPC   O11 5708   4.238   1.125   2.997 -0.1605  0.1065 -0.3077
   68SAPC    C1 5709   4.381   1.121   2.985 -0.3383  0.3142 -0.0218
   68SAPC    HA 5710   4.417   1.071   2.892  0.3961  0.7607  0.0162
   68SAPC    HB 5711   4.424   1.223   2.990 -0.3584  0.2587  2.0529
   68SAPC    C2 5712   4.466   1.067   3.112 -0.0102 -0.1438  0.6123
   68SAPC    HS 5713   4.477   0.957   3.106  0.3494 -0.0796  0.0413
   68SAPC   O21 5714   4.411   1.111   3.242  0.1067  0.3109 -0.0959
   68SAPC   C21 5715   4.296   1.040   3.276 -0.1091 -0.1666 -0.7352
   68SAPC   O22 5716   4.267   0.935   3.224 -0.1293 -0.4462  0.0871
   68SAPC   C22 5717   4.236   1.111   3.402 -0.0965  0.4564  0.5968
   68SAPC   H2R 5718   4.313   1.177   3.448 -0.0532  2.0847 -1.6243
   68SAPC   H2S 5719   4.166   1.184   3.357  1.2488  0.3394 -1.8919
   68SAPC    C3 5720   4.609   1.122   3.104 -0.0257 -0.5413 -0.3790
   68SAPC    HX 5721   4.597   1.232   3.102  1.8863 -0.2930 -1.7957
   68SAPC    HY 5722   4.648   1.091   3.004  1.7148  0.6759 -0.1259
   68SAPC   O31 5723   4.704   1.081   3.210 -0.5319  0.3683  0.0762
   68SAPC   C31 5724   4.804   1.154   3.219  0.2435  0.3944  0.2422
   68SAPC   O32 5725   4.836   1.245   3.137  0.5287  0.3547 -0.0378
   68SAPC   C32 5726   4.896   1.113   3.332  0.0683  0.0482  0.4780
   68SAPC   H2X 5727   4.984   1.179   3.321  0.0912 -0.2653 -1.7049
   68SAPC   H2Y 5728   4.931   1.010   3.309 -0.6915  0.5703 -3.8628
   68SAPC   C23 5729   4.170   1.013   3.504  0.0700 -0.5310 -0.0335
   68SAPC   H3R 5730   4.098   0.937   3.466  0.2730 -0.5274 -0.4347
   68SAPC   H3S 5731   4.099   1.073   3.565 -2.9887 -3.5960 -0.2522
   68SAPC   C24 5732   4.274   0.950   3.591 -0.4442  0.0727 -0.2553
   68SAPC   H4R 5733   4.339   1.026   3.640  0.3564 -0.7191 -0.0589
   68SAPC   H4S 5734   4.330   0.877   3.529 -1.3032 -0.1281 -0.8024
   68SAPC   C25 5735   4.206   0.879   3.700 -0.0463  0.1086  0.2463
   68SAPC   H5R 5736   4.130   0.810   3.659  1.3903  0.1440 -2.7384
   68SAPC   C26 5737   4.241   0.876   3.827 -0.3216  0.0431 -0.1228
   68SAPC   H6R 5738   4.182   0.808   3.892 -1.0956 -0.6336 -1.4889
   68SAPC   C27 5739   4.358   0.960   3.886 -0.3930  0.1927 -0.2422
   68SAPC   H7R 5740   4.330   1.067   3.887 -0.4311  0.2177 -1.4656
   68SAPC   H7S 5741   4.447   0.951   3.821  0.5408 -2.2184  1.2325
   68SAPC   C28 5742   4.399   0.918   4.032  0.2268  0.1200 -0.4594
   68SAPC   H8R 5743   4.502   0.882   4.044 -0.8015 -2.4703  1.5284
   68SAPC   C29 5744   4.323   0.938   4.142 -0.5618  0.0391 -0.5452
   68SAPC   H9R 5745   4.378   0.914   4.234  2.1328 -1.3576 -2.3594
   68SAPC  C210 5746   4.189   0.999   4.149  0.8439  0.1253  0.1396
   68SAPC  H10R 5747   4.109   0.927   4.178  0.0205  1.7981  2.2739
   68SAPC  H10S 5748   4.157   1.039   4.051 -0.1700  1.6386  1.0440
   68SAPC  C211 5749   4.176   1.111   4.248 -0.0930  1.0592 -0.6955
   68SAPC  H11R 5750   4.236   1.201   4.232  3.5993 -0.6844  1.9383
   68SAPC  C212 5751   4.103   1.110   4.360  0.7924  0.5954 -0.0970
   68SAPC  H12R 5752   4.102   1.205   4.416 -2.2021 -0.4471  1.8612
   68SAPC  C213 5753   4.040   0.994   4.427  0.6100  0.5017 -0.1859
   68SAPC  H13R 5754   4.072   0.894   4.390 -0.5192  0.8241 -2.1406
   68SAPC  H13S 5755   3.930   0.994   4.412  0.7798 -1.1804 -1.7929
   68SAPC  C214 5756   4.070   1.001   4.574 -0.0488  0.4870 -1.5567
   68SAPC  H14R 5757   4.018   1.078   4.633 -0.5585  0.7694 -2.3627
   68SAPC  C215 5758   4.168   0.943   4.641  0.3476 -0.0241  0.5448
   68SAPC  H15R 5759   4.185   0.966   4.747  0.3913 -0.4066  0.6207
   68SAPC  C216 5760   4.262   0.842   4.578  0.0433 -0.2311 -0.3271
   68SAPC  H16R 5761   4.242   0.815   4.472 -0.0649 -0.8773 -0.1450
   68SAPC  H16S 5762   4.248   0.743   4.626 -1.2780 -0.2202 -0.6612
   68SAPC  C217 5763   4.411   0.889   4.598  0.4768  0.8739  0.4197
   68SAPC  H17R 5764   4.421   0.904   4.708 -0.8886 -0.4761  0.7550
   68SAPC  H17S 5765   4.438   0.982   4.543 -4.1707  2.2510  0.0706
   68SAPC  C218 5766   4.503   0.760   4.573  0.0970  0.1726  0.3630
   68SAPC  H18R 5767   4.487   0.728   4.468  0.5998  0.7659  0.1005
   68SAPC  H18S 5768   4.476   0.679   4.643 -1.3867 -0.4182 -0.8280
   68SAPC  C219 5769   4.648   0.808   4.602 -0.0416 -0.2840  0.1672
   68SAPC  H19R 5770   4.665   0.851   4.703  1.5367  0.9075 -0.5435
   68SAPC  H19S 5771   4.669   0.886   4.526 -0.7288 -1.5342 -1.3637
   68SAPC  C220 5772   4.743   0.695   4.560  0.7268 -0.1053  0.4281
   68SAPC  H20R 5773   4.729   0.605   4.624 -2.7351 -0.7238 -0.9675
   68SAPC  H20S 5774   4.847   0.734   4.565  0.6971  0.4250 -1.9098
   68SAPC  H20T 5775   4.721   0.660   4.457  0.9829 -1.9661  0.9722
   68SAPC   C33 5776   4.839   1.114   3.475  0.5928 -0.3570  0.1389
   68SAPC   H3X 5777   4.918   1.094   3.551 -0.1401 -2.1266  0.4626
   68SAPC   H3Y 5778   4.761   1.036   3.486  0.5038 -0.4825 -1.3120
   68SAPC   C34 5779   4.776   1.253   3.503  0.0261 -0.1179  0.3177
   68SAPC   H4X 5780   4.685   1.269   3.441  0.8295 -2.8499 -1.7315
   68SAPC   H4Y 5781   4.844   1.339   3.484  4.0422 -2.9113  0.8892
   68SAPC   C35 5782   4.728   1.265   3.647 -0.2398  0.2214 -0.8265
   68SAPC   H5X 5783   4.805   1.246   3.725 -3.6028  1.8382  3.2698
   68SAPC   H5Y 5784   4.651   1.188   3.667 -2.0997  2.3350  0.7006
   68SAPC   C36 5785   4.654   1.402   3.677 -0.2637  0.4672 -0.2287
   68SAPC   H6X 5786   4.574   1.421   3.601  0.2178  0.1067 -0.8351
   68SAPC   H6Y 5787   4.723   1.487   3.689 -0.5153  0.7248 -0.5771
   68SAPC   C37 5788   4.579   1.392   3.807  0.4914  0.1287 -0.4751
   68SAPC   H7X 5789   4.518   1.299   3.794  1.5177 -0.6694  0.2118
   68SAPC   H7Y 5790   4.520   1.486   3.815  1.0057  0.2934  2.8112
   68SAPC   C38 5791   4.660   1.376   3.934 -0.5195  0.3310  0.4916
   68SAPC   H8X 5792   4.722   1.465   3.960  1.5391 -1.0892  0.6901
   68SAPC   H8Y 5793   4.727   1.289   3.916 -2.2517 -1.3774  1.8381
   68SAPC   C39 5794   4.574   1.354   4.050 -0.5430 -0.8774  0.2928
   68SAPC   H9X 5795   4.511   1.264   4.034  0.3470 -1.2685 -1.2108
   68SAPC   H9Y 5796   4.523   1.450   4.069 -0.0073 -0.2111 -1.4378
   68SAPC  C310 5797   4.661   1.316   4.172  0.5826 -0.1187  0.1626
   68SAPC  H10X 5798   4.741   1.392   4.185  1.1264 -0.1505 -2.3720
   68SAPC  H10Y 5799   4.716   1.222   4.150 -1.0360 -0.3556 -3.6801
   68SAPC  C311 5800   4.574   1.302   4.296 -0.7350  0.8735 -0.4081
   68SAPC  H11X 5801   4.505   1.217   4.280 -0.7149  0.4043  1.7117
   68SAPC  H11Y 5802   4.519   1.395   4.321 -1.3535 -0.5433  4.5676
   68SAPC  C312 5803   4.653   1.270   4.429  0.3824 -0.1663 -0.0783
   68SAPC  H12X 5804   4.749   1.326   4.426  2.0590 -2.8428 -0.3213
   68SAPC  H12Y 5805   4.666   1.160   4.412 -0.5226 -0.4690  1.0730
   68SAPC  C313 5806   4.568   1.283   4.557  0.5387  0.1332 -0.3027
   68SAPC  H13X 5807   4.479   1.219   4.538 -0.2003  1.2319 -0.6710
   68SAPC  H13Y 5808   4.533   1.388   4.567 -1.0426 -0.4174  0.2264
   68SAPC  C314 5809   4.641   1.248   4.681  0.2417 -0.1855  0.8140
   68SAPC  H14X 5810   4.710   1.328   4.715  0.6299  0.6301 -1.7243
   68SAPC  H14Y 5811   4.707   1.160   4.667  0.6665  0.3049 -0.4216
   68SAPC  C315 5812   4.539   1.221   4.793 -0.2670 -1.2108  0.1575
   68SAPC  H15X 5813   4.455   1.169   4.742 -2.0035  0.8873  0.7258
   68SAPC  H15Y 5814   4.501   1.316   4.837 -3.1713 -3.1056  2.1083
   68SAPC  C316 5815   4.600   1.136   4.910  0.2727 -0.0709 -0.0679
   68SAPC  H16X 5816   4.688   1.193   4.946  1.7897 -1.6510 -1.1191
   68SAPC  H16Y 5817   4.644   1.042   4.870  0.4177 -0.5257  1.1207
   68SAPC  C317 5818   4.500   1.095   5.012  0.1979  0.3405 -0.2347
   68SAPC  H17X 5819   4.549   1.032   5.089  0.5686  0.9929  0.0764
   68SAPC  H17Y 5820   4.448   1.010   4.963 -0.0304  0.6854 -0.5959
   68SAPC  C318 5821   4.413   1.199   5.074  0.4597  0.8945  0.1026
   68SAPC  H18X 5822   4.474   1.290   5.091  1.0379  0.8802 -1.7721
   68SAPC  H18Y 5823   4.364   1.182   5.173 -3.2551  0.0220 -1.7049
   68SAPC  H18Z 5824   4.337   1.244   5.007  2.1531  2.8363 -0.6045
   69SAPC     N 5825   0.223   6.429   2.692  0.8083  0.4723  0.1253
   69SAPC   C12 5826   0.225   6.301   2.776  0.8210  0.2955  0.6354
   69SAPC  H12A 5827   0.187   6.322   2.874 -0.0021 -1.4188  0.7127
   69SAPC  H12B 5828   0.324   6.260   2.788 -0.8494 -3.4406  3.6192
   69SAPC   C13 5829   0.313   6.535   2.744 -0.0629  0.5792  0.8876
   69SAPC  H13A 5830   0.417   6.505   2.738 -0.0396  0.8211 -0.1328
   69SAPC  H13B 5831   0.290   6.625   2.689 -2.0225 -0.0522  0.6048
   69SAPC  H13C 5832   0.292   6.556   2.848 -0.5996 -2.3487  1.4485
   69SAPC   C14 5833   0.270   6.392   2.552  0.1165 -0.3790  0.5913
   69SAPC  H14A 5834   0.309   6.481   2.506  0.0154 -0.1363  0.9648
   69SAPC  H14B 5835   0.349   6.319   2.551  0.6559  0.2028  0.1274
   69SAPC  H14C 5836   0.188   6.339   2.506  0.3727 -1.1131  0.9716
   69SAPC   C15 5837   0.090   6.487   2.688 -0.1350  0.2341 -0.4566
   69SAPC  H15A 5838   0.076   6.577   2.630 -0.1886  0.3831 -0.2127
   69SAPC  H15B 5839   0.029   6.410   2.644  1.6755 -2.4680  1.4295
   69SAPC  H15C 5840   0.050   6.507   2.786 -0.6308  0.0742 -0.6244
   69SAPC   C11 5841   0.149   6.173   2.716  1.0026  0.1608 -0.2216
   69SAPC  H11A 5842   0.156   6.092   2.793 -2.7453 -2.1692 -2.0204
   69SAPC  H11B 5843   0.208   6.143   2.627 -0.4567  1.5232 -1.7145
   69SAPC     P 5844  -0.120   6.161   2.746 -0.1642  0.5636 -0.3434
   69SAPC   O13 5845  -0.208   6.279   2.728  0.7056  0.2795 -0.7756
   69SAPC   O14 5846  -0.163   6.027   2.691 -0.0637  1.0550  0.1514
   69SAPC   O12 5847   0.014   6.201   2.681  0.3958 -0.4213  0.0521
   69SAPC   O11 5848  -0.077   6.139   2.901 -0.0688  0.2175  0.4329
   69SAPC    C1 5849  -0.187   6.102   2.989 -0.5505  0.4625 -1.0616
   69SAPC    HA 5850  -0.226   6.190   3.045 -0.3208 -0.2070  0.1917
   69SAPC    HB 5851  -0.266   6.042   2.940  0.9231 -1.5357 -1.0978
   69SAPC    C2 5852  -0.124   6.006   3.097  1.0532 -0.1848  0.3389
   69SAPC    HS 5853  -0.203   5.940   3.139  0.2800 -2.0674 -3.6079
   69SAPC   O21 5854  -0.060   6.083   3.201 -0.7603 -0.1270 -0.1107
   69SAPC   C21 5855  -0.140   6.155   3.282  0.1253  0.3546 -0.5163
   69SAPC   O22 5856  -0.262   6.138   3.282  0.1259 -0.4296  0.0781
   69SAPC   C22 5857  -0.059   6.253   3.365  0.0447 -0.2582  0.0414
   69SAPC   H2R 5858   0.051   6.237   3.365  0.1048  0.1323 -0.0142
   69SAPC   H2S 5859  -0.068   6.353   3.316 -1.4462 -0.2739  0.2541
   69SAPC    C3 5860  -0.021   5.908   3.035 -0.5158  0.8551  0.2055
   69SAPC    HX 5861   0.071   5.969   3.022  0.4413  0.0114  2.4705
   69SAPC    HY 5862  -0.064   5.878   2.936 -0.7398  1.4346  0.1247
   69SAPC   O31 5863   0.009   5.795   3.125  0.4368  0.1429 -0.2303
   69SAPC   C31 5864   0.112   5.723   3.090  0.2832 -0.8377  0.0189
   69SAPC   O32 5865   0.189   5.744   2.998  0.4661 -0.1216 -0.1061
   69SAPC   C32 5866   0.111   5.619   3.199 -0.3198  0.5849 -0.4521
   69SAPC   H2X 5867   0.031   5.549   3.168  0.4790  0.7340 -3.0590
   69SAPC   H2Y 5868   0.091   5.654   3.303  1.8509 -0.1751  0.2922
   69SAPC   C23 5869  -0.107   6.262   3.507  0.0555 -0.1121  0.2885
   69SAPC   H3R 5870  -0.097   6.174   3.575  0.4208 -0.5236 -0.2837
   69SAPC   H3S 5871  -0.214   6.289   3.517 -0.9144 -2.4439 -2.3860
   69SAPC   C24 5872  -0.026   6.386   3.566 -0.1762  0.1748 -0.0587
   69SAPC   H4R 5873  -0.042   6.474   3.499 -0.2577 -0.8331 -1.3966
   69SAPC   H4S 5874   0.083   6.365   3.562  0.0418  1.4021 -0.9556
   69SAPC   C25 5875  -0.076   6.416   3.706  0.1155 -0.2435 -0.2982
   69SAPC   H5R 5876  -0.161   6.486   3.702 -0.4614 -0.9484 -0.5580
   69SAPC   C26 5877  -0.022   6.390   3.824 -0.3184 -0.4096 -0.1748
   69SAPC   H6R 5878  -0.071   6.412   3.920  1.1327 -0.2318  0.5377
   69SAPC   C27 5879   0.105   6.312   3.844 -0.0853 -0.9201 -0.0551
   69SAPC   H7R 5880   0.173   6.370   3.909 -1.7096  1.8742 -0.6961
   69SAPC   H7S 5881   0.156   6.304   3.745  0.1513 -1.4783  0.1120
   69SAPC   C28 5882   0.080   6.171   3.895  0.3551  0.0703  0.1090
   69SAPC   H8R 5883  -0.002   6.112   3.852  0.8087 -0.5992  0.1348
   69SAPC   C29 5884   0.144   6.127   4.007 -1.0974  0.4891  0.1002
   69SAPC   H9R 5885   0.117   6.023   4.033  1.1781 -0.6308 -1.6137
   69SAPC  C210 5886   0.269   6.186   4.065 -0.2759  0.3860 -0.1436
   69SAPC  H10R 5887   0.236   6.276   4.122  1.7995  0.4470  1.0569
   69SAPC  H10S 5888   0.342   6.210   3.984 -0.4616 -1.7794 -1.0225
   69SAPC  C211 5889   0.337   6.082   4.162  0.1092 -0.7418 -0.7863
   69SAPC  H11R 5890   0.315   5.980   4.128 -1.4289  0.1011 -2.5544
   69SAPC  C212 5891   0.443   6.109   4.239 -1.0732 -0.1501  0.3599
   69SAPC  H12R 5892   0.474   6.028   4.307 -4.7685 -1.2494  0.9570
   69SAPC  C213 5893   0.526   6.240   4.250  0.0748 -0.7761  0.1514
   69SAPC  H13R 5894   0.517   6.284   4.351 -1.4817  0.8894 -0.6594
   69SAPC  H13S 5895   0.482   6.314   4.180  0.4011  0.6487  1.3981
   69SAPC  C214 5896   0.672   6.237   4.221  0.3150  0.0125 -0.4477
   69SAPC  H14R 5897   0.698   6.249   4.115  4.1745 -0.0859  0.3237
   69SAPC  C215 5898   0.775   6.223   4.305 -0.3318  0.3839  0.3081
   69SAPC  H15R 5899   0.873   6.216   4.256 -1.8695 -0.5271 -2.9698
   69SAPC  C216 5900   0.768   6.218   4.457 -0.0638  0.1519 -0.0872
   69SAPC  H16R 5901   0.846   6.150   4.500 -0.4666 -0.4437 -0.2827
   69SAPC  H16S 5902   0.667   6.179   4.481  0.6914 -0.8696  1.6600
   69SAPC  C217 5903   0.796   6.357   4.512  0.1926 -1.0943  0.1154
   69SAPC  H17R 5904   0.739   6.436   4.459  1.0791 -0.7562 -0.3420
   69SAPC  H17S 5905   0.900   6.384   4.487  0.4129 -1.6189  0.4463
   69SAPC  C218 5906   0.771   6.373   4.664 -1.0233  0.0649 -0.6511
   69SAPC  H18R 5907   0.764   6.481   4.690 -1.0584 -0.5352  2.1108
   69SAPC  H18S 5908   0.852   6.326   4.724 -0.7638  1.0112 -0.2483
   69SAPC  C219 5909   0.638   6.326   4.721  0.9263 -0.0402 -0.5404
   69SAPC  H19R 5910   0.629   6.336   4.831  1.5405  0.2480 -0.5107
   69SAPC  H19S 5911   0.623   6.218   4.697 -0.0374  0.2391 -1.2799
   69SAPC  C220 5912   0.519   6.395   4.661  0.9474 -0.4444 -0.0652
   69SAPC  H20R 5913   0.503   6.375   4.553 -1.8588  0.2192  0.1448
   69SAPC  H20S 5914   0.535   6.504   4.674  1.2256 -0.1587 -2.4056
   69SAPC  H20T 5915   0.426   6.360   4.711  1.5710 -1.3555  0.4876
   69SAPC   C33 5916   0.247   5.544   3.227 -0.2627  0.8102 -0.6447
   69SAPC   H3X 5917   0.326   5.620   3.249 -0.6167  0.9706  0.0918
   69SAPC   H3Y 5918   0.283   5.483   3.141  0.3477  0.5191 -0.1890
   69SAPC   C34 5919   0.247   5.439   3.343 -0.3899  0.1905  0.1717
   69SAPC   H4X 5920   0.247   5.490   3.442  1.1988 -1.5495  1.1125
   69SAPC   H4Y 5921   0.338   5.376   3.341  1.2411  2.4832 -1.3625
   69SAPC   C35 5922   0.127   5.344   3.342 -0.0941 -0.0360 -0.1629
   69SAPC   H5X 5923   0.110   5.299   3.241 -0.5904  1.6519 -0.8668
   69SAPC   H5Y 5924   0.035   5.400   3.372 -0.7999 -1.9176  1.3845
   69SAPC   C36 5925   0.137   5.226   3.441 -0.3887  0.4114 -0.2403
   69SAPC   H6X 5926   0.225   5.159   3.432 -0.4547 -0.0712  2.1117
   69SAPC   H6Y 5927   0.055   5.156   3.412  0.5013 -0.7287 -0.0508
   69SAPC   C37 5928   0.112   5.241   3.593 -0.6917  0.4669  0.1905
   69SAPC   H7X 5929   0.172   5.319   3.646 -0.7442  0.7758 -0.1941
   69SAPC   H7Y 5930   0.132   5.143   3.641 -0.7572  0.7699  0.8519
   69SAPC   C38 5931  -0.038   5.268   3.623 -0.2188 -0.0159  0.4812
   69SAPC   H8X 5932  -0.069   5.357   3.564  0.8057 -0.2563 -0.4615
   69SAPC   H8Y 5933  -0.049   5.291   3.731  1.4627  0.6852  0.5438
   69SAPC   C39 5934  -0.129   5.144   3.594  0.2693 -0.4357 -0.6881
   69SAPC   H9X 5935  -0.091   5.046   3.631 -2.1263 -1.2476 -0.1946
   69SAPC   H9Y 5936  -0.126   5.144   3.483 -0.9413  0.1683 -0.7385
   69SAPC  C310 5937  -0.270   5.173   3.637 -0.6071  0.2452 -0.2533
   69SAPC  H10X 5938  -0.344   5.096   3.608  1.3684 -1.3713 -1.3335
   69SAPC  H10Y 5939  -0.298   5.268   3.585  0.4704  1.3340  1.0637
   69SAPC  C311 5940  -0.279   5.181   3.787 -0.0440 -0.3686  0.5190
   69SAPC  H11X 5941  -0.384   5.208   3.811 -0.2038 -0.1258 -0.4081
   69SAPC  H11Y 5942  -0.211   5.260   3.825  0.1389 -0.7720  1.0483
   69SAPC  C312 5943  -0.256   5.051   3.857  0.1759  0.6154  0.4965
   69SAPC  H12X 5944  -0.154   5.012   3.838 -0.3972 -0.8474  0.3306
   69SAPC  H12Y 5945  -0.342   4.985   3.831 -0.2461  0.7087  1.6021
   69SAPC  C313 5946  -0.261   5.065   4.013  0.2243 -0.8299 -0.1679
   69SAPC  H13X 5947  -0.360   5.110   4.034 -0.3587 -2.8113  1.6803
   69SAPC  H13Y 5948  -0.183   5.136   4.049 -0.3844 -0.7338  0.9788
   69SAPC  C314 5949  -0.244   4.927   4.081  0.1222  0.2557 -0.6260
   69SAPC  H14X 5950  -0.139   4.893   4.075 -0.0931 -0.6990  0.6527
   69SAPC  H14Y 5951  -0.297   4.854   4.016 -1.0251  1.7286 -1.4299
   69SAPC  C315 5952  -0.277   4.926   4.233  0.0971  0.7251  0.6114
   69SAPC  H15X 5953  -0.265   4.824   4.275 -1.7559  0.8406  1.5315
   69SAPC  H15Y 5954  -0.380   4.963   4.251 -0.6165 -1.8869  2.5246
   69SAPC  C316 5955  -0.187   5.025   4.304 -0.3483  0.3659  0.0516
   69SAPC  H16X 5956  -0.222   5.126   4.271 -2.7214 -0.1376  0.8562
   69SAPC  H16Y 5957  -0.081   5.029   4.271 -0.1436  2.4168  0.7792
   69SAPC  C317 5958  -0.195   5.018   4.457  0.0345  0.9916 -0.4174
   69SAPC  H17X 5959  -0.110   5.077   4.496 -0.2571  2.0972 -1.3913
   69SAPC  H17Y 5960  -0.180   4.914   4.493  1.2865  1.1588 -0.4437
   69SAPC  C318 5961  -0.327   5.062   4.526 -0.1080  0.1390 -0.5732
   69SAPC  H18X 5962  -0.334   5.004   4.621 -3.3709  1.3656  0.1036
   69SAPC  H18Y 5963  -0.412   5.030   4.462  1.4354 -2.3699 -1.4847
   69SAPC  H18Z 5964  -0.329   5.172   4.542 -2.8918 -0.0567  1.2834
   70SAPC     N 5965   1.097   1.148   2.462 -0.0241 -0.4025 -0.0550
   70SAPC   C12 5966   1.010   1.228   2.559  0.3889  0.8128 -0.2403
   70SAPC  H12A 5967   0.923   1.263   2.505  0.6283  0.2024 -1.0351
   70SAPC  H12B 5968   1.077   1.309   2.584  1.1760  0.2187 -0.3766
   70SAPC   C13 5969   1.219   1.104   2.541  0.1731 -0.3780 -0.3031
   70SAPC  H13A 5970   1.265   1.185   2.595  0.3265 -1.5360  1.3594
   70SAPC  H13B 5971   1.189   1.036   2.619  0.1072 -0.5359 -0.4636
   70SAPC  H13C 5972   1.297   1.055   2.484  0.4692 -0.2353 -0.0234
   70SAPC   C14 5973   1.025   1.022   2.408  0.2718  0.1692  0.7663
   70SAPC  H14A 5974   0.932   1.049   2.360  0.3944  1.7513  1.3589
   70SAPC  H14B 5975   1.086   0.971   2.335 -1.3589 -1.4941  0.4874
   70SAPC  H14C 5976   0.995   0.959   2.490  1.2702 -1.7465 -0.2540
   70SAPC   C15 5977   1.130   1.232   2.348 -0.3076 -0.2004  0.1434
   70SAPC  H15A 5978   1.202   1.308   2.377  2.3807 -2.0736 -1.2209
   70SAPC  H15B 5979   1.174   1.180   2.264 -0.0750  0.3850 -0.1037
   70SAPC  H15C 5980   1.041   1.281   2.312  0.8429  0.0255 -2.6524
   70SAPC   C11 5981   0.951   1.159   2.682 -0.3578 -0.6572  0.7740
   70SAPC  H11A 5982   0.897   1.236   2.741  0.1092 -1.3817  2.1979
   70SAPC  H11B 5983   1.045   1.134   2.736 -1.0064 -3.1544  0.8399
   70SAPC     P 5984   0.822   0.943   2.754  0.1937 -0.0110  0.2583
   70SAPC   O13 5985   0.741   0.847   2.672  0.2575 -0.1718 -0.5118
   70SAPC   O14 5986   0.943   0.894   2.821 -0.5787 -0.1010  0.0528
   70SAPC   O12 5987   0.864   1.056   2.650 -0.1043  0.2924 -0.1993
   70SAPC   O11 5988   0.734   1.024   2.847  0.4165  0.5391 -0.1745
   70SAPC    C1 5989   0.623   0.950   2.908  0.5080  0.8089  0.0824
   70SAPC    HA 5990   0.541   0.921   2.838  1.1128  0.9051 -0.6844
   70SAPC    HB 5991   0.666   0.861   2.959 -0.0743  0.5265  0.0949
   70SAPC    C2 5992   0.554   1.037   3.009  0.4741  0.1958 -0.0792
   70SAPC    HS 5993   0.518   1.129   2.957 -2.7547 -0.3680  0.9077
   70SAPC   O21 5994   0.653   1.075   3.110  0.0821 -0.6587 -0.1466
   70SAPC   C21 5995   0.608   1.179   3.186  0.2307  1.1262  0.0832
   70SAPC   O22 5996   0.506   1.246   3.157 -0.3518 -0.7186 -0.1273
   70SAPC   C22 5997   0.690   1.198   3.315  0.1151 -0.5459 -0.0346
   70SAPC   H2R 5998   0.671   1.110   3.380  0.4750 -2.0071 -1.8044
   70SAPC   H2S 5999   0.792   1.200   3.271  0.0299  0.3596 -0.1960
   70SAPC    C3 6000   0.426   0.972   3.071 -0.1368 -0.0654 -0.2212
   70SAPC    HX 6001   0.353   0.944   2.992 -0.7872 -1.8676  0.9668
   70SAPC    HY 6002   0.372   1.050   3.129 -0.8227  1.2436 -2.4822
   70SAPC   O31 6003   0.454   0.849   3.145  0.7062 -0.1354 -0.0736
   70SAPC   C31 6004   0.477   0.864   3.272 -0.1748  0.7756  0.3170
   70SAPC   O32 6005   0.474   0.970   3.329 -0.3949 -0.2067  0.6761
   70SAPC   C32 6006   0.522   0.733   3.326  0.1404  0.2120  0.5463
   70SAPC   H2X 6007   0.626   0.719   3.289  0.1078 -0.2563  0.6340
   70SAPC   H2Y 6008   0.457   0.653   3.285 -1.9128  1.2366  1.6676
   70SAPC   C23 6009   0.667   1.329   3.388 -0.0185 -0.6538  0.6595
   70SAPC   H3R 6010   0.660   1.319   3.498 -4.2754 -0.9007  0.5294
   70SAPC   H3S 6011   0.574   1.377   3.351  1.3982  1.5499 -0.2479
   70SAPC   C24 6012   0.790   1.427   3.355  0.4573 -0.0268 -0.1575
   70SAPC   H4R 6013   0.743   1.518   3.397  0.4502 -1.7988  4.1147
   70SAPC   H4S 6014   0.799   1.432   3.244  2.6151 -0.2090 -0.0313
   70SAPC   C25 6015   0.925   1.403   3.406  0.0101  0.3605  0.3130
   70SAPC   H5R 6016   1.009   1.379   3.339 -0.1696  0.9972 -0.1503
   70SAPC   C26 6017   0.964   1.405   3.534  0.7293  0.4197 -0.7151
   70SAPC   H6R 6018   1.070   1.383   3.553  0.3594 -2.3429 -1.4769
   70SAPC   C27 6019   0.887   1.450   3.655  0.1698 -0.2032 -0.0166
   70SAPC   H7R 6020   0.862   1.366   3.724 -3.2556  1.4092  0.9623
   70SAPC   H7S 6021   0.792   1.492   3.617 -0.2753  0.8449  2.0927
   70SAPC   C28 6022   0.957   1.555   3.740  0.6082 -0.5085 -0.1423
   70SAPC   H8R 6023   1.043   1.599   3.688 -0.8579  0.2333 -2.0489
   70SAPC   C29 6024   0.914   1.604   3.856 -0.2780  0.2368 -0.2441
   70SAPC   H9R 6025   0.976   1.681   3.904  0.1310 -0.3985  0.2788
   70SAPC  C210 6026   0.791   1.574   3.934  0.2515 -0.3076  0.4036
   70SAPC  H10R 6027   0.729   1.501   3.879  1.6523  0.8347 -2.9653
   70SAPC  H10S 6028   0.723   1.661   3.948  0.1033 -0.2188 -0.8179
   70SAPC  C211 6029   0.838   1.509   4.065 -0.0601  0.0764 -0.2725
   70SAPC  H11R 6030   0.916   1.431   4.056 -1.0119 -0.9747  0.3228
   70SAPC  C212 6031   0.781   1.517   4.182  0.1119 -0.3779  0.9500
   70SAPC  H12R 6032   0.822   1.460   4.267 -1.2490  2.6155  3.8443
   70SAPC  C213 6033   0.670   1.607   4.228 -0.6150  0.2057 -0.3135
   70SAPC  H13R 6034   0.602   1.546   4.290  1.3962 -1.2814  0.4951
   70SAPC  H13S 6035   0.600   1.620   4.142 -1.3228  0.1430  0.2474
   70SAPC  C214 6036   0.715   1.734   4.295  0.7655 -0.2604  0.8809
   70SAPC  H14R 6037   0.762   1.802   4.222 -0.5065 -1.1982 -0.8813
   70SAPC  C215 6038   0.702   1.768   4.422 -0.6102 -0.4320 -0.0088
   70SAPC  H15R 6039   0.758   1.858   4.451 -1.6398 -0.5174  2.5014
   70SAPC  C216 6040   0.648   1.704   4.549 -0.2678 -0.5372  0.7982
   70SAPC  H16R 6041   0.728   1.680   4.623  2.5652 -0.1562 -1.9197
   70SAPC  H16S 6042   0.603   1.603   4.532 -0.9333 -0.0433 -0.5410
   70SAPC  C217 6043   0.558   1.808   4.620 -0.4127 -0.3399 -0.2089
   70SAPC  H17R 6044   0.503   1.747   4.694  0.2759 -3.5307 -2.1441
   70SAPC  H17S 6045   0.490   1.856   4.546  0.4758  0.8752 -0.2753
   70SAPC  C218 6046   0.638   1.915   4.689  0.6692 -0.1006 -0.4805
   70SAPC  H18R 6047   0.707   1.964   4.617  1.5135 -1.2273 -0.4630
   70SAPC  H18S 6048   0.700   1.875   4.771 -2.2649  0.4133  2.1662
   70SAPC  C219 6049   0.558   2.029   4.755  0.5000  0.7529  0.0383
   70SAPC  H19R 6050   0.632   2.092   4.808  1.7285 -0.0132 -0.7151
   70SAPC  H19S 6051   0.486   1.977   4.822  1.1542 -0.8916 -0.4678
   70SAPC  C220 6052   0.467   2.109   4.657 -0.3166 -0.2524 -0.7221
   70SAPC  H20R 6053   0.387   2.155   4.719  0.4436 -0.4873  0.4704
   70SAPC  H20S 6054   0.413   2.038   4.592 -0.7806 -0.3792 -0.2104
   70SAPC  H20T 6055   0.522   2.186   4.599  0.4525  0.6367  1.0906
   70SAPC   C33 6056   0.528   0.736   3.481  0.4551  0.3840  0.4601
   70SAPC   H3X 6057   0.425   0.758   3.516  0.0842 -2.0239  1.1085
   70SAPC   H3Y 6058   0.599   0.811   3.520 -1.1321  1.8599  0.6266
   70SAPC   C34 6059   0.556   0.602   3.547 -0.5703  0.1881 -0.1620
   70SAPC   H4X 6060   0.651   0.551   3.519 -0.5357  0.5476 -0.7079
   70SAPC   H4Y 6061   0.477   0.527   3.524 -2.2119  1.0311  2.2399
   70SAPC   C35 6062   0.550   0.613   3.699  0.0838 -0.2729 -0.0971
   70SAPC   H5X 6063   0.463   0.676   3.725  1.0420  1.3917 -0.7653
   70SAPC   H5Y 6064   0.640   0.671   3.728 -1.5559  1.2803  2.2462
   70SAPC   C36 6065   0.538   0.477   3.760  0.6505 -0.1886 -0.2176
   70SAPC   H6X 6066   0.635   0.430   3.731  0.4946 -0.8053  0.2469
   70SAPC   H6Y 6067   0.452   0.424   3.715  0.8239 -0.7411  0.0968
   70SAPC   C37 6068   0.517   0.474   3.914 -0.2528 -0.0859  0.4773
   70SAPC   H7X 6069   0.409   0.485   3.935 -0.2418  0.7126  0.1391
   70SAPC   H7Y 6070   0.549   0.376   3.956  3.0437 -0.0823 -1.5701
   70SAPC   C38 6071   0.583   0.580   3.988 -0.1204 -0.1686  0.3012
   70SAPC   H8X 6072   0.545   0.677   3.950  0.5200 -0.3234 -0.7919
   70SAPC   H8Y 6073   0.691   0.571   3.965 -0.1954  1.7758 -1.0033
   70SAPC   C39 6074   0.573   0.578   4.148 -1.0597  0.4192 -0.3240
   70SAPC   H9X 6075   0.608   0.675   4.189 -1.6275  1.0862 -1.3868
   70SAPC   H9Y 6076   0.633   0.489   4.178 -0.1642 -0.1532 -3.4498
   70SAPC  C310 6077   0.432   0.558   4.192  0.0796  0.4059  0.7225
   70SAPC  H10X 6078   0.388   0.463   4.157 -1.2254  0.9017  0.9564
   70SAPC  H10Y 6079   0.364   0.643   4.167  0.0446  0.1353 -0.1395
   70SAPC  C311 6080   0.426   0.548   4.343  0.2545 -0.1841 -0.2869
   70SAPC  H11X 6081   0.479   0.637   4.383  4.0751 -1.8959 -1.0736
   70SAPC  H11Y 6082   0.490   0.470   4.390 -0.9555 -0.7553  0.4827
   70SAPC  C312 6083   0.281   0.522   4.388  0.2577  0.1632  0.4936
   70SAPC  H12X 6084   0.252   0.420   4.354 -0.9876  0.4840  0.5555
   70SAPC  H12Y 6085   0.219   0.599   4.339  0.1342 -0.1802  0.1000
   70SAPC  C313 6086   0.281   0.520   4.540  0.2999 -0.2750 -0.0929
   70SAPC  H13X 6087   0.310   0.625   4.561 -0.0780  0.3927 -2.5728
   70SAPC  H13Y 6088   0.357   0.447   4.577  0.8324  0.8564  1.0796
   70SAPC  C314 6089   0.149   0.496   4.612  0.0106  0.1525  0.1262
   70SAPC  H14X 6090   0.078   0.577   4.588  0.6065  1.9528  3.6840
   70SAPC  H14Y 6091   0.164   0.507   4.722  1.6770 -1.2300  0.0809
   70SAPC  C315 6092   0.106   0.351   4.598 -0.7154  0.1816  0.4302
   70SAPC  H15X 6093   0.193   0.284   4.613  0.5128  1.5232 -0.4337
   70SAPC  H15Y 6094   0.084   0.343   4.489  1.2867  0.1790 -0.0101
   70SAPC  C316 6095  -0.017   0.312   4.682 -0.0733 -0.1081  0.1984
   70SAPC  H16X 6096  -0.054   0.208   4.667  2.2821 -0.9398 -0.3685
   70SAPC  H16Y 6097  -0.099   0.378   4.648 -1.5375 -0.7873  2.2166
   70SAPC  C317 6098   0.004   0.341   4.831  0.2664 -0.0212 -0.3359
   70SAPC  H17X 6099   0.009   0.451   4.847  3.1648  0.3508 -2.9073
   70SAPC  H17Y 6100   0.110   0.320   4.854  0.5979  1.7074 -0.0812
   70SAPC  C318 6101  -0.102   0.288   4.926  0.4359  0.9206 -0.8459
   70SAPC  H18X 6102  -0.079   0.181   4.947 -2.0477 -0.2506 -3.4009
   70SAPC  H18Y 6103  -0.201   0.299   4.877 -0.1440 -1.3194 -0.2827
   70SAPC  H18Z 6104  -0.087   0.342   5.022  0.1410 -3.5545  2.0518
   71SAPC     N 6105   5.688   4.638   2.764  0.0056 -0.7588  0.4456
   71SAPC   C12 6106   5.768   4.703   2.868  0.1726  0.1150  0.4290
   71SAPC  H12A 6107   5.716   4.699   2.963 -0.8105  1.1670 -0.0465
   71SAPC  H12B 6108   5.776   4.809   2.848  0.3032  0.4428  2.0345
   71SAPC   C13 6109   5.541   4.666   2.788  0.5723  0.6299  0.3661
   71SAPC  H13A 6110   5.498   4.764   2.771 -1.8818 -0.1515  1.6279
   71SAPC  H13B 6111   5.478   4.604   2.726 -1.1490  3.1001 -0.5323
   71SAPC  H13C 6112   5.512   4.632   2.886 -0.1763 -2.2998 -0.7652
   71SAPC   C14 6113   5.721   4.692   2.627 -0.5052  0.0795 -0.0832
   71SAPC  H14A 6114   5.729   4.800   2.626 -1.9287  0.1955 -0.5390
   71SAPC  H14B 6115   5.815   4.650   2.594 -0.9789 -0.3496 -0.9081
   71SAPC  H14C 6116   5.655   4.654   2.551 -0.8046 -1.9949  1.1519
   71SAPC   C15 6117   5.698   4.488   2.763  0.4879  0.6276  0.1258
   71SAPC  H15A 6118   5.697   4.445   2.861 -0.9518 -2.5230 -1.1453
   71SAPC  H15B 6119   5.616   4.447   2.706 -0.3417 -0.1129  1.8221
   71SAPC  H15C 6120   5.789   4.449   2.721 -0.0821  1.6617 -2.2687
   71SAPC   C11 6121   5.915   4.652   2.880 -0.4102  0.0745  0.3498
   71SAPC  H11A 6122   5.904   4.542   2.880  0.8860 -0.1291 -2.3351
   71SAPC  H11B 6123   5.957   4.701   2.971  0.0786  0.6474 -0.1707
   71SAPC     P 6124   6.044   4.833   2.748 -0.0601 -0.0781 -0.0686
   71SAPC   O13 6125   6.160   4.842   2.651  0.4952  0.3153  0.2215
   71SAPC   O14 6126   5.928   4.914   2.704 -0.1387 -0.1946 -0.0784
   71SAPC   O12 6127   5.996   4.677   2.766  0.5667  0.7363 -0.0896
   71SAPC   O11 6128   6.097   4.879   2.898 -0.1384 -0.2994 -1.0434
   71SAPC    C1 6129   6.242   4.858   2.918 -0.3514 -0.2379  0.2868
   71SAPC    HA 6130   6.269   4.753   2.897  3.1118  1.0119 -2.3987
   71SAPC    HB 6131   6.301   4.925   2.852  2.2019 -1.9365  0.7016
   71SAPC    C2 6132   6.289   4.896   3.064  0.5678  0.5477 -0.2917
   71SAPC    HS 6133   6.378   4.839   3.095 -0.4982 -0.7740  0.4211
   71SAPC   O21 6134   6.175   4.881   3.148 -0.4872 -0.1264  0.3408
   71SAPC   C21 6135   6.160   4.756   3.190 -0.0225 -0.8260  0.1284
   71SAPC   O22 6136   6.234   4.667   3.159  0.6152  0.8224 -0.4111
   71SAPC   C22 6137   6.039   4.747   3.286 -0.0970 -0.0225  0.5219
   71SAPC   H2R 6138   5.953   4.744   3.215 -1.6284  0.2689  2.2876
   71SAPC   H2S 6139   6.050   4.644   3.327 -1.4641 -0.2318  0.4160
   71SAPC    C3 6140   6.326   5.045   3.079  0.3157 -0.1262  0.0425
   71SAPC    HX 6141   6.245   5.107   3.035 -1.4015 -1.2707  1.4648
   71SAPC    HY 6142   6.411   5.066   3.010  0.8888 -1.5099  0.2993
   71SAPC   O31 6143   6.368   5.089   3.209  0.0653  0.3529 -0.0043
   71SAPC   C31 6144   6.277   5.145   3.284  0.6565  0.3185 -0.1708
   71SAPC   O32 6145   6.158   5.160   3.256  0.1822 -0.3207  0.8779
   71SAPC   C32 6146   6.346   5.191   3.405 -0.5709  0.5283 -0.1646
   71SAPC   H2X 6147   6.447   5.236   3.398  0.6896 -1.9512  0.9240
   71SAPC   H2Y 6148   6.357   5.101   3.470  3.2139  0.9359 -0.0123
   71SAPC   C23 6149   6.019   4.863   3.379 -0.3894  0.1263 -0.3172
   71SAPC   H3R 6150   5.919   4.843   3.425  0.9154 -1.0809  2.1748
   71SAPC   H3S 6151   6.023   4.960   3.324  0.7306 -1.4513 -3.1868
   71SAPC   C24 6152   6.125   4.866   3.488  1.2303  0.0939 -0.2346
   71SAPC   H4R 6153   6.220   4.871   3.431  0.5173 -1.7292 -1.6952
   71SAPC   H4S 6154   6.117   4.772   3.546 -2.4649 -0.0388 -0.7202
   71SAPC   C25 6155   6.117   4.985   3.581  0.0772 -0.3707 -0.3889
   71SAPC   H5R 6156   6.078   5.080   3.541 -0.3587 -0.5202 -0.3303
   71SAPC   C26 6157   6.162   4.984   3.710 -0.3442  0.4190  0.6909
   71SAPC   H6R 6158   6.155   5.074   3.772 -0.9852  1.4931 -0.8740
   71SAPC   C27 6159   6.210   4.860   3.784 -0.2224  0.2010  0.0674
   71SAPC   H7R 6160   6.274   4.798   3.718 -0.8231  2.2861 -2.6413
   71SAPC   H7S 6161   6.121   4.796   3.803 -0.2132  0.3068  0.4907
   71SAPC   C28 6162   6.285   4.884   3.909  0.1139  1.0756  0.5683
   71SAPC   H8R 6163   6.270   4.977   3.965  2.2417 -0.2621  3.6562
   71SAPC   C29 6164   6.362   4.793   3.968  0.0602 -0.9416 -0.8077
   71SAPC   H9R 6165   6.414   4.828   4.058  0.8136 -0.1946 -1.5049
   71SAPC  C210 6166   6.404   4.655   3.929  0.6869 -0.0314  0.1638
   71SAPC  H10R 6167   6.505   4.671   3.885  1.1084  1.7691  1.6699
   71SAPC  H10S 6168   6.339   4.609   3.851 -2.4109 -0.5642  2.8449
   71SAPC  C211 6169   6.434   4.560   4.044  0.3492  0.4327  0.5193
   71SAPC  H11R 6170   6.541   4.534   4.053  0.4066  0.7863  0.8889
   71SAPC  C212 6171   6.350   4.482   4.120  0.2163 -0.0378  0.7754
   71SAPC  H12R 6172   6.384   4.404   4.190 -0.1389 -2.2612 -1.4124
   71SAPC  C213 6173   6.200   4.479   4.095 -0.0512  0.5304  0.8288
   71SAPC  H13R 6174   6.161   4.576   4.058  2.5246  0.9833 -0.9569
   71SAPC  H13S 6175   6.153   4.464   4.195  0.4177 -0.1283  0.9611
   71SAPC  C214 6176   6.152   4.367   4.008 -0.8112  0.2792  0.2373
   71SAPC  H14R 6177   6.149   4.268   4.057 -0.4420  0.6496  1.0262
   71SAPC  C215 6178   6.096   4.382   3.885 -0.0004  0.2308 -0.3999
   71SAPC  H15R 6179   6.065   4.289   3.834  0.7878 -1.8249  2.6066
   71SAPC  C216 6180   6.075   4.501   3.805  0.9969 -0.6195  0.7979
   71SAPC  H16R 6181   6.148   4.513   3.722 -1.1623  0.8895 -1.0323
   71SAPC  H16S 6182   6.075   4.596   3.862 -1.3343  0.3435 -0.6393
   71SAPC  C217 6183   5.932   4.492   3.752 -0.5723  0.0725 -0.1531
   71SAPC  H17R 6184   5.915   4.585   3.694 -0.0899 -0.5750 -1.3613
   71SAPC  H17S 6185   5.862   4.491   3.838  1.0842 -1.4172  1.2542
   71SAPC  C218 6186   5.891   4.376   3.654  0.4129  0.2698  0.2058
   71SAPC  H18R 6187   5.780   4.378   3.657  0.4108 -0.4364  1.3631
   71SAPC  H18S 6188   5.906   4.268   3.675  0.5118  0.6896  2.5579
   71SAPC  C219 6189   5.942   4.406   3.512 -0.4492  0.3605 -0.4929
   71SAPC  H19R 6190   5.916   4.511   3.486 -2.9659 -0.0103  0.2684
   71SAPC  H19S 6191   5.876   4.359   3.437  3.0948 -1.0369 -3.0042
   71SAPC  C220 6192   6.090   4.372   3.477  0.2280  0.3786 -0.1283
   71SAPC  H20R 6193   6.105   4.262   3.477  0.7248  0.4410  0.7225
   71SAPC  H20S 6194   6.147   4.421   3.558 -2.7139 -0.4429  2.6456
   71SAPC  H20T 6195   6.124   4.413   3.380  3.0053  0.8301  0.9584
   71SAPC   C33 6196   6.268   5.310   3.467 -0.2148  0.1605 -1.2278
   71SAPC   H3X 6197   6.159   5.288   3.459 -0.0503 -0.4037 -2.1078
   71SAPC   H3Y 6198   6.291   5.401   3.408 -1.5701  0.1953 -1.7381
   71SAPC   C34 6199   6.289   5.328   3.624  0.0015  0.7147  0.7208
   71SAPC   H4X 6200   6.383   5.383   3.644  0.1270  1.2032 -1.0254
   71SAPC   H4Y 6201   6.297   5.231   3.677 -1.0856 -1.7731 -3.1534
   71SAPC   C35 6202   6.179   5.406   3.690 -0.1217 -0.1570 -0.1705
   71SAPC   H5X 6203   6.083   5.358   3.661 -0.7059  0.2831  0.9497
   71SAPC   H5Y 6204   6.191   5.507   3.646  2.2399  0.3082  1.3357
   71SAPC   C36 6205   6.193   5.431   3.844  0.1967  0.9769  0.0584
   71SAPC   H6X 6206   6.175   5.331   3.890 -0.9268  1.3171  0.3701
   71SAPC   H6Y 6207   6.106   5.492   3.875  0.4796  1.6151 -0.4048
   71SAPC   C37 6208   6.325   5.496   3.889 -0.0319 -0.0095 -0.1889
   71SAPC   H7X 6209   6.310   5.600   3.923 -0.1538  0.1550 -0.7317
   71SAPC   H7Y 6210   6.392   5.514   3.802 -1.2104  2.3955 -0.6731
   71SAPC   C38 6211   6.399   5.406   3.992  0.3299 -0.0564 -0.2088
   71SAPC   H8X 6212   6.417   5.302   3.957 -0.0049 -0.8176  1.7323
   71SAPC   H8Y 6213   6.341   5.398   4.087  0.6309  2.1443  0.2033
   71SAPC   C39 6214   6.534   5.465   4.022  0.2728 -0.2780  0.2740
   71SAPC   H9X 6215   6.518   5.572   4.049 -2.9742  0.7600 -4.4124
   71SAPC   H9Y 6216   6.599   5.485   3.934 -2.4986 -0.6208 -1.9918
   71SAPC  C310 6217   6.615   5.396   4.143  0.2559  0.3416  0.3628
   71SAPC  H10X 6218   6.688   5.328   4.095  0.2461 -0.9576  2.1003
   71SAPC  H10Y 6219   6.546   5.329   4.199 -1.0318  1.5849  0.3214
   71SAPC  C311 6220   6.686   5.484   4.238 -0.4725 -0.2102 -0.2952
   71SAPC  H11X 6221   6.615   5.566   4.263 -1.8458 -1.7110  0.9737
   71SAPC  H11Y 6222   6.775   5.524   4.186 -0.4850  2.9104  1.8552
   71SAPC  C312 6223   6.732   5.401   4.363  0.0648 -0.5693  0.0591
   71SAPC  H12X 6224   6.804   5.319   4.343 -0.7964 -1.1823 -0.5577
   71SAPC  H12Y 6225   6.642   5.357   4.411  0.0930  0.8813  1.5262
   71SAPC  C313 6226   6.802   5.492   4.464 -0.5530  0.2655 -0.7010
   71SAPC  H13X 6227   6.761   5.595   4.467 -1.6125 -0.1736  0.7446
   71SAPC  H13Y 6228   6.907   5.499   4.426 -0.5100  0.6215 -0.5243
   71SAPC  C314 6229   6.805   5.438   4.604 -0.2987  0.3511 -0.6683
   71SAPC  H14X 6230   6.814   5.329   4.623  0.3485  1.0642  4.6279
   71SAPC  H14Y 6231   6.715   5.479   4.654 -1.4514 -2.1532 -0.5342
   71SAPC  C315 6232   6.922   5.481   4.694  0.3559  0.2453  0.7171
   71SAPC  H15X 6233   7.017   5.465   4.638 -1.1634  0.2247 -2.0344
   71SAPC  H15Y 6234   6.924   5.420   4.787  0.2729 -2.8459 -1.1384
   71SAPC  C316 6235   6.906   5.635   4.726  0.1364 -0.2486 -0.4117
   71SAPC  H16X 6236   6.803   5.657   4.762 -1.6202  0.5071 -5.1800
   71SAPC  H16Y 6237   6.910   5.685   4.627 -0.2794  1.5775  0.4453
   71SAPC  C317 6238   7.012   5.692   4.820  0.1806 -1.0468 -0.4561
   71SAPC  H17X 6239   7.114   5.660   4.790  1.7646  2.0430  1.1533
   71SAPC  H17Y 6240   6.991   5.652   4.922 -0.1279 -0.7216 -0.3885
   71SAPC  C318 6241   7.009   5.842   4.813 -0.6517 -0.9148 -0.5060
   71SAPC  H18X 6242   6.903   5.874   4.815 -0.3636  0.0824 -0.7647
   71SAPC  H18Y 6243   7.057   5.859   4.714  0.1111 -2.3571 -0.4155
   71SAPC  H18Z 6244   7.071   5.883   4.895 -2.2304  0.5858 -0.0195
   72SAPC     N 6245   0.194   3.108   2.450  0.5887  0.0561 -0.1256
   72SAPC   C12 6246   0.288   2.990   2.482  0.8879 -0.0656 -0.4390
   72SAPC  H12A 6247   0.369   3.024   2.545 -0.6303 -1.2050  2.2965
   72SAPC  H12B 6248   0.334   2.958   2.389 -2.1231 -0.7575 -1.8199
   72SAPC   C13 6249   0.124   3.153   2.580  0.2173 -0.2236 -0.3999
   72SAPC  H13A 6250   0.195   3.185   2.655 -0.6314 -2.1004  1.3106
   72SAPC  H13B 6251   0.046   3.226   2.565  0.1548  0.7879  3.7483
   72SAPC  H13C 6252   0.075   3.066   2.619 -1.0955 -1.2266 -3.9206
   72SAPC   C14 6253   0.285   3.217   2.409  0.3119 -0.2815  0.6087
   72SAPC  H14A 6254   0.366   3.227   2.480  0.6931 -0.2360  0.1653
   72SAPC  H14B 6255   0.330   3.200   2.313  0.2275  2.7352 -0.0444
   72SAPC  H14C 6256   0.227   3.307   2.401 -1.7282 -1.5139  0.7617
   72SAPC   C15 6257   0.095   3.080   2.344 -0.2345  0.4743 -0.3169
   72SAPC  H15A 6258   0.134   3.044   2.250 -1.5309 -2.5493  0.1880
   72SAPC  H15B 6259   0.030   3.000   2.376 -1.4528  2.6073  3.0718
   72SAPC  H15C 6260   0.041   3.170   2.320  1.0704  1.4465  0.1942
   72SAPC   C11 6261   0.232   2.857   2.545 -0.5448  0.8661 -0.0089
   72SAPC  H11A 6262   0.169   2.883   2.633  0.2307 -0.9036  1.1347
   72SAPC  H11B 6263   0.320   2.794   2.569 -0.8990  0.1930 -0.4335
   72SAPC     P 6264   0.004   2.750   2.463 -0.2029 -0.1704 -0.0242
   72SAPC   O13 6265  -0.084   2.869   2.444  0.2422 -0.2453  0.4103
   72SAPC   O14 6266  -0.029   2.634   2.375  0.1314 -0.3651  0.3057
   72SAPC   O12 6267   0.159   2.789   2.446 -0.0801  0.4732  0.1035
   72SAPC   O11 6268  -0.006   2.706   2.611  1.0509  0.0308 -0.0920
   72SAPC    C1 6269   0.040   2.577   2.650 -0.1164 -0.3770  1.5156
   72SAPC    HA 6270  -0.042   2.536   2.712 -2.2297  1.3603  0.0536
   72SAPC    HB 6271   0.051   2.501   2.569  1.3806  0.1768  1.1654
   72SAPC    C2 6272   0.159   2.574   2.748 -0.2194 -0.5342  0.2434
   72SAPC    HS 6273   0.249   2.609   2.694  1.1762 -2.0134  1.4776
   72SAPC   O21 6274   0.175   2.442   2.801 -0.6097  0.0046  0.1279
   72SAPC   C21 6275   0.292   2.422   2.866 -0.1464  0.4828  0.4003
   72SAPC   O22 6276   0.386   2.504   2.858 -0.0666  0.0195 -0.4327
   72SAPC   C22 6277   0.309   2.284   2.935 -0.3302 -0.0724  0.0630
   72SAPC   H2R 6278   0.210   2.234   2.949 -0.9980 -0.2799 -4.0256
   72SAPC   H2S 6279   0.373   2.219   2.872  0.1835  0.8981 -0.4374
   72SAPC    C3 6280   0.124   2.670   2.866  0.2434  0.2729  0.0952
   72SAPC    HX 6281   0.109   2.774   2.831 -0.6279  0.7341  1.7784
   72SAPC    HY 6282   0.210   2.695   2.932  0.5719  1.8970 -0.8809
   72SAPC   O31 6283  -0.004   2.631   2.928  0.2131  0.4891  0.0695
   72SAPC   C31 6284  -0.011   2.576   3.048  0.4121 -0.2403 -0.1458
   72SAPC   O32 6285   0.088   2.540   3.110  0.3247  0.0668 -0.7948
   72SAPC   C32 6286  -0.156   2.556   3.103 -0.0166  0.1912 -0.1470
   72SAPC   H2X 6287  -0.222   2.503   3.030 -0.8072  0.1686  0.5814
   72SAPC   H2Y 6288  -0.198   2.658   3.101 -1.3954 -0.3618 -1.7480
   72SAPC   C23 6289   0.372   2.315   3.065 -0.7577  0.7760 -0.1069
   72SAPC   H3R 6290   0.328   2.399   3.122  1.3472  1.6862  0.2935
   72SAPC   H3S 6291   0.479   2.345   3.051  0.4817 -2.5085  1.3840
   72SAPC   C24 6292   0.375   2.194   3.156  0.8003  0.3453  0.4436
   72SAPC   H4R 6293   0.419   2.109   3.101  1.0057  1.0900 -0.5815
   72SAPC   H4S 6294   0.271   2.163   3.182  0.6066  0.8419  0.2737
   72SAPC   C25 6295   0.439   2.226   3.288 -0.2503 -0.0279  0.3013
   72SAPC   H5R 6296   0.547   2.209   3.292 -0.5287 -1.8136  1.4974
   72SAPC   C26 6297   0.371   2.268   3.396  0.0140 -0.7102  0.0235
   72SAPC   H6R 6298   0.425   2.271   3.492 -0.7320 -3.9575  0.6609
   72SAPC   C27 6299   0.219   2.281   3.414  0.3400 -0.4276  0.2139
   72SAPC   H7R 6300   0.195   2.197   3.483  0.1662  0.6593  1.5070
   72SAPC   H7S 6301   0.166   2.271   3.317 -0.6133  2.2995  0.3648
   72SAPC   C28 6302   0.175   2.410   3.476  0.5367  0.5746 -0.2290
   72SAPC   H8R 6303   0.133   2.489   3.412 -0.5919  0.6801  0.6146
   72SAPC   C29 6304   0.175   2.444   3.601 -0.0164 -0.0515 -0.2363
   72SAPC   H9R 6305   0.129   2.539   3.631 -0.1061 -0.2616  0.3031
   72SAPC  C210 6306   0.221   2.361   3.724  0.0590  0.3079 -0.1377
   72SAPC  H10R 6307   0.251   2.259   3.694 -1.4794  0.1317 -1.2003
   72SAPC  H10S 6308   0.138   2.346   3.797  0.8755  0.8658  0.9392
   72SAPC  C211 6309   0.336   2.421   3.790 -0.4471  0.3439 -0.1794
   72SAPC  H11R 6310   0.434   2.380   3.765 -0.3345  1.7652 -2.3515
   72SAPC  C212 6311   0.337   2.515   3.884  0.0056  0.2275  0.5794
   72SAPC  H12R 6312   0.436   2.553   3.912 -0.5346  1.5596  0.7312
   72SAPC  C213 6313   0.208   2.585   3.939 -0.4459 -0.0454  0.1391
   72SAPC  H13R 6314   0.186   2.553   4.043  0.6256  1.6425  0.9187
   72SAPC  H13S 6315   0.128   2.543   3.874  0.9335 -0.3288 -1.4464
   72SAPC  C214 6316   0.219   2.731   3.928  0.0963 -0.6045 -0.0503
   72SAPC  H14R 6317   0.297   2.759   4.000 -0.2163 -1.7168  0.7567
   72SAPC  C215 6318   0.154   2.823   3.853 -0.2843  0.1501  0.0824
   72SAPC  H15R 6319   0.187   2.928   3.862 -1.0509  0.4443 -0.4249
   72SAPC  C216 6320   0.056   2.798   3.741  0.1301  0.5536 -0.2866
   72SAPC  H16R 6321  -0.044   2.844   3.756  1.0576  1.9512  2.4604
   72SAPC  H16S 6322   0.047   2.688   3.727  1.3984  0.4653 -0.4668
   72SAPC  C217 6323   0.114   2.863   3.612 -0.9936 -0.0546  0.4859
   72SAPC  H17R 6324   0.221   2.832   3.606 -0.9021  0.5318 -2.2635
   72SAPC  H17S 6325   0.105   2.974   3.610 -1.6217 -0.1141 -1.3763
   72SAPC  C218 6326   0.038   2.814   3.495  0.4402  0.4877 -0.9054
   72SAPC  H18R 6327  -0.068   2.847   3.505 -0.1215 -1.0921 -1.2610
   72SAPC  H18S 6328   0.030   2.703   3.484  0.4191  0.3187  0.5919
   72SAPC  C219 6329   0.091   2.859   3.353  0.1207  0.0546 -0.5858
   72SAPC  H19R 6330   0.113   2.967   3.360  1.1854 -0.2442  1.5791
   72SAPC  H19S 6331   0.005   2.836   3.286  0.3624 -0.6111 -0.6769
   72SAPC  C220 6332   0.216   2.786   3.311  0.2799 -0.4020  0.8486
   72SAPC  H20R 6333   0.296   2.800   3.386 -0.4221 -1.5708  1.8662
   72SAPC  H20S 6334   0.254   2.826   3.215 -0.0022 -1.4243  0.2941
   72SAPC  H20T 6335   0.195   2.679   3.292 -1.1731  0.0805 -0.6033
   72SAPC   C33 6336  -0.167   2.488   3.245 -0.0403  0.9284 -0.6013
   72SAPC   H3X 6337  -0.097   2.530   3.320  0.2511 -0.6792  0.0433
   72SAPC   H3Y 6338  -0.137   2.382   3.235 -0.6565  0.8339 -1.6115
   72SAPC   C34 6339  -0.300   2.513   3.307 -0.1432  0.4136  0.2326
   72SAPC   H4X 6340  -0.363   2.444   3.247  0.7681 -0.5440  0.3366
   72SAPC   H4Y 6341  -0.330   2.619   3.297  1.2397  0.6799 -1.6103
   72SAPC   C35 6342  -0.309   2.484   3.458  0.0036  0.0644  0.1325
   72SAPC   H5X 6343  -0.403   2.523   3.503  0.9837  1.9774  0.6182
   72SAPC   H5Y 6344  -0.226   2.522   3.521  1.3758  0.4409 -1.8230
   72SAPC   C36 6345  -0.301   2.330   3.496 -0.7086 -0.1298  0.4847
   72SAPC   H6X 6346  -0.199   2.296   3.466 -0.9033 -0.2937 -0.0140
   72SAPC   H6Y 6347  -0.373   2.275   3.432 -0.6843  0.3001  0.0830
   72SAPC   C37 6348  -0.312   2.303   3.642  0.6745 -0.3659  0.6362
   72SAPC   H7X 6349  -0.352   2.200   3.655 -1.1867  0.1981 -0.2891
   72SAPC   H7Y 6350  -0.386   2.368   3.694  0.4648 -1.2572  1.4927
   72SAPC   C38 6351  -0.178   2.306   3.720  0.7840 -0.1807  0.1677
   72SAPC   H8X 6352  -0.143   2.409   3.742 -0.4873  0.6996 -1.6335
   72SAPC   H8Y 6353  -0.108   2.245   3.659 -0.6482 -0.0958 -1.6782
   72SAPC   C39 6354  -0.187   2.229   3.853 -0.2488  0.0457 -0.4297
   72SAPC   H9X 6355  -0.231   2.128   3.838  0.4663 -0.2900 -0.3226
   72SAPC   H9Y 6356  -0.266   2.282   3.911  1.2151  0.8576  0.9196
   72SAPC  C310 6357  -0.051   2.211   3.925 -0.0243  0.2572 -0.2782
   72SAPC  H10X 6358  -0.002   2.307   3.950 -0.7595  0.5167  0.2071
   72SAPC  H10Y 6359   0.014   2.159   3.852 -1.1633 -1.5513 -0.0741
   72SAPC  C311 6360  -0.073   2.134   4.060 -0.3845 -0.0024 -0.1598
   72SAPC  H11X 6361   0.032   2.113   4.090 -0.6046 -1.3390 -0.2781
   72SAPC  H11Y 6362  -0.127   2.038   4.043  0.3734 -0.2411 -1.3994
   72SAPC  C312 6363  -0.158   2.215   4.161 -0.5564 -0.1735  0.4060
   72SAPC  H12X 6364  -0.261   2.220   4.120  0.6637 -2.1609 -3.3519
   72SAPC  H12Y 6365  -0.125   2.320   4.179 -0.8724 -0.2807  1.6954
   72SAPC  C313 6366  -0.154   2.141   4.293  0.1293 -0.3188  0.3505
   72SAPC  H13X 6367  -0.051   2.110   4.320  0.2576  0.1333  0.3893
   72SAPC  H13Y 6368  -0.219   2.052   4.284 -1.1368  0.6478 -0.4928
   72SAPC  C314 6369  -0.203   2.230   4.406 -0.5850 -0.7250 -0.0523
   72SAPC  H14X 6370  -0.310   2.259   4.393 -0.1172  0.6539 -0.9700
   72SAPC  H14Y 6371  -0.145   2.323   4.419  0.2352 -1.3755  1.0224
   72SAPC  C315 6372  -0.211   2.147   4.534 -0.4227 -0.2389  0.3495
   72SAPC  H15X 6373  -0.108   2.129   4.572 -0.8664 -1.5277  1.0009
   72SAPC  H15Y 6374  -0.250   2.043   4.520 -0.9846 -0.1697  1.3665
   72SAPC  C316 6375  -0.295   2.218   4.642  0.2387  0.0453 -0.6493
   72SAPC  H16X 6376  -0.402   2.207   4.613  0.6035 -2.5260 -1.2403
   72SAPC  H16Y 6377  -0.284   2.327   4.624  1.6452  0.3029  1.4856
   72SAPC  C317 6378  -0.267   2.179   4.787 -0.5512  0.3321  0.3421
   72SAPC  H17X 6379  -0.160   2.181   4.814 -0.0366 -0.1968 -1.5324
   72SAPC  H17Y 6380  -0.304   2.079   4.820  0.4124 -0.0314  0.3424
   72SAPC  C318 6381  -0.339   2.273   4.887  0.1774 -0.2336 -0.0246
   72SAPC  H18X 6382  -0.445   2.247   4.905 -0.1058 -1.0495 -2.4976
   72SAPC  H18Y 6383  -0.334   2.380   4.857 -0.9264 -0.0479  0.4224
   72SAPC  H18Z 6384  -0.287   2.260   4.984  0.3029  1.2351  0.1270
   73SLPC     N 6385   0.676   4.907   7.054  0.1831  0.0444  0.0326
   73SLPC   C13 6386   0.786   4.893   7.153  0.4689 -0.6767 -0.8858
   73SLPC  H13A 6387   0.861   4.963   7.119  0.3487  1.1258  2.1633
   73SLPC  H13B 6388   0.761   4.929   7.252  1.1941  1.1170 -1.3302
   73SLPC  H13C 6389   0.828   4.794   7.150  0.2618 -0.7405 -1.9551
   73SLPC   C14 6390   0.735   4.860   6.922 -0.8504 -0.1104 -0.2669
   73SLPC  H14A 6391   0.816   4.928   6.900  0.6372 -1.1712  1.6758
   73SLPC  H14B 6392   0.772   4.759   6.926  2.1622  0.7492 -2.5739
   73SLPC  H14C 6393   0.669   4.867   6.836  0.2726  2.4350 -1.0376
   73SLPC   C15 6394   0.634   5.051   7.045  0.9104 -0.0300 -0.0620
   73SLPC  H15A 6395   0.714   5.117   7.013  2.4463 -0.0937  3.1496
   73SLPC  H15B 6396   0.557   5.078   6.975 -1.4773  1.6222  2.9364
   73SLPC  H15C 6397   0.589   5.072   7.141  0.3195 -1.9407  0.1086
   73SLPC   C12 6398   0.546   4.822   7.091 -0.4306 -0.7752 -0.6350
   73SLPC  H12A 6399   0.467   4.852   7.023 -1.3200  1.3096  1.1925
   73SLPC  H12B 6400   0.514   4.853   7.189  1.1570 -1.5192  0.1498
   73SLPC   C11 6401   0.572   4.671   7.101  0.6192 -0.1619 -0.4841
   73SLPC  H11A 6402   0.656   4.664   7.174  0.9310  1.6672 -0.6376
   73SLPC  H11B 6403   0.606   4.611   7.014  1.6313 -0.8307  0.3322
   73SLPC     P 6404   0.319   4.606   7.062  0.3281  0.0940  0.0633
   73SLPC   O13 6405   0.250   4.477   7.073  0.2170 -0.2679  0.0078
   73SLPC   O14 6406   0.232   4.720   7.094  0.7296 -0.1968 -0.1226
   73SLPC   O12 6407   0.450   4.616   7.149  0.4261  0.3981 -0.1739
   73SLPC   O11 6408   0.360   4.627   6.912  0.8190  0.4114  0.3800
   73SLPC    C1 6409   0.428   4.522   6.843  0.2172 -0.2381 -0.2625
   73SLPC    HA 6410   0.530   4.546   6.805  0.4274 -2.5154 -1.3189
   73SLPC    HB 6411   0.453   4.433   6.905 -1.0539 -1.3037 -1.2246
   73SLPC    C2 6412   0.358   4.473   6.713 -0.1488 -0.0507 -1.0180
   73SLPC    HS 6413   0.422   4.391   6.675 -0.7706 -0.7156 -0.6502
   73SLPC   O21 6414   0.339   4.580   6.620  0.0579 -0.1468  0.2130
   73SLPC   C21 6415   0.445   4.634   6.561  0.5147  0.0883 -0.2723
   73SLPC   O22 6416   0.562   4.601   6.576  0.1861 -0.6372  1.0369
   73SLPC   C22 6417   0.400   4.744   6.460  0.1045 -0.1733 -0.1205
   73SLPC   H2R 6418   0.324   4.815   6.499  1.1588  1.1216 -0.3003
   73SLPC   H2S 6419   0.490   4.802   6.428  1.8244 -3.6670 -2.2030
   73SLPC    C3 6420   0.221   4.411   6.739  0.2351  0.0514 -0.6534
   73SLPC    HX 6421   0.137   4.481   6.759 -0.5626 -0.9887 -0.2831
   73SLPC    HY 6422   0.228   4.349   6.832 -0.8095  0.0124 -0.5954
   73SLPC   O31 6423   0.191   4.312   6.633 -0.6994 -0.6034 -0.4144
   73SLPC   C31 6424   0.117   4.362   6.532  0.0226 -0.3155  0.0939
   73SLPC   O32 6425   0.072   4.478   6.528  0.2254  0.4118  0.3462
   73SLPC   C32 6426   0.088   4.255   6.422 -0.3767 -0.4424  0.3441
   73SLPC   H2X 6427   0.007   4.186   6.451 -0.4643 -0.5678 -0.1908
   73SLPC   H2Y 6428   0.179   4.191   6.419 -0.7719 -1.0317  0.8597
   73SLPC   C23 6429   0.328   4.670   6.338 -0.5858  0.4766  0.6401
   73SLPC   H3R 6430   0.224   4.648   6.370 -0.3252 -1.4590  0.2633
   73SLPC   H3S 6431   0.384   4.580   6.305  1.0201  0.9909  1.8792
   73SLPC   C24 6432   0.318   4.760   6.218  0.0477 -0.0052 -0.1073
   73SLPC   H4R 6433   0.416   4.790   6.174 -1.2460  0.1114 -3.1928
   73SLPC   H4S 6434   0.261   4.850   6.250  0.6534  0.0650  0.7987
   73SLPC   C25 6435   0.252   4.681   6.100  0.4517 -0.4376  0.1509
   73SLPC   H5R 6436   0.166   4.626   6.144 -0.1321  1.6822  1.8601
   73SLPC   H5S 6437   0.316   4.605   6.051  0.4390 -0.6354  0.4348
   73SLPC   C26 6438   0.184   4.774   5.990 -0.6647  0.5535 -0.2263
   73SLPC   H6R 6439   0.112   4.836   6.048 -0.3014 -1.1954  2.2886
   73SLPC   H6S 6440   0.135   4.704   5.919  0.1504  1.1749 -1.4310
   73SLPC   C27 6441   0.288   4.860   5.918  0.4103 -0.2693  0.5382
   73SLPC   H7R 6442   0.375   4.791   5.915 -1.2991 -2.8339  3.2960
   73SLPC   H7S 6443   0.315   4.960   5.959  3.6254 -0.7958 -0.0373
   73SLPC   C28 6444   0.259   4.896   5.766 -0.3712  0.3113 -0.2971
   73SLPC   H8R 6445   0.264   4.802   5.707 -1.0359  1.6018 -2.5204
   73SLPC   H8S 6446   0.348   4.955   5.735 -0.1270  1.2576  1.9957
   73SLPC   C29 6447   0.135   4.984   5.741 -0.0482  0.0527 -0.9963
   73SLPC   H9R 6448   0.063   4.972   5.823 -0.6149  2.4039 -1.0761
   73SLPC  C210 6449   0.099   5.052   5.634  0.6780  0.3522  0.1180
   73SLPC  H10R 6450  -0.006   5.083   5.633  0.8603  1.0930 -2.4381
   73SLPC  C211 6451   0.175   5.081   5.508 -0.6781  0.1168 -0.4164
   73SLPC  H11R 6452   0.113   5.046   5.423 -1.0991  0.9681 -0.4689
   73SLPC  H11S 6453   0.272   5.027   5.508 -1.6874 -1.8081 -1.7588
   73SLPC  C212 6454   0.197   5.228   5.475 -0.6173  0.0900 -0.6190
   73SLPC  H12R 6455   0.113   5.292   5.503 -0.6151 -0.6224  1.1958
   73SLPC  C213 6456   0.295   5.282   5.403  0.1186 -0.2108 -0.0319
   73SLPC  H13R 6457   0.281   5.385   5.367 -1.1721 -0.5260 -0.4995
   73SLPC  C214 6458   0.412   5.199   5.347 -1.1080  0.2272  0.6758
   73SLPC  H14R 6459   0.396   5.089   5.342  0.3345  0.0251  0.0599
   73SLPC  H14S 6460   0.505   5.219   5.404 -1.2162 -1.8125  1.6747
   73SLPC  C215 6461   0.458   5.250   5.206 -0.0800 -0.3319 -0.0529
   73SLPC  H15R 6462   0.520   5.168   5.165 -0.8267 -0.6797 -0.5125
   73SLPC  H15S 6463   0.520   5.338   5.234  0.3567 -0.9076  0.8448
   73SLPC  C216 6464   0.343   5.281   5.103  0.4972  0.1881  0.5698
   73SLPC  H16R 6465   0.254   5.331   5.147 -0.6851 -2.9181  1.9501
   73SLPC  H16S 6466   0.301   5.190   5.055 -0.2113  1.8597 -2.2161
   73SLPC  C217 6467   0.392   5.365   4.976  0.5282  0.1054  0.7019
   73SLPC  H17R 6468   0.485   5.321   4.935  0.5768  0.1505  0.7627
   73SLPC  H17S 6469   0.431   5.464   5.008  1.8549  0.8363 -2.7466
   73SLPC  C218 6470   0.280   5.389   4.880  0.3541 -0.7629  0.3997
   73SLPC  H18R 6471   0.300   5.450   4.789  0.2329 -0.2908  0.6874
   73SLPC  H18S 6472   0.193   5.420   4.940 -0.6711 -1.8354 -0.4762
   73SLPC  H18T 6473   0.253   5.290   4.836  2.9538  0.0655 -3.6559
   73SLPC   C33 6474   0.059   4.326   6.288 -0.0420 -0.0539  0.2848
   73SLPC   H3X 6475   0.144   4.397   6.279 -0.2177  0.0303 -0.7971
   73SLPC   H3Y 6476  -0.036   4.384   6.291 -0.8528 -1.2634 -0.7193
   73SLPC   C34 6477   0.061   4.230   6.169  0.0237  0.0265 -0.6461
   73SLPC   H4X 6478  -0.003   4.144   6.200 -1.2445  2.1572  3.2757
   73SLPC   H4Y 6479   0.161   4.180   6.161 -0.8279 -1.7794 -0.5394
   73SLPC   C35 6480   0.018   4.299   6.045  0.9086 -0.1115 -0.2192
   73SLPC   H5X 6481   0.090   4.383   6.044 -0.5582  1.2394  1.6204
   73SLPC   H5Y 6482  -0.076   4.356   6.062 -0.6789 -1.8170 -2.6085
   73SLPC   C36 6483   0.006   4.202   5.927  0.2334 -0.6347  0.1582
   73SLPC   H6X 6484  -0.077   4.137   5.960 -1.6661  1.1089 -0.9171
   73SLPC   H6Y 6485   0.097   4.142   5.907  0.3881 -0.1550 -0.6301
   73SLPC   C37 6486  -0.018   4.284   5.796  0.1736 -0.2404 -0.3453
   73SLPC   H7X 6487  -0.106   4.346   5.824  2.3258  1.4234  3.4465
   73SLPC   H7Y 6488  -0.038   4.212   5.713 -2.6222  1.1771 -1.0361
   73SLPC   C38 6489   0.092   4.390   5.766  0.0727  0.1067 -0.6581
   73SLPC   H8X 6490   0.067   4.468   5.840  2.4180 -0.1335  0.4748
   73SLPC   H8Y 6491   0.064   4.429   5.665 -0.2293  2.0311  0.1294
   73SLPC   C39 6492   0.239   4.353   5.761  1.0406  0.2152 -0.0279
   73SLPC   H9X 6493   0.254   4.279   5.679  1.2272 -1.2253  1.2545
   73SLPC   H9Y 6494   0.260   4.300   5.856 -0.1796 -0.8958 -0.3457
   73SLPC  C310 6495   0.330   4.470   5.730  0.4532  0.3442  0.5431
   73SLPC  H10X 6496   0.319   4.548   5.809  1.5175  0.2342  0.8214
   73SLPC  H10Y 6497   0.311   4.514   5.630 -0.9147 -0.0787  0.5984
   73SLPC  C311 6498   0.485   4.420   5.712  0.7777 -0.0884  0.0094
   73SLPC  H11X 6499   0.482   4.375   5.610  2.7586 -1.0744  0.3397
   73SLPC  H11Y 6500   0.515   4.359   5.799  0.2514  0.0222  0.2766
   73SLPC  C312 6501   0.574   4.540   5.714 -0.4753  0.4570 -0.0649
   73SLPC  H12X 6502   0.551   4.624   5.644  0.0382  1.5386  1.0240
   73SLPC  H12Y 6503   0.675   4.503   5.685  0.7472  1.9600  1.9489
   73SLPC  C313 6504   0.605   4.588   5.858  0.5897  0.2976  0.1090
   73SLPC  H13X 6505   0.630   4.497   5.917 -1.4849 -0.3934  0.0282
   73SLPC  H13Y 6506   0.510   4.629   5.900  1.4450  4.1951 -1.3701
   73SLPC  C314 6507   0.714   4.703   5.861 -0.0386 -0.3938  0.6126
   73SLPC  H14X 6508   0.676   4.797   5.815  0.0254 -1.3261 -1.4608
   73SLPC  H14Y 6509   0.787   4.673   5.784 -1.6232  0.3431 -1.2758
   73SLPC  C315 6510   0.774   4.743   5.991 -1.1140 -0.0101 -0.0225
   73SLPC  H15X 6511   0.884   4.731   5.985 -0.8374  2.3366 -0.6815
   73SLPC  H15Y 6512   0.748   4.671   6.071  0.0810  0.6644  1.0016
   73SLPC  C316 6513   0.746   4.892   6.016  0.1019 -0.1450  0.3432
   73SLPC  H16X 6514   0.643   4.934   6.009  0.7010  1.5125  1.0004
   73SLPC  H16Y 6515   0.797   4.949   5.935  0.9893  1.7445  2.1356
   73SLPC  C317 6516   0.804   4.952   6.150 -0.1520  0.1874 -0.3629
   73SLPC  H17X 6517   0.790   5.062   6.144  0.0786  0.1883 -0.9700
   73SLPC  H17Y 6518   0.911   4.923   6.154  0.3134  1.2724 -2.9110
   73SLPC  C318 6519   0.729   4.895   6.271  0.1850  0.0673 -0.3271
   73SLPC  H18X 6520   0.792   4.880   6.362 -2.4382  0.1171  1.5889
   73SLPC  H18Y 6521   0.682   4.802   6.235  2.1948 -0.4393 -1.8132
   73SLPC  H18Z 6522   0.645   4.963   6.298 -0.1893 -0.4498 -0.1875
   74SLPC     N 6523   6.272   5.531   6.955 -0.5550  0.3317  0.7003
   74SLPC   C13 6524   6.218   5.672   6.942 -0.6190 -0.3074  0.9075
   74SLPC  H13A 6525   6.260   5.728   6.859 -2.7180  0.6825  0.4550
   74SLPC  H13B 6526   6.116   5.653   6.914  0.0139 -1.8186 -0.5650
   74SLPC  H13C 6527   6.228   5.725   7.035  2.8643 -1.4550  1.3274
   74SLPC   C14 6528   6.201   5.453   7.061 -0.5677 -0.2339  0.6870
   74SLPC  H14A 6529   6.214   5.502   7.156  0.7504 -1.0550  0.9451
   74SLPC  H14B 6530   6.095   5.447   7.040 -0.2326  0.4981 -1.5541
   74SLPC  H14C 6531   6.243   5.354   7.071 -1.0546 -0.3002  2.4907
   74SLPC   C15 6532   6.417   5.546   6.986 -0.2505 -0.1973 -0.1062
   74SLPC  H15A 6533   6.446   5.471   7.058  2.2795  0.4281 -0.4004
   74SLPC  H15B 6534   6.481   5.542   6.899  1.0955 -0.8135  0.8918
   74SLPC  H15C 6535   6.429   5.641   7.036  2.8238 -0.3484 -0.3848
   74SLPC   C12 6536   6.256   5.453   6.816 -0.9418  0.1659 -0.0660
   74SLPC  H12A 6537   6.154   5.426   6.794 -0.3545 -2.2976 -0.1107
   74SLPC  H12B 6538   6.295   5.353   6.833  2.5350  1.3535 -0.2521
   74SLPC   C11 6539   6.317   5.515   6.683  1.1362 -0.1156  0.0901
   74SLPC  H11A 6540   6.237   5.577   6.637  0.5181 -1.1014 -0.2137
   74SLPC  H11B 6541   6.329   5.426   6.617  0.8945 -0.9485  1.1370
   74SLPC     P 6542   6.468   5.727   6.661  0.3066 -0.1879  0.3097
   74SLPC   O13 6543   6.355   5.805   6.708 -0.0074 -0.2566 -0.6461
   74SLPC   O14 6544   6.609   5.756   6.708  0.7722  0.1428  0.2641
   74SLPC   O12 6545   6.445   5.576   6.693  0.3524 -0.2966  0.0837
   74SLPC   O11 6546   6.451   5.724   6.502 -0.7004 -0.0166 -0.2882
   74SLPC    C1 6547   6.538   5.645   6.418 -0.1840 -0.3685  0.2457
   74SLPC    HA 6548   6.588   5.557   6.466  1.4231 -0.0108 -0.6761
   74SLPC    HB 6549   6.491   5.607   6.325  1.8883 -0.8061 -0.6972
   74SLPC    C2 6550   6.647   5.744   6.371 -0.2164  0.0928  0.2972
   74SLPC    HS 6551   6.704   5.781   6.459 -1.6847 -0.0652  1.3587
   74SLPC   O21 6552   6.585   5.855   6.301 -0.0833 -0.0094  0.5465
   74SLPC   C21 6553   6.641   5.979   6.309  0.7982 -0.8910 -0.0984
   74SLPC   O22 6554   6.735   6.008   6.381  0.4282 -0.0094 -0.9166
   74SLPC   C22 6555   6.562   6.073   6.228 -0.3111  0.4925  0.2863
   74SLPC   H2R 6556   6.517   6.014   6.144  0.6878 -0.7323  0.5872
   74SLPC   H2S 6557   6.481   6.116   6.291 -0.5943  0.2669  0.0836
   74SLPC    C3 6558   6.759   5.672   6.282  0.8173 -0.0314  0.0404
   74SLPC    HX 6559   6.807   5.596   6.348  1.3106  1.1066  1.0322
   74SLPC    HY 6560   6.839   5.748   6.273  0.6487  0.1349 -0.0528
   74SLPC   O31 6561   6.705   5.614   6.163 -0.5994  0.0867  0.1897
   74SLPC   C31 6562   6.710   5.695   6.055 -1.0160  0.1298  0.6039
   74SLPC   O32 6563   6.760   5.807   6.050  0.0071 -0.1755 -0.7950
   74SLPC   C32 6564   6.646   5.615   5.941 -0.7072 -0.3828  0.0279
   74SLPC   H2X 6565   6.539   5.636   5.960 -0.0260  2.5301  1.2113
   74SLPC   H2Y 6566   6.676   5.508   5.946 -0.7847 -0.4485 -0.7626
   74SLPC   C23 6567   6.634   6.195   6.177 -0.0113 -0.3716  0.0013
   74SLPC   H3R 6568   6.724   6.166   6.118 -1.2630 -1.1707 -1.6032
   74SLPC   H3S 6569   6.669   6.260   6.260  0.9412  0.6681 -1.1800
   74SLPC   C24 6570   6.555   6.280   6.084  0.4126 -0.5598  0.2355
   74SLPC   H4R 6571   6.452   6.295   6.123  0.5399  0.7151  0.1495
   74SLPC   H4S 6572   6.548   6.234   5.983 -0.2105  0.1539 -0.0590
   74SLPC   C25 6573   6.609   6.424   6.071 -0.6679 -0.0154  0.2095
   74SLPC   H5R 6574   6.711   6.414   6.029 -0.3642  2.3659  0.2922
   74SLPC   H5S 6575   6.609   6.479   6.167 -3.4674  1.6728 -0.6125
   74SLPC   C26 6576   6.528   6.500   5.963 -0.9538  0.2453  0.2008
   74SLPC   H6R 6577   6.424   6.508   6.002 -1.0674  2.5232 -0.4600
   74SLPC   H6S 6578   6.538   6.430   5.877  1.4615  1.4144 -0.5411
   74SLPC   C27 6579   6.570   6.637   5.926 -0.3203  0.2832  0.6698
   74SLPC   H7R 6580   6.669   6.629   5.874 -0.2220 -0.6535  0.9722
   74SLPC   H7S 6581   6.576   6.699   6.017  0.3574 -0.2460  1.0025
   74SLPC   C28 6582   6.469   6.707   5.832 -0.1061 -0.1602 -0.5197
   74SLPC   H8R 6583   6.499   6.813   5.816 -0.1644 -0.4339 -2.5915
   74SLPC   H8S 6584   6.375   6.713   5.892 -0.7529  2.7007 -1.6541
   74SLPC   C29 6585   6.453   6.623   5.699  0.0014 -0.4016  0.4168
   74SLPC   H9R 6586   6.386   6.537   5.711 -0.9577 -0.0701 -2.0665
   74SLPC  C210 6587   6.487   6.657   5.576  0.0427  0.4125  0.6709
   74SLPC  H10R 6588   6.467   6.585   5.495 -0.6684  1.4913 -0.1402
   74SLPC  C211 6589   6.567   6.780   5.536 -0.1377 -0.9976  0.2491
   74SLPC  H11R 6590   6.651   6.746   5.471 -1.8118  0.0666 -2.6520
   74SLPC  H11S 6591   6.613   6.828   5.626 -0.4529 -0.5123  0.1533
   74SLPC  C212 6592   6.485   6.896   5.469  0.3859 -0.1146 -0.7711
   74SLPC  H12R 6593   6.420   6.952   5.537  0.5443  1.3542 -1.7810
   74SLPC  C213 6594   6.497   6.937   5.343  0.5132 -0.0624 -0.2625
   74SLPC  H13R 6595   6.437   7.022   5.306  2.5098  0.6160 -2.1942
   74SLPC  C214 6596   6.587   6.872   5.237  0.2742 -0.0734  0.4053
   74SLPC  H14R 6597   6.546   6.861   5.135  2.2548 -2.3572 -0.2305
   74SLPC  H14S 6598   6.608   6.767   5.266  0.7601 -0.3932 -1.0321
   74SLPC  C215 6599   6.729   6.950   5.228  0.8035 -0.2076 -0.1995
   74SLPC  H15R 6600   6.768   6.947   5.332  0.1076 -0.7097  0.0581
   74SLPC  H15S 6601   6.717   7.056   5.198  0.5325  0.1569  1.1261
   74SLPC  C216 6602   6.831   6.879   5.141  0.3772 -0.9693  0.0869
   74SLPC  H16R 6603   6.915   6.951   5.126  1.0532 -1.5218  1.0739
   74SLPC  H16S 6604   6.792   6.860   5.039  1.2292  2.3082 -0.9890
   74SLPC  C217 6605   6.875   6.744   5.215 -0.7117 -0.2861  0.5183
   74SLPC  H17R 6606   6.784   6.684   5.238  0.2207 -0.8810  2.9666
   74SLPC  H17S 6607   6.922   6.773   5.311 -1.6307 -0.0412  0.9075
   74SLPC  C218 6608   6.964   6.651   5.127  0.0258  0.6414 -0.9477
   74SLPC  H18R 6609   7.053   6.710   5.094  1.0468  0.1798  0.8410
   74SLPC  H18S 6610   6.900   6.621   5.042 -1.7712 -0.0202  0.5831
   74SLPC  H18T 6611   6.999   6.563   5.185 -0.4958  1.8578  1.3573
   74SLPC   C33 6612   6.686   5.670   5.803 -1.2119 -0.0204  0.1768
   74SLPC   H3X 6613   6.654   5.775   5.789 -1.3337  0.0308  0.8032
   74SLPC   H3Y 6614   6.617   5.619   5.732 -1.1248  1.1536 -0.7680
   74SLPC   C34 6615   6.830   5.650   5.760  0.0936  0.0684  0.1024
   74SLPC   H4X 6616   6.856   5.543   5.779 -1.2645 -0.3944 -0.5303
   74SLPC   H4Y 6617   6.900   5.694   5.834 -1.5241 -0.9341  2.3442
   74SLPC   C35 6618   6.852   5.684   5.606 -0.2351  0.0126  0.5815
   74SLPC   H5X 6619   6.828   5.789   5.579  0.0622  0.0224  0.3509
   74SLPC   H5Y 6620   6.781   5.614   5.556  0.2673  0.7631 -1.2706
   74SLPC   C36 6621   6.992   5.643   5.558  0.7433 -0.0284 -0.0152
   74SLPC   H6X 6622   7.004   5.541   5.598 -1.3621 -0.2134  0.2696
   74SLPC   H6Y 6623   7.062   5.712   5.609 -1.1944  2.5409 -0.5993
   74SLPC   C37 6624   7.011   5.638   5.410 -0.3216 -0.0700 -0.7780
   74SLPC   H7X 6625   7.118   5.614   5.392  0.4974  1.7359  1.2910
   74SLPC   H7Y 6626   6.984   5.738   5.369 -1.0559  0.7863  1.6330
   74SLPC   C38 6627   6.920   5.539   5.335 -0.1781  0.2622 -0.2896
   74SLPC   H8X 6628   6.817   5.581   5.337 -0.3328 -0.0629 -1.2019
   74SLPC   H8Y 6629   6.921   5.433   5.366  0.3489 -0.9353 -3.9721
   74SLPC   C39 6630   6.949   5.515   5.182  0.1332  0.7894 -0.0894
   74SLPC   H9X 6631   7.053   5.481   5.164  0.2884  1.9970 -1.6745
   74SLPC   H9Y 6632   6.932   5.604   5.117 -2.2929 -0.4257 -1.2528
   74SLPC  C310 6633   6.859   5.405   5.131 -0.4563  0.2896  0.7529
   74SLPC  H10X 6634   6.869   5.393   5.021  0.0440 -0.3973  0.8621
   74SLPC  H10Y 6635   6.753   5.425   5.158 -0.9594  0.7183 -1.3298
   74SLPC  C311 6636   6.892   5.263   5.177  0.5151  0.6626  0.6114
   74SLPC  H11X 6637   6.847   5.245   5.277  0.9099  1.3993  0.9276
   74SLPC  H11Y 6638   7.002   5.254   5.177  0.4836  0.0670 -0.4373
   74SLPC  C312 6639   6.842   5.161   5.080  0.5345 -0.6086  0.2972
   74SLPC  H12X 6640   6.743   5.202   5.049  0.7012 -0.0615  0.4676
   74SLPC  H12Y 6641   6.819   5.063   5.126 -0.1947 -1.4089 -1.6624
   74SLPC  C313 6642   6.942   5.126   4.973 -0.4907 -0.8620 -0.2004
   74SLPC  H13X 6643   7.036   5.101   5.027 -1.4888 -1.6867  1.1944
   74SLPC  H13Y 6644   6.956   5.210   4.901 -2.3411 -0.5393 -0.2171
   74SLPC  C314 6645   6.902   5.015   4.880 -0.0439  0.4973  0.8458
   74SLPC  H14X 6646   6.818   5.035   4.810  0.6922 -1.1826 -0.6045
   74SLPC  H14Y 6647   6.865   4.942   4.954 -1.8988  0.1302 -0.3558
   74SLPC  C315 6648   7.011   4.960   4.789 -0.1611 -0.6760 -0.3349
   74SLPC  H15X 6649   7.045   5.035   4.714  0.1820  0.6747  1.1146
   74SLPC  H15Y 6650   6.968   4.873   4.734 -1.0890 -0.2036 -0.3702
   74SLPC  C316 6651   7.137   4.923   4.863 -1.1518 -0.0105 -0.3284
   74SLPC  H16X 6652   7.122   4.844   4.940 -2.9132 -2.0644 -2.6129
   74SLPC  H16Y 6653   7.184   5.016   4.903 -0.0201 -0.4039 -0.7316
   74SLPC  C317 6654   7.239   4.852   4.769 -0.2412  0.2309  0.2062
   74SLPC  H17X 6655   7.240   4.912   4.676  1.3075  0.4203  0.3239
   74SLPC  H17Y 6656   7.200   4.748   4.757  1.8697 -0.7000  0.8352
   74SLPC  C318 6657   7.387   4.865   4.810  0.1113  0.4008  0.4430
   74SLPC  H18X 6658   7.418   4.794   4.890 -0.6010 -0.9813 -0.4631
   74SLPC  H18Y 6659   7.398   4.969   4.847 -1.0747  1.0068 -0.8287
   74SLPC  H18Z 6660   7.446   4.851   4.717 -0.8402 -0.3451 -0.0628
   75SLPC     N 6661   1.381   5.025   7.469  0.2203  0.5297 -0.8847
   75SLPC   C13 6662   1.238   4.988   7.484  0.7352  0.1365 -0.5399
   75SLPC  H13A 6663   1.216   4.889   7.448  0.7296 -0.5313  1.1966
   75SLPC  H13B 6664   1.220   4.976   7.590  0.7637 -2.9209 -0.7927
   75SLPC  H13C 6665   1.170   5.064   7.448 -0.4471  1.0282  3.1618
   75SLPC   C14 6666   1.452   4.906   7.523 -0.2118 -0.2902 -0.1029
   75SLPC  H14A 6667   1.409   4.811   7.497  1.9793 -1.2448 -0.4104
   75SLPC  H14B 6668   1.556   4.903   7.495  0.3135  2.0258  1.2874
   75SLPC  H14C 6669   1.459   4.909   7.631  1.1747 -2.2056 -0.0865
   75SLPC   C15 6670   1.419   5.152   7.529  0.1160 -0.2210 -0.1720
   75SLPC  H15A 6671   1.523   5.171   7.503  0.0129  0.7964  0.1159
   75SLPC  H15B 6672   1.353   5.235   7.508 -2.7536 -2.1855  0.5826
   75SLPC  H15C 6673   1.418   5.144   7.637  0.7549 -1.0404 -0.2151
   75SLPC   C12 6674   1.412   5.044   7.321  0.2772 -0.2682 -0.5128
   75SLPC  H12A 6675   1.376   4.953   7.276 -2.8033  1.6859 -2.3535
   75SLPC  H12B 6676   1.519   5.046   7.306  0.2289 -1.2945 -1.0653
   75SLPC   C11 6677   1.344   5.163   7.243  0.6937 -1.0242  0.4748
   75SLPC  H11A 6678   1.237   5.163   7.273 -0.0828  1.5125 -1.9010
   75SLPC  H11B 6679   1.352   5.145   7.134 -0.3001  0.1370  0.1903
   75SLPC     P 6680   1.533   5.338   7.208  0.1450 -0.5073 -0.1013
   75SLPC   O13 6681   1.585   5.456   7.287 -0.2251 -0.0264  0.4405
   75SLPC   O14 6682   1.625   5.224   7.181  0.1137  0.0256 -0.3160
   75SLPC   O12 6683   1.401   5.289   7.273  0.5697  0.0082 -0.1472
   75SLPC   O11 6684   1.485   5.391   7.073  1.0419 -0.8471  0.0759
   75SLPC    C1 6685   1.368   5.476   7.059 -0.2276  0.8687 -0.1846
   75SLPC    HA 6686   1.327   5.510   7.156  1.9524  0.4176  0.9697
   75SLPC    HB 6687   1.396   5.569   7.006  0.0966  1.5259  1.0941
   75SLPC    C2 6688   1.252   5.400   6.989 -0.5021  0.5391  0.0726
   75SLPC    HS 6689   1.228   5.311   7.051  2.3418 -0.3724  0.0089
   75SLPC   O21 6690   1.301   5.364   6.852 -0.3419  0.0996 -0.3688
   75SLPC   C21 6691   1.245   5.254   6.806 -0.5287  0.1537 -0.5690
   75SLPC   O22 6692   1.171   5.182   6.866  0.5633  0.2139 -0.2883
   75SLPC   C22 6693   1.303   5.234   6.670 -0.1250  0.5653  0.1099
   75SLPC   H2R 6694   1.304   5.325   6.607  1.3349  2.0663  2.1765
   75SLPC   H2S 6695   1.413   5.222   6.681 -0.2254 -1.9091 -0.7791
   75SLPC    C3 6696   1.134   5.496   6.977 -0.0407 -0.7537  0.0679
   75SLPC    HX 6697   1.113   5.553   7.070  2.1181  2.6790 -1.3385
   75SLPC    HY 6698   1.043   5.435   6.958 -1.2576  1.6815 -2.6989
   75SLPC   O31 6699   1.154   5.599   6.875 -0.2354 -0.5452  0.3475
   75SLPC   C31 6700   1.099   5.578   6.749  0.5917  0.4857 -0.8257
   75SLPC   O32 6701   1.043   5.474   6.721  0.1214 -0.5606 -0.8986
   75SLPC   C32 6702   1.126   5.697   6.664  0.2445  0.2033 -0.2859
   75SLPC   H2X 6703   1.221   5.673   6.611  0.6725 -1.2296  1.0777
   75SLPC   H2Y 6704   1.151   5.784   6.729 -3.3468  0.4965  0.9445
   75SLPC   C23 6705   1.255   5.103   6.596  0.1953  0.0513 -0.1340
   75SLPC   H3R 6706   1.146   5.088   6.584  0.6175 -2.4641 -1.7640
   75SLPC   H3S 6707   1.281   5.018   6.663  0.5732  1.2932  1.3570
   75SLPC   C24 6708   1.323   5.096   6.456  0.4578 -0.3632 -0.0434
   75SLPC   H4R 6709   1.434   5.099   6.469  0.7529 -0.2375 -2.2430
   75SLPC   H4S 6710   1.308   5.192   6.402  0.7075 -0.1197  0.3085
   75SLPC   C25 6711   1.277   4.971   6.384  0.3457  0.3981 -0.6896
   75SLPC   H5R 6712   1.167   4.969   6.397  0.2176 -0.8249 -1.8108
   75SLPC   H5S 6713   1.323   4.880   6.430  1.1726  2.1592  2.2688
   75SLPC   C26 6714   1.309   4.966   6.234  0.5772  0.3322 -0.1445
   75SLPC   H6R 6715   1.419   4.974   6.222  0.9418  0.7174  2.6987
   75SLPC   H6S 6716   1.272   5.056   6.179 -0.6519  0.4301  0.7820
   75SLPC   C27 6717   1.248   4.828   6.182  0.1092 -0.2922 -0.4483
   75SLPC   H7R 6718   1.137   4.826   6.179  0.1083  0.6095 -1.6335
   75SLPC   H7S 6719   1.283   4.755   6.258  1.4403  1.3975  0.6406
   75SLPC   C28 6720   1.297   4.782   6.039  0.6167  0.5722  1.0990
   75SLPC   H8R 6721   1.408   4.776   6.034  0.7059  1.7767  1.4701
   75SLPC   H8S 6722   1.268   4.865   5.971  2.0706  0.0740 -0.2088
   75SLPC   C29 6723   1.238   4.648   6.000  0.0639 -0.2109  0.1335
   75SLPC   H9R 6724   1.277   4.568   6.064 -0.1534 -1.0216 -0.7349
   75SLPC  C210 6725   1.178   4.623   5.883 -0.2988  0.0786  0.5077
   75SLPC  H10R 6726   1.159   4.518   5.856 -0.4216  0.1602  0.2835
   75SLPC  C211 6727   1.142   4.725   5.777 -0.4172 -0.6848  0.1738
   75SLPC  H11R 6728   1.235   4.771   5.739 -1.7428  3.1230  1.1322
   75SLPC  H11S 6729   1.090   4.811   5.823  3.8085  2.0688  0.3234
   75SLPC  C212 6730   1.062   4.671   5.663 -0.0042  0.0006 -0.5393
   75SLPC  H12R 6731   0.984   4.602   5.696  1.1159 -0.7951  0.5247
   75SLPC  C213 6732   1.069   4.686   5.531  0.0980 -0.0899  0.5742
   75SLPC  H13R 6733   1.008   4.628   5.461  1.2465  1.5245 -1.9186
   75SLPC  C214 6734   1.170   4.771   5.449  0.0979  0.1703 -0.1194
   75SLPC  H14R 6735   1.256   4.810   5.508  0.4348 -1.9188  0.8700
   75SLPC  H14S 6736   1.118   4.857   5.404  0.4601 -0.3022 -1.4968
   75SLPC  C215 6737   1.220   4.676   5.339 -0.1786 -0.0160  0.3991
   75SLPC  H15R 6738   1.240   4.574   5.381  1.1747  0.2979  0.5522
   75SLPC  H15S 6739   1.315   4.721   5.304 -1.1056  1.7199 -0.0018
   75SLPC  C216 6740   1.117   4.649   5.229  0.0406 -0.2079  0.7468
   75SLPC  H16R 6741   1.061   4.737   5.194 -0.4295 -0.3803  1.0514
   75SLPC  H16S 6742   1.037   4.576   5.255  1.1610 -2.0630 -0.6972
   75SLPC  C217 6743   1.177   4.580   5.103  0.4000 -0.0813  0.5094
   75SLPC  H17R 6744   1.263   4.634   5.057 -0.1897  0.0725 -0.4259
   75SLPC  H17S 6745   1.096   4.572   5.028 -1.4806  0.2244  2.3880
   75SLPC  C218 6746   1.232   4.436   5.132 -0.3054  0.3031 -0.2575
   75SLPC  H18R 6747   1.259   4.374   5.043  0.4001 -0.5028  0.4989
   75SLPC  H18S 6748   1.160   4.371   5.186  0.7605 -0.1163  0.7086
   75SLPC  H18T 6749   1.328   4.448   5.185  0.5394  0.3823 -1.7422
   75SLPC   C33 6750   1.019   5.736   6.560 -0.4637 -0.1709 -0.7619
   75SLPC   H3X 6751   0.946   5.797   6.618  1.5405  0.3751  1.3268
   75SLPC   H3Y 6752   0.963   5.647   6.524 -1.1506  0.2650 -0.8093
   75SLPC   C34 6753   1.069   5.816   6.440 -0.3129  0.5442  0.7284
   75SLPC   H4X 6754   1.115   5.904   6.488 -0.7163  1.3703 -0.3617
   75SLPC   H4Y 6755   0.991   5.846   6.366 -0.5791  1.9152  1.5447
   75SLPC   C35 6756   1.181   5.740   6.358 -0.1347  0.7298 -0.0461
   75SLPC   H5X 6757   1.140   5.639   6.336 -1.1511  0.9050  0.9383
   75SLPC   H5Y 6758   1.280   5.736   6.407  0.2767  1.5462 -0.7796
   75SLPC   C36 6759   1.188   5.804   6.226  0.2813  0.0113  0.5439
   75SLPC   H6X 6760   1.294   5.837   6.218  0.9989 -1.9234  1.2505
   75SLPC   H6Y 6761   1.121   5.891   6.212  0.5587 -0.0111 -1.1232
   75SLPC   C37 6762   1.167   5.701   6.109 -0.1654 -0.6524 -0.6044
   75SLPC   H7X 6763   1.061   5.672   6.127  0.2199 -0.6185  2.0957
   75SLPC   H7Y 6764   1.235   5.616   6.131  1.5717  1.1230  1.1938
   75SLPC   C38 6765   1.195   5.765   5.974  0.4367  0.1510  0.1582
   75SLPC   H8X 6766   1.303   5.788   5.967  0.2727  0.7332 -0.5986
   75SLPC   H8Y 6767   1.134   5.857   5.962 -1.7577 -1.0138  1.5916
   75SLPC   C39 6768   1.162   5.670   5.857  0.3650 -0.1571 -0.2326
   75SLPC   H9X 6769   1.052   5.656   5.855  0.2981 -0.9469  3.0767
   75SLPC   H9Y 6770   1.210   5.572   5.874  1.2215  0.5447  1.6592
   75SLPC  C310 6771   1.200   5.742   5.730 -0.1291 -0.0508  0.1482
   75SLPC  H10X 6772   1.310   5.751   5.715 -0.3673 -0.6655 -2.5708
   75SLPC  H10Y 6773   1.155   5.843   5.725 -0.9193 -0.2986  1.6858
   75SLPC  C311 6774   1.151   5.653   5.609 -0.6633  0.1109  0.0286
   75SLPC  H11X 6775   1.041   5.644   5.616 -0.8494  2.0322  0.2161
   75SLPC  H11Y 6776   1.196   5.556   5.637  1.0706  1.6941  3.2529
   75SLPC  C312 6777   1.197   5.713   5.472  0.5434 -0.4621 -0.4518
   75SLPC  H12X 6778   1.300   5.755   5.483  1.2285 -1.4785 -2.5620
   75SLPC  H12Y 6779   1.139   5.798   5.430  0.4049 -0.6616 -0.6621
   75SLPC  C313 6780   1.202   5.609   5.358 -0.5597 -0.0252 -0.0044
   75SLPC  H13X 6781   1.098   5.573   5.340 -0.4428 -0.2990 -0.1312
   75SLPC  H13Y 6782   1.271   5.527   5.386  0.6538  0.3978 -1.6243
   75SLPC  C314 6783   1.252   5.665   5.221 -0.5109  0.4952  0.6283
   75SLPC  H14X 6784   1.329   5.740   5.249  0.3790 -0.9276  2.2033
   75SLPC  H14Y 6785   1.163   5.705   5.167 -0.9062 -0.9411  0.1531
   75SLPC  C315 6786   1.316   5.555   5.133 -0.5802 -0.4740  0.3951
   75SLPC  H15X 6787   1.401   5.512   5.189  1.1794 -0.1500 -1.8938
   75SLPC  H15Y 6788   1.359   5.600   5.041 -0.6235  0.5551  0.8678
   75SLPC  C316 6789   1.223   5.439   5.089  0.2258  0.2913  0.3221
   75SLPC  H16X 6790   1.182   5.394   5.182  2.4002 -0.9293  0.7599
   75SLPC  H16Y 6791   1.287   5.357   5.048 -1.5105 -0.6700 -0.5514
   75SLPC  C317 6792   1.112   5.473   4.990  0.1647 -0.0016 -1.0340
   75SLPC  H17X 6793   1.161   5.502   4.895  0.3813 -1.9507 -1.5683
   75SLPC  H17Y 6794   1.050   5.559   5.024 -1.6283 -0.5523 -2.7004
   75SLPC  C318 6795   1.011   5.357   4.948 -0.2204 -0.2479  0.1619
   75SLPC  H18X 6796   1.072   5.273   4.909 -0.0036  0.7433 -1.7246
   75SLPC  H18Y 6797   0.947   5.397   4.867  1.1089 -0.4751 -1.0506
   75SLPC  H18Z 6798   0.938   5.335   5.029  0.1222  2.8596  1.4854
   76SLPC     N 6799   3.116   3.689   7.656  0.3887 -0.5661  0.4342
   76SLPC   C13 6800   3.004   3.739   7.750  0.1917  0.1066  0.2189
   76SLPC  H13A 6801   2.922   3.785   7.698 -0.1548 -0.5696  0.1632
   76SLPC  H13B 6802   2.963   3.654   7.803 -1.8060 -0.0650 -1.4680
   76SLPC  H13C 6803   3.046   3.812   7.818  1.9997 -0.8395  0.1815
   76SLPC   C14 6804   3.064   3.587   7.562  0.0493 -0.5037 -0.4679
   76SLPC  H14A 6805   2.990   3.628   7.496  0.2583 -1.0272 -1.0447
   76SLPC  H14B 6806   3.148   3.545   7.508  0.4548 -1.0603  0.5636
   76SLPC  H14C 6807   3.023   3.510   7.626 -1.2036  0.2611 -0.3137
   76SLPC   C15 6808   3.219   3.618   7.735 -0.3325 -0.2755 -0.7429
   76SLPC  H15A 6809   3.193   3.515   7.755  2.1221 -1.1967 -1.8294
   76SLPC  H15B 6810   3.315   3.621   7.686 -1.4162  1.8481 -2.9266
   76SLPC  H15C 6811   3.228   3.668   7.831 -0.6997  0.2950 -1.0000
   76SLPC   C12 6812   3.180   3.805   7.577 -0.2067 -0.1027  0.3503
   76SLPC  H12A 6813   3.250   3.855   7.643 -2.0608  1.3500  1.3229
   76SLPC  H12B 6814   3.102   3.873   7.547 -1.2020 -1.6806 -0.7524
   76SLPC   C11 6815   3.274   3.777   7.452  0.0688  1.2472  0.6316
   76SLPC  H11A 6816   3.322   3.871   7.417  2.1613 -0.0893 -0.2086
   76SLPC  H11B 6817   3.207   3.735   7.373 -1.7715  1.7529  1.8404
   76SLPC     P 6818   3.530   3.700   7.476  0.6438 -0.7606  0.0404
   76SLPC   O13 6819   3.558   3.834   7.418 -0.1764  0.4469  0.3767
   76SLPC   O14 6820   3.597   3.673   7.605 -0.2544  0.3478  0.2050
   76SLPC   O12 6821   3.376   3.676   7.482  1.0257 -0.4535 -0.2453
   76SLPC   O11 6822   3.565   3.587   7.369 -0.1250 -0.2675  0.7195
   76SLPC    C1 6823   3.458   3.536   7.293 -0.3365 -0.0947  0.1322
   76SLPC    HA 6824   3.373   3.502   7.355  0.4670  0.9142  1.8561
   76SLPC    HB 6825   3.401   3.609   7.232 -2.0612 -1.7571 -0.3272
   76SLPC    C2 6826   3.506   3.425   7.204 -0.9390 -0.5927  0.2894
   76SLPC    HS 6827   3.545   3.352   7.277  4.0731  1.0771 -0.3242
   76SLPC   O21 6828   3.604   3.476   7.109 -0.3408  0.4416  0.2701
   76SLPC   C21 6829   3.681   3.387   7.048 -0.2198 -0.1086 -0.0161
   76SLPC   O22 6830   3.696   3.271   7.074 -0.0002  0.4968  0.3589
   76SLPC   C22 6831   3.754   3.461   6.932  0.0224  0.9154  0.0985
   76SLPC   H2R 6832   3.780   3.563   6.967  0.3135  0.3326  1.6563
   76SLPC   H2S 6833   3.845   3.404   6.904 -0.5421  0.0953 -0.1127
   76SLPC    C3 6834   3.384   3.365   7.124 -0.3511 -0.1971 -0.4564
   76SLPC    HX 6835   3.300   3.357   7.197  2.7497 -0.2609  3.4646
   76SLPC    HY 6836   3.400   3.262   7.085  0.5166 -0.5475  0.7594
   76SLPC   O31 6837   3.351   3.457   7.019  0.2583  0.3957  0.0490
   76SLPC   C31 6838   3.279   3.408   6.914  0.6550  0.0997 -0.2268
   76SLPC   O32 6839   3.242   3.292   6.908 -0.5355  0.6018 -0.6953
   76SLPC   C32 6840   3.267   3.514   6.806 -0.0607 -0.5862  0.2682
   76SLPC   H2X 6841   3.368   3.559   6.795 -0.7232  0.9903  0.4358
   76SLPC   H2Y 6842   3.205   3.598   6.843  0.2646 -0.5386  0.7012
   76SLPC   C23 6843   3.670   3.461   6.800 -0.0451 -0.8237  1.0119
   76SLPC   H3R 6844   3.719   3.533   6.731  1.2014 -2.6087 -0.0367
   76SLPC   H3S 6845   3.566   3.491   6.824 -0.0428  0.6578 -0.6479
   76SLPC   C24 6846   3.663   3.332   6.728 -0.2647  0.8058  0.5788
   76SLPC   H4R 6847   3.600   3.266   6.793 -0.6891  1.2919  0.6680
   76SLPC   H4S 6848   3.761   3.279   6.733 -1.3185 -1.2587  0.6712
   76SLPC   C25 6849   3.605   3.345   6.585  0.3279 -0.2121 -0.3613
   76SLPC   H5R 6850   3.518   3.414   6.595  1.1632  0.8004 -0.0040
   76SLPC   H5S 6851   3.564   3.248   6.549  0.2510 -0.8707  1.4083
   76SLPC   C26 6852   3.699   3.403   6.478 -0.2828  0.4224  0.2386
   76SLPC   H6R 6853   3.789   3.338   6.479 -0.3753  0.2976  1.8752
   76SLPC   H6S 6854   3.741   3.500   6.513  0.3907 -0.5127  2.1450
   76SLPC   C27 6855   3.628   3.428   6.345 -0.1583  0.0876  0.2792
   76SLPC   H7R 6856   3.699   3.482   6.278  0.1989  0.3349  0.8490
   76SLPC   H7S 6857   3.535   3.485   6.365 -0.3339  0.2240 -0.8471
   76SLPC   C28 6858   3.576   3.304   6.276 -0.5287  0.1408 -0.2283
   76SLPC   H8R 6859   3.541   3.330   6.173  0.6099 -0.0687 -0.6820
   76SLPC   H8S 6860   3.499   3.260   6.343 -1.0653  0.6895 -0.4764
   76SLPC   C29 6861   3.681   3.194   6.252 -0.3259  0.3537  0.0401
   76SLPC   H9R 6862   3.718   3.139   6.340 -1.2805 -2.9542 -1.5004
   76SLPC  C210 6863   3.722   3.154   6.133  0.4485  0.0521  0.7062
   76SLPC  H10R 6864   3.786   3.064   6.128  1.9151  1.0057  1.5457
   76SLPC  C211 6865   3.692   3.213   5.989 -0.5073 -0.0338 -0.5235
   76SLPC  H11R 6866   3.658   3.318   6.000 -2.4404 -0.3898 -2.4924
   76SLPC  H11S 6867   3.602   3.162   5.950 -1.5697  1.2778  0.1462
   76SLPC  C212 6868   3.807   3.235   5.893 -0.1995 -0.5750 -0.1555
   76SLPC  H12R 6869   3.899   3.275   5.940  0.0165 -0.8808 -0.3121
   76SLPC  C213 6870   3.802   3.206   5.760  0.1584  0.0900 -0.3277
   76SLPC  H13R 6871   3.896   3.213   5.703 -1.5922 -0.9193 -3.5687
   76SLPC  C214 6872   3.679   3.172   5.683 -0.9488  0.4093 -0.0448
   76SLPC  H14R 6873   3.599   3.241   5.717  0.0793  0.1037  3.4308
   76SLPC  H14S 6874   3.646   3.066   5.693  0.5092 -0.6599 -4.1957
   76SLPC  C215 6875   3.694   3.193   5.534 -0.3607 -0.0380 -0.0288
   76SLPC  H15R 6876   3.778   3.137   5.488  0.7130  2.1784 -0.9342
   76SLPC  H15S 6877   3.709   3.302   5.516  0.8376 -0.1980 -0.0929
   76SLPC  C216 6878   3.563   3.155   5.454 -0.0748  0.0015 -0.2225
   76SLPC  H16R 6879   3.494   3.237   5.484 -0.8086  0.0301 -1.8863
   76SLPC  H16S 6880   3.529   3.062   5.506  1.1323 -0.0367  0.5397
   76SLPC  C217 6881   3.587   3.148   5.302  0.3348 -0.1675  0.0304
   76SLPC  H17R 6882   3.490   3.132   5.252  0.8225 -2.2078 -0.3310
   76SLPC  H17S 6883   3.648   3.058   5.281  1.2905  0.5759 -0.4486
   76SLPC  C218 6884   3.666   3.267   5.249 -0.6377  0.2700 -0.8119
   76SLPC  H18R 6885   3.772   3.259   5.281 -1.3114 -0.4995  1.4596
   76SLPC  H18S 6886   3.627   3.362   5.293  1.5181  0.9689 -0.2643
   76SLPC  H18T 6887   3.665   3.271   5.138 -0.1386 -2.9826 -1.0187
   76SLPC   C33 6888   3.231   3.452   6.671  1.0324  0.5734 -0.7954
   76SLPC   H3X 6889   3.127   3.416   6.684  2.2886 -3.0315  0.6834
   76SLPC   H3Y 6890   3.289   3.358   6.659  0.0730 -0.2233  0.5774
   76SLPC   C34 6891   3.253   3.556   6.555 -0.0072  0.1912 -0.2170
   76SLPC   H4X 6892   3.358   3.590   6.558  0.6848 -1.5168 -2.2732
   76SLPC   H4Y 6893   3.185   3.640   6.580 -2.2853 -1.2815 -1.0953
   76SLPC   C35 6894   3.242   3.478   6.417  0.7526  0.2804  0.4737
   76SLPC   H5X 6895   3.169   3.394   6.413 -0.2313  1.1363 -0.9672
   76SLPC   H5Y 6896   3.329   3.417   6.385 -0.8894 -1.2160 -1.4564
   76SLPC   C36 6897   3.197   3.578   6.315 -0.3396  0.2344  1.4206
   76SLPC   H6X 6898   3.273   3.656   6.295  0.0369 -0.4177  0.1865
   76SLPC   H6Y 6899   3.101   3.625   6.343 -1.5564  0.2339 -2.1715
   76SLPC   C37 6900   3.170   3.517   6.175 -0.0578  0.4838  0.3761
   76SLPC   H7X 6901   3.088   3.582   6.137 -1.2026  0.1933  2.2029
   76SLPC   H7Y 6902   3.130   3.414   6.191 -1.3331  0.8652 -0.2284
   76SLPC   C38 6903   3.282   3.528   6.073  0.0155 -0.8153  0.2541
   76SLPC   H8X 6904   3.376   3.484   6.113  1.0529 -0.0818 -1.3008
   76SLPC   H8Y 6905   3.310   3.635   6.059  1.1994 -0.9011  1.6974
   76SLPC   C39 6906   3.254   3.460   5.940  0.6309  0.4527 -0.2280
   76SLPC   H9X 6907   3.172   3.517   5.891 -1.2647  0.5878  2.8297
   76SLPC   H9Y 6908   3.215   3.357   5.955 -1.3889  1.2537  0.3726
   76SLPC  C310 6909   3.376   3.464   5.849 -0.0907  0.5608 -0.2321
   76SLPC  H10X 6910   3.438   3.388   5.901 -3.0952 -1.7656  0.2770
   76SLPC  H10Y 6911   3.425   3.562   5.864  0.6168 -0.0032  1.3363
   76SLPC  C311 6912   3.346   3.437   5.701 -0.0215 -0.4186 -1.0433
   76SLPC  H11X 6913   3.289   3.342   5.690 -0.4164 -0.2004 -0.9279
   76SLPC  H11Y 6914   3.439   3.441   5.641 -0.0862  3.6227 -1.1436
   76SLPC  C312 6915   3.269   3.561   5.637  0.0738  0.0905 -0.4717
   76SLPC  H12X 6916   3.337   3.643   5.606 -1.3990  0.8265 -1.9327
   76SLPC  H12Y 6917   3.190   3.600   5.705 -0.3160 -0.5474 -0.5463
   76SLPC  C313 6918   3.191   3.518   5.506 -0.6151  0.8830 -1.0613
   76SLPC  H13X 6919   3.134   3.607   5.472 -2.2081 -0.1235 -1.1457
   76SLPC  H13Y 6920   3.114   3.441   5.528 -1.4572  1.8623 -0.5015
   76SLPC  C314 6921   3.298   3.472   5.412 -0.0789 -0.8820 -0.2620
   76SLPC  H14X 6922   3.337   3.373   5.446  1.3359 -0.4260 -0.4898
   76SLPC  H14Y 6923   3.376   3.550   5.418 -2.2365  1.6088 -2.1160
   76SLPC  C315 6924   3.239   3.466   5.268  0.6765  0.5995 -0.5382
   76SLPC  H15X 6925   3.202   3.568   5.246 -0.1356  0.2551 -0.8074
   76SLPC  H15Y 6926   3.155   3.393   5.274  1.7117 -0.5050  1.6372
   76SLPC  C316 6927   3.333   3.412   5.165  0.4522  1.2450 -0.1502
   76SLPC  H16X 6928   3.357   3.306   5.189  3.2088  1.9055  0.3173
   76SLPC  H16Y 6929   3.429   3.466   5.165  0.7067  0.8083 -0.9753
   76SLPC  C317 6930   3.283   3.412   5.014  0.1405 -0.8465  0.1817
   76SLPC  H17X 6931   3.291   3.512   4.968  2.0930 -0.9554  0.1970
   76SLPC  H17Y 6932   3.179   3.376   5.032 -0.0102  0.2957  1.7967
   76SLPC  C318 6933   3.352   3.312   4.920 -0.9134  0.3571  0.8531
   76SLPC  H18X 6934   3.293   3.292   4.829 -1.3770 -0.0443  1.2332
   76SLPC  H18Y 6935   3.376   3.221   4.980  1.0695  1.2657  1.5450
   76SLPC  H18Z 6936   3.452   3.353   4.893 -1.3671  1.2194  0.4610
   77SLPC     N 6937   1.994   6.658   7.516  0.1895 -0.8644 -0.3828
   77SLPC   C13 6938   1.980   6.762   7.626  0.3642 -0.2742  0.3922
   77SLPC  H13A 6939   1.882   6.809   7.624 -0.0308 -0.9027 -4.1464
   77SLPC  H13B 6940   1.989   6.718   7.724 -3.7692  1.7075  1.9039
   77SLPC  H13C 6941   2.055   6.840   7.626  0.9733 -0.7146  3.4541
   77SLPC   C14 6942   1.884   6.556   7.539 -0.2957 -0.3004 -0.3363
   77SLPC  H14A 6943   1.905   6.508   7.634  0.3646  0.2481 -0.1981
   77SLPC  H14B 6944   1.787   6.603   7.542  0.5268  1.4307  1.1368
   77SLPC  H14C 6945   1.891   6.478   7.464  2.5218  0.0866 -0.5940
   77SLPC   C15 6946   2.130   6.600   7.535  0.0111  0.3148 -0.2908
   77SLPC  H15A 6947   2.178   6.688   7.575  1.5914 -0.4758 -0.3995
   77SLPC  H15B 6948   2.134   6.515   7.600  1.7912 -0.2555 -1.1013
   77SLPC  H15C 6949   2.172   6.574   7.439  1.0126  0.8090  0.0083
   77SLPC   C12 6950   1.970   6.731   7.388  0.4289 -0.1274  0.2925
   77SLPC  H12A 6951   2.030   6.820   7.378  0.0450  0.2611  1.3461
   77SLPC  H12B 6952   1.870   6.769   7.403  1.1353  1.9048  0.0604
   77SLPC   C11 6953   1.981   6.648   7.257  0.0260 -0.0291 -0.8422
   77SLPC  H11A 6954   1.952   6.711   7.170  0.7097 -0.7579 -1.6098
   77SLPC  H11B 6955   1.905   6.567   7.257  1.2726 -1.2274 -0.5225
   77SLPC     P 6956   2.228   6.702   7.181  0.4134 -0.4336  0.2207
   77SLPC   O13 6957   2.219   6.835   7.245 -0.3383 -0.1064 -0.6463
   77SLPC   O14 6958   2.353   6.624   7.196 -0.0906 -0.1808  0.5274
   77SLPC   O12 6959   2.117   6.601   7.238  0.0788  0.1934 -0.5918
   77SLPC   O11 6960   2.186   6.726   7.029  0.6187 -0.5833 -0.9333
   77SLPC    C1 6961   2.149   6.616   6.940 -0.1627  0.7491 -0.5003
   77SLPC    HA 6962   2.247   6.592   6.893  0.5838  3.7478 -0.6740
   77SLPC    HB 6963   2.112   6.534   7.006  1.7759  1.1459  1.1852
   77SLPC    C2 6964   2.055   6.662   6.823 -0.0178  0.0171 -1.3270
   77SLPC    HS 6965   1.958   6.698   6.863  1.2145  0.4333  1.5367
   77SLPC   O21 6966   2.056   6.557   6.726 -0.0168  0.1279  0.0241
   77SLPC   C21 6967   1.950   6.549   6.648 -0.1137 -0.1440 -0.0495
   77SLPC   O22 6968   1.853   6.617   6.644 -0.1615 -1.4115  0.0724
   77SLPC   C22 6969   1.991   6.450   6.541  0.1440  1.2664  0.2835
   77SLPC   H2R 6970   2.032   6.504   6.453  0.5051  0.8719  0.2063
   77SLPC   H2S 6971   2.062   6.375   6.581 -0.4071  0.9838  0.7518
   77SLPC    C3 6972   2.111   6.777   6.740 -0.6385  0.2237 -0.0401
   77SLPC    HX 6973   2.208   6.748   6.695  1.0537  2.1061  2.1239
   77SLPC    HY 6974   2.134   6.862   6.809 -1.2965  1.4106 -1.2416
   77SLPC   O31 6975   2.036   6.836   6.631 -0.2926  0.9005 -0.2114
   77SLPC   C31 6976   1.949   6.934   6.660  0.3270 -0.8130  0.0315
   77SLPC   O32 6977   1.941   6.993   6.768 -0.0491 -0.0071  0.6292
   77SLPC   C32 6978   1.848   6.953   6.550 -0.3349 -0.4109 -0.1036
   77SLPC   H2X 6979   1.810   7.053   6.577  1.3262  0.4144 -0.6904
   77SLPC   H2Y 6980   1.760   6.885   6.545 -0.9536  0.4333 -1.0906
   77SLPC   C23 6981   1.865   6.358   6.505 -0.1594 -0.0441 -0.2869
   77SLPC   H3R 6982   1.789   6.419   6.451 -1.8290  0.8815  2.8866
   77SLPC   H3S 6983   1.823   6.303   6.592 -0.6383 -0.5387 -0.8204
   77SLPC   C24 6984   1.918   6.247   6.414  1.0280 -0.4294 -0.1641
   77SLPC   H4R 6985   1.831   6.179   6.405  0.6266  0.3253 -3.8655
   77SLPC   H4S 6986   2.008   6.197   6.456  0.5320  0.3135  1.8675
   77SLPC   C25 6987   1.957   6.307   6.277 -0.0613  0.3557 -0.5071
   77SLPC   H5R 6988   2.051   6.364   6.289  0.4545 -0.3111 -1.2986
   77SLPC   H5S 6989   1.871   6.369   6.242 -2.4604 -1.5377  1.6651
   77SLPC   C26 6990   1.986   6.183   6.187  0.0874  0.4323  0.7736
   77SLPC   H6R 6991   1.905   6.114   6.219 -0.9402  0.4408 -1.5882
   77SLPC   H6S 6992   2.088   6.142   6.203 -0.1565  0.0078  1.2843
   77SLPC   C27 6993   1.955   6.210   6.043  0.4585  0.6002  0.4071
   77SLPC   H7R 6994   2.017   6.295   6.007  1.1211 -1.0619 -2.7074
   77SLPC   H7S 6995   1.850   6.246   6.041 -0.4404 -1.7863  0.7834
   77SLPC   C28 6996   1.987   6.098   5.944 -0.2418 -0.2358  0.4471
   77SLPC   H8R 6997   1.944   6.011   5.998  0.1029 -0.8260 -0.2093
   77SLPC   H8S 6998   2.092   6.063   5.957 -0.8391 -2.0783  0.6459
   77SLPC   C29 6999   1.925   6.110   5.808  0.4493  0.9593  0.4240
   77SLPC   H9R 7000   1.856   6.193   5.788  1.0073  0.7716 -2.8726
   77SLPC  C210 7001   1.955   6.032   5.703 -1.2359  0.8986  0.1750
   77SLPC  H10R 7002   1.902   6.030   5.607 -0.7816 -2.7594 -0.1412
   77SLPC  C211 7003   2.057   5.915   5.703  0.1138 -0.6681 -0.1217
   77SLPC  H11R 7004   2.023   5.829   5.642  1.8421  0.7412 -3.3559
   77SLPC  H11S 7005   2.074   5.882   5.807  3.6129 -0.7579 -0.6183
   77SLPC  C212 7006   2.191   5.963   5.652  0.7295 -0.7113  0.4230
   77SLPC  H12R 7007   2.233   6.051   5.701 -0.1573 -0.6005  1.0072
   77SLPC  C213 7008   2.248   5.909   5.539 -0.3237 -0.0255  0.3673
   77SLPC  H13R 7009   2.347   5.941   5.504  0.0685 -1.3375  0.2044
   77SLPC  C214 7010   2.201   5.792   5.451 -0.0501 -0.0593 -0.3007
   77SLPC  H14R 7011   2.146   5.719   5.514  0.5127 -1.3572 -1.2761
   77SLPC  H14S 7012   2.285   5.728   5.418  0.3908  0.2659  0.1688
   77SLPC  C215 7013   2.119   5.828   5.330  0.0699  0.6316  0.7224
   77SLPC  H15R 7014   2.028   5.888   5.349 -0.7824  0.1939 -1.6052
   77SLPC  H15S 7015   2.089   5.728   5.292  1.0454  1.2024 -1.7243
   77SLPC  C216 7016   2.200   5.899   5.216 -0.0378 -0.5847 -0.0637
   77SLPC  H16R 7017   2.285   5.833   5.188  0.6642  0.7193 -1.0726
   77SLPC  H16S 7018   2.234   5.998   5.252  0.7570 -0.4100 -1.2385
   77SLPC  C217 7019   2.117   5.925   5.096 -0.1216  0.2272  0.1785
   77SLPC  H17R 7020   2.054   6.016   5.110  0.4272  0.8637 -1.3063
   77SLPC  H17S 7021   2.053   5.837   5.074 -0.3728  0.5789 -0.5143
   77SLPC  C218 7022   2.203   5.941   4.976 -0.0011  0.7181 -0.0294
   77SLPC  H18R 7023   2.146   5.940   4.881 -1.3555  2.5170  0.7216
   77SLPC  H18S 7024   2.275   5.856   4.980 -2.3792 -1.4035 -0.1427
   77SLPC  H18T 7025   2.260   6.036   4.984  0.0444  0.7230 -0.4239
   77SLPC   C33 7026   1.911   6.962   6.407  0.0081  0.9203 -0.2536
   77SLPC   H3X 7027   2.014   7.005   6.402 -0.0771  1.0856 -0.6663
   77SLPC   H3Y 7028   1.861   7.020   6.326  0.0866  0.3671 -0.7080
   77SLPC   C34 7029   1.924   6.822   6.333  0.7027 -0.0640 -0.4976
   77SLPC   H4X 7030   1.828   6.776   6.365  1.4011  0.3370  2.5593
   77SLPC   H4Y 7031   2.009   6.769   6.381  0.4220 -0.4763 -0.4570
   77SLPC   C35 7032   1.945   6.826   6.182  0.3179 -0.1992 -0.2129
   77SLPC   H5X 7033   2.024   6.898   6.151  0.3255  0.3874  1.0967
   77SLPC   H5Y 7034   1.848   6.844   6.133  0.2557  0.4793  0.1484
   77SLPC   C36 7035   1.987   6.692   6.125  0.3055  0.2164 -0.4632
   77SLPC   H6X 7036   1.907   6.621   6.157 -0.6573  1.7274  0.6261
   77SLPC   H6Y 7037   2.076   6.645   6.171  0.7973  0.0993 -1.5163
   77SLPC   C37 7038   2.011   6.714   5.977 -0.5565  0.8173 -0.3802
   77SLPC   H7X 7039   2.102   6.776   5.966  1.9814 -2.1724  2.0286
   77SLPC   H7Y 7040   1.926   6.765   5.926  0.0030 -0.1427 -2.3879
   77SLPC   C38 7041   2.017   6.581   5.905 -0.2059 -0.1128 -0.7935
   77SLPC   H8X 7042   1.932   6.516   5.933 -0.7941  1.6317  1.7943
   77SLPC   H8Y 7043   2.112   6.538   5.944 -0.5049 -0.4320 -0.4139
   77SLPC   C39 7044   2.050   6.593   5.755  0.1409  0.2896  0.5972
   77SLPC   H9X 7045   2.147   6.644   5.739 -0.6260  1.7045  0.2181
   77SLPC   H9Y 7046   1.966   6.649   5.707 -0.2108 -0.9209 -0.2390
   77SLPC  C310 7047   2.056   6.449   5.695  0.3104  0.0834 -0.3036
   77SLPC  H10X 7048   1.964   6.403   5.737  0.4918 -1.3408 -1.3731
   77SLPC  H10Y 7049   2.140   6.389   5.735  2.0114  2.3309 -0.3282
   77SLPC  C311 7050   2.060   6.449   5.539 -0.9266 -0.3224 -0.5414
   77SLPC  H11X 7051   2.152   6.503   5.508 -0.1677 -1.2119  0.1040
   77SLPC  H11Y 7052   1.978   6.494   5.479 -1.3958 -0.2892  0.1177
   77SLPC  C312 7053   2.085   6.308   5.484  0.0048  0.1508 -0.1226
   77SLPC  H12X 7054   2.020   6.237   5.539 -0.0033 -0.1991 -0.5678
   77SLPC  H12Y 7055   2.189   6.279   5.510  0.2988  1.8729  0.7629
   77SLPC  C313 7056   2.061   6.293   5.338 -0.7440  0.2285  0.0728
   77SLPC  H13X 7057   1.953   6.313   5.353 -0.6820 -1.8107  4.4934
   77SLPC  H13Y 7058   2.076   6.185   5.317 -0.3844  0.0076  1.4220
   77SLPC  C314 7059   2.144   6.381   5.242  0.7307 -0.7499 -0.1207
   77SLPC  H14X 7060   2.129   6.491   5.243  0.5078 -0.7572 -1.0577
   77SLPC  H14Y 7061   2.109   6.346   5.142  2.5572  1.3488 -1.5918
   77SLPC  C315 7062   2.298   6.342   5.236  0.5896 -0.0637  0.6197
   77SLPC  H15X 7063   2.311   6.232   5.236 -2.2523 -0.4804 -0.0340
   77SLPC  H15Y 7064   2.343   6.378   5.331  3.9384 -2.1627  0.0242
   77SLPC  C316 7065   2.379   6.422   5.123  0.4598 -0.2156  0.8493
   77SLPC  H16X 7066   2.356   6.531   5.123 -3.1829 -0.8482 -0.5989
   77SLPC  H16Y 7067   2.335   6.393   5.025 -0.0752  1.3782  0.5815
   77SLPC  C317 7068   2.534   6.394   5.143 -0.5133  0.1025  0.2248
   77SLPC  H17X 7069   2.562   6.287   5.152 -0.0757  0.1571 -0.4086
   77SLPC  H17Y 7070   2.563   6.441   5.239 -0.9873  3.1419 -0.9998
   77SLPC  C318 7071   2.623   6.445   5.025 -0.6113  0.2841 -0.7737
   77SLPC  H18X 7072   2.731   6.422   5.039  0.2981  3.1900 -2.1119
   77SLPC  H18Y 7073   2.608   6.554   5.008 -0.2395  0.3755 -0.5302
   77SLPC  H18Z 7074   2.594   6.390   4.933 -0.0871  3.8957 -3.2824
   78SLPC     N 7075   1.424   3.490   6.958  0.3003  0.3117  0.0693
   78SLPC   C13 7076   1.449   3.595   7.065 -0.2162  0.0115  0.2990
   78SLPC  H13A 7077   1.551   3.630   7.061  0.1305 -1.0630 -0.9858
   78SLPC  H13B 7078   1.379   3.675   7.041  0.5126  0.4984 -0.2671
   78SLPC  H13C 7079   1.420   3.562   7.163  2.1234 -0.1861  0.9850
   78SLPC   C14 7080   1.510   3.368   6.990  0.2927 -0.3003  0.7390
   78SLPC  H14A 7081   1.614   3.383   6.962  0.1249  0.0525  0.2935
   78SLPC  H14B 7082   1.491   3.337   7.092 -0.2040  0.8410  1.0012
   78SLPC  H14C 7083   1.472   3.289   6.927  0.5978 -0.5372  0.8477
   78SLPC   C15 7084   1.474   3.550   6.828 -0.9432  0.5951  0.9450
   78SLPC  H15A 7085   1.471   3.473   6.753  0.9306  0.1924  1.2202
   78SLPC  H15B 7086   1.422   3.639   6.794  1.8663  0.8110 -3.7828
   78SLPC  H15C 7087   1.579   3.571   6.842 -0.2786 -0.4133 -1.8650
   78SLPC   C12 7088   1.279   3.436   6.953 -0.0160 -0.7204  1.1420
   78SLPC  H12A 7089   1.281   3.359   6.877 -2.3682 -0.8154  1.1045
   78SLPC  H12B 7090   1.210   3.513   6.919  1.8495  1.8934  2.8813
   78SLPC   C11 7091   1.214   3.373   7.076 -0.4400  0.1743 -0.1634
   78SLPC  H11A 7092   1.276   3.294   7.123 -0.8137  0.3700  0.6808
   78SLPC  H11B 7093   1.121   3.324   7.042 -0.9490  1.6766 -1.0050
   78SLPC     P 7094   1.077   3.589   7.151 -0.2526 -0.0431 -0.4296
   78SLPC   O13 7095   0.960   3.555   7.239  0.3942 -0.3870 -0.0130
   78SLPC   O14 7096   1.143   3.715   7.177  0.1799  0.2401  0.6888
   78SLPC   O12 7097   1.184   3.474   7.174 -0.0482 -0.1953 -0.3919
   78SLPC   O11 7098   1.038   3.574   7.001 -0.3771  0.4816  0.0492
   78SLPC    C1 7099   0.968   3.682   6.930  0.5366  0.0401  0.0136
   78SLPC    HA 7100   0.870   3.641   6.898 -0.3240  0.3430  2.0834
   78SLPC    HB 7101   0.947   3.773   6.990  0.4475 -0.6468  1.0509
   78SLPC    C2 7102   1.041   3.730   6.803  0.0236  0.4667 -0.0215
   78SLPC    HS 7103   0.964   3.777   6.740 -0.2864 -0.9847 -0.7717
   78SLPC   O21 7104   1.101   3.620   6.733  0.0380 -0.5809 -0.0949
   78SLPC   C21 7105   1.010   3.563   6.649 -0.9488 -0.2362  0.3740
   78SLPC   O22 7106   0.893   3.589   6.648 -0.3662  0.0937  0.0028
   78SLPC   C22 7107   1.092   3.473   6.552  0.1512  0.0957  0.3772
   78SLPC   H2R 7108   1.170   3.539   6.508 -0.2777  0.1605 -0.3055
   78SLPC   H2S 7109   1.149   3.392   6.602 -0.1946 -1.1604 -1.1996
   78SLPC    C3 7110   1.148   3.835   6.840  0.3871  0.1924 -0.0210
   78SLPC    HX 7111   1.230   3.791   6.901  0.1283  0.7404  0.7304
   78SLPC    HY 7112   1.101   3.908   6.909  0.2243 -0.3800  0.4904
   78SLPC   O31 7113   1.185   3.906   6.724 -0.3501 -0.5001  0.1377
   78SLPC   C31 7114   1.305   3.894   6.675 -0.5677  0.1761  0.7916
   78SLPC   O32 7115   1.387   3.809   6.713 -0.3818  0.0664  0.1163
   78SLPC   C32 7116   1.327   4.001   6.563 -0.2933 -0.6931 -0.1393
   78SLPC   H2X 7117   1.427   4.015   6.516 -0.8773  0.0525 -1.1984
   78SLPC   H2Y 7118   1.308   4.099   6.611  3.7191  0.6699 -0.9828
   78SLPC   C23 7119   1.015   3.397   6.438 -0.4720 -0.2531  0.5238
   78SLPC   H3R 7120   0.938   3.460   6.390  1.6706  1.4591 -0.8432
   78SLPC   H3S 7121   0.958   3.317   6.489 -1.6307 -0.0282 -0.3958
   78SLPC   C24 7122   1.104   3.346   6.321  0.2264 -0.6685  0.4270
   78SLPC   H4R 7123   1.121   3.434   6.256 -0.4135 -1.5260 -0.9501
   78SLPC   H4S 7124   1.036   3.276   6.267  0.1388 -0.7205  0.6029
   78SLPC   C25 7125   1.235   3.266   6.350  0.0449 -0.3420 -0.0562
   78SLPC   H5R 7126   1.267   3.274   6.456  0.0099 -2.0249  0.1014
   78SLPC   H5S 7127   1.319   3.315   6.297 -0.6281 -0.2854 -1.1179
   78SLPC   C26 7128   1.228   3.122   6.308  0.3517  0.2142  0.9728
   78SLPC   H6R 7129   1.209   3.118   6.199 -3.1650 -1.6118  1.5216
   78SLPC   H6S 7130   1.137   3.093   6.365 -1.5611  2.0198 -0.9819
   78SLPC   C27 7131   1.351   3.039   6.337 -0.0125 -0.1246 -0.2001
   78SLPC   H7R 7132   1.315   2.951   6.394 -1.6421 -0.3697 -1.5596
   78SLPC   H7S 7133   1.419   3.087   6.411  1.6160 -2.3672 -0.1267
   78SLPC   C28 7134   1.433   2.995   6.210 -0.0233  0.1111 -0.0458
   78SLPC   H8R 7135   1.361   2.948   6.140  0.9897 -0.8244 -0.4912
   78SLPC   H8S 7136   1.509   2.918   6.235  0.7787  0.7368 -0.5352
   78SLPC   C29 7137   1.488   3.107   6.124 -0.4950  0.2780  0.3487
   78SLPC   H9R 7138   1.414   3.179   6.087 -1.8797 -1.7057 -0.8889
   78SLPC  C210 7139   1.617   3.124   6.080 -0.1123 -0.2017  0.0451
   78SLPC  H10R 7140   1.639   3.220   6.032 -1.6926 -0.7500 -1.8864
   78SLPC  C211 7141   1.735   3.038   6.116 -0.2863  0.5595 -0.8179
   78SLPC  H11R 7142   1.704   2.933   6.099 -1.9665  0.5543  1.6142
   78SLPC  H11S 7143   1.744   3.041   6.227 -0.1366 -1.8421 -0.7144
   78SLPC  C212 7144   1.859   3.075   6.039  1.2052 -0.3828 -0.6034
   78SLPC  H12R 7145   1.929   3.144   6.088 -1.1614  1.2646  0.6516
   78SLPC  C213 7146   1.881   3.049   5.911  0.2404  0.1616  0.2781
   78SLPC  H13R 7147   1.966   3.086   5.853  1.2110 -0.9791  0.9271
   78SLPC  C214 7148   1.787   2.958   5.835 -0.5606  0.1711  0.4013
   78SLPC  H14R 7149   1.681   2.978   5.860 -0.3617 -0.2230  1.6054
   78SLPC  H14S 7150   1.808   2.850   5.851  2.8968  0.6047 -0.4370
   78SLPC  C215 7151   1.826   2.970   5.685  0.3728 -0.6834 -0.5345
   78SLPC  H15R 7152   1.936   2.968   5.669  0.4360  1.4255 -0.6626
   78SLPC  H15S 7153   1.788   3.068   5.649  2.3875 -0.3371 -1.9502
   78SLPC  C216 7154   1.763   2.862   5.600  0.5583 -0.0882  0.5497
   78SLPC  H16R 7155   1.661   2.852   5.642  0.5467  0.1432  0.5832
   78SLPC  H16S 7156   1.823   2.770   5.611 -0.2129 -1.2866 -3.5941
   78SLPC  C217 7157   1.765   2.898   5.454 -0.0028 -0.1802  0.1392
   78SLPC  H17R 7158   1.711   2.820   5.397  0.9417 -0.9908  0.3467
   78SLPC  H17S 7159   1.870   2.888   5.418  0.3433  0.7344  0.8355
   78SLPC  C218 7160   1.699   3.034   5.408 -0.6195 -0.2151 -0.8444
   78SLPC  H18R 7161   1.599   3.053   5.453 -0.9457  2.6196 -2.5318
   78SLPC  H18S 7162   1.680   3.043   5.299 -0.3017  0.3562 -0.8533
   78SLPC  H18T 7163   1.759   3.119   5.443 -1.8633 -0.5546  2.4169
   78SLPC   C33 7164   1.212   3.970   6.461  0.0550 -0.5505  0.0407
   78SLPC   H3X 7165   1.202   4.069   6.412  1.3623  0.2581  1.3305
   78SLPC   H3Y 7166   1.115   3.947   6.511  0.8317 -2.1379  0.9180
   78SLPC   C34 7167   1.248   3.852   6.369  0.2494  0.0488 -0.3420
   78SLPC   H4X 7168   1.259   3.755   6.423  2.2773 -0.1914 -1.1075
   78SLPC   H4Y 7169   1.341   3.887   6.319 -0.0972  1.4707 -0.0341
   78SLPC   C35 7170   1.148   3.836   6.253  0.5173 -0.2237 -0.4675
   78SLPC   H5X 7171   1.136   3.931   6.196 -0.1605 -0.0582 -0.0537
   78SLPC   H5Y 7172   1.049   3.828   6.302  1.2811  2.7585  1.9128
   78SLPC   C36 7173   1.194   3.719   6.167  0.3487 -0.5802  0.6279
   78SLPC   H6X 7174   1.225   3.642   6.240 -0.1123 -0.7521  0.6461
   78SLPC   H6Y 7175   1.284   3.752   6.110 -1.4024 -0.3973 -2.1988
   78SLPC   C37 7176   1.091   3.672   6.071  0.1589  0.2264  0.0032
   78SLPC   H7X 7177   0.999   3.655   6.131  1.1035  1.4752  1.9022
   78SLPC   H7Y 7178   1.120   3.570   6.037  0.5995  0.0157  1.0046
   78SLPC   C38 7179   1.066   3.758   5.951 -0.2355  0.0611 -0.4175
   78SLPC   H8X 7180   1.167   3.791   5.917  0.5659 -1.0552  0.7971
   78SLPC   H8Y 7181   1.001   3.845   5.975  0.6758  0.8026 -0.5714
   78SLPC   C39 7182   0.999   3.678   5.836  0.5021 -0.2552  0.3705
   78SLPC   H9X 7183   0.900   3.637   5.866  0.7299 -0.3586  1.0094
   78SLPC   H9Y 7184   1.064   3.599   5.793 -0.7360 -1.9298  1.4326
   78SLPC  C310 7185   0.967   3.782   5.731 -0.0766 -0.1557 -0.3829
   78SLPC  H10X 7186   1.048   3.858   5.726 -0.8365  0.6828 -0.1125
   78SLPC  H10Y 7187   0.880   3.844   5.762  1.7723  1.7120  1.4124
   78SLPC  C311 7188   0.945   3.730   5.586 -0.2832  0.6750 -0.0765
   78SLPC  H11X 7189   0.864   3.655   5.599  0.9194 -0.4922  0.8606
   78SLPC  H11Y 7190   1.038   3.675   5.561 -1.5776 -0.6340 -2.3109
   78SLPC  C312 7191   0.922   3.838   5.481  0.2524 -0.3725 -0.6729
   78SLPC  H12X 7192   1.016   3.889   5.450  1.0490 -0.1429  1.8759
   78SLPC  H12Y 7193   0.852   3.914   5.521  2.3234  0.6073  1.3231
   78SLPC  C313 7194   0.862   3.775   5.351  0.6645  0.1353 -0.1098
   78SLPC  H13X 7195   0.779   3.840   5.316 -0.4283 -1.5875 -0.8196
   78SLPC  H13Y 7196   0.803   3.686   5.379  0.2615  0.5737  0.4446
   78SLPC  C314 7197   0.960   3.749   5.238  0.0765 -0.1483 -0.2350
   78SLPC  H14X 7198   1.028   3.669   5.274  0.3977  0.1224 -0.2248
   78SLPC  H14Y 7199   1.028   3.834   5.215  0.1928 -0.5015 -1.2419
   78SLPC  C315 7200   0.896   3.693   5.109 -0.2039  1.3003  0.2107
   78SLPC  H15X 7201   0.812   3.759   5.079 -1.7888  0.0090  1.5763
   78SLPC  H15Y 7202   0.846   3.595   5.128 -0.9000  1.6505  0.1949
   78SLPC  C316 7203   1.006   3.676   5.003  0.3143  0.3439  0.0380
   78SLPC  H16X 7204   1.041   3.573   5.028  0.8673  0.2861 -0.9248
   78SLPC  H16Y 7205   1.090   3.748   5.009  0.1979  0.6366 -1.4765
   78SLPC  C317 7206   0.951   3.658   4.858 -0.5597  0.3478 -0.2889
   78SLPC  H17X 7207   0.879   3.573   4.862 -2.1110  1.6668  1.6728
   78SLPC  H17Y 7208   1.035   3.641   4.787 -0.8647 -0.0478 -0.5584
   78SLPC  C318 7209   0.871   3.777   4.809 -0.3908 -0.7219 -0.2477
   78SLPC  H18X 7210   0.768   3.761   4.848 -0.3316 -0.6371 -0.0564
   78SLPC  H18Y 7211   0.878   3.774   4.698 -0.2621  1.0801 -0.3226
   78SLPC  H18Z 7212   0.929   3.860   4.854 -1.0365 -0.0780 -0.5815
   79SLPC     N 7213   3.953   6.499   7.374  0.1615  0.0085 -0.8807
   79SLPC   C13 7214   4.012   6.370   7.328  0.7600 -0.7616  0.1715
   79SLPC  H13A 7215   4.072   6.379   7.239 -1.2096  1.1808 -1.0926
   79SLPC  H13B 7216   4.061   6.318   7.408 -0.1401 -1.8820  0.0288
   79SLPC  H13C 7217   3.938   6.297   7.298 -1.4126  1.2328  0.3067
   79SLPC   C14 7218   4.061   6.595   7.414  0.6063  0.4638 -0.1724
   79SLPC  H14A 7219   4.122   6.559   7.495 -0.9423 -0.9192  0.4165
   79SLPC  H14B 7220   4.123   6.616   7.328 -0.6588  2.0265 -0.7672
   79SLPC  H14C 7221   4.023   6.692   7.445 -0.6895  0.2406 -0.9910
   79SLPC   C15 7222   3.869   6.479   7.501  0.4588 -0.0777  0.0320
   79SLPC  H15A 7223   3.827   6.575   7.527 -1.3737 -1.3184  1.9461
   79SLPC  H15B 7224   3.782   6.419   7.478  0.0045  0.9500 -1.0357
   79SLPC  H15C 7225   3.938   6.449   7.579  1.2622  0.7089 -0.3565
   79SLPC   C12 7226   3.864   6.558   7.265  0.3428  0.6327 -0.3807
   79SLPC  H12A 7227   3.929   6.581   7.182  1.3516 -0.2206  0.1431
   79SLPC  H12B 7228   3.823   6.650   7.305  2.9604  1.8654 -0.3354
   79SLPC   C11 7229   3.749   6.474   7.200 -0.1239 -0.3551  0.1532
   79SLPC  H11A 7230   3.788   6.374   7.169 -1.2489 -0.7232 -0.1049
   79SLPC  H11B 7231   3.709   6.536   7.116  1.7617  0.2528 -0.3613
   79SLPC     P 7232   3.517   6.384   7.262 -0.4322 -0.1226  0.0397
   79SLPC   O13 7233   3.552   6.246   7.235 -0.1251  0.2209 -0.4601
   79SLPC   O14 7234   3.417   6.418   7.368 -0.1553 -0.4485 -0.1547
   79SLPC   O12 7235   3.649   6.465   7.298 -0.1903  0.1569  0.0945
   79SLPC   O11 7236   3.470   6.440   7.122  0.2925  0.3505  0.3579
   79SLPC    C1 7237   3.401   6.566   7.104  0.0236 -0.2029  0.1391
   79SLPC    HA 7238   3.393   6.622   7.200 -1.9845  1.1861 -0.7698
   79SLPC    HB 7239   3.454   6.621   7.023 -2.4621 -1.2601 -2.3477
   79SLPC    C2 7240   3.257   6.547   7.057 -0.5665  0.0365 -0.0938
   79SLPC    HS 7241   3.208   6.473   7.124  1.2888 -0.4821  0.7626
   79SLPC   O21 7242   3.263   6.498   6.922  0.5803 -0.2653  0.1395
   79SLPC   C21 7243   3.170   6.405   6.884  0.1718 -0.2229  0.3615
   79SLPC   O22 7244   3.088   6.353   6.955 -0.0355  0.2679 -0.0429
   79SLPC   C22 7245   3.184   6.367   6.736 -0.7421  0.0604  0.2868
   79SLPC   H2R 7246   3.174   6.463   6.680  1.7852  0.9879  1.3163
   79SLPC   H2S 7247   3.288   6.339   6.711 -1.2706 -0.9187 -0.9323
   79SLPC    C3 7248   3.176   6.678   7.065  0.8262  0.9207 -0.1858
   79SLPC    HX 7249   3.218   6.749   6.992 -1.2181  1.6825 -0.6984
   79SLPC    HY 7250   3.181   6.714   7.170  0.8532  0.0194  0.1312
   79SLPC   O31 7251   3.031   6.659   7.029  0.4324  0.4732  0.1986
   79SLPC   C31 7252   2.960   6.771   7.010 -0.0017 -0.1261  0.2415
   79SLPC   O32 7253   3.001   6.881   7.033 -0.7847  0.2859 -0.6770
   79SLPC   C32 7254   2.823   6.735   6.947  0.2029  0.2028 -0.1860
   79SLPC   H2X 7255   2.772   6.832   6.928  1.9332  1.2209  0.0273
   79SLPC   H2Y 7256   2.767   6.677   7.023 -0.4729 -1.9832 -2.2589
   79SLPC   C23 7257   3.100   6.239   6.710  0.0870 -0.1399  0.2882
   79SLPC   H3R 7258   2.991   6.242   6.733  0.2129  1.0564  0.7980
   79SLPC   H3S 7259   3.139   6.149   6.762 -0.5682 -0.6355 -0.0512
   79SLPC   C24 7260   3.112   6.187   6.567 -0.3437  0.2232 -0.3300
   79SLPC   H4R 7261   3.042   6.101   6.555 -0.4101  0.4762 -1.9765
   79SLPC   H4S 7262   3.216   6.149   6.557 -0.0737 -0.1046  2.8065
   79SLPC   C25 7263   3.089   6.295   6.457 -0.4072 -0.8420 -0.1230
   79SLPC   H5R 7264   3.156   6.382   6.473 -0.4083 -0.5765 -1.4398
   79SLPC   H5S 7265   2.984   6.330   6.453  0.1878  0.9430 -0.9488
   79SLPC   C26 7266   3.116   6.234   6.318  0.6041  0.1112 -0.0160
   79SLPC   H6R 7267   3.058   6.140   6.308  0.1012  0.1531  2.0170
   79SLPC   H6S 7268   3.222   6.204   6.306  1.0669  1.2277  0.9863
   79SLPC   C27 7269   3.079   6.335   6.208  0.3398  0.8065  0.3732
   79SLPC   H7R 7270   3.106   6.436   6.246 -0.9995  0.9407  1.0075
   79SLPC   H7S 7271   2.970   6.355   6.203  0.1551  0.0673  1.2454
   79SLPC   C28 7272   3.128   6.300   6.069  0.0098  0.2061  0.4142
   79SLPC   H8R 7273   3.239   6.300   6.073 -0.0180  0.2976  1.3428
   79SLPC   H8S 7274   3.104   6.382   5.998  1.8337 -0.7307 -1.3949
   79SLPC   C29 7275   3.067   6.172   6.008  0.5788 -0.6073 -0.3464
   79SLPC   H9R 7276   2.988   6.126   6.070 -0.2198  2.1032  0.8147
   79SLPC  C210 7277   3.096   6.125   5.888  0.1173 -0.2094  0.9430
   79SLPC  H10R 7278   3.038   6.037   5.854 -1.3895  0.0377  2.7284
   79SLPC  C211 7279   3.208   6.180   5.801  0.2761  0.4844 -0.0635
   79SLPC  H11R 7280   3.253   6.083   5.770 -0.6370  0.1119 -0.2408
   79SLPC  H11S 7281   3.276   6.235   5.869 -0.6918 -0.7624  2.0388
   79SLPC  C212 7282   3.162   6.269   5.689  0.0057  1.0281 -0.3083
   79SLPC  H12R 7283   3.111   6.359   5.726  3.2283  2.7491  0.3833
   79SLPC  C213 7284   3.188   6.258   5.562 -0.3790 -0.0788  0.4166
   79SLPC  H13R 7285   3.145   6.328   5.489  0.6524 -0.4508 -0.5855
   79SLPC  C214 7286   3.274   6.152   5.493 -0.0192 -0.2088  0.3341
   79SLPC  H14R 7287   3.203   6.093   5.432 -0.0045 -1.1885  1.2384
   79SLPC  H14S 7288   3.318   6.082   5.568 -0.8731 -0.1691  0.8878
   79SLPC  C215 7289   3.385   6.208   5.402 -0.8478  0.6309 -0.8585
   79SLPC  H15R 7290   3.350   6.301   5.351 -0.6238  0.6256 -1.0232
   79SLPC  H15S 7291   3.418   6.126   5.334  2.1160  3.1719 -2.7796
   79SLPC  C216 7292   3.513   6.229   5.483  0.5143  0.3806  0.1954
   79SLPC  H16R 7293   3.544   6.130   5.524  0.3858 -0.3104 -1.3061
   79SLPC  H16S 7294   3.496   6.282   5.579  0.2362 -0.2478  0.5065
   79SLPC  C217 7295   3.616   6.296   5.400 -1.0049 -0.1100  0.4234
   79SLPC  H17R 7296   3.571   6.385   5.350 -0.8279 -1.6226 -2.6371
   79SLPC  H17S 7297   3.641   6.231   5.314 -1.4955  0.2934 -0.0314
   79SLPC  C218 7298   3.737   6.322   5.483  0.1822 -0.0695  0.4236
   79SLPC  H18R 7299   3.816   6.377   5.428  0.1242  0.6065  0.9934
   79SLPC  H18S 7300   3.775   6.226   5.523 -3.2024 -1.2850  1.0439
   79SLPC  H18T 7301   3.718   6.393   5.567 -0.7930 -0.9681  0.9872
   79SLPC   C33 7302   2.826   6.653   6.813  0.5855  0.2596 -0.2995
   79SLPC   H3X 7303   2.730   6.601   6.836  0.6583  0.4844  0.5490
   79SLPC   H3Y 7304   2.904   6.575   6.806  0.2003 -0.0090 -1.8561
   79SLPC   C34 7305   2.833   6.737   6.690  0.5546 -0.1784 -0.7417
   79SLPC   H4X 7306   2.930   6.791   6.697 -0.5695  2.0080 -1.0874
   79SLPC   H4Y 7307   2.746   6.806   6.687 -1.3997 -2.4952 -3.5265
   79SLPC   C35 7308   2.840   6.648   6.565 -0.2155 -0.0906  0.7236
   79SLPC   H5X 7309   2.743   6.596   6.549 -0.6749  1.0521 -0.3673
   79SLPC   H5Y 7310   2.914   6.567   6.578 -0.7226 -0.4915  1.1547
   79SLPC   C36 7311   2.867   6.716   6.427  0.3018 -0.2251  0.1293
   79SLPC   H6X 7312   2.971   6.755   6.424  0.8295 -1.4531 -4.5091
   79SLPC   H6Y 7313   2.799   6.804   6.422 -0.2370 -0.4627  2.2069
   79SLPC   C37 7314   2.829   6.626   6.313 -0.9324  0.0548 -0.3689
   79SLPC   H7X 7315   2.720   6.605   6.319 -0.5455 -1.5815  2.2847
   79SLPC   H7Y 7316   2.884   6.530   6.326 -0.5068  0.6653  3.5570
   79SLPC   C38 7317   2.862   6.688   6.183 -0.1084 -0.1403 -0.0938
   79SLPC   H8X 7318   2.967   6.718   6.165 -0.7375  1.3505 -1.4701
   79SLPC   H8Y 7319   2.798   6.778   6.176 -2.7381 -1.9009 -0.6289
   79SLPC   C39 7320   2.810   6.593   6.065 -0.3465  0.1064 -0.5117
   79SLPC   H9X 7321   2.705   6.620   6.039  0.3446  0.7308 -3.0126
   79SLPC   H9Y 7322   2.818   6.486   6.093 -0.8739 -0.1589 -1.3114
   79SLPC  C310 7323   2.886   6.606   5.930 -0.6895  0.7229  0.2677
   79SLPC  H10X 7324   2.992   6.587   5.958 -0.6055 -0.9529 -1.0450
   79SLPC  H10Y 7325   2.866   6.712   5.908  1.1834  1.1711  0.5611
   79SLPC  C311 7326   2.837   6.511   5.825 -0.7336  1.0509  0.4086
   79SLPC  H11X 7327   2.727   6.523   5.817 -0.5382  1.9745 -1.4998
   79SLPC  H11Y 7328   2.847   6.404   5.854  1.0771  0.0466 -3.2602
   79SLPC  C312 7329   2.910   6.535   5.689  0.7091 -0.0502 -0.5529
   79SLPC  H12X 7330   3.020   6.520   5.699  0.5016 -1.3954  0.0086
   79SLPC  H12Y 7331   2.910   6.642   5.661 -0.7007  1.0006  2.8980
   79SLPC  C313 7332   2.865   6.440   5.579 -0.4351 -0.3157 -0.0184
   79SLPC  H13X 7333   2.755   6.432   5.567 -0.2800 -2.1459 -0.6267
   79SLPC  H13Y 7334   2.885   6.336   5.615 -2.3175 -0.2948  1.2142
   79SLPC  C314 7335   2.917   6.477   5.438 -0.8243  0.3044 -0.3914
   79SLPC  H14X 7336   3.018   6.524   5.442 -0.8994  0.4189  0.3185
   79SLPC  H14Y 7337   2.859   6.565   5.405  0.7470  1.4991 -0.0814
   79SLPC  C315 7338   2.907   6.364   5.333 -0.8792  0.3150 -0.0599
   79SLPC  H15X 7339   2.804   6.339   5.300  0.1755 -0.6979 -3.0010
   79SLPC  H15Y 7340   2.940   6.270   5.382 -0.9361  1.6469  2.7129
   79SLPC  C316 7341   3.001   6.402   5.222 -0.2767 -0.4013  0.3269
   79SLPC  H16X 7342   3.109   6.402   5.248 -0.0140 -0.5572 -0.7002
   79SLPC  H16Y 7343   2.975   6.501   5.180  1.6611 -0.6271 -1.5751
   79SLPC  C317 7344   2.987   6.291   5.115  0.0169  0.2760  0.7336
   79SLPC  H17X 7345   3.041   6.336   5.029 -0.2829 -1.8069 -0.6072
   79SLPC  H17Y 7346   2.881   6.279   5.085  0.1884 -0.2627  0.3362
   79SLPC  C318 7347   3.069   6.161   5.149  0.4497  0.0735 -0.0478
   79SLPC  H18X 7348   3.174   6.198   5.151  0.3052  0.4652  1.4965
   79SLPC  H18Y 7349   3.067   6.082   5.072  1.4332 -0.0246  0.0208
   79SLPC  H18Z 7350   3.053   6.121   5.252 -0.0556 -0.9413 -0.5064
   80SLPC     N 7351   2.049   3.863   7.645  0.7651 -0.1421 -0.1462
   80SLPC   C13 7352   2.177   3.861   7.728  0.4785  0.7252  0.2249
   80SLPC  H13A 7353   2.232   3.944   7.687  3.3497 -0.9583  0.4345
   80SLPC  H13B 7354   2.165   3.891   7.831  0.4180 -0.3511  0.5481
   80SLPC  H13C 7355   2.245   3.778   7.715  0.8303  0.7454  1.8052
   80SLPC   C14 7356   1.948   3.970   7.688  0.3051  0.1067  0.0881
   80SLPC  H14A 7357   1.923   3.957   7.792  1.3908  1.4102  0.5513
   80SLPC  H14B 7358   2.000   4.064   7.677  2.2668 -0.8879  0.3057
   80SLPC  H14C 7359   1.860   3.972   7.626  0.8949 -0.1651 -0.7639
   80SLPC   C15 7360   1.974   3.731   7.656 -0.2571  0.5598  0.6220
   80SLPC  H15A 7361   1.877   3.738   7.609 -0.2586  1.3576  0.7193
   80SLPC  H15B 7362   2.027   3.660   7.594 -0.1896  0.1919  1.0996
   80SLPC  H15C 7363   1.963   3.694   7.756 -1.3727 -1.4536 -0.1930
   80SLPC   C12 7364   2.081   3.882   7.503  0.2125 -0.3568 -0.2565
   80SLPC  H12A 7365   1.993   3.850   7.449  0.2162  0.2430 -0.6288
   80SLPC  H12B 7366   2.158   3.810   7.477  0.9877  0.3839 -0.0703
   80SLPC   C11 7367   2.132   4.022   7.449 -0.1870  0.0408  0.1809
   80SLPC  H11A 7368   2.041   4.082   7.429  0.6590  1.6651  0.9488
   80SLPC  H11B 7369   2.172   4.023   7.345 -1.8541 -2.5752 -0.5721
   80SLPC     P 7370   2.369   4.127   7.521  0.3268  0.1289  0.0226
   80SLPC   O13 7371   2.398   4.257   7.583 -0.1533  0.1872  0.2020
   80SLPC   O14 7372   2.452   4.009   7.548 -0.0812 -0.7782  0.2925
   80SLPC   O12 7373   2.220   4.089   7.544  0.0252  0.1551  0.3212
   80SLPC   O11 7374   2.369   4.143   7.363  0.5798  0.2991  0.4976
   80SLPC    C1 7375   2.490   4.143   7.292 -0.3020 -0.1539  0.5075
   80SLPC    HA 7376   2.547   4.238   7.303  3.1422 -2.0315  0.3699
   80SLPC    HB 7377   2.560   4.062   7.323  0.2148  0.5209  1.1435
   80SLPC    C2 7378   2.469   4.125   7.141 -0.2195 -0.2134 -0.0504
   80SLPC    HS 7379   2.388   4.191   7.102  0.2933  0.9728  0.8304
   80SLPC   O21 7380   2.437   3.981   7.118 -0.3280 -0.1417  0.2074
   80SLPC   C21 7381   2.335   3.958   7.035  0.3190  0.5814 -0.0496
   80SLPC   O22 7382   2.261   4.044   6.981  0.2246 -0.0579 -0.2425
   80SLPC   C22 7383   2.310   3.809   7.010  0.1270 -0.1760 -0.3573
   80SLPC   H2R 7384   2.378   3.747   7.073 -0.9652  0.6302  1.7316
   80SLPC   H2S 7385   2.210   3.776   7.046 -1.1903  2.5931 -1.2113
   80SLPC    C3 7386   2.589   4.164   7.053 -0.1046  0.0401  0.4439
   80SLPC    HX 7387   2.669   4.089   7.072 -1.7390 -2.4622 -1.6920
   80SLPC    HY 7388   2.641   4.258   7.080  0.7097  0.0508 -1.0049
   80SLPC   O31 7389   2.559   4.160   6.907 -0.1012 -0.2600 -0.1138
   80SLPC   C31 7390   2.496   4.278   6.872  0.6497  0.0427 -0.1212
   80SLPC   O32 7391   2.476   4.374   6.947 -0.0497  0.4712 -0.1104
   80SLPC   C32 7392   2.446   4.264   6.730  0.6721  0.2576 -0.6366
   80SLPC   H2X 7393   2.381   4.353   6.713 -0.5898 -0.2359  1.2498
   80SLPC   H2Y 7394   2.378   4.177   6.712 -0.1098  0.5640  0.7043
   80SLPC   C23 7395   2.328   3.780   6.861  0.8823 -0.6055 -0.3105
   80SLPC   H3R 7396   2.269   3.853   6.801 -0.7408  0.3163  2.2349
   80SLPC   H3S 7397   2.274   3.682   6.855  1.1945 -0.7003 -2.4592
   80SLPC   C24 7398   2.460   3.769   6.795 -0.2862 -0.2816  0.4651
   80SLPC   H4R 7399   2.516   3.687   6.844 -1.0602 -0.6563  0.7463
   80SLPC   H4S 7400   2.528   3.857   6.800  0.6165 -0.8342 -1.3609
   80SLPC   C25 7401   2.451   3.735   6.647 -0.0060 -0.0442 -0.0870
   80SLPC   H5R 7402   2.417   3.819   6.583  0.7213 -0.1412 -0.6085
   80SLPC   H5S 7403   2.381   3.650   6.647 -1.1127  0.8093  1.4245
   80SLPC   C26 7404   2.593   3.688   6.592  0.5322 -0.5157  0.0008
   80SLPC   H6R 7405   2.653   3.645   6.676  0.3042  0.4763  0.6832
   80SLPC   H6S 7406   2.639   3.784   6.564 -1.3111  0.2495 -0.5709
   80SLPC   C27 7407   2.588   3.592   6.475 -0.5591 -0.4081 -0.4575
   80SLPC   H7R 7408   2.517   3.633   6.399 -0.0373  1.3080 -0.0742
   80SLPC   H7S 7409   2.537   3.500   6.510 -2.7735  1.6997  2.3175
   80SLPC   C28 7410   2.723   3.542   6.421  0.5406  0.0799  0.3118
   80SLPC   H8R 7411   2.709   3.446   6.366  1.7189 -0.1194  0.3376
   80SLPC   H8S 7412   2.785   3.522   6.511 -0.4916 -0.9781  0.8297
   80SLPC   C29 7413   2.796   3.639   6.327  0.1868 -0.2324 -0.0589
   80SLPC   H9R 7414   2.855   3.717   6.376 -0.9139  1.1514 -0.8568
   80SLPC  C210 7415   2.799   3.632   6.191  0.0082  0.0805 -0.1703
   80SLPC  H10R 7416   2.863   3.703   6.137  0.2924 -1.0550 -1.3704
   80SLPC  C211 7417   2.728   3.529   6.105 -0.4370  0.2221 -0.0991
   80SLPC  H11R 7418   2.619   3.536   6.089 -0.5078  3.7571  1.1109
   80SLPC  H11S 7419   2.758   3.433   6.154  3.6419  1.8562  1.0317
   80SLPC  C212 7420   2.770   3.529   5.961  0.0006 -0.7377  0.2627
   80SLPC  H12R 7421   2.828   3.444   5.923  0.8554  0.6472 -1.7078
   80SLPC  C213 7422   2.777   3.630   5.875  0.9619  0.0197 -0.1168
   80SLPC  H13R 7423   2.810   3.599   5.775  1.0278 -3.2565  0.8163
   80SLPC  C214 7424   2.717   3.767   5.896  0.7781 -0.2262 -0.2006
   80SLPC  H14R 7425   2.778   3.849   5.854 -0.6991  3.0323  3.3777
   80SLPC  H14S 7426   2.720   3.792   6.004  1.9296 -3.2114  0.5489
   80SLPC  C215 7427   2.570   3.793   5.863 -0.8260  0.4277 -0.3762
   80SLPC  H15R 7428   2.550   3.902   5.876  2.4670  0.9447  1.4992
   80SLPC  H15S 7429   2.508   3.735   5.936 -1.5531  0.6838 -0.7808
   80SLPC  C216 7430   2.521   3.767   5.721 -0.1780  0.9121  0.2674
   80SLPC  H16R 7431   2.544   3.663   5.688  1.3413  1.6843 -1.3110
   80SLPC  H16S 7432   2.576   3.835   5.651  1.7128 -1.9292 -1.1991
   80SLPC  C217 7433   2.375   3.800   5.711 -0.4148  0.4508 -0.1344
   80SLPC  H17R 7434   2.366   3.910   5.726 -1.0419  0.4803 -0.6618
   80SLPC  H17S 7435   2.314   3.749   5.788 -3.3702  2.6960 -0.7672
   80SLPC  C218 7436   2.315   3.763   5.573  0.0140 -0.1128  0.1224
   80SLPC  H18R 7437   2.345   3.837   5.496 -0.7735  1.4614  1.2559
   80SLPC  H18S 7438   2.205   3.777   5.581  0.2824  1.6473  1.6031
   80SLPC  H18T 7439   2.332   3.658   5.542 -2.4725 -0.5920  0.1654
   80SLPC   C33 7440   2.556   4.278   6.618 -0.1570  0.5171 -0.0915
   80SLPC   H3X 7441   2.628   4.360   6.638  0.7446  0.8338 -3.8987
   80SLPC   H3Y 7442   2.496   4.284   6.525  1.8405 -1.6820 -1.6098
   80SLPC   C34 7443   2.634   4.151   6.600 -0.4015  0.7367 -0.0573
   80SLPC   H4X 7444   2.556   4.072   6.596 -1.2377  1.5725 -0.8249
   80SLPC   H4Y 7445   2.689   4.128   6.694  2.2037  1.3263 -1.3613
   80SLPC   C35 7446   2.722   4.154   6.478 -0.0502 -0.0166  0.0910
   80SLPC   H5X 7447   2.786   4.063   6.479  1.1904  0.8224  0.1122
   80SLPC   H5Y 7448   2.789   4.243   6.474  1.2163 -0.9659 -0.3060
   80SLPC   C36 7449   2.647   4.137   6.340 -0.0214 -0.8635 -0.5541
   80SLPC   H6X 7450   2.708   4.140   6.247  0.0890  1.3291 -0.4719
   80SLPC   H6Y 7451   2.579   4.225   6.333  0.6996 -0.3038 -0.6471
   80SLPC   C37 7452   2.565   4.001   6.331 -1.1623  0.2562 -0.0064
   80SLPC   H7X 7453   2.509   3.994   6.426  1.3027 -0.7182  1.4615
   80SLPC   H7Y 7454   2.638   3.917   6.331 -0.1769  0.9785  3.1983
   80SLPC   C38 7455   2.492   3.997   6.197 -0.6336 -0.1821  0.2726
   80SLPC   H8X 7456   2.562   3.997   6.110 -0.8161 -0.5131  0.1261
   80SLPC   H8Y 7457   2.433   4.090   6.181  0.6444  0.2781 -2.3349
   80SLPC   C39 7458   2.412   3.866   6.175 -0.1331  0.3225  0.1347
   80SLPC   H9X 7459   2.477   3.776   6.172  0.1094  0.5231 -1.6608
   80SLPC   H9Y 7460   2.358   3.879   6.079 -0.5036 -2.0954 -0.0326
   80SLPC  C310 7461   2.300   3.843   6.282  0.6347  0.1462  0.6235
   80SLPC  H10X 7462   2.242   3.938   6.286  0.5128  0.0421  2.5207
   80SLPC  H10Y 7463   2.345   3.838   6.384 -0.3413  2.1982  1.2167
   80SLPC  C311 7464   2.222   3.712   6.264 -0.0127  0.0767  0.2489
   80SLPC  H11X 7465   2.153   3.687   6.347 -0.7844  1.1883 -0.0344
   80SLPC  H11Y 7466   2.304   3.637   6.267 -0.4876 -0.4371  0.5295
   80SLPC  C312 7467   2.132   3.721   6.134  0.7768  0.1760  0.7593
   80SLPC  H12X 7468   2.191   3.775   6.057  0.1093  0.9284  0.7615
   80SLPC  H12Y 7469   2.052   3.793   6.159  2.0635  1.7343  0.5295
   80SLPC  C313 7470   2.074   3.597   6.073  0.1540  0.3464 -0.2054
   80SLPC  H13X 7471   2.005   3.540   6.138 -0.8515  1.3808 -0.3403
   80SLPC  H13Y 7472   2.162   3.535   6.045  0.1294  1.1701 -2.2840
   80SLPC  C314 7473   1.995   3.630   5.947 -0.3922 -0.1363  0.4089
   80SLPC  H14X 7474   2.047   3.700   5.879 -0.3006 -1.6120 -1.0850
   80SLPC  H14Y 7475   1.902   3.686   5.971 -0.0559  0.5482  0.1402
   80SLPC  C315 7476   1.943   3.507   5.864 -0.1717  0.0773 -0.6991
   80SLPC  H15X 7477   1.872   3.457   5.934  1.9635 -0.3803  1.2450
   80SLPC  H15Y 7478   2.028   3.440   5.837 -0.8801 -1.0065 -0.3148
   80SLPC  C316 7479   1.903   3.557   5.726  0.2800  0.5389  0.0665
   80SLPC  H16X 7480   1.974   3.632   5.685  0.6147 -0.3827 -1.0724
   80SLPC  H16Y 7481   1.808   3.616   5.725  0.2875  0.5518  0.1069
   80SLPC  C317 7482   1.894   3.447   5.621 -0.3097  0.0515  0.9938
   80SLPC  H17X 7483   1.838   3.359   5.660 -2.8810 -0.1612 -2.6868
   80SLPC  H17Y 7484   2.001   3.420   5.608 -0.9165 -2.6940  1.0207
   80SLPC  C318 7485   1.828   3.493   5.486  0.5362  0.2362 -0.2725
   80SLPC  H18X 7486   1.884   3.576   5.439 -1.1191  1.0412 -0.8787
   80SLPC  H18Y 7487   1.721   3.520   5.497 -0.1212 -1.7193 -1.2842
   80SLPC  H18Z 7488   1.832   3.401   5.423  1.2418  0.0919 -0.0278
   81SLPC     N 7489   5.239   6.096   2.599  0.2293  0.1611 -0.1294
   81SLPC   C13 7490   5.275   5.953   2.630  0.7149 -0.3966  0.2810
   81SLPC  H13A 7491   5.287   5.898   2.538 -0.4180  1.3928 -1.0181
   81SLPC  H13B 7492   5.362   5.944   2.693 -0.3085 -2.8184  1.4676
   81SLPC  H13C 7493   5.200   5.901   2.687 -1.4337  1.8789 -0.2765
   81SLPC   C14 7494   5.099   6.085   2.555  1.1467 -0.3353  0.5661
   81SLPC  H14A 7495   5.062   6.182   2.525  1.7611  0.0326  0.9708
   81SLPC  H14B 7496   5.084   6.018   2.471 -1.1353  0.8272 -0.0392
   81SLPC  H14C 7497   5.025   6.057   2.628 -0.5241 -1.9121 -1.5733
   81SLPC   C15 7498   5.313   6.145   2.483 -0.3062  0.3120 -0.7223
   81SLPC  H15A 7499   5.420   6.150   2.495 -0.3902 -0.9728  0.9084
   81SLPC  H15B 7500   5.299   6.072   2.405 -0.9345 -0.7273  0.3463
   81SLPC  H15C 7501   5.267   6.239   2.455  0.0709  0.6511 -0.2299
   81SLPC   C12 7502   5.259   6.193   2.717 -0.2839 -0.1069  0.7530
   81SLPC  H12A 7503   5.360   6.170   2.749 -0.1258  0.3386  0.5749
   81SLPC  H12B 7504   5.201   6.164   2.804  0.5814 -1.3843  0.9287
   81SLPC   C11 7505   5.247   6.351   2.695  0.3534 -0.0083  0.0224
   81SLPC  H11A 7506   5.310   6.380   2.608 -0.0178 -2.1686 -1.0276
   81SLPC  H11B 7507   5.284   6.399   2.789 -1.0526  2.4616 -0.5913
   81SLPC     P 7508   5.003   6.412   2.786  0.3359  0.1105 -0.1278
   81SLPC   O13 7509   4.913   6.513   2.730  0.3531 -0.8897  0.4113
   81SLPC   O14 7510   4.940   6.278   2.818 -0.2348  0.4969 -0.2969
   81SLPC   O12 7511   5.110   6.392   2.672 -0.1832 -0.2941 -0.6807
   81SLPC   O11 7512   5.079   6.451   2.925  0.6123 -0.0688  0.1478
   81SLPC    C1 7513   5.110   6.582   2.966  0.2789  0.9932  1.2847
   81SLPC    HA 7514   5.221   6.588   2.956  0.2398 -1.4522 -2.3949
   81SLPC    HB 7515   5.057   6.657   2.904 -0.1479  0.1510  0.6280
   81SLPC    C2 7516   5.079   6.601   3.118 -0.4203 -0.1957  0.5364
   81SLPC    HS 7517   5.108   6.706   3.141  0.3083 -0.1691 -0.4368
   81SLPC   O21 7518   5.151   6.501   3.195  0.0268 -0.1821 -0.2886
   81SLPC   C21 7519   5.276   6.542   3.223 -0.4373 -0.3221 -0.5602
   81SLPC   O22 7520   5.323   6.647   3.180 -0.7808 -0.5126  0.1623
   81SLPC   C22 7521   5.341   6.452   3.333 -0.0308  0.0758 -0.6567
   81SLPC   H2R 7522   5.280   6.359   3.339 -0.7273  0.5885  0.5638
   81SLPC   H2S 7523   5.438   6.424   3.286 -0.0357 -0.8291 -0.1630
   81SLPC    C3 7524   4.929   6.581   3.139  0.2854  0.0262 -0.5093
   81SLPC    HX 7525   4.916   6.471   3.132  0.3085 -0.0028 -0.1013
   81SLPC    HY 7526   4.871   6.629   3.057  1.8669 -0.3641 -1.9088
   81SLPC   O31 7527   4.889   6.639   3.273 -0.2808  0.0508 -0.0774
   81SLPC   C31 7528   4.766   6.614   3.312 -0.5555  0.0311 -0.6621
   81SLPC   O32 7529   4.683   6.547   3.260  0.5337  0.4252  0.0215
   81SLPC   C32 7530   4.740   6.697   3.436 -0.1392 -0.0595 -0.3000
   81SLPC   H2X 7531   4.790   6.796   3.438 -2.2906  1.0977 -0.8097
   81SLPC   H2Y 7532   4.762   6.631   3.523 -1.6042 -1.1310 -0.6961
   81SLPC   C23 7533   5.360   6.519   3.475 -0.7624 -0.1937  0.2308
   81SLPC   H3R 7534   5.268   6.571   3.509  0.7286  1.8457  1.3426
   81SLPC   H3S 7535   5.447   6.585   3.457 -0.2805 -1.1732 -1.2856
   81SLPC   C24 7536   5.404   6.410   3.582  0.5706 -0.5001  0.4542
   81SLPC   H4R 7537   5.510   6.387   3.557  0.2912 -0.2707 -1.0882
   81SLPC   H4S 7538   5.342   6.319   3.567  0.7427 -0.2454 -2.5410
   81SLPC   C25 7539   5.398   6.472   3.718  0.4914  0.1010 -0.5491
   81SLPC   H5R 7540   5.301   6.518   3.748 -0.6313 -1.8807 -0.9596
   81SLPC   H5S 7541   5.465   6.561   3.719  2.1303 -1.0043  2.9368
   81SLPC   C26 7542   5.438   6.375   3.829  0.6919 -0.0814 -0.3522
   81SLPC   H6R 7543   5.512   6.295   3.807  1.1428  0.5173 -1.0317
   81SLPC   H6S 7544   5.340   6.330   3.858  0.3491 -0.4970 -2.0522
   81SLPC   C27 7545   5.487   6.445   3.963 -0.0702  0.4984 -0.0457
   81SLPC   H7R 7546   5.581   6.501   3.944 -0.8130  0.8651 -3.0734
   81SLPC   H7S 7547   5.503   6.368   4.042 -0.1991  0.6137  0.0936
   81SLPC   C28 7548   5.383   6.554   4.013  0.0584  0.4032  0.5879
   81SLPC   H8R 7549   5.286   6.500   4.018  0.9925 -1.4956 -0.3183
   81SLPC   H8S 7550   5.378   6.638   3.940 -1.0362  1.0150  1.3544
   81SLPC   C29 7551   5.413   6.603   4.153  0.2314 -0.3002 -0.4028
   81SLPC   H9R 7552   5.399   6.539   4.242 -1.4133  2.0021  1.1081
   81SLPC  C210 7553   5.444   6.733   4.185  0.7475  0.4358 -0.5831
   81SLPC  H10R 7554   5.470   6.752   4.290 -1.1660 -1.2609  0.2415
   81SLPC  C211 7555   5.453   6.852   4.087 -0.6975  0.4623  0.2568
   81SLPC  H11R 7556   5.465   6.814   3.983 -2.1411  1.5663 -0.3387
   81SLPC  H11S 7557   5.542   6.916   4.102 -1.7578  1.9816  0.2649
   81SLPC  C212 7558   5.328   6.942   4.097 -0.2684  0.0441 -0.0209
   81SLPC  H12R 7559   5.255   6.915   4.018  1.3064 -2.0042 -0.8818
   81SLPC  C213 7560   5.293   7.028   4.200  0.3056 -0.3038  0.1561
   81SLPC  H13R 7561   5.193   7.074   4.207  0.7802  0.5967  1.4207
   81SLPC  C214 7562   5.362   7.062   4.324 -0.1078 -0.1568 -0.5733
   81SLPC  H14R 7563   5.386   7.170   4.335  0.8297 -0.3949 -0.1477
   81SLPC  H14S 7564   5.467   7.025   4.325  0.0021  0.0554  1.9471
   81SLPC  C215 7565   5.311   7.037   4.474 -0.5009  0.1971  0.3697
   81SLPC  H15R 7566   5.277   6.932   4.475 -0.6851  0.2538  1.3507
   81SLPC  H15S 7567   5.218   7.096   4.488 -1.3164 -0.0729 -3.0753
   81SLPC  C216 7568   5.414   7.083   4.571  0.4243 -0.0687 -0.3953
   81SLPC  H16R 7569   5.361   7.072   4.668 -0.7909  1.4827 -0.8589
   81SLPC  H16S 7570   5.447   7.187   4.555  0.4654  0.3195  1.8796
   81SLPC  C217 7571   5.543   6.997   4.581  0.3673  0.7158  0.2745
   81SLPC  H17R 7572   5.609   7.034   4.662 -0.7341 -0.7354  1.8992
   81SLPC  H17S 7573   5.602   7.011   4.487 -1.1506 -0.5654 -0.9208
   81SLPC  C218 7574   5.527   6.848   4.612 -0.6140 -0.4394  0.6509
   81SLPC  H18R 7575   5.629   6.805   4.618  0.0669  0.8793 -0.7945
   81SLPC  H18S 7576   5.474   6.811   4.521 -3.0487  2.0451  0.9097
   81SLPC  H18T 7577   5.467   6.832   4.704  0.3092  0.0249  1.3419
   81SLPC   C33 7578   4.591   6.732   3.442 -0.2168 -0.7443 -0.1024
   81SLPC   H3X 7579   4.573   6.756   3.549  2.2381 -1.3699  0.5011
   81SLPC   H3Y 7580   4.525   6.646   3.415 -1.6803  0.3684 -0.2119
   81SLPC   C34 7581   4.547   6.851   3.361 -0.6981  0.3442  0.0197
   81SLPC   H4X 7582   4.551   6.812   3.257 -1.2550  1.5007 -0.4432
   81SLPC   H4Y 7583   4.624   6.930   3.355  1.0528 -1.1005  1.9258
   81SLPC   C35 7584   4.415   6.912   3.403  0.1145 -0.2991 -0.9635
   81SLPC   H5X 7585   4.347   6.825   3.415  1.5629 -1.5781 -1.6222
   81SLPC   H5Y 7586   4.393   6.968   3.310 -1.3221 -2.2629 -1.8902
   81SLPC   C36 7587   4.421   7.005   3.531  0.2162  0.0528 -0.3918
   81SLPC   H6X 7588   4.326   7.062   3.524 -0.7994 -1.5077  0.1080
   81SLPC   H6Y 7589   4.506   7.076   3.518  2.0048 -1.7946  0.7348
   81SLPC   C37 7590   4.418   6.929   3.662 -1.1499  0.3584  0.3747
   81SLPC   H7X 7591   4.519   6.889   3.686 -0.8188  1.1925  0.4069
   81SLPC   H7Y 7592   4.352   6.840   3.653 -1.7169  0.6930  1.1173
   81SLPC   C38 7593   4.373   7.019   3.774  0.2024  0.0122  0.1192
   81SLPC   H8X 7594   4.272   7.062   3.758  1.2992  3.2397  0.9733
   81SLPC   H8Y 7595   4.453   7.096   3.770  0.5193 -0.3212 -3.7876
   81SLPC   C39 7596   4.359   6.948   3.902 -0.3126 -0.3514  0.2243
   81SLPC   H9X 7597   4.460   6.912   3.931  0.3853  1.1893 -0.2057
   81SLPC   H9Y 7598   4.291   6.860   3.892 -1.1251  0.3720 -0.8589
   81SLPC  C310 7599   4.285   7.031   4.011  0.6761  0.4407  0.4877
   81SLPC  H10X 7600   4.179   7.042   3.980  0.7765 -0.5311 -0.2836
   81SLPC  H10Y 7601   4.337   7.128   4.020  1.6475  0.0399 -0.4389
   81SLPC  C311 7602   4.288   6.951   4.139  0.2824 -0.3023 -0.4088
   81SLPC  H11X 7603   4.391   6.948   4.178 -0.1529  0.2321  0.8302
   81SLPC  H11Y 7604   4.264   6.845   4.116  2.9919 -1.1800  0.5083
   81SLPC  C312 7605   4.198   7.015   4.244 -0.2423 -0.0103  0.8519
   81SLPC  H12X 7606   4.099   7.018   4.193 -0.0516 -1.2548  0.3806
   81SLPC  H12Y 7607   4.225   7.121   4.264  1.1039 -0.1707  0.0383
   81SLPC  C313 7608   4.187   6.948   4.376 -0.1485  0.0510 -0.5559
   81SLPC  H13X 7609   4.132   6.854   4.356 -1.7414  1.1432 -1.4823
   81SLPC  H13Y 7610   4.120   7.011   4.438  0.9206  1.0057 -0.3338
   81SLPC  C314 7611   4.319   6.921   4.445  0.2761  0.0400  0.5820
   81SLPC  H14X 7612   4.350   7.025   4.468 -0.4888 -0.2329  3.1072
   81SLPC  H14Y 7613   4.388   6.881   4.367  0.7691  2.0566 -0.0681
   81SLPC  C315 7614   4.315   6.839   4.572 -0.7107  0.4554 -0.2166
   81SLPC  H15X 7615   4.306   6.732   4.542  3.0236 -0.3587  1.0123
   81SLPC  H15Y 7616   4.219   6.859   4.623 -0.4689 -0.5304  0.6404
   81SLPC  C316 7617   4.435   6.862   4.666 -0.4483 -0.9472  0.2101
   81SLPC  H16X 7618   4.451   6.970   4.686  2.1316 -1.7092  3.0828
   81SLPC  H16Y 7619   4.525   6.821   4.615 -1.8500 -1.2580 -2.1449
   81SLPC  C317 7620   4.438   6.789   4.799 -0.6562  0.1780  0.1031
   81SLPC  H17X 7621   4.421   6.682   4.778 -0.9232  0.0474  0.9490
   81SLPC  H17Y 7622   4.358   6.829   4.865  0.6300  0.3171  1.6440
   81SLPC  C318 7623   4.574   6.810   4.864  0.1750 -0.0461  0.0214
   81SLPC  H18X 7624   4.591   6.753   4.958  0.1066  1.5493  1.0408
   81SLPC  H18Y 7625   4.596   6.915   4.894  1.4196 -0.0938 -0.6563
   81SLPC  H18Z 7626   4.653   6.775   4.795  2.0366  1.3686  1.3535
   82SLPC     N 7627   2.677   1.885   2.453  0.0374 -0.6350 -0.6353
   82SLPC   C13 7628   2.704   1.920   2.602  0.4043  0.1548 -0.1073
   82SLPC  H13A 7629   2.744   1.828   2.645 -0.7997 -0.1964  0.3055
   82SLPC  H13B 7630   2.772   2.003   2.612 -1.1977  1.3253  1.5278
   82SLPC  H13C 7631   2.616   1.947   2.658  0.9783 -0.7589  1.3250
   82SLPC   C14 7632   2.806   1.867   2.390 -0.5916  0.0790  0.6139
   82SLPC  H14A 7633   2.859   1.801   2.457 -1.9374 -0.1938  1.4461
   82SLPC  H14B 7634   2.810   1.850   2.283 -1.0121  1.6147  0.3233
   82SLPC  H14C 7635   2.865   1.958   2.389 -1.0182  0.4007 -2.0443
   82SLPC   C15 7636   2.607   2.000   2.394 -0.4713 -0.2878 -0.0030
   82SLPC  H15A 7637   2.506   2.013   2.429 -0.0560 -1.1129  1.5588
   82SLPC  H15B 7638   2.671   2.087   2.385  1.1833 -1.6417 -2.8645
   82SLPC  H15C 7639   2.600   1.981   2.288  1.2991 -0.7096 -0.0700
   82SLPC   C12 7640   2.595   1.762   2.448 -0.2914 -0.3562 -0.3085
   82SLPC  H12A 7641   2.598   1.738   2.343  2.2269 -1.6371 -0.0190
   82SLPC  H12B 7642   2.491   1.785   2.467 -0.3665 -2.0056  1.5244
   82SLPC   C11 7643   2.646   1.640   2.519  0.6919 -0.0336  1.2070
   82SLPC  H11A 7644   2.755   1.623   2.509  0.6834  0.6306 -0.4368
   82SLPC  H11B 7645   2.593   1.553   2.474  0.9834  0.5467 -0.3233
   82SLPC     P 7646   2.471   1.638   2.728  0.0466 -0.0492 -0.0012
   82SLPC   O13 7647   2.414   1.774   2.704 -0.2005 -0.4440  0.8924
   82SLPC   O14 7648   2.394   1.529   2.669 -0.0055 -0.3634  0.3011
   82SLPC   O12 7649   2.615   1.644   2.656 -0.5410  0.2088  0.1426
   82SLPC   O11 7650   2.500   1.614   2.886 -0.0069  0.3106 -0.6548
   82SLPC    C1 7651   2.631   1.653   2.941  0.2370 -0.3531 -0.1999
   82SLPC    HA 7652   2.662   1.561   2.997 -2.1210 -1.4006 -0.4975
   82SLPC    HB 7653   2.710   1.678   2.867  0.2914  0.8608  0.2487
   82SLPC    C2 7654   2.639   1.764   3.045  0.1543  0.6577 -0.3363
   82SLPC    HS 7655   2.731   1.768   3.108 -0.6704 -2.2682  1.1962
   82SLPC   O21 7656   2.528   1.755   3.136  0.2851  0.2523  0.0810
   82SLPC   C21 7657   2.543   1.669   3.236 -0.2493 -0.6097 -0.9371
   82SLPC   O22 7658   2.638   1.600   3.267 -0.1809  0.4102  0.6547
   82SLPC   C22 7659   2.424   1.684   3.325  0.7223 -0.3238  0.3000
   82SLPC   H2R 7660   2.336   1.672   3.259 -1.2984  0.3046  2.7258
   82SLPC   H2S 7661   2.431   1.607   3.405 -0.6735 -0.4189  0.3499
   82SLPC    C3 7662   2.627   1.904   2.982  0.9462  0.2716  0.5401
   82SLPC    HX 7663   2.538   1.893   2.915  1.5308 -1.3336 -0.0227
   82SLPC    HY 7664   2.719   1.920   2.923  0.1896  3.0189 -0.0302
   82SLPC   O31 7665   2.610   2.002   3.085  0.3223 -0.2489 -0.3190
   82SLPC   C31 7666   2.498   2.062   3.095  0.3821 -0.0485  0.1242
   82SLPC   O32 7667   2.395   2.052   3.029 -0.3844 -0.4073  0.0590
   82SLPC   C32 7668   2.513   2.172   3.201 -0.6109 -0.0775 -0.8773
   82SLPC   H2X 7669   2.605   2.229   3.177 -0.5835 -0.8293 -2.6554
   82SLPC   H2Y 7670   2.518   2.112   3.295  2.0337 -0.9143 -1.4664
   82SLPC   C23 7671   2.402   1.821   3.394 -0.2515  0.5428 -0.3145
   82SLPC   H3R 7672   2.307   1.803   3.449  0.2298  0.6850  0.5796
   82SLPC   H3S 7673   2.380   1.893   3.313 -3.4138  0.0254 -0.0436
   82SLPC   C24 7674   2.502   1.883   3.492 -0.3962  0.3925 -0.1473
   82SLPC   H4R 7675   2.458   1.972   3.543 -0.1407  1.1680 -1.2617
   82SLPC   H4S 7676   2.589   1.928   3.441 -0.1312  0.4499  0.3493
   82SLPC   C25 7677   2.555   1.798   3.615 -0.1579  0.4274 -0.3314
   82SLPC   H5R 7678   2.631   1.845   3.679 -0.3421 -0.7266  0.7761
   82SLPC   H5S 7679   2.606   1.708   3.574  1.9019  1.4226 -0.0632
   82SLPC   C26 7680   2.449   1.751   3.713 -0.9185 -0.4406  0.1715
   82SLPC   H6R 7681   2.377   1.677   3.673 -2.4790  1.9138 -1.6433
   82SLPC   H6S 7682   2.389   1.840   3.742  0.9638  1.3617 -1.1788
   82SLPC   C27 7683   2.511   1.689   3.839 -0.5368  0.0698  0.3051
   82SLPC   H7R 7684   2.510   1.750   3.932 -0.5348  0.8299 -0.1809
   82SLPC   H7S 7685   2.619   1.681   3.814 -1.1075 -2.1128 -1.7568
   82SLPC   C28 7686   2.451   1.554   3.877 -0.3811 -0.2035 -0.2092
   82SLPC   H8R 7687   2.526   1.506   3.943 -1.2578 -2.2754 -0.6213
   82SLPC   H8S 7688   2.446   1.485   3.789 -0.0066  0.4961 -0.7879
   82SLPC   C29 7689   2.323   1.549   3.947 -1.0584  0.4221 -0.5574
   82SLPC   H9R 7690   2.239   1.540   3.877 -0.9452 -0.0636 -0.6284
   82SLPC  C210 7691   2.314   1.529   4.083  0.3695 -0.2297 -0.0720
   82SLPC  H10R 7692   2.215   1.525   4.131 -0.2286  0.2488 -1.2247
   82SLPC  C211 7693   2.428   1.527   4.186  0.3656 -0.1627  0.2139
   82SLPC  H11R 7694   2.511   1.588   4.146  2.2180 -1.5160  1.7619
   82SLPC  H11S 7695   2.463   1.421   4.194 -0.5144 -0.3552  2.0844
   82SLPC  C212 7696   2.380   1.590   4.314 -0.4456 -0.3983 -0.5313
   82SLPC  H12R 7697   2.331   1.688   4.304  0.8746  0.2516 -0.8564
   82SLPC  C213 7698   2.359   1.522   4.431 -0.2611 -0.1550 -0.4762
   82SLPC  H13R 7699   2.312   1.580   4.512  0.3109  0.4662 -0.5809
   82SLPC  C214 7700   2.377   1.372   4.465  0.4957 -0.6898  0.3580
   82SLPC  H14R 7701   2.408   1.356   4.570  1.0338  3.4050  0.9740
   82SLPC  H14S 7702   2.450   1.328   4.394  0.1819 -1.8949  0.7620
   82SLPC  C215 7703   2.253   1.292   4.432  0.2873 -0.8271 -0.6025
   82SLPC  H15R 7704   2.264   1.192   4.477 -0.3997 -0.1974  1.0478
   82SLPC  H15S 7705   2.232   1.266   4.326  5.1178 -1.9832 -1.4917
   82SLPC  C216 7706   2.128   1.354   4.499  0.5958  0.4694  0.0735
   82SLPC  H16R 7707   2.046   1.284   4.472 -1.6689  2.8588  0.3585
   82SLPC  H16S 7708   2.089   1.444   4.448  0.8775  0.0403 -0.9338
   82SLPC  C217 7709   2.127   1.363   4.648 -0.0992 -0.1302 -0.4754
   82SLPC  H17R 7710   2.055   1.439   4.686  1.3672  1.0232  0.0978
   82SLPC  H17S 7711   2.225   1.402   4.684 -0.3672  0.9221 -0.8564
   82SLPC  C218 7712   2.110   1.224   4.713  0.3699 -0.1561  0.3041
   82SLPC  H18R 7713   2.102   1.226   4.824 -0.0466 -0.1454  0.2753
   82SLPC  H18S 7714   2.200   1.162   4.695 -1.3582 -2.6312 -0.5104
   82SLPC  H18T 7715   2.014   1.178   4.680  0.7204 -1.4208  0.9660
   82SLPC   C33 7716   2.398   2.274   3.220  0.1874 -0.4099  0.4395
   82SLPC   H3X 7717   2.313   2.204   3.229  0.7481 -0.9210  2.4145
   82SLPC   H3Y 7718   2.383   2.335   3.129  2.1979  0.0879  0.3933
   82SLPC   C34 7719   2.399   2.355   3.346 -1.0163  0.3695 -0.0073
   82SLPC   H4X 7720   2.467   2.442   3.345 -1.0936  0.4386 -1.2444
   82SLPC   H4Y 7721   2.426   2.285   3.428 -1.1461  0.4327  0.0915
   82SLPC   C35 7722   2.262   2.416   3.376  0.8551 -0.1258 -0.0173
   82SLPC   H5X 7723   2.176   2.346   3.371 -0.8143  1.9243 -1.7846
   82SLPC   H5Y 7724   2.242   2.496   3.303 -1.3651 -0.2604  0.3860
   82SLPC   C36 7725   2.265   2.505   3.506 -0.0944  0.3648  0.0682
   82SLPC   H6X 7726   2.186   2.582   3.496  0.8733  1.2419 -1.1921
   82SLPC   H6Y 7727   2.352   2.573   3.495  0.2527 -0.3866 -2.8850
   82SLPC   C37 7728   2.251   2.428   3.632  0.2890  0.1720 -0.0711
   82SLPC   H7X 7729   2.323   2.343   3.630  1.6187  1.2212  1.3242
   82SLPC   H7Y 7730   2.142   2.403   3.640 -0.1035  1.8909  0.2465
   82SLPC   C38 7731   2.270   2.520   3.754 -0.1363 -0.4423  0.2659
   82SLPC   H8X 7732   2.193   2.599   3.757 -0.2514 -0.4866 -0.9291
   82SLPC   H8Y 7733   2.371   2.566   3.747  1.1720 -2.6742  2.7268
   82SLPC   C39 7734   2.268   2.454   3.892  0.3998  0.0861  0.2658
   82SLPC   H9X 7735   2.348   2.376   3.894 -0.0890 -0.4174  0.3521
   82SLPC   H9Y 7736   2.181   2.391   3.918  2.4645 -2.9214  0.4425
   82SLPC  C310 7737   2.286   2.561   4.007 -0.6423  0.1892  1.2391
   82SLPC  H10X 7738   2.207   2.639   4.000  1.3118  2.1532 -2.2065
   82SLPC  H10Y 7739   2.373   2.623   3.977 -1.3808  0.0619 -1.5130
   82SLPC  C311 7740   2.305   2.502   4.150  0.0696 -0.1038 -0.1974
   82SLPC  H11X 7741   2.397   2.441   4.147  0.2674  0.0488  1.8027
   82SLPC  H11Y 7742   2.216   2.436   4.145  0.6969 -0.9160 -0.9833
   82SLPC  C312 7743   2.303   2.612   4.254 -0.6321  0.2576 -0.3520
   82SLPC  H12X 7744   2.207   2.668   4.250 -0.4476  0.5170 -2.0884
   82SLPC  H12Y 7745   2.384   2.687   4.239  0.1620 -0.2130  1.4356
   82SLPC  C313 7746   2.323   2.550   4.392 -0.0039  0.1114 -0.0208
   82SLPC  H13X 7747   2.333   2.625   4.474  0.5235 -0.0972  0.1066
   82SLPC  H13Y 7748   2.415   2.488   4.381  0.0740  0.4432 -1.4379
   82SLPC  C314 7749   2.198   2.457   4.422 -0.9103  0.6102 -0.0467
   82SLPC  H14X 7750   2.194   2.361   4.368 -0.6193 -1.9098  3.9672
   82SLPC  H14Y 7751   2.103   2.511   4.403 -0.8633  0.8283  0.3056
   82SLPC  C315 7752   2.211   2.418   4.569  0.5770 -0.8877  0.8736
   82SLPC  H15X 7753   2.320   2.410   4.588  0.7805  1.4201  1.0158
   82SLPC  H15Y 7754   2.151   2.327   4.588  1.2523 -1.3021  1.0452
   82SLPC  C316 7755   2.143   2.512   4.666 -0.5258 -1.3646  0.5427
   82SLPC  H16X 7756   2.048   2.551   4.624 -0.0884  1.5302  1.9269
   82SLPC  H16Y 7757   2.217   2.595   4.675 -2.2682  0.3276 -0.2411
   82SLPC  C317 7758   2.117   2.437   4.796 -0.1593  0.2209  0.1799
   82SLPC  H17X 7759   2.214   2.392   4.826 -0.7511 -0.1424  1.6092
   82SLPC  H17Y 7760   2.045   2.356   4.773  0.9151 -0.4949 -0.7753
   82SLPC  C318 7761   2.072   2.537   4.905  0.0368 -0.5906  0.6400
   82SLPC  H18X 7762   2.146   2.621   4.911  1.0833 -1.4055 -0.3376
   82SLPC  H18Y 7763   2.065   2.486   5.003 -1.0764  1.1344  1.5187
   82SLPC  H18Z 7764   1.976   2.582   4.873  0.0177 -0.7832  0.4207
   83SLPC     N 7765   6.234   1.370   2.117  0.0767  0.3584 -0.5071
   83SLPC   C13 7766   6.095   1.396   2.072 -0.2221 -0.1556 -0.5468
   83SLPC  H13A 7767   6.065   1.499   2.084  0.7348 -0.1241  2.5945
   83SLPC  H13B 7768   6.071   1.372   1.970  0.3209 -2.5704 -0.1685
   83SLPC  H13C 7769   6.023   1.349   2.138 -0.8728 -0.9905 -1.8151
   83SLPC   C14 7770   6.336   1.420   2.021  0.2604 -0.4102  0.2331
   83SLPC  H14A 7771   6.335   1.367   1.927  0.2920  3.1918 -1.9819
   83SLPC  H14B 7772   6.310   1.523   2.004 -1.8144 -1.0842 -1.0894
   83SLPC  H14C 7773   6.436   1.424   2.060 -0.2223 -0.0918  1.4941
   83SLPC   C15 7774   6.265   1.218   2.120  0.3964 -0.5552  0.5539
   83SLPC  H15A 7775   6.273   1.180   2.019  1.2696  0.7695  0.0870
   83SLPC  H15B 7776   6.358   1.200   2.172  1.5370  2.2329 -0.2809
   83SLPC  H15C 7777   6.186   1.169   2.174  1.0473 -2.5105 -0.1735
   83SLPC   C12 7778   6.249   1.422   2.261  0.0022 -0.7334  0.8616
   83SLPC  H12A 7779   6.243   1.529   2.272  0.8433 -0.7702  1.9223
   83SLPC  H12B 7780   6.347   1.406   2.305 -0.3236  2.5039  3.1178
   83SLPC   C11 7781   6.149   1.369   2.361  0.3432 -0.6138  0.2732
   83SLPC  H11A 7782   6.041   1.386   2.342 -0.0840 -0.6614  2.3383
   83SLPC  H11B 7783   6.170   1.441   2.443 -0.1195  1.6488 -1.5109
   83SLPC     P 7784   6.238   1.172   2.518  0.3127  0.0006  0.6283
   83SLPC   O13 7785   6.236   1.021   2.525  0.1807  0.0773  0.2222
   83SLPC   O14 7786   6.370   1.234   2.528  0.1079 -0.6218  0.3250
   83SLPC   O12 7787   6.164   1.230   2.387  0.2378  0.0107  0.2347
   83SLPC   O11 7788   6.142   1.240   2.632  0.0462 -0.2255  0.1472
   83SLPC    C1 7789   6.015   1.170   2.656  0.5341  0.2166  0.1093
   83SLPC    HA 7790   5.935   1.245   2.640  0.1855  0.0709  1.0915
   83SLPC    HB 7791   5.993   1.084   2.590 -0.8421 -0.5854  1.5481
   83SLPC    C2 7792   6.011   1.109   2.798 -0.1939 -0.2547 -0.7687
   83SLPC    HS 7793   5.916   1.054   2.816 -0.4888  0.3121 -0.5691
   83SLPC   O21 7794   6.031   1.211   2.902  0.1739  0.1641  0.4595
   83SLPC   C21 7795   5.928   1.284   2.932  0.0518 -0.2944 -0.2399
   83SLPC   O22 7796   5.812   1.264   2.895 -0.3106  0.5540  0.0984
   83SLPC   C22 7797   5.960   1.399   3.029  0.9433 -0.1086 -0.6526
   83SLPC   H2R 7798   6.068   1.393   3.054  0.7646  0.4046  0.2767
   83SLPC   H2S 7799   5.932   1.491   2.974 -1.7419 -0.4455  0.0499
   83SLPC    C3 7800   6.124   1.003   2.825 -0.0212  0.3634  0.4360
   83SLPC    HX 7801   6.225   1.026   2.786  0.5232 -0.2714  1.4516
   83SLPC    HY 7802   6.101   0.920   2.755  0.8280 -0.3265  0.9541
   83SLPC   O31 7803   6.113   0.942   2.955 -0.2369 -0.2651 -0.4182
   83SLPC   C31 7804   6.194   0.998   3.043 -0.3112 -0.0795 -0.1884
   83SLPC   O32 7805   6.270   1.083   3.012 -0.4057 -0.5435 -0.0746
   83SLPC   C32 7806   6.155   0.959   3.189 -0.1076 -0.5225 -0.2407
   83SLPC   H2X 7807   6.087   0.872   3.185  1.2799 -1.5941 -2.8066
   83SLPC   H2Y 7808   6.106   1.047   3.235 -1.5097 -0.9150 -0.9524
   83SLPC   C23 7809   5.873   1.398   3.158 -0.3388 -0.4266  0.2471
   83SLPC   H3R 7810   5.771   1.430   3.127 -0.5119 -1.9170 -0.7922
   83SLPC   H3S 7811   5.911   1.482   3.221 -1.0107  0.7722 -0.8815
   83SLPC   C24 7812   5.881   1.266   3.234  0.2646 -0.1875  0.1567
   83SLPC   H4R 7813   5.978   1.218   3.209 -0.0360 -1.3511  1.1300
   83SLPC   H4S 7814   5.801   1.198   3.198  1.3054 -1.1144 -0.4234
   83SLPC   C25 7815   5.865   1.290   3.391  0.2535  0.4187 -0.3483
   83SLPC   H5R 7816   5.776   1.233   3.424  0.7460  0.1249  0.4943
   83SLPC   H5S 7817   5.846   1.393   3.426 -0.8320 -0.1349  0.7323
   83SLPC   C26 7818   5.980   1.237   3.483 -0.7567 -0.4731  0.5500
   83SLPC   H6R 7819   6.075   1.272   3.436  0.9089 -3.8544  1.1290
   83SLPC   H6S 7820   6.006   1.130   3.474  0.6226 -0.1103 -0.1702
   83SLPC   C27 7821   5.964   1.269   3.633  0.0892  0.4692 -0.2681
   83SLPC   H7R 7822   5.951   1.378   3.650 -1.7375 -0.0550  2.1186
   83SLPC   H7S 7823   6.054   1.243   3.693 -0.1276 -1.2768 -0.6464
   83SLPC   C28 7824   5.840   1.197   3.694 -0.4106 -0.3431  0.3707
   83SLPC   H8R 7825   5.753   1.225   3.631  0.3691  1.6679  0.1255
   83SLPC   H8S 7826   5.819   1.249   3.790 -0.7728 -0.0579  0.1424
   83SLPC   C29 7827   5.864   1.053   3.711  0.2886  0.6742 -0.0524
   83SLPC   H9R 7828   5.844   0.993   3.621 -1.8647 -0.5563  1.1663
   83SLPC  C210 7829   5.908   0.992   3.827  0.0361 -1.0034 -0.2156
   83SLPC  H10R 7830   5.930   0.884   3.829  0.2702 -0.9426  1.0689
   83SLPC  C211 7831   5.942   1.059   3.957  0.1382  0.4741 -0.3489
   83SLPC  H11R 7832   5.965   1.165   3.932  1.6019  0.3404  0.3598
   83SLPC  H11S 7833   6.041   1.028   3.997 -0.1761  0.3941  0.4006
   83SLPC  C212 7834   5.848   1.039   4.075 -0.0541  0.8320 -0.6677
   83SLPC  H12R 7835   5.749   0.997   4.053  0.7519 -1.2807 -0.4230
   83SLPC  C213 7836   5.864   1.079   4.200  0.6751 -0.8998  0.2520
   83SLPC  H13R 7837   5.781   1.058   4.268  0.9421 -1.4289  0.4139
   83SLPC  C214 7838   5.993   1.139   4.252  0.2754 -0.1490 -0.3773
   83SLPC  H14R 7839   5.979   1.248   4.266 -1.3735 -0.5969  2.1831
   83SLPC  H14S 7840   6.076   1.129   4.179  1.8268 -1.0338  1.4189
   83SLPC  C215 7841   6.049   1.086   4.378 -0.0229  0.5347 -0.0810
   83SLPC  H15R 7842   6.146   1.132   4.404  1.7202 -2.9176  0.1672
   83SLPC  H15S 7843   6.069   0.977   4.369 -0.0675  0.3738  1.4337
   83SLPC  C216 7844   5.964   1.100   4.511  0.2833 -0.2221  0.8476
   83SLPC  H16R 7845   5.881   1.027   4.503 -1.6677  1.6914  2.2699
   83SLPC  H16S 7846   5.915   1.199   4.508 -1.8737 -1.2556 -0.7014
   83SLPC  C217 7847   6.046   1.086   4.632  0.0530  0.5155 -0.0003
   83SLPC  H17R 7848   6.136   1.152   4.629  0.0511  0.5133 -0.1098
   83SLPC  H17S 7849   6.089   0.984   4.644 -1.6579 -0.0052  2.2103
   83SLPC  C218 7850   5.990   1.117   4.768 -0.3769  0.2735 -0.6831
   83SLPC  H18R 7851   6.076   1.130   4.837  1.4295 -0.8456 -2.5897
   83SLPC  H18S 7852   5.928   1.034   4.808  1.7057 -1.2850 -0.5239
   83SLPC  H18T 7853   5.935   1.213   4.775 -2.2637 -0.8647  1.7070
   83SLPC   C33 7854   6.280   0.931   3.276 -0.3381  0.0493  0.3103
   83SLPC   H3X 7855   6.350   1.018   3.275  1.7757 -1.5037  2.2094
   83SLPC   H3Y 7856   6.339   0.847   3.236 -1.6039 -0.1236 -1.2844
   83SLPC   C34 7857   6.239   0.911   3.426  0.3773 -0.0240 -0.4216
   83SLPC   H4X 7858   6.160   0.983   3.458  1.5654  0.5985  1.2168
   83SLPC   H4Y 7859   6.329   0.921   3.489 -1.1511  0.9745  1.7425
   83SLPC   C35 7860   6.194   0.774   3.452 -0.7842  1.2039  0.2163
   83SLPC   H5X 7861   6.269   0.715   3.395  1.8148  2.8976  1.7090
   83SLPC   H5Y 7862   6.093   0.744   3.416 -0.2846 -3.2425  1.8804
   83SLPC   C36 7863   6.203   0.715   3.598  0.2993  0.1536 -0.9408
   83SLPC   H6X 7864   6.295   0.737   3.657 -0.1131 -2.4052  0.8434
   83SLPC   H6Y 7865   6.190   0.605   3.598 -2.5174  0.2394  3.5139
   83SLPC   C37 7866   6.085   0.758   3.691 -0.9840  0.6733 -0.0509
   83SLPC   H7X 7867   5.992   0.714   3.648 -0.2644 -1.1120  0.1391
   83SLPC   H7Y 7868   6.078   0.868   3.701  0.6177  0.6024  5.9049
   83SLPC   C38 7869   6.094   0.693   3.833  0.1898 -0.6695 -0.9019
   83SLPC   H8X 7870   5.992   0.689   3.877  0.1324  2.2459 -0.5775
   83SLPC   H8Y 7871   6.164   0.764   3.883 -1.4686  0.8229 -0.6262
   83SLPC   C39 7872   6.133   0.545   3.849 -0.2850  0.5371  0.1352
   83SLPC   H9X 7873   6.135   0.513   3.955 -3.7598 -0.8471 -0.1012
   83SLPC   H9Y 7874   6.232   0.537   3.799  0.5766  1.4199  1.5850
   83SLPC  C310 7875   6.038   0.444   3.772  0.0419 -0.2385 -0.1731
   83SLPC  H10X 7876   6.037   0.471   3.664 -3.6791  0.5245 -0.0646
   83SLPC  H10Y 7877   5.935   0.457   3.811  0.0006  0.4528 -0.4963
   83SLPC  C311 7878   6.103   0.304   3.779  0.6674 -1.2753 -0.5523
   83SLPC  H11X 7879   6.109   0.268   3.884  0.4494  0.1300 -0.0414
   83SLPC  H11Y 7880   6.206   0.309   3.738  0.3427 -2.4380 -1.5624
   83SLPC  C312 7881   6.037   0.197   3.690  0.4423 -0.5596  0.4422
   83SLPC  H12X 7882   6.085   0.098   3.701  2.6541  0.1723 -1.7664
   83SLPC  H12Y 7883   6.039   0.234   3.585 -0.8973  2.4207  1.3604
   83SLPC  C313 7884   5.888   0.173   3.727 -0.0669 -0.4905 -0.5109
   83SLPC  H13X 7885   5.839   0.265   3.688 -1.0988 -0.8782 -0.1574
   83SLPC  H13Y 7886   5.872   0.169   3.837  1.6132 -0.9486 -0.2512
   83SLPC  C314 7887   5.815   0.055   3.662  0.1077 -0.5705 -0.2109
   83SLPC  H14X 7888   5.855  -0.045   3.691  0.3914 -1.0499 -2.1092
   83SLPC  H14Y 7889   5.828   0.071   3.553  3.1256  1.0314  0.2862
   83SLPC  C315 7890   5.662   0.051   3.689 -0.4535 -1.1177 -0.0670
   83SLPC  H15X 7891   5.618   0.153   3.685 -1.3515 -1.5374 -1.5685
   83SLPC  H15Y 7892   5.651   0.016   3.794 -1.1370 -1.1990 -0.1637
   83SLPC  C316 7893   5.583  -0.041   3.601  0.3348  0.2196  0.3376
   83SLPC  H16X 7894   5.487  -0.067   3.650  0.2039 -0.5186 -0.2878
   83SLPC  H16Y 7895   5.634  -0.140   3.596 -0.3261 -0.3348  3.0623
   83SLPC  C317 7896   5.558   0.019   3.465 -0.1254  0.3055  0.2668
   83SLPC  H17X 7897   5.648   0.066   3.419  0.2918 -0.4857  0.2707
   83SLPC  H17Y 7898   5.478   0.096   3.476 -0.3656  0.2394 -0.8834
   83SLPC  C318 7899   5.504  -0.080   3.366  0.0277  0.6353 -0.0660
   83SLPC  H18X 7900   5.414  -0.129   3.411  1.9211 -3.5521 -0.4082
   83SLPC  H18Y 7901   5.576  -0.158   3.335 -1.1887  0.0943 -1.6728
   83SLPC  H18Z 7902   5.477  -0.022   3.276  0.4127  0.8833 -0.0211
   84SLPC     N 7903   3.839   4.402   2.687 -0.8351 -0.3685  0.4435
   84SLPC   C13 7904   3.934   4.345   2.790 -0.0872 -0.2191 -0.2611
   84SLPC  H13A 7905   3.891   4.290   2.872  2.6215 -2.1377  0.0094
   84SLPC  H13B 7906   4.017   4.294   2.743  0.4995  1.0288 -0.6477
   84SLPC  H13C 7907   3.981   4.426   2.845  1.1363 -0.6935 -0.5750
   84SLPC   C14 7908   3.726   4.302   2.677 -0.1867  0.0656  0.2678
   84SLPC  H14A 7909   3.769   4.215   2.629  0.4210  1.2436 -1.4104
   84SLPC  H14B 7910   3.690   4.274   2.775  1.0280 -2.9819 -0.0314
   84SLPC  H14C 7911   3.640   4.342   2.625  0.5217 -1.0154 -1.8598
   84SLPC   C15 7912   3.903   4.402   2.553  0.6508  0.6984  0.8460
   84SLPC  H15A 7913   3.946   4.306   2.530  1.4777  1.4545 -1.0053
   84SLPC  H15B 7914   3.836   4.429   2.472  2.0893  1.2752 -0.1817
   84SLPC  H15C 7915   3.994   4.460   2.550  0.7535  0.6025  1.8799
   84SLPC   C12 7916   3.781   4.533   2.728 -0.1715  0.0231 -0.8297
   84SLPC  H12A 7917   3.726   4.520   2.820 -1.2952 -1.8388 -1.7092
   84SLPC  H12B 7918   3.706   4.565   2.658 -0.1116  0.0960 -0.8606
   84SLPC   C11 7919   3.879   4.656   2.751  0.7695 -0.3161  0.1079
   84SLPC  H11A 7920   3.825   4.748   2.781 -0.4783 -1.1432  0.5036
   84SLPC  H11B 7921   3.936   4.669   2.657 -1.0607 -0.8502 -1.1295
   84SLPC     P 7922   3.952   4.658   3.012  0.0201  0.3028  0.2980
   84SLPC   O13 7923   4.028   4.555   3.089  0.3034 -0.1034 -0.3615
   84SLPC   O14 7924   3.986   4.799   3.038 -0.7333  0.2234  0.2416
   84SLPC   O12 7925   3.970   4.631   2.857 -0.1245  0.7443 -0.4883
   84SLPC   O11 7926   3.798   4.634   3.026 -0.4027 -0.3696  0.1913
   84SLPC    C1 7927   3.745   4.524   3.099 -0.0749 -0.1216 -0.1489
   84SLPC    HA 7928   3.766   4.435   3.036  1.0179  1.4278 -2.1248
   84SLPC    HB 7929   3.794   4.517   3.198 -0.9733 -1.1801  0.2428
   84SLPC    C2 7930   3.592   4.550   3.125 -0.6938  0.4967 -0.1785
   84SLPC    HS 7931   3.539   4.511   3.036  1.3434  0.5492 -1.4730
   84SLPC   O21 7932   3.564   4.689   3.146 -0.0791  0.0580  0.1472
   84SLPC   C21 7933   3.438   4.727   3.130 -0.3102 -0.1793 -0.8303
   84SLPC   O22 7934   3.346   4.647   3.103 -0.1039  0.1146  0.4223
   84SLPC   C22 7935   3.419   4.874   3.153 -1.2476 -0.3189 -0.4386
   84SLPC   H2R 7936   3.484   4.918   3.074 -0.3773  0.0278  0.4361
   84SLPC   H2S 7937   3.318   4.909   3.124 -0.2860  3.4391  0.1233
   84SLPC    C3 7938   3.542   4.465   3.244  0.6030 -0.1914 -0.2458
   84SLPC    HX 7939   3.538   4.357   3.219  0.7513 -0.1118 -0.6048
   84SLPC    HY 7940   3.438   4.499   3.266  0.9920  0.6873  0.2819
   84SLPC   O31 7941   3.620   4.497   3.363  1.0446  0.5467  0.0216
   84SLPC   C31 7942   3.562   4.468   3.480  0.0548  0.4763 -0.0825
   84SLPC   O32 7943   3.468   4.393   3.491  0.0390  0.2259  0.5211
   84SLPC   C32 7944   3.624   4.548   3.585  0.1654  0.0192  0.4203
   84SLPC   H2X 7945   3.592   4.652   3.564 -1.8417 -0.7398 -0.5387
   84SLPC   H2Y 7946   3.735   4.545   3.587  0.2151  0.3898 -0.9363
   84SLPC   C23 7947   3.459   4.923   3.301 -0.0614 -0.5304  0.9949
   84SLPC   H3R 7948   3.469   5.033   3.308 -0.8649 -0.4324  0.7090
   84SLPC   H3S 7949   3.558   4.883   3.333 -0.6580 -1.7097  1.4411
   84SLPC   C24 7950   3.357   4.875   3.405 -0.5935  0.8386  0.0494
   84SLPC   H4R 7951   3.357   4.765   3.414  0.6043  0.8175 -0.0181
   84SLPC   H4S 7952   3.253   4.905   3.379 -1.0682 -0.9179 -0.1542
   84SLPC   C25 7953   3.394   4.927   3.544  0.3821 -0.0119  0.6646
   84SLPC   H5R 7954   3.372   5.034   3.521 -0.7127 -0.6357 -1.5199
   84SLPC   H5S 7955   3.502   4.920   3.567  0.5141  0.6690  0.2833
   84SLPC   C26 7956   3.301   4.878   3.660 -0.0253 -0.3204 -0.8533
   84SLPC   H6R 7957   3.311   4.768   3.673  0.0488 -0.2593 -0.3669
   84SLPC   H6S 7958   3.195   4.905   3.637  0.4369  0.7459 -1.8321
   84SLPC   C27 7959   3.338   4.947   3.793 -0.4630  0.0734  0.7443
   84SLPC   H7R 7960   3.326   5.055   3.768 -0.6963 -0.1598 -0.1911
   84SLPC   H7S 7961   3.446   4.925   3.811 -0.6210 -2.1031 -0.5478
   84SLPC   C28 7962   3.248   4.900   3.916 -0.1891  0.6100  0.1086
   84SLPC   H8R 7963   3.248   4.789   3.915 -3.8956  0.4953 -0.9893
   84SLPC   H8S 7964   3.140   4.922   3.907 -0.4230 -0.2344  0.6526
   84SLPC   C29 7965   3.309   4.936   4.047 -0.8465 -0.1497  0.2586
   84SLPC   H9R 7966   3.397   5.001   4.032 -0.8536 -0.1881  0.0412
   84SLPC  C210 7967   3.258   4.913   4.169 -0.0253  0.4282 -0.4899
   84SLPC  H10R 7968   3.320   4.925   4.259  0.7848  0.9948 -1.1093
   84SLPC  C211 7969   3.131   4.835   4.189  0.7569 -0.0660  0.2484
   84SLPC  H11R 7970   3.096   4.791   4.094  0.8783  1.4933 -0.5518
   84SLPC  H11S 7971   3.050   4.909   4.205  0.3301  0.8307 -4.5573
   84SLPC  C212 7972   3.129   4.735   4.298 -0.1772 -0.3571 -0.7779
   84SLPC  H12R 7973   3.183   4.643   4.270  1.4530 -0.5721  2.5468
   84SLPC  C213 7974   3.085   4.744   4.428 -0.3669  0.5044 -0.1939
   84SLPC  H13R 7975   3.104   4.649   4.481 -2.9179 -0.2833 -0.5466
   84SLPC  C214 7976   3.027   4.860   4.499  0.3642  0.4515 -0.1146
   84SLPC  H14R 7977   3.047   4.955   4.445  1.0904 -1.2706 -3.1178
   84SLPC  H14S 7978   3.069   4.876   4.601 -0.0515  0.3225  0.0788
   84SLPC  C215 7979   2.872   4.833   4.510  0.5467  0.2101 -0.5231
   84SLPC  H15R 7980   2.827   4.811   4.411  3.0074  0.9032 -1.8868
   84SLPC  H15S 7981   2.820   4.915   4.564  1.5578  0.2304  0.4478
   84SLPC  C216 7982   2.823   4.719   4.601 -0.0907  0.1243  0.1320
   84SLPC  H16R 7983   2.870   4.624   4.568  3.4388  2.0637 -0.9628
   84SLPC  H16S 7984   2.714   4.701   4.607 -0.2044  0.3523 -1.0227
   84SLPC  C217 7985   2.879   4.747   4.740  1.1538  0.7115 -0.1823
   84SLPC  H17R 7986   2.855   4.852   4.766 -0.5106  0.0441  1.1653
   84SLPC  H17S 7987   2.988   4.724   4.749  1.2823  1.8638  1.7397
   84SLPC  C218 7988   2.804   4.653   4.851 -0.5857  0.3429  0.3222
   84SLPC  H18R 7989   2.859   4.678   4.944 -0.4172 -1.4576  0.7307
   84SLPC  H18S 7990   2.822   4.548   4.821  1.1016  1.3481 -2.5435
   84SLPC  H18T 7991   2.696   4.677   4.838 -0.2201  0.5312 -3.7067
   84SLPC   C33 7992   3.573   4.496   3.719  0.0101 -0.4227 -0.2497
   84SLPC   H3X 7993   3.592   4.387   3.732 -1.9535 -0.7761  0.0514
   84SLPC   H3Y 7994   3.462   4.493   3.730  0.1545  0.1485  1.5912
   84SLPC   C34 7995   3.619   4.583   3.842  0.6156  0.3494  0.0532
   84SLPC   H4X 7996   3.577   4.684   3.821 -1.4370 -0.7022 -1.2044
   84SLPC   H4Y 7997   3.728   4.585   3.862  0.6991 -3.1351  0.5979
   84SLPC   C35 7998   3.552   4.531   3.973  0.0361 -0.0144  0.2807
   84SLPC   H5X 7999   3.543   4.421   3.968  2.1580 -0.1902 -0.9298
   84SLPC   H5Y 8000   3.443   4.552   3.969 -0.1702 -0.5785  2.1956
   84SLPC   C36 8001   3.617   4.571   4.105  0.0726 -0.5446 -0.3905
   84SLPC   H6X 8002   3.607   4.682   4.105  0.9476 -0.4462 -1.2422
   84SLPC   H6Y 8003   3.724   4.542   4.100  0.6642  1.2851  0.5624
   84SLPC   C37 8004   3.560   4.499   4.226 -0.2873  0.1606  0.2567
   84SLPC   H7X 8005   3.577   4.389   4.236 -0.9776  0.1580  1.7670
   84SLPC   H7Y 8006   3.450   4.502   4.221 -0.2345  3.1410 -1.1579
   84SLPC   C38 8007   3.606   4.569   4.357 -0.5190  0.3270 -0.0202
   84SLPC   H8X 8008   3.560   4.669   4.370  0.2218  0.7574 -0.6140
   84SLPC   H8Y 8009   3.715   4.583   4.341 -0.1702 -2.5944 -0.7550
   84SLPC   C39 8010   3.568   4.473   4.476 -0.0019 -0.8518 -1.1338
   84SLPC   H9X 8011   3.621   4.376   4.466 -1.1948 -1.4991 -1.2918
   84SLPC   H9Y 8012   3.461   4.450   4.497  0.4163 -0.3467  1.9800
   84SLPC  C310 8013   3.612   4.543   4.607 -0.4461  0.3463 -0.2110
   84SLPC  H10X 8014   3.558   4.637   4.630  0.4142  0.5159  1.2564
   84SLPC  H10Y 8015   3.719   4.569   4.591 -0.0021  1.5792  3.6963
   84SLPC  C311 8016   3.620   4.443   4.721 -0.2439  0.0372 -0.1895
   84SLPC  H11X 8017   3.670   4.480   4.813  0.9712 -0.9385 -0.4305
   84SLPC  H11Y 8018   3.686   4.357   4.699  1.3650  0.4569  2.4729
   84SLPC  C312 8019   3.474   4.396   4.763 -0.6137 -0.0534  0.4494
   84SLPC  H12X 8020   3.492   4.331   4.850  0.8138 -0.0875  0.1593
   84SLPC  H12Y 8021   3.430   4.333   4.682  0.1059  0.6028 -0.4810
   84SLPC  C313 8022   3.371   4.503   4.784  0.1736  0.0461 -0.2832
   84SLPC  H13X 8023   3.285   4.449   4.830 -0.5168  2.1642  1.0631
   84SLPC  H13Y 8024   3.336   4.560   4.695  0.4143  2.4752  1.0805
   84SLPC  C314 8025   3.423   4.606   4.888  0.7088 -0.4938 -0.4744
   84SLPC  H14X 8026   3.507   4.674   4.861  2.4328 -2.9646 -1.6546
   84SLPC  H14Y 8027   3.451   4.554   4.982 -0.8275  2.3076  1.7016
   84SLPC  C315 8028   3.300   4.696   4.940 -0.1851 -0.7093  0.4009
   84SLPC  H15X 8029   3.333   4.739   5.037  1.0334  2.3969 -1.2564
   84SLPC  H15Y 8030   3.213   4.631   4.963 -1.5030  1.0977  0.7050
   84SLPC  C316 8031   3.262   4.813   4.845 -0.1156  0.6497 -0.0426
   84SLPC  H16X 8032   3.203   4.771   4.761 -0.4279  1.0265 -0.0134
   84SLPC  H16Y 8033   3.359   4.847   4.804  0.7170 -0.0464  1.2852
   84SLPC  C317 8034   3.186   4.941   4.911 -1.3060  0.1010  0.4516
   84SLPC  H17X 8035   3.254   4.976   4.992  1.3704  0.8430 -1.9235
   84SLPC  H17Y 8036   3.087   4.906   4.946 -1.8052 -0.9567 -1.8151
   84SLPC  C318 8037   3.167   5.055   4.812  0.6379 -0.5594 -0.4033
   84SLPC  H18X 8038   3.224   5.144   4.847 -2.6769  0.6397  2.5563
   84SLPC  H18Y 8039   3.063   5.092   4.811  1.4485  1.9376  0.9165
   84SLPC  H18Z 8040   3.195   5.014   4.712  2.5331  1.3577 -0.7246
   85SLPC     N 8041   3.842   3.279   3.130  0.7201  0.2927 -0.0562
   85SLPC   C13 8042   3.733   3.383   3.138 -0.2973  0.2996 -0.2996
   85SLPC  H13A 8043   3.690   3.409   3.042 -0.0152 -2.0414 -1.1156
   85SLPC  H13B 8044   3.659   3.358   3.212  1.7377 -0.2514  1.6857
   85SLPC  H13C 8045   3.772   3.475   3.180  2.9145 -0.0081 -2.2484
   85SLPC   C14 8046   3.917   3.276   3.256  0.0704  0.2026  0.5136
   85SLPC  H14A 8047   3.944   3.377   3.283  1.4302 -0.2892  1.1054
   85SLPC  H14B 8048   3.858   3.234   3.335 -2.2776  0.4582 -1.0141
   85SLPC  H14C 8049   4.010   3.222   3.250 -0.6474 -1.0787  0.6890
   85SLPC   C15 8050   3.941   3.331   3.023  0.0255  0.4429  0.2040
   85SLPC  H15A 8051   3.884   3.349   2.933  0.1880 -0.6618 -0.1384
   85SLPC  H15B 8052   4.003   3.415   3.051  1.3168  0.0641 -1.3871
   85SLPC  H15C 8053   4.011   3.250   3.006 -1.9215 -1.6060  1.4196
   85SLPC   C12 8054   3.791   3.137   3.092  0.3720  0.2031 -0.2813
   85SLPC  H12A 8055   3.884   3.084   3.103  1.0190  1.5614  1.2675
   85SLPC  H12B 8056   3.753   3.128   2.991 -0.8423 -1.8728  0.2805
   85SLPC   C11 8057   3.687   3.077   3.187 -0.1142 -0.9365  0.5952
   85SLPC  H11A 8058   3.587   3.120   3.163 -0.3658 -2.1418 -0.6675
   85SLPC  H11B 8059   3.705   3.098   3.295  1.0453  1.9635 -0.0848
   85SLPC     P 8060   3.760   2.820   3.206 -0.0834  0.3219 -0.1316
   85SLPC   O13 8061   3.739   2.704   3.121  0.1889  0.3068  0.2343
   85SLPC   O14 8062   3.901   2.852   3.227 -0.1103 -0.4925 -0.6360
   85SLPC   O12 8063   3.674   2.940   3.155 -0.0004 -0.3557 -0.3130
   85SLPC   O11 8064   3.702   2.796   3.344 -0.7042  0.2053 -0.1273
   85SLPC    C1 8065   3.567   2.758   3.371 -0.7846  0.3852 -0.5923
   85SLPC    HA 8066   3.507   2.850   3.388  2.4066  2.5970 -0.3725
   85SLPC    HB 8067   3.524   2.695   3.290 -2.2363  2.2466 -1.3591
   85SLPC    C2 8068   3.559   2.661   3.494 -1.0096  0.2929  0.2047
   85SLPC    HS 8069   3.459   2.615   3.480 -0.9881  0.3412 -0.1344
   85SLPC   O21 8070   3.577   2.730   3.614  0.7396  0.3365 -0.1612
   85SLPC   C21 8071   3.482   2.819   3.657 -0.6971 -0.0490 -0.2250
   85SLPC   O22 8072   3.384   2.852   3.592 -0.8909  0.1125 -0.4960
   85SLPC   C22 8073   3.518   2.884   3.792  0.2833 -0.1591  0.5320
   85SLPC   H2R 8074   3.619   2.928   3.777  0.8447 -0.9788  1.6950
   85SLPC   H2S 8075   3.443   2.963   3.809  0.7151  0.6898 -1.2956
   85SLPC    C3 8076   3.669   2.553   3.487  0.1966 -0.5810 -0.1426
   85SLPC    HX 8077   3.759   2.615   3.505 -1.2269  1.4087  0.4909
   85SLPC    HY 8078   3.683   2.508   3.386 -1.4831  0.3242 -0.8066
   85SLPC   O31 8079   3.639   2.453   3.583  0.1695 -0.4473 -0.2392
   85SLPC   C31 8080   3.705   2.456   3.702  0.2588 -0.5255 -0.7045
   85SLPC   O32 8081   3.810   2.518   3.721  0.0073  0.1796  0.0857
   85SLPC   C32 8082   3.633   2.355   3.796 -0.4244 -0.1881 -0.7892
   85SLPC   H2X 8083   3.690   2.260   3.782  3.1838  1.8039 -0.5842
   85SLPC   H2Y 8084   3.530   2.346   3.755 -1.1210  0.7829  0.6907
   85SLPC   C23 8085   3.527   2.803   3.918  0.0264 -0.4610  0.3759
   85SLPC   H3R 8086   3.626   2.752   3.914  0.9019  1.0642  1.3450
   85SLPC   H3S 8087   3.440   2.734   3.925  0.0517 -0.7086 -1.3322
   85SLPC   C24 8088   3.523   2.896   4.042 -0.0808  0.3851  0.5692
   85SLPC   H4R 8089   3.417   2.929   4.048 -0.0682  0.7029 -0.7567
   85SLPC   H4S 8090   3.595   2.980   4.033 -1.4475  1.6784  1.1449
   85SLPC   C25 8091   3.554   2.810   4.165 -0.3701 -0.6580 -0.0121
   85SLPC   H5R 8092   3.466   2.744   4.182 -2.0677  1.2810 -0.8599
   85SLPC   H5S 8093   3.637   2.738   4.149 -0.8075 -0.7315 -2.3088
   85SLPC   C26 8094   3.575   2.894   4.289 -0.2352  0.0573 -0.7219
   85SLPC   H6R 8095   3.479   2.950   4.294 -0.7892 -0.9852  1.5541
   85SLPC   H6S 8096   3.659   2.967   4.280  1.2882 -1.2475  1.7257
   85SLPC   C27 8097   3.597   2.810   4.415  0.3846  0.0367 -0.0380
   85SLPC   H7R 8098   3.515   2.737   4.430  0.8973 -0.7966 -1.1615
   85SLPC   H7S 8099   3.575   2.882   4.497 -1.3102 -0.1517 -0.2786
   85SLPC   C28 8100   3.732   2.742   4.432  0.1195 -0.0157 -0.7037
   85SLPC   H8R 8101   3.763   2.685   4.342 -1.3917  0.2851 -1.4321
   85SLPC   H8S 8102   3.708   2.657   4.499 -0.0999 -1.8398 -2.9735
   85SLPC   C29 8103   3.849   2.832   4.481  0.4986 -0.5883  0.3115
   85SLPC   H9R 8104   3.880   2.919   4.421 -0.6572 -1.4050 -1.5590
   85SLPC  C210 8105   3.914   2.822   4.603 -0.1480 -0.2985  0.7908
   85SLPC  H10R 8106   3.999   2.889   4.624 -0.8212  0.1452  2.3207
   85SLPC  C211 8107   3.903   2.710   4.695 -0.1948  0.1740  0.2844
   85SLPC  H11R 8108   3.990   2.644   4.677  0.7064  1.3336  0.3203
   85SLPC  H11S 8109   3.820   2.642   4.664  1.8944 -1.8926 -1.1017
   85SLPC  C212 8110   3.907   2.754   4.844 -0.8367 -0.1403  0.8783
   85SLPC  H12R 8111   3.810   2.778   4.889 -0.6894 -0.0892  1.1711
   85SLPC  C213 8112   4.018   2.755   4.924  0.7517 -0.1311  0.2048
   85SLPC  H13R 8113   4.000   2.793   5.025 -1.5094 -0.0499 -0.1747
   85SLPC  C214 8114   4.152   2.706   4.877 -0.7477 -0.6411 -0.6805
   85SLPC  H14R 8115   4.230   2.785   4.867  1.0633 -2.3108 -0.4038
   85SLPC  H14S 8116   4.162   2.662   4.776  2.4619 -2.6588  0.3673
   85SLPC  C215 8117   4.203   2.607   4.979 -0.5854  0.1408  0.0898
   85SLPC  H15R 8118   4.125   2.533   5.009 -0.6780 -0.1123 -0.7669
   85SLPC  H15S 8119   4.226   2.669   5.068  1.2927  1.0022 -0.9575
   85SLPC  C216 8120   4.334   2.538   4.939  0.1453 -0.3671  0.0070
   85SLPC  H16R 8121   4.414   2.612   4.921 -0.6338  0.9499  1.6778
   85SLPC  H16S 8122   4.314   2.467   4.856 -0.7949  0.0410 -0.1295
   85SLPC  C217 8123   4.389   2.438   5.043  0.3968 -0.1889  0.2143
   85SLPC  H17R 8124   4.309   2.364   5.063  0.8393 -0.6069  0.4830
   85SLPC  H17S 8125   4.417   2.486   5.139 -0.2307  0.7904 -0.0838
   85SLPC  C218 8126   4.522   2.381   4.992  0.0296  0.7227  0.4431
   85SLPC  H18R 8127   4.582   2.473   4.977  1.0301 -0.0867 -0.7144
   85SLPC  H18S 8128   4.501   2.335   4.893 -1.1445  1.8274  0.1647
   85SLPC  H18T 8129   4.576   2.316   5.065 -0.3057  1.5104  1.4207
   85SLPC   C33 8130   3.635   2.386   3.947  0.1299 -0.0206  0.2550
   85SLPC   H3X 8131   3.556   2.320   3.991 -2.4366  2.9804  0.4872
   85SLPC   H3Y 8132   3.597   2.489   3.965 -1.0711  0.2524 -3.1242
   85SLPC   C34 8133   3.769   2.379   4.019  0.0739 -0.2768  0.4037
   85SLPC   H4X 8134   3.823   2.472   3.989 -1.0901 -0.0839 -1.2768
   85SLPC   H4Y 8135   3.823   2.288   3.986  1.2966  0.3643  0.5801
   85SLPC   C35 8136   3.753   2.381   4.171 -0.8725 -0.5044  0.1961
   85SLPC   H5X 8137   3.706   2.471   4.216 -1.8317 -0.9616  0.1219
   85SLPC   H5Y 8138   3.860   2.381   4.201 -0.0928  2.0582 -2.1251
   85SLPC   C36 8139   3.682   2.260   4.226  0.0857  0.6804 -0.1883
   85SLPC   H6X 8140   3.720   2.175   4.165  0.5367  0.0921  0.8937
   85SLPC   H6Y 8141   3.573   2.257   4.202  0.0270 -1.3299  0.1424
   85SLPC   C37 8142   3.704   2.237   4.376 -0.0199 -0.0132 -0.3007
   85SLPC   H7X 8143   3.813   2.242   4.399 -0.1109  1.0514 -0.0506
   85SLPC   H7Y 8144   3.654   2.139   4.391 -2.0989  0.3422 -3.7337
   85SLPC   C38 8145   3.625   2.320   4.478 -0.0312  0.4070  0.2674
   85SLPC   H8X 8146   3.517   2.294   4.472 -1.0028  4.2319 -2.8996
   85SLPC   H8Y 8147   3.628   2.428   4.454  0.0289 -0.0832 -2.2034
   85SLPC   C39 8148   3.672   2.279   4.623 -0.0859 -0.0572 -0.6047
   85SLPC   H9X 8149   3.652   2.170   4.628  1.5669 -0.5650 -3.0661
   85SLPC   H9Y 8150   3.607   2.337   4.693 -0.9382 -0.2322 -1.2390
   85SLPC  C310 8151   3.821   2.302   4.659  0.1382  0.2780  0.5169
   85SLPC  H10X 8152   3.842   2.408   4.633 -0.3267 -0.1694 -1.8364
   85SLPC  H10Y 8153   3.882   2.238   4.592 -0.8545  1.2194 -1.3463
   85SLPC  C311 8154   3.860   2.268   4.806 -0.0088  0.0057  0.1430
   85SLPC  H11X 8155   3.830   2.162   4.816  0.8637 -0.3372 -0.6984
   85SLPC  H11Y 8156   3.808   2.334   4.878  1.5525  0.1600  1.1882
   85SLPC  C312 8157   4.011   2.299   4.829  0.3157  0.0242  0.6506
   85SLPC  H12X 8158   4.039   2.276   4.933  0.9301  1.0150  0.7118
   85SLPC  H12Y 8159   4.017   2.410   4.824 -0.4918  0.0711  0.5277
   85SLPC  C313 8160   4.105   2.225   4.727 -0.3761 -0.5351  0.0302
   85SLPC  H13X 8161   4.209   2.263   4.731 -1.5680  3.1648 -0.6733
   85SLPC  H13Y 8162   4.078   2.240   4.620 -1.8477 -1.6655  0.2194
   85SLPC  C314 8163   4.101   2.076   4.743 -0.7967  0.7246 -0.6424
   85SLPC  H14X 8164   3.998   2.057   4.707 -0.2888 -0.0685 -1.7428
   85SLPC  H14Y 8165   4.112   2.043   4.849  0.5472 -0.7790 -1.1997
   85SLPC  C315 8166   4.206   2.001   4.663  0.4876  0.1111  0.5973
   85SLPC  H15X 8167   4.203   1.894   4.692  0.9393  0.5357  2.2536
   85SLPC  H15Y 8168   4.308   2.044   4.666  0.4561  0.2282  0.1742
   85SLPC  C316 8169   4.172   2.001   4.514 -0.0125  0.6341 -0.6988
   85SLPC  H16X 8170   4.194   2.099   4.468 -0.2407  0.2086 -1.7574
   85SLPC  H16Y 8171   4.062   1.984   4.512 -0.1367  1.2079  0.4076
   85SLPC  C317 8172   4.252   1.900   4.444 -0.3530  0.5204  0.3996
   85SLPC  H17X 8173   4.229   1.800   4.486 -1.2529  1.3038  1.8694
   85SLPC  H17Y 8174   4.360   1.922   4.461 -0.6709  3.5069 -0.8172
   85SLPC  C318 8175   4.221   1.886   4.289 -0.0714  0.4685 -0.4976
   85SLPC  H18X 8176   4.112   1.896   4.271 -0.0006 -0.6207 -1.6188
   85SLPC  H18Y 8177   4.250   1.785   4.255  0.1109  0.6240 -0.8071
   85SLPC  H18Z 8178   4.276   1.967   4.237 -0.1053  0.6621 -0.2378
   86SLPC     N 8179   0.814   5.111   2.626 -0.3618  0.0683  0.9060
   86SLPC   C13 8180   0.913   5.058   2.523 -0.0517 -1.0622 -0.4174
   86SLPC  H13A 8181   0.914   5.132   2.445 -1.5073 -3.8569 -3.2776
   86SLPC  H13B 8182   1.011   5.052   2.567 -0.6065 -1.1765  0.8488
   86SLPC  H13C 8183   0.879   4.970   2.471 -0.0260 -1.1723 -0.2498
   86SLPC   C14 8184   0.787   5.008   2.729  0.1530 -0.1808 -0.8900
   86SLPC  H14A 8185   0.734   4.925   2.685 -0.8096  1.5232 -3.1192
   86SLPC  H14B 8186   0.879   4.969   2.769 -0.1604 -0.6243 -0.5911
   86SLPC  H14C 8187   0.739   5.057   2.813 -0.9141 -0.5879 -1.2429
   86SLPC   C15 8188   0.680   5.141   2.561  0.2062  0.2850 -0.0672
   86SLPC  H15A 8189   0.660   5.069   2.484  1.0477  0.4168 -0.4201
   86SLPC  H15B 8190   0.603   5.130   2.636 -0.5645  0.6090 -0.7947
   86SLPC  H15C 8191   0.681   5.242   2.522  0.1166  0.1618 -0.3914
   86SLPC   C12 8192   0.869   5.243   2.687 -0.4919  0.7122  0.0014
   86SLPC  H12A 8193   0.952   5.212   2.748 -1.3657 -1.9557 -0.0367
   86SLPC  H12B 8194   0.795   5.277   2.758  2.2465  2.0966  2.3717
   86SLPC   C11 8195   0.916   5.355   2.601 -0.4335 -0.5466 -0.4055
   86SLPC  H11A 8196   0.995   5.318   2.532  1.2063 -0.1950  1.2113
   86SLPC  H11B 8197   0.977   5.426   2.661  0.0724 -0.9876 -0.3971
   86SLPC     P 8198   0.714   5.518   2.595 -0.2885  0.0018 -0.4138
   86SLPC   O13 8199   0.735   5.659   2.556  0.7027  0.7829  0.5334
   86SLPC   O14 8200   0.585   5.464   2.560  0.2213 -0.1697 -0.4670
   86SLPC   O12 8201   0.815   5.422   2.524 -0.6261  0.0829  0.2414
   86SLPC   O11 8202   0.753   5.500   2.753  0.4814  0.5612 -0.0093
   86SLPC    C1 8203   0.758   5.626   2.830 -0.6410  0.0437 -0.3499
   86SLPC    HA 8204   0.700   5.709   2.784  0.6030  0.7264 -0.7061
   86SLPC    HB 8205   0.691   5.614   2.919  0.1795  1.7606  0.5411
   86SLPC    C2 8206   0.899   5.669   2.869 -0.1795  0.4442 -0.0881
   86SLPC    HS 8207   0.956   5.688   2.776  0.4884  0.0617  0.2366
   86SLPC   O21 8208   0.963   5.559   2.948 -0.1400 -0.0183 -0.5506
   86SLPC   C21 8209   1.097   5.551   2.950  0.7830  0.2986  0.3387
   86SLPC   O22 8210   1.168   5.609   2.873  0.7673 -0.1058 -0.2678
   86SLPC   C22 8211   1.133   5.426   3.039  0.2217  0.0502  0.1588
   86SLPC   H2R 8212   1.056   5.416   3.118 -0.6139 -0.5259 -0.7051
   86SLPC   H2S 8213   1.124   5.339   2.970 -1.3145 -0.0756  0.4926
   86SLPC    C3 8214   0.893   5.800   2.943  0.3881 -0.1357 -0.3331
   86SLPC    HX 8215   0.826   5.875   2.895  0.5439  1.3463  1.6567
   86SLPC    HY 8216   0.994   5.847   2.945  0.3985 -0.1361 -0.7466
   86SLPC   O31 8217   0.841   5.785   3.076 -0.2910 -0.1021  0.0288
   86SLPC   C31 8218   0.937   5.767   3.164  0.3582  0.4730 -0.1256
   86SLPC   O32 8219   1.057   5.783   3.146  0.0443  0.4313  0.0696
   86SLPC   C32 8220   0.882   5.713   3.296 -0.2437 -0.2754  0.4936
   86SLPC   H2X 8221   0.790   5.652   3.285 -1.4214  0.6977  3.7397
   86SLPC   H2Y 8222   0.855   5.805   3.352  0.5120 -0.2360  0.8081
   86SLPC   C23 8223   1.266   5.430   3.108 -0.1697 -0.6073  0.2890
   86SLPC   H3R 8224   1.278   5.518   3.176  0.3588  1.2406 -2.0460
   86SLPC   H3S 8225   1.344   5.442   3.029 -1.4256  2.2066 -0.6871
   86SLPC   C24 8226   1.304   5.296   3.167 -0.4735 -0.1731  0.8077
   86SLPC   H4R 8227   1.414   5.297   3.182 -0.5277  0.0610  1.2115
   86SLPC   H4S 8228   1.279   5.212   3.099 -1.7822 -1.3425  2.6535
   86SLPC   C25 8229   1.239   5.276   3.305 -0.3073 -0.4678  0.2514
   86SLPC   H5R 8230   1.130   5.284   3.286 -0.2319  2.2071  0.4766
   86SLPC   H5S 8231   1.268   5.356   3.377 -1.3596 -0.5127  0.7485
   86SLPC   C26 8232   1.263   5.134   3.363 -0.1318 -1.0620 -0.2044
   86SLPC   H6R 8233   1.372   5.125   3.383 -0.0135  0.1915 -0.1658
   86SLPC   H6S 8234   1.222   5.051   3.303 -2.3078 -0.3904  0.2544
   86SLPC   C27 8235   1.204   5.131   3.501  0.2458  0.3341  0.0259
   86SLPC   H7R 8236   1.096   5.155   3.496 -0.2893 -2.1215 -3.0643
   86SLPC   H7S 8237   1.252   5.200   3.574  0.0004 -0.3911  0.9004
   86SLPC   C28 8238   1.230   4.989   3.569  0.2540  0.3503 -0.4636
   86SLPC   H8R 8239   1.337   4.967   3.590  0.5647  0.8384 -1.4574
   86SLPC   H8S 8240   1.196   4.917   3.491 -1.7132 -0.3370  0.9476
   86SLPC   C29 8241   1.146   4.951   3.690 -0.5585  0.1285  0.0357
   86SLPC   H9R 8242   1.071   4.876   3.663  0.3033  0.2355 -3.1088
   86SLPC  C210 8243   1.140   5.010   3.809 -0.4816 -0.7974  0.0847
   86SLPC  H10R 8244   1.062   4.975   3.878  2.3176 -2.3178  2.6857
   86SLPC  C211 8245   1.234   5.119   3.862  0.6105  0.0394 -0.6304
   86SLPC  H11R 8246   1.193   5.154   3.958 -1.6250 -1.8067 -0.8329
   86SLPC  H11S 8247   1.226   5.208   3.795 -1.0789  0.5381  0.1938
   86SLPC  C212 8248   1.372   5.062   3.886  0.4347  0.7558  0.8910
   86SLPC  H12R 8249   1.426   5.043   3.793 -0.3031  0.0399  0.5935
   86SLPC  C213 8250   1.410   5.010   4.006  0.9246 -0.5258 -0.2160
   86SLPC  H13R 8251   1.510   4.966   4.018 -0.2118 -3.0759  0.6729
   86SLPC  C214 8252   1.336   5.022   4.143  0.3723  0.4606  0.0975
   86SLPC  H14R 8253   1.283   5.119   4.152 -0.0279  0.1388  1.5663
   86SLPC  H14S 8254   1.405   5.008   4.230  1.9136  1.7331 -0.8637
   86SLPC  C215 8255   1.249   4.898   4.169  0.0184 -0.1586  0.4178
   86SLPC  H15R 8256   1.300   4.800   4.158 -2.0598 -1.1597 -1.2145
   86SLPC  H15S 8257   1.180   4.899   4.081 -2.4213 -0.7533  2.2117
   86SLPC  C216 8258   1.172   4.900   4.296  0.4148  0.8206  0.4367
   86SLPC  H16R 8259   1.091   4.825   4.288 -0.4267  1.7381  0.1419
   86SLPC  H16S 8260   1.130   5.001   4.315  0.8826  0.9297  0.9244
   86SLPC  C217 8261   1.257   4.859   4.416 -0.6498  0.8789  0.8917
   86SLPC  H17R 8262   1.345   4.926   4.426  0.5513 -0.6291  0.8032
   86SLPC  H17S 8263   1.313   4.765   4.396  0.4282  1.6524  0.1199
   86SLPC  C218 8264   1.177   4.860   4.544  0.6592 -0.3633  0.8551
   86SLPC  H18R 8265   1.150   4.964   4.571  2.1280  0.0815  0.7238
   86SLPC  H18S 8266   1.234   4.817   4.629  2.6715 -1.0372 -0.7523
   86SLPC  H18T 8267   1.089   4.798   4.518  1.1162  0.0306 -2.0034
   86SLPC   C33 8268   0.974   5.637   3.398  0.5623 -1.1256 -0.0645
   86SLPC   H3X 8269   1.060   5.702   3.427 -1.0447  2.1967 -2.1563
   86SLPC   H3Y 8270   1.015   5.542   3.357  0.2656 -1.0976 -0.4265
   86SLPC   C34 8271   0.895   5.621   3.532  0.7958 -0.1848  0.2450
   86SLPC   H4X 8272   0.788   5.599   3.514 -0.3546  2.6115  2.8026
   86SLPC   H4Y 8273   0.903   5.720   3.583  0.6940  0.3758 -0.7903
   86SLPC   C35 8274   0.950   5.512   3.624  0.1966  0.4742  0.4805
   86SLPC   H5X 8275   1.060   5.527   3.615 -0.0666  1.8926 -0.7305
   86SLPC   H5Y 8276   0.911   5.423   3.571  3.4401  0.2782 -1.9107
   86SLPC   C36 8277   0.911   5.504   3.767  0.4826  0.2666 -0.3724
   86SLPC   H6X 8278   0.816   5.560   3.775  1.4702  1.9495  0.1083
   86SLPC   H6Y 8279   0.977   5.549   3.844 -0.0500 -1.0932  0.9344
   86SLPC   C37 8280   0.899   5.356   3.814 -0.0092  0.3092 -0.5020
   86SLPC   H7X 8281   0.989   5.298   3.784 -0.8527 -1.1339 -0.3414
   86SLPC   H7Y 8282   0.821   5.302   3.757 -1.4234  0.7339  0.9496
   86SLPC   C38 8283   0.878   5.339   3.964  0.3697  0.1805  0.1495
   86SLPC   H8X 8284   0.816   5.422   4.004  0.2202 -0.0541  0.4014
   86SLPC   H8Y 8285   0.970   5.318   4.023  0.0139 -1.6062  0.1343
   86SLPC   C39 8286   0.804   5.208   3.997  0.6931  0.4719  0.7380
   86SLPC   H9X 8287   0.840   5.121   3.937 -0.6243  0.7111 -0.4438
   86SLPC   H9Y 8288   0.698   5.225   3.971  1.0439  0.0683 -1.0546
   86SLPC  C310 8289   0.803   5.167   4.149 -0.4626 -0.0900  0.3800
   86SLPC  H10X 8290   0.784   5.249   4.221  3.6151  0.2811  1.2455
   86SLPC  H10Y 8291   0.902   5.125   4.177  0.5475  2.4408  0.8944
   86SLPC  C311 8292   0.701   5.054   4.175 -0.4065  0.0990  0.0970
   86SLPC  H11X 8293   0.718   4.978   4.097 -0.1476 -2.0853  2.1539
   86SLPC  H11Y 8294   0.596   5.089   4.169 -0.7315 -0.6231  1.1862
   86SLPC  C312 8295   0.734   4.969   4.304  0.5183 -0.7959 -0.8540
   86SLPC  H12X 8296   0.845   4.966   4.298  0.6926  2.9174 -1.5638
   86SLPC  H12Y 8297   0.690   4.867   4.312 -0.3370 -0.3739  0.0122
   86SLPC  C313 8298   0.689   5.029   4.437 -0.1516 -0.6047  0.2001
   86SLPC  H13X 8299   0.583   4.999   4.451 -0.3017  0.0798  0.5618
   86SLPC  H13Y 8300   0.699   5.139   4.432  1.9377 -0.5632  2.9500
   86SLPC  C314 8301   0.771   4.980   4.559 -0.5289 -0.8316 -0.3160
   86SLPC  H14X 8302   0.879   5.002   4.546 -1.3191  3.1921 -1.4447
   86SLPC  H14Y 8303   0.750   4.873   4.577 -0.4014 -0.7191  0.5275
   86SLPC  C315 8304   0.740   5.061   4.689 -0.4286  0.3412  0.1503
   86SLPC  H15X 8305   0.629   5.067   4.690 -0.5673 -1.4413  0.0782
   86SLPC  H15Y 8306   0.774   5.165   4.674  2.4946 -0.8838 -3.0859
   86SLPC  C316 8307   0.798   5.006   4.818 -0.2623 -0.0895 -0.2069
   86SLPC  H16X 8308   0.907   5.023   4.812  0.0919 -2.4435 -1.4556
   86SLPC  H16Y 8309   0.777   4.898   4.829  0.5290 -0.0355  2.5839
   86SLPC  C317 8310   0.755   5.087   4.945 -0.6074 -0.4766  0.6920
   86SLPC  H17X 8311   0.644   5.093   4.937 -0.5555 -0.0908  0.2219
   86SLPC  H17Y 8312   0.794   5.191   4.949 -3.0709  0.5855 -0.6335
   86SLPC  C318 8313   0.797   5.030   5.077 -0.3421  0.2707  0.9155
   86SLPC  H18X 8314   0.761   4.926   5.091 -0.1655  0.0150 -0.3933
   86SLPC  H18Y 8315   0.749   5.096   5.151 -0.1145  1.6337 -0.1134
   86SLPC  H18Z 8316   0.907   5.028   5.097 -0.0290  2.8026 -0.1573
   87SLPC     N 8317   4.992   4.300   3.079  0.4332 -0.2741 -0.5830
   87SLPC   C13 8318   4.948   4.303   2.933  0.0325  0.7171 -0.3484
   87SLPC  H13A 8319   4.872   4.228   2.913 -0.0839  0.3616  1.2654
   87SLPC  H13B 8320   4.923   4.402   2.899  1.9392  0.4626 -2.7555
   87SLPC  H13C 8321   5.026   4.291   2.859 -1.9810  0.5399 -2.5706
   87SLPC   C14 8322   4.884   4.360   3.163 -0.3000 -0.8942 -0.5841
   87SLPC  H14A 8323   4.824   4.284   3.211 -0.4714 -0.3187  0.1231
   87SLPC  H14B 8324   4.924   4.417   3.245  0.8541 -3.9201  1.1438
   87SLPC  H14C 8325   4.811   4.417   3.109  1.3204 -0.5933 -2.5877
   87SLPC   C15 8326   5.118   4.384   3.096  1.1750  0.3261  0.3820
   87SLPC  H15A 8327   5.201   4.319   3.073 -0.2382 -1.8650  1.1838
   87SLPC  H15B 8328   5.123   4.473   3.034  1.9788 -0.0278 -0.0805
   87SLPC  H15C 8329   5.126   4.405   3.202 -0.2782 -0.5754  0.6962
   87SLPC   C12 8330   5.013   4.157   3.132 -0.4793 -0.3801 -0.3248
   87SLPC  H12A 8331   5.043   4.156   3.235 -2.9594 -1.1900  0.4678
   87SLPC  H12B 8332   5.093   4.116   3.072 -1.8602 -0.0591 -2.5048
   87SLPC   C11 8333   4.908   4.043   3.104  0.4382  0.6558 -0.1048
   87SLPC  H11A 8334   4.952   3.949   3.144 -0.8023  0.4861  0.8979
   87SLPC  H11B 8335   4.902   4.027   2.994 -2.2398 -0.2045  0.1081
   87SLPC     P 8336   4.653   3.997   3.121 -0.2280  0.1475 -0.4407
   87SLPC   O13 8337   4.543   4.093   3.085  0.2828  0.2957  0.3022
   87SLPC   O14 8338   4.689   3.885   3.023 -0.0028 -0.1692 -0.0681
   87SLPC   O12 8339   4.783   4.068   3.169 -0.1322  0.1415  0.4363
   87SLPC   O11 8340   4.613   3.934   3.263 -0.6691 -0.8504 -0.1697
   87SLPC    C1 8341   4.698   3.841   3.331  0.4095 -0.5088  0.5951
   87SLPC    HA 8342   4.629   3.795   3.405 -0.0841  1.9291  1.7328
   87SLPC    HB 8343   4.737   3.756   3.271  2.0840  1.1223 -0.7457
   87SLPC    C2 8344   4.804   3.905   3.421  0.2130 -0.7339 -0.5650
   87SLPC    HS 8345   4.894   3.930   3.360  1.4792  0.1466  1.5441
   87SLPC   O21 8346   4.838   3.816   3.527 -0.1582 -0.6510 -0.3721
   87SLPC   C21 8347   4.913   3.712   3.500  0.4234  0.8704  0.7672
   87SLPC   O22 8348   4.962   3.686   3.386 -0.2320 -0.2450  0.1362
   87SLPC   C22 8349   4.950   3.634   3.622  0.2271  0.3235  0.7513
   87SLPC   H2R 8350   4.875   3.650   3.702  0.6424  0.9499  1.0203
   87SLPC   H2S 8351   4.946   3.528   3.589 -0.3675  0.9291 -1.2384
   87SLPC    C3 8352   4.752   4.044   3.485  0.4706  0.2963 -0.0932
   87SLPC    HX 8353   4.666   4.027   3.554  0.0696 -2.4265 -1.1384
   87SLPC    HY 8354   4.718   4.111   3.403  0.4865  2.6121  1.6915
   87SLPC   O31 8355   4.866   4.108   3.550 -0.1647 -0.4561 -0.4227
   87SLPC   C31 8356   4.887   4.060   3.674  0.2275  0.6628  0.4714
   87SLPC   O32 8357   4.804   3.994   3.734  0.2320 -0.5350  0.2671
   87SLPC   C32 8358   5.020   4.110   3.728 -0.0143  0.2235  0.4725
   87SLPC   H2X 8359   5.017   4.217   3.696 -0.2161 -0.4213 -1.8096
   87SLPC   H2Y 8360   5.101   4.063   3.669  0.7897  0.0302  1.6854
   87SLPC   C23 8361   5.100   3.641   3.666 -0.2438 -0.3956  0.0094
   87SLPC   H3R 8362   5.168   3.643   3.579 -1.6041 -1.2838 -1.1104
   87SLPC   H3S 8363   5.130   3.565   3.741  1.7151  0.9206  0.6490
   87SLPC   C24 8364   5.125   3.762   3.751 -0.5916 -0.6952  0.2395
   87SLPC   H4R 8365   5.074   3.756   3.849 -1.0901 -2.5284 -0.1020
   87SLPC   H4S 8366   5.083   3.853   3.703 -1.9787 -0.4848  1.7773
   87SLPC   C25 8367   5.275   3.793   3.777  0.5183  0.2714  0.3063
   87SLPC   H5R 8368   5.275   3.884   3.841  1.2446  0.8183 -0.4429
   87SLPC   H5S 8369   5.326   3.825   3.684 -0.4515 -1.1874 -0.7580
   87SLPC   C26 8370   5.357   3.682   3.843 -0.0578  0.0746  0.2635
   87SLPC   H6R 8371   5.347   3.584   3.792 -1.2100  0.7364 -0.8729
   87SLPC   H6S 8372   5.337   3.679   3.952  1.1457 -0.5747  0.4760
   87SLPC   C27 8373   5.503   3.715   3.844  0.8908 -0.1027  0.4145
   87SLPC   H7R 8374   5.516   3.808   3.904  1.0751 -0.4590  0.9417
   87SLPC   H7S 8375   5.538   3.749   3.744 -1.8898  2.4983  0.1668
   87SLPC   C28 8376   5.584   3.599   3.906 -0.0926 -0.0646  0.0356
   87SLPC   H8R 8377   5.689   3.610   3.870 -0.8117  0.7878 -1.9217
   87SLPC   H8S 8378   5.548   3.506   3.857 -0.1785 -0.1285  0.2184
   87SLPC   C29 8379   5.581   3.581   4.054 -0.7425 -1.0210 -0.1053
   87SLPC   H9R 8380   5.649   3.643   4.114 -1.1343  1.7676 -2.3416
   87SLPC  C210 8381   5.512   3.491   4.118  0.1968  0.0086 -0.1757
   87SLPC  H10R 8382   5.517   3.483   4.227 -2.1300 -0.2838 -0.0407
   87SLPC  C211 8383   5.414   3.389   4.061  0.4654 -0.0996 -0.0785
   87SLPC  H11R 8384   5.397   3.396   3.952  0.0031 -0.4388 -0.0309
   87SLPC  H11S 8385   5.311   3.414   4.095  0.5971 -0.5083  0.6335
   87SLPC  C212 8386   5.448   3.243   4.096  0.3253  0.1280  0.1148
   87SLPC  H12R 8387   5.506   3.189   4.020  1.9709 -0.3715  1.6557
   87SLPC  C213 8388   5.408   3.175   4.207  0.2311  0.0464 -0.1577
   87SLPC  H13R 8389   5.472   3.092   4.241  0.7234 -0.0637 -1.2847
   87SLPC  C214 8390   5.329   3.245   4.322  0.5706 -0.1588 -0.2249
   87SLPC  H14R 8391   5.238   3.192   4.358  0.6146  0.9777  1.7486
   87SLPC  H14S 8392   5.295   3.348   4.299 -3.7572 -1.2678  0.2383
   87SLPC  C215 8393   5.434   3.263   4.441  0.1773  0.4811  0.7814
   87SLPC  H15R 8394   5.499   3.346   4.407  2.5194 -1.4462  0.2862
   87SLPC  H15S 8395   5.482   3.168   4.473 -1.5213 -1.5093 -2.1754
   87SLPC  C216 8396   5.372   3.325   4.566  0.0226 -0.4171  0.3510
   87SLPC  H16R 8397   5.275   3.273   4.575  0.2403 -0.8557  0.1667
   87SLPC  H16S 8398   5.356   3.434   4.549 -0.9011 -0.6646 -0.4847
   87SLPC  C217 8399   5.466   3.307   4.697 -0.0798 -0.2619 -0.4695
   87SLPC  H17R 8400   5.546   3.383   4.685 -0.1804  0.0489  0.6600
   87SLPC  H17S 8401   5.511   3.206   4.690 -0.6823 -0.7008  1.4217
   87SLPC  C218 8402   5.381   3.328   4.821  0.2276 -0.0349 -0.4510
   87SLPC  H18R 8403   5.282   3.279   4.814 -0.6478  1.7194 -1.2360
   87SLPC  H18S 8404   5.362   3.437   4.831  3.0428  1.1819 -5.1676
   87SLPC  H18T 8405   5.444   3.286   4.903 -1.2715  1.4496  1.5841
   87SLPC   C33 8406   5.027   4.101   3.883 -0.4993  0.0640  0.0955
   87SLPC   H3X 8407   5.045   3.996   3.913  3.7967  0.4250 -0.5387
   87SLPC   H3Y 8408   4.942   4.143   3.940  1.9106  0.3914  3.7652
   87SLPC   C34 8409   5.157   4.174   3.937  0.1105 -0.1673 -0.4356
   87SLPC   H4X 8410   5.136   4.280   3.913  1.0266 -0.6167 -3.6126
   87SLPC   H4Y 8411   5.248   4.148   3.879 -1.1668 -1.7714 -1.8412
   87SLPC   C35 8412   5.190   4.145   4.084  0.4359 -0.6255 -0.5242
   87SLPC   H5X 8413   5.106   4.192   4.140  0.4040 -1.6962  0.3632
   87SLPC   H5Y 8414   5.274   4.210   4.115 -0.7581  0.5551  0.3429
   87SLPC   C36 8415   5.204   4.006   4.128  0.0671 -0.1818  0.1540
   87SLPC   H6X 8416   5.281   3.958   4.064  0.7691 -0.3174  1.0761
   87SLPC   H6Y 8417   5.113   3.948   4.103 -0.5779  0.0394  1.8648
   87SLPC   C37 8418   5.235   3.986   4.273 -0.0695  0.4609 -0.1001
   87SLPC   H7X 8419   5.142   3.976   4.332 -0.4076 -1.5863 -0.9080
   87SLPC   H7Y 8420   5.293   4.068   4.321  0.5255 -0.6438  1.1028
   87SLPC   C38 8421   5.341   3.875   4.278  0.1067  0.0675 -0.4002
   87SLPC   H8X 8422   5.425   3.898   4.209  1.0877  0.0853  0.7716
   87SLPC   H8Y 8423   5.294   3.782   4.239 -1.3913  0.5205  0.2726
   87SLPC   C39 8424   5.398   3.853   4.417 -0.3721 -0.6515 -0.3735
   87SLPC   H9X 8425   5.322   3.804   4.481 -1.6682  0.7297 -0.7906
   87SLPC   H9Y 8426   5.404   3.954   4.464 -0.9587 -1.3515  1.2916
   87SLPC  C310 8427   5.529   3.778   4.428 -0.6513  0.6070  0.0266
   87SLPC  H10X 8428   5.611   3.839   4.384  1.3955 -0.9802  1.4408
   87SLPC  H10Y 8429   5.510   3.682   4.375 -2.0804  1.6534 -1.4376
   87SLPC  C311 8430   5.570   3.723   4.572  0.2351  0.2990 -0.0139
   87SLPC  H11X 8431   5.491   3.669   4.628  0.3097  1.1492  0.9491
   87SLPC  H11Y 8432   5.585   3.822   4.622 -0.0380  0.2228  0.2223
   87SLPC  C312 8433   5.697   3.629   4.555 -0.5278 -0.2713 -0.0862
   87SLPC  H12X 8434   5.770   3.666   4.479  1.5780 -1.0215  1.4971
   87SLPC  H12Y 8435   5.674   3.529   4.514 -0.7157  0.8209 -2.8965
   87SLPC  C313 8436   5.785   3.624   4.683 -0.1006  0.3455  0.4962
   87SLPC  H13X 8437   5.814   3.519   4.708  0.5313 -0.4981 -3.0754
   87SLPC  H13Y 8438   5.732   3.657   4.774  0.5076 -1.3337  1.5110
   87SLPC  C314 8439   5.919   3.701   4.666  0.2361  0.5372 -0.1145
   87SLPC  H14X 8440   5.946   3.754   4.760  1.6691 -0.8125  0.2772
   87SLPC  H14Y 8441   5.895   3.782   4.594  0.5270  1.1732  0.4851
   87SLPC  C315 8442   6.027   3.607   4.623  0.2625 -0.4240  0.1536
   87SLPC  H15X 8443   5.991   3.529   4.553  2.4344 -0.3408 -1.1377
   87SLPC  H15Y 8444   6.064   3.549   4.710  0.0750  0.3047  0.7291
   87SLPC  C316 8445   6.144   3.688   4.562  0.0958 -0.2761  0.8018
   87SLPC  H16X 8446   6.190   3.753   4.639 -0.2081  1.9608 -0.8015
   87SLPC  H16Y 8447   6.107   3.754   4.480  2.0655 -1.5664 -1.2401
   87SLPC  C317 8448   6.241   3.591   4.508 -0.2329 -0.3788  0.2201
   87SLPC  H17X 8449   6.199   3.517   4.437 -1.6881 -0.7751  1.4195
   87SLPC  H17Y 8450   6.285   3.528   4.589  0.9063 -0.3928 -0.3896
   87SLPC  C318 8451   6.359   3.658   4.438 -0.0701 -0.6198  0.4228
   87SLPC  H18X 8452   6.436   3.579   4.424 -0.3371 -0.5268 -2.0027
   87SLPC  H18Y 8453   6.399   3.731   4.513  0.2119  0.0744 -0.3830
   87SLPC  H18Z 8454   6.336   3.701   4.338  0.2252 -3.7024 -1.0711
   88SLPC     N 8455   6.828   4.226   2.066  0.2803 -0.6948 -1.0658
   88SLPC   C13 8456   6.683   4.191   2.085 -0.1103  0.2169 -0.4044
   88SLPC  H13A 8457   6.620   4.258   2.028  0.2807 -0.0057 -1.1071
   88SLPC  H13B 8458   6.680   4.093   2.039  0.3000  0.0462 -0.0642
   88SLPC  H13C 8459   6.661   4.179   2.190 -1.9691 -2.5289 -1.0010
   88SLPC   C14 8460   6.838   4.379   2.077  0.3873 -0.1413 -0.3052
   88SLPC  H14A 8461   6.830   4.416   2.178 -1.2264 -0.1504 -0.4042
   88SLPC  H14B 8462   6.938   4.401   2.043 -0.4441 -0.1448 -2.9414
   88SLPC  H14C 8463   6.754   4.420   2.024  0.3084 -1.3532 -1.1515
   88SLPC   C15 8464   6.871   4.178   1.932  0.1073 -0.3089  0.9502
   88SLPC  H15A 8465   6.975   4.202   1.918 -0.1934  0.3322 -0.3552
   88SLPC  H15B 8466   6.842   4.074   1.922  0.5187 -0.2472 -1.2659
   88SLPC  H15C 8467   6.818   4.232   1.855  0.1749 -0.4043  0.8360
   88SLPC   C12 8468   6.907   4.160   2.168 -1.0140 -0.2409 -0.5281
   88SLPC  H12A 8469   7.009   4.159   2.133 -1.3935 -2.6586 -1.7948
   88SLPC  H12B 8470   6.883   4.055   2.173  1.0872 -0.7541 -0.3562
   88SLPC   C11 8471   6.912   4.227   2.313  0.7152  0.9133  0.1103
   88SLPC  H11A 8472   6.950   4.331   2.307  1.5559  0.6203  0.1434
   88SLPC  H11B 8473   6.993   4.171   2.366 -0.5793 -0.3947  0.7632
   88SLPC     P 8474   6.734   4.091   2.433  0.0533  0.1446  0.1198
   88SLPC   O13 8475   6.591   4.101   2.443  0.0572 -0.0635 -0.1206
   88SLPC   O14 8476   6.794   3.975   2.363 -0.2931  0.3883 -0.0292
   88SLPC   O12 8477   6.784   4.228   2.373  0.1524  0.6572 -0.3133
   88SLPC   O11 8478   6.795   4.086   2.579  0.4211  0.4242  0.1412
   88SLPC    C1 8479   6.737   4.175   2.675 -0.1920 -0.6313 -0.3145
   88SLPC    HA 8480   6.744   4.281   2.642  1.0230 -0.0874  1.5070
   88SLPC    HB 8481   6.631   4.149   2.697  0.4937 -0.1040  4.9381
   88SLPC    C2 8482   6.809   4.172   2.808 -0.5573  0.2000  0.0858
   88SLPC    HS 8483   6.910   4.215   2.791 -0.9736  0.7106 -1.1908
   88SLPC   O21 8484   6.820   4.029   2.860 -0.3813  0.0712 -0.0614
   88SLPC   C21 8485   6.944   3.981   2.865 -0.0673  0.2216  0.2812
   88SLPC   O22 8486   7.050   4.043   2.844  0.1242 -0.0489 -0.1711
   88SLPC   C22 8487   6.938   3.844   2.935  0.1520  1.0994  0.0596
   88SLPC   H2R 8488   6.856   3.840   3.011 -0.2939  2.9955 -0.2810
   88SLPC   H2S 8489   6.931   3.759   2.864  2.8020  0.9436 -0.0926
   88SLPC    C3 8490   6.736   4.255   2.917 -0.0889  0.0741 -0.1103
   88SLPC    HX 8491   6.641   4.216   2.959 -0.0434  0.2903  0.1969
   88SLPC    HY 8492   6.700   4.347   2.868 -0.5858 -0.9005 -1.6440
   88SLPC   O31 8493   6.836   4.268   3.024  1.1882 -0.2425 -0.4602
   88SLPC   C31 8494   6.861   4.390   3.068  0.4325  0.7291 -0.5167
   88SLPC   O32 8495   6.818   4.491   3.026 -0.2716 -0.0431  0.7346
   88SLPC   C32 8496   6.959   4.384   3.180 -0.7350  0.6413  0.6689
   88SLPC   H2X 8497   6.899   4.366   3.271 -2.9435 -0.1908 -0.8765
   88SLPC   H2Y 8498   7.002   4.486   3.190 -0.3165  0.4474  0.8686
   88SLPC   C23 8499   7.072   3.815   3.013  0.5319 -0.3254 -0.0959
   88SLPC   H3R 8500   7.088   3.902   3.080  0.2721 -0.6078  0.3377
   88SLPC   H3S 8501   7.151   3.815   2.935  0.4826 -0.5644 -0.1492
   88SLPC   C24 8502   7.077   3.690   3.099  0.5490  0.5753 -0.1418
   88SLPC   H4R 8503   7.185   3.666   3.108  1.1060  2.9296  0.0239
   88SLPC   H4S 8504   7.028   3.606   3.044  0.0250 -0.3348  1.6439
   88SLPC   C25 8505   6.999   3.692   3.228 -0.1806 -0.5458 -0.0877
   88SLPC   H5R 8506   6.894   3.724   3.208  1.3060  5.4912 -0.0376
   88SLPC   H5S 8507   7.035   3.773   3.295 -0.0554 -0.5901 -0.1011
   88SLPC   C26 8508   7.002   3.554   3.286 -0.6396 -0.9727  0.0884
   88SLPC   H6R 8509   7.107   3.540   3.319 -1.1041 -1.6091  1.3752
   88SLPC   H6S 8510   6.979   3.480   3.206 -0.7271 -1.0995  0.2283
   88SLPC   C27 8511   6.907   3.545   3.404 -0.1886  0.1348 -1.0434
   88SLPC   H7R 8512   6.800   3.551   3.375 -0.4991 -1.3927 -0.3584
   88SLPC   H7S 8513   6.927   3.628   3.475 -0.0872 -0.9304  0.2047
   88SLPC   C28 8514   6.930   3.424   3.496 -0.3358 -0.8484  0.1171
   88SLPC   H8R 8515   6.852   3.453   3.570  1.0996  1.2906  0.9080
   88SLPC   H8S 8516   7.029   3.439   3.544 -1.3279  3.4675  1.2158
   88SLPC   C29 8517   6.919   3.293   3.419 -0.5159  0.3479 -0.0628
   88SLPC   H9R 8518   6.972   3.280   3.323 -1.0092 -0.4445 -0.2453
   88SLPC  C210 8519   6.837   3.192   3.447 -0.0102  0.4029 -0.1934
   88SLPC  H10R 8520   6.826   3.106   3.380  0.9470  1.6815 -2.1157
   88SLPC  C211 8521   6.730   3.199   3.559 -0.0276  0.3415  0.0585
   88SLPC  H11R 8522   6.657   3.118   3.537 -1.1304  0.8327  1.6791
   88SLPC  H11S 8523   6.661   3.286   3.554  0.7896  0.9486 -1.0417
   88SLPC  C212 8524   6.786   3.184   3.700 -0.3570  0.1026 -1.0849
   88SLPC  H12R 8525   6.886   3.227   3.713 -0.2578 -0.6042  0.7287
   88SLPC  C213 8526   6.718   3.116   3.803  0.0638 -0.0804 -0.1169
   88SLPC  H13R 8527   6.765   3.124   3.902  1.0113 -1.4066 -0.4168
   88SLPC  C214 8528   6.573   3.064   3.801  0.3081  0.2568 -0.0182
   88SLPC  H14R 8529   6.581   2.953   3.793  0.4547  0.4208 -3.5392
   88SLPC  H14S 8530   6.516   3.108   3.717  1.0350  3.0335  0.8321
   88SLPC  C215 8531   6.503   3.108   3.932 -0.2872 -0.3003 -0.2715
   88SLPC  H15R 8532   6.564   3.056   4.009 -1.0925 -1.7113 -0.5710
   88SLPC  H15S 8533   6.403   3.061   3.931 -0.1814 -0.6020  1.3533
   88SLPC  C216 8534   6.483   3.261   3.947 -0.1281 -0.0621 -0.0236
   88SLPC  H16R 8535   6.418   3.301   3.867  0.7042  2.3793  0.4374
   88SLPC  H16S 8536   6.583   3.307   3.933  1.9388 -3.3223  2.3552
   88SLPC  C217 8537   6.419   3.287   4.083  0.0113 -0.1843  0.1599
   88SLPC  H17R 8538   6.483   3.243   4.163  3.6156 -0.0430 -2.3854
   88SLPC  H17S 8539   6.319   3.240   4.089  1.1850 -3.0538 -0.7545
   88SLPC  C218 8540   6.390   3.434   4.108 -0.3412 -0.1872 -0.1677
   88SLPC  H18R 8541   6.322   3.474   4.030 -2.7953 -1.4628  1.2016
   88SLPC  H18S 8542   6.488   3.486   4.112  0.4702 -1.7132  0.5362
   88SLPC  H18T 8543   6.353   3.454   4.211  2.7995  1.9025  0.6984
   88SLPC   C33 8544   7.067   4.278   3.180  0.1017  0.3218  0.8533
   88SLPC   H3X 8545   7.139   4.306   3.101  0.8501 -1.8578  0.6977
   88SLPC   H3Y 8546   7.022   4.182   3.145  1.4150  0.1232 -0.3713
   88SLPC   C34 8547   7.134   4.261   3.315  0.7426 -0.1019 -0.0121
   88SLPC   H4X 8548   7.210   4.181   3.313  0.7171 -0.1199 -1.5979
   88SLPC   H4Y 8549   7.050   4.226   3.379  2.0213 -2.0419  0.6543
   88SLPC   C35 8550   7.198   4.390   3.377  0.5057  0.2032  0.4050
   88SLPC   H5X 8551   7.114   4.460   3.398 -1.1953 -1.1445 -1.5099
   88SLPC   H5Y 8552   7.266   4.428   3.297 -1.7227 -2.8824 -3.3415
   88SLPC   C36 8553   7.283   4.352   3.499  0.3584 -0.6174 -0.1704
   88SLPC   H6X 8554   7.376   4.329   3.443 -0.6907  0.8008 -2.6770
   88SLPC   H6Y 8555   7.230   4.259   3.530  1.8846 -2.1890 -2.0008
   88SLPC   C37 8556   7.299   4.471   3.600  0.2829 -0.0345  0.3551
   88SLPC   H7X 8557   7.202   4.523   3.591  1.3888  1.8486 -1.5846
   88SLPC   H7Y 8558   7.377   4.535   3.554 -0.2346 -2.2022 -3.9506
   88SLPC   C38 8559   7.349   4.424   3.735 -0.1666  0.0580  0.4240
   88SLPC   H8X 8560   7.354   4.506   3.809 -3.3565 -1.3955  2.4344
   88SLPC   H8Y 8561   7.444   4.366   3.735 -0.7330 -0.9207  1.9824
   88SLPC   C39 8562   7.237   4.348   3.806 -0.9589 -0.3281  1.0426
   88SLPC   H9X 8563   7.222   4.250   3.756 -1.1124 -0.2517  0.9392
   88SLPC   H9Y 8564   7.140   4.401   3.800 -0.3892  1.0536  2.9530
   88SLPC  C310 8565   7.255   4.324   3.953  0.3173 -0.0645  0.3774
   88SLPC  H10X 8566   7.168   4.264   3.988 -0.1355  0.5384  0.3030
   88SLPC  H10Y 8567   7.265   4.421   4.007  1.1514 -0.5761  1.1640
   88SLPC  C311 8568   7.378   4.245   3.972 -0.2191 -0.0524 -0.1706
   88SLPC  H11X 8569   7.469   4.307   3.958  0.5313 -1.4197 -1.9062
   88SLPC  H11Y 8570   7.382   4.167   3.892  0.8439  0.0914 -0.2774
   88SLPC  C312 8571   7.386   4.169   4.108  0.6816 -0.2549 -0.2042
   88SLPC  H12X 8572   7.491   4.134   4.097  0.4472 -0.2055 -3.7939
   88SLPC  H12Y 8573   7.315   4.084   4.109  0.2310  0.1163  0.6383
   88SLPC  C313 8574   7.372   4.253   4.238 -0.0412  0.3030 -0.5501
   88SLPC  H13X 8575   7.281   4.316   4.233 -0.5487 -0.4878 -1.7538
   88SLPC  H13Y 8576   7.456   4.325   4.240 -0.7121  1.2405 -3.0758
   88SLPC  C314 8577   7.392   4.171   4.367 -0.0101 -0.4479  0.1910
   88SLPC  H14X 8578   7.492   4.124   4.366  0.3206  0.2504  0.3163
   88SLPC  H14Y 8579   7.314   4.091   4.364 -1.0411  0.5377  0.0017
   88SLPC  C315 8580   7.376   4.267   4.492  0.1471  0.0940  0.5412
   88SLPC  H15X 8581   7.377   4.213   4.589 -0.8803 -1.8894 -0.5079
   88SLPC  H15Y 8582   7.280   4.320   4.478  0.8733  1.1604 -0.6728
   88SLPC  C316 8583   7.487   4.368   4.506  0.0095 -0.4861  0.8750
   88SLPC  H16X 8584   7.462   4.448   4.433 -1.0567 -1.2497  0.3880
   88SLPC  H16Y 8585   7.582   4.318   4.478  0.7317  0.4061  1.6567
   88SLPC  C317 8586   7.511   4.432   4.640 -0.4510  0.0946 -0.8540
   88SLPC  H17X 8587   7.605   4.492   4.637 -0.2476 -0.2548 -1.4953
   88SLPC  H17Y 8588   7.529   4.357   4.720 -1.4861  2.1801  1.4722
   88SLPC  C318 8589   7.402   4.529   4.686  0.0444 -0.0534  0.2748
   88SLPC  H18X 8590   7.301   4.484   4.696  0.4215 -0.4917  2.7832
   88SLPC  H18Y 8591   7.403   4.627   4.633 -0.4129  0.5756  1.3814
   88SLPC  H18Z 8592   7.431   4.563   4.788 -0.2356 -1.0961  0.7201
   89SAPE     N 8593   5.684   5.239   6.724  0.3244 -0.2943 -0.4601
   89SAPE   HN1 8594   5.720   5.188   6.807 -0.8793 -1.1709 -0.4387
   89SAPE   HN2 8595   5.622   5.311   6.767  0.2259 -0.7029  0.0895
   89SAPE   HN3 8596   5.618   5.181   6.668 -1.6207  2.1073 -0.8472
   89SAPE   C12 8597   5.793   5.298   6.648  0.1387 -0.6536  0.1290
   89SAPE  H12A 8598   5.831   5.237   6.563 -1.9624 -0.8039 -0.7762
   89SAPE  H12B 8599   5.879   5.313   6.715 -0.6715 -2.7837  1.7608
   89SAPE   C11 8600   5.739   5.427   6.583 -0.2024 -0.4900  0.2770
   89SAPE  H11A 8601   5.653   5.392   6.523 -2.1805  2.5678  1.0534
   89SAPE  H11B 8602   5.809   5.481   6.516 -1.5597 -1.4446 -2.0296
   89SAPE     P 8603   5.562   5.609   6.657  0.0462 -0.1108 -0.3941
   89SAPE   O13 8604   5.448   5.517   6.649  0.7061  0.2032  0.3119
   89SAPE   O14 8605   5.557   5.707   6.771 -0.0005  0.3338 -0.4670
   89SAPE   O12 8606   5.695   5.522   6.683  0.1848 -0.1816  0.0651
   89SAPE   O11 8607   5.577   5.682   6.517 -0.0706 -0.1317 -0.3188
   89SAPE    C1 8608   5.697   5.749   6.467  1.1584  0.0871 -0.7249
   89SAPE    HA 8609   5.794   5.715   6.510  0.0630  1.8083  3.6282
   89SAPE    HB 8610   5.696   5.736   6.356 -0.3639  0.6143 -0.7940
   89SAPE    C2 8611   5.677   5.905   6.491  0.1627 -0.1282 -0.4909
   89SAPE    HS 8612   5.688   5.913   6.601 -0.7704 -1.2043 -0.3012
   89SAPE   O21 8613   5.544   5.937   6.446  0.3022 -0.5939 -0.0319
   89SAPE   C21 8614   5.495   6.046   6.500 -1.1626 -0.0362 -0.2371
   89SAPE   O22 8615   5.553   6.108   6.588 -0.0586 -1.0210 -0.4277
   89SAPE   C22 8616   5.368   6.080   6.428 -0.5322  0.4155 -0.5880
   89SAPE   H2R 8617   5.338   6.174   6.479 -0.9897 -0.0474  0.0228
   89SAPE   H2S 8618   5.380   6.095   6.319 -2.6363 -0.9016 -1.0607
   89SAPE    C3 8619   5.793   5.987   6.429 -0.2634  1.2458  0.7089
   89SAPE    HX 8620   5.888   5.951   6.473 -0.4286  0.1548  0.1934
   89SAPE    HY 8621   5.795   6.097   6.446  2.0830  1.5346 -0.9572
   89SAPE   O31 8622   5.806   5.956   6.288  0.5490  0.0600 -0.6195
   89SAPE   C31 8623   5.750   6.047   6.198 -0.1450 -0.2854 -0.4686
   89SAPE   O32 8624   5.684   6.146   6.224 -0.7167 -0.1437  0.3608
   89SAPE   C32 8625   5.776   6.008   6.057  0.2555  0.0766  0.1839
   89SAPE   H2X 8626   5.739   5.906   6.033 -0.7900  0.2845  0.8615
   89SAPE   H2Y 8627   5.885   5.994   6.042  0.1467  2.0766 -3.9248
   89SAPE   C23 8628   5.252   5.980   6.441 -0.1764 -0.2027 -0.4759
   89SAPE   H3R 8629   5.159   6.026   6.480  1.4544  0.5482  2.9401
   89SAPE   H3S 8630   5.270   5.901   6.517 -0.9355 -0.0759 -0.1593
   89SAPE   C24 8631   5.234   5.909   6.303 -0.4678  0.5933  0.3963
   89SAPE   H4R 8632   5.191   5.811   6.330 -0.4031  0.5456  0.3263
   89SAPE   H4S 8633   5.333   5.885   6.259 -1.6183 -0.2587 -1.8683
   89SAPE   C25 8634   5.147   5.991   6.211  0.0375  0.0045  0.1224
   89SAPE   H5R 8635   5.048   6.020   6.251 -0.9258 -3.6496  0.7679
   89SAPE   C26 8636   5.179   6.027   6.087  0.0547 -0.1894  0.5866
   89SAPE   H6R 8637   5.104   6.088   6.034 -1.5413 -3.2288 -0.8745
   89SAPE   C27 8638   5.292   5.977   6.003  0.1501  0.1335  0.0828
   89SAPE   H7R 8639   5.324   5.877   6.038 -3.0858 -1.2448 -0.5510
   89SAPE   H7S 8640   5.382   6.034   6.036 -0.6291  0.6723  1.3922
   89SAPE   C28 8641   5.274   5.989   5.853 -0.1799  0.0859 -0.3450
   89SAPE   H8R 8642   5.225   6.084   5.829  0.7904  0.8705  0.6529
   89SAPE   C29 8643   5.318   5.913   5.752  0.0962 -0.1335  0.2588
   89SAPE   H9R 8644   5.296   5.932   5.646  4.5677 -0.0378 -0.8658
   89SAPE  C210 8645   5.404   5.792   5.764  0.1645 -0.0399  0.3116
   89SAPE  H10R 8646   5.486   5.812   5.837  0.0551 -1.2603  0.8005
   89SAPE  H10S 8647   5.445   5.765   5.665  0.6859  0.2826  0.4359
   89SAPE  C211 8648   5.341   5.666   5.823  0.1176  0.4221  0.2301
   89SAPE  H11R 8649   5.242   5.648   5.778  0.5677 -0.1960 -0.5255
   89SAPE  C212 8650   5.382   5.612   5.943  0.2553  0.0806  0.0424
   89SAPE  H12R 8651   5.315   5.535   5.985  0.4020  0.8445  1.7720
   89SAPE  C213 8652   5.496   5.648   6.032 -0.2623  0.3266 -0.7910
   89SAPE  H13R 8653   5.528   5.752   6.013 -0.0202 -0.0048 -2.3006
   89SAPE  H13S 8654   5.577   5.579   6.000 -1.6326 -1.0380 -1.4888
   89SAPE  C214 8655   5.458   5.616   6.174 -0.6111 -0.0856 -0.8083
   89SAPE  H14R 8656   5.423   5.702   6.233 -0.2652  0.0246 -0.7585
   89SAPE  C215 8657   5.463   5.494   6.235 -0.5039 -0.2835 -0.2753
   89SAPE  H15R 8658   5.424   5.491   6.338  0.3806 -2.4506  0.0323
   89SAPE  C216 8659   5.499   5.362   6.167  0.4565 -0.3366  0.5268
   89SAPE  H16R 8660   5.509   5.376   6.057 -0.2821  0.0307  0.4962
   89SAPE  H16S 8661   5.417   5.287   6.174 -0.3328  0.4130 -0.3762
   89SAPE  C217 8662   5.613   5.292   6.228  0.0717  0.2136  0.2049
   89SAPE  H17R 8663   5.593   5.260   6.333 -1.3736 -1.5978 -0.5740
   89SAPE  H17S 8664   5.700   5.361   6.229  0.7528 -0.6335  0.6329
   89SAPE  C218 8665   5.661   5.174   6.135 -0.1627  0.4786 -0.1381
   89SAPE  H18R 8666   5.747   5.135   6.194 -2.3243 -0.2087  2.8659
   89SAPE  H18S 8667   5.706   5.209   6.040  1.1104 -2.7748 -0.8621
   89SAPE  C219 8668   5.563   5.066   6.106  0.3501  0.1813  0.5133
   89SAPE  H19R 8669   5.605   4.985   6.043 -2.8883 -1.6750  0.5014
   89SAPE  H19S 8670   5.479   5.112   6.049  0.9206  1.7731  0.8958
   89SAPE  C220 8671   5.516   4.989   6.230 -0.2718 -0.2623 -0.5114
   89SAPE  H20R 8672   5.462   4.894   6.211 -1.7072 -0.0263  1.8990
   89SAPE  H20S 8673   5.443   5.046   6.290  0.1856 -1.6556  1.4962
   89SAPE  H20T 8674   5.594   4.949   6.299 -1.5694 -0.7017  0.7501
   89SAPE   C33 8675   5.728   6.118   5.958 -0.2287  0.6575 -0.6272
   89SAPE   H3X 8676   5.779   6.216   5.967  2.2012 -0.6305  0.9054
   89SAPE   H3Y 8677   5.621   6.135   5.981 -0.1487  0.5260 -0.1616
   89SAPE   C34 8678   5.729   6.079   5.813  0.0179 -0.0695  0.4823
   89SAPE   H4X 8679   5.685   6.164   5.757 -0.9045  0.3750  1.8281
   89SAPE   H4Y 8680   5.677   5.982   5.801  1.8469 -1.0275 -0.1137
   89SAPE   C35 8681   5.873   6.067   5.753 -0.2065 -0.0277 -0.3987
   89SAPE   H5X 8682   5.931   5.988   5.805 -0.9533 -0.3347 -0.0166
   89SAPE   H5Y 8683   5.929   6.162   5.764  1.5181 -0.7891 -2.0424
   89SAPE   C36 8684   5.868   6.022   5.607  0.5069  0.0696  0.0776
   89SAPE   H6X 8685   5.786   5.947   5.597  0.0352  0.1039  2.9187
   89SAPE   H6Y 8686   5.967   5.980   5.582  0.8101 -0.1016  1.5048
   89SAPE   C37 8687   5.818   6.125   5.505 -0.1061  0.5855 -0.2799
   89SAPE   H7X 8688   5.874   6.220   5.523 -0.4042  0.4612  1.4704
   89SAPE   H7Y 8689   5.713   6.154   5.529 -1.3625 -1.7397 -2.5299
   89SAPE   C38 8690   5.832   6.069   5.362 -0.3371 -0.9520 -0.3766
   89SAPE   H8X 8691   5.787   6.147   5.297 -2.0884 -1.1058  0.5850
   89SAPE   H8Y 8692   5.760   5.985   5.353 -0.5773 -0.6974 -0.8449
   89SAPE   C39 8693   5.980   6.037   5.330  0.5590  0.4707 -0.3836
   89SAPE   H9X 8694   6.011   5.953   5.396  1.1926 -1.6125 -3.1616
   89SAPE   H9Y 8695   6.036   6.130   5.354 -0.1532  0.2838  2.3680
   89SAPE  C310 8696   5.983   6.006   5.178  0.0656  0.2960  0.5639
   89SAPE  H10X 8697   5.963   6.104   5.131  0.5790 -0.4845 -1.3501
   89SAPE  H10Y 8698   5.912   5.923   5.158  0.5930 -0.3962  1.4387
   89SAPE  C311 8699   6.124   5.953   5.134 -0.4696  0.0900  0.0072
   89SAPE  H11X 8700   6.152   5.876   5.208  1.4561  0.6768 -0.0523
   89SAPE  H11Y 8701   6.207   6.028   5.133 -1.0829  0.8642 -2.8926
   89SAPE  C312 8702   6.123   5.896   4.990 -0.5440  0.1736  0.5202
   89SAPE  H12X 8703   6.130   5.982   4.921 -1.1027  1.8424  2.4596
   89SAPE  H12Y 8704   6.027   5.840   4.978 -0.1273 -0.4645  0.1002
   89SAPE  C313 8705   6.239   5.793   4.968 -0.1802  0.0413 -0.1149
   89SAPE  H13X 8706   6.231   5.748   4.866 -1.6063  0.3074 -0.1369
   89SAPE  H13Y 8707   6.233   5.704   5.034  1.0848 -0.4549 -0.6336
   89SAPE  C314 8708   6.385   5.844   4.967  0.4315 -0.1300 -0.1380
   89SAPE  H14X 8709   6.408   5.882   5.069  2.0225  0.3720 -0.6444
   89SAPE  H14Y 8710   6.397   5.934   4.903 -0.9351  0.4397  0.3643
   89SAPE  C315 8711   6.489   5.732   4.932  0.0353  0.3005 -0.2334
   89SAPE  H15X 8712   6.497   5.730   4.821 -0.1757  2.0414 -0.3235
   89SAPE  H15Y 8713   6.438   5.636   4.955  2.5700 -0.6331  2.0044
   89SAPE  C316 8714   6.615   5.737   5.005 -0.4644 -0.3079 -0.2801
   89SAPE  H16X 8715   6.693   5.662   4.981  1.1192  0.6491  1.5865
   89SAPE  H16Y 8716   6.582   5.716   5.108  0.8025  0.9005  0.4109
   89SAPE  C317 8717   6.682   5.875   5.007 -0.3651  0.3392 -0.6931
   89SAPE  H17X 8718   6.622   5.964   5.034  0.8792  1.2418 -0.8008
   89SAPE  H17Y 8719   6.708   5.899   4.902  1.7621  1.4570  0.0456
   89SAPE  C318 8720   6.816   5.885   5.092  0.3839  0.6902 -0.0570
   89SAPE  H18X 8721   6.798   5.852   5.197  0.1669 -1.1216 -0.6231
   89SAPE  H18Y 8722   6.865   5.984   5.091 -0.9524  1.3769 -0.7288
   89SAPE  H18Z 8723   6.881   5.813   5.038  1.3447  0.8952  0.8062
   90SAPE     N 8724   6.025   4.500   6.990  0.3653 -0.5410 -0.6597
   90SAPE   HN1 8725   6.102   4.551   6.943  0.6192 -0.9069 -0.6376
   90SAPE   HN2 8726   6.043   4.403   6.957 -0.6961 -0.5365 -1.3020
   90SAPE   HN3 8727   5.931   4.538   6.967  0.4719  0.9930  1.1684
   90SAPE   C12 8728   6.032   4.490   7.138 -0.3722 -0.1351  0.3015
   90SAPE  H12A 8729   5.979   4.403   7.183 -0.8776 -0.9088 -1.6681
   90SAPE  H12B 8730   5.998   4.587   7.179 -0.9816 -0.2444  0.0730
   90SAPE   C11 8731   6.178   4.475   7.185 -0.0187  0.4733 -0.1959
   90SAPE  H11A 8732   6.174   4.475   7.296 -3.3048 -4.2844 -0.0400
   90SAPE  H11B 8733   6.238   4.565   7.157 -0.1931  0.7942  0.4338
   90SAPE     P 8734   6.244   4.220   7.211  0.0248  0.2650  0.4390
   90SAPE   O13 8735   6.346   4.228   7.319  0.2482 -0.0443  0.2576
   90SAPE   O14 8736   6.103   4.181   7.246 -0.0998 -0.0266  0.1258
   90SAPE   O12 8737   6.239   4.355   7.130 -0.4897  0.4202  0.5084
   90SAPE   O11 8738   6.291   4.119   7.102 -0.3798 -0.2910  0.0844
   90SAPE    C1 8739   6.373   4.143   6.993 -0.1155 -0.2681 -0.1370
   90SAPE    HA 8740   6.448   4.218   7.027 -1.3516  1.1801 -0.5000
   90SAPE    HB 8741   6.416   4.044   6.965  2.0048  0.2127  1.1773
   90SAPE    C2 8742   6.290   4.194   6.876 -0.1556 -0.3197  0.1058
   90SAPE    HS 8743   6.263   4.298   6.904 -0.8018 -0.4938  0.1556
   90SAPE   O21 8744   6.185   4.101   6.848 -0.2336  0.4411  0.0243
   90SAPE   C21 8745   6.068   4.146   6.827  0.6404 -0.3655  0.0766
   90SAPE   O22 8746   6.027   4.261   6.852 -0.1390 -0.2645 -0.1312
   90SAPE   C22 8747   5.987   4.029   6.784  0.3310  0.5066  0.0936
   90SAPE   H2R 8748   6.027   3.990   6.688 -0.2611 -0.0253  0.0575
   90SAPE   H2S 8749   6.001   3.945   6.856 -1.3950 -1.7322 -2.0083
   90SAPE    C3 8750   6.377   4.207   6.750  0.1702  0.0498 -1.0195
   90SAPE    HX 8751   6.391   4.106   6.705 -0.6578 -0.5624  0.0365
   90SAPE    HY 8752   6.476   4.246   6.783 -0.2633  0.7832 -0.5415
   90SAPE   O31 8753   6.306   4.292   6.663  0.5559  0.2083 -0.4042
   90SAPE   C31 8754   6.215   4.245   6.570 -0.1594  0.1844 -0.2554
   90SAPE   O32 8755   6.202   4.127   6.551 -0.7282 -0.5963  0.5863
   90SAPE   C32 8756   6.120   4.356   6.520  0.1792 -0.3349 -0.5299
   90SAPE   H2X 8757   6.174   4.398   6.432 -0.7681  0.6378 -0.6668
   90SAPE   H2Y 8758   6.126   4.439   6.594  0.5680  1.3942 -2.4055
   90SAPE   C23 8759   5.833   4.050   6.756 -0.2910 -0.1060 -0.0372
   90SAPE   H3R 8760   5.822   4.158   6.730 -0.3108  0.0013  0.4079
   90SAPE   H3S 8761   5.778   4.032   6.851 -1.3243 -0.5298 -0.7028
   90SAPE   C24 8762   5.766   3.949   6.663  0.2973  0.1934 -0.4833
   90SAPE   H4R 8763   5.660   3.980   6.656 -0.1747 -1.5220 -1.4226
   90SAPE   H4S 8764   5.762   3.842   6.694  1.1100  0.3204  0.1064
   90SAPE   C25 8765   5.813   3.949   6.521 -0.2902 -0.3362 -0.0275
   90SAPE   H5R 8766   5.904   4.009   6.510 -0.7220  0.3713  0.1797
   90SAPE   C26 8767   5.765   3.894   6.410 -0.1576 -0.2387 -0.0417
   90SAPE   H6R 8768   5.804   3.932   6.315 -0.9298  0.4954 -0.0740
   90SAPE   C27 8769   5.651   3.795   6.388 -0.0311 -0.2842  0.7325
   90SAPE   H7R 8770   5.596   3.795   6.485 -0.5897  1.4869  0.4514
   90SAPE   H7S 8771   5.694   3.693   6.379  0.1545 -0.1421 -0.0098
   90SAPE   C28 8772   5.560   3.832   6.275  1.0179  0.5418  0.0100
   90SAPE   H8R 8773   5.464   3.881   6.298  0.7309  0.4820 -1.0297
   90SAPE   C29 8774   5.588   3.809   6.142 -0.2873  0.3326  0.4017
   90SAPE   H9R 8775   5.526   3.853   6.062 -0.1685 -0.4557 -0.1397
   90SAPE  C210 8776   5.709   3.745   6.089 -0.0894  0.1660 -0.0054
   90SAPE  H10R 8777   5.671   3.656   6.036  0.4675  0.3250 -0.6984
   90SAPE  H10S 8778   5.758   3.705   6.180 -2.7875  1.4794  2.1645
   90SAPE  C211 8779   5.784   3.835   5.996 -0.8521 -0.2142 -0.0822
   90SAPE  H11R 8780   5.873   3.882   6.041 -1.5515  1.5839 -0.4923
   90SAPE  C212 8781   5.777   3.857   5.866 -0.3576 -0.3877 -0.2164
   90SAPE  H12R 8782   5.858   3.922   5.828  4.4695 -3.5858  3.3613
   90SAPE  C213 8783   5.674   3.795   5.775 -0.8926  0.6668 -0.1137
   90SAPE  H13R 8784   5.576   3.775   5.822 -0.2455 -0.1579  0.9251
   90SAPE  H13S 8785   5.715   3.698   5.738 -0.2204 -0.2389  2.7261
   90SAPE  C214 8786   5.649   3.875   5.652 -0.0316  0.0374 -0.4172
   90SAPE  H14R 8787   5.663   3.984   5.665 -3.2241  0.4780  0.1823
   90SAPE  C215 8788   5.604   3.836   5.532 -0.8353  0.3828  0.0670
   90SAPE  H15R 8789   5.599   3.911   5.452  1.2750 -1.7724 -2.2918
   90SAPE  C216 8790   5.582   3.685   5.505  0.0074  0.0344  0.4171
   90SAPE  H16R 8791   5.527   3.628   5.584  0.2497 -1.4441 -0.4406
   90SAPE  H16S 8792   5.680   3.633   5.503 -0.8209 -1.6479  1.1163
   90SAPE  C217 8793   5.518   3.655   5.377 -0.8273  0.1674  0.8084
   90SAPE  H17R 8794   5.597   3.668   5.300 -0.5886 -1.3169  0.7611
   90SAPE  H17S 8795   5.443   3.733   5.351  0.3873  0.7782 -1.0429
   90SAPE  C218 8796   5.461   3.512   5.381  0.3502 -0.5885 -0.0107
   90SAPE  H18R 8797   5.369   3.488   5.438  2.3232  0.3063  3.9316
   90SAPE  H18S 8798   5.536   3.446   5.432  0.9652  0.8827  1.0570
   90SAPE  C219 8799   5.457   3.450   5.243 -0.0163 -0.0862 -0.4818
   90SAPE  H19R 8800   5.444   3.340   5.236 -0.4384  0.0177 -1.4994
   90SAPE  H19S 8801   5.553   3.477   5.194  0.0869 -0.5067 -0.5134
   90SAPE  C220 8802   5.336   3.505   5.163 -0.6471 -0.4722 -0.4761
   90SAPE  H20R 8803   5.361   3.605   5.120 -1.3255 -0.0934 -0.0129
   90SAPE  H20S 8804   5.246   3.501   5.227 -0.8018 -1.2413 -0.7362
   90SAPE  H20T 8805   5.318   3.439   5.076 -3.3696 -1.4594  0.7281
   90SAPE   C33 8806   5.977   4.313   6.486  0.8612  0.0609  0.8030
   90SAPE   H3X 8807   5.893   4.372   6.527 -1.5735 -1.9797 -0.8894
   90SAPE   H3Y 8808   5.968   4.211   6.529 -0.4398  0.8898  2.6336
   90SAPE   C34 8809   5.937   4.317   6.339 -0.3790  0.6242 -0.1790
   90SAPE   H4X 8810   5.951   4.424   6.313  2.0741  0.5265  0.5023
   90SAPE   H4Y 8811   5.831   4.286   6.331 -0.4332  0.9137 -0.6065
   90SAPE   C35 8812   6.023   4.219   6.252  1.3168  0.2627  0.1210
   90SAPE   H5X 8813   5.990   4.115   6.271  0.2597  0.6565  0.4834
   90SAPE   H5Y 8814   6.133   4.230   6.266  1.4368  0.4120 -0.8159
   90SAPE   C36 8815   5.986   4.235   6.106 -0.1488 -0.1538 -0.3988
   90SAPE   H6X 8816   6.013   4.338   6.076  0.4548 -0.4738 -1.0080
   90SAPE   H6Y 8817   5.878   4.214   6.089 -0.6126  0.5529  1.4201
   90SAPE   C37 8818   6.074   4.146   6.018  0.5808 -0.4188  0.3932
   90SAPE   H7X 8819   6.073   4.038   6.046 -0.0728 -0.5288 -0.0366
   90SAPE   H7Y 8820   6.180   4.173   6.034  0.4108  0.8480 -0.5128
   90SAPE   C38 8821   6.033   4.153   5.873  0.3947  0.1187 -0.0937
   90SAPE   H8X 8822   6.018   4.256   5.833  0.4866  0.1777  0.0256
   90SAPE   H8Y 8823   5.933   4.104   5.870  0.6621 -0.6444  1.9494
   90SAPE   C39 8824   6.136   4.078   5.779  0.5153 -0.7693  0.3093
   90SAPE   H9X 8825   6.129   3.975   5.820 -2.3744 -0.1480  1.6288
   90SAPE   H9Y 8826   6.243   4.106   5.772  0.8586 -2.2564 -0.8963
   90SAPE  C310 8827   6.078   4.057   5.637 -0.5670 -0.6812  0.9270
   90SAPE  H10X 8828   6.118   4.137   5.571 -1.6919  0.5952  1.7307
   90SAPE  H10Y 8829   5.967   4.067   5.639 -0.5803 -0.7537  0.6441
   90SAPE  C311 8830   6.103   3.920   5.582 -0.0185  0.6133  0.0094
   90SAPE  H11X 8831   6.065   3.844   5.654 -1.3997 -1.2830 -2.5644
   90SAPE  H11Y 8832   6.210   3.912   5.555 -0.3657  1.3270 -1.6915
   90SAPE  C312 8833   6.021   3.887   5.454 -0.0554 -0.3021 -0.2269
   90SAPE  H12X 8834   6.064   3.956   5.378 -0.9866  1.5980  0.8834
   90SAPE  H12Y 8835   5.914   3.911   5.469  0.3685  2.3830 -0.9514
   90SAPE  C313 8836   6.036   3.748   5.387 -0.2146 -0.7977  0.0364
   90SAPE  H13X 8837   6.027   3.658   5.451 -0.0956  0.4984  1.9714
   90SAPE  H13Y 8838   6.134   3.742   5.335 -0.9020 -2.9144 -1.1439
   90SAPE  C314 8839   5.922   3.724   5.287  0.5543 -0.6019 -0.4447
   90SAPE  H14X 8840   5.909   3.818   5.228 -1.5673 -0.1437  0.6544
   90SAPE  H14Y 8841   5.823   3.712   5.336  0.7638  0.2767  0.2062
   90SAPE  C315 8842   5.960   3.605   5.195  0.3430  0.3305 -0.5055
   90SAPE  H15X 8843   5.995   3.518   5.253 -1.0326 -1.5654 -2.3898
   90SAPE  H15Y 8844   6.046   3.638   5.132 -0.0178 -1.6628 -2.1333
   90SAPE  C316 8845   5.847   3.555   5.110  0.2708  0.3448  0.1148
   90SAPE  H16X 8846   5.821   3.623   5.026  0.0851  1.5064  1.0892
   90SAPE  H16Y 8847   5.755   3.566   5.171  1.5143 -1.2625  2.4204
   90SAPE  C317 8848   5.857   3.408   5.057 -0.2825  0.0156 -0.3461
   90SAPE  H17X 8849   5.772   3.397   4.986  0.8312 -1.2295 -1.5581
   90SAPE  H17Y 8850   5.833   3.355   5.152 -0.7343  0.6178 -0.1210
   90SAPE  C318 8851   5.994   3.359   5.008 -0.0154 -0.2410  1.1181
   90SAPE  H18X 8852   6.020   3.386   4.904  1.2589 -0.8545  1.2599
   90SAPE  H18Y 8853   5.997   3.248   5.010  1.6640 -0.2228  0.7050
   90SAPE  H18Z 8854   6.081   3.384   5.073  0.6605 -0.0093  0.1423
   91SAPE     N 8855   5.006   0.506   7.247  0.8178  0.2822  0.2204
   91SAPE   HN1 8856   4.990   0.439   7.325  5.0531  1.5405  2.5055
   91SAPE   HN2 8857   5.109   0.524   7.241  0.7135  0.5561 -0.9498
   91SAPE   HN3 8858   4.964   0.591   7.289 -0.0916 -0.4757  0.8947
   91SAPE   C12 8859   4.934   0.475   7.118  0.0500  0.2595 -0.3650
   91SAPE  H12A 8860   4.976   0.382   7.075  0.4321  0.4276 -0.3527
   91SAPE  H12B 8861   4.951   0.557   7.045  1.8745  0.0163 -0.2557
   91SAPE   C11 8862   4.790   0.457   7.155  0.1600 -0.1145  0.4974
   91SAPE  H11A 8863   4.775   0.364   7.214 -1.7745 -1.8952 -2.5362
   91SAPE  H11B 8864   4.740   0.435   7.059  0.9650  0.6187 -0.0967
   91SAPE     P 8865   4.588   0.569   7.278  0.4236  0.2504  0.0162
   91SAPE   O13 8866   4.576   0.456   7.380 -0.2852  0.3875  0.1289
   91SAPE   O14 8867   4.543   0.707   7.317  0.2503 -0.0221  0.6259
   91SAPE   O12 8868   4.737   0.576   7.221 -0.7730 -0.3405 -0.2930
   91SAPE   O11 8869   4.522   0.536   7.137  0.8154 -0.2743 -0.5225
   91SAPE    C1 8870   4.444   0.414   7.119  0.6356 -1.3272  0.1896
   91SAPE    HA 8871   4.508   0.327   7.144  1.0185 -0.6122  1.8258
   91SAPE    HB 8872   4.358   0.418   7.189 -0.4152  0.7179 -1.0919
   91SAPE    C2 8873   4.392   0.404   6.974  0.5524 -0.5527  0.1562
   91SAPE    HS 8874   4.325   0.315   6.974  1.1455 -1.0144 -0.1505
   91SAPE   O21 8875   4.496   0.386   6.873 -0.7263  0.5579 -0.8491
   91SAPE   C21 8876   4.570   0.270   6.881 -0.1331  0.4076 -0.1072
   91SAPE   O22 8877   4.535   0.171   6.942  0.3121  0.1338  0.1851
   91SAPE   C22 8878   4.682   0.277   6.778 -0.5699 -0.4850  0.2558
   91SAPE   H2R 8879   4.632   0.323   6.690 -1.3831 -1.0385  0.4160
   91SAPE   H2S 8880   4.765   0.344   6.809 -0.5568 -0.1331 -0.5152
   91SAPE    C3 8881   4.296   0.527   6.935 -0.2877  0.1893 -0.3132
   91SAPE    HX 8882   4.353   0.622   6.928 -2.0849  1.4654  1.3882
   91SAPE    HY 8883   4.220   0.545   7.014 -1.1960  3.2217 -1.7307
   91SAPE   O31 8884   4.228   0.499   6.811 -0.3569  0.5060 -0.2774
   91SAPE   C31 8885   4.273   0.569   6.707  0.0560  0.3496  0.4314
   91SAPE   O32 8886   4.370   0.642   6.699  0.2140  0.1350 -0.0098
   91SAPE   C32 8887   4.173   0.551   6.591  0.2170 -0.2464 -0.3247
   91SAPE   H2X 8888   4.080   0.588   6.639  1.1117  1.0095  0.5042
   91SAPE   H2Y 8889   4.164   0.447   6.552  1.7703  0.3086 -2.2920
   91SAPE   C23 8890   4.735   0.130   6.761 -0.6569 -0.0777 -0.2325
   91SAPE   H3R 8891   4.661   0.050   6.781 -1.3260  0.3125 -1.0989
   91SAPE   H3S 8892   4.816   0.127   6.838  0.1413  0.1860 -1.0434
   91SAPE   C24 8893   4.801   0.103   6.622 -0.0192  0.3314 -0.4481
   91SAPE   H4R 8894   4.894   0.163   6.612  0.5279 -0.5831 -1.0212
   91SAPE   H4S 8895   4.734   0.149   6.547 -0.8315 -1.1907 -0.7077
   91SAPE   C25 8896   4.815  -0.046   6.609 -0.0460  0.1268 -0.7569
   91SAPE   H5R 8897   4.730  -0.111   6.635  0.9490 -1.2027 -0.6594
   91SAPE   C26 8898   4.929  -0.107   6.568  0.0912 -0.0546 -0.6767
   91SAPE   H6R 8899   4.929  -0.217   6.559 -0.1398 -0.0153 -1.2026
   91SAPE   C27 8900   5.061  -0.045   6.538  0.1971  0.2073 -0.0439
   91SAPE   H7R 8901   5.116  -0.046   6.634  1.5359  1.0631 -0.7681
   91SAPE   H7S 8902   5.038   0.061   6.516 -0.6131 -0.4592 -2.9121
   91SAPE   C28 8903   5.145  -0.111   6.432 -0.3523 -0.1843  0.5910
   91SAPE   H8R 8904   5.226  -0.179   6.462  0.9351  1.9792  2.3393
   91SAPE   C29 8905   5.117  -0.117   6.300  0.2124  0.0343 -0.0146
   91SAPE   H9R 8906   5.188  -0.164   6.230  0.0600  0.6369 -0.5844
   91SAPE  C210 8907   5.009  -0.042   6.225 -0.1248 -0.4405  0.5669
   91SAPE  H10R 8908   4.948   0.025   6.289 -0.2097  1.0347 -0.9701
   91SAPE  H10S 8909   4.934  -0.113   6.186 -1.1759 -0.1075  1.9256
   91SAPE  C211 8910   5.054   0.063   6.124 -0.3000 -0.1097  0.2721
   91SAPE  H11R 8911   5.060   0.168   6.157 -0.6774  0.6730 -1.9860
   91SAPE  C212 8912   5.092   0.044   6.000  0.5575  0.2873  0.2066
   91SAPE  H12R 8913   5.098   0.133   5.935  1.2110 -0.6598 -1.0728
   91SAPE  C213 8914   5.092  -0.087   5.932  0.0160 -0.1221 -0.0946
   91SAPE  H13R 8915   5.100  -0.168   6.008  0.9954 -0.0911 -0.1460
   91SAPE  H13S 8916   5.191  -0.093   5.880  0.5777  0.3329  0.8967
   91SAPE  C214 8917   4.970  -0.102   5.847  0.5133 -0.7917 -0.2490
   91SAPE  H14R 8918   4.879  -0.114   5.908  0.6086  1.9306  0.5427
   91SAPE  C215 8919   4.962  -0.118   5.716  0.0125  0.6047  0.1316
   91SAPE  H15R 8920   4.864  -0.110   5.667  0.0652 -1.9295 -0.5322
   91SAPE  C216 8921   5.068  -0.134   5.613  0.1804  0.3307  0.7534
   91SAPE  H16R 8922   5.045  -0.227   5.557  1.2600 -0.7201  1.9965
   91SAPE  H16S 8923   5.163  -0.141   5.670  0.8736  0.3377 -0.3754
   91SAPE  C217 8924   5.063  -0.010   5.512  0.2847  0.2946  0.7032
   91SAPE  H17R 8925   5.144  -0.015   5.436  0.3356 -1.2594  0.8178
   91SAPE  H17S 8926   5.072   0.088   5.564  2.5028  0.0429  0.8667
   91SAPE  C218 8927   4.938   0.005   5.418 -0.4865  0.1051  0.0519
   91SAPE  H18R 8928   4.850   0.038   5.477 -0.4438  0.2504  0.0336
   91SAPE  H18S 8929   4.925  -0.101   5.388  1.4105 -0.8219  2.2403
   91SAPE  C219 8930   4.957   0.080   5.286 -0.5306 -0.5241  0.1273
   91SAPE  H19R 8931   5.025   0.015   5.228  0.5694  1.8437 -1.4032
   91SAPE  H19S 8932   5.008   0.178   5.302 -0.9920  0.1285 -2.0968
   91SAPE  C220 8933   4.830   0.100   5.208 -0.3424 -0.5794  0.0934
   91SAPE  H20R 8934   4.843   0.157   5.113 -3.6421  0.5891  0.2143
   91SAPE  H20S 8935   4.755   0.151   5.272  0.7611  3.7313 -1.7018
   91SAPE  H20T 8936   4.788   0.002   5.176  2.5228 -2.0008  0.3346
   91SAPE   C33 8937   4.207   0.639   6.474 -0.4263 -0.1593 -0.1252
   91SAPE   H3X 8938   4.258   0.568   6.405 -0.2952  0.3392 -0.5427
   91SAPE   H3Y 8939   4.268   0.727   6.503  1.1434 -0.6828 -1.6458
   91SAPE   C34 8940   4.082   0.696   6.395  0.2062 -0.0549 -0.0131
   91SAPE   H4X 8941   4.006   0.742   6.461 -0.2814 -0.7833 -0.0478
   91SAPE   H4Y 8942   4.024   0.620   6.337  0.4841 -1.5603  1.5748
   91SAPE   C35 8943   4.122   0.805   6.294 -0.7371  0.3501  0.0735
   91SAPE   H5X 8944   4.207   0.751   6.247 -1.3175 -2.0674  1.6190
   91SAPE   H5Y 8945   4.169   0.885   6.355 -0.7506 -0.3458  1.0313
   91SAPE   C36 8946   4.022   0.845   6.191 -0.4019 -0.2534 -0.1969
   91SAPE   H6X 8947   3.966   0.930   6.236  0.7493 -0.1126  1.0391
   91SAPE   H6Y 8948   3.954   0.763   6.160 -0.3838  0.0294 -1.0124
   91SAPE   C37 8949   4.082   0.883   6.053 -0.3656 -0.2030  0.8464
   91SAPE   H7X 8950   4.160   0.961   6.070  0.5315 -0.8801 -0.0437
   91SAPE   H7Y 8951   3.996   0.917   5.992  0.8799  1.0252 -0.3178
   91SAPE   C38 8952   4.145   0.765   5.972 -0.0872  0.1055  0.2881
   91SAPE   H8X 8953   4.066   0.689   5.957 -0.1515  0.3136 -0.4604
   91SAPE   H8Y 8954   4.220   0.717   6.039 -0.7980  1.0596  1.8199
   91SAPE   C39 8955   4.222   0.807   5.852 -0.8711 -0.2416  0.5876
   91SAPE   H9X 8956   4.261   0.728   5.786  0.1077  3.3049 -3.5586
   91SAPE   H9Y 8957   4.322   0.848   5.878 -0.7415  0.6526 -1.1205
   91SAPE  C310 8958   4.147   0.899   5.766  1.1034 -0.7030 -0.8997
   91SAPE  H10X 8959   4.159   1.002   5.805 -0.3040 -0.1365 -1.8707
   91SAPE  H10Y 8960   4.038   0.878   5.758  0.7025  0.4239  0.9455
   91SAPE  C311 8961   4.194   0.886   5.625 -1.1238  0.2867 -0.1446
   91SAPE  H11X 8962   4.186   0.784   5.582  3.2355 -0.9899  1.5209
   91SAPE  H11Y 8963   4.304   0.894   5.609 -0.8868 -2.7607 -0.6256
   91SAPE  C312 8964   4.135   1.005   5.549 -0.3754  0.4101 -0.6645
   91SAPE  H12X 8965   4.155   1.096   5.609 -1.4166  1.6998 -2.1784
   91SAPE  H12Y 8966   4.027   0.978   5.553 -0.3557  0.2520 -1.0587
   91SAPE  C313 8967   4.184   1.006   5.406  0.1033  0.8947 -0.1312
   91SAPE  H13X 8968   4.294   1.020   5.410  0.1019  1.0618 -0.6717
   91SAPE  H13Y 8969   4.135   1.088   5.350  0.5487 -0.4242 -2.6285
   91SAPE  C314 8970   4.171   0.876   5.332 -0.2762 -0.1273 -0.7201
   91SAPE  H14X 8971   4.074   0.823   5.348 -0.8685 -0.3582 -4.2525
   91SAPE  H14Y 8972   4.253   0.808   5.362  0.3455  0.8470 -0.1364
   91SAPE  C315 8973   4.189   0.895   5.182  0.2079 -0.4588 -0.2384
   91SAPE  H15X 8974   4.293   0.929   5.168  0.5055 -1.4779 -0.6056
   91SAPE  H15Y 8975   4.117   0.972   5.148  1.5339  1.7488  1.6109
   91SAPE  C316 8976   4.172   0.764   5.108  0.1182 -0.0082  0.0102
   91SAPE  H16X 8977   4.074   0.725   5.142 -0.8670  2.0378 -0.3473
   91SAPE  H16Y 8978   4.255   0.700   5.145  0.1653 -0.5774 -1.0214
   91SAPE  C317 8979   4.194   0.765   4.954  1.1798 -0.1563 -0.2471
   91SAPE  H17X 8980   4.282   0.829   4.937 -0.9026  2.9189 -0.3172
   91SAPE  H17Y 8981   4.118   0.822   4.895  1.3388  0.9618  0.5848
   91SAPE  C318 8982   4.209   0.618   4.900 -0.0932 -0.0895 -0.1960
   91SAPE  H18X 8983   4.239   0.623   4.793  1.1114  1.7596  0.1758
   91SAPE  H18Y 8984   4.108   0.570   4.902 -0.6993  1.1688  0.6038
   91SAPE  H18Z 8985   4.286   0.558   4.952  2.1317 -0.0299 -3.1124
   92SAPE     N 8986   0.814   2.121   7.294  0.7451  0.0214 -0.7982
   92SAPE   HN1 8987   0.907   2.167   7.304  0.7151 -0.1961  0.8100
   92SAPE   HN2 8988   0.751   2.179   7.352  1.6603 -0.8203  1.1291
   92SAPE   HN3 8989   0.818   2.032   7.348 -1.8780  0.6915  0.6820
   92SAPE   C12 8990   0.774   2.105   7.148  0.4089  0.8097 -0.2635
   92SAPE  H12A 8991   0.682   2.043   7.146  0.2456  1.0490 -0.2473
   92SAPE  H12B 8992   0.861   2.057   7.099 -0.1355 -2.3773  1.6500
   92SAPE   C11 8993   0.745   2.242   7.094 -0.6418 -0.0746  0.8599
   92SAPE  H11A 8994   0.742   2.222   6.984  2.5753 -0.0574  0.6882
   92SAPE  H11B 8995   0.821   2.322   7.100 -1.3819  1.0536 -2.5744
   92SAPE     P 8996   0.483   2.287   7.071  0.1371 -0.0712 -0.5472
   92SAPE   O13 8997   0.439   2.152   7.096 -0.1339 -0.7152 -0.0142
   92SAPE   O14 8998   0.408   2.410   7.115 -0.2067  0.0074 -0.0161
   92SAPE   O12 8999   0.625   2.298   7.142  0.0047 -0.2219  0.8068
   92SAPE   O11 9000   0.518   2.286   6.911  0.8342  0.1918 -0.5255
   92SAPE    C1 9001   0.578   2.389   6.834 -0.3734 -0.3041 -0.2555
   92SAPE    HA 9002   0.553   2.488   6.878  0.3326 -1.3437  2.7066
   92SAPE    HB 9003   0.685   2.368   6.813  0.2162  0.5077  1.7260
   92SAPE    C2 9004   0.517   2.390   6.687 -0.4456  0.1455  0.6043
   92SAPE    HS 9005   0.410   2.420   6.688 -0.8822 -1.3659  0.6827
   92SAPE   O21 9006   0.544   2.253   6.630 -0.1089 -0.5156 -0.1238
   92SAPE   C21 9007   0.445   2.164   6.647 -0.8830  0.3639 -0.5902
   92SAPE   O22 9008   0.334   2.184   6.688  0.6653 -0.0091 -0.1393
   92SAPE   C22 9009   0.496   2.022   6.620 -0.1878  0.0994 -0.0071
   92SAPE   H2R 9010   0.603   2.018   6.649  0.0394  0.3974 -0.7966
   92SAPE   H2S 9011   0.430   1.958   6.683  2.2382 -0.7947  1.8054
   92SAPE    C3 9012   0.600   2.494   6.602 -0.1872  0.6458 -0.7158
   92SAPE    HX 9013   0.706   2.466   6.617 -1.3608 -2.8708  2.8380
   92SAPE    HY 9014   0.593   2.601   6.629  1.5721  1.3855 -2.9523
   92SAPE   O31 9015   0.586   2.497   6.460  0.1442 -0.4505 -0.1941
   92SAPE   C31 9016   0.478   2.545   6.406 -0.0240 -0.5865 -0.2982
   92SAPE   O32 9017   0.380   2.580   6.471  0.2594 -0.2099 -0.1011
   92SAPE   C32 9018   0.493   2.546   6.245  0.2008 -0.2104 -0.6630
   92SAPE   H2X 9019   0.456   2.451   6.202  0.0790 -0.1835 -0.6182
   92SAPE   H2Y 9020   0.601   2.551   6.218  1.3045 -2.4943  2.7047
   92SAPE   C23 9021   0.465   1.982   6.469 -0.2877  0.3713 -0.3280
   92SAPE   H3R 9022   0.363   2.020   6.443  0.3624  1.0072 -2.1145
   92SAPE   H3S 9023   0.455   1.872   6.458 -1.0901  0.5160 -1.2021
   92SAPE   C24 9024   0.566   2.037   6.368  0.0695 -0.3044  0.2890
   92SAPE   H4R 9025   0.672   2.023   6.398  0.6455  1.2693 -0.8980
   92SAPE   H4S 9026   0.554   2.147   6.372  0.8394 -0.2391  1.4446
   92SAPE   C25 9027   0.539   1.990   6.227  0.7527 -0.2595 -0.2396
   92SAPE   H5R 9028   0.487   1.893   6.230  3.7663 -2.0549 -1.9013
   92SAPE   C26 9029   0.540   2.057   6.112  0.3628 -0.6613  0.1586
   92SAPE   H6R 9030   0.498   2.000   6.028 -1.4199 -1.7479  1.7040
   92SAPE   C27 9031   0.592   2.201   6.087  0.6468  0.1007 -0.1866
   92SAPE   H7R 9032   0.642   2.247   6.175  2.4276 -2.1384  0.0469
   92SAPE   H7S 9033   0.504   2.269   6.080  0.9375  0.3642 -1.4986
   92SAPE   C28 9034   0.688   2.208   5.976  0.0110  0.3789  0.4072
   92SAPE   H8R 9035   0.768   2.133   5.978 -0.6622 -0.5269 -2.2639
   92SAPE   C29 9036   0.689   2.286   5.871  0.3660 -0.1434 -0.2634
   92SAPE   H9R 9037   0.763   2.269   5.791  1.2966 -1.3029  0.8154
   92SAPE  C210 9038   0.596   2.404   5.864  0.5874 -0.2671  0.0142
   92SAPE  H10R 9039   0.641   2.482   5.799 -0.2673 -0.0241 -0.3031
   92SAPE  H10S 9040   0.589   2.445   5.967 -1.5637  0.9495 -0.5594
   92SAPE  C211 9041   0.459   2.364   5.821 -0.4878  1.1864 -0.1938
   92SAPE  H11R 9042   0.437   2.257   5.830  0.0367  1.0344 -0.6885
   92SAPE  C212 9043   0.357   2.444   5.788 -0.2066  0.0535 -0.7165
   92SAPE  H12R 9044   0.256   2.409   5.761 -0.3459  0.1609 -0.3357
   92SAPE  C213 9045   0.375   2.604   5.772  0.3920 -0.4806  0.5655
   92SAPE  H13R 9046   0.480   2.638   5.769  0.1283  0.6020  2.2113
   92SAPE  H13S 9047   0.320   2.646   5.859 -0.0546 -0.4593  0.2716
   92SAPE  C214 9048   0.300   2.639   5.643 -0.1642 -0.2099 -0.6206
   92SAPE  H14R 9049   0.195   2.668   5.658  0.7286  2.4831  1.2470
   92SAPE  C215 9050   0.351   2.623   5.522 -0.5470 -0.3435 -0.6112
   92SAPE  H15R 9051   0.290   2.653   5.435 -0.3486 -0.8044 -0.9122
   92SAPE  C216 9052   0.497   2.581   5.480  0.3119 -0.4591  0.3096
   92SAPE  H16R 9053   0.556   2.586   5.574 -0.5335  2.2830  0.7590
   92SAPE  H16S 9054   0.540   2.668   5.426  0.8005 -0.8377  0.0719
   92SAPE  C217 9055   0.507   2.449   5.402  0.0466  0.5747  0.3491
   92SAPE  H17R 9056   0.455   2.463   5.305  1.6624  2.8727 -0.2663
   92SAPE  H17S 9057   0.469   2.367   5.466  1.6627  0.9293  1.8187
   92SAPE  C218 9058   0.647   2.401   5.370 -0.1421 -0.1977  0.4507
   92SAPE  H18R 9059   0.695   2.382   5.469  0.1872 -0.5965  0.2206
   92SAPE  H18S 9060   0.703   2.479   5.315  1.4162 -1.3110  0.3813
   92SAPE  C219 9061   0.643   2.269   5.281  0.1704 -0.3571  0.0170
   92SAPE  H19R 9062   0.747   2.256   5.243 -0.5038  0.9341 -2.4860
   92SAPE  H19S 9063   0.583   2.308   5.196 -1.3838  0.2486  1.3630
   92SAPE  C220 9064   0.587   2.140   5.345  0.3470 -0.5980 -0.2110
   92SAPE  H20R 9065   0.485   2.177   5.370  1.4031  2.1970  0.3844
   92SAPE  H20S 9066   0.645   2.105   5.433 -0.4707 -0.8841  0.2152
   92SAPE  H20T 9067   0.591   2.060   5.268  0.0367  0.1307 -0.9981
   92SAPE   C33 9068   0.403   2.653   6.167  0.3103  0.0222 -0.3689
   92SAPE   H3X 9069   0.296   2.631   6.187 -0.4191  2.6946 -0.9819
   92SAPE   H3Y 9070   0.421   2.631   6.060 -0.2383 -0.7168 -0.3214
   92SAPE   C34 9071   0.431   2.798   6.199 -0.6690 -0.4037  0.2756
   92SAPE   H4X 9072   0.521   2.830   6.141 -0.8262 -0.0874  0.2035
   92SAPE   H4Y 9073   0.454   2.812   6.307  0.4331  1.1808 -0.1232
   92SAPE   C35 9074   0.303   2.883   6.183 -0.9370  0.6574  0.1938
   92SAPE   H5X 9075   0.323   2.991   6.202  2.2362  0.4530 -1.4001
   92SAPE   H5Y 9076   0.231   2.845   6.258 -1.4353 -2.5982 -1.7585
   92SAPE   C36 9077   0.250   2.885   6.043  1.6289 -0.2111 -0.0937
   92SAPE   H6X 9078   0.169   2.960   6.037  1.4602 -0.4582 -1.0064
   92SAPE   H6Y 9079   0.207   2.787   6.014 -1.5981  0.1316  2.8990
   92SAPE   C37 9080   0.361   2.923   5.944  0.6699  0.1521 -0.1289
   92SAPE   H7X 9081   0.431   2.839   5.923  0.1716 -0.3478  0.1958
   92SAPE   H7Y 9082   0.428   3.005   5.978  1.0136  0.1019 -0.6563
   92SAPE   C38 9083   0.308   2.967   5.804  0.4118 -0.5915  0.3217
   92SAPE   H8X 9084   0.237   3.052   5.806 -0.1198 -1.0160  3.0795
   92SAPE   H8Y 9085   0.254   2.875   5.772  2.3581 -1.7507  0.1441
   92SAPE   C39 9086   0.425   2.983   5.699  0.2766 -0.0727 -0.5753
   92SAPE   H9X 9087   0.479   2.886   5.701 -0.9586 -0.7825 -0.4394
   92SAPE   H9Y 9088   0.487   3.067   5.737 -2.3759  1.0367  1.6535
   92SAPE  C310 9089   0.369   3.009   5.558  0.8502  0.5980  1.0972
   92SAPE  H10X 9090   0.333   3.114   5.566  0.8633  0.9148 -1.8523
   92SAPE  H10Y 9091   0.274   2.953   5.542  0.5859  1.1420  0.7404
   92SAPE  C311 9092   0.453   2.979   5.433 -0.0798  0.9576 -0.2545
   92SAPE  H11X 9093   0.494   2.877   5.446 -0.3792  0.9427  0.7016
   92SAPE  H11Y 9094   0.542   3.043   5.449 -0.4374  0.9057  2.4392
   92SAPE  C312 9095   0.388   2.994   5.295 -0.1007  0.3370  0.3821
   92SAPE  H12X 9096   0.472   2.995   5.222 -0.0625  3.2420  0.3469
   92SAPE  H12Y 9097   0.354   3.100   5.291  0.1587  0.4336  0.7271
   92SAPE  C313 9098   0.275   2.906   5.248  0.3399  0.5940 -0.0704
   92SAPE  H13X 9099   0.222   2.967   5.172  0.9628 -0.8871 -1.7641
   92SAPE  H13Y 9100   0.214   2.873   5.334  0.0460  0.5810 -0.2805
   92SAPE  C314 9101   0.309   2.772   5.170  0.5224 -0.9618 -0.3106
   92SAPE  H14X 9102   0.361   2.702   5.239 -0.5802 -1.3266  0.1752
   92SAPE  H14Y 9103   0.381   2.788   5.086 -0.6455  1.4103 -0.9463
   92SAPE  C315 9104   0.192   2.709   5.102 -0.0439 -0.1853  0.2592
   92SAPE  H15X 9105   0.177   2.773   5.012  0.9007  0.2487  0.3986
   92SAPE  H15Y 9106   0.105   2.714   5.170  0.4146  0.4622  0.8187
   92SAPE  C316 9107   0.218   2.559   5.072  0.1274  1.0428  0.0439
   92SAPE  H16X 9108   0.127   2.516   5.025 -1.4329  2.6931  1.4706
   92SAPE  H16Y 9109   0.235   2.508   5.169 -0.5747 -0.5612 -0.6275
   92SAPE  C317 9110   0.341   2.522   4.981  0.0123 -0.0498 -0.0961
   92SAPE  H17X 9111   0.438   2.561   5.018 -0.4667 -2.1003  3.7808
   92SAPE  H17Y 9112   0.317   2.568   4.882 -0.9255  2.7319  1.3065
   92SAPE  C318 9113   0.363   2.374   4.952 -0.5222 -0.5064  0.2874
   92SAPE  H18X 9114   0.259   2.339   4.937 -1.1855  1.5561 -0.2348
   92SAPE  H18Y 9115   0.401   2.334   5.049  2.8336  3.8914  1.1059
   92SAPE  H18Z 9116   0.438   2.358   4.872 -0.5931 -1.4537  0.4022
   93SAPE     N 9117   3.261   5.153   7.387  0.8225  0.4959 -0.2659
   93SAPE   HN1 9118   3.193   5.201   7.450 -0.9425 -0.7777 -1.1123
   93SAPE   HN2 9119   3.297   5.073   7.443 -0.7167  1.5236  2.3921
   93SAPE   HN3 9120   3.336   5.224   7.378 -0.1186  1.6459  0.7154
   93SAPE   C12 9121   3.195   5.112   7.260 -0.0387  0.4296 -0.4389
   93SAPE  H12A 9122   3.115   5.042   7.294  0.1397  1.2076  1.7523
   93SAPE  H12B 9123   3.269   5.067   7.191 -0.2708  0.0211 -0.4271
   93SAPE   C11 9124   3.130   5.230   7.187 -0.2328 -0.6125 -0.4229
   93SAPE  H11A 9125   3.081   5.183   7.099 -3.9796 -1.3016  1.8247
   93SAPE  H11B 9126   3.203   5.305   7.150 -0.2899 -1.0561 -1.4560
   93SAPE     P 9127   2.878   5.244   7.253  0.0836 -0.8241 -0.5375
   93SAPE   O13 9128   2.882   5.102   7.292 -0.2980 -0.1904  0.2971
   93SAPE   O14 9129   2.807   5.332   7.347 -0.6656 -0.2216  0.9401
   93SAPE   O12 9130   3.025   5.297   7.260 -0.0389  0.3508 -0.1188
   93SAPE   O11 9131   2.831   5.250   7.099 -0.2260  0.2179 -0.2028
   93SAPE    C1 9132   2.815   5.385   7.048  0.6736 -0.5942  0.2984
   93SAPE    HA 9133   2.706   5.405   7.037  0.9963  1.3907  0.4039
   93SAPE    HB 9134   2.854   5.469   7.110  0.5743  1.6416 -2.4369
   93SAPE    C2 9135   2.857   5.407   6.895 -0.0711  0.3256  0.7224
   93SAPE    HS 9136   2.825   5.509   6.866  0.7225 -0.5415 -3.9200
   93SAPE   O21 9137   2.807   5.301   6.802  0.0841 -0.0762  0.4064
   93SAPE   C21 9138   2.684   5.334   6.756  0.4623  1.1909 -0.1319
   93SAPE   O22 9139   2.606   5.406   6.816  0.4780  0.2240 -0.3367
   93SAPE   C22 9140   2.652   5.263   6.626 -0.2884  0.0949 -0.2649
   93SAPE   H2R 9141   2.615   5.338   6.553  0.1470  0.1387 -0.4407
   93SAPE   H2S 9142   2.740   5.218   6.575  1.2607  4.1922 -1.6053
   93SAPE    C3 9143   3.011   5.407   6.870  0.2554  0.6520  0.3897
   93SAPE    HX 9144   3.052   5.313   6.912 -1.9434 -1.1953 -1.3521
   93SAPE    HY 9145   3.064   5.489   6.924  2.2346 -0.3770  0.0966
   93SAPE   O31 9146   3.057   5.426   6.733  0.4495 -0.3251  0.3022
   93SAPE   C31 9147   3.175   5.374   6.707 -0.5630  0.0871 -0.0128
   93SAPE   O32 9148   3.248   5.315   6.785  0.3914 -0.0582  0.5383
   93SAPE   C32 9149   3.195   5.372   6.565  0.4514  0.4019  0.4653
   93SAPE   H2X 9150   3.197   5.472   6.516 -0.0341 -1.2006 -3.1567
   93SAPE   H2Y 9151   3.107   5.330   6.511  0.8097  0.4389 -0.1683
   93SAPE   C23 9152   2.549   5.144   6.650  0.1384 -0.1918  0.0339
   93SAPE   H3R 9153   2.453   5.190   6.683 -1.2413 -1.3383 -2.1074
   93SAPE   H3S 9154   2.574   5.079   6.737  1.3112 -1.2848 -1.0648
   93SAPE   C24 9155   2.503   5.060   6.521  0.1830 -0.9691 -0.1310
   93SAPE   H4R 9156   2.421   4.995   6.557  1.0716 -0.1767  3.7726
   93SAPE   H4S 9157   2.597   5.005   6.498  0.5298 -0.7510  0.7185
   93SAPE   C25 9158   2.453   5.161   6.420 -0.7681  0.2925  0.4426
   93SAPE   H5R 9159   2.360   5.218   6.438 -2.5277 -2.6803  1.3371
   93SAPE   C26 9160   2.492   5.162   6.290 -0.3688 -0.9213 -0.4356
   93SAPE   H6R 9161   2.453   5.240   6.223 -1.4235 -0.9952  0.0710
   93SAPE   C27 9162   2.598   5.075   6.229 -0.1884  0.5329  0.6587
   93SAPE   H7R 9163   2.675   5.072   6.309  1.0604  0.9989 -0.4831
   93SAPE   H7S 9164   2.649   5.129   6.146  0.7841 -0.8752  0.3193
   93SAPE   C28 9165   2.550   4.937   6.194 -0.4941 -0.2290 -0.0870
   93SAPE   H8R 9166   2.512   4.871   6.274  3.3532 -0.8986  1.4187
   93SAPE   C29 9167   2.559   4.884   6.073  0.4401  0.2394 -0.0944
   93SAPE   H9R 9168   2.531   4.779   6.053  0.5388  0.2276 -0.1715
   93SAPE  C210 9169   2.615   4.957   5.950 -0.0089  0.2437  0.1269
   93SAPE  H10R 9170   2.697   5.022   5.989 -1.2305  2.3816 -0.6563
   93SAPE  H10S 9171   2.543   5.030   5.907  0.6923 -0.8430 -3.1561
   93SAPE  C211 9172   2.687   4.870   5.852  0.1595 -0.4747 -0.6231
   93SAPE  H11R 9173   2.751   4.791   5.892  0.2863  0.6847  1.5905
   93SAPE  C212 9174   2.674   4.878   5.721 -0.4515  0.1767  0.5664
   93SAPE  H12R 9175   2.717   4.798   5.659  0.6622  0.0570  1.4635
   93SAPE  C213 9176   2.581   4.987   5.655  0.0006  0.5388  0.0801
   93SAPE  H13R 9177   2.623   5.000   5.553  1.6935 -0.4168  0.6100
   93SAPE  H13S 9178   2.590   5.082   5.711 -0.2891  0.0245  1.0213
   93SAPE  C214 9179   2.433   4.950   5.657 -0.3815 -0.5927  0.1250
   93SAPE  H14R 9180   2.383   4.932   5.753 -0.5077 -0.6505  0.0494
   93SAPE  C215 9181   2.357   4.912   5.554  0.8497  0.0054  0.7550
   93SAPE  H15R 9182   2.256   4.879   5.582  0.6397 -0.1964 -0.2199
   93SAPE  C216 9183   2.389   4.903   5.406  0.0300 -0.0509 -0.2682
   93SAPE  H16R 9184   2.481   4.961   5.384  1.1254 -1.8514 -0.6236
   93SAPE  H16S 9185   2.329   4.958   5.330  1.1794 -1.1685 -2.0577
   93SAPE  C217 9186   2.408   4.763   5.340 -0.0267 -0.2819 -0.3836
   93SAPE  H17R 9187   2.477   4.706   5.406  1.9358  2.6990  0.3898
   93SAPE  H17S 9188   2.452   4.776   5.239  0.1741 -1.0242 -0.3914
   93SAPE  C218 9189   2.268   4.690   5.332 -0.0612  0.4312  0.0275
   93SAPE  H18R 9190   2.197   4.751   5.274 -1.2382 -0.4062  0.5416
   93SAPE  H18S 9191   2.239   4.680   5.439 -3.2595  1.8511 -0.5861
   93SAPE  C219 9192   2.272   4.554   5.250  1.0716 -0.1438  0.5823
   93SAPE  H19R 9193   2.264   4.583   5.143 -0.0782 -1.1962  0.3635
   93SAPE  H19S 9194   2.185   4.491   5.276  1.0058  0.4380  1.8383
   93SAPE  C220 9195   2.398   4.470   5.248 -0.6948 -0.0204 -0.1303
   93SAPE  H20R 9196   2.483   4.528   5.207 -0.0091  0.1645  1.4931
   93SAPE  H20S 9197   2.382   4.387   5.176  0.1573 -1.1782  0.9651
   93SAPE  H20T 9198   2.426   4.432   5.348 -3.8600 -0.2023  0.7951
   93SAPE   C33 9199   3.319   5.291   6.528 -0.1720 -0.0875  0.4229
   93SAPE   H3X 9200   3.299   5.183   6.544  1.2521 -0.5010 -0.3388
   93SAPE   H3Y 9201   3.397   5.327   6.599 -0.5389 -0.7378  1.1696
   93SAPE   C34 9202   3.374   5.316   6.384  0.0400 -0.0948  0.4523
   93SAPE   H4X 9203   3.483   5.296   6.381  0.3428  1.4977 -0.3520
   93SAPE   H4Y 9204   3.374   5.427   6.372 -0.5745 -0.1117  0.2885
   93SAPE   C35 9205   3.289   5.229   6.285 -0.4057 -0.9220 -0.0799
   93SAPE   H5X 9206   3.181   5.246   6.305 -1.0304 -1.6929 -2.4247
   93SAPE   H5Y 9207   3.315   5.122   6.298 -0.8111 -0.9278  0.7236
   93SAPE   C36 9208   3.306   5.271   6.141 -0.5967  0.4558  0.3964
   93SAPE   H6X 9209   3.412   5.285   6.111 -0.6339  0.3180  0.1960
   93SAPE   H6Y 9210   3.262   5.373   6.128 -0.2707  0.5855  0.2955
   93SAPE   C37 9211   3.241   5.176   6.041 -0.5563  0.1063  0.4344
   93SAPE   H7X 9212   3.130   5.164   6.045 -0.4534 -1.3809 -0.5279
   93SAPE   H7Y 9213   3.276   5.072   6.060  2.2066  0.7230 -0.9108
   93SAPE   C38 9214   3.291   5.218   5.891  0.5120 -0.3351 -0.1307
   93SAPE   H8X 9215   3.399   5.196   5.880  0.7404  0.4187  0.4993
   93SAPE   H8Y 9216   3.269   5.327   5.886  0.3293 -0.3384  0.4911
   93SAPE   C39 9217   3.204   5.148   5.785  0.2837 -0.2982 -0.0847
   93SAPE   H9X 9218   3.096   5.167   5.806  0.8525  1.8598  1.2005
   93SAPE   H9Y 9219   3.229   5.040   5.794  0.6839 -0.1203  1.1431
   93SAPE  C310 9220   3.246   5.175   5.635 -0.3708 -0.7090 -0.5819
   93SAPE  H10X 9221   3.357   5.174   5.627 -0.3125  0.6690 -0.2682
   93SAPE  H10Y 9222   3.222   5.280   5.608  0.8793 -0.3756 -0.4654
   93SAPE  C311 9223   3.175   5.080   5.536  0.8004  0.3649 -0.4257
   93SAPE  H11X 9224   3.065   5.088   5.532  0.6416 -1.4163 -0.3001
   93SAPE  H11Y 9225   3.204   4.977   5.566 -0.6632  0.3580  1.0752
   93SAPE  C312 9226   3.227   5.098   5.388 -0.2364 -0.6697 -0.3988
   93SAPE  H12X 9227   3.337   5.087   5.383  0.0367  0.6763  1.5670
   93SAPE  H12Y 9228   3.207   5.205   5.365 -0.0166 -0.6506 -0.4981
   93SAPE  C313 9229   3.165   4.998   5.289  0.2882 -0.1066  0.2652
   93SAPE  H13X 9230   3.171   5.039   5.186 -3.0216 -0.8656 -0.3585
   93SAPE  H13Y 9231   3.055   4.999   5.305  0.4778  3.0632  2.4783
   93SAPE  C314 9232   3.214   4.855   5.306  0.4570 -0.1176  0.0090
   93SAPE  H14X 9233   3.216   4.825   5.413 -1.2364  0.5700  0.2799
   93SAPE  H14Y 9234   3.318   4.841   5.271  0.4874  0.3532 -0.0978
   93SAPE  C315 9235   3.138   4.741   5.237  0.4020 -0.0989 -0.4507
   93SAPE  H15X 9236   3.193   4.646   5.252 -1.2613 -1.2682 -1.3868
   93SAPE  H15Y 9237   3.136   4.754   5.127  0.8907  0.1846 -0.4273
   93SAPE  C316 9238   2.988   4.738   5.275  0.6607  0.0315 -0.4003
   93SAPE  H16X 9239   2.926   4.808   5.216 -1.0746  0.4574  1.8110
   93SAPE  H16Y 9240   2.954   4.765   5.377  1.2369 -2.1024  0.4022
   93SAPE  C317 9241   2.922   4.603   5.244 -0.1702 -0.2255  0.4878
   93SAPE  H17X 9242   2.981   4.531   5.305 -0.4681 -2.4345 -1.6973
   93SAPE  H17Y 9243   2.947   4.572   5.140  2.1847 -2.2363  1.5275
   93SAPE  C318 9244   2.772   4.599   5.270  0.5425 -0.2065 -0.6765
   93SAPE  H18X 9245   2.732   4.495   5.272 -2.1578  0.7241  1.4748
   93SAPE  H18Y 9246   2.710   4.664   5.204 -2.2164  0.1308  2.0074
   93SAPE  H18Z 9247   2.757   4.639   5.373  0.9423  1.0564 -1.0893
   94SAPE     N 9248   5.758   0.331   6.971  0.3444 -0.7653 -0.3411
   94SAPE   HN1 9249   5.825   0.410   6.962 -1.0571  0.3551 -1.5976
   94SAPE   HN2 9250   5.778   0.275   7.056 -2.3845 -1.3959 -0.0211
   94SAPE   HN3 9251   5.771   0.272   6.886  5.7261  0.1734 -0.5194
   94SAPE   C12 9252   5.616   0.386   6.982  0.6111 -0.4801  0.2439
   94SAPE  H12A 9253   5.587   0.409   7.087 -1.7110 -1.3997 -0.1315
   94SAPE  H12B 9254   5.555   0.305   6.938  0.4023 -0.1989  0.0132
   94SAPE   C11 9255   5.601   0.523   6.898 -1.0020  0.2769 -0.0341
   94SAPE  H11A 9256   5.492   0.543   6.903 -1.3557 -1.7852  2.3828
   94SAPE  H11B 9257   5.628   0.508   6.792 -1.0825  0.3544 -0.0661
   94SAPE     P 9258   5.825   0.670   6.957  0.1297 -0.3246 -0.2463
   94SAPE   O13 9259   5.854   0.764   7.062 -0.1429 -0.1558 -0.7967
   94SAPE   O14 9260   5.907   0.546   6.961  0.1378  0.2456  0.4160
   94SAPE   O12 9261   5.671   0.634   6.945 -0.3756 -0.5457 -0.5546
   94SAPE   O11 9262   5.826   0.735   6.813 -0.2250 -0.5931 -0.3967
   94SAPE    C1 9263   5.937   0.738   6.723 -0.3322 -0.0496  0.6985
   94SAPE    HA 9264   5.941   0.834   6.667  0.4176  0.5120  1.6938
   94SAPE    HB 9265   6.036   0.734   6.774 -0.9940 -1.0409  1.9594
   94SAPE    C2 9266   5.930   0.630   6.616 -0.2982 -0.2463 -0.3642
   94SAPE    HS 9267   5.938   0.526   6.654  0.9378 -0.6836 -1.7525
   94SAPE   O21 9268   6.028   0.658   6.516  0.1700  0.5339 -0.0837
   94SAPE   C21 9269   6.154   0.626   6.556  0.2163 -0.8430 -0.2243
   94SAPE   O22 9270   6.181   0.581   6.663  0.0054 -0.1601 -0.0512
   94SAPE   C22 9271   6.249   0.643   6.441  0.0653  0.6363 -0.7212
   94SAPE   H2R 9272   6.293   0.745   6.450 -2.0745  1.6430 -1.1009
   94SAPE   H2S 9273   6.324   0.561   6.448 -0.0173  0.6271  0.0918
   94SAPE    C3 9274   5.793   0.623   6.541 -0.7870 -0.3517 -0.0161
   94SAPE    HX 9275   5.761   0.726   6.516 -1.4450 -0.3630  0.7223
   94SAPE    HY 9276   5.720   0.586   6.616 -1.3568 -1.9051 -1.2767
   94SAPE   O31 9277   5.803   0.539   6.421 -0.0153  0.1709  0.3091
   94SAPE   C31 9278   5.793   0.403   6.445  0.2216  0.3989 -0.2364
   94SAPE   O32 9279   5.751   0.357   6.553 -0.3759 -0.2286  0.2583
   94SAPE   C32 9280   5.835   0.318   6.328  0.2512 -0.4595 -0.2618
   94SAPE   H2X 9281   5.801   0.215   6.352 -0.6252 -0.4378 -1.3371
   94SAPE   H2Y 9282   5.944   0.342   6.327 -0.1972  2.1291  1.4989
   94SAPE   C23 9283   6.191   0.638   6.299 -0.1985 -0.0117 -0.1859
   94SAPE   H3R 9284   6.106   0.707   6.278 -1.7823 -2.5091 -2.6898
   94SAPE   H3S 9285   6.152   0.535   6.280  0.8715 -0.4411 -0.0971
   94SAPE   C24 9286   6.293   0.659   6.177 -0.2422 -0.1752 -0.1764
   94SAPE   H4R 9287   6.229   0.641   6.088 -1.2751  0.2910  0.4580
   94SAPE   H4S 9288   6.366   0.575   6.180 -1.8002 -1.6625 -1.4444
   94SAPE   C25 9289   6.356   0.793   6.165 -0.7116 -0.6640  0.3113
   94SAPE   H5R 9290   6.359   0.857   6.254 -1.3310 -0.5057  0.2238
   94SAPE   C26 9291   6.424   0.847   6.064  0.2053 -0.0679  0.4167
   94SAPE   H6R 9292   6.474   0.943   6.078 -1.0712  0.6839  0.0336
   94SAPE   C27 9293   6.427   0.800   5.915 -0.5935  0.0541  0.1746
   94SAPE   H7R 9294   6.387   0.699   5.895  1.0256 -0.5568 -0.1345
   94SAPE   H7S 9295   6.535   0.793   5.886 -0.4911 -1.4807  0.8452
   94SAPE   C28 9296   6.365   0.897   5.821 -0.2601  0.2416  0.1532
   94SAPE   H8R 9297   6.321   0.989   5.862 -0.5081  0.2501 -0.1267
   94SAPE   C29 9298   6.355   0.868   5.687  0.2481 -0.4633 -0.1322
   94SAPE   H9R 9299   6.315   0.946   5.621  0.6931  1.4229  1.7125
   94SAPE  C210 9300   6.401   0.742   5.616  0.1350 -0.0451  0.4517
   94SAPE  H10R 9301   6.392   0.651   5.680  2.4566 -2.4119 -2.3265
   94SAPE  H10S 9302   6.510   0.748   5.596  0.1126 -0.1967  0.2890
   94SAPE  C211 9303   6.316   0.713   5.492 -0.7249  0.2629  0.3098
   94SAPE  H11R 9304   6.222   0.659   5.509 -0.0684 -1.4206 -1.0769
   94SAPE  C212 9305   6.344   0.735   5.358 -0.1346  0.5975 -0.3423
   94SAPE  H12R 9306   6.263   0.717   5.286 -0.4837 -1.0340  0.4234
   94SAPE  C213 9307   6.459   0.820   5.313 -0.9859  0.4407 -0.8701
   94SAPE  H13R 9308   6.549   0.766   5.350 -1.3274 -0.4060 -1.2433
   94SAPE  H13S 9309   6.450   0.920   5.361  2.2820 -0.2033  1.4154
   94SAPE  C214 9310   6.480   0.820   5.165  0.0926  0.6735  0.6585
   94SAPE  H14R 9311   6.464   0.718   5.128  1.1932  0.1461  1.5706
   94SAPE  C215 9312   6.469   0.926   5.076 -1.2823  0.2344  0.1038
   94SAPE  H15R 9313   6.482   0.899   4.970 -0.4441  1.9838 -0.2949
   94SAPE  C216 9314   6.484   1.071   5.109 -0.6678 -1.0806  0.2415
   94SAPE  H16R 9315   6.441   1.095   5.208  2.1736 -0.0277  1.3324
   94SAPE  H16S 9316   6.430   1.140   5.041  0.6622  0.0275  0.2455
   94SAPE  C217 9317   6.625   1.131   5.121 -0.3237 -0.3692 -0.7383
   94SAPE  H17R 9318   6.699   1.054   5.153  3.8714  3.0651 -1.2665
   94SAPE  H17S 9319   6.619   1.214   5.194 -1.1461 -0.8847 -0.2130
   94SAPE  C218 9320   6.690   1.177   4.995  0.2799  0.3936  0.9279
   94SAPE  H18R 9321   6.684   1.101   4.914  0.2275  1.5487 -0.1896
   94SAPE  H18S 9322   6.796   1.185   5.029  0.5891 -0.9479  0.3498
   94SAPE  C219 9323   6.639   1.299   4.923 -0.1129  0.0348 -0.6182
   94SAPE  H19R 9324   6.636   1.380   4.999  1.8629  1.6953 -2.1866
   94SAPE  H19S 9325   6.540   1.279   4.877 -0.0270 -2.4060  0.0851
   94SAPE  C220 9326   6.723   1.353   4.812  0.5432  0.5036 -0.3259
   94SAPE  H20R 9327   6.670   1.442   4.771  0.2176  1.5059  2.1245
   94SAPE  H20S 9328   6.727   1.279   4.729 -1.9581 -0.9432  0.7305
   94SAPE  H20T 9329   6.822   1.377   4.856  0.3180 -1.8619  1.6930
   94SAPE   C33 9330   5.785   0.363   6.185  0.3758  0.6880 -0.4706
   94SAPE   H3X 9331   5.792   0.474   6.188 -2.7860  0.9827 -0.5419
   94SAPE   H3Y 9332   5.677   0.337   6.180  0.9139 -1.9645 -0.0512
   94SAPE   C34 9333   5.868   0.304   6.069 -0.1577  0.6165 -0.6672
   94SAPE   H4X 9334   5.832   0.204   6.039  0.3400  0.0401  0.5739
   94SAPE   H4Y 9335   5.974   0.282   6.093 -0.0166 -0.8752 -2.5007
   94SAPE   C35 9336   5.860   0.393   5.949 -0.7042 -0.3666  0.4692
   94SAPE   H5X 9337   5.944   0.465   5.942 -0.9813  0.1727  2.2683
   94SAPE   H5Y 9338   5.760   0.441   5.944  0.8916  3.5588  2.0624
   94SAPE   C36 9339   5.866   0.306   5.831  0.0322  0.0518  1.4337
   94SAPE   H6X 9340   5.793   0.224   5.844  1.5094 -1.3884  0.9492
   94SAPE   H6Y 9341   5.959   0.249   5.809 -0.0397  0.4513 -0.0474
   94SAPE   C37 9342   5.851   0.385   5.699  1.0529 -0.1106 -0.2503
   94SAPE   H7X 9343   5.946   0.439   5.680 -0.1256  2.0398 -0.3815
   94SAPE   H7Y 9344   5.766   0.455   5.717 -0.3925 -2.1038  1.0774
   94SAPE   C38 9345   5.803   0.293   5.587 -0.0611  0.1257 -0.4914
   94SAPE   H8X 9346   5.711   0.239   5.615 -1.0879  2.5676  1.1910
   94SAPE   H8Y 9347   5.880   0.219   5.556  0.0756  0.3182 -0.6112
   94SAPE   C39 9348   5.768   0.374   5.465 -0.6047  0.6551  0.5280
   94SAPE   H9X 9349   5.728   0.475   5.490 -0.0338  0.8627  0.6080
   94SAPE   H9Y 9350   5.686   0.330   5.404 -0.0850  0.9046 -0.3654
   94SAPE  C310 9351   5.891   0.386   5.378 -0.3662  0.4133 -0.1106
   94SAPE  H10X 9352   5.922   0.285   5.344 -0.9650  0.7344 -1.7074
   94SAPE  H10Y 9353   5.970   0.442   5.432 -0.6826  0.7307  0.0218
   94SAPE  C311 9354   5.860   0.456   5.243  0.2326  0.0264  0.8249
   94SAPE  H11X 9355   5.953   0.476   5.184 -0.6762  0.3698 -0.5482
   94SAPE  H11Y 9356   5.811   0.553   5.262  2.1971  1.3070 -0.2750
   94SAPE  C312 9357   5.765   0.373   5.153  0.1413 -0.2056  0.6280
   94SAPE  H12X 9358   5.671   0.356   5.209 -0.8666  2.6374  0.0148
   94SAPE  H12Y 9359   5.801   0.272   5.126  3.5100  0.7259  1.0751
   94SAPE  C313 9360   5.719   0.444   5.020  0.5142 -0.0806  0.1491
   94SAPE  H13X 9361   5.702   0.553   5.037  0.2316 -0.4112  2.2537
   94SAPE  H13Y 9362   5.619   0.411   4.987  0.0873 -0.5948  1.8829
   94SAPE  C314 9363   5.832   0.429   4.922  0.1971 -0.0095 -0.4904
   94SAPE  H14X 9364   5.873   0.326   4.934 -0.8919 -0.4467 -0.4258
   94SAPE  H14Y 9365   5.915   0.502   4.935 -0.2198  0.7313 -1.7563
   94SAPE  C315 9366   5.786   0.404   4.775 -0.4640 -0.5661  0.3962
   94SAPE  H15X 9367   5.767   0.502   4.726  1.3921 -0.4614 -0.1975
   94SAPE  H15Y 9368   5.698   0.337   4.764 -0.0955 -0.6809 -2.7580
   94SAPE  C316 9369   5.886   0.332   4.689 -0.5525  0.3870 -0.7897
   94SAPE  H16X 9370   5.846   0.317   4.587  2.5923 -1.7445 -1.8762
   94SAPE  H16Y 9371   5.907   0.230   4.727  4.7678  1.2727 -0.5898
   94SAPE  C317 9372   6.021   0.412   4.667  0.4262 -0.0060 -0.9507
   94SAPE  H17X 9373   6.056   0.439   4.769  3.7866 -0.4087 -1.8613
   94SAPE  H17Y 9374   5.993   0.502   4.608 -0.8145  0.8967  0.9334
   94SAPE  C318 9375   6.138   0.329   4.605 -0.4176  0.4294  0.2092
   94SAPE  H18X 9376   6.227   0.380   4.561  1.1858 -2.9572 -0.7778
   94SAPE  H18Y 9377   6.095   0.272   4.520 -0.3391 -1.3899  1.3407
   94SAPE  H18Z 9378   6.176   0.256   4.680 -1.8570 -2.0726 -1.3579
   95SAPE     N 9379   2.743   6.084   7.227  0.3847 -0.4923  0.1351
   95SAPE   HN1 9380   2.650   6.132   7.227  0.4879 -0.2737 -0.8036
   95SAPE   HN2 9381   2.777   6.057   7.321  0.3073 -0.0176  0.3018
   95SAPE   HN3 9382   2.799   6.169   7.207 -0.6412  0.2465  0.3011
   95SAPE   C12 9383   2.765   5.980   7.127  0.1952 -0.9269  0.6803
   95SAPE  H12A 9384   2.742   6.024   7.028  0.2416  0.1633  1.1435
   95SAPE  H12B 9385   2.685   5.902   7.136 -1.0521 -0.3591 -3.5208
   95SAPE   C11 9386   2.909   5.919   7.149 -0.1631  0.0304  0.0950
   95SAPE  H11A 9387   2.987   5.985   7.104  2.1909 -1.4659  1.7806
   95SAPE  H11B 9388   2.919   5.829   7.084  2.0610  1.3179 -1.5047
   95SAPE     P 9389   3.053   5.791   7.320  0.2321  0.0496  0.0052
   95SAPE   O13 9390   3.156   5.864   7.408 -0.1360  0.3380  1.0612
   95SAPE   O14 9391   2.979   5.679   7.380 -0.4192 -0.4120 -0.1450
   95SAPE   O12 9392   2.944   5.895   7.284  0.8514 -0.4345  0.1359
   95SAPE   O11 9393   3.115   5.749   7.175 -0.3968 -0.5033 -0.3762
   95SAPE    C1 9394   3.228   5.820   7.123  0.3151  0.0263 -0.2445
   95SAPE    HA 9395   3.191   5.914   7.077 -0.4307  0.3445  0.9708
   95SAPE    HB 9396   3.304   5.842   7.200 -0.1437  0.1780  0.1673
   95SAPE    C2 9397   3.302   5.733   7.019  0.5132 -0.2114 -0.1139
   95SAPE    HS 9398   3.387   5.791   6.977  0.0221 -1.7476 -3.4909
   95SAPE   O21 9399   3.213   5.705   6.908 -0.0970  0.0480  0.3041
   95SAPE   C21 9400   3.200   5.809   6.822  0.6992  0.3839  0.4356
   95SAPE   O22 9401   3.212   5.926   6.851  0.4337  0.4515 -0.0181
   95SAPE   C22 9402   3.168   5.745   6.690 -0.1958 -0.0357  0.6443
   95SAPE   H2R 9403   3.230   5.655   6.673  0.3922  0.7217 -1.6008
   95SAPE   H2S 9404   3.064   5.706   6.689 -0.3378  0.0022 -3.6168
   95SAPE    C3 9405   3.356   5.603   7.090 -0.2326 -0.1954  0.6292
   95SAPE    HX 9406   3.271   5.548   7.136 -0.6287  0.0597  0.2142
   95SAPE    HY 9407   3.417   5.623   7.181  0.1601  2.3454 -0.1002
   95SAPE   O31 9408   3.427   5.518   6.995  0.0927  0.3089 -0.0461
   95SAPE   C31 9409   3.551   5.547   6.990  0.6055  0.0929 -0.4691
   95SAPE   O32 9410   3.612   5.624   7.057 -0.3366 -0.2222 -0.0691
   95SAPE   C32 9411   3.614   5.457   6.891  0.4862 -0.3143 -0.2626
   95SAPE   H2X 9412   3.542   5.377   6.866  0.9915 -0.1093 -2.5790
   95SAPE   H2Y 9413   3.693   5.408   6.952  0.9684  0.7731  0.0157
   95SAPE   C23 9414   3.186   5.838   6.566  0.2562  0.6228  0.3120
   95SAPE   H3R 9415   3.284   5.888   6.584  0.3475  0.5835 -0.0665
   95SAPE   H3S 9416   3.113   5.922   6.564  1.0929  1.3550 -1.7092
   95SAPE   C24 9417   3.195   5.770   6.431 -0.1362  0.2084  0.7266
   95SAPE   H4R 9418   3.094   5.738   6.398 -0.2779  0.5882  0.7854
   95SAPE   H4S 9419   3.267   5.685   6.433  0.8796  0.9695 -1.0064
   95SAPE   C25 9420   3.259   5.866   6.336  0.2189 -0.0629  0.0774
   95SAPE   H5R 9421   3.304   5.955   6.383 -1.7603  0.3780  1.2598
   95SAPE   C26 9422   3.240   5.874   6.204  0.6336  0.1520 -0.0790
   95SAPE   H6R 9423   3.279   5.962   6.152 -0.0754 -0.3030 -1.4429
   95SAPE   C27 9424   3.170   5.778   6.108 -0.4259 -0.0848 -0.2405
   95SAPE   H7R 9425   3.112   5.833   6.032 -1.0065  1.1661  1.0575
   95SAPE   H7S 9426   3.096   5.716   6.163  0.6050 -1.4848 -0.3713
   95SAPE   C28 9427   3.271   5.678   6.044 -0.0948 -0.0395 -0.2269
   95SAPE   H8R 9428   3.344   5.648   6.121 -1.0470  1.3643  1.2736
   95SAPE   C29 9429   3.295   5.649   5.911  0.5457  0.2740 -0.6081
   95SAPE   H9R 9430   3.368   5.567   5.898  0.0855 -0.2313 -0.0314
   95SAPE  C210 9431   3.218   5.714   5.799 -0.4348 -0.4299 -0.1487
   95SAPE  H10R 9432   3.281   5.797   5.762  0.8064 -2.4118 -2.7741
   95SAPE  H10S 9433   3.122   5.756   5.837  0.4275  0.6233  0.9359
   95SAPE  C211 9434   3.187   5.632   5.674  0.3815  0.3271  1.2191
   95SAPE  H11R 9435   3.194   5.523   5.691 -0.5348  0.0230 -0.2151
   95SAPE  C212 9436   3.151   5.677   5.553  0.8755 -0.4108  0.4814
   95SAPE  H12R 9437   3.118   5.598   5.483 -0.9973  0.6406  0.0942
   95SAPE  C213 9438   3.132   5.817   5.501 -0.1181 -0.7725  0.1074
   95SAPE  H13R 9439   3.228   5.873   5.503 -1.4078  1.6481 -0.6766
   95SAPE  H13S 9440   3.078   5.870   5.582  1.4862  0.8913  0.1578
   95SAPE  C214 9441   3.066   5.843   5.365 -0.3786 -0.1703 -0.3590
   95SAPE  H14R 9442   2.972   5.899   5.376  1.1187  2.3248  0.5845
   95SAPE  C215 9443   3.090   5.795   5.245 -0.0388 -0.1268  0.2956
   95SAPE  H15R 9444   3.028   5.821   5.158 -3.0761 -2.7180  1.5042
   95SAPE  C216 9445   3.203   5.711   5.206 -0.3553  0.3793 -0.2841
   95SAPE  H16R 9446   3.285   5.707   5.280  2.4622  0.4757 -3.1995
   95SAPE  H16S 9447   3.238   5.757   5.112 -0.6999  0.0375 -0.5863
   95SAPE  C217 9448   3.174   5.568   5.183 -1.1714 -0.0365 -0.8749
   95SAPE  H17R 9449   3.114   5.545   5.092  1.9103 -0.0019 -3.0916
   95SAPE  H17S 9450   3.147   5.516   5.277  0.2794  1.9391  0.7372
   95SAPE  C218 9451   3.313   5.490   5.149  0.1743  0.2243  0.4869
   95SAPE  H18R 9452   3.369   5.477   5.244 -1.7365  0.0529  1.6531
   95SAPE  H18S 9453   3.370   5.543   5.069  1.1130 -0.8292  0.4199
   95SAPE  C219 9454   3.286   5.344   5.105  0.0030 -0.3708 -0.2026
   95SAPE  H19R 9455   3.220   5.339   5.016 -0.5351 -0.2943  0.1928
   95SAPE  H19S 9456   3.225   5.290   5.181  1.8830 -1.4303  0.6522
   95SAPE  C220 9457   3.408   5.254   5.067  0.6237  0.4061 -0.3142
   95SAPE  H20R 9458   3.371   5.149   5.067 -0.4793  0.7572  0.9506
   95SAPE  H20S 9459   3.504   5.254   5.124  0.1070 -1.4250  0.6375
   95SAPE  H20T 9460   3.437   5.267   4.961  0.3397 -0.4115 -0.4949
   95SAPE   C33 9461   3.675   5.525   6.763 -0.0265 -0.3412 -0.4897
   95SAPE   H3X 9462   3.685   5.443   6.689  0.0370 -0.9195  0.1437
   95SAPE   H3Y 9463   3.773   5.571   6.787 -0.1205 -0.3697 -0.0412
   95SAPE   C34 9464   3.593   5.634   6.694  0.0621 -0.4500 -0.0048
   95SAPE   H4X 9465   3.590   5.719   6.765 -0.1276 -1.3965  1.1548
   95SAPE   H4Y 9466   3.486   5.609   6.680 -0.7008  2.1932  0.6030
   95SAPE   C35 9467   3.646   5.677   6.561  0.1070  0.1148  0.0252
   95SAPE   H5X 9468   3.755   5.700   6.570 -0.2034  1.3395  0.9709
   95SAPE   H5Y 9469   3.597   5.768   6.521  1.3776  0.7515 -0.1641
   95SAPE   C36 9470   3.621   5.578   6.448  0.1084  0.4562  0.8944
   95SAPE   H6X 9471   3.523   5.534   6.476 -1.5254  1.7904 -2.2494
   95SAPE   H6Y 9472   3.689   5.493   6.470  1.0135  0.2965 -2.0497
   95SAPE   C37 9473   3.622   5.633   6.305 -0.4512  0.2582 -0.2669
   95SAPE   H7X 9474   3.696   5.715   6.315  0.3079 -0.3983 -0.4652
   95SAPE   H7Y 9475   3.527   5.686   6.282 -0.2270  0.7960  0.0261
   95SAPE   C38 9476   3.654   5.533   6.188 -0.1954  0.1423  0.7422
   95SAPE   H8X 9477   3.588   5.444   6.181 -0.0839  0.2148 -2.5144
   95SAPE   H8Y 9478   3.753   5.484   6.203 -0.0515  0.1825 -0.0434
   95SAPE   C39 9479   3.650   5.604   6.042  0.6293  0.8517  0.2608
   95SAPE   H9X 9480   3.745   5.661   6.033  1.0063  0.0961 -0.8713
   95SAPE   H9Y 9481   3.564   5.674   6.040  0.7393  1.0844  2.1543
   95SAPE  C310 9482   3.630   5.496   5.927 -0.1136  0.5594  0.2055
   95SAPE  H10X 9483   3.535   5.441   5.943 -0.5659  1.3839  0.4505
   95SAPE  H10Y 9484   3.704   5.414   5.938  0.1144  0.6212 -0.7975
   95SAPE  C311 9485   3.642   5.565   5.787 -0.2048  0.0630 -0.2133
   95SAPE  H11X 9486   3.743   5.610   5.786 -0.8161  1.6567  1.9251
   95SAPE  H11Y 9487   3.566   5.645   5.769  0.5180  0.4781 -1.5611
   95SAPE  C312 9488   3.607   5.472   5.665 -0.2983 -0.5557  0.3866
   95SAPE  H12X 9489   3.507   5.431   5.690 -0.9897  0.2268 -0.9446
   95SAPE  H12Y 9490   3.685   5.393   5.663  0.3435  0.0697  0.4083
   95SAPE  C313 9491   3.592   5.550   5.535  0.4724  0.3629  0.3755
   95SAPE  H13X 9492   3.544   5.649   5.553 -1.2036 -0.5725  1.3521
   95SAPE  H13Y 9493   3.533   5.488   5.464  0.2461 -0.9507  1.6703
   95SAPE  C314 9494   3.730   5.581   5.472  0.7703 -0.0265 -0.6944
   95SAPE  H14X 9495   3.766   5.477   5.461  0.7204 -0.2112  0.7370
   95SAPE  H14Y 9496   3.795   5.634   5.545  0.8593 -1.0126 -0.0488
   95SAPE  C315 9497   3.741   5.658   5.335  0.6513 -0.3038 -0.1851
   95SAPE  H15X 9498   3.846   5.631   5.310  0.6333  1.0818 -1.9175
   95SAPE  H15Y 9499   3.731   5.768   5.347 -1.2337 -0.6751  2.4988
   95SAPE  C316 9500   3.640   5.630   5.227  0.2412  0.2233  0.0048
   95SAPE  H16X 9501   3.535   5.663   5.244 -0.5220 -1.7683 -0.6468
   95SAPE  H16Y 9502   3.640   5.520   5.218 -0.7810  0.2124 -0.0413
   95SAPE  C317 9503   3.688   5.689   5.090 -0.3849 -0.3011 -0.1246
   95SAPE  H17X 9504   3.615   5.663   5.011  0.6089 -0.0800 -1.1351
   95SAPE  H17Y 9505   3.787   5.648   5.060  0.4475  1.7990 -0.4451
   95SAPE  C318 9506   3.693   5.842   5.083 -0.0119  0.7084  0.5487
   95SAPE  H18X 9507   3.615   5.886   5.149  0.7543 -0.2702  2.1711
   95SAPE  H18Y 9508   3.685   5.880   4.979 -2.1613  0.4434  0.5774
   95SAPE  H18Z 9509   3.790   5.877   5.124  0.5281  0.7095 -0.6840
   96SAPE     N 9510   1.969   2.973   6.784 -0.1027  0.3774  0.0983
   96SAPE   HN1 9511   2.047   2.934   6.729  0.3038 -2.9103  2.6973
   96SAPE   HN2 9512   1.883   2.976   6.725  1.2812  0.1579 -1.9911
   96SAPE   HN3 9513   1.988   3.071   6.814  0.0062  0.1526  0.7764
   96SAPE   C12 9514   1.958   2.877   6.894  0.4166 -0.4589 -0.6461
   96SAPE  H12A 9515   2.059   2.869   6.940  0.3146  3.3713  0.6607
   96SAPE  H12B 9516   1.912   2.787   6.848 -2.0285  0.7798 -0.7786
   96SAPE   C11 9517   1.859   2.918   7.004 -0.2096  0.2858 -0.2527
   96SAPE  H11A 9518   1.908   3.004   7.055  0.6876 -0.8909  0.9344
   96SAPE  H11B 9519   1.864   2.830   7.071  0.3234 -0.7892 -1.6509
   96SAPE     P 9520   1.606   2.990   7.035 -0.0785 -0.0775  0.1520
   96SAPE   O13 9521   1.555   2.868   7.097  0.7549 -0.0248 -0.0043
   96SAPE   O14 9522   1.625   3.114   7.110 -0.4643 -0.2589 -0.1856
   96SAPE   O12 9523   1.734   2.941   6.950 -0.3394 -0.4345  0.4600
   96SAPE   O11 9524   1.504   3.020   6.914  0.6905 -0.5079  0.0301
   96SAPE    C1 9525   1.464   2.908   6.835  0.7302  1.0156  0.4996
   96SAPE    HA 9526   1.468   2.803   6.872 -1.4130 -0.4999 -3.0601
   96SAPE    HB 9527   1.363   2.925   6.794  0.6969  1.4155  0.7488
   96SAPE    C2 9528   1.556   2.908   6.708 -0.3075  0.4498 -0.1459
   96SAPE    HS 9529   1.655   2.885   6.752  0.2555  1.8806 -0.6030
   96SAPE   O21 9530   1.547   3.028   6.632 -0.1621 -0.2633  0.3788
   96SAPE   C21 9531   1.659   3.058   6.573  0.1719  0.1051  0.7850
   96SAPE   O22 9532   1.763   2.997   6.588 -0.3599 -1.0238 -0.8769
   96SAPE   C22 9533   1.649   3.184   6.480  0.0041 -0.4151  0.4410
   96SAPE   H2R 9534   1.633   3.150   6.375  0.3674 -1.6685  0.7697
   96SAPE   H2S 9535   1.555   3.239   6.501 -0.8703 -0.7403 -2.2054
   96SAPE    C3 9536   1.521   2.779   6.624  0.3747 -0.3679  0.1529
   96SAPE    HX 9537   1.411   2.767   6.610  0.4635  1.8692 -3.9600
   96SAPE    HY 9538   1.574   2.700   6.682  0.7643 -0.6157 -0.5375
   96SAPE   O31 9539   1.567   2.786   6.485 -0.4121  0.3638 -0.7995
   96SAPE   C31 9540   1.681   2.717   6.465  0.7889  0.2722  0.2826
   96SAPE   O32 9541   1.747   2.663   6.553 -0.2975  0.1957  0.0303
   96SAPE   C32 9542   1.706   2.688   6.313  0.2727  0.0880 -0.5477
   96SAPE   H2X 9543   1.791   2.619   6.299  0.4208  0.0983  0.2710
   96SAPE   H2Y 9544   1.730   2.786   6.265 -1.3614  2.1885  2.5543
   96SAPE   C23 9545   1.770   3.276   6.504  0.1005  0.3477  0.1342
   96SAPE   H3R 9546   1.862   3.216   6.488 -0.1886  0.3880 -1.9918
   96SAPE   H3S 9547   1.768   3.321   6.606 -1.4298  0.3255  0.1326
   96SAPE   C24 9548   1.756   3.389   6.408 -0.4053  0.6057 -0.1326
   96SAPE   H4R 9549   1.725   3.359   6.305  0.4323  3.3169 -1.2629
   96SAPE   H4S 9550   1.859   3.428   6.395  0.1026  0.0707  1.9799
   96SAPE   C25 9551   1.676   3.503   6.467  0.7137 -0.1185  0.3410
   96SAPE   H5R 9552   1.708   3.522   6.571  2.1585  0.9073 -0.2609
   96SAPE   C26 9553   1.567   3.560   6.409  0.1480 -0.6144  0.1596
   96SAPE   H6R 9554   1.517   3.641   6.464 -0.2470 -1.1969  0.6741
   96SAPE   C27 9555   1.518   3.529   6.267 -0.4004 -0.7511 -0.8677
   96SAPE   H7R 9556   1.414   3.568   6.262 -0.2335  1.0503  4.0875
   96SAPE   H7S 9557   1.526   3.419   6.255  1.3387 -0.5897 -1.4972
   96SAPE   C28 9558   1.601   3.577   6.155 -0.2694 -0.4712  0.1073
   96SAPE   H8R 9559   1.669   3.658   6.187 -2.3161  0.8124  1.4824
   96SAPE   C29 9560   1.590   3.538   6.026 -0.9867 -0.2202 -0.2485
   96SAPE   H9R 9561   1.663   3.581   5.955 -0.7083  3.1330  1.8599
   96SAPE  C210 9562   1.485   3.443   5.967  0.4964 -0.5947  0.0105
   96SAPE  H10R 9563   1.427   3.400   6.051 -1.9021 -2.7198 -2.5274
   96SAPE  H10S 9564   1.533   3.365   5.905 -0.8612 -1.4990  0.0597
   96SAPE  C211 9565   1.387   3.527   5.885 -1.1123  0.2609  0.4148
   96SAPE  H11R 9566   1.368   3.631   5.916 -0.3301  0.6173 -0.2623
   96SAPE  C212 9567   1.336   3.503   5.758  0.5377  0.1265 -0.3672
   96SAPE  H12R 9568   1.281   3.581   5.703 -0.1708 -1.7844 -2.5416
   96SAPE  C213 9569   1.346   3.375   5.681 -0.5706  0.2016  0.5043
   96SAPE  H13R 9570   1.434   3.318   5.719  1.5840  2.9220 -0.1187
   96SAPE  H13S 9571   1.369   3.395   5.574 -0.0189  0.0166  0.5885
   96SAPE  C214 9572   1.221   3.296   5.704  0.2821 -0.7240  0.3686
   96SAPE  H14R 9573   1.222   3.226   5.789  0.5744 -0.1550  0.8442
   96SAPE  C215 9574   1.112   3.276   5.624 -0.8350  0.8553 -0.1300
   96SAPE  H15R 9575   1.037   3.203   5.657 -0.2171  0.9787  1.6872
   96SAPE  C216 9576   1.087   3.353   5.499  0.6716  0.5031  0.4234
   96SAPE  H16R 9577   1.186   3.387   5.461 -0.2179  0.6379 -1.9993
   96SAPE  H16S 9578   1.022   3.439   5.525 -0.2189  0.5353 -1.7033
   96SAPE  C217 9579   1.008   3.279   5.386 -0.6903 -0.1135 -0.6064
   96SAPE  H17R 9580   0.900   3.280   5.411 -0.8254  0.9909 -1.1414
   96SAPE  H17S 9581   1.067   3.186   5.376  0.2401  0.2514  1.1014
   96SAPE  C218 9582   1.019   3.362   5.255  0.1620 -0.0899  0.9562
   96SAPE  H18R 9583   1.123   3.361   5.216 -0.7773 -0.8767 -1.7642
   96SAPE  H18S 9584   0.980   3.459   5.292 -0.3021 -0.4739  1.5048
   96SAPE  C219 9585   0.936   3.298   5.145 -0.6352 -0.3363  0.5149
   96SAPE  H19R 9586   0.972   3.196   5.123 -1.1380  0.0394 -2.4559
   96SAPE  H19S 9587   0.948   3.369   5.060 -2.9085 -1.3729 -0.7303
   96SAPE  C220 9588   0.783   3.299   5.177 -0.3686  1.1836 -0.4874
   96SAPE  H20R 9589   0.728   3.298   5.081 -0.6185  2.2248 -0.3729
   96SAPE  H20S 9590   0.763   3.401   5.218 -0.1805  1.0038  0.0711
   96SAPE  H20T 9591   0.757   3.214   5.244  0.3312  0.7271 -0.7900
   96SAPE   C33 9592   1.578   2.634   6.241 -0.0511 -0.0791  0.4704
   96SAPE   H3X 9593   1.501   2.708   6.271 -1.4534 -1.3762  0.1645
   96SAPE   H3Y 9594   1.544   2.530   6.255 -2.3599  0.5310 -0.2730
   96SAPE   C34 9595   1.574   2.660   6.090 -0.1098  0.2810 -0.7657
   96SAPE   H4X 9596   1.656   2.606   6.038 -1.7188 -2.5957 -0.5289
   96SAPE   H4Y 9597   1.582   2.769   6.067 -0.9592  0.0557 -2.2692
   96SAPE   C35 9598   1.447   2.599   6.031  0.4583  0.2612  0.0801
   96SAPE   H5X 9599   1.352   2.644   6.067  0.8374  1.2432 -0.1239
   96SAPE   H5Y 9600   1.443   2.495   6.070 -1.4630  1.3555  3.1346
   96SAPE   C36 9601   1.454   2.596   5.880 -0.1766 -0.1567 -0.1945
   96SAPE   H6X 9602   1.368   2.535   5.845 -0.4975  0.2434 -0.1108
   96SAPE   H6Y 9603   1.544   2.535   5.855  0.4602  1.6554 -2.6108
   96SAPE   C37 9604   1.451   2.740   5.824 -0.2865  0.0683  0.2152
   96SAPE   H7X 9605   1.548   2.791   5.840 -0.5517  0.2426  1.3472
   96SAPE   H7Y 9606   1.366   2.794   5.870 -1.1285 -1.5448  0.6313
   96SAPE   C38 9607   1.416   2.743   5.675 -0.1109  0.4454  0.9118
   96SAPE   H8X 9608   1.339   2.663   5.663 -0.4439  0.8423  0.3436
   96SAPE   H8Y 9609   1.507   2.702   5.627 -0.0722 -0.8714  2.0801
   96SAPE   C39 9610   1.358   2.875   5.620 -0.3809  0.2489 -0.4352
   96SAPE   H9X 9611   1.440   2.950   5.632 -0.2292  0.0990 -0.5328
   96SAPE   H9Y 9612   1.263   2.909   5.667  0.1209 -1.2235  1.8242
   96SAPE  C310 9613   1.344   2.848   5.469 -0.8706  0.0250  0.5651
   96SAPE  H10X 9614   1.285   2.755   5.455  0.2378 -0.5575 -0.4495
   96SAPE  H10Y 9615   1.444   2.833   5.424 -0.3279  1.4029  1.2509
   96SAPE  C311 9616   1.298   2.972   5.389  0.5616 -0.1243  0.4341
   96SAPE  H11X 9617   1.344   3.060   5.438 -1.7252  0.4991  1.6226
   96SAPE  H11Y 9618   1.189   2.991   5.400  0.6682 -0.8770  4.5915
   96SAPE  C312 9619   1.350   2.965   5.243  0.5942 -0.8345 -0.3184
   96SAPE  H12X 9620   1.315   2.871   5.195  3.1195 -3.2516  2.2041
   96SAPE  H12Y 9621   1.461   2.958   5.250  0.7059 -0.1687 -1.2575
   96SAPE  C313 9622   1.320   3.096   5.173  0.4600 -0.4135  0.6307
   96SAPE  H13X 9623   1.358   3.180   5.235 -0.4270 -1.5165  2.7539
   96SAPE  H13Y 9624   1.213   3.124   5.181  0.8239  0.7512  1.7940
   96SAPE  C314 9625   1.353   3.101   5.029 -0.2679  0.0465  0.4883
   96SAPE  H14X 9626   1.309   3.012   4.979  0.1479 -0.0307  0.2538
   96SAPE  H14Y 9627   1.460   3.095   4.998  0.0860  1.8187  1.2691
   96SAPE  C315 9628   1.281   3.224   4.958  0.1843  0.3111 -0.5146
   96SAPE  H15X 9629   1.326   3.321   4.989  0.6897 -0.7895  2.6409
   96SAPE  H15Y 9630   1.173   3.224   4.983  0.2618  2.1587 -0.0111
   96SAPE  C316 9631   1.284   3.214   4.809 -0.0652 -0.5645  0.9688
   96SAPE  H16X 9632   1.233   3.300   4.762  0.0906 -1.5660 -1.1542
   96SAPE  H16Y 9633   1.227   3.126   4.772  0.4383  0.4087 -2.4195
   96SAPE  C317 9634   1.431   3.205   4.760 -0.1961  0.4969  0.7926
   96SAPE  H17X 9635   1.463   3.099   4.761 -2.9643 -0.4975 -1.1792
   96SAPE  H17Y 9636   1.488   3.270   4.829 -1.0793  0.1189  1.9140
   96SAPE  C318 9637   1.445   3.258   4.614 -0.2205  0.4058  0.2580
   96SAPE  H18X 9638   1.549   3.279   4.580 -0.0668  1.3068  1.2511
   96SAPE  H18Y 9639   1.401   3.360   4.616  0.6925  0.8138  0.2183
   96SAPE  H18Z 9640   1.385   3.196   4.544 -0.9681 -0.2039  1.4177
   97SAPE     N 9641   2.939   2.407   7.033 -0.1339 -0.3995  0.4850
   97SAPE   HN1 9642   2.954   2.323   6.973 -0.7175  1.2260 -2.0726
   97SAPE   HN2 9643   2.846   2.407   7.080  0.2136 -0.9634  1.2071
   97SAPE   HN3 9644   2.944   2.484   6.964  2.3178 -1.8199 -1.0565
   97SAPE   C12 9645   3.042   2.431   7.138 -0.6586  0.2561 -0.1629
   97SAPE  H12A 9646   3.118   2.499   7.096  0.0298 -1.4772 -1.8732
   97SAPE  H12B 9647   3.088   2.334   7.166 -1.2065  0.2446  0.7333
   97SAPE   C11 9648   2.967   2.498   7.252 -0.0032  0.5587  0.2970
   97SAPE  H11A 9649   3.031   2.518   7.341  0.9086  1.0683 -0.4549
   97SAPE  H11B 9650   2.889   2.427   7.286  0.7034 -0.5819 -0.3984
   97SAPE     P 9651   2.830   2.719   7.318  0.1165  0.0159  0.1167
   97SAPE   O13 9652   2.726   2.646   7.398 -0.3173 -0.3308  0.1552
   97SAPE   O14 9653   2.936   2.772   7.406 -0.0364  0.4328  0.7061
   97SAPE   O12 9654   2.898   2.622   7.209  0.3234  0.0406  0.3954
   97SAPE   O11 9655   2.767   2.830   7.231 -0.4427 -0.0935 -0.1075
   97SAPE    C1 9656   2.826   2.881   7.114 -0.9186  0.0092 -0.3465
   97SAPE    HA 9657   2.884   2.796   7.070  0.3514 -0.5109  2.1483
   97SAPE    HB 9658   2.749   2.911   7.040 -1.2918  0.6947  0.3095
   97SAPE    C2 9659   2.927   2.999   7.139 -0.0473  0.7952 -0.4483
   97SAPE    HS 9660   2.992   2.979   7.227 -0.2363  3.1239  0.2886
   97SAPE   O21 9661   2.839   3.109   7.154 -0.4107  0.9773 -0.4021
   97SAPE   C21 9662   2.876   3.202   7.239  0.6526 -0.5049  0.1406
   97SAPE   O22 9663   2.980   3.209   7.297  0.5053 -0.0971  0.0561
   97SAPE   C22 9664   2.766   3.314   7.233  0.5403  0.6571  0.1658
   97SAPE   H2R 9665   2.681   3.258   7.278  0.5388 -1.3674 -2.1494
   97SAPE   H2S 9666   2.807   3.393   7.299  0.6604  0.2040  0.6393
   97SAPE    C3 9667   3.016   3.030   7.017 -0.0882 -0.2082 -0.2011
   97SAPE    HX 9668   3.073   3.118   7.054  0.7623  0.1075 -2.1730
   97SAPE    HY 9669   2.959   3.063   6.927 -1.9107  0.4899  1.1376
   97SAPE   O31 9670   3.103   2.917   6.987  0.4239 -0.1255 -0.0822
   97SAPE   C31 9671   3.228   2.913   7.028  0.5812 -0.5274 -0.4754
   97SAPE   O32 9672   3.275   2.982   7.118  0.1671  0.4660 -0.7325
   97SAPE   C32 9673   3.309   2.805   6.954  0.1417 -0.6747  0.0448
   97SAPE   H2X 9674   3.254   2.763   6.867 -1.3594 -0.1644  0.7149
   97SAPE   H2Y 9675   3.329   2.726   7.029  0.2461  0.0240  0.7716
   97SAPE   C23 9676   2.736   3.363   7.090 -0.1356  0.0252  0.2625
   97SAPE   H3R 9677   2.655   3.438   7.097  0.7622  1.2041 -1.2730
   97SAPE   H3S 9678   2.706   3.270   7.038 -1.4097  0.3238  0.4279
   97SAPE   C24 9679   2.853   3.434   7.025  1.1483  0.1875 -0.6297
   97SAPE   H4R 9680   2.935   3.365   6.996 -0.6287 -1.7766 -1.2154
   97SAPE   H4S 9681   2.885   3.507   7.102 -1.4082 -0.3861  1.1028
   97SAPE   C25 9682   2.826   3.509   6.898 -0.1627 -0.1892 -0.2693
   97SAPE   H5R 9683   2.773   3.450   6.822 -0.1577  0.1263 -0.5200
   97SAPE   C26 9684   2.862   3.630   6.859  0.0649 -0.1657  0.4789
   97SAPE   H6R 9685   2.833   3.664   6.758  0.2212 -1.5037 -0.0390
   97SAPE   C27 9686   2.934   3.737   6.933 -0.3524 -0.0841  0.0115
   97SAPE   H7R 9687   3.033   3.764   6.891 -0.9562  0.3177 -1.2199
   97SAPE   H7S 9688   2.954   3.700   7.036  0.1985 -0.5215 -0.2516
   97SAPE   C28 9689   2.859   3.868   6.939 -0.1771  0.1983  1.7053
   97SAPE   H8R 9690   2.780   3.862   7.015  1.0480  1.4487  3.1440
   97SAPE   C29 9691   2.883   3.984   6.864  0.5481  0.4057 -0.3744
   97SAPE   H9R 9692   2.812   4.068   6.867 -1.3942 -1.0336 -2.3969
   97SAPE  C210 9693   2.996   4.006   6.773 -1.1319 -0.6060  0.2429
   97SAPE  H10R 9694   2.967   4.062   6.682 -0.0459  0.3712  0.4708
   97SAPE  H10S 9695   3.047   3.912   6.742 -0.1086 -0.2728  0.8672
   97SAPE  C211 9696   3.109   4.082   6.848 -0.2948 -0.1192  0.0351
   97SAPE  H11R 9697   3.098   4.090   6.957 -0.3603  0.6457 -0.0248
   97SAPE  C212 9698   3.225   4.136   6.801 -0.7243  0.2044 -0.0591
   97SAPE  H12R 9699   3.292   4.176   6.879 -1.8914 -0.8432  1.5421
   97SAPE  C213 9700   3.269   4.146   6.658  0.5590  0.4046  0.0139
   97SAPE  H13R 9701   3.345   4.226   6.648 -0.5636  1.2609 -2.0848
   97SAPE  H13S 9702   3.177   4.186   6.612  0.3823 -0.0693 -0.0535
   97SAPE  C214 9703   3.306   4.021   6.586  0.3675 -0.2665 -0.2213
   97SAPE  H14R 9704   3.401   3.982   6.625  1.0746  0.8074 -0.8088
   97SAPE  C215 9705   3.235   3.950   6.493 -0.2432  0.3761 -0.5711
   97SAPE  H15R 9706   3.280   3.865   6.440 -1.1185 -0.3416 -0.1911
   97SAPE  C216 9707   3.104   3.995   6.421  0.4567 -0.9313 -0.7402
   97SAPE  H16R 9708   3.085   4.103   6.438  1.0392 -0.8547 -0.5497
   97SAPE  H16S 9709   3.026   3.934   6.471 -0.4694 -1.0351 -2.2526
   97SAPE  C217 9710   3.098   3.957   6.270 -0.0028  0.0446 -0.1466
   97SAPE  H17R 9711   3.100   3.846   6.259  0.0579 -0.5170  3.8461
   97SAPE  H17S 9712   3.179   4.000   6.207 -1.7664  1.5779 -1.4490
   97SAPE  C218 9713   2.968   4.011   6.209 -0.3840 -0.4479 -0.1552
   97SAPE  H18R 9714   2.955   4.121   6.216  2.3205 -0.1508  1.2845
   97SAPE  H18S 9715   2.883   3.969   6.268  0.2712 -1.0033  0.4118
   97SAPE  C219 9716   2.954   3.978   6.061  0.1150 -0.1728  0.3006
   97SAPE  H19R 9717   2.847   3.995   6.036  0.2348 -2.9035 -2.5918
   97SAPE  H19S 9718   2.960   3.869   6.043 -0.0100 -0.2119  0.4944
   97SAPE  C220 9719   3.037   4.058   5.960  0.4926 -0.0965 -0.2499
   97SAPE  H20R 9720   3.144   4.041   5.986 -0.1171 -1.9234  1.3384
   97SAPE  H20S 9721   3.012   4.165   5.971  0.1367 -0.0329 -1.5273
   97SAPE  H20T 9722   3.007   4.034   5.856 -3.8229  1.1332  0.5175
   97SAPE   C33 9723   3.447   2.846   6.906  0.7505  0.0306 -0.1916
   97SAPE   H3X 9724   3.517   2.761   6.895  2.1227  1.1315 -0.1719
   97SAPE   H3Y 9725   3.484   2.896   6.998 -0.5533 -1.9699  1.5031
   97SAPE   C34 9726   3.457   2.945   6.793 -0.8238 -0.4272  0.3955
   97SAPE   H4X 9727   3.563   2.977   6.798 -1.2144  0.9223  0.5307
   97SAPE   H4Y 9728   3.388   3.031   6.809 -2.9142 -1.9755  0.2073
   97SAPE   C35 9729   3.433   2.889   6.654 -0.0912 -0.7961 -0.3499
   97SAPE   H5X 9730   3.323   2.874   6.656  0.0735 -2.2373  1.6262
   97SAPE   H5Y 9731   3.475   2.786   6.650 -2.7250 -1.9776 -0.1250
   97SAPE   C36 9732   3.485   2.975   6.541 -0.0842 -0.8293  0.4201
   97SAPE   H6X 9733   3.591   3.006   6.546 -0.3566  0.3150 -0.3971
   97SAPE   H6Y 9734   3.430   3.072   6.543  0.3947 -0.3219 -3.4246
   97SAPE   C37 9735   3.462   2.916   6.398 -0.3024  0.5430  0.1650
   97SAPE   H7X 9736   3.501   2.812   6.393 -1.8911 -0.0337 -1.4552
   97SAPE   H7Y 9737   3.520   2.980   6.328  1.3202  0.3683  1.2990
   97SAPE   C38 9738   3.311   2.913   6.360  0.1800 -0.4978  0.5433
   97SAPE   H8X 9739   3.236   2.896   6.440  0.3150  0.1680  0.8125
   97SAPE   H8Y 9740   3.306   2.841   6.275  1.3135  1.5107 -1.3090
   97SAPE   C39 9741   3.267   3.041   6.292 -0.2287  0.1182  0.0126
   97SAPE   H9X 9742   3.311   3.129   6.344  0.7047 -0.6647  0.5698
   97SAPE   H9Y 9743   3.156   3.045   6.297 -0.2504 -0.1397 -0.2350
   97SAPE  C310 9744   3.303   3.049   6.141  0.0889  0.0473  0.0414
   97SAPE  H10X 9745   3.413   3.036   6.125 -0.0008 -0.1616 -0.4289
   97SAPE  H10Y 9746   3.285   3.155   6.114  1.8949 -0.1227 -2.1385
   97SAPE  C311 9747   3.223   2.959   6.042  0.1197  0.0421 -0.5037
   97SAPE  H11X 9748   3.113   2.977   6.044 -0.0481 -0.8653 -0.7367
   97SAPE  H11Y 9749   3.218   2.849   6.062 -2.5573 -0.2552 -2.2284
   97SAPE  C312 9750   3.287   2.983   5.900  0.4165  0.4163 -0.0396
   97SAPE  H12X 9751   3.391   2.945   5.909  0.8583  1.4978 -0.3624
   97SAPE  H12Y 9752   3.283   3.091   5.874 -2.1829  0.6988  1.2182
   97SAPE  C313 9753   3.218   2.901   5.795 -0.6787  0.4702 -0.1469
   97SAPE  H13X 9754   3.116   2.945   5.798 -0.2538  1.4393  1.9304
   97SAPE  H13Y 9755   3.222   2.794   5.825  0.1665  0.7856  0.9309
   97SAPE  C314 9756   3.270   2.917   5.651 -0.0293  0.0234 -0.3254
   97SAPE  H14X 9757   3.378   2.893   5.646  0.2726  1.2207 -0.0526
   97SAPE  H14Y 9758   3.254   3.021   5.614 -1.2302 -0.5751 -1.5468
   97SAPE  C315 9759   3.189   2.820   5.556  0.9054 -0.0903  1.2313
   97SAPE  H15X 9760   3.080   2.844   5.564  0.1636 -2.8027  0.5261
   97SAPE  H15Y 9761   3.206   2.717   5.595  1.7186  0.0251  1.1874
   97SAPE  C316 9762   3.235   2.825   5.410  0.5330  0.2604  0.7497
   97SAPE  H16X 9763   3.173   2.768   5.339 -1.5209  2.3667  0.7260
   97SAPE  H16Y 9764   3.336   2.782   5.394  0.3452 -0.3926  1.2663
   97SAPE  C317 9765   3.219   2.969   5.344 -0.1563  0.8906  1.0876
   97SAPE  H17X 9766   3.236   2.959   5.234 -1.2604 -0.2127  0.9844
   97SAPE  H17Y 9767   3.292   3.034   5.395 -0.0337  0.0475  2.0262
   97SAPE  C318 9768   3.076   3.023   5.358 -0.3193  0.3187 -0.3092
   97SAPE  H18X 9769   3.008   2.970   5.288 -1.3696  2.4334 -0.9573
   97SAPE  H18Y 9770   3.073   3.127   5.318  3.0647  0.7730  0.3309
   97SAPE  H18Z 9771   3.032   3.033   5.459  2.8966 -0.5973  1.3234
   98SAPE     N 9772   1.881   1.396   6.946 -0.0303  0.2803 -0.0744
   98SAPE   HN1 9773   1.793   1.416   6.895  0.4277 -1.4542 -1.6729
   98SAPE   HN2 9774   1.925   1.307   6.915  0.1870  0.5599 -0.5906
   98SAPE   HN3 9775   1.872   1.379   7.048  0.2994 -0.9785 -0.2413
   98SAPE   C12 9776   1.991   1.496   6.931  0.1833  0.0766  0.4461
   98SAPE  H12A 9777   2.032   1.519   7.032 -0.4479  0.4273  0.6248
   98SAPE  H12B 9778   1.940   1.591   6.902 -1.5055 -1.1765 -0.9070
   98SAPE   C11 9779   2.102   1.445   6.842 -0.4290 -0.3000 -0.2107
   98SAPE  H11A 9780   2.184   1.515   6.869 -1.3240  1.6378 -2.1288
   98SAPE  H11B 9781   2.082   1.455   6.733 -1.9946 -0.3402  0.0456
   98SAPE     P 9782   2.246   1.225   6.817  0.1706 -0.1478 -0.2747
   98SAPE   O13 9783   2.373   1.286   6.865  0.1874 -0.1783 -0.3607
   98SAPE   O14 9784   2.227   1.085   6.860 -0.4368  0.6587 -1.1613
   98SAPE   O12 9785   2.132   1.314   6.886 -0.3579  0.2388  0.2868
   98SAPE   O11 9786   2.231   1.247   6.666 -0.1926  0.1215 -0.3918
   98SAPE    C1 9787   2.341   1.236   6.579 -0.6498 -0.1672  0.2001
   98SAPE    HA 9788   2.418   1.163   6.613  1.5204  0.6275 -2.6348
   98SAPE    HB 9789   2.317   1.192   6.480 -0.6916 -1.4892  0.7777
   98SAPE    C2 9790   2.401   1.378   6.565 -0.0263 -0.3517 -0.6041
   98SAPE    HS 9791   2.449   1.409   6.661 -1.6065 -1.4920  0.6049
   98SAPE   O21 9792   2.299   1.473   6.522  0.7259  0.1038  0.0616
   98SAPE   C21 9793   2.313   1.600   6.555  0.2776 -0.2043  0.1507
   98SAPE   O22 9794   2.397   1.650   6.623 -0.3195 -0.1358  0.1070
   98SAPE   C22 9795   2.198   1.677   6.481  0.5330  1.2119  0.1402
   98SAPE   H2R 9796   2.236   1.710   6.382  1.3158 -1.7112 -0.6297
   98SAPE   H2S 9797   2.113   1.607   6.462 -0.1586  2.9342 -4.4519
   98SAPE    C3 9798   2.519   1.370   6.464 -0.0210 -0.4336 -0.3424
   98SAPE    HX 9799   2.574   1.283   6.506 -0.0802 -0.2703  0.0834
   98SAPE    HY 9800   2.586   1.457   6.474  0.3262 -0.5649 -1.3990
   98SAPE   O31 9801   2.466   1.333   6.332  0.3373 -0.3282 -0.4519
   98SAPE   C31 9802   2.450   1.435   6.244 -0.0668  0.2184  0.4904
   98SAPE   O32 9803   2.463   1.550   6.265 -0.0628 -0.1569  0.5976
   98SAPE   C32 9804   2.420   1.373   6.108  0.5422 -0.1295  0.2870
   98SAPE   H2X 9805   2.330   1.307   6.112 -0.6908  1.5017  0.5682
   98SAPE   H2Y 9806   2.514   1.318   6.087  0.9183  1.0991 -1.4818
   98SAPE   C23 9807   2.146   1.806   6.557  0.1235  0.8822  0.0737
   98SAPE   H3R 9808   2.226   1.883   6.566  0.4576  0.3767  1.8019
   98SAPE   H3S 9809   2.122   1.772   6.660  1.2485  1.5893  0.5856
   98SAPE   C24 9810   2.023   1.879   6.488 -0.3023 -0.1676  0.0430
   98SAPE   H4R 9811   1.952   1.794   6.479  1.1287 -1.3546 -0.6317
   98SAPE   H4S 9812   2.051   1.911   6.386 -1.5986  1.3532  0.1346
   98SAPE   C25 9813   1.960   1.989   6.580 -0.3945  0.5263  0.5425
   98SAPE   H5R 9814   1.933   1.959   6.682 -0.5720  3.5620  1.4832
   98SAPE   C26 9815   1.952   2.117   6.539  0.5537 -0.2432 -0.5523
   98SAPE   H6R 9816   1.907   2.188   6.609  2.5670  1.0958 -0.5231
   98SAPE   C27 9817   1.965   2.181   6.402 -0.3075 -0.6917  0.3643
   98SAPE   H7R 9818   1.945   2.104   6.325 -1.3195 -0.9627  0.8837
   98SAPE   H7S 9819   2.072   2.210   6.388 -0.0408 -0.6500  2.1793
   98SAPE   C28 9820   1.890   2.310   6.379  0.5702 -0.6379  0.5409
   98SAPE   H8R 9821   1.893   2.393   6.451 -1.4698  1.1843 -1.3125
   98SAPE   C29 9822   1.827   2.339   6.262 -0.0479  0.1745  0.3435
   98SAPE   H9R 9823   1.762   2.428   6.270 -0.8673 -0.2624 -0.9465
   98SAPE  C210 9824   1.813   2.250   6.138 -0.5125  0.4305 -0.1340
   98SAPE  H10R 9825   1.708   2.264   6.103 -0.1946 -0.1328 -1.3805
   98SAPE  H10S 9826   1.815   2.145   6.175  2.7249 -0.1768 -1.6797
   98SAPE  C211 9827   1.911   2.281   6.025  0.1449  0.2356 -0.0332
   98SAPE  H11R 9828   2.009   2.310   6.065 -0.7074  0.4505  2.0310
   98SAPE  C212 9829   1.888   2.293   5.894 -0.4965 -0.1930  0.1494
   98SAPE  H12R 9830   1.978   2.305   5.833  0.4841 -1.6033  1.2584
   98SAPE  C213 9831   1.761   2.258   5.819  0.4014 -0.5344  0.1035
   98SAPE  H13R 9832   1.689   2.342   5.810 -0.5291 -1.4733 -1.9143
   98SAPE  H13S 9833   1.693   2.193   5.879 -0.4445  0.0661 -0.1738
   98SAPE  C214 9834   1.791   2.212   5.679  0.4849 -0.4159  0.1481
   98SAPE  H14R 9835   1.827   2.108   5.672 -4.6923 -2.4062 -1.1770
   98SAPE  C215 9836   1.772   2.282   5.567  0.1785 -0.5670  0.4585
   98SAPE  H15R 9837   1.780   2.230   5.470 -0.9870 -1.4346  0.8056
   98SAPE  C216 9838   1.705   2.415   5.542 -0.3347 -0.9575 -0.2033
   98SAPE  H16R 9839   1.729   2.479   5.629 -0.8943  2.6750 -2.4843
   98SAPE  H16S 9840   1.596   2.391   5.536  0.1129 -2.8788 -2.1710
   98SAPE  C217 9841   1.746   2.500   5.423 -0.3531 -0.2332 -0.1078
   98SAPE  H17R 9842   1.846   2.546   5.437  0.0425 -0.3661 -2.1518
   98SAPE  H17S 9843   1.674   2.585   5.422  1.1759  1.1201 -0.3530
   98SAPE  C218 9844   1.731   2.432   5.287 -0.7312 -0.5458  0.2544
   98SAPE  H18R 9845   1.633   2.382   5.271 -0.0981 -2.1305  0.9862
   98SAPE  H18S 9846   1.820   2.366   5.289 -0.0979  0.2607  2.9591
   98SAPE  C219 9847   1.749   2.537   5.182  0.0113  0.4386 -0.4746
   98SAPE  H19R 9848   1.837   2.599   5.209  0.6776  0.0380 -1.6250
   98SAPE  H19S 9849   1.656   2.597   5.188 -1.0631 -1.3029  1.6044
   98SAPE  C220 9850   1.752   2.471   5.041 -0.4812 -0.4917 -0.4003
   98SAPE  H20R 9851   1.837   2.399   5.033 -1.2092 -1.1764 -2.8470
   98SAPE  H20S 9852   1.766   2.549   4.964 -1.6061 -1.1082 -1.2454
   98SAPE  H20T 9853   1.656   2.417   5.027  0.6207 -3.0649  1.1589
   98SAPE   C33 9854   2.396   1.485   6.009  0.2674  0.3304  0.1880
   98SAPE   H3X 9855   2.490   1.540   5.988  1.3341 -0.9366  1.4161
   98SAPE   H3Y 9856   2.320   1.558   6.042 -1.5778 -1.0888 -0.7118
   98SAPE   C34 9857   2.354   1.429   5.871 -0.7205  0.2876  0.4357
   98SAPE   H4X 9858   2.255   1.383   5.892 -0.4747 -2.0883 -2.7708
   98SAPE   H4Y 9859   2.428   1.351   5.841 -3.0687 -2.6780  1.7791
   98SAPE   C35 9860   2.344   1.531   5.756 -0.2873 -0.0846  0.2099
   98SAPE   H5X 9861   2.438   1.589   5.744 -1.8403  2.5047  0.0585
   98SAPE   H5Y 9862   2.264   1.596   5.797 -0.0137 -1.7130  3.7129
   98SAPE   C36 9863   2.295   1.467   5.619  0.2908 -0.1572 -0.1441
   98SAPE   H6X 9864   2.200   1.414   5.644 -1.6526  3.2221  0.2688
   98SAPE   H6Y 9865   2.368   1.392   5.584 -0.1060 -0.4293 -0.3996
   98SAPE   C37 9866   2.291   1.573   5.507  0.6159  0.4525  0.3097
   98SAPE   H7X 9867   2.398   1.600   5.492  0.3877  1.5312  0.5717
   98SAPE   H7Y 9868   2.237   1.659   5.552 -2.5372 -1.7149  0.9900
   98SAPE   C38 9869   2.216   1.511   5.388  0.2350 -0.0918 -0.0495
   98SAPE   H8X 9870   2.112   1.489   5.419  0.2966  0.0087  0.2244
   98SAPE   H8Y 9871   2.262   1.413   5.364 -0.5116 -0.6868  0.8875
   98SAPE   C39 9872   2.226   1.605   5.261 -0.1990  0.0956 -0.1318
   98SAPE   H9X 9873   2.326   1.650   5.278  0.3579 -0.7919 -0.9905
   98SAPE   H9Y 9874   2.139   1.673   5.248  0.0468  0.1808 -1.4776
   98SAPE  C310 9875   2.228   1.523   5.122 -0.4369 -0.5640 -1.0770
   98SAPE  H10X 9876   2.304   1.443   5.137 -0.6995 -0.5603  0.4789
   98SAPE  H10Y 9877   2.274   1.589   5.046 -0.5331  0.7963  0.0158
   98SAPE  C311 9878   2.093   1.461   5.089  0.8999  0.0575  0.1174
   98SAPE  H11X 9879   2.061   1.412   5.183 -0.9113 -0.0688 -0.5163
   98SAPE  H11Y 9880   2.104   1.379   5.015  0.4138  0.6228 -0.5936
   98SAPE  C312 9881   1.986   1.559   5.041 -0.2733  0.2095  0.6002
   98SAPE  H12X 9882   2.018   1.617   4.952  0.6189 -0.1473  0.6777
   98SAPE  H12Y 9883   1.971   1.644   5.111  0.2600 -0.0328  1.0168
   98SAPE  C313 9884   1.851   1.497   4.998 -0.4718  0.1395  0.0872
   98SAPE  H13X 9885   1.830   1.400   5.049 -0.4706 -0.3181 -0.7547
   98SAPE  H13Y 9886   1.863   1.471   4.890  2.4274 -0.4501  0.4600
   98SAPE  C314 9887   1.723   1.579   5.023 -0.7464 -0.5243  0.1406
   98SAPE  H14X 9888   1.713   1.614   5.128  1.3976  1.8738 -0.3446
   98SAPE  H14Y 9889   1.642   1.509   4.992 -1.7343  0.7006 -0.1084
   98SAPE  C315 9890   1.721   1.702   4.929 -0.0414  0.4435 -0.3578
   98SAPE  H15X 9891   1.816   1.758   4.941  0.5861 -0.8722  1.1621
   98SAPE  H15Y 9892   1.643   1.763   4.980  0.8664  0.0172  1.6351
   98SAPE  C316 9893   1.683   1.658   4.786 -1.0522 -0.1733 -0.1236
   98SAPE  H16X 9894   1.619   1.567   4.792 -0.4161 -0.8480 -2.2595
   98SAPE  H16Y 9895   1.778   1.618   4.745 -0.3999  1.5417 -0.3442
   98SAPE  C317 9896   1.638   1.767   4.688 -0.5211 -0.9225 -0.3040
   98SAPE  H17X 9897   1.629   1.718   4.588 -0.6015 -0.9371 -0.2893
   98SAPE  H17Y 9898   1.720   1.843   4.685 -2.1654  0.9122 -1.2164
   98SAPE  C318 9899   1.510   1.842   4.723 -0.5490 -0.4502  0.6567
   98SAPE  H18X 9900   1.531   1.883   4.824 -0.9706  0.8440  0.2432
   98SAPE  H18Y 9901   1.429   1.766   4.725 -1.5283  0.5684  1.1594
   98SAPE  H18Z 9902   1.498   1.916   4.641  1.1147 -0.9258 -0.0528
   99SAPE     N 9903   0.541   3.453   7.127 -0.2922  0.7695  0.6364
   99SAPE   HN1 9904   0.630   3.485   7.169  2.3866 -4.1340 -0.4628
   99SAPE   HN2 9905   0.496   3.372   7.175 -1.7966  0.8716 -0.5133
   99SAPE   HN3 9906   0.571   3.422   7.032  2.6722 -1.9961  2.2838
   99SAPE   C12 9907   0.426   3.556   7.118  0.2453 -0.3955  0.1168
   99SAPE  H12A 9908   0.470   3.650   7.078 -2.7018  1.8226  1.6674
   99SAPE  H12B 9909   0.391   3.564   7.223  1.4569 -0.5122  0.5438
   99SAPE   C11 9910   0.307   3.514   7.027  0.0578  0.2383  0.4776
   99SAPE  H11A 9911   0.351   3.492   6.928 -1.9292 -2.0489  0.0386
   99SAPE  H11B 9912   0.248   3.606   7.006  0.5303  0.1574 -1.3784
   99SAPE     P 9913   0.179   3.276   7.005 -0.2186 -0.0430  0.1066
   99SAPE   O13 9914   0.221   3.156   7.079 -0.4278 -0.5514  0.3227
   99SAPE   O14 9915   0.036   3.307   6.995 -0.1118  0.7150 -0.3057
   99SAPE   O12 9916   0.225   3.409   7.083 -0.7045  0.3951  0.2868
   99SAPE   O11 9917   0.245   3.297   6.853 -0.2207  0.3605  0.1070
   99SAPE    C1 9918   0.161   3.295   6.735  0.6146  0.5821  0.1606
   99SAPE    HA 9919   0.211   3.227   6.662  0.1277  1.9461 -1.5183
   99SAPE    HB 9920   0.059   3.256   6.753  0.2816  1.3785  0.0399
   99SAPE    C2 9921   0.154   3.434   6.669  0.5940 -0.1997 -0.1288
   99SAPE    HS 9922   0.131   3.500   6.755 -0.3860  1.6140 -1.7391
   99SAPE   O21 9923   0.047   3.451   6.577 -0.8060  0.0208 -0.3953
   99SAPE   C21 9924  -0.071   3.472   6.627  0.1505 -0.1605  0.3661
   99SAPE   O22 9925  -0.101   3.485   6.745 -0.6622 -0.1072  0.0726
   99SAPE   C22 9926  -0.176   3.464   6.519  0.0869 -0.0808  0.4671
   99SAPE   H2R 9927  -0.122   3.454   6.423  2.4451  0.0321  1.7105
   99SAPE   H2S 9928  -0.239   3.373   6.529  1.1456 -1.0182 -0.9289
   99SAPE    C3 9929   0.292   3.468   6.603  0.3840 -1.0241 -0.5653
   99SAPE    HX 9930   0.361   3.445   6.687  3.2847  3.2997 -1.4601
   99SAPE    HY 9931   0.294   3.578   6.593 -0.8758 -1.0092 -0.8203
   99SAPE   O31 9932   0.328   3.386   6.499  0.0630  0.5241  0.0116
   99SAPE   C31 9933   0.305   3.427   6.379  0.3743  0.0767  0.3119
   99SAPE   O32 9934   0.269   3.537   6.347  0.0447 -0.4000 -0.0285
   99SAPE   C32 9935   0.326   3.306   6.290 -0.1163 -0.4375  0.4167
   99SAPE   H2X 9936   0.310   3.209   6.342 -1.3382  0.1984  1.2788
   99SAPE   H2Y 9937   0.429   3.321   6.251 -0.1935  0.2253  0.4574
   99SAPE   C23 9938  -0.266   3.586   6.504 -0.1827  0.4833 -0.2588
   99SAPE   H3R 9939  -0.214   3.684   6.494 -0.1720  0.3917 -1.1765
   99SAPE   H3S 9940  -0.323   3.597   6.599 -1.2497 -3.7171 -0.2388
   99SAPE   C24 9941  -0.361   3.571   6.380 -0.3996  0.0367  0.2547
   99SAPE   H4R 9942  -0.414   3.474   6.389 -1.3012  0.4831 -0.2302
   99SAPE   H4S 9943  -0.285   3.570   6.299  0.0630  0.7469  0.6649
   99SAPE   C25 9944  -0.449   3.695   6.380 -0.3159  0.4378  0.2554
   99SAPE   H5R 9945  -0.416   3.779   6.317 -3.3150  1.2542 -0.3894
   99SAPE   C26 9946  -0.561   3.710   6.454 -0.3656 -0.2521  0.0944
   99SAPE   H6R 9947  -0.611   3.807   6.445  0.6051  0.0526 -3.3437
   99SAPE   C27 9948  -0.610   3.619   6.561 -0.0942  0.2655 -0.2056
   99SAPE   H7R 9949  -0.570   3.670   6.651  1.5649 -1.2177 -0.0430
   99SAPE   H7S 9950  -0.572   3.515   6.549 -1.3381 -0.0584 -1.5421
   99SAPE   C28 9951  -0.759   3.606   6.576  0.3887 -0.3807 -0.1535
   99SAPE   H8R 9952  -0.804   3.634   6.672 -1.1398 -0.9614 -0.6686
   99SAPE   C29 9953  -0.854   3.583   6.481  0.0205  0.2830 -0.0389
   99SAPE   H9R 9954  -0.959   3.590   6.515  0.3095 -0.0880  0.9608
   99SAPE  C210 9955  -0.820   3.551   6.340  1.3050  0.1153 -0.1315
   99SAPE  H10R 9956  -0.722   3.501   6.329  1.1958 -0.1883  0.2216
   99SAPE  H10S 9957  -0.789   3.642   6.285  2.8126  0.1872  0.7794
   99SAPE  C211 9958  -0.946   3.492   6.271  0.8244  0.6095  0.7235
   99SAPE  H11R 9959  -1.038   3.548   6.293  0.8349 -0.1036  2.7584
   99SAPE  C212 9960  -0.960   3.388   6.187 -0.3027 -0.8932 -1.0996
   99SAPE  H12R 9961  -1.060   3.372   6.143 -1.0450 -3.8973  1.3922
   99SAPE  C213 9962  -0.859   3.303   6.123 -0.5033 -0.4784 -0.2582
   99SAPE  H13R 9963  -0.753   3.334   6.136 -0.9969  1.1501  0.0363
   99SAPE  H13S 9964  -0.881   3.318   6.015 -1.1092 -1.3437 -0.2682
   99SAPE  C214 9965  -0.881   3.156   6.162  0.1537 -0.5896  0.4888
   99SAPE  H14R 9966  -0.974   3.115   6.121 -0.0878 -0.8642  1.2921
   99SAPE  C215 9967  -0.817   3.085   6.252  0.7278  0.4591  0.0171
   99SAPE  H15R 9968  -0.857   2.983   6.256  0.6257  0.5137  0.3547
   99SAPE  C216 9969  -0.698   3.137   6.330  0.6405 -0.1884 -0.6225
   99SAPE  H16R 9970  -0.704   3.248   6.332 -0.1434 -0.1185 -3.3290
   99SAPE  H16S 9971  -0.612   3.088   6.281 -1.7485 -2.5388 -2.8222
   99SAPE  C217 9972  -0.707   3.094   6.478 -0.9467  0.4488  0.4389
   99SAPE  H17R 9973  -0.663   2.993   6.495 -1.6496  0.0735  0.0884
   99SAPE  H17S 9974  -0.816   3.079   6.499 -2.1618  3.8362 -2.5414
   99SAPE  C218 9975  -0.651   3.202   6.570 -0.0520  0.0779 -0.4474
   99SAPE  H18R 9976  -0.675   3.163   6.672 -2.5510  0.9117 -0.6530
   99SAPE  H18S 9977  -0.704   3.297   6.549  1.0033  1.1586  1.4226
   99SAPE  C219 9978  -0.498   3.222   6.570  0.7316 -0.4806  0.3619
   99SAPE  H19R 9979  -0.475   3.317   6.623 -0.1028 -0.5215  0.8154
   99SAPE  H19S 9980  -0.467   3.220   6.463 -0.5681 -1.4811 -0.0323
   99SAPE  C220 9981  -0.421   3.110   6.633  0.3812  0.5306  0.0303
   99SAPE  H20R 9982  -0.420   3.027   6.560  1.1857  0.1623  0.4449
   99SAPE  H20S 9983  -0.459   3.081   6.733  0.1183  2.0889  0.4124
   99SAPE  H20T 9984  -0.311   3.126   6.632  0.8558 -2.2090 -0.7171
   99SAPE   C33 9985   0.219   3.320   6.175  0.5012  0.6706 -0.8604
   99SAPE   H3X 9986   0.238   3.259   6.085 -0.8219  0.4239 -0.9949
   99SAPE   H3Y 9987   0.222   3.425   6.138  0.3414  1.7310  1.8494
   99SAPE   C34 9988   0.079   3.264   6.214 -0.5619 -0.0365  0.4359
   99SAPE   H4X 9989   0.057   3.294   6.318 -0.6438  0.8789  0.1687
   99SAPE   H4Y 9990   0.081   3.153   6.213 -1.8284 -0.0703 -0.3504
   99SAPE   C35 9991  -0.040   3.306   6.122  0.1168  0.2073 -0.1149
   99SAPE   H5X 9992  -0.022   3.255   6.025  0.4818  1.1308 -0.5388
   99SAPE   H5Y 9993  -0.025   3.411   6.090 -1.8567  0.5997  0.1630
   99SAPE   C36 9994  -0.186   3.283   6.173  0.0559  0.5030  0.1504
   99SAPE   H6X 9995  -0.209   3.339   6.266 -1.6336  0.1397 -0.0217
   99SAPE   H6Y 9996  -0.175   3.173   6.185 -0.4515  0.2267 -1.6794
   99SAPE   C37 9997  -0.291   3.301   6.060 -0.2969  0.2568 -0.0561
   99SAPE   H7X 9998  -0.234   3.288   5.966  0.1746 -1.6158  0.4327
   99SAPE   H7Y 9999  -0.334   3.403   6.066 -1.4100 -0.2091  0.0277
   99SAPE   C3810000  -0.398   3.191   6.073 -0.3467 -0.3750  0.1729
   99SAPE   H8X10001  -0.455   3.205   6.167  1.0460  0.8674  0.8732
   99SAPE   H8Y10002  -0.351   3.094   6.102 -0.6727 -1.1266 -1.6481
   99SAPE   C3910003  -0.490   3.172   5.958  0.5167  0.1131  0.4008
   99SAPE   H9X10004  -0.560   3.258   5.959  1.3755  0.8249  2.1424
   99SAPE   H9Y10005  -0.550   3.082   5.984  2.3894 -0.9936  1.1034
   99SAPE  C31010006  -0.411   3.162   5.817 -0.6609 -0.1226 -0.4248
   99SAPE  H10X10007  -0.360   3.259   5.805 -1.1263  0.0095 -1.4258
   99SAPE  H10Y10008  -0.486   3.147   5.737 -1.6402 -1.0727  0.6275
   99SAPE  C31110009  -0.307   3.051   5.809  0.1257 -0.7224  0.1143
   99SAPE  H11X10010  -0.363   2.957   5.825  0.5652 -0.7451  1.7111
   99SAPE  H11Y10011  -0.237   3.070   5.893  1.0406  0.4571 -0.8672
   99SAPE  C31210012  -0.238   3.067   5.672 -0.3297 -0.3274  0.2644
   99SAPE  H12X10013  -0.284   3.146   5.609  0.1979 -0.8707 -0.8352
   99SAPE  H12Y10014  -0.265   2.982   5.607 -0.7496 -0.7993  1.0407
   99SAPE  C31310015  -0.091   3.088   5.684 -0.3685 -0.1806 -0.3151
   99SAPE  H13X10016  -0.053   2.986   5.708 -0.6455 -0.0516  0.7163
   99SAPE  H13Y10017  -0.072   3.156   5.770  2.1260 -0.3482 -0.6694
   99SAPE  C31410018  -0.022   3.145   5.556 -0.0101  1.0159  0.4524
   99SAPE  H14X10019   0.065   3.204   5.592  1.2612  0.2867 -1.2741
   99SAPE  H14Y10020  -0.105   3.203   5.510 -1.1993  0.4212  1.7828
   99SAPE  C31510021   0.030   3.044   5.453  0.5395  0.5629  0.1960
   99SAPE  H15X10022   0.045   2.947   5.506  0.1307  1.3495  1.8168
   99SAPE  H15Y10023   0.132   3.075   5.423  0.9873 -1.5633 -0.6630
   99SAPE  C31610024  -0.058   3.021   5.329 -0.1693  0.6621  0.0698
   99SAPE  H16X10025  -0.158   2.992   5.367 -0.7264  1.9292 -0.3706
   99SAPE  H16Y10026  -0.013   2.932   5.280  1.1954  0.5407  1.4713
   99SAPE  C31710027  -0.063   3.137   5.228 -0.5305 -0.5150  0.2926
   99SAPE  H17X10028   0.042   3.148   5.193 -1.2794  0.0800 -1.9837
   99SAPE  H17Y10029  -0.090   3.231   5.282  0.7063 -0.2595  0.4910
   99SAPE  C31810030  -0.153   3.120   5.102  0.1330  0.1185  0.6311
   99SAPE  H18X10031  -0.182   3.218   5.058 -1.7433 -0.6277  0.0946
   99SAPE  H18Y10032  -0.250   3.071   5.126 -0.1266  0.7651  0.9304
   99SAPE  H18Z10033  -0.099   3.059   5.027  0.0623 -0.7859  1.3005
  100SAPE     N10034   2.542   1.467   6.964 -0.6355 -0.4900 -0.1988
  100SAPE   HN110035   2.548   1.468   7.067 -1.9357  1.8320 -0.0938
  100SAPE   HN210036   2.489   1.388   6.922  1.3621 -1.0986 -1.7465
  100SAPE   HN310037   2.642   1.468   6.934 -0.7303  3.0715 -0.8187
  100SAPE   C1210038   2.510   1.607   6.916 -0.5127  0.7902  1.1881
  100SAPE  H12A10039   2.399   1.616   6.921 -0.5374  0.6455  0.9168
  100SAPE  H12B10040   2.538   1.635   6.812 -2.5835 -0.0992  0.3447
  100SAPE   C1110041   2.560   1.700   7.019 -1.2136  0.4743  0.2480
  100SAPE  H11A10042   2.530   1.667   7.121  0.9085 -1.0811  0.4286
  100SAPE  H11B10043   2.518   1.802   7.010 -1.5223  0.3179 -0.0907
  100SAPE     P10044   2.775   1.799   7.113  0.1417 -0.1603  0.4414
  100SAPE   O1310045   2.685   1.914   7.148  0.5672  0.0593 -0.2510
  100SAPE   O1410046   2.816   1.729   7.238  0.2672 -0.0647  0.3497
  100SAPE   O1210047   2.702   1.699   7.010  0.1452  0.2482  0.5874
  100SAPE   O1110048   2.900   1.853   7.032 -0.5370  0.4900 -0.2295
  100SAPE    C110049   2.879   1.882   6.894 -0.3522 -0.1833 -0.4942
  100SAPE    HA10050   2.772   1.907   6.877 -0.9252 -0.8514  1.7717
  100SAPE    HB10051   2.941   1.970   6.866  0.3551 -0.7835 -0.8518
  100SAPE    C210052   2.926   1.766   6.800 -0.5444 -0.1380 -0.0769
  100SAPE    HS10053   2.849   1.686   6.793 -0.0691 -0.5082 -1.6340
  100SAPE   O2110054   3.044   1.712   6.856 -0.4176  0.2067 -0.4913
  100SAPE   C2110055   3.068   1.576   6.851 -0.9527 -0.3438  0.2655
  100SAPE   O2210056   2.993   1.495   6.799  0.2175  0.7578  0.1982
  100SAPE   C2210057   3.196   1.544   6.926 -0.1186 -0.3676  0.1502
  100SAPE   H2R10058   3.273   1.602   6.872 -1.5201  0.5829 -0.9221
  100SAPE   H2S10059   3.182   1.600   7.021  2.7869  1.9251 -0.6471
  100SAPE    C310060   2.950   1.811   6.653 -0.0632  0.0577 -0.1448
  100SAPE    HX10061   3.005   1.739   6.588  0.3582  0.4495 -0.2317
  100SAPE    HY10062   3.020   1.897   6.662  0.2120 -0.0057 -1.4351
  100SAPE   O3110063   2.837   1.869   6.585  0.2727  0.0374  0.0345
  100SAPE   C3110064   2.754   1.772   6.525  0.0130  0.8200 -0.2135
  100SAPE   O3210065   2.764   1.648   6.539 -0.0495 -0.1172 -0.0279
  100SAPE   C3210066   2.656   1.831   6.423 -0.1291 -0.2557 -0.5229
  100SAPE   H2X10067   2.639   1.937   6.451  2.6191 -0.1783  1.2944
  100SAPE   H2Y10068   2.569   1.762   6.426  0.3970 -0.9348 -0.7317
  100SAPE   C2310069   3.234   1.398   6.932 -0.4699 -0.1819 -0.5965
  100SAPE   H3R10070   3.150   1.343   6.981 -0.9937 -0.3400 -1.6269
  100SAPE   H3S10071   3.321   1.389   7.000 -0.7104 -1.5590 -0.4267
  100SAPE   C2410072   3.260   1.334   6.791 -0.1904  0.6048 -0.0953
  100SAPE   H4R10073   3.167   1.312   6.735  0.7187 -2.0085 -0.7308
  100SAPE   H4S10074   3.294   1.229   6.808 -1.0705  0.2421 -0.5499
  100SAPE   C2510075   3.366   1.411   6.706  0.4961  0.7182 -1.1803
  100SAPE   H5R10076   3.468   1.414   6.749 -0.0962  1.9620  0.2448
  100SAPE   C2610077   3.343   1.458   6.589 -0.7335 -0.2449 -0.1284
  100SAPE   H6R10078   3.420   1.513   6.533 -0.8697 -1.2318 -1.3185
  100SAPE   C2710079   3.206   1.445   6.521 -0.4031  0.3375 -0.1044
  100SAPE   H7R10080   3.119   1.466   6.586 -0.0908 -1.8819  1.1279
  100SAPE   H7S10081   3.193   1.346   6.471  2.0202  0.9140 -2.0667
  100SAPE   C2810082   3.202   1.547   6.413  0.1694  0.6130  1.3190
  100SAPE   H8R10083   3.263   1.636   6.431  1.0744  0.5625 -1.1581
  100SAPE   C2910084   3.149   1.531   6.289 -0.1688 -0.8641 -0.1324
  100SAPE   H9R10085   3.162   1.614   6.219  1.8640 -1.9451 -1.1359
  100SAPE  C21010086   3.060   1.421   6.239 -0.6916 -0.1135 -0.0985
  100SAPE  H10R10087   3.072   1.326   6.295 -0.6174 -0.0008  0.0769
  100SAPE  H10S10088   3.099   1.400   6.137  1.1464  0.6495  0.4100
  100SAPE  C21110089   2.912   1.460   6.228 -0.5558 -0.4187  0.0951
  100SAPE  H11R10090   2.867   1.473   6.328 -1.7338  0.0248 -0.4671
  100SAPE  C21210091   2.829   1.471   6.116 -0.1341  0.1125 -0.0655
  100SAPE  H12R10092   2.725   1.494   6.145 -0.1827  0.0727 -0.2099
  100SAPE  C21310093   2.855   1.453   5.968 -0.0750 -0.4084 -0.2889
  100SAPE  H13R10094   2.811   1.360   5.927 -0.7731  0.3765 -1.3496
  100SAPE  H13S10095   2.964   1.437   5.955 -0.1612 -0.9638 -0.3566
  100SAPE  C21410096   2.809   1.564   5.872 -0.2475  0.9716 -0.1125
  100SAPE  H14R10097   2.852   1.662   5.896 -0.9544  1.1817  0.3358
  100SAPE  C21510098   2.747   1.540   5.750  0.4012 -0.5827  0.3676
  100SAPE  H15R10099   2.732   1.628   5.686  1.3647 -1.6642 -1.4257
  100SAPE  C21610100   2.683   1.413   5.702 -0.0479 -0.1337  0.3403
  100SAPE  H16R10101   2.592   1.427   5.641  0.0183 -1.7938 -0.1814
  100SAPE  H16S10102   2.665   1.348   5.791  0.3300  0.3994  0.8155
  100SAPE  C21710103   2.763   1.327   5.600  1.1884 -0.4315 -0.4005
  100SAPE  H17R10104   2.772   1.394   5.512  1.3273  1.4428  0.9725
  100SAPE  H17S10105   2.697   1.246   5.565 -1.0461  1.0102  0.2984
  100SAPE  C21810106   2.900   1.280   5.649 -0.4658 -0.0740  0.0515
  100SAPE  H18R10107   2.893   1.235   5.750  0.7409  0.4244  0.3796
  100SAPE  H18S10108   2.965   1.368   5.668 -4.0848  2.7264  0.6554
  100SAPE  C21910109   2.969   1.184   5.550 -0.8498  0.5326 -0.1934
  100SAPE  H19R10110   2.916   1.086   5.560  2.5552 -1.3138  1.7192
  100SAPE  H19S10111   3.070   1.148   5.582 -1.4645  0.6802  2.0802
  100SAPE  C22010112   2.973   1.225   5.407  0.1242 -0.2060  0.0582
  100SAPE  H20R10113   3.019   1.150   5.339 -0.9809  0.6033 -1.6598
  100SAPE  H20S10114   3.024   1.322   5.393 -1.1463  0.5518  0.5254
  100SAPE  H20T10115   2.874   1.255   5.366  0.9177  2.2938 -0.1560
  100SAPE   C3310116   2.701   1.837   6.274  0.0272 -0.0051 -0.2031
  100SAPE   H3X10117   2.621   1.881   6.211 -1.0436 -0.7452  0.6089
  100SAPE   H3Y10118   2.718   1.738   6.225 -1.8523  1.1303 -3.4520
  100SAPE   C3410119   2.826   1.916   6.252  0.4584 -0.0394 -0.2978
  100SAPE   H4X10120   2.907   1.873   6.315  1.1379 -2.1700 -2.4739
  100SAPE   H4Y10121   2.801   2.021   6.276  0.6504  0.0486 -0.4902
  100SAPE   C3510122   2.869   1.897   6.101  0.3294  0.3172  0.6024
  100SAPE   H5X10123   2.780   1.923   6.039 -0.3425 -1.1626  0.8869
  100SAPE   H5Y10124   2.890   1.789   6.087 -2.7253 -0.4325  1.1195
  100SAPE   C3610125   2.989   1.980   6.068  0.0384 -0.0264  0.2348
  100SAPE   H6X10126   3.075   1.940   6.126 -1.0685 -1.0687  1.2160
  100SAPE   H6Y10127   2.975   2.085   6.103  1.1197  0.7030 -1.4005
  100SAPE   C3710128   3.023   1.989   5.918 -0.4756 -1.0943 -0.0532
  100SAPE   H7X10129   2.926   1.990   5.864 -0.5618 -0.4248  0.1070
  100SAPE   H7Y10130   3.076   1.898   5.884 -1.5981 -1.5224 -0.7105
  100SAPE   C3810131   3.106   2.107   5.881 -0.5785  0.7466 -0.6880
  100SAPE   H8X10132   3.192   2.104   5.951 -2.6212  2.3173  2.1162
  100SAPE   H8Y10133   3.041   2.194   5.904 -0.5129  0.2033  1.8442
  100SAPE   C3910134   3.155   2.109   5.735 -0.2796  0.1506  0.2151
  100SAPE   H9X10135   3.215   2.019   5.709 -2.8263 -1.7833  0.6072
  100SAPE   H9Y10136   3.228   2.191   5.720 -0.3393  0.1234 -0.2363
  100SAPE  C31010137   3.047   2.134   5.627  0.2072  0.2085 -0.6997
  100SAPE  H10X10138   3.010   2.239   5.633 -3.1193 -0.7262 -2.3260
  100SAPE  H10Y10139   2.963   2.069   5.658  0.2549  0.2848 -0.4073
  100SAPE  C31110140   3.084   2.113   5.485  0.2149  0.4259 -0.3611
  100SAPE  H11X10141   2.989   2.107   5.429  0.3918  0.8876 -0.7174
  100SAPE  H11Y10142   3.139   2.017   5.474  0.4281  0.5874 -0.7293
  100SAPE  C31210143   3.173   2.227   5.430 -1.3151 -0.0417 -0.1474
  100SAPE  H12X10144   3.268   2.231   5.488 -1.1494  1.0208 -0.4766
  100SAPE  H12Y10145   3.127   2.328   5.441  0.8293  0.8957  0.9956
  100SAPE  C31310146   3.221   2.200   5.284 -0.0795  1.4395 -0.5106
  100SAPE  H13X10147   3.139   2.223   5.212 -0.3683 -1.7532 -1.3339
  100SAPE  H13Y10148   3.227   2.089   5.285  2.2579  1.5175  0.8392
  100SAPE  C31410149   3.354   2.242   5.238  0.3527 -0.6476  0.0752
  100SAPE  H14X10150   3.396   2.172   5.162 -0.4325 -0.2424 -0.7450
  100SAPE  H14Y10151   3.425   2.231   5.323 -0.0194  0.2802  0.5154
  100SAPE  C31510152   3.358   2.388   5.183 -0.0177  0.3834  0.1889
  100SAPE  H15X10153   3.326   2.450   5.270  0.0591 -1.8704  1.9255
  100SAPE  H15Y10154   3.280   2.394   5.105 -0.1215 -0.7554  0.1924
  100SAPE  C31610155   3.497   2.421   5.118  0.2595 -0.0627 -0.2906
  100SAPE  H16X10156   3.518   2.344   5.042 -0.6581  0.5711 -1.2045
  100SAPE  H16Y10157   3.584   2.419   5.188  0.7932  0.3308 -0.9333
  100SAPE  C31710158   3.492   2.552   5.045 -0.2847 -0.4125  0.3826
  100SAPE  H17X10159   3.480   2.643   5.108  0.0269  0.9030 -1.3931
  100SAPE  H17Y10160   3.406   2.540   4.977  1.1057 -0.6704 -1.4082
  100SAPE  C31810161   3.625   2.570   4.957 -0.5804  0.3712 -0.2145
  100SAPE  H18X10162   3.634   2.679   4.936  3.1401  0.3063  0.2896
  100SAPE  H18Y10163   3.623   2.499   4.872 -0.3830 -1.9812  1.6514
  100SAPE  H18Z10164   3.714   2.553   5.021 -0.7234 -3.4261 -0.8459
  101SAPE     N10165   5.753   2.346   6.918 -0.5261 -0.0655 -0.5037
  101SAPE   HN110166   5.696   2.317   7.000  0.7482  0.4096  0.5866
  101SAPE   HN210167   5.766   2.268   6.851 -2.2365  0.2735 -1.2991
  101SAPE   HN310168   5.845   2.379   6.951 -1.0881  0.0343  1.0338
  101SAPE   C1210169   5.671   2.452   6.847 -0.0371 -0.7706  0.2362
  101SAPE  H12A10170   5.565   2.421   6.830 -1.1661  1.8350  1.7519
  101SAPE  H12B10171   5.720   2.493   6.756 -3.2513  1.0564 -0.8356
  101SAPE   C1110172   5.653   2.574   6.942  0.3782  0.2816  1.6694
  101SAPE  H11A10173   5.562   2.623   6.902  0.4772  0.5036  1.7139
  101SAPE  H11B10174   5.742   2.642   6.939  0.2277  0.5430 -2.4059
  101SAPE     P10175   5.607   2.619   7.196 -0.1263 -0.2960  0.0075
  101SAPE   O1310176   5.578   2.533   7.311  0.1118 -0.0313  0.3688
  101SAPE   O1410177   5.709   2.725   7.215  0.0496  0.2938 -0.1982
  101SAPE   O1210178   5.639   2.524   7.075  0.1881  1.3605 -0.6750
  101SAPE   O1110179   5.475   2.689   7.151 -0.1193  0.0359  0.7629
  101SAPE    C110180   5.369   2.591   7.118 -0.4623  0.2067  0.0135
  101SAPE    HA10181   5.405   2.495   7.076 -0.4159  0.3008 -0.1636
  101SAPE    HB10182   5.320   2.572   7.217 -0.5493 -0.9248 -0.2327
  101SAPE    C210183   5.252   2.652   7.025 -0.2760 -0.3501 -0.0730
  101SAPE    HS10184   5.165   2.583   7.025 -0.8055  0.3012  0.1862
  101SAPE   O2110185   5.314   2.672   6.893  0.3228 -0.1751  0.0665
  101SAPE   C2110186   5.234   2.693   6.789 -0.5808 -0.2564 -0.6962
  101SAPE   O2210187   5.117   2.666   6.784 -0.4998  0.1185 -0.3528
  101SAPE   C2210188   5.317   2.769   6.684  0.5003  0.2560  0.1278
  101SAPE   H2R10189   5.351   2.866   6.727  0.8209 -0.0552  0.5825
  101SAPE   H2S10190   5.409   2.716   6.652  0.5696 -0.0569  0.8337
  101SAPE    C310191   5.203   2.775   7.086  0.9359  0.2461  0.0514
  101SAPE    HX10192   5.290   2.839   7.110  1.4136 -0.0066 -0.9449
  101SAPE    HY10193   5.171   2.735   7.184  1.7236  1.2564  0.7382
  101SAPE   O3110194   5.101   2.862   7.013 -0.5958 -0.8156 -0.2221
  101SAPE   C3110195   4.973   2.817   7.023 -0.8732 -0.0186  0.0769
  101SAPE   O3210196   4.940   2.713   7.081 -0.5222  0.8584  0.6966
  101SAPE   C3210197   4.872   2.916   6.965 -0.1883 -0.0183 -0.4081
  101SAPE   H2X10198   4.911   3.020   6.961 -0.8377  0.2074 -1.4068
  101SAPE   H2Y10199   4.781   2.921   7.029 -0.3616  0.6610 -0.6929
  101SAPE   C2310200   5.232   2.782   6.556 -0.6816  0.3711  0.5808
  101SAPE   H3R10201   5.271   2.866   6.494  2.3602 -1.6528 -0.5077
  101SAPE   H3S10202   5.127   2.803   6.586 -1.1228 -1.2791  0.2809
  101SAPE   C2410203   5.240   2.652   6.470  0.3515  0.1027  0.0680
  101SAPE   H4R10204   5.340   2.652   6.423  0.9801  1.0610  1.3471
  101SAPE   H4S10205   5.168   2.677   6.389  0.9835  1.8952  0.0093
  101SAPE   C2510206   5.213   2.523   6.536 -0.6320 -0.2197 -0.3715
  101SAPE   H5R10207   5.109   2.509   6.568 -0.7886  0.1220 -0.7133
  101SAPE   C2610208   5.309   2.426   6.561  0.0414 -0.5882  0.4556
  101SAPE   H6R10209   5.288   2.334   6.617 -0.2918 -0.6487  0.2324
  101SAPE   C2710210   5.455   2.435   6.516  0.7136 -0.9239 -0.1444
  101SAPE   H7R10211   5.523   2.413   6.602  1.6460 -0.0776 -0.6446
  101SAPE   H7S10212   5.486   2.533   6.474  2.8612 -1.0551  0.9353
  101SAPE   C2810213   5.484   2.328   6.410  0.4512 -0.3383 -0.6309
  101SAPE   H8R10214   5.509   2.231   6.455 -1.3881 -1.3544 -1.6555
  101SAPE   C2910215   5.504   2.348   6.280  0.2407 -0.7612  0.4649
  101SAPE   H9R10216   5.526   2.263   6.214 -2.4411  0.2395 -1.9304
  101SAPE  C21010217   5.490   2.476   6.196 -0.4072  0.0631 -0.3699
  101SAPE  H10R10218   5.556   2.456   6.109 -0.0397 -1.3835  0.2052
  101SAPE  H10S10219   5.539   2.561   6.247  0.6808 -0.9861  0.3688
  101SAPE  C21110220   5.348   2.509   6.152  0.1277  0.2934  0.5804
  101SAPE  H11R10221   5.266   2.477   6.218  0.0506  2.8195  1.8526
  101SAPE  C21210222   5.318   2.556   6.030  0.0398  0.4835 -0.2368
  101SAPE  H12R10223   5.214   2.576   5.998  0.3696  0.5138 -1.3386
  101SAPE  C21310224   5.419   2.577   5.918 -0.3738  0.4671  0.3526
  101SAPE  H13R10225   5.520   2.601   5.956 -0.7125  3.6015 -0.4467
  101SAPE  H13S10226   5.379   2.656   5.850 -0.2211 -0.4749 -0.8521
  101SAPE  C21410227   5.437   2.450   5.840 -0.3173  0.4810  0.2632
  101SAPE  H14R10228   5.510   2.383   5.889  0.2854  1.3696  0.6112
  101SAPE  C21510229   5.372   2.417   5.727 -0.6587 -0.1416  0.8129
  101SAPE  H15R10230   5.389   2.320   5.678 -4.3343  0.8949 -3.1599
  101SAPE  C21610231   5.262   2.493   5.653 -0.1007 -0.2502 -0.1354
  101SAPE  H16R10232   5.229   2.579   5.716 -1.1287 -2.2315  2.1823
  101SAPE  H16S10233   5.172   2.432   5.632  0.7539 -1.7286  0.3637
  101SAPE  C21710234   5.301   2.563   5.527  0.0009  0.0278 -0.1943
  101SAPE  H17R10235   5.331   2.478   5.461 -0.6178 -0.2291 -0.1536
  101SAPE  H17S10236   5.391   2.629   5.533  0.6951 -0.8334 -0.8194
  101SAPE  C21810237   5.184   2.638   5.466 -0.4074 -0.7617  0.2443
  101SAPE  H18R10238   5.151   2.711   5.543  0.5451 -0.7057  0.6088
  101SAPE  H18S10239   5.105   2.567   5.434 -0.3676 -0.5987 -0.2296
  101SAPE  C21910240   5.232   2.718   5.341  0.6010 -0.2410  0.3191
  101SAPE  H19R10241   5.139   2.778   5.329 -1.1281 -2.1161  3.3312
  101SAPE  H19S10242   5.246   2.655   5.250  1.0574 -0.1797  0.3394
  101SAPE  C22010243   5.349   2.812   5.357  0.1295  0.2092 -0.8237
  101SAPE  H20R10244   5.368   2.833   5.465  2.1194 -0.3103 -1.0220
  101SAPE  H20S10245   5.322   2.905   5.303  1.5261 -0.1096 -2.1409
  101SAPE  H20T10246   5.444   2.772   5.314  1.0951  2.4542 -0.9422
  101SAPE   C3310247   4.830   2.869   6.827 -0.2786  0.0224 -1.0218
  101SAPE   H3X10248   4.723   2.872   6.799 -0.8217 -0.2533  0.8720
  101SAPE   H3Y10249   4.862   2.762   6.822  2.1830  0.6631 -0.3596
  101SAPE   C3410250   4.897   2.948   6.719  0.2060 -0.7811 -0.1003
  101SAPE   H4X10251   5.008   2.947   6.722  0.2196  0.3350  0.2645
  101SAPE   H4Y10252   4.863   3.053   6.729 -0.2927 -0.6413 -2.5746
  101SAPE   C3510253   4.861   2.883   6.583  0.4737  0.7481  0.1342
  101SAPE   H5X10254   4.751   2.884   6.572  0.4101 -1.1525  0.3112
  101SAPE   H5Y10255   4.886   2.776   6.595 -0.3141  0.4105 -1.1020
  101SAPE   C3610256   4.926   2.938   6.458  0.1451  0.7728  0.3340
  101SAPE   H6X10257   5.034   2.954   6.475 -0.3536  1.5064  3.2708
  101SAPE   H6Y10258   4.885   3.040   6.441 -0.8568  0.1896 -1.0441
  101SAPE   C3710259   4.897   2.846   6.342 -0.0656  0.2196  0.8491
  101SAPE   H7X10260   4.787   2.836   6.336 -0.2361  2.2524 -0.5273
  101SAPE   H7Y10261   4.942   2.747   6.363  0.2427 -0.4225 -2.4008
  101SAPE   C3810262   4.939   2.895   6.209 -0.3040  0.1914  0.0577
  101SAPE   H8X10263   5.048   2.913   6.200 -0.3292 -0.2812 -1.4911
  101SAPE   H8Y10264   4.888   2.991   6.184  1.6604  1.8523  2.0312
  101SAPE   C3910265   4.915   2.791   6.096  0.6511 -0.7659 -0.2941
  101SAPE   H9X10266   4.807   2.767   6.093 -0.1748  2.4499 -3.4478
  101SAPE   H9Y10267   4.973   2.698   6.117 -1.8708 -2.4393 -0.3212
  101SAPE  C31010268   4.959   2.853   5.961  0.4336  0.3976 -0.1611
  101SAPE  H10X10269   5.067   2.875   5.961  0.9352 -1.7222 -2.1280
  101SAPE  H10Y10270   4.905   2.949   5.943 -0.9751 -0.0820  1.1881
  101SAPE  C31110271   4.930   2.756   5.839 -0.7850  0.3318 -0.6403
  101SAPE  H11X10272   4.829   2.712   5.852 -0.2916 -0.9175 -0.8557
  101SAPE  H11Y10273   4.991   2.663   5.832 -1.7930 -0.2966 -1.4273
  101SAPE  C31210274   4.943   2.827   5.704  0.4012  0.6295  1.1604
  101SAPE  H12X10275   5.046   2.850   5.670  0.4394 -2.3505 -1.1372
  101SAPE  H12Y10276   4.878   2.917   5.699  0.0989  0.5187  2.6490
  101SAPE  C31310277   4.890   2.739   5.593 -0.0431  0.0221 -1.1384
  101SAPE  H13X10278   4.791   2.709   5.634  0.9999  1.1508  2.5814
  101SAPE  H13Y10279   4.961   2.654   5.588  2.2396  1.8742 -1.3939
  101SAPE  C31410280   4.870   2.804   5.457  0.1076 -0.3198  0.2305
  101SAPE  H14X10281   4.972   2.837   5.430 -0.9872  3.2756  0.0777
  101SAPE  H14Y10282   4.809   2.893   5.480  0.5699  0.1145 -0.2200
  101SAPE  C31510283   4.822   2.703   5.355 -0.1500  0.6041  0.4473
  101SAPE  H15X10284   4.724   2.660   5.388 -0.0492  0.2352  0.2677
  101SAPE  H15Y10285   4.887   2.614   5.346 -1.9848 -0.9250  1.3320
  101SAPE  C31610286   4.815   2.766   5.213  0.4366  0.3414  0.1792
  101SAPE  H16X10287   4.918   2.779   5.173 -0.1283 -0.4679 -1.7008
  101SAPE  H16Y10288   4.775   2.869   5.205 -1.4736 -0.4706 -2.2458
  101SAPE  C31710289   4.750   2.684   5.107 -0.0142  0.4857 -0.1907
  101SAPE  H17X10290   4.639   2.684   5.114 -0.0474 -2.1034  0.5821
  101SAPE  H17Y10291   4.783   2.578   5.103 -3.7149 -0.9555  1.7129
  101SAPE  C31810292   4.795   2.747   4.970 -0.7341  0.0743 -0.7583
  101SAPE  H18X10293   4.745   2.694   4.886 -1.4571 -0.4931  0.0069
  101SAPE  H18Y10294   4.902   2.741   4.942 -1.1689 -1.3893 -2.2478
  101SAPE  H18Z10295   4.763   2.853   4.968  1.9105  1.0499  1.5565
  102SAPE     N10296   4.101   2.000   7.102 -0.4835 -0.1133 -0.1660
  102SAPE   HN110297   4.099   1.948   7.011 -1.7143 -0.9852  0.3318
  102SAPE   HN210298   4.167   2.080   7.094 -2.3468  1.3154 -3.1431
  102SAPE   HN310299   4.139   1.942   7.179 -1.7333  0.7715  1.1493
  102SAPE   C1210300   3.962   2.026   7.138  0.7528  0.0092  0.6566
  102SAPE  H12A10301   3.954   2.057   7.244  0.0079  1.3794  0.2183
  102SAPE  H12B10302   3.907   1.929   7.127  0.0162  0.6367 -1.8738
  102SAPE   C1110303   3.910   2.125   7.040 -0.0307  0.0601  0.6531
  102SAPE  H11A10304   3.805   2.155   7.061 -0.1885  0.3018 -0.4348
  102SAPE  H11B10305   3.906   2.075   6.941 -0.1138  1.1460  0.1002
  102SAPE     P10306   4.000   2.330   7.160 -0.0271 -0.1074  0.4529
  102SAPE   O1310307   3.863   2.331   7.213  0.3870  0.1581 -0.8771
  102SAPE   O1410308   4.099   2.280   7.264  0.6620  0.3576  0.2997
  102SAPE   O1210309   4.000   2.238   7.031 -0.3966  0.1435 -0.1612
  102SAPE   O1110310   4.048   2.477   7.110  0.4687 -0.0207  0.1261
  102SAPE    C110311   3.996   2.524   6.979 -0.2523  0.2218 -0.1030
  102SAPE    HA10312   3.894   2.486   6.957 -0.0934 -1.3121  1.5259
  102SAPE    HB10313   3.974   2.632   6.992  0.7865  0.4289 -0.0391
  102SAPE    C210314   4.098   2.506   6.856  0.6028 -0.0386 -0.1014
  102SAPE    HS10315   4.131   2.400   6.859 -0.7393 -0.4542  1.0731
  102SAPE   O2110316   4.208   2.586   6.886 -0.3719  0.7497  0.0668
  102SAPE   C2110317   4.323   2.550   6.828  0.4426  0.2390 -0.1712
  102SAPE   O2210318   4.337   2.460   6.745 -0.4945  0.2188  0.3214
  102SAPE   C2210319   4.445   2.638   6.861  0.9970  0.6336 -0.0998
  102SAPE   H2R10320   4.462   2.639   6.971 -0.0924  1.8184  0.0681
  102SAPE   H2S10321   4.537   2.591   6.818  1.8376  2.1156  0.0219
  102SAPE    C310322   4.027   2.535   6.721 -0.0886  0.1600  0.5213
  102SAPE    HX10323   4.094   2.498   6.641  0.0336 -1.3644  1.2808
  102SAPE    HY10324   4.014   2.644   6.703  1.0857  0.1584 -0.4319
  102SAPE   O3110325   3.907   2.464   6.709 -0.2687  0.3417  0.0862
  102SAPE   C3110326   3.922   2.330   6.691 -0.8005  0.0716 -0.3176
  102SAPE   O3210327   4.028   2.268   6.696  0.3816  0.7884  0.2984
  102SAPE   C3210328   3.787   2.269   6.670 -0.2838  0.3621  0.5967
  102SAPE   H2X10329   3.724   2.343   6.615  0.9017 -0.3382 -1.8594
  102SAPE   H2Y10330   3.756   2.236   6.771  0.3847  0.2962  0.7806
  102SAPE   C2310331   4.427   2.784   6.828  0.2091 -0.4548 -0.1834
  102SAPE   H3R10332   4.501   2.845   6.884 -1.0867 -1.2616  2.6243
  102SAPE   H3S10333   4.323   2.810   6.857  1.1108 -0.0070  3.1529
  102SAPE   C2410334   4.456   2.801   6.671 -1.0696  0.1171 -0.6273
  102SAPE   H4R10335   4.371   2.750   6.622 -0.7923 -0.1422 -0.8387
  102SAPE   H4S10336   4.556   2.762   6.642 -0.6305  1.1869 -0.6163
  102SAPE   C2510337   4.450   2.946   6.640 -0.0445 -0.1754 -0.0318
  102SAPE   H5R10338   4.407   3.017   6.713 -1.2776  0.2950 -1.1706
  102SAPE   C2610339   4.475   3.001   6.515  0.1396 -0.5751 -0.0270
  102SAPE   H6R10340   4.473   3.110   6.503 -3.0039 -0.5746 -0.3061
  102SAPE   C2710341   4.520   2.934   6.390 -0.4402  0.1771 -0.4967
  102SAPE   H7R10342   4.561   2.833   6.412 -0.3359  0.5155  0.9433
  102SAPE   H7S10343   4.599   3.001   6.350 -1.2747  1.5898  0.1524
  102SAPE   C2810344   4.404   2.926   6.294  0.3761  0.8406  0.4615
  102SAPE   H8R10345   4.343   3.018   6.290  0.0202  0.6126  0.6428
  102SAPE   C2910346   4.369   2.831   6.205 -0.6916  0.3662 -0.1080
  102SAPE   H9R10347   4.279   2.852   6.146 -0.8781  1.4349  0.5412
  102SAPE  C21010348   4.449   2.708   6.180  0.3089 -0.3392 -0.1361
  102SAPE  H10R10349   4.513   2.682   6.267 -0.4265  0.7259  0.7483
  102SAPE  H10S10350   4.516   2.720   6.092 -0.5765 -2.6198 -1.1981
  102SAPE  C21110351   4.366   2.587   6.145 -0.0618 -0.5350 -0.0413
  102SAPE  H11R10352   4.342   2.527   6.234 -0.1808  2.2100  1.9145
  102SAPE  C21210353   4.329   2.545   6.020  0.1201 -0.6945  0.0908
  102SAPE  H12R10354   4.274   2.450   6.011 -0.3958 -0.8619  3.5850
  102SAPE  C21310355   4.342   2.635   5.899  0.1496 -0.3629  0.2411
  102SAPE  H13R10356   4.355   2.741   5.929 -1.9980  0.1351 -0.4197
  102SAPE  H13S10357   4.242   2.634   5.850 -0.7414  1.6080  1.8475
  102SAPE  C21410358   4.443   2.592   5.797  0.5448 -0.5483 -0.2404
  102SAPE  H14R10359   4.466   2.484   5.801 -2.2825 -1.2101  1.6578
  102SAPE  C21510360   4.519   2.679   5.722 -0.1507 -0.4348 -0.3157
  102SAPE  H15R10361   4.599   2.641   5.657 -0.2715  1.6268 -1.7557
  102SAPE  C21610362   4.512   2.831   5.725 -0.5700  1.0519 -0.0461
  102SAPE  H16R10363   4.587   2.865   5.800 -1.3522  1.3130  0.6313
  102SAPE  H16S10364   4.409   2.866   5.747 -0.3387  0.9091  1.3959
  102SAPE  C21710365   4.533   2.900   5.594  0.6728 -0.4481 -0.1737
  102SAPE  H17R10366   4.475   2.846   5.515  1.0217 -3.8353  1.6916
  102SAPE  H17S10367   4.636   2.887   5.554 -0.3304  0.3038 -3.3099
  102SAPE  C21810368   4.526   3.053   5.593  0.1958  0.5124  0.0030
  102SAPE  H18R10369   4.605   3.105   5.652 -0.2446  0.5706  0.5468
  102SAPE  H18S10370   4.432   3.076   5.646  0.3101  0.7176  0.1177
  102SAPE  C21910371   4.516   3.107   5.444  0.5526  0.3013 -0.4388
  102SAPE  H19R10372   4.450   3.195   5.426  0.5261  0.0681 -1.5646
  102SAPE  H19S10373   4.472   3.023   5.387  1.7322  1.5854 -3.4318
  102SAPE  C22010374   4.643   3.130   5.362  0.0873 -0.6180  0.5645
  102SAPE  H20R10375   4.676   3.029   5.328  1.5417 -0.0886  0.2928
  102SAPE  H20S10376   4.720   3.189   5.417 -1.1592 -0.6340  2.4051
  102SAPE  H20T10377   4.619   3.182   5.267  1.7032  0.2183  0.5667
  102SAPE   C3310378   3.806   2.133   6.591 -0.3595 -0.0696  0.1357
  102SAPE   H3X10379   3.700   2.099   6.596 -0.3490  0.0576  1.5992
  102SAPE   H3Y10380   3.879   2.062   6.636  0.3353  0.2886 -0.4079
  102SAPE   C3410381   3.845   2.158   6.446  0.3821  0.0548  0.8332
  102SAPE   H4X10382   3.845   2.057   6.400 -2.2854 -1.1134  3.1218
  102SAPE   H4Y10383   3.945   2.206   6.436 -0.5503  1.6688 -1.6295
  102SAPE   C3510384   3.740   2.257   6.375  0.1120 -0.0665 -0.3601
  102SAPE   H5X10385   3.752   2.357   6.421 -0.7481  0.1730 -0.6316
  102SAPE   H5Y10386   3.640   2.211   6.394  0.0536 -0.5461 -1.6762
  102SAPE   C3610387   3.748   2.267   6.227 -0.0076  0.8512  0.5525
  102SAPE   H6X10388   3.823   2.340   6.190  0.5627 -1.3053 -2.9424
  102SAPE   H6Y10389   3.651   2.309   6.192 -1.2937 -0.5556  2.2172
  102SAPE   C3710390   3.764   2.133   6.159 -0.0081 -0.0588 -0.4531
  102SAPE   H7X10391   3.703   2.048   6.198 -1.4764  1.1734  0.0111
  102SAPE   H7Y10392   3.871   2.104   6.164  0.7442  2.0233 -2.8121
  102SAPE   C3810393   3.749   2.148   6.010 -0.7976 -0.0869 -0.3231
  102SAPE   H8X10394   3.800   2.239   5.973  0.3968 -1.0319 -1.0869
  102SAPE   H8Y10395   3.642   2.163   5.986 -1.0095 -0.6172  0.2398
  102SAPE   C3910396   3.799   2.032   5.920  0.1530 -0.3891  0.1640
  102SAPE   H9X10397   3.727   1.948   5.934 -1.1707  0.9122  1.5581
  102SAPE   H9Y10398   3.899   1.989   5.941  0.6616 -0.1407 -1.5960
  102SAPE  C31010399   3.794   2.068   5.765 -0.1394 -0.5281  0.3319
  102SAPE  H10X10400   3.836   1.981   5.711  0.1613 -0.8886  1.1268
  102SAPE  H10Y10401   3.853   2.160   5.744 -0.5794 -0.8272 -2.5658
  102SAPE  C31110402   3.658   2.088   5.704  0.0736  0.1363 -0.1842
  102SAPE  H11X10403   3.663   2.130   5.602  1.1193 -0.4758 -0.3930
  102SAPE  H11Y10404   3.611   2.164   5.771  0.2494 -1.0795  1.3874
  102SAPE  C31210405   3.563   1.965   5.711 -0.4531  0.3994 -0.6213
  102SAPE  H12X10406   3.455   1.988   5.704 -0.8607 -1.2660 -0.2813
  102SAPE  H12Y10407   3.576   1.909   5.806  1.1324 -1.2879 -1.7418
  102SAPE  C31310408   3.589   1.855   5.607  0.5083  0.6833  0.1963
  102SAPE  H13X10409   3.547   1.755   5.633  0.5666 -0.3933 -3.3005
  102SAPE  H13Y10410   3.699   1.840   5.602  0.4402  0.4414 -0.9022
  102SAPE  C31410411   3.531   1.876   5.469  0.0362 -0.0074  0.2282
  102SAPE  H14X10412   3.558   1.971   5.420 -1.1623 -1.0927 -2.8070
  102SAPE  H14Y10413   3.420   1.882   5.470 -0.1613 -0.8902 -3.0659
  102SAPE  C31510414   3.580   1.759   5.373  0.3204 -0.1241 -0.2243
  102SAPE  H15X10415   3.541   1.664   5.414 -1.8312  0.7795 -0.0381
  102SAPE  H15Y10416   3.691   1.753   5.366  0.2660  0.6368 -2.7485
  102SAPE  C31610417   3.525   1.781   5.227  0.5040 -0.2918 -0.0996
  102SAPE  H16X10418   3.593   1.722   5.162  2.1225  0.0841  1.2083
  102SAPE  H16Y10419   3.515   1.886   5.195  1.1586 -0.0997  0.3097
  102SAPE  C31710420   3.386   1.733   5.216 -0.0501 -0.0793  0.1824
  102SAPE  H17X10421   3.322   1.801   5.276  1.6958  1.1907  0.7025
  102SAPE  H17Y10422   3.380   1.632   5.261 -0.2258 -0.3932 -0.5428
  102SAPE  C31810423   3.324   1.732   5.077 -0.3225 -0.1255  0.0564
  102SAPE  H18X10424   3.224   1.685   5.074 -0.8678  1.0474 -1.1562
  102SAPE  H18Y10425   3.386   1.673   5.006 -1.4019  0.9016 -1.8131
  102SAPE  H18Z10426   3.313   1.830   5.026 -2.2435 -1.1666 -1.6524
  103SAPE     N10427   1.409   1.414   2.757  0.1230 -0.4995  0.2344
  103SAPE   HN110428   1.501   1.426   2.803  0.8687  1.6580 -1.6632
  103SAPE   HN210429   1.390   1.313   2.774 -0.4661 -0.1743  1.6674
  103SAPE   HN310430   1.415   1.427   2.654  2.8581 -0.5844  0.3051
  103SAPE   C1210431   1.318   1.498   2.838  0.3089  0.3393  0.1220
  103SAPE  H12A10432   1.324   1.606   2.815  2.9231 -0.1352 -1.7819
  103SAPE  H12B10433   1.328   1.463   2.944 -1.3518 -1.2433 -0.1765
  103SAPE   C1110434   1.176   1.467   2.799 -0.1736  0.5493  0.9241
  103SAPE  H11A10435   1.102   1.535   2.847 -1.3251 -1.4898  2.1616
  103SAPE  H11B10436   1.147   1.367   2.837  0.5043  0.3999  1.0628
  103SAPE     P10437   1.115   1.587   2.571  0.0366 -0.0968  0.3122
  103SAPE   O1310438   1.226   1.685   2.578 -0.4150 -0.5413 -0.4099
  103SAPE   O1410439   1.086   1.530   2.433  0.1648  0.0070 -0.8666
  103SAPE   O1210440   1.160   1.466   2.654 -0.1525 -0.0944 -0.6890
  103SAPE   O1110441   0.978   1.632   2.631 -0.0001  0.1042 -0.3142
  103SAPE    C110442   0.938   1.770   2.642 -0.3329 -0.3259  0.1543
  103SAPE    HA10443   0.995   1.835   2.572 -4.1481  1.6266 -1.4057
  103SAPE    HB10444   0.832   1.775   2.609 -0.2886 -2.0322 -0.3856
  103SAPE    C210445   0.945   1.827   2.780 -0.5562  0.2956  1.4028
  103SAPE    HS10446   0.897   1.927   2.772 -3.3799 -0.6764  3.9433
  103SAPE   O2110447   1.079   1.824   2.836  0.6012 -0.4726  0.0914
  103SAPE   C2110448   1.136   1.947   2.857  0.2871 -0.7255 -0.5228
  103SAPE   O2210449   1.089   2.054   2.825 -0.2099  0.4847  0.6556
  103SAPE   C2210450   1.265   1.929   2.935  0.1451  0.6425  0.6483
  103SAPE   H2R10451   1.273   1.820   2.953 -1.0650  0.1912 -1.2176
  103SAPE   H2S10452   1.349   1.957   2.867 -0.0688  1.8823  0.8562
  103SAPE    C310453   0.862   1.729   2.873 -0.2135 -0.4630 -0.7517
  103SAPE    HX10454   0.893   1.624   2.857  0.4006 -0.4192  0.1012
  103SAPE    HY10455   0.759   1.739   2.834 -0.6545 -1.1620  0.2159
  103SAPE   O3110456   0.862   1.768   3.005 -0.6271 -0.4575 -0.2119
  103SAPE   C3110457   0.922   1.689   3.090 -0.0943  0.8491 -0.5410
  103SAPE   O3210458   0.961   1.577   3.071  0.0404  0.1445 -0.4926
  103SAPE   C3210459   0.923   1.742   3.231 -0.5698  0.6204  0.2605
  103SAPE   H2X10460   0.875   1.655   3.281  0.3825  0.1675  0.4147
  103SAPE   H2Y10461   0.872   1.840   3.240  1.1280  1.5932 -0.3082
  103SAPE   C2310462   1.277   2.002   3.060 -0.0317 -0.0716  0.0418
  103SAPE   H3R10463   1.316   1.944   3.146  2.2255  1.0818 -0.1285
  103SAPE   H3S10464   1.175   2.031   3.092 -0.0650 -2.0499  1.9322
  103SAPE   C2410465   1.362   2.128   3.041  0.2228  0.0862 -0.4448
  103SAPE   H4R10466   1.323   2.179   2.951 -1.1700  1.4695  0.8651
  103SAPE   H4S10467   1.466   2.088   3.035  0.0236 -1.3734  3.0178
  103SAPE   C2510468   1.358   2.223   3.164  0.1631 -0.5382  0.1514
  103SAPE   H5R10469   1.406   2.177   3.252 -1.5991 -0.8065  1.0092
  103SAPE   C2610470   1.287   2.340   3.178 -0.0890 -0.0192 -0.4023
  103SAPE   H6R10471   1.293   2.404   3.267  1.7877 -0.0137 -0.4805
  103SAPE   C2710472   1.209   2.406   3.066  0.8300  0.1628  1.1862
  103SAPE   H7R10473   1.105   2.433   3.091  0.7519  1.3678 -0.2559
  103SAPE   H7S10474   1.210   2.348   2.971  1.7442  2.7112 -0.4697
  103SAPE   C2810475   1.280   2.532   3.019  0.1386  0.2644  0.0946
  103SAPE   H8R10476   1.364   2.518   2.949  1.6004  1.7395  1.4683
  103SAPE   C2910477   1.248   2.660   3.043  0.0928 -0.3620 -0.5039
  103SAPE   H9R10478   1.306   2.741   2.997 -2.0370  2.1558  0.9483
  103SAPE  C21010479   1.140   2.709   3.134  0.2159 -0.7348 -0.2518
  103SAPE  H10R10480   1.184   2.806   3.166  0.2666 -0.2778 -1.6616
  103SAPE  H10S10481   1.132   2.644   3.224 -0.5051 -0.7271 -0.3065
  103SAPE  C21110482   1.008   2.742   3.064 -0.2234 -0.5794 -0.7362
  103SAPE  H11R10483   1.030   2.806   2.977  1.6707 -0.4835 -0.2333
  103SAPE  C21210484   0.886   2.710   3.099 -0.6133 -0.0264 -0.0537
  103SAPE  H12R10485   0.796   2.744   3.047 -1.4138 -0.4966  0.9840
  103SAPE  C21310486   0.850   2.625   3.221 -0.3050  0.6908  0.5049
  103SAPE  H13R10487   0.894   2.666   3.314 -0.6510  2.2734  0.0000
  103SAPE  H13S10488   0.889   2.523   3.199  0.4008  1.3511 -1.4918
  103SAPE  C21410489   0.694   2.603   3.229 -0.6595  0.5508  0.1426
  103SAPE  H14R10490   0.647   2.603   3.130 -0.8883  0.4805  0.2527
  103SAPE  C21510491   0.627   2.580   3.345  0.3198 -0.5632 -0.4772
  103SAPE  H15R10492   0.519   2.558   3.348  0.1937  0.0909  1.8088
  103SAPE  C21610493   0.676   2.570   3.486 -0.8681 -0.2828 -0.5715
  103SAPE  H16R10494   0.783   2.597   3.498 -0.2966 -2.4922 -0.2977
  103SAPE  H16S10495   0.666   2.467   3.528  0.8243 -0.1961  0.0996
  103SAPE  C21710496   0.597   2.659   3.577  0.6762 -0.4093  0.2992
  103SAPE  H17R10497   0.625   2.622   3.678 -0.0867  0.9457  1.0318
  103SAPE  H17S10498   0.489   2.630   3.576  0.1220  1.5637 -0.0961
  103SAPE  C21810499   0.628   2.808   3.561  0.3395  0.1697  0.1802
  103SAPE  H18R10500   0.563   2.844   3.479 -0.3771  0.4951  0.8796
  103SAPE  H18S10501   0.725   2.805   3.507 -0.7778 -2.2314 -1.9041
  103SAPE  C21910502   0.633   2.880   3.694  0.7008 -0.0481 -0.2966
  103SAPE  H19R10503   0.666   2.985   3.683 -1.0998  0.6464  0.6085
  103SAPE  H19S10504   0.711   2.836   3.760 -0.1338 -0.2085  0.6150
  103SAPE  C22010505   0.512   2.880   3.784  0.0501  0.0182  0.5503
  103SAPE  H20R10506   0.503   2.776   3.822  1.7478 -0.7880 -1.0906
  103SAPE  H20S10507   0.418   2.909   3.732  0.4575 -0.3006 -0.3787
  103SAPE  H20T10508   0.522   2.951   3.869 -0.5000 -0.2734  0.8605
  103SAPE   C3310509   1.067   1.754   3.290 -0.1664  0.3525  1.5356
  103SAPE   H3X10510   1.128   1.828   3.235 -0.3146 -0.8188 -0.2877
  103SAPE   H3Y10511   1.112   1.654   3.275 -0.3028  0.4348  0.5164
  103SAPE   C3410512   1.057   1.798   3.438 -0.3241  0.0290 -0.5403
  103SAPE   H4X10513   0.997   1.731   3.503 -2.2896  1.5760 -0.6766
  103SAPE   H4Y10514   1.003   1.894   3.444 -3.7879 -1.6992 -1.2129
  103SAPE   C3510515   1.185   1.809   3.514  0.0112  0.2557 -0.1044
  103SAPE   H5X10516   1.257   1.875   3.462  0.3598  0.5770  0.7771
  103SAPE   H5Y10517   1.232   1.709   3.530 -0.0123  0.2812  0.1270
  103SAPE   C3610518   1.161   1.867   3.654 -0.5070 -0.5444 -0.3863
  103SAPE   H6X10519   1.081   1.805   3.699 -1.2085 -1.5769 -2.8531
  103SAPE   H6Y10520   1.123   1.971   3.644 -0.7336 -0.6506 -0.6424
  103SAPE   C3710521   1.280   1.860   3.760  0.3140  0.1163  0.3178
  103SAPE   H7X10522   1.346   1.949   3.745 -0.3592  0.6512  0.4451
  103SAPE   H7Y10523   1.344   1.772   3.739  3.2914  2.6155 -2.0630
  103SAPE   C3810524   1.240   1.858   3.908 -0.5915  0.2523  0.1221
  103SAPE   H8X10525   1.327   1.872   3.975  0.6649  2.4987 -1.8280
  103SAPE   H8Y10526   1.203   1.756   3.934  0.7762 -0.2690  0.0969
  103SAPE   C3910527   1.129   1.956   3.935  0.4396  1.2886 -0.0364
  103SAPE   H9X10528   1.028   1.931   3.897 -0.2151  4.6761 -0.8704
  103SAPE   H9Y10529   1.155   2.054   3.888 -2.8551  3.7438  2.7613
  103SAPE  C31010530   1.103   1.978   4.088  1.1341  0.1151 -0.3120
  103SAPE  H10X10531   1.197   2.010   4.138  1.4471  0.4283 -1.0950
  103SAPE  H10Y10532   1.075   1.880   4.133  1.0765 -0.1058 -0.8328
  103SAPE  C31110533   0.994   2.085   4.111 -0.0733 -0.0039 -0.0491
  103SAPE  H11X10534   0.896   2.039   4.086  0.9769 -2.3182 -0.1604
  103SAPE  H11Y10535   1.008   2.180   4.055 -0.2839 -0.0555 -0.1924
  103SAPE  C31210536   0.976   2.125   4.257  0.1427 -0.7785 -0.1262
  103SAPE  H12X10537   1.032   2.220   4.271 -0.5354 -0.0853 -1.8631
  103SAPE  H12Y10538   1.011   2.050   4.331 -0.3350 -0.4847  0.4009
  103SAPE  C31310539   0.831   2.167   4.297  0.6623 -0.1480  0.0261
  103SAPE  H13X10540   0.768   2.077   4.282  1.0768 -0.2961 -0.9151
  103SAPE  H13Y10541   0.798   2.252   4.235 -0.3228 -0.4523  0.1213
  103SAPE  C31410542   0.813   2.199   4.449 -0.1530  0.1712  0.5064
  103SAPE  H14X10543   0.844   2.109   4.505  1.8209  0.9979  0.8268
  103SAPE  H14Y10544   0.712   2.239   4.472  0.4378  2.1188 -0.0445
  103SAPE  C31510545   0.908   2.308   4.502  0.7372  0.3472  0.6508
  103SAPE  H15X10546   0.904   2.400   4.441  0.6685  0.8766  1.4374
  103SAPE  H15Y10547   1.013   2.278   4.482  0.3402 -0.0014 -1.0073
  103SAPE  C31610548   0.886   2.342   4.652  0.4002 -0.4748 -0.6214
  103SAPE  H16X10549   0.979   2.398   4.679  1.0154 -0.0162 -3.4003
  103SAPE  H16Y10550   0.867   2.250   4.711 -1.3682 -0.2008 -0.7136
  103SAPE  C31710551   0.763   2.425   4.670  0.1014  0.3500 -0.1442
  103SAPE  H17X10552   0.677   2.377   4.619  1.3433 -0.1929 -1.8541
  103SAPE  H17Y10553   0.769   2.527   4.627 -1.4267  0.5309  0.0110
  103SAPE  C31810554   0.728   2.437   4.818  0.2926 -0.6369  0.1262
  103SAPE  H18X10555   0.626   2.474   4.842  0.4450 -0.6069  0.7525
  103SAPE  H18Y10556   0.792   2.501   4.882 -0.7307  2.4464 -1.7270
  103SAPE  H18Z10557   0.721   2.334   4.858 -0.2211 -1.2988 -1.6068
  104SAPE     N10558   3.642   1.510   2.713 -0.1078 -0.0929 -0.2375
  104SAPE   HN110559   3.626   1.467   2.620  0.0685 -0.8820  0.0929
  104SAPE   HN210560   3.650   1.425   2.772 -0.3587  0.1628  0.1635
  104SAPE   HN310561   3.559   1.567   2.738  0.0786 -0.8665  2.3723
  104SAPE   C1210562   3.753   1.606   2.719  0.3283  0.1587 -0.4748
  104SAPE  H12A10563   3.834   1.558   2.660  0.1611  0.2568 -0.7817
  104SAPE  H12B10564   3.787   1.610   2.825 -1.1190 -0.3271  0.0320
  104SAPE   C1110565   3.705   1.745   2.670 -0.0745 -0.4062 -0.1468
  104SAPE  H11A10566   3.669   1.744   2.565  0.7022  0.0485 -0.4229
  104SAPE  H11B10567   3.802   1.799   2.671 -0.2180 -0.1246  1.2924
  104SAPE     P10568   3.463   1.812   2.756  0.0241 -0.2094  0.5289
  104SAPE   O1310569   3.417   1.881   2.635 -0.7312  0.2689 -0.3440
  104SAPE   O1410570   3.429   1.668   2.761  0.1985  0.0802 -0.1456
  104SAPE   O1210571   3.620   1.819   2.765 -0.5670  0.5610  0.5358
  104SAPE   O1110572   3.413   1.876   2.892  0.1349 -0.2486 -0.1456
  104SAPE    C110573   3.465   1.832   3.018  0.2121 -0.3372  0.1471
  104SAPE    HA10574   3.408   1.746   3.058 -0.7619 -0.9341 -2.3344
  104SAPE    HB10575   3.573   1.806   3.019  1.4041  3.8456  2.1699
  104SAPE    C210576   3.457   1.933   3.142  0.3479 -0.0200 -0.0836
  104SAPE    HS10577   3.511   1.886   3.227  1.1975  1.4108  0.1818
  104SAPE   O2110578   3.320   1.971   3.165  0.3264  0.3515  0.1713
  104SAPE   C2110579   3.239   1.878   3.208 -0.0628 -0.7176  0.1187
  104SAPE   O2210580   3.271   1.764   3.238 -0.0122  0.1905 -0.5635
  104SAPE   C2210581   3.104   1.937   3.250  0.0165  0.3603  0.3106
  104SAPE   H2R10582   3.095   2.047   3.232  3.0395  0.7085  0.3880
  104SAPE   H2S10583   3.029   1.888   3.184 -0.1366  1.1087 -0.0911
  104SAPE    C310584   3.538   2.064   3.118  0.8493  0.2999 -0.1251
  104SAPE    HX10585   3.483   2.139   3.057 -2.7329 -1.0173  1.2195
  104SAPE    HY10586   3.631   2.031   3.067 -0.3595 -3.5991 -0.1113
  104SAPE   O3110587   3.565   2.123   3.245 -0.1142  0.1385 -0.0134
  104SAPE   C3110588   3.685   2.094   3.298 -0.1031 -0.0872 -0.6412
  104SAPE   O3210589   3.757   1.999   3.258 -0.1823  0.0580  0.1453
  104SAPE   C3210590   3.709   2.176   3.424  0.0556  0.0886  0.3834
  104SAPE   H2X10591   3.614   2.189   3.481 -0.9779  0.6010 -1.3720
  104SAPE   H2Y10592   3.744   2.277   3.392  0.8847 -0.1853  0.4061
  104SAPE   C2310593   3.071   1.913   3.396  0.1147 -0.2077  0.0320
  104SAPE   H3R10594   3.109   1.992   3.464  1.1679  0.8534 -1.6952
  104SAPE   H3S10595   3.107   1.811   3.419  0.4805 -0.0463  0.1788
  104SAPE   C2410596   2.911   1.921   3.406  0.0243  0.2330  1.1579
  104SAPE   H4R10597   2.886   1.908   3.514 -1.0347 -0.5801  0.8399
  104SAPE   H4S10598   2.880   1.829   3.352  1.6290  0.5839 -0.4108
  104SAPE   C2510599   2.848   2.048   3.351 -0.0775  0.1984  0.0348
  104SAPE   H5R10600   2.865   2.059   3.243  0.1293  2.3192  0.2471
  104SAPE   C2610601   2.787   2.149   3.419 -0.1534 -0.1530  0.1740
  104SAPE   H6R10602   2.780   2.238   3.354  5.3285 -1.2833 -2.5617
  104SAPE   C2710603   2.779   2.162   3.570  0.5541 -0.4367  0.8481
  104SAPE   H7R10604   2.860   2.222   3.617  0.3965  0.6490 -0.2274
  104SAPE   H7S10605   2.789   2.061   3.616 -2.2057 -1.1994 -0.0332
  104SAPE   C2810606   2.649   2.224   3.624  0.3374  0.5593  0.3982
  104SAPE   H8R10607   2.615   2.309   3.564  4.3638  0.8980 -1.7819
  104SAPE   C2910608   2.611   2.211   3.756  0.0127 -0.0916 -0.0331
  104SAPE   H9R10609   2.527   2.273   3.791 -0.1423 -0.6299  0.5581
  104SAPE  C21010610   2.670   2.132   3.871 -0.2418 -0.0628  0.4048
  104SAPE  H10R10611   2.762   2.075   3.846 -0.7996 -0.0204 -2.0401
  104SAPE  H10S10612   2.601   2.047   3.888  0.8835 -0.7448  1.7419
  104SAPE  C21110613   2.687   2.222   3.989 -0.3589  0.0426  0.3329
  104SAPE  H11R10614   2.767   2.295   3.971  0.4050 -0.8629 -0.0279
  104SAPE  C21210615   2.596   2.236   4.091 -0.0979 -0.4615 -0.9050
  104SAPE  H12R10616   2.607   2.306   4.174 -1.5077  0.5996 -1.5768
  104SAPE  C21310617   2.483   2.140   4.111  0.2589 -0.5932  0.3747
  104SAPE  H13R10618   2.426   2.112   4.019 -1.7847  0.7196  1.1817
  104SAPE  H13S10619   2.412   2.191   4.179 -0.3602 -3.3993  2.0139
  104SAPE  C21410620   2.521   2.002   4.162  0.5650  0.8959 -0.1740
  104SAPE  H14R10621   2.608   1.952   4.119 -0.0943  0.7495 -1.3668
  104SAPE  C21510622   2.465   1.952   4.275  0.2194 -0.1369 -1.0982
  104SAPE  H15R10623   2.494   1.852   4.312  0.4406  1.1248  2.5286
  104SAPE  C21610624   2.366   2.015   4.365  0.4416  0.0871 -0.1452
  104SAPE  H16R10625   2.275   1.953   4.380  0.0481  0.5402 -0.6161
  104SAPE  H16S10626   2.326   2.111   4.326  0.6285 -0.7743 -2.6878
  104SAPE  C21710627   2.435   2.039   4.500 -0.5248 -0.3596 -0.3832
  104SAPE  H17R10628   2.488   1.948   4.534 -2.3369 -1.2046  0.3209
  104SAPE  H17S10629   2.351   2.064   4.569 -1.6490 -1.2692 -1.3814
  104SAPE  C21810630   2.537   2.158   4.506 -0.4806 -0.1610  0.5220
  104SAPE  H18R10631   2.505   2.241   4.439 -0.8524 -0.3095  0.5142
  104SAPE  H18S10632   2.636   2.121   4.471 -0.2200 -0.5255  1.6021
  104SAPE  C21910633   2.550   2.220   4.646  0.2738  0.8261  0.6132
  104SAPE  H19R10634   2.589   2.154   4.727  0.5614 -0.4248 -0.5217
  104SAPE  H19S10635   2.446   2.249   4.677  0.4149  0.6017  1.3215
  104SAPE  C22010636   2.630   2.347   4.641 -0.2600  0.0913  0.0997
  104SAPE  H20R10637   2.735   2.312   4.635  0.6610  2.5946  0.4356
  104SAPE  H20S10638   2.615   2.408   4.733 -1.2455 -1.3212  0.9115
  104SAPE  H20T10639   2.610   2.412   4.554  2.3180 -0.2653 -0.8580
  104SAPE   C3310640   3.815   2.111   3.524 -0.2283  0.6651  0.1142
  104SAPE   H3X10641   3.864   2.186   3.589  0.3748 -0.5362  1.1067
  104SAPE   H3Y10642   3.897   2.069   3.461  0.4748 -1.0738  2.0667
  104SAPE   C3410643   3.747   2.003   3.607  0.0026  0.3824 -0.5197
  104SAPE   H4X10644   3.726   1.917   3.539  0.7601  0.3341 -0.6940
  104SAPE   H4Y10645   3.660   2.044   3.663  0.2310  0.7417 -0.4308
  104SAPE   C3510646   3.844   1.952   3.723  0.4915 -0.4395 -0.1577
  104SAPE   H5X10647   3.932   1.907   3.673  0.7828 -1.0308  0.8601
  104SAPE   H5Y10648   3.792   1.863   3.764 -0.0680 -0.8324 -1.6597
  104SAPE   C3610649   3.888   2.055   3.834 -0.4276  0.2312  0.8089
  104SAPE   H6X10650   3.791   2.090   3.876 -0.5821 -1.9315  2.4370
  104SAPE   H6Y10651   3.942   2.138   3.784  2.3851 -1.2076  1.2377
  104SAPE   C3710652   3.976   1.989   3.938 -0.3918 -0.2918 -0.4434
  104SAPE   H7X10653   4.013   2.059   4.016  0.7566 -0.0162 -1.2106
  104SAPE   H7Y10654   4.068   1.957   3.886 -0.1979  0.5073 -0.6045
  104SAPE   C3810655   3.919   1.868   4.014 -0.1229 -0.3444  0.4218
  104SAPE   H8X10656   4.001   1.807   4.058 -0.3366 -0.6162  0.4452
  104SAPE   H8Y10657   3.847   1.801   3.962 -3.0257  1.8794  1.2611
  104SAPE   C3910658   3.836   1.900   4.145 -0.4069  0.0917 -0.0178
  104SAPE   H9X10659   3.729   1.914   4.120 -0.3194 -1.7113 -1.6518
  104SAPE   H9Y10660   3.877   1.990   4.195 -1.9421  0.4145  0.7332
  104SAPE  C31010661   3.830   1.776   4.239  0.0238  0.0653  0.4287
  104SAPE  H10X10662   3.933   1.758   4.277  0.2430  0.6509  0.1229
  104SAPE  H10Y10663   3.799   1.684   4.185 -0.3321 -0.5940  1.7076
  104SAPE  C31110664   3.753   1.800   4.367 -0.1923 -0.7742  0.1502
  104SAPE  H11X10665   3.653   1.749   4.368 -0.9490  0.6687  0.3451
  104SAPE  H11Y10666   3.729   1.908   4.368  1.4751 -0.3742 -0.2027
  104SAPE  C31210667   3.839   1.776   4.492 -0.2449 -0.7962 -0.0295
  104SAPE  H12X10668   3.918   1.853   4.500  0.4862 -1.1547 -2.6952
  104SAPE  H12Y10669   3.887   1.676   4.481  0.8817 -0.6344  2.7241
  104SAPE  C31310670   3.755   1.770   4.619 -0.2442  0.0553 -0.4354
  104SAPE  H13X10671   3.677   1.692   4.605  0.5304 -1.1310  1.4190
  104SAPE  H13Y10672   3.703   1.866   4.636 -2.2598 -0.9828 -0.4308
  104SAPE  C31410673   3.838   1.739   4.743 -0.8389 -0.3122 -0.5552
  104SAPE  H14X10674   3.916   1.816   4.757 -1.7584  0.5844 -0.2657
  104SAPE  H14Y10675   3.890   1.641   4.735  1.7139  0.8470  0.9008
  104SAPE  C31510676   3.752   1.729   4.875 -0.1400 -0.2182  0.7206
  104SAPE  H15X10677   3.660   1.676   4.844  0.8230  0.2236 -3.4068
  104SAPE  H15Y10678   3.737   1.829   4.922  1.0523 -0.4101  1.5441
  104SAPE  C31610679   3.818   1.649   4.990 -0.0967  0.0595  0.4558
  104SAPE  H16X10680   3.822   1.541   4.966 -1.1372  0.2850 -0.8415
  104SAPE  H16Y10681   3.756   1.658   5.082 -4.3431 -0.0658 -2.1323
  104SAPE  C31710682   3.968   1.694   5.009  0.3939 -0.5274  0.9527
  104SAPE  H17X10683   3.958   1.804   5.020  1.0152 -0.2689 -0.7517
  104SAPE  H17Y10684   4.023   1.664   4.917 -0.1367 -1.0660  0.7990
  104SAPE  C31810685   4.041   1.635   5.128  0.2926  0.6256  0.2951
  104SAPE  H18X10686   4.134   1.695   5.138 -0.2601  1.7597 -1.0494
  104SAPE  H18Y10687   4.071   1.528   5.130 -0.3299  0.3824  4.1381
  104SAPE  H18Z10688   3.990   1.658   5.224 -1.0696 -0.0346 -0.2468
  105SAPE     N10689   6.180   4.461   2.769 -0.6437 -0.4462 -0.2162
  105SAPE   HN110690   6.102   4.527   2.786 -0.1361 -0.5132  2.9895
  105SAPE   HN210691   6.254   4.507   2.712 -0.1339  0.4038  1.0798
  105SAPE   HN310692   6.151   4.373   2.723 -0.4609 -0.9800  0.6750
  105SAPE   C1210693   6.229   4.418   2.908  0.1994  0.4205 -0.4444
  105SAPE  H12A10694   6.153   4.346   2.946 -0.4629  0.6992 -1.2097
  105SAPE  H12B10695   6.240   4.514   2.962 -1.9050  2.6410 -3.5828
  105SAPE   C1110696   6.358   4.343   2.899 -0.8443  0.5977  0.1904
  105SAPE  H11A10697   6.396   4.308   2.997  1.0361 -2.1105 -1.3863
  105SAPE  H11B10698   6.437   4.408   2.855 -1.3868  1.1122 -0.0506
  105SAPE     P10699   6.302   4.088   2.846  0.2993 -0.7915  0.2619
  105SAPE   O1310700   6.158   4.087   2.820 -0.4036  0.2386  0.2950
  105SAPE   O1410701   6.389   3.993   2.776 -0.1933  0.1713 -0.2668
  105SAPE   O1210702   6.342   4.235   2.812  0.3491  0.3733 -0.1233
  105SAPE   O1110703   6.324   4.077   2.998 -0.1837 -0.5179 -0.4104
  105SAPE    C110704   6.394   3.968   3.054  0.0922 -0.4073  0.3745
  105SAPE    HA10705   6.375   3.871   3.002 -0.5039 -0.1925  0.1858
  105SAPE    HB10706   6.501   3.994   3.042 -0.2330  1.1407  0.6688
  105SAPE    C210707   6.370   3.936   3.200  0.3066 -0.9505  0.1524
  105SAPE    HS10708   6.435   3.850   3.228 -1.5145 -1.9637  1.4540
  105SAPE   O2110709   6.232   3.929   3.224  0.3535 -0.3476  0.3154
  105SAPE   C2110710   6.185   3.802   3.195 -0.6537 -0.4232 -0.1034
  105SAPE   O2210711   6.241   3.725   3.118  0.2893  0.0020 -0.1812
  105SAPE   C2210712   6.053   3.776   3.264  0.2864  0.2562 -0.0213
  105SAPE   H2R10713   5.978   3.786   3.182 -0.5941 -1.6435  0.4742
  105SAPE   H2S10714   6.058   3.671   3.301  0.1544 -0.1230 -1.0453
  105SAPE    C310715   6.417   4.056   3.282 -0.6334  0.2507  0.1641
  105SAPE    HX10716   6.396   4.048   3.391  1.0320  3.3654  0.8425
  105SAPE    HY10717   6.354   4.140   3.245 -0.3542 -0.2704 -1.6027
  105SAPE   O3110718   6.564   4.093   3.260  0.3571 -0.1439 -0.2988
  105SAPE   C3110719   6.650   4.015   3.323 -0.2201 -0.0758 -0.2817
  105SAPE   O3210720   6.617   3.926   3.399 -0.7454 -0.6450 -0.4156
  105SAPE   C3210721   6.796   4.055   3.289  0.4300  0.1799  0.0515
  105SAPE   H2X10722   6.802   4.165   3.305  0.1255  0.2106 -0.0429
  105SAPE   H2Y10723   6.813   4.030   3.183 -1.0216  1.6507 -0.5759
  105SAPE   C2310724   6.012   3.866   3.376  0.0624 -0.0287 -0.8457
  105SAPE   H3R10725   5.904   3.850   3.395  0.2530 -0.2378  0.1035
  105SAPE   H3S10726   6.032   3.970   3.341  1.2957 -0.5554 -1.7478
  105SAPE   C2410727   6.110   3.852   3.497  0.4009  1.2803  0.2933
  105SAPE   H4R10728   6.207   3.875   3.450  1.1732  0.8209  1.6180
  105SAPE   H4S10729   6.116   3.749   3.539  2.0199  0.8041 -0.9981
  105SAPE   C2510730   6.076   3.941   3.611 -0.0162 -0.7447 -0.4199
  105SAPE   H5R10731   6.123   4.040   3.602 -0.6819 -0.4945 -1.3764
  105SAPE   C2610732   6.004   3.915   3.724 -0.3806  0.0769 -0.5705
  105SAPE   H6R10733   5.988   3.998   3.794  0.5932  0.0310 -0.2675
  105SAPE   C2710734   5.944   3.784   3.775 -0.6828 -0.6231  0.1290
  105SAPE   H7R10735   5.876   3.742   3.698 -0.3967  1.5026 -1.4033
  105SAPE   H7S10736   5.880   3.799   3.864 -0.5267 -2.5049  0.5831
  105SAPE   C2810737   6.047   3.685   3.808 -0.5455 -0.1088  0.1712
  105SAPE   H8R10738   6.089   3.623   3.727 -0.0060 -0.7368  0.9253
  105SAPE   C2910739   6.106   3.668   3.923  0.4319  0.0709  0.7054
  105SAPE   H9R10740   6.175   3.583   3.938  1.5631  1.2198  2.3845
  105SAPE  C21010741   6.080   3.732   4.054 -0.3500 -0.4354  0.0316
  105SAPE  H10R10742   6.077   3.843   4.048 -0.8230 -0.3326  1.7155
  105SAPE  H10S10743   6.156   3.719   4.134  0.7951  1.3812 -0.6949
  105SAPE  C21110744   5.946   3.696   4.113  0.4274 -0.3082  0.3120
  105SAPE  H11R10745   5.866   3.761   4.074 -0.2039 -1.5850 -0.6024
  105SAPE  C21210746   5.914   3.592   4.195  0.2356 -0.2578 -0.0992
  105SAPE  H12R10747   5.813   3.565   4.226  1.2506 -1.9939  1.9729
  105SAPE  C21310748   6.015   3.492   4.242 -0.7509 -0.3913 -0.2590
  105SAPE  H13R10749   6.022   3.492   4.353  1.3296  0.4309 -0.3369
  105SAPE  H13S10750   6.114   3.512   4.196 -1.2603 -0.1616 -1.2631
  105SAPE  C21410751   5.979   3.351   4.193 -0.0529 -0.1039  0.2027
  105SAPE  H14R10752   5.943   3.349   4.089 -2.0107 -2.3975  0.8507
  105SAPE  C21510753   5.974   3.238   4.271 -0.8013 -0.1765  0.2903
  105SAPE  H15R10754   5.940   3.144   4.225  2.6636 -0.5791 -1.8146
  105SAPE  C21610755   6.001   3.225   4.415 -0.0408  0.1734 -0.7587
  105SAPE  H16R10756   6.020   3.321   4.469 -1.1479  0.1739 -0.3467
  105SAPE  H16S10757   6.101   3.179   4.431 -0.6864 -1.1314 -0.3260
  105SAPE  C21710758   5.901   3.139   4.492 -0.3894 -0.4660 -0.5067
  105SAPE  H17R10759   5.887   3.036   4.453  2.2399 -0.9032 -0.5024
  105SAPE  H17S10760   5.799   3.183   4.493 -0.0134  0.4288 -0.9426
  105SAPE  C21810761   5.950   3.127   4.643  0.0857  0.4580 -0.3375
  105SAPE  H18R10762   5.970   3.231   4.676 -0.3983  0.9159 -1.4262
  105SAPE  H18S10763   6.043   3.066   4.652 -0.6547 -0.6145  0.2602
  105SAPE  C21910764   5.834   3.062   4.719 -0.3296 -0.4506 -0.1432
  105SAPE  H19R10765   5.825   2.967   4.661  2.1559  0.0643 -1.5230
  105SAPE  H19S10766   5.739   3.116   4.700 -0.5788 -0.3808  1.2393
  105SAPE  C22010767   5.860   3.027   4.864 -0.4267 -0.7964 -0.2634
  105SAPE  H20R10768   5.864   3.121   4.923 -1.1375  0.3601 -1.9727
  105SAPE  H20S10769   5.957   2.972   4.863 -0.0959 -0.2202 -1.5410
  105SAPE  H20T10770   5.779   2.964   4.906  0.6058 -1.3875  0.9185
  105SAPE   C3310771   6.889   3.990   3.398 -0.5528  0.0695  0.1741
  105SAPE   H3X10772   6.990   4.002   3.352 -0.5579 -0.3420  0.0578
  105SAPE   H3Y10773   6.861   3.884   3.412  2.4983 -1.0678 -1.2778
  105SAPE   C3410774   6.888   4.070   3.523 -0.3882 -0.8172  0.0605
  105SAPE   H4X10775   6.795   4.048   3.579 -0.6994 -1.8484 -0.8442
  105SAPE   H4Y10776   6.884   4.178   3.498 -2.6216 -0.1760  2.7136
  105SAPE   C3510777   7.005   4.063   3.621 -0.1289 -0.0920 -0.7786
  105SAPE   H5X10778   6.991   4.145   3.695  2.3252 -0.6381  0.3886
  105SAPE   H5Y10779   7.101   4.091   3.574 -0.5446  2.3526 -0.2888
  105SAPE   C3610780   6.987   3.936   3.701 -0.2819 -0.1710  0.2451
  105SAPE   H6X10781   7.012   3.841   3.648 -2.5051 -0.7870  0.2015
  105SAPE   H6Y10782   6.879   3.931   3.725  0.1179 -0.8921  2.0208
  105SAPE   C3710783   7.050   3.937   3.839  0.5525 -0.3260 -0.2720
  105SAPE   H7X10784   6.980   3.978   3.915  0.8443 -0.3396  0.0091
  105SAPE   H7Y10785   7.132   4.013   3.839  1.8422 -1.6598 -0.1761
  105SAPE   C3810786   7.093   3.800   3.885 -0.6892 -0.5420 -0.0282
  105SAPE   H8X10787   7.179   3.767   3.823 -0.1980 -0.6242  0.6961
  105SAPE   H8Y10788   7.013   3.728   3.856 -1.3375  0.5812 -1.1351
  105SAPE   C3910789   7.130   3.804   4.040 -0.5064  0.4181  0.7904
  105SAPE   H9X10790   7.049   3.855   4.095  1.2686  4.1089  0.2722
  105SAPE   H9Y10791   7.213   3.876   4.058 -0.0681 -0.0531  0.7204
  105SAPE  C31010792   7.156   3.663   4.100  0.1436  0.7425 -0.1989
  105SAPE  H10X10793   7.238   3.626   4.035 -0.2867  1.0805 -0.9466
  105SAPE  H10Y10794   7.067   3.598   4.086  2.4037 -2.8341  0.5288
  105SAPE  C31110795   7.206   3.674   4.251 -0.1929 -0.0240  0.1880
  105SAPE  H11X10796   7.127   3.705   4.323 -0.9624  1.5795 -1.2854
  105SAPE  H11Y10797   7.274   3.762   4.254  2.5438 -2.0100 -0.1325
  105SAPE  C31210798   7.283   3.555   4.299 -0.3544 -0.4869 -0.4627
  105SAPE  H12X10799   7.383   3.542   4.252 -1.2540 -2.1129 -2.0607
  105SAPE  H12Y10800   7.225   3.463   4.275 -1.2021  0.2776 -1.4334
  105SAPE  C31310801   7.295   3.556   4.455 -0.7406  0.4862  0.3147
  105SAPE  H13X10802   7.193   3.571   4.494 -1.0459  0.4902 -0.4715
  105SAPE  H13Y10803   7.366   3.639   4.477  0.7585 -0.5235 -0.5373
  105SAPE  C31410804   7.359   3.431   4.519  0.2007  0.2488  1.1499
  105SAPE  H14X10805   7.462   3.421   4.478 -0.4239  0.8204 -0.6331
  105SAPE  H14Y10806   7.293   3.349   4.485 -0.1750  0.9466  0.1439
  105SAPE  C31510807   7.349   3.432   4.673  0.3865 -0.2188 -0.4631
  105SAPE  H15X10808   7.249   3.460   4.713  0.2413 -0.0599 -0.9234
  105SAPE  H15Y10809   7.426   3.493   4.726  0.1749 -1.6027  1.5333
  105SAPE  C31610810   7.375   3.285   4.731  0.6357  0.1349 -0.6777
  105SAPE  H16X10811   7.469   3.245   4.687 -0.0611 -0.1937 -1.8867
  105SAPE  H16Y10812   7.291   3.219   4.701 -2.4669  1.5309  3.8600
  105SAPE  C31710813   7.384   3.288   4.884 -0.4807 -0.3515  0.2763
  105SAPE  H17X10814   7.282   3.306   4.924  0.1374  2.3897  0.7842
  105SAPE  H17Y10815   7.439   3.380   4.912  0.9249 -0.2102 -2.4998
  105SAPE  C31810816   7.460   3.164   4.934  0.7343  0.4742  0.1944
  105SAPE  H18X10817   7.567   3.166   4.904  0.5150 -0.3738 -0.6658
  105SAPE  H18Y10818   7.408   3.075   4.893  0.6813  0.5319  0.1360
  105SAPE  H18Z10819   7.463   3.157   5.045  1.9937 -4.2567  0.0763
  106SAPE     N10820   1.827   0.869   2.748 -0.1212  0.0218 -0.2672
  106SAPE   HN110821   1.894   0.905   2.676  0.7475 -1.8885 -0.4646
  106SAPE   HN210822   1.809   0.771   2.719 -3.8199  0.8695 -1.3442
  106SAPE   HN310823   1.738   0.918   2.725 -0.7457 -1.6629 -1.6740
  106SAPE   C1210824   1.872   0.885   2.888  0.0415 -0.3650  0.4125
  106SAPE  H12A10825   1.961   0.818   2.895  0.8109  0.5766 -0.1342
  106SAPE  H12B10826   1.794   0.855   2.962 -0.0327 -1.1682  0.0218
  106SAPE   C1110827   1.931   1.031   2.914 -0.3088  0.6503  0.6668
  106SAPE  H11A10828   1.983   1.049   3.010  1.8159  1.2807 -0.5351
  106SAPE  H11B10829   1.837   1.089   2.905 -0.1333  0.7494 -0.8220
  106SAPE     P10830   2.043   1.234   2.785  0.2008 -0.2259  0.3320
  106SAPE   O1310831   2.150   1.241   2.684 -0.5863 -0.0478  0.3624
  106SAPE   O1410832   1.916   1.304   2.749  0.5626 -0.2630 -0.1863
  106SAPE   O1210833   2.008   1.085   2.806 -0.2609  0.2481 -0.6153
  106SAPE   O1110834   2.083   1.266   2.936 -0.8126  0.2163  0.4723
  106SAPE    C110835   2.210   1.322   2.959  0.5165  0.0573 -0.2208
  106SAPE    HA10836   2.289   1.260   2.913  0.6221  0.2836 -0.3489
  106SAPE    HB10837   2.223   1.419   2.906  0.4864 -0.3368 -0.9592
  106SAPE    C210838   2.241   1.342   3.116 -0.0989  0.1482  1.6398
  106SAPE    HS10839   2.238   1.237   3.153  1.1202 -1.2237 -1.7317
  106SAPE   O2110840   2.155   1.436   3.175  0.3091 -0.2661 -0.0591
  106SAPE   C2110841   2.113   1.405   3.294  0.3678 -0.6032  0.0800
  106SAPE   O2210842   2.139   1.301   3.352  0.1327  0.4237 -0.8321
  106SAPE   C2210843   2.033   1.518   3.356  0.0714 -0.0030 -0.3204
  106SAPE   H2R10844   2.045   1.607   3.292  3.0543 -0.7230 -0.9367
  106SAPE   H2S10845   1.926   1.487   3.360 -0.1061  0.6621  0.1277
  106SAPE    C310846   2.386   1.395   3.123  0.6131 -0.2208  0.0618
  106SAPE    HX10847   2.394   1.498   3.083  1.1325 -0.7490 -1.2372
  106SAPE    HY10848   2.459   1.333   3.068  1.4889 -0.6870  1.6937
  106SAPE   O3110849   2.426   1.392   3.257  0.1438 -0.7626 -0.5520
  106SAPE   C3110850   2.477   1.279   3.310  0.9117 -0.4584 -0.2630
  106SAPE   O3210851   2.491   1.172   3.250  0.1014 -0.0047  0.1564
  106SAPE   C3210852   2.535   1.315   3.442 -0.0911  0.3965  0.1516
  106SAPE   H2X10853   2.459   1.349   3.516 -0.1981  1.9745 -0.6390
  106SAPE   H2Y10854   2.605   1.401   3.431 -1.9237  2.2202  1.7463
  106SAPE   C2310855   2.089   1.565   3.498  0.1979 -0.6089 -0.1279
  106SAPE   H3R10856   2.042   1.662   3.522  0.7278 -0.4969  0.4490
  106SAPE   H3S10857   2.199   1.573   3.485  0.4139 -0.1729  1.7163
  106SAPE   C2410858   2.066   1.469   3.621 -0.1978  0.1954  0.1502
  106SAPE   H4R10859   2.110   1.510   3.714 -1.3281  2.6670 -0.3195
  106SAPE   H4S10860   2.127   1.380   3.595 -0.7519  0.2486 -1.4365
  106SAPE   C2510861   1.922   1.435   3.649 -0.5447  0.1662 -0.2240
  106SAPE   H5R10862   1.876   1.371   3.572 -0.7382 -1.0492  0.8588
  106SAPE   C2610863   1.858   1.452   3.769 -0.1930  0.0005 -0.4629
  106SAPE   H6R10864   1.753   1.419   3.773 -1.5095  3.7626  0.0579
  106SAPE   C2710865   1.906   1.534   3.885  0.7247 -0.4681  0.0009
  106SAPE   H7R10866   2.017   1.542   3.888  0.6848 -0.1119  2.3889
  106SAPE   H7S10867   1.879   1.493   3.984 -0.5770  3.2360  1.3196
  106SAPE   C2810868   1.833   1.662   3.890 -0.0242  0.2789 -0.1683
  106SAPE   H8R10869   1.772   1.692   3.804 -0.9431 -1.2061 -0.0666
  106SAPE   C2910870   1.850   1.746   3.989  0.1241 -1.3118  0.0714
  106SAPE   H9R10871   1.803   1.845   3.985  0.0582 -1.3648 -0.4091
  106SAPE  C21010872   1.932   1.738   4.118  0.6622  0.9071 -0.2409
  106SAPE  H10R10873   1.986   1.833   4.139  1.1176  0.4962  0.4792
  106SAPE  H10S10874   2.014   1.667   4.097  1.3657  1.4942  0.4261
  106SAPE  C21110875   1.858   1.694   4.241  0.2324 -0.3584 -0.1277
  106SAPE  H11R10876   1.766   1.638   4.219 -1.3957  1.5956  1.2880
  106SAPE  C21210877   1.876   1.730   4.372  0.2434 -0.1865  0.6100
  106SAPE  H12R10878   1.822   1.674   4.449 -0.0026 -0.2543  0.3880
  106SAPE  C21310879   1.990   1.823   4.416  0.1584 -0.4591 -0.0871
  106SAPE  H13R10880   1.951   1.927   4.410 -1.2318 -0.8525  1.2532
  106SAPE  H13S10881   2.079   1.821   4.351  0.7183 -0.7303  0.6685
  106SAPE  C21410882   2.015   1.793   4.558  0.3824  0.0965  0.0839
  106SAPE  H14R10883   2.011   1.685   4.580  0.1028  0.1102  0.1022
  106SAPE  C21510884   2.036   1.878   4.656  0.1762  0.2959 -0.0455
  106SAPE  H15R10885   2.068   1.849   4.757  0.9904  2.4139  0.3493
  106SAPE  C21610886   2.033   2.031   4.637  0.7079 -0.0669 -0.2389
  106SAPE  H16R10887   2.087   2.060   4.545  4.0664 -2.7097  0.7096
  106SAPE  H16S10888   2.093   2.083   4.715  1.2372 -0.0867 -0.6309
  106SAPE  C21710889   1.892   2.095   4.651 -0.6517  0.2583 -0.0661
  106SAPE  H17R10890   1.814   2.036   4.598 -0.5822  0.9427 -0.9654
  106SAPE  H17S10891   1.883   2.196   4.604  0.3960  1.2406  1.7645
  106SAPE  C21810892   1.859   2.103   4.805 -0.3084 -0.0288  0.9324
  106SAPE  H18R10893   1.938   2.159   4.859 -0.0263 -0.2545  0.7547
  106SAPE  H18S10894   1.856   1.998   4.842  0.7320  0.0871  1.3856
  106SAPE  C21910895   1.725   2.170   4.824 -0.0283  0.8736  0.3384
  106SAPE  H19R10896   1.659   2.142   4.740  0.0889  0.7013  0.3035
  106SAPE  H19S10897   1.745   2.279   4.826  2.2138  0.5066  1.0015
  106SAPE  C22010898   1.655   2.137   4.955  0.1362 -0.2525 -0.4169
  106SAPE  H20R10899   1.714   2.178   5.040  0.9084  1.1548 -1.5753
  106SAPE  H20S10900   1.643   2.026   4.955  1.1349 -0.4378  2.3366
  106SAPE  H20T10901   1.555   2.183   4.949 -1.0066 -2.4298  0.7430
  106SAPE   C3310902   2.608   1.201   3.521  0.6347  0.0178  0.4511
  106SAPE   H3X10903   2.689   1.157   3.460  0.3410  1.5702 -1.1590
  106SAPE   H3Y10904   2.538   1.116   3.535  1.1229 -0.3050  1.0021
  106SAPE   C3410905   2.655   1.237   3.668  0.5186  0.2308 -0.8961
  106SAPE   H4X10906   2.608   1.336   3.687  1.3391  0.6908 -1.2229
  106SAPE   H4Y10907   2.766   1.245   3.668  0.8538 -2.8649 -2.3226
  106SAPE   C3510908   2.607   1.137   3.771 -0.4043 -0.7557 -0.5724
  106SAPE   H5X10909   2.663   1.044   3.749  0.7183  0.0544 -1.2694
  106SAPE   H5Y10910   2.499   1.114   3.771 -0.3272 -1.1294  0.1830
  106SAPE   C3610911   2.648   1.180   3.913 -0.6098 -0.2763 -0.8134
  106SAPE   H6X10912   2.598   1.274   3.946  1.3160 -0.3141  2.8702
  106SAPE   H6Y10913   2.759   1.190   3.920 -0.4897 -0.6876 -2.0125
  106SAPE   C3710914   2.617   1.064   4.011  0.2362  0.7669  0.0415
  106SAPE   H7X10915   2.634   0.969   3.958 -4.5350  0.0873 -0.7440
  106SAPE   H7Y10916   2.506   1.057   4.021  0.0569 -0.7182 -2.2497
  106SAPE   C3810917   2.669   1.090   4.146  0.0011 -0.4410  0.3880
  106SAPE   H8X10918   2.658   1.196   4.177  2.2083 -0.6652  2.1961
  106SAPE   H8Y10919   2.779   1.079   4.137 -0.1978 -0.8352 -2.8439
  106SAPE   C3910920   2.609   1.002   4.261 -0.4848 -0.0721  1.0446
  106SAPE   H9X10921   2.499   1.016   4.264 -0.6498 -1.2283  0.9148
  106SAPE   H9Y10922   2.643   1.043   4.359 -1.1108 -0.5562  1.4683
  106SAPE  C31010923   2.658   0.851   4.246 -0.0363  0.5184  0.3577
  106SAPE  H10X10924   2.767   0.831   4.250 -0.1033  0.3130  2.6272
  106SAPE  H10Y10925   2.628   0.804   4.150  1.8067  1.2286 -0.6184
  106SAPE  C31110926   2.591   0.767   4.352  0.1920  0.0762  0.4695
  106SAPE  H11X10927   2.579   0.664   4.312 -0.5423  0.6267 -0.7848
  106SAPE  H11Y10928   2.489   0.809   4.359  0.9655  1.9224  1.4635
  106SAPE  C31210929   2.670   0.754   4.482 -0.7292 -0.6596 -0.2404
  106SAPE  H12X10930   2.751   0.830   4.476 -0.1520 -1.3032 -0.7607
  106SAPE  H12Y10931   2.717   0.653   4.486  1.0648  0.1390  0.0347
  106SAPE  C31310932   2.581   0.794   4.603  1.0622  0.4335  0.7296
  106SAPE  H13X10933   2.554   0.902   4.595  1.7899  0.5041 -1.7607
  106SAPE  H13Y10934   2.643   0.777   4.693  2.8840  1.0378 -0.3648
  106SAPE  C31410935   2.456   0.699   4.611 -0.5899  0.3501 -0.1223
  106SAPE  H14X10936   2.491   0.596   4.631 -1.3110  0.2118  0.4517
  106SAPE  H14Y10937   2.409   0.685   4.511  0.8266  0.2648 -0.7939
  106SAPE  C31510938   2.347   0.735   4.719 -0.1322 -0.1916 -0.4244
  106SAPE  H15X10939   2.263   0.663   4.709  0.9340 -1.4172 -0.8757
  106SAPE  H15Y10940   2.314   0.837   4.690 -0.5538 -0.8180 -2.3007
  106SAPE  C31610941   2.386   0.740   4.861 -0.3471  0.4556 -0.5906
  106SAPE  H16X10942   2.319   0.793   4.932  1.3698  1.0209  0.7016
  106SAPE  H16Y10943   2.484   0.793   4.863  1.1717 -1.8652 -3.8908
  106SAPE  C31710944   2.423   0.594   4.921 -0.0803  0.1171  0.3151
  106SAPE  H17X10945   2.475   0.624   5.015  0.2916  2.1921 -0.4811
  106SAPE  H17Y10946   2.488   0.546   4.845  2.1554  2.7452  0.4015
  106SAPE  C31810947   2.303   0.513   4.970 -0.3177  0.3843 -0.1543
  106SAPE  H18X10948   2.336   0.437   5.044  2.7166  1.5343 -0.1800
  106SAPE  H18Y10949   2.256   0.464   4.882 -0.6888 -0.2353  0.3830
  106SAPE  H18Z10950   2.223   0.572   5.019 -1.1638 -0.0451 -0.9973
  107SAPE     N10951   6.623   6.446   2.977  0.0248 -0.2951  0.0360
  107SAPE   HN110952   6.649   6.391   2.892 -1.2134 -0.2151 -0.4235
  107SAPE   HN210953   6.701   6.489   3.030 -1.4945  1.8965  0.6021
  107SAPE   HN310954   6.559   6.388   3.035 -4.1864  2.8671 -0.9863
  107SAPE   C1210955   6.546   6.563   2.923  0.4022 -0.0394 -0.0053
  107SAPE  H12A10956   6.512   6.606   3.020 -0.1713 -2.0640  0.7416
  107SAPE  H12B10957   6.454   6.527   2.872  1.2223 -1.5127 -0.5169
  107SAPE   C1110958   6.640   6.651   2.840  0.4437 -0.2642 -0.3963
  107SAPE  H11A10959   6.726   6.668   2.908 -0.0636 -0.2579  0.2546
  107SAPE  H11B10960   6.583   6.745   2.829 -1.6549 -1.2866  1.0847
  107SAPE     P10961   6.715   6.695   2.597  0.1560 -0.3001 -0.3102
  107SAPE   O1310962   6.821   6.643   2.514 -0.3433  0.1153  0.3527
  107SAPE   O1410963   6.580   6.702   2.536  0.5108  0.1448  0.7675
  107SAPE   O1210964   6.695   6.593   2.723 -1.1067 -0.0354  0.1365
  107SAPE   O1110965   6.772   6.827   2.654 -0.0990 -0.1826  0.5098
  107SAPE    C110966   6.916   6.842   2.693 -0.0879  0.0128  0.0085
  107SAPE    HA10967   6.977   6.749   2.686  1.0988  0.2013  4.5600
  107SAPE    HB10968   6.953   6.909   2.614 -0.3851  0.1073 -0.0540
  107SAPE    C210969   6.915   6.909   2.835  0.0162  0.0449 -0.3132
  107SAPE    HS10970   6.852   6.841   2.896 -0.0524  2.0062  1.9213
  107SAPE   O2110971   6.854   7.036   2.824  0.2517 -0.2001  0.2171
  107SAPE   C2110972   6.792   7.071   2.930  0.7524  0.1336  0.2806
  107SAPE   O2210973   6.777   6.998   3.031 -0.2508 -0.0167 -0.2465
  107SAPE   C2210974   6.716   7.199   2.917 -0.0222 -0.3651  0.1763
  107SAPE   H2R10975   6.680   7.204   2.812  1.5688  0.2142 -0.3724
  107SAPE   H2S10976   6.635   7.191   2.992  0.2519  1.0654  0.6613
  107SAPE    C310977   7.061   6.906   2.907 -0.3752  0.3992  0.7767
  107SAPE    HX10978   7.121   6.983   2.854  0.0506 -0.5512 -0.1817
  107SAPE    HY10979   7.099   6.806   2.877 -1.7296  0.0508  0.1281
  107SAPE   O3110980   7.057   6.933   3.047  0.0581  0.0782 -0.4473
  107SAPE   C3110981   7.015   6.843   3.126  0.0720 -0.8102 -0.4329
  107SAPE   O3210982   6.996   6.730   3.096  0.2084  0.5897  0.0507
  107SAPE   C3210983   7.012   6.908   3.267  0.0242 -1.0651 -0.6184
  107SAPE   H2X10984   6.921   6.971   3.270  0.8554  0.2083 -1.1633
  107SAPE   H2Y10985   7.099   6.973   3.293 -0.3261 -1.3708  1.4744
  107SAPE   C2310986   6.799   7.324   2.959  0.0740 -0.0149  0.1471
  107SAPE   H3R10987   6.808   7.390   2.870  1.2853  0.4783  0.6097
  107SAPE   H3S10988   6.901   7.284   2.981  0.8208  1.2567 -0.8314
  107SAPE   C2410989   6.748   7.398   3.080 -0.0851  1.0751 -0.2422
  107SAPE   H4R10990   6.713   7.319   3.149  0.1024  0.8386 -0.4170
  107SAPE   H4S10991   6.655   7.455   3.056  0.2816  1.5347 -0.5953
  107SAPE   C2510992   6.849   7.483   3.144  0.2280 -0.7655 -0.2791
  107SAPE   H5R10993   6.850   7.584   3.102 -2.3341 -0.4237  0.3318
  107SAPE   C2610994   6.920   7.453   3.257  0.7987  0.5271 -0.3523
  107SAPE   H6R10995   6.988   7.525   3.304  0.5172  0.9581 -0.5971
  107SAPE   C2710996   6.919   7.319   3.320  1.1022  0.3614 -0.1153
  107SAPE   H7R10997   6.879   7.237   3.256 -1.7097 -0.0303  1.9267
  107SAPE   H7S10998   6.841   7.332   3.399  1.4266  1.2475  0.0662
  107SAPE   C2810999   7.052   7.267   3.380 -0.0584  0.3047 -0.5330
  107SAPE   H8R11000   7.131   7.246   3.307  1.6821 -0.3963  1.4370
  107SAPE   C2911001   7.089   7.267   3.512  0.5402  0.2759  0.0262
  107SAPE   H9R11002   7.192   7.237   3.536 -0.3607 -1.9265  1.3942
  107SAPE  C21011003   6.996   7.310   3.627 -0.4547 -0.1225  0.7072
  107SAPE  H10R11004   6.890   7.300   3.598 -0.9891  0.8847  2.1685
  107SAPE  H10S11005   7.014   7.418   3.647  1.6224  0.1025 -1.8618
  107SAPE  C21111006   7.002   7.224   3.751 -0.1423  0.0772  0.7469
  107SAPE  H11R11007   7.070   7.137   3.745  1.1939  1.1910 -1.9313
  107SAPE  C21211008   6.953   7.264   3.869 -0.4480  0.1313 -0.3480
  107SAPE  H12R11009   6.965   7.191   3.950 -1.9740 -0.0567 -0.2484
  107SAPE  C21311010   6.882   7.394   3.898  0.1101  0.6407 -0.2733
  107SAPE  H13R11011   6.773   7.382   3.911 -0.3831  0.9975 -3.3572
  107SAPE  H13S11012   6.895   7.468   3.816 -0.8532 -1.7703 -2.7539
  107SAPE  C21411013   6.931   7.454   4.026  0.4120 -0.0146 -0.7424
  107SAPE  H14R11014   7.003   7.536   4.014  0.1062  0.8458  2.3097
  107SAPE  C21511015   6.922   7.415   4.157 -0.4723  0.2305  0.1380
  107SAPE  H15R11016   6.968   7.476   4.236 -1.0239  0.6410  0.1469
  107SAPE  C21611017   6.857   7.293   4.213  0.6890 -0.5095 -0.2610
  107SAPE  H16R11018   6.930   7.217   4.248  0.8221 -0.4585 -0.4293
  107SAPE  H16S11019   6.790   7.239   4.143  1.4502 -0.8970 -0.6978
  107SAPE  C21711020   6.765   7.334   4.333  0.3333  0.8017 -0.9697
  107SAPE  H17R11021   6.693   7.411   4.299  0.1965  1.2688  0.3179
  107SAPE  H17S11022   6.825   7.392   4.407  1.0777  1.3676 -1.9838
  107SAPE  C21811023   6.686   7.213   4.382 -0.2957 -0.2987 -0.1429
  107SAPE  H18R11024   6.756   7.158   4.449 -0.5276  0.8993  1.1319
  107SAPE  H18S11025   6.665   7.146   4.295  0.1141  0.2868 -0.6991
  107SAPE  C21911026   6.560   7.245   4.460  0.0429 -0.1878  0.2066
  107SAPE  H19R11027   6.497   7.312   4.397 -0.6013  0.2954  1.3441
  107SAPE  H19S11028   6.587   7.296   4.554  1.8066  2.1304 -1.4378
  107SAPE  C22011029   6.478   7.120   4.497 -0.2747 -0.0755 -0.1561
  107SAPE  H20R11030   6.379   7.152   4.536 -0.1765  2.4084 -1.7440
  107SAPE  H20S11031   6.525   7.056   4.575 -0.5752  0.8676  0.8255
  107SAPE  H20T11032   6.458   7.068   4.401 -1.8030  0.5300 -0.1839
  107SAPE   C3311033   7.018   6.798   3.380  0.0397 -0.4369  0.3466
  107SAPE   H3X11034   7.114   6.743   3.373  1.6671  2.1927  0.8630
  107SAPE   H3Y11035   6.929   6.732   3.367  0.7913 -1.3763 -0.1952
  107SAPE   C3411036   6.999   6.866   3.518 -0.2855  0.2453  0.4002
  107SAPE   H4X11037   6.906   6.927   3.520 -2.3478 -2.6308 -0.1130
  107SAPE   H4Y11038   7.083   6.939   3.518 -2.4160  2.8396  0.0764
  107SAPE   C3511039   6.997   6.767   3.631 -0.1666 -0.2482 -0.0403
  107SAPE   H5X11040   7.092   6.714   3.651  0.5794 -0.0398 -2.6656
  107SAPE   H5Y11041   6.914   6.693   3.625 -0.9379  0.6755 -1.3728
  107SAPE   C3611042   6.978   6.849   3.763 -0.5937  0.2552 -0.3091
  107SAPE   H6X11043   6.881   6.901   3.757 -0.5296  0.3360 -0.7260
  107SAPE   H6Y11044   7.061   6.923   3.769 -0.4256  0.0563 -0.1580
  107SAPE   C3711045   6.969   6.775   3.895 -0.4253  0.3285  0.5632
  107SAPE   H7X11046   7.071   6.737   3.916 -0.0455  0.6020 -0.7050
  107SAPE   H7Y11047   6.908   6.682   3.889 -1.4218  0.9853  0.2818
  107SAPE   C3811048   6.920   6.860   4.012  0.0912  0.8015  0.6745
  107SAPE   H8X11049   6.815   6.883   3.983 -0.4277 -0.1084  1.7746
  107SAPE   H8Y11050   6.976   6.955   4.022  2.1040 -0.4415  1.9213
  107SAPE   C3911051   6.924   6.791   4.147 -0.9252  1.0141 -0.1222
  107SAPE   H9X11052   7.023   6.757   4.184 -1.5569  1.1989  1.8300
  107SAPE   H9Y11053   6.857   6.702   4.139 -0.2257  0.4378  0.2880
  107SAPE  C31011054   6.872   6.867   4.263 -0.7202  0.5922 -0.3413
  107SAPE  H10X11055   6.773   6.912   4.243 -1.5500 -1.3993 -0.9229
  107SAPE  H10Y11056   6.951   6.944   4.277 -0.1134 -0.0365 -0.2669
  107SAPE  C31111057   6.859   6.781   4.392  0.3947  0.6197 -0.2515
  107SAPE  H11X11058   6.948   6.718   4.415 -0.4889 -0.1645  1.1602
  107SAPE  H11Y11059   6.773   6.713   4.371  0.2194  1.3049 -1.8665
  107SAPE  C31211060   6.844   6.867   4.522  0.1868  0.0175  0.1736
  107SAPE  H12X11061   6.735   6.878   4.540 -0.3092 -1.7464 -1.4527
  107SAPE  H12Y11062   6.888   6.966   4.497  1.2504 -0.5674 -0.3424
  107SAPE  C31311063   6.912   6.809   4.647 -0.0367  0.4275  0.3556
  107SAPE  H13X11064   6.897   6.873   4.737 -1.4734  0.5317  0.0675
  107SAPE  H13Y11065   7.019   6.799   4.619  0.1969 -2.4947  2.0052
  107SAPE  C31411066   6.858   6.673   4.675 -0.3605 -0.0582 -0.5306
  107SAPE  H14X11067   6.830   6.618   4.583 -0.4388  1.0252 -1.1701
  107SAPE  H14Y11068   6.758   6.692   4.720 -1.3147 -2.8225 -1.2586
  107SAPE  C31511069   6.945   6.584   4.769 -0.2264 -0.2808  0.7021
  107SAPE  H15X11070   6.975   6.641   4.859  3.2342 -0.2078 -0.3295
  107SAPE  H15Y11071   7.041   6.561   4.718 -0.1843  0.1899  0.5695
  107SAPE  C31611072   6.879   6.457   4.811 -0.5893  0.6653 -0.1230
  107SAPE  H16X11073   6.823   6.405   4.730  1.0498  0.7075 -1.3391
  107SAPE  H16Y11074   6.807   6.490   4.888 -0.2526  0.0874  0.4446
  107SAPE  C31711075   6.981   6.356   4.872  0.1476 -0.1854 -0.1341
  107SAPE  H17X11076   7.043   6.408   4.948 -0.8482 -0.4018  0.8523
  107SAPE  H17Y11077   7.048   6.316   4.793 -0.7512 -3.4628  0.5742
  107SAPE  C31811078   6.907   6.239   4.938 -0.2283 -0.6905  0.3828
  107SAPE  H18X11079   6.890   6.255   5.046 -3.1047  1.2173 -0.2564
  107SAPE  H18Y11080   6.966   6.145   4.942 -0.0375 -0.7444 -1.9766
  107SAPE  H18Z11081   6.812   6.222   4.883 -0.5660  1.1108  0.3537
  108SAPE     N11082   1.299   0.739   3.076 -0.0423  0.4810 -0.7936
  108SAPE   HN111083   1.240   0.821   3.051 -2.5782 -1.2325 -0.8389
  108SAPE   HN211084   1.264   0.662   3.015 -0.3350  2.5500 -3.3747
  108SAPE   HN311085   1.287   0.716   3.177  0.1831  0.1591 -0.8370
  108SAPE   C1211086   1.443   0.772   3.059 -0.5878  0.1158 -0.1020
  108SAPE  H12A11087   1.503   0.682   3.086  0.8999  0.7607 -1.0753
  108SAPE  H12B11088   1.467   0.858   3.125  1.6207 -0.2312 -0.3659
  108SAPE   C1111089   1.484   0.803   2.911 -0.4449 -0.0729 -0.7142
  108SAPE  H11A11090   1.469   0.709   2.854  0.6137 -2.1118  2.1163
  108SAPE  H11B11091   1.594   0.818   2.906 -0.3266 -0.3317  0.7208
  108SAPE     P11092   1.488   1.050   2.816 -0.3681  0.6041  0.1467
  108SAPE   O1311093   1.600   1.023   2.724 -0.2222  0.0757  0.4602
  108SAPE   O1411094   1.394   1.150   2.764  0.1417 -0.4755  0.2748
  108SAPE   O1211095   1.412   0.914   2.853 -0.4565  0.6581 -0.4842
  108SAPE   O1111096   1.540   1.103   2.950 -0.2541 -0.2162  0.3708
  108SAPE    C111097   1.469   1.176   3.048  0.2162 -0.4687 -0.0274
  108SAPE    HA11098   1.476   1.285   3.028  0.8970 -0.5320 -0.1664
  108SAPE    HB11099   1.361   1.153   3.050  0.3563 -1.2617 -0.7601
  108SAPE    C211100   1.529   1.147   3.189 -0.4483  0.2587 -0.0843
  108SAPE    HS11101   1.521   1.037   3.203  1.4533  0.2734  1.6422
  108SAPE   O2111102   1.442   1.211   3.285 -0.0984 -0.2755 -0.6697
  108SAPE   C2111103   1.455   1.162   3.408  0.0364 -0.0280  0.0005
  108SAPE   O2211104   1.480   1.047   3.437  0.2348  0.0418  0.2658
  108SAPE   C2211105   1.404   1.264   3.507 -0.6486  0.4570  0.2715
  108SAPE   H2R11106   1.435   1.358   3.456 -0.0745 -0.7577 -1.7297
  108SAPE   H2S11107   1.293   1.263   3.509 -0.6802 -1.1611  3.3518
  108SAPE    C311108   1.679   1.207   3.200 -0.0364  0.4645  0.6539
  108SAPE    HX11109   1.680   1.317   3.188  1.7167  0.3690 -0.3977
  108SAPE    HY11110   1.742   1.181   3.112 -0.2993  3.8438 -0.6663
  108SAPE   O3111111   1.741   1.178   3.326  0.1219  0.0351 -0.6671
  108SAPE   C3111112   1.814   1.071   3.321  0.0450  0.7214 -0.7701
  108SAPE   O3211113   1.837   1.001   3.218 -0.2714 -0.4396 -0.0882
  108SAPE   C3211114   1.876   1.041   3.459 -0.2592  0.3692 -0.0169
  108SAPE   H2X11115   1.855   1.127   3.526  0.9674  1.0031 -0.4207
  108SAPE   H2Y11116   1.986   1.044   3.444 -0.5344 -0.9204 -3.1694
  108SAPE   C2311117   1.473   1.247   3.644 -0.1523 -0.2827 -0.5292
  108SAPE   H3R11118   1.582   1.230   3.633 -0.5315 -1.6090 -2.7110
  108SAPE   H3S11119   1.429   1.161   3.698 -0.1976  0.0431 -0.0395
  108SAPE   C2411120   1.472   1.384   3.727  0.1831  0.0837  1.0006
  108SAPE   H4R11121   1.488   1.469   3.657 -0.7453 -0.1984  0.4319
  108SAPE   H4S11122   1.557   1.381   3.798 -0.2001  2.6078  1.6794
  108SAPE   C2511123   1.341   1.402   3.796  0.3287  0.1412 -0.1954
  108SAPE   H5R11124   1.256   1.381   3.728  0.5160  1.4279 -0.8653
  108SAPE   C2611125   1.322   1.435   3.925  0.0688  0.3949 -0.5756
  108SAPE   H6R11126   1.216   1.441   3.957  0.2117 -1.0440  0.2827
  108SAPE   C2711127   1.420   1.463   4.039 -0.0416 -0.4810  0.0310
  108SAPE   H7R11128   1.503   1.391   4.021  1.3197  1.1960 -0.7255
  108SAPE   H7S11129   1.376   1.423   4.133 -0.6705 -0.2671 -0.1640
  108SAPE   C2811130   1.441   1.615   4.046  0.3567  0.5208 -0.7429
  108SAPE   H8R11131   1.459   1.656   3.945 -0.3310  0.6010 -0.8411
  108SAPE   C2911132   1.446   1.694   4.155 -1.1006  0.6613  0.3395
  108SAPE   H9R11133   1.469   1.800   4.138 -2.8574  0.7666 -1.8618
  108SAPE  C21011134   1.429   1.644   4.300  0.2848  0.2607  0.3131
  108SAPE  H10R11135   1.526   1.660   4.351  2.3498  1.0615 -3.4549
  108SAPE  H10S11136   1.414   1.534   4.303  0.9932  0.1683  2.5895
  108SAPE  C21111137   1.319   1.713   4.377 -0.6470  0.4638  0.3842
  108SAPE  H11R11138   1.333   1.821   4.397  1.1730  1.0399 -3.1122
  108SAPE  C21211139   1.200   1.661   4.406 -0.0263 -0.0691  0.5435
  108SAPE  H12R11140   1.132   1.718   4.471 -0.2244 -0.7405  0.9283
  108SAPE  C21311141   1.153   1.526   4.353 -0.0754 -0.4425 -0.0389
  108SAPE  H13R11142   1.200   1.507   4.254 -0.0324 -1.0582  0.0954
  108SAPE  H13S11143   1.045   1.539   4.330  0.0325  0.4459 -0.0679
  108SAPE  C21411144   1.171   1.408   4.445 -0.3917 -0.6565 -0.2968
  108SAPE  H14R11145   1.257   1.340   4.435 -1.7877 -2.6075  0.1464
  108SAPE  C21511146   1.080   1.369   4.530  0.8020 -0.0293 -0.0413
  108SAPE  H15R11147   1.102   1.273   4.579 -1.6275 -0.9219 -0.5820
  108SAPE  C21611148   0.956   1.438   4.582  0.3330 -0.1636  0.1491
  108SAPE  H16R11149   0.868   1.371   4.591  0.4297 -0.2244  0.6783
  108SAPE  H16S11150   0.919   1.513   4.509 -2.0582 -2.4235 -1.1399
  108SAPE  C21711151   0.984   1.513   4.715  0.0239  0.3704  0.1063
  108SAPE  H17R11152   0.902   1.584   4.742  0.2787  0.2898  1.1337
  108SAPE  H17S11153   1.064   1.588   4.701 -1.3137  1.5614 -1.7856
  108SAPE  C21811154   1.020   1.425   4.837  0.3881 -0.3691 -0.4308
  108SAPE  H18R11155   1.130   1.414   4.851  0.2670  0.2899  1.2564
  108SAPE  H18S11156   0.977   1.325   4.814 -0.7511  0.1545 -0.6211
  108SAPE  C21911157   0.957   1.471   4.966  0.5741 -0.2652 -0.1491
  108SAPE  H19R11158   0.847   1.473   4.953  0.5122 -2.3035 -0.1971
  108SAPE  H19S11159   0.993   1.573   4.991 -0.5094 -0.1328  0.9400
  108SAPE  C22011160   0.971   1.374   5.084  0.0962  0.4867 -0.3858
  108SAPE  H20R11161   0.913   1.282   5.064  1.0844 -0.1309 -0.4644
  108SAPE  H20S11162   0.936   1.420   5.179 -1.5160 -1.9967  0.3277
  108SAPE  H20T11163   1.076   1.342   5.099 -0.0563  0.7847  1.5655
  108SAPE   C3311164   1.831   0.905   3.520 -0.3908 -0.8394  0.0522
  108SAPE   H3X11165   1.918   0.855   3.568  0.7422  2.8587  2.3468
  108SAPE   H3Y11166   1.788   0.833   3.447  0.2271 -1.0172 -0.1390
  108SAPE   C3411167   1.726   0.921   3.628  0.5284 -0.3927 -0.7595
  108SAPE   H4X11168   1.684   0.821   3.654 -0.7138  0.0045 -1.1808
  108SAPE   H4Y11169   1.640   0.980   3.591  0.3974 -1.3499 -2.0259
  108SAPE   C3511170   1.796   0.981   3.753  0.2425  0.1936 -0.5211
  108SAPE   H5X11171   1.900   0.944   3.766 -1.1072 -3.2575  1.8775
  108SAPE   H5Y11172   1.814   1.089   3.734 -0.2324  0.0555 -1.8852
  108SAPE   C3611173   1.713   0.959   3.875  0.1024  0.3382 -0.5600
  108SAPE   H6X11174   1.780   0.978   3.962 -0.3894 -5.3439  1.4318
  108SAPE   H6Y11175   1.702   0.851   3.896  0.6162  0.3150 -0.3840
  108SAPE   C3711176   1.576   1.028   3.889 -0.3764  0.0064 -0.6297
  108SAPE   H7X11177   1.496   0.988   3.823 -2.3436  1.7059  0.5949
  108SAPE   H7Y11178   1.587   1.135   3.860 -1.7495  0.3062 -0.1016
  108SAPE   C3811179   1.526   1.019   4.028 -0.2075 -0.5348 -0.9956
  108SAPE   H8X11180   1.609   1.065   4.085  1.0416 -2.2631 -1.3289
  108SAPE   H8Y11181   1.518   0.911   4.055  1.5542 -0.7131 -1.0796
  108SAPE   C3911182   1.392   1.081   4.059 -0.1569  0.2104  1.3668
  108SAPE   H9X11183   1.318   1.002   4.033  0.4935 -0.4217  1.4116
  108SAPE   H9Y11184   1.379   1.167   3.989 -2.7964  0.3250  1.8757
  108SAPE  C31011185   1.374   1.116   4.203  0.1815  0.1177 -0.6078
  108SAPE  H10X11186   1.268   1.147   4.213  0.1775  0.6088 -1.9809
  108SAPE  H10Y11187   1.430   1.207   4.230  2.6533 -0.7656 -2.3549
  108SAPE  C31111188   1.416   1.009   4.301  0.1481  0.2327  0.2410
  108SAPE  H11X11189   1.526   0.990   4.304 -0.0379 -1.1505 -0.6547
  108SAPE  H11Y11190   1.365   0.913   4.280  1.7017 -1.1495  2.3667
  108SAPE  C31211191   1.381   1.071   4.437 -0.1084 -0.0758 -1.4876
  108SAPE  H12X11192   1.274   1.099   4.434 -0.5642 -1.0075  1.7455
  108SAPE  H12Y11193   1.444   1.162   4.448  1.6516 -1.2133 -1.7357
  108SAPE  C31311194   1.402   0.981   4.566  0.2551  0.2232 -0.1999
  108SAPE  H13X11195   1.498   0.925   4.566 -0.2227 -0.7354  2.5825
  108SAPE  H13Y11196   1.328   0.897   4.566  1.2377 -0.6698 -0.7923
  108SAPE  C31411197   1.395   1.061   4.698 -0.1537 -0.0806 -0.2435
  108SAPE  H14X11198   1.306   1.127   4.700 -0.6044 -0.6892  0.1160
  108SAPE  H14Y11199   1.482   1.129   4.709 -2.2995  2.5261  1.6812
  108SAPE  C31511200   1.389   0.971   4.834 -0.2462 -0.1003 -0.0413
  108SAPE  H15X11201   1.300   0.905   4.827 -0.2247 -0.2451  0.9839
  108SAPE  H15Y11202   1.367   1.041   4.917  1.4116 -0.2419  0.5517
  108SAPE  C31611203   1.515   0.891   4.873  0.4154  0.4681  0.1433
  108SAPE  H16X11204   1.607   0.954   4.871 -0.8620  2.4969 -2.5824
  108SAPE  H16Y11205   1.528   0.806   4.802 -0.6321  0.9658 -0.6718
  108SAPE  C31711206   1.508   0.839   5.019 -0.1023  0.0245  0.0876
  108SAPE  H17X11207   1.402   0.812   5.038 -0.3888  3.3112  4.9732
  108SAPE  H17Y11208   1.523   0.926   5.088  1.0295  0.9906 -1.3209
  108SAPE  C31811209   1.603   0.727   5.046  0.5225  0.3432 -0.1185
  108SAPE  H18X11210   1.595   0.698   5.153  2.9715 -1.5056 -0.3448
  108SAPE  H18Y11211   1.711   0.752   5.043  1.0154 -1.2221  2.1856
  108SAPE  H18Z11212   1.590   0.627   5.000 -2.3500 -0.3374  1.9281
  109SAPE     N11213   4.417   5.912   2.624 -0.7273  0.2678  0.2019
  109SAPE   HN111214   4.329   5.880   2.669  0.1285  0.5385  2.1755
  109SAPE   HN211215   4.483   5.963   2.685 -0.4779 -2.4043  2.3617
  109SAPE   HN311216   4.390   5.970   2.543 -0.1781  0.0008 -0.1829
  109SAPE   C1211217   4.478   5.774   2.596 -0.4843 -1.0769  0.4465
  109SAPE  H12A11218   4.573   5.795   2.542 -1.1473  0.6574 -0.0891
  109SAPE  H12B11219   4.404   5.722   2.532 -1.2448  0.8532 -0.3142
  109SAPE   C1111220   4.508   5.701   2.728 -0.5309 -0.1810  0.3945
  109SAPE  H11A11221   4.534   5.597   2.698  0.5576 -0.4930  2.2675
  109SAPE  H11B11222   4.417   5.701   2.791 -0.0897  0.8457  1.0663
  109SAPE     P11223   4.660   5.854   2.886 -0.1939  0.4287 -0.1060
  109SAPE   O1311224   4.802   5.860   2.914 -0.1683 -0.3379  0.1130
  109SAPE   O1411225   4.597   5.973   2.827  0.7450  0.7409 -0.7690
  109SAPE   O1211226   4.629   5.737   2.789  0.1536  0.5298 -0.1209
  109SAPE   O1111227   4.580   5.824   3.014 -0.8106  0.1482 -0.0681
  109SAPE    C111228   4.586   5.700   3.089  0.3752  0.1301  0.0990
  109SAPE    HA11229   4.486   5.654   3.099 -0.3814  1.4457 -1.0674
  109SAPE    HB11230   4.652   5.617   3.054  0.3289 -1.8107  4.0736
  109SAPE    C211231   4.640   5.722   3.236 -0.9305  0.1542  0.9762
  109SAPE    HS11232   4.626   5.629   3.295  1.3205  0.4205  2.0172
  109SAPE   O2111233   4.578   5.838   3.291 -0.6258  0.3418  0.4096
  109SAPE   C2111234   4.460   5.808   3.345 -0.4334 -0.3552  0.0414
  109SAPE   O2211235   4.428   5.696   3.370 -0.4751 -0.0485 -0.7429
  109SAPE   C2211236   4.376   5.941   3.377 -0.3205 -0.0082  0.8745
  109SAPE   H2R11237   4.440   6.027   3.407 -1.9772  1.4066  0.5856
  109SAPE   H2S11238   4.345   5.969   3.274  3.9724  2.6275  0.0735
  109SAPE    C311239   4.798   5.737   3.230 -0.2700  0.3931 -0.5879
  109SAPE    HX11240   4.817   5.836   3.184 -0.5487  1.1345  0.8437
  109SAPE    HY11241   4.829   5.649   3.169  0.6961 -0.5400  1.1778
  109SAPE   O3111242   4.856   5.736   3.361  0.1150 -0.0329  0.4576
  109SAPE   C3111243   4.890   5.615   3.407  0.2297 -0.5000  0.0753
  109SAPE   O3211244   4.894   5.510   3.341 -0.7679  0.6658  0.3796
  109SAPE   C3211245   4.927   5.629   3.552 -0.6516  0.5512  0.7834
  109SAPE   H2X11246   4.855   5.568   3.610 -0.0862 -2.1716 -1.1600
  109SAPE   H2Y11247   4.916   5.738   3.572  0.9662  1.3088 -1.9095
  109SAPE   C2311248   4.281   5.924   3.497  0.3112  0.1386  0.1316
  109SAPE   H3R11249   4.332   5.863   3.574  0.0308  1.1085  1.1126
  109SAPE   H3S11250   4.188   5.865   3.480 -0.2252  1.2850 -1.1211
  109SAPE   C2411251   4.238   6.056   3.558 -0.5362 -0.6117  0.7499
  109SAPE   H4R11252   4.139   6.024   3.598 -0.2758 -0.9690  1.1165
  109SAPE   H4S11253   4.222   6.134   3.480 -2.1410  0.9301  2.5014
  109SAPE   C2511254   4.348   6.104   3.652 -0.2657 -0.7955  0.6830
  109SAPE   H5R11255   4.443   6.131   3.604 -0.1557  0.1249  1.3882
  109SAPE   C2611256   4.333   6.133   3.781  1.0066 -0.4861 -0.2596
  109SAPE   H6R11257   4.420   6.157   3.844  0.6139 -0.7593  0.3977
  109SAPE   C2711258   4.208   6.119   3.863  0.2957  0.5024 -0.3492
  109SAPE   H7R11259   4.120   6.103   3.797  1.0030 -0.0505 -1.1852
  109SAPE   H7S11260   4.201   6.218   3.913 -2.0384  0.2491 -0.0978
  109SAPE   C2811261   4.228   6.002   3.959  0.6587  0.4823  1.0445
  109SAPE   H8R11262   4.254   5.906   3.913  1.5546  1.3429 -0.3341
  109SAPE   C2911263   4.214   6.020   4.086 -0.5988  0.3163  0.3647
  109SAPE   H9R11264   4.247   5.936   4.150 -1.6625  0.0153  0.5434
  109SAPE  C21011265   4.187   6.145   4.164  0.1915  0.5319  0.1420
  109SAPE  H10R11266   4.121   6.211   4.103 -0.6162  1.4744  1.9644
  109SAPE  H10S11267   4.288   6.189   4.178 -0.2121  0.6890  3.2781
  109SAPE  C21111268   4.116   6.118   4.294 -0.3212 -0.6331  0.1153
  109SAPE  H11R11269   4.123   6.014   4.330 -0.4803 -0.0611  1.8822
  109SAPE  C21211270   4.061   6.212   4.377 -0.7316 -0.6691 -0.3750
  109SAPE  H12R11271   4.022   6.172   4.472  2.3222 -0.2002  1.2087
  109SAPE  C21311272   4.048   6.358   4.354 -0.1304  0.3166 -0.5783
  109SAPE  H13R11273   4.116   6.380   4.269  1.5560 -1.8072  0.1332
  109SAPE  H13S11274   4.092   6.412   4.440 -0.5516 -1.8313  1.0851
  109SAPE  C21411275   3.905   6.399   4.341 -0.6142  0.9563  0.1095
  109SAPE  H14R11276   3.836   6.357   4.416 -0.0976 -0.8159 -0.3627
  109SAPE  C21511277   3.846   6.461   4.235  0.4792 -0.0185  0.9861
  109SAPE  H15R11278   3.738   6.484   4.227  0.7582  0.7056 -1.3703
  109SAPE  C21611279   3.923   6.505   4.115  0.7339 -0.3474 -0.2986
  109SAPE  H16R11280   3.874   6.475   4.021  0.7000 -0.8268 -0.1325
  109SAPE  H16S11281   4.030   6.474   4.109  1.8161  2.7643  0.7195
  109SAPE  C21711282   3.919   6.655   4.120  0.1744 -0.2700 -0.1056
  109SAPE  H17R11283   3.970   6.684   4.214 -1.6169 -0.4536  0.9640
  109SAPE  H17S11284   3.813   6.689   4.113  0.5393  0.8116 -0.5777
  109SAPE  C21811285   3.994   6.728   4.008 -0.1458 -0.0459 -0.3040
  109SAPE  H18R11286   4.103   6.704   4.012 -0.1812 -1.0154 -2.9326
  109SAPE  H18S11287   3.980   6.837   4.024 -0.8316 -0.4195  1.9071
  109SAPE  C21911288   3.948   6.687   3.864  0.2388  0.3609 -0.1267
  109SAPE  H19R11289   3.838   6.697   3.854  0.2201  0.7667  0.3864
  109SAPE  H19S11290   3.964   6.578   3.857 -1.0238  0.0659  1.1056
  109SAPE  C22011291   4.016   6.768   3.758 -0.1092 -0.2278 -0.2140
  109SAPE  H20R11292   4.126   6.755   3.765  0.2874  1.8968 -1.5337
  109SAPE  H20S11293   4.019   6.877   3.778 -0.6126 -0.4260  1.0456
  109SAPE  H20T11294   3.977   6.746   3.657 -1.5520  1.2985 -0.0377
  109SAPE   C3311295   5.069   5.569   3.558 -0.7020  0.3223  0.1879
  109SAPE   H3X11296   5.151   5.622   3.506 -0.6190  0.2632  0.2587
  109SAPE   H3Y11297   5.068   5.463   3.524  1.2284 -0.0596  1.2255
  109SAPE   C3411298   5.115   5.548   3.704 -0.0638 -0.3447 -0.3305
  109SAPE   H4X11299   5.152   5.445   3.724 -0.3874 -0.4842 -0.4386
  109SAPE   H4Y11300   5.026   5.563   3.769 -0.1641 -2.5652  0.1369
  109SAPE   C3511301   5.235   5.643   3.740  0.9163 -0.1103  0.0965
  109SAPE   H5X11302   5.190   5.744   3.750  0.0071 -0.5573  0.6489
  109SAPE   H5Y11303   5.307   5.652   3.656 -0.1287  4.2509 -0.5846
  109SAPE   C3611304   5.309   5.608   3.870 -1.0179  0.8206  0.2180
  109SAPE   H6X11305   5.401   5.670   3.871 -0.6236  0.3074  2.9144
  109SAPE   H6Y11306   5.342   5.502   3.858  0.4828  1.4474 -1.7643
  109SAPE   C3711307   5.212   5.646   3.988 -0.1731  0.3886 -0.0585
  109SAPE   H7X11308   5.128   5.574   3.975  0.5083 -0.3987 -0.1769
  109SAPE   H7Y11309   5.196   5.755   3.974 -0.2168  0.3978  0.0631
  109SAPE   C3811310   5.272   5.627   4.127 -0.0045 -0.0738 -0.3229
  109SAPE   H8X11311   5.378   5.661   4.129 -0.0801  0.1869  2.0018
  109SAPE   H8Y11312   5.265   5.517   4.140 -1.2124 -0.2157 -1.7893
  109SAPE   C3911313   5.201   5.710   4.237 -0.3712  0.1675 -0.1834
  109SAPE   H9X11314   5.093   5.687   4.244 -0.6068  1.3286  0.1668
  109SAPE   H9Y11315   5.212   5.818   4.210  0.5549  0.1737  0.1848
  109SAPE  C31011316   5.267   5.693   4.377 -0.2372  0.3886  0.0873
  109SAPE  H10X11317   5.375   5.714   4.362  0.1039 -0.6226  0.9761
  109SAPE  H10Y11318   5.271   5.587   4.408  2.1632  0.1734 -0.7464
  109SAPE  C31111319   5.203   5.788   4.475 -0.3309 -0.7062 -0.3662
  109SAPE  H11X11320   5.095   5.790   4.449 -0.0782  0.1086 -1.4494
  109SAPE  H11Y11321   5.228   5.895   4.462  0.1959 -0.7064  0.5602
  109SAPE  C31211322   5.212   5.729   4.614  0.4550 -0.5140  0.2448
  109SAPE  H12X11323   5.321   5.728   4.637  0.5706 -1.6414 -0.2496
  109SAPE  H12Y11324   5.196   5.619   4.617  2.2686 -0.8472 -0.7867
  109SAPE  C31311325   5.126   5.806   4.719  1.1972  0.5637  1.0222
  109SAPE  H13X11326   5.135   5.759   4.819  0.9560  1.7316  1.6067
  109SAPE  H13Y11327   5.020   5.797   4.688  1.3080 -0.3606  0.8930
  109SAPE  C31411328   5.152   5.959   4.736 -0.1209  0.1662  0.2762
  109SAPE  H14X11329   5.144   5.997   4.633 -0.7282 -0.3315  0.1323
  109SAPE  H14Y11330   5.251   5.972   4.787  1.1412 -1.0250 -1.7204
  109SAPE  C31511331   5.041   6.023   4.820  0.1426  0.3247 -1.0167
  109SAPE  H15X11332   4.936   6.005   4.787 -1.0362  1.5902  1.7349
  109SAPE  H15Y11333   5.062   6.132   4.824 -0.9731  0.5279 -0.0490
  109SAPE  C31611334   5.046   5.973   4.965  0.3289 -0.2317  0.1333
  109SAPE  H16X11335   5.145   5.974   5.015 -0.7598  0.7795  2.4065
  109SAPE  H16Y11336   5.009   5.868   4.963  0.9669 -0.4711  0.4736
  109SAPE  C31711337   4.952   6.050   5.057  0.3872  0.4799 -0.9643
  109SAPE  H17X11338   4.849   6.053   5.016  0.0509  0.1473 -0.1478
  109SAPE  H17Y11339   4.983   6.155   5.076  2.4497 -0.3366  0.4902
  109SAPE  C31811340   4.939   5.961   5.176  0.0030  0.1495  0.6755
  109SAPE  H18X11341   5.038   5.947   5.225  1.1925 -0.2409 -1.7113
  109SAPE  H18Y11342   4.907   5.857   5.156  2.7089 -0.6499  0.0877
  109SAPE  H18Z11343   4.864   6.008   5.243 -1.2400  2.2457 -1.9864
  110SAPE     N11344   5.108   2.355   2.505 -0.2229 -0.2749  0.0380
  110SAPE   HN111345   5.210   2.377   2.500 -0.2021 -0.6922 -2.5468
  110SAPE   HN211346   5.090   2.283   2.433  1.4357  0.0645 -0.7584
  110SAPE   HN311347   5.057   2.442   2.477  0.9101  0.2061 -0.5811
  110SAPE   C1211348   5.071   2.330   2.646  0.1764 -0.0953 -0.3879
  110SAPE  H12A11349   4.963   2.320   2.668  0.2469  1.8718  1.1532
  110SAPE  H12B11350   5.097   2.418   2.709  0.0752 -2.0408  2.5486
  110SAPE   C1111351   5.150   2.218   2.703 -0.4921  0.5211  0.1147
  110SAPE  H11A11352   5.123   2.205   2.810  1.5156  0.2677  0.6325
  110SAPE  H11B11353   5.259   2.239   2.701 -0.1965 -0.9436 -1.0942
  110SAPE     P11354   5.041   1.978   2.686  0.0227 -0.3178 -0.1336
  110SAPE   O1311355   4.895   2.021   2.665 -0.2163 -0.1630 -0.0089
  110SAPE   O1411356   5.093   1.851   2.637  0.3093  0.0419 -0.8090
  110SAPE   O1211357   5.123   2.096   2.622 -0.6697  0.5915  0.4780
  110SAPE   O1111358   5.072   1.981   2.846  0.3935 -0.0210 -0.5889
  110SAPE    C111359   4.965   1.969   2.939  0.4011  0.6178  0.0131
  110SAPE    HA11360   4.894   2.054   2.928  0.4915  1.1494  2.8034
  110SAPE    HB11361   4.892   1.888   2.915  0.3086  1.4514 -2.9432
  110SAPE    C211362   5.016   1.955   3.089  0.7083 -0.8552  0.0256
  110SAPE    HS11363   5.118   1.998   3.078 -0.2095  0.8816 -3.1957
  110SAPE   O2111364   5.019   1.817   3.126 -0.8522  0.8628  0.8023
  110SAPE   C2111365   5.092   1.801   3.238 -0.5129 -0.4543  0.1434
  110SAPE   O2211366   5.171   1.884   3.286  0.2719 -0.1128  0.4934
  110SAPE   C2211367   5.058   1.665   3.292  1.2269 -0.4357  0.0542
  110SAPE   H2R11368   4.954   1.670   3.329  1.3795 -1.0963  0.5770
  110SAPE   H2S11369   5.069   1.584   3.216 -0.1597 -1.1286  0.5550
  110SAPE    C311370   4.928   2.047   3.185  0.1562  0.2427  0.2855
  110SAPE    HX11371   4.925   2.156   3.161 -0.5614  0.1629 -0.0028
  110SAPE    HY11372   4.824   2.011   3.171  0.2270  0.6734 -1.5819
  110SAPE   O3111373   4.960   2.034   3.323 -0.3767  0.2536 -0.2121
  110SAPE   C3111374   5.033   2.129   3.382  0.0836  0.1178 -0.5133
  110SAPE   O3211375   5.077   2.230   3.331 -0.3456  0.5047  0.2570
  110SAPE   C3211376   5.038   2.099   3.535  0.1310 -0.0738  0.2516
  110SAPE   H2X11377   5.002   1.999   3.566 -1.2587  0.9424  2.1685
  110SAPE   H2Y11378   4.978   2.180   3.582  0.8291  0.9706 -0.6104
  110SAPE   C2311379   5.155   1.639   3.411 -0.0790  0.1503  0.1105
  110SAPE   H3R11380   5.184   1.727   3.472 -1.0114 -0.3169  1.2536
  110SAPE   H3S11381   5.251   1.606   3.364 -0.4923 -0.5383 -0.2671
  110SAPE   C2411382   5.129   1.522   3.510 -0.7517 -0.4103 -0.5757
  110SAPE   H4R11383   5.218   1.499   3.571 -0.5806  0.0661 -0.6398
  110SAPE   H4S11384   5.111   1.424   3.462  2.4987 -2.3054  1.6543
  110SAPE   C2511385   5.018   1.556   3.605  0.2044  0.2533  0.0648
  110SAPE   H5R11386   4.928   1.597   3.558  0.1012  1.6377  1.3960
  110SAPE   C2611387   5.023   1.528   3.733 -0.8189 -0.2560  0.2253
  110SAPE   H6R11388   4.934   1.565   3.786 -0.6380  2.6781 -1.3126
  110SAPE   C2711389   5.127   1.455   3.816  0.3318  0.0022 -0.1147
  110SAPE   H7R11390   5.197   1.530   3.858  0.7460 -0.7665  0.5869
  110SAPE   H7S11391   5.185   1.382   3.754 -0.2577 -0.0435 -0.6158
  110SAPE   C2811392   5.055   1.381   3.927  0.3153 -0.2702  0.8157
  110SAPE   H8R11393   5.035   1.275   3.906 -1.5056  0.1119  0.4613
  110SAPE   C2911394   5.032   1.425   4.052 -0.1106 -0.4348  0.0397
  110SAPE   H9R11395   4.975   1.353   4.111 -0.8631 -0.8153 -1.1160
  110SAPE  C21011396   5.059   1.562   4.118  0.1469  0.2083  0.0772
  110SAPE  H10R11397   5.106   1.638   4.051  0.5507  0.5758  0.7640
  110SAPE  H10S11398   5.146   1.544   4.185  0.3899  2.4795  0.4798
  110SAPE  C21111399   4.933   1.626   4.172 -0.4036  0.0823 -0.1273
  110SAPE  H11R11400   4.861   1.662   4.096  1.4987  0.7765 -1.7018
  110SAPE  C21211401   4.904   1.648   4.292  0.4273  0.8772 -0.2868
  110SAPE  H12R11402   4.805   1.690   4.317  0.4626 -0.4669  2.5739
  110SAPE  C21311403   4.983   1.622   4.423  0.0842  0.2997  0.2399
  110SAPE  H13R11404   5.050   1.703   4.460  1.3393 -0.6011 -0.0348
  110SAPE  H13S11405   5.048   1.536   4.399 -0.6330  0.6779 -3.6545
  110SAPE  C21411406   4.883   1.585   4.532  0.5257  0.2899  0.3935
  110SAPE  H14R11407   4.779   1.613   4.506  0.5072 -0.6855 -0.6793
  110SAPE  C21511408   4.912   1.528   4.649  0.5003 -0.3896  0.6426
  110SAPE  H15R11409   4.827   1.504   4.714  1.4892 -0.5424  1.9027
  110SAPE  C21611410   5.054   1.491   4.695  0.4007 -0.4626  0.4178
  110SAPE  H16R11411   5.128   1.544   4.631 -2.1759 -0.1333 -2.5859
  110SAPE  H16S11412   5.076   1.384   4.676  0.4223 -0.0031 -2.6787
  110SAPE  C21711413   5.077   1.513   4.843 -0.0758  0.1003 -0.5038
  110SAPE  H17R11414   5.047   1.615   4.874 -0.4852 -0.2923  0.4060
  110SAPE  H17S11415   5.183   1.490   4.867 -0.6771 -2.6517 -0.1924
  110SAPE  C21811416   4.997   1.413   4.933  0.0927 -0.4821  0.4577
  110SAPE  H18R11417   5.005   1.317   4.876 -0.2926 -0.3984  0.2580
  110SAPE  H18S11418   4.890   1.442   4.938 -0.3006 -1.7144 -0.2654
  110SAPE  C21911419   5.068   1.397   5.066  0.1010  0.1584  0.2251
  110SAPE  H19R11420   5.067   1.488   5.128  1.2520  1.2483 -1.2720
  110SAPE  H19S11421   5.177   1.379   5.055 -0.3117 -1.5797 -1.7758
  110SAPE  C22011422   5.026   1.278   5.157 -0.1296 -0.2001  0.0853
  110SAPE  H20R11423   5.104   1.262   5.234 -0.6276  0.9495  0.8590
  110SAPE  H20S11424   5.001   1.186   5.099  0.2612 -0.3694  0.1832
  110SAPE  H20T11425   4.936   1.312   5.212 -0.0202  0.4424 -0.1255
  110SAPE   C3311426   5.181   2.122   3.589 -0.4114  0.2756 -0.4181
  110SAPE   H3X11427   5.234   2.206   3.541  1.3495  0.4149  1.6114
  110SAPE   H3Y11428   5.242   2.032   3.568  0.0238  0.1279  1.3068
  110SAPE   C3411429   5.184   2.134   3.743  1.2689 -0.2172  0.0409
  110SAPE   H4X11430   5.147   2.230   3.784  0.9956 -0.8861  1.4545
  110SAPE   H4Y11431   5.289   2.146   3.777  1.3648  1.4407 -0.7596
  110SAPE   C3511432   5.104   2.018   3.813 -0.1170 -0.2906  0.2420
  110SAPE   H5X11433   5.146   1.924   3.771  1.5385 -0.0701  1.2924
  110SAPE   H5Y11434   4.996   2.029   3.792  0.1408 -0.8579 -1.5830
  110SAPE   C3611435   5.123   2.020   3.964  0.4816  0.9183  0.0892
  110SAPE   H6X11436   5.027   1.976   3.999  0.6244  0.1115 -0.5046
  110SAPE   H6Y11437   5.127   2.119   4.015 -2.2036  0.9196  0.4754
  110SAPE   C3711438   5.247   1.938   4.010 -0.3679  0.0846  0.0342
  110SAPE   H7X11439   5.337   2.002   3.998  0.9238 -1.4969  0.8610
  110SAPE   H7Y11440   5.263   1.853   3.941  1.7653  0.9362 -0.6214
  110SAPE   C3811441   5.247   1.886   4.155  0.4791  0.2185 -0.1021
  110SAPE   H8X11442   5.347   1.839   4.164  0.8721  1.2108  1.1004
  110SAPE   H8Y11443   5.172   1.804   4.158  1.1627 -0.3956  1.4790
  110SAPE   C3911444   5.222   1.987   4.269 -0.2262  0.0198 -0.6294
  110SAPE   H9X11445   5.114   2.011   4.277  0.0447  0.7258  2.4781
  110SAPE   H9Y11446   5.272   2.084   4.249 -0.7431  0.7707  1.4498
  110SAPE  C31011447   5.273   1.928   4.396  0.5652  0.2074  0.1457
  110SAPE  H10X11448   5.381   1.903   4.389  0.5835  0.7048 -1.8125
  110SAPE  H10Y11449   5.218   1.833   4.415 -1.3338  1.6464  2.5049
  110SAPE  C31111450   5.254   2.014   4.509  0.0324  0.2220 -0.5757
  110SAPE  H11X11451   5.155   2.064   4.504  1.2173  2.7691 -0.3548
  110SAPE  H11Y11452   5.325   2.100   4.513 -0.7027  0.8670 -1.0599
  110SAPE  C31211453   5.282   1.941   4.648 -0.2770  0.0659 -0.0711
  110SAPE  H12X11454   5.372   1.884   4.617 -0.8561 -1.2314  0.5823
  110SAPE  H12Y11455   5.200   1.874   4.680  1.1447 -2.6872 -1.7722
  110SAPE  C31311456   5.301   2.047   4.765  0.0978  0.4316  0.0687
  110SAPE  H13X11457   5.391   2.108   4.741  0.0880  1.2596  1.9866
  110SAPE  H13Y11458   5.322   1.998   4.862  2.6620  1.1052 -0.0831
  110SAPE  C31411459   5.186   2.140   4.774 -0.2845  0.0379  0.4735
  110SAPE  H14X11460   5.104   2.068   4.794  0.3569 -1.0852 -0.7462
  110SAPE  H14Y11461   5.160   2.189   4.678  2.1692 -0.4017 -0.4918
  110SAPE  C31511462   5.207   2.241   4.885  0.3416 -0.2991  0.3070
  110SAPE  H15X11463   5.245   2.186   4.974  1.2803  2.1513  1.5014
  110SAPE  H15Y11464   5.103   2.270   4.911  0.4898 -0.3519  0.9825
  110SAPE  C31611465   5.277   2.368   4.834  0.4019 -0.5652 -0.2028
  110SAPE  H16X11466   5.224   2.407   4.745 -1.6731  1.7618  1.9076
  110SAPE  H16Y11467   5.381   2.340   4.804 -0.1980 -0.7619 -2.2412
  110SAPE  C31711468   5.278   2.479   4.939 -0.5042  0.3032 -0.7597
  110SAPE  H17X11469   5.348   2.552   4.892 -0.1027 -1.2219 -2.6370
  110SAPE  H17Y11470   5.313   2.443   5.037 -0.3767 -0.8544 -1.2153
  110SAPE  C31811471   5.149   2.560   4.952  0.6198 -0.1725 -0.0003
  110SAPE  H18X11472   5.151   2.644   5.025  1.1118  1.9734 -2.3223
  110SAPE  H18Y11473   5.064   2.498   4.988 -0.4759  0.2120 -1.7814
  110SAPE  H18Z11474   5.120   2.600   4.852  0.0595 -0.1045  0.1856
  111SAPE     N11475   4.790   4.768   2.797 -0.8853 -0.6340  0.0674
  111SAPE   HN111476   4.719   4.819   2.854 -0.0295  0.3522  0.2798
  111SAPE   HN211477   4.867   4.837   2.786 -2.1122  0.6813 -0.6895
  111SAPE   HN311478   4.753   4.734   2.706  0.4449  0.7863 -1.0537
  111SAPE   C1211479   4.850   4.658   2.881  0.5753 -0.3861  0.2783
  111SAPE  H12A11480   4.939   4.624   2.825 -0.1901 -2.3246  0.1763
  111SAPE  H12B11481   4.771   4.581   2.898 -1.5388  1.9365  1.8476
  111SAPE   C1111482   4.883   4.719   3.018 -0.2498 -0.0256 -0.1949
  111SAPE  H11A11483   4.918   4.631   3.076 -1.9691 -2.3138 -2.3719
  111SAPE  H11B11484   4.789   4.749   3.070 -1.1230  0.0300 -1.7398
  111SAPE     P11485   5.131   4.803   3.012 -0.0010  0.3250  0.4135
  111SAPE   O1311486   5.152   4.657   3.000  0.4037  0.1365  0.0947
  111SAPE   O1411487   5.197   4.900   2.921  0.5634 -0.2754  0.0668
  111SAPE   O1211488   4.977   4.825   3.010  0.1710 -0.5170  0.5286
  111SAPE   O1111489   5.164   4.852   3.157 -0.2288 -0.3988 -0.0546
  111SAPE    C111490   5.139   4.978   3.208  0.6474 -0.5535 -0.4266
  111SAPE    HA11491   5.097   5.049   3.135 -0.4013  0.3088  0.9771
  111SAPE    HB11492   5.051   4.975   3.276 -0.0806  2.5499 -1.0963
  111SAPE    C211493   5.261   5.043   3.261  0.1282  0.1605  0.2676
  111SAPE    HS11494   5.336   5.016   3.183 -2.9553 -1.5091 -2.3261
  111SAPE   O2111495   5.279   4.978   3.388  0.6288 -0.1291 -0.0628
  111SAPE   C2111496   5.401   4.936   3.406 -0.1417 -0.1165  0.2400
  111SAPE   O2211497   5.496   4.946   3.331 -0.4981 -0.1990 -0.2621
  111SAPE   C2211498   5.417   4.889   3.551 -0.2727  0.7201  0.6337
  111SAPE   H2R11499   5.396   4.981   3.609 -0.5059  1.4321 -0.5476
  111SAPE   H2S11500   5.340   4.816   3.584  0.2021 -0.4679 -0.7617
  111SAPE    C311501   5.258   5.203   3.281  0.3743  0.2309  0.5683
  111SAPE    HX11502   5.168   5.229   3.341 -2.0684 -1.2299 -2.1449
  111SAPE    HY11503   5.237   5.251   3.183 -0.6592 -0.1584  0.5802
  111SAPE   O3111504   5.373   5.261   3.347  0.1322  0.9208  0.1109
  111SAPE   C3111505   5.491   5.244   3.282  0.7980 -0.5208 -0.3355
  111SAPE   O3211506   5.499   5.207   3.166  0.3212 -0.1109  0.6561
  111SAPE   C3211507   5.611   5.267   3.378  0.0719  0.0528  0.6282
  111SAPE   H2X11508   5.698   5.300   3.318  0.2567 -0.1402  0.7881
  111SAPE   H2Y11509   5.643   5.171   3.422  3.2161  0.5095 -0.4279
  111SAPE   C2311510   5.561   4.848   3.593  0.2453 -0.3214 -0.1402
  111SAPE   H3R11511   5.632   4.930   3.568 -0.7283  0.2651 -1.0218
  111SAPE   H3S11512   5.592   4.750   3.551  2.3978 -0.6742  2.0457
  111SAPE   C2411513   5.561   4.840   3.750 -0.2061  0.5256 -0.2441
  111SAPE   H4R11514   5.500   4.752   3.781  1.2251 -0.0931  0.9103
  111SAPE   H4S11515   5.513   4.931   3.791 -0.5831  1.2971 -2.2450
  111SAPE   C2511516   5.700   4.812   3.799 -0.2105 -0.3948 -0.4506
  111SAPE   H5R11517   5.734   4.710   3.772 -2.2345 -1.2934  0.2547
  111SAPE   C2611518   5.782   4.899   3.862  0.3299  0.2109  0.3440
  111SAPE   H6R11519   5.879   4.861   3.900 -0.8829 -2.8935  0.5867
  111SAPE   C2711520   5.756   5.038   3.898  0.4395 -0.2997  0.2437
  111SAPE   H7R11521   5.666   5.080   3.847  0.3639 -0.1969  0.4605
  111SAPE   H7S11522   5.839   5.100   3.858 -0.4414  0.8565  0.1543
  111SAPE   C2811523   5.750   5.046   4.049  0.4730  0.5271 -0.5043
  111SAPE   H8R11524   5.646   5.046   4.087  0.7938  0.7004  0.3965
  111SAPE   C2911525   5.857   5.070   4.128 -0.2834 -0.3963 -0.2034
  111SAPE   H9R11526   5.843   5.071   4.237  1.8662 -0.8531  0.1323
  111SAPE  C21011527   6.010   5.090   4.098  0.4367 -0.6543 -0.2516
  111SAPE  H10R11528   6.024   5.099   3.988  0.4878 -1.9694 -0.3694
  111SAPE  H10S11529   6.080   5.006   4.120  1.0088 -0.0403  0.3205
  111SAPE  C21111530   6.063   5.220   4.161  0.4308 -0.3381  0.2784
  111SAPE  H11R11531   6.013   5.313   4.131  1.3200  0.5303  1.4045
  111SAPE  C21211532   6.168   5.232   4.241  0.8131 -0.2504 -0.2023
  111SAPE  H12R11533   6.184   5.332   4.283  1.1897 -0.0990 -0.6939
  111SAPE  C21311534   6.240   5.111   4.297  0.4302  0.4243 -0.3979
  111SAPE  H13R11535   6.347   5.132   4.319  0.6857 -1.5764  0.4597
  111SAPE  H13S11536   6.249   5.032   4.220 -4.8995  0.1376 -1.0944
  111SAPE  C21411537   6.176   5.059   4.428 -0.0292  0.0217 -0.0959
  111SAPE  H14R11538   6.104   5.126   4.479  0.0104 -0.6700  0.8932
  111SAPE  C21511539   6.219   4.939   4.479 -0.8839  0.3033  1.0788
  111SAPE  H15R11540   6.181   4.908   4.578 -0.0256 -1.4997  0.8844
  111SAPE  C21611541   6.314   4.845   4.415 -0.2421  0.1060  0.6171
  111SAPE  H16R11542   6.397   4.904   4.371 -1.8082  1.7391 -0.2507
  111SAPE  H16S11543   6.270   4.780   4.337 -0.9288  1.9503 -0.5861
  111SAPE  C21711544   6.372   4.732   4.504  0.4515  0.6414 -0.0986
  111SAPE  H17R11545   6.293   4.663   4.539  1.4481 -1.2498 -1.3904
  111SAPE  H17S11546   6.419   4.784   4.590  0.2248  0.9206 -0.1393
  111SAPE  C21811547   6.468   4.636   4.434 -0.0187  0.4244  0.4141
  111SAPE  H18R11548   6.555   4.684   4.387 -1.3883  2.1491 -0.4736
  111SAPE  H18S11549   6.413   4.595   4.347  0.4134 -2.2903  1.3131
  111SAPE  C21911550   6.510   4.517   4.520  0.3558 -0.0134  0.5702
  111SAPE  H19R11551   6.534   4.433   4.452 -0.3169  0.0342  0.2674
  111SAPE  H19S11552   6.427   4.481   4.585 -0.0252 -1.9032 -0.8981
  111SAPE  C22011553   6.631   4.537   4.605  0.0639 -0.5493  0.1681
  111SAPE  H20R11554   6.709   4.510   4.532 -0.4809  0.8415 -0.9779
  111SAPE  H20S11555   6.627   4.468   4.692  1.8443 -1.3891 -0.3776
  111SAPE  H20T11556   6.636   4.646   4.628 -0.9429 -0.6291  0.8739
  111SAPE   C3311557   5.593   5.373   3.491 -0.7063 -0.0341 -0.6472
  111SAPE   H3X11558   5.519   5.335   3.565 -0.2951  0.6108  0.1156
  111SAPE   H3Y11559   5.557   5.473   3.461 -0.9102  0.4844  1.1857
  111SAPE   C3411560   5.730   5.391   3.562  0.0719 -0.0644  0.2231
  111SAPE   H4X11561   5.795   5.445   3.490  0.5201 -0.7622  0.0934
  111SAPE   H4Y11562   5.770   5.293   3.596  1.2986  1.2540  2.8733
  111SAPE   C3511563   5.734   5.475   3.687 -0.4064  0.2851 -0.6384
  111SAPE   H5X11564   5.671   5.565   3.671 -0.2494  0.0326 -3.0629
  111SAPE   H5Y11565   5.838   5.502   3.715 -0.3081 -0.5228 -0.1783
  111SAPE   C3611566   5.685   5.403   3.819  0.6791 -0.2604  0.0043
  111SAPE   H6X11567   5.740   5.307   3.816 -2.6286 -2.2761 -0.3833
  111SAPE   H6Y11568   5.576   5.386   3.832  0.4639  1.3524  0.6810
  111SAPE   C3711569   5.732   5.489   3.945 -0.1382  0.2066  0.0017
  111SAPE   H7X11570   5.700   5.593   3.921 -1.4574  0.3665  2.1744
  111SAPE   H7Y11571   5.842   5.490   3.958 -0.1167  2.1805 -0.0047
  111SAPE   C3811572   5.651   5.431   4.063 -0.0983 -0.6673  0.5144
  111SAPE   H8X11573   5.662   5.321   4.074 -0.1071 -0.5830  1.4636
  111SAPE   H8Y11574   5.551   5.456   4.021  1.6976  0.0389 -3.8973
  111SAPE   C3911575   5.668   5.500   4.198  0.3334  0.3541 -0.0914
  111SAPE   H9X11576   5.588   5.458   4.263 -0.1251  0.8640 -0.3218
  111SAPE   H9Y11577   5.652   5.608   4.175 -3.5935  0.0563  0.4941
  111SAPE  C31011578   5.804   5.463   4.272  0.0721 -0.4576  0.4580
  111SAPE  H10X11579   5.850   5.551   4.321  2.1269 -1.2430  0.0753
  111SAPE  H10Y11580   5.874   5.423   4.195  1.9635  0.5297  1.5907
  111SAPE  C31111581   5.780   5.372   4.394  0.4562 -0.1872 -0.6827
  111SAPE  H11X11582   5.742   5.276   4.352 -0.6062 -0.1751  0.2211
  111SAPE  H11Y11583   5.698   5.418   4.453  0.3088 -0.9781 -0.2584
  111SAPE  C31211584   5.906   5.339   4.482  0.7269  0.5332 -0.6068
  111SAPE  H12X11585   5.989   5.323   4.410 -0.1980 -0.7300 -1.4338
  111SAPE  H12Y11586   5.891   5.243   4.536  2.8533 -0.4514 -1.6162
  111SAPE  C31311587   5.939   5.433   4.590 -0.1990 -0.5140  0.3730
  111SAPE  H13X11588   5.842   5.456   4.639 -0.0865 -0.0036  0.3654
  111SAPE  H13Y11589   5.986   5.522   4.543 -0.9587 -1.1883 -1.8259
  111SAPE  C31411590   6.038   5.378   4.693 -0.3634 -0.1448 -0.3200
  111SAPE  H14X11591   6.022   5.270   4.714 -0.4099 -1.0014 -4.0244
  111SAPE  H14Y11592   6.018   5.434   4.787  0.9560 -0.1469 -0.0107
  111SAPE  C31511593   6.187   5.402   4.649  0.2891 -0.1272  0.2022
  111SAPE  H15X11594   6.209   5.509   4.630  0.0012 -0.3108 -1.3091
  111SAPE  H15Y11595   6.198   5.340   4.557  0.6051  0.3486 -0.0850
  111SAPE  C31611596   6.274   5.337   4.753 -0.4729 -0.2799  0.1549
  111SAPE  H16X11597   6.249   5.229   4.751 -2.0988  0.0806 -0.4693
  111SAPE  H16Y11598   6.239   5.372   4.853  0.2400  0.7050  0.0722
  111SAPE  C31711599   6.422   5.368   4.735 -0.4069  0.6086 -0.1580
  111SAPE  H17X11600   6.438   5.477   4.744  0.3924  0.6345 -1.5454
  111SAPE  H17Y11601   6.456   5.349   4.631  1.7745 -0.2201  0.6501
  111SAPE  C31811602   6.525   5.312   4.832  0.6469 -0.1181 -0.5448
  111SAPE  H18X11603   6.471   5.270   4.919  2.5819  0.2702  0.9042
  111SAPE  H18Y11604   6.587   5.393   4.874 -0.4963  0.4528  0.0816
  111SAPE  H18Z11605   6.594   5.242   4.779 -0.4789 -0.8154 -1.1444
  112SAPE     N11606   1.870   2.267   2.584  0.0058  0.1324  0.2900
  112SAPE   HN111607   1.879   2.299   2.486 -0.6633  3.0628  1.0861
  112SAPE   HN211608   1.955   2.220   2.622  0.2407 -0.7055 -1.2222
  112SAPE   HN311609   1.797   2.194   2.589 -1.4028  1.4353 -0.5353
  112SAPE   C1211610   1.830   2.380   2.669  0.1229 -0.3677 -0.0341
  112SAPE  H12A11611   1.831   2.346   2.775  1.1143 -0.3925 -0.0468
  112SAPE  H12B11612   1.724   2.404   2.644  0.4176 -0.6291 -1.6174
  112SAPE   C1111613   1.922   2.500   2.663 -0.1947 -0.5365 -0.1442
  112SAPE  H11A11614   2.028   2.472   2.680 -0.3050 -0.2382  1.1630
  112SAPE  H11B11615   1.895   2.571   2.744  0.0179  1.9871 -2.1652
  112SAPE     P11616   1.810   2.677   2.489  0.3379 -0.3260 -0.8181
  112SAPE   O1311617   1.873   2.783   2.409  0.3556  0.4994  0.4054
  112SAPE   O1411618   1.684   2.620   2.434  0.6803 -0.4507 -0.2525
  112SAPE   O1211619   1.917   2.569   2.540  0.5338 -0.0469  0.0569
  112SAPE   O1111620   1.770   2.747   2.625  0.4997 -0.2722 -0.1004
  112SAPE    C111621   1.873   2.834   2.683  0.2094  0.8493 -0.9467
  112SAPE    HA11622   1.976   2.793   2.687  0.6468  2.0007  0.7675
  112SAPE    HB11623   1.887   2.925   2.620 -1.0544  1.4039 -0.4632
  112SAPE    C211624   1.841   2.884   2.836 -0.1647 -0.0953 -0.0642
  112SAPE    HS11625   1.924   2.943   2.882 -0.3244 -0.6795  0.9921
  112SAPE   O2111626   1.800   2.769   2.907 -0.2174  0.2860  0.0264
  112SAPE   C2111627   1.893   2.705   2.970  0.8515  0.0759 -0.6493
  112SAPE   O2211628   2.012   2.725   2.966 -0.6163  0.5367  0.3719
  112SAPE   C2211629   1.835   2.574   3.035 -0.5450  0.1911  0.0450
  112SAPE   H2R11630   1.737   2.606   3.079 -0.1807  1.2468  0.1350
  112SAPE   H2S11631   1.823   2.492   2.962 -0.2956  0.0832  0.1252
  112SAPE    C311632   1.725   2.986   2.824 -0.2567 -0.1851  0.4432
  112SAPE    HX11633   1.639   2.928   2.787  0.8549  0.0761 -2.8644
  112SAPE    HY11634   1.757   3.043   2.734  1.4758 -3.9349 -1.5554
  112SAPE   O3111635   1.695   3.065   2.943 -0.2807  0.3666 -0.2250
  112SAPE   C3111636   1.566   3.063   2.980  0.3097 -0.4953 -0.9008
  112SAPE   O3211637   1.472   3.018   2.917 -0.3547  0.2939 -0.5651
  112SAPE   C3211638   1.546   3.149   3.110  0.3832 -1.1420  0.0697
  112SAPE   H2X11639   1.442   3.187   3.104  0.7814  0.0955  0.7744
  112SAPE   H2Y11640   1.624   3.228   3.106  0.9293 -1.6938 -0.2923
  112SAPE   C2311641   1.934   2.532   3.155 -0.1339  0.0536 -0.7196
  112SAPE   H3R11642   1.984   2.618   3.206 -0.1479  0.1727 -0.9059
  112SAPE   H3S11643   2.007   2.463   3.109  0.5982  0.6863 -0.5228
  112SAPE   C2411644   1.863   2.436   3.257 -0.5590  0.2944  0.3205
  112SAPE   H4R11645   1.949   2.406   3.320  0.2737  0.5400 -0.6654
  112SAPE   H4S11646   1.833   2.341   3.208  0.4052  0.0322  0.2208
  112SAPE   C2511647   1.745   2.495   3.319 -0.0315 -0.1151 -0.0640
  112SAPE   H5R11648   1.650   2.486   3.263 -2.0102  0.2905  2.9752
  112SAPE   C2611649   1.743   2.561   3.433 -0.0161 -0.7699  0.4738
  112SAPE   H6R11650   1.654   2.607   3.480  0.4360 -1.1744  1.7684
  112SAPE   C2711651   1.857   2.585   3.531  0.2553  0.0015  0.8117
  112SAPE   H7R11652   1.821   2.677   3.581 -1.3362  1.1976 -2.2778
  112SAPE   H7S11653   1.950   2.624   3.484 -0.2869  0.1948 -0.1191
  112SAPE   C2811654   1.884   2.468   3.621 -0.2201  0.3449  0.1334
  112SAPE   H8R11655   1.881   2.373   3.567  0.8857  0.5807 -0.3744
  112SAPE   C2911656   1.895   2.467   3.759  0.3466 -0.9768  0.0424
  112SAPE   H9R11657   1.904   2.364   3.795  0.5610 -0.9550  0.0511
  112SAPE  C21011658   1.894   2.592   3.849  0.3868 -0.7507  0.3691
  112SAPE  H10R11659   1.885   2.686   3.791 -0.5205 -0.2826  1.2333
  112SAPE  H10S11660   1.985   2.597   3.912 -1.4391  0.2378  3.0977
  112SAPE  C21111661   1.774   2.577   3.941 -0.6848  0.2721  0.2786
  112SAPE  H11R11662   1.679   2.591   3.887 -1.3732 -3.0157  0.4704
  112SAPE  C21211663   1.772   2.580   4.073  0.6747 -0.4036 -0.4613
  112SAPE  H12R11664   1.675   2.571   4.125  1.4246  0.4817  1.1754
  112SAPE  C21311665   1.892   2.584   4.161  0.1390  0.1774 -0.3432
  112SAPE  H13R11666   1.975   2.639   4.112  0.7867 -1.4871 -1.1825
  112SAPE  H13S11667   1.932   2.480   4.161 -2.9182 -1.1455 -2.3929
  112SAPE  C21411668   1.860   2.638   4.305  0.2863  0.0567  0.3026
  112SAPE  H14R11669   1.867   2.748   4.309 -0.0189  0.1056 -0.3792
  112SAPE  C21511670   1.797   2.566   4.407 -0.3744  0.1478  0.4028
  112SAPE  H15R11671   1.774   2.612   4.504  2.0659  2.1061  0.1736
  112SAPE  C21611672   1.767   2.412   4.388 -0.7168  0.2850 -0.2665
  112SAPE  H16R11673   1.858   2.348   4.393 -0.6810  0.3511 -0.0541
  112SAPE  H16S11674   1.722   2.386   4.290  1.1815  2.3566 -1.7848
  112SAPE  C21711675   1.675   2.354   4.492  0.3933 -0.8542 -0.6486
  112SAPE  H17R11676   1.711   2.381   4.594 -0.4719  1.9590 -0.9846
  112SAPE  H17S11677   1.679   2.244   4.487  0.0455 -0.9676  0.9235
  112SAPE  C21811678   1.527   2.395   4.483 -0.1162 -0.0945 -0.0616
  112SAPE  H18R11679   1.489   2.381   4.379 -2.2005 -0.3947  0.6876
  112SAPE  H18S11680   1.511   2.502   4.510 -1.0483 -0.1176 -0.4979
  112SAPE  C21911681   1.421   2.311   4.572 -0.3791 -0.2295 -0.0208
  112SAPE  H19R11682   1.431   2.345   4.677  0.5820  0.5422 -0.3503
  112SAPE  H19S11683   1.436   2.201   4.568 -2.2356 -0.5536  0.8611
  112SAPE  C22011684   1.278   2.345   4.543  0.2275 -0.3648  0.2005
  112SAPE  H20R11685   1.208   2.296   4.614  1.2791  0.8087  2.1376
  112SAPE  H20S11686   1.247   2.311   4.442 -0.1534  1.6266 -0.3955
  112SAPE  H20T11687   1.259   2.453   4.526  0.1474 -0.4599 -0.3381
  112SAPE   C3311688   1.565   3.070   3.240  0.5957 -0.6229 -0.6063
  112SAPE   H3X11689   1.572   3.140   3.326 -3.2748 -0.0229 -0.6099
  112SAPE   H3Y11690   1.657   3.008   3.234 -0.2455 -2.1034  0.9359
  112SAPE   C3411691   1.436   2.991   3.269  0.6386 -0.0013  0.1095
  112SAPE   H4X11692   1.377   2.952   3.183  1.5690 -0.5162 -0.3153
  112SAPE   H4Y11693   1.365   3.048   3.333  3.2863  2.4530  1.0913
  112SAPE   C3511694   1.458   2.856   3.352 -0.5968 -0.1985 -0.2199
  112SAPE   H5X11695   1.517   2.792   3.283 -0.1025 -0.6673  0.6164
  112SAPE   H5Y11696   1.357   2.818   3.377 -0.5285  0.4895  1.2140
  112SAPE   C3611697   1.535   2.879   3.486  0.6099  0.2266 -0.1035
  112SAPE   H6X11698   1.520   2.989   3.490 -0.5106  0.0503  2.6889
  112SAPE   H6Y11699   1.641   2.847   3.480  0.3786 -0.7719  0.8864
  112SAPE   C3711700   1.475   2.811   3.608 -0.5126  0.1053 -0.2511
  112SAPE   H7X11701   1.531   2.715   3.615  0.0001  0.4477  0.5325
  112SAPE   H7Y11702   1.367   2.794   3.585 -0.6304 -0.6381  0.7633
  112SAPE   C3811703   1.480   2.896   3.739  0.3624 -0.3631  0.3324
  112SAPE   H8X11704   1.460   3.004   3.721  1.3004  0.0774  1.7536
  112SAPE   H8Y11705   1.581   2.881   3.782  0.6124 -0.8264 -0.4100
  112SAPE   C3911706   1.380   2.851   3.845 -0.3172 -0.3106 -0.3063
  112SAPE   H9X11707   1.385   2.741   3.857 -2.2040 -0.4704 -0.7384
  112SAPE   H9Y11708   1.278   2.868   3.805 -0.4398 -0.9114 -0.2534
  112SAPE  C31011709   1.396   2.915   3.984 -1.0331 -0.5234 -0.0077
  112SAPE  H10X11710   1.325   2.863   4.052  0.6771  0.3808  2.6259
  112SAPE  H10Y11711   1.359   3.017   3.961 -0.7062 -0.2907  0.4744
  112SAPE  C31111712   1.533   2.908   4.047 -0.0391 -0.0688  0.4645
  112SAPE  H11X11713   1.608   2.971   3.994  0.2026  0.8460  1.8605
  112SAPE  H11Y11714   1.576   2.806   4.038  0.6253  0.3249 -1.1931
  112SAPE  C31211715   1.523   2.951   4.192 -0.1918  0.6748 -0.2727
  112SAPE  H12X11716   1.417   2.974   4.213 -0.6340 -1.7836  0.5634
  112SAPE  H12Y11717   1.576   3.047   4.209  1.3486  0.2106 -2.0414
  112SAPE  C31311718   1.542   2.843   4.300 -0.1701  0.0130  0.5709
  112SAPE  H13X11719   1.646   2.805   4.300  0.0399  0.4785  2.9470
  112SAPE  H13Y11720   1.485   2.750   4.279 -0.3397  0.1866  0.2461
  112SAPE  C31411721   1.505   2.891   4.443  0.1579 -0.2756 -0.2788
  112SAPE  H14X11722   1.394   2.896   4.447  0.2150  0.3218  2.2256
  112SAPE  H14Y11723   1.555   2.990   4.457  0.3748 -0.2228 -1.3036
  112SAPE  C31511724   1.556   2.793   4.544 -0.1776  0.2146 -0.0426
  112SAPE  H15X11725   1.662   2.766   4.522 -0.1145  0.9991 -0.7654
  112SAPE  H15Y11726   1.494   2.701   4.535 -0.7628  0.5888  0.1348
  112SAPE  C31611727   1.545   2.834   4.699 -0.2318 -0.1014  0.0151
  112SAPE  H16X11728   1.437   2.855   4.716 -1.0959 -1.0298 -3.6193
  112SAPE  H16Y11729   1.605   2.928   4.704  1.6908 -1.2547 -0.3747
  112SAPE  C31711730   1.593   2.727   4.803  0.2141 -0.7787  0.0072
  112SAPE  H17X11731   1.703   2.726   4.813  0.1022  0.3521  2.0479
  112SAPE  H17Y11732   1.562   2.628   4.764 -1.1209 -0.9054  1.2768
  112SAPE  C31811733   1.518   2.744   4.938  0.0499  0.7679 -0.3253
  112SAPE  H18X11734   1.544   2.667   5.013 -1.8060 -1.9051 -2.2416
  112SAPE  H18Y11735   1.409   2.741   4.915  0.1363 -3.6402 -0.8497
  112SAPE  H18Z11736   1.546   2.846   4.974  0.0858  0.7434 -0.2844
  113SAPE     N11737   2.913   6.419   2.747  0.1810 -0.3851  0.5969
  113SAPE   HN111738   2.997   6.362   2.770  0.4055 -0.2484  0.1314
  113SAPE   HN211739   2.920   6.517   2.782 -2.1030  0.6033 -1.4275
  113SAPE   HN311740   2.838   6.361   2.790  0.2777 -1.5155 -0.6905
  113SAPE   C1211741   2.903   6.424   2.597 -0.1015  0.5219 -0.1826
  113SAPE  H12A11742   2.926   6.322   2.559 -0.9971  0.0791  0.4274
  113SAPE  H12B11743   2.980   6.493   2.558  0.1700  0.4065  0.1428
  113SAPE   C1111744   2.761   6.468   2.549 -0.3213 -0.3407  0.4991
  113SAPE  H11A11745   2.693   6.391   2.592 -2.3330  1.4771  0.7298
  113SAPE  H11B11746   2.757   6.465   2.438  1.0254 -0.0261  0.4249
  113SAPE     P11747   2.761   6.723   2.528 -0.1788  0.1666  0.3033
  113SAPE   O1311748   2.892   6.767   2.594 -0.3736 -0.1502  0.4819
  113SAPE   O1411749   2.767   6.693   2.383  0.0798 -0.0899 -0.0003
  113SAPE   O1211750   2.720   6.594   2.597 -0.1972 -0.2133 -0.0277
  113SAPE   O1111751   2.635   6.812   2.568 -0.3552 -0.1820  0.3105
  113SAPE    C111752   2.634   6.872   2.704 -0.2957  0.4187  0.6142
  113SAPE    HA11753   2.735   6.916   2.719 -0.5710  1.2348  0.0931
  113SAPE    HB11754   2.561   6.955   2.699 -0.2900  0.4927  1.5692
  113SAPE    C211755   2.588   6.771   2.810  0.2520  0.3251  0.3398
  113SAPE    HS11756   2.676   6.708   2.836 -1.5858 -2.2518  0.6718
  113SAPE   O2111757   2.471   6.700   2.766 -0.1946  0.0688  0.0618
  113SAPE   C2111758   2.467   6.572   2.815 -0.3663  0.1369 -0.1264
  113SAPE   O2211759   2.554   6.522   2.886 -0.6817 -0.6288 -0.9207
  113SAPE   C2211760   2.333   6.507   2.765  0.5277 -0.0796 -0.0338
  113SAPE   H2R11761   2.328   6.513   2.655 -0.0312 -1.4859 -0.1111
  113SAPE   H2S11762   2.332   6.399   2.790  0.3575  0.5806  3.4408
  113SAPE    C311763   2.553   6.845   2.944 -0.2804  0.1922  0.4463
  113SAPE    HX11764   2.450   6.885   2.941 -0.1142  0.5747 -0.8095
  113SAPE    HY11765   2.633   6.922   2.949  0.6571 -0.8169  1.6221
  113SAPE   O3111766   2.576   6.757   3.054 -0.5544 -0.8214  0.1754
  113SAPE   C3111767   2.492   6.751   3.152 -0.1749 -0.3619  0.3680
  113SAPE   O3211768   2.383   6.802   3.156  0.1674  0.4699 -0.5901
  113SAPE   C3211769   2.542   6.658   3.260 -0.7148 -0.2118 -0.4113
  113SAPE   H2X11770   2.645   6.623   3.236 -0.4856  1.2000 -1.6794
  113SAPE   H2Y11771   2.484   6.565   3.240  0.3101 -0.6704 -1.4015
  113SAPE   C2311772   2.200   6.584   2.808  0.2250  0.1512  0.3020
  113SAPE   H3R11773   2.119   6.544   2.743 -2.6339  1.5171  2.7540
  113SAPE   H3S11774   2.199   6.686   2.762  0.1936 -0.3449 -0.8347
  113SAPE   C2411775   2.152   6.587   2.952 -0.7049  0.2252  0.1237
  113SAPE   H4R11776   2.049   6.629   2.958 -1.1204 -0.6438 -0.6630
  113SAPE   H4S11777   2.221   6.662   2.996 -0.6671  0.1409  0.2083
  113SAPE   C2511778   2.153   6.453   3.023  0.0688  0.1136  0.2645
  113SAPE   H5R11779   2.194   6.363   2.974 -3.3399 -1.8358  0.6270
  113SAPE   C2611780   2.108   6.434   3.150  0.1602  0.1667 -0.5166
  113SAPE   H6R11781   2.112   6.335   3.199 -4.2744  0.3974  0.7780
  113SAPE   C2711782   2.057   6.537   3.252 -0.3670 -0.3715  0.6320
  113SAPE   H7R11783   1.968   6.492   3.301 -1.2747  0.3351 -0.3286
  113SAPE   H7S11784   2.013   6.623   3.197 -0.4152 -0.8652 -0.1050
  113SAPE   C2811785   2.158   6.578   3.353  0.6427  0.5780 -1.0337
  113SAPE   H8R11786   2.253   6.604   3.304 -0.1876  1.7356 -2.1336
  113SAPE   C2911787   2.148   6.582   3.496  0.1873 -0.0499  1.3919
  113SAPE   H9R11788   2.232   6.617   3.557  0.6462  1.4718 -0.0528
  113SAPE  C21011789   2.024   6.553   3.571  0.9217 -0.1314 -0.4450
  113SAPE  H10R11790   2.039   6.452   3.615  0.9220  0.2386  0.4316
  113SAPE  H10S11791   1.933   6.551   3.508 -0.7595 -1.0254  1.8566
  113SAPE  C21111792   2.008   6.652   3.687 -0.0637 -0.3016  0.4222
  113SAPE  H11R11793   1.949   6.739   3.655  0.7827 -0.2782 -1.1735
  113SAPE  C21211794   2.036   6.639   3.818  0.8335 -0.2325  0.0527
  113SAPE  H12R11795   2.016   6.724   3.886  1.0376 -0.6233  0.6080
  113SAPE  C21311796   2.104   6.523   3.893 -0.3340 -1.0342 -0.0792
  113SAPE  H13R11797   2.191   6.580   3.932  1.0635 -3.1690  0.1469
  113SAPE  H13S11798   2.154   6.447   3.828  0.1383 -1.0012  0.2404
  113SAPE  C21411799   2.023   6.454   3.993 -0.2115 -0.1836 -0.0437
  113SAPE  H14R11800   1.935   6.402   3.952  0.0713 -0.1897 -0.6535
  113SAPE  C21511801   2.057   6.423   4.116  0.7724 -0.3629  0.0105
  113SAPE  H15R11802   1.988   6.372   4.185  1.5166  0.1283  1.1475
  113SAPE  C21611803   2.188   6.469   4.178  0.1216  0.2442 -0.2965
  113SAPE  H16R11804   2.264   6.503   4.105  1.4611  0.5531  1.1636
  113SAPE  H16S11805   2.242   6.382   4.221  2.1757  1.5598 -0.0716
  113SAPE  C21711806   2.179   6.580   4.280  0.3161 -0.7720  0.3102
  113SAPE  H17R11807   2.124   6.547   4.370 -2.3481 -0.1307 -0.9900
  113SAPE  H17S11808   2.121   6.666   4.240  0.6196 -1.9222 -2.9599
  113SAPE  C21811809   2.319   6.639   4.306 -0.8997 -0.6025  0.5139
  113SAPE  H18R11810   2.363   6.687   4.215 -0.6185  2.4707  2.1501
  113SAPE  H18S11811   2.385   6.554   4.334 -0.3740  0.1768  1.7060
  113SAPE  C21911812   2.329   6.739   4.419  0.0284 -0.1395 -0.9870
  113SAPE  H19R11813   2.247   6.814   4.416 -2.5148 -2.5135  2.0932
  113SAPE  H19S11814   2.421   6.801   4.413  0.2118 -0.1192  1.1835
  113SAPE  C22011815   2.327   6.664   4.557  0.4127  0.1616  0.5215
  113SAPE  H20R11816   2.329   6.730   4.647 -1.2973  0.0966  0.6397
  113SAPE  H20S11817   2.408   6.588   4.558  1.3293  1.0669  2.4215
  113SAPE  H20T11818   2.238   6.598   4.567  1.5293 -1.3806  0.6258
  113SAPE   C3311819   2.515   6.702   3.408  0.0153 -1.0192 -0.0195
  113SAPE   H3X11820   2.406   6.722   3.418  0.2288  0.2890 -0.0700
  113SAPE   H3Y11821   2.564   6.792   3.451 -1.3999 -0.1914 -0.0802
  113SAPE   C3411822   2.550   6.581   3.501  0.3125 -0.5900  0.3141
  113SAPE   H4X11823   2.643   6.538   3.458  0.3876  0.5542 -0.7220
  113SAPE   H4Y11824   2.471   6.505   3.483  2.0281 -1.8737 -2.6219
  113SAPE   C3511825   2.568   6.603   3.654  0.8255 -0.4005  0.2561
  113SAPE   H5X11826   2.471   6.642   3.693  1.1826  0.4938  0.2695
  113SAPE   H5Y11827   2.649   6.678   3.661  0.8631 -0.2693 -1.2760
  113SAPE   C3611828   2.592   6.475   3.748 -0.4433 -0.0337  0.3444
  113SAPE   H6X11829   2.695   6.444   3.721 -1.5520 -2.7567 -1.1511
  113SAPE   H6Y11830   2.519   6.399   3.711  1.3540 -1.5558 -0.2652
  113SAPE   C3711831   2.570   6.507   3.895  0.2305  0.4825  0.2657
  113SAPE   H7X11832   2.459   6.514   3.902 -0.1952 -0.0183 -3.5468
  113SAPE   H7Y11833   2.619   6.604   3.918  0.1458  0.7714 -0.7159
  113SAPE   C3811834   2.627   6.398   3.984  0.0530 -0.1305  0.2643
  113SAPE   H8X11835   2.613   6.295   3.944  1.6121 -1.4967  2.9000
  113SAPE   H8Y11836   2.735   6.414   4.007  0.1373 -1.1020  0.6117
  113SAPE   C3911837   2.557   6.391   4.124 -0.5989  0.4329  1.1671
  113SAPE   H9X11838   2.448   6.382   4.108 -0.4827  0.8810 -0.0538
  113SAPE   H9Y11839   2.564   6.481   4.188 -1.8789  0.6472  1.0215
  113SAPE  C31011840   2.611   6.278   4.203  0.1182 -0.3692  0.1021
  113SAPE  H10X11841   2.718   6.301   4.222 -0.1512 -1.7302  4.1255
  113SAPE  H10Y11842   2.601   6.178   4.155 -0.4889 -0.3109  0.1000
  113SAPE  C31111843   2.540   6.275   4.340  0.0020 -0.8990  0.1394
  113SAPE  H11X11844   2.430   6.270   4.327  0.0581 -2.3460  0.0832
  113SAPE  H11Y11845   2.560   6.378   4.377  1.9180 -0.9221 -0.7119
  113SAPE  C31211846   2.584   6.187   4.461 -0.2907  0.4030  0.4847
  113SAPE  H12X11847   2.694   6.191   4.476  0.1504  2.9639 -2.4703
  113SAPE  H12Y11848   2.547   6.083   4.447  3.7104 -0.8426 -2.8554
  113SAPE  C31311849   2.525   6.239   4.591 -0.2208  0.3890 -0.4883
  113SAPE  H13X11850   2.567   6.341   4.604  0.8812 -0.2533  1.3025
  113SAPE  H13Y11851   2.569   6.183   4.676  1.0453 -1.2355 -2.1315
  113SAPE  C31411852   2.377   6.241   4.600 -0.0595  0.3599 -0.4438
  113SAPE  H14X11853   2.345   6.136   4.584 -0.1635  0.2610  0.3888
  113SAPE  H14Y11854   2.344   6.288   4.505 -0.6093 -2.0238 -1.4957
  113SAPE  C31511855   2.326   6.293   4.723  0.9424  0.8582 -0.3427
  113SAPE  H15X11856   2.358   6.398   4.744 -0.0300  1.1908 -0.4831
  113SAPE  H15Y11857   2.356   6.232   4.811  1.7233  1.7702  0.0427
  113SAPE  C31611858   2.170   6.284   4.710  0.4403 -0.6016  0.0561
  113SAPE  H16X11859   2.134   6.179   4.701 -1.3588  0.0441 -0.7341
  113SAPE  H16Y11860   2.146   6.337   4.615  1.5712  0.5168  0.3705
  113SAPE  C31711861   2.096   6.346   4.829  0.2496 -0.6964  0.6312
  113SAPE  H17X11862   2.154   6.351   4.924  0.4817  1.5844  0.4190
  113SAPE  H17Y11863   2.007   6.288   4.861 -0.2453  0.6522  1.7814
  113SAPE  C31811864   2.072   6.491   4.804 -0.5559 -0.6302  0.0841
  113SAPE  H18X11865   2.031   6.509   4.703  0.9319 -0.2766 -0.4804
  113SAPE  H18Y11866   2.170   6.544   4.805 -0.7857 -0.1983 -0.0281
  113SAPE  H18Z11867   2.003   6.533   4.880 -1.1577 -1.7107  0.1563
  114SAPE     N11868   5.109   3.604   2.612 -0.4322  0.1625 -0.0334
  114SAPE   HN111869   5.053   3.561   2.535  0.1697 -0.4785 -0.1319
  114SAPE   HN211870   5.088   3.705   2.604 -4.2405 -0.3182  1.6904
  114SAPE   HN311871   5.210   3.589   2.593  0.2197  2.5900  1.1272
  114SAPE   C1211872   5.063   3.539   2.741 -0.4785 -0.1663 -0.6035
  114SAPE  H12A11873   5.093   3.433   2.748  1.0260  0.2308 -0.8575
  114SAPE  H12B11874   4.952   3.547   2.746 -0.7205 -1.0037 -3.4808
  114SAPE   C1111875   5.140   3.613   2.859  0.2556  0.3107  0.1236
  114SAPE  H11A11876   5.248   3.589   2.850  0.2350 -0.0563  0.7999
  114SAPE  H11B11877   5.105   3.552   2.945 -0.6460 -0.4411 -0.7599
  114SAPE     P11878   5.227   3.852   2.899  0.2282  0.0891  0.0304
  114SAPE   O1311879   5.342   3.834   2.802  0.2589  0.6751 -0.5929
  114SAPE   O1411880   5.181   3.990   2.922 -0.1409 -0.1435 -0.0053
  114SAPE   O1211881   5.111   3.751   2.868  0.2184  0.4180  0.1629
  114SAPE   O1111882   5.278   3.796   3.040  0.2049 -0.4281 -0.0152
  114SAPE    C111883   5.213   3.789   3.168  0.9585  0.6390  0.1225
  114SAPE    HA11884   5.193   3.891   3.207 -0.6645  0.6849 -0.7453
  114SAPE    HB11885   5.117   3.739   3.142  1.7568 -0.1261 -1.4917
  114SAPE    C211886   5.296   3.716   3.275  0.0342  0.2694  0.4917
  114SAPE    HS11887   5.237   3.730   3.368  0.4916 -0.5913  0.9214
  114SAPE   O2111888   5.434   3.742   3.288  0.3156  0.3398 -0.1289
  114SAPE   C2111889   5.462   3.871   3.305 -0.3581  0.2719  0.1729
  114SAPE   O2211890   5.386   3.964   3.320 -0.2600 -0.0278  0.2692
  114SAPE   C2211891   5.616   3.878   3.299 -0.3934 -0.5472 -0.4018
  114SAPE   H2R11892   5.647   3.854   3.403 -1.6514  2.3258  0.7494
  114SAPE   H2S11893   5.649   3.797   3.230 -1.2959 -1.9475  0.7435
  114SAPE    C311894   5.295   3.561   3.258  0.4226  0.0337  0.4403
  114SAPE    HX11895   5.348   3.527   3.166 -0.2746  2.5696 -1.0020
  114SAPE    HY11896   5.188   3.534   3.243  1.0820 -1.0229 -3.6821
  114SAPE   O3111897   5.351   3.501   3.373 -0.5976  0.4208  0.3002
  114SAPE   C3111898   5.323   3.375   3.401  0.5991 -0.7777  0.5009
  114SAPE   O3211899   5.236   3.300   3.359 -0.4741 -0.5029 -0.0582
  114SAPE   C3211900   5.409   3.342   3.527 -0.1620  0.2867 -0.8343
  114SAPE   H2X11901   5.357   3.394   3.610 -1.9561 -0.6636 -1.3062
  114SAPE   H2Y11902   5.512   3.385   3.524 -0.5404  1.3260  0.1517
  114SAPE   C2311903   5.671   4.012   3.243  0.7292  0.2781  0.5071
  114SAPE   H3R11904   5.610   4.050   3.158 -0.6533  0.8096  1.6982
  114SAPE   H3S11905   5.773   3.994   3.202  0.3714 -0.9880  0.1110
  114SAPE   C2411906   5.676   4.118   3.348  0.8985 -0.3051 -0.3652
  114SAPE   H4R11907   5.574   4.153   3.375  0.4667 -0.8817 -1.2006
  114SAPE   H4S11908   5.707   4.207   3.290 -0.7454 -1.0638 -2.5363
  114SAPE   C2511909   5.759   4.095   3.476  0.1905 -0.1586 -0.2550
  114SAPE   H5R11910   5.868   4.116   3.476  0.2328 -0.3612 -0.7708
  114SAPE   C2611911   5.706   4.076   3.603 -0.1388 -0.0958 -0.6270
  114SAPE   H6R11912   5.774   4.069   3.689 -1.9012 -1.8510  0.7354
  114SAPE   C2711913   5.559   4.052   3.645 -0.0947  0.1640  0.2462
  114SAPE   H7R11914   5.554   3.961   3.708 -2.4213 -0.2851 -0.4862
  114SAPE   H7S11915   5.487   4.036   3.561 -2.5867 -0.9720  2.4593
  114SAPE   C2811916   5.514   4.171   3.729  0.3101 -0.4713  0.3244
  114SAPE   H8R11917   5.434   4.231   3.683  1.3767  0.6710 -0.1061
  114SAPE   C2911918   5.547   4.205   3.854 -0.7337  0.5170  0.1733
  114SAPE   H9R11919   5.507   4.299   3.896 -1.0946  0.6603 -0.4847
  114SAPE  C21011920   5.635   4.128   3.949 -0.2669  0.3299 -0.1262
  114SAPE  H10R11921   5.675   4.028   3.923  0.2355  0.7319 -0.9721
  114SAPE  H10S11922   5.578   4.107   4.041 -2.0727  1.7254 -0.8666
  114SAPE  C21111923   5.760   4.201   3.982  0.0600 -0.4154  0.3924
  114SAPE  H11R11924   5.808   4.257   3.900 -0.1429 -2.3918 -1.1610
  114SAPE  C21211925   5.817   4.189   4.106  0.2068 -0.0526 -0.0326
  114SAPE  H12R11926   5.909   4.243   4.133 -0.0948  1.0933 -1.1971
  114SAPE  C21311927   5.767   4.096   4.222  0.3541 -0.0341  0.6591
  114SAPE  H13R11928   5.714   4.005   4.184  0.7264 -1.1282  2.6327
  114SAPE  H13S11929   5.698   4.151   4.290 -1.3141 -1.5109  0.2545
  114SAPE  C21411930   5.881   4.033   4.300  0.5466 -0.0060 -0.1162
  114SAPE  H14R11931   5.924   3.942   4.255  0.2628 -0.4960  0.5759
  114SAPE  C21511932   5.921   4.072   4.419 -0.5133 -1.0147 -0.3454
  114SAPE  H15R11933   6.004   4.011   4.459  0.9584 -0.6918 -2.7569
  114SAPE  C21611934   5.879   4.188   4.504  0.7911  0.2731 -0.0881
  114SAPE  H16R11935   5.831   4.139   4.592  2.7966 -2.9347 -0.6315
  114SAPE  H16S11936   5.794   4.248   4.465  0.6246 -0.6263 -1.1422
  114SAPE  C21711937   5.989   4.275   4.540 -0.3587  0.0967  0.2883
  114SAPE  H17R11938   6.049   4.304   4.450 -1.6854 -2.1969 -1.4599
  114SAPE  H17S11939   6.063   4.231   4.611  1.6895 -0.0959 -1.8320
  114SAPE  C21811940   5.950   4.407   4.612 -0.5207  0.0935  0.0508
  114SAPE  H18R11941   5.917   4.394   4.717  0.2268  3.9392  0.8945
  114SAPE  H18S11942   5.873   4.464   4.556  0.9826  0.1289 -2.1157
  114SAPE  C21911943   6.074   4.503   4.620  0.6221 -0.0640 -0.0814
  114SAPE  H19R11944   6.039   4.601   4.658 -0.2055 -0.7592  0.9837
  114SAPE  H19S11945   6.105   4.521   4.514 -0.8952 -2.6123 -1.0269
  114SAPE  C22011946   6.180   4.453   4.712 -0.0569  0.8159  0.7500
  114SAPE  H20R11947   6.260   4.530   4.718  0.6071  0.6431 -3.1630
  114SAPE  H20S11948   6.229   4.363   4.669  1.4637  1.0088  1.9596
  114SAPE  H20T11949   6.142   4.432   4.814  2.5646 -0.6095  1.5493
  114SAPE   C3311950   5.400   3.188   3.559  0.3568  0.4521 -0.1168
  114SAPE   H3X11951   5.438   3.124   3.476 -1.5142  1.6205 -1.9759
  114SAPE   H3Y11952   5.293   3.162   3.569 -0.7087  4.0554 -1.0632
  114SAPE   C3411953   5.474   3.149   3.694 -0.3983 -0.3214  0.4398
  114SAPE   H4X11954   5.449   3.221   3.775  1.8014 -1.5305  2.3260
  114SAPE   H4Y11955   5.583   3.160   3.676 -0.2689 -0.8854  0.8383
  114SAPE   C3511956   5.437   3.006   3.732  0.2964  0.0672 -0.1294
  114SAPE   H5X11957   5.457   2.938   3.647 -0.8374 -0.0306 -0.3407
  114SAPE   H5Y11958   5.327   3.011   3.749  0.2112  0.3643 -0.7638
  114SAPE   C3611959   5.503   2.941   3.856  0.1143 -1.0208  0.0309
  114SAPE   H6X11960   5.451   2.844   3.871 -1.8434 -0.2519 -1.3743
  114SAPE   H6Y11961   5.478   3.004   3.944 -1.9230 -0.6137 -0.7795
  114SAPE   C3711962   5.659   2.928   3.836 -0.4726 -0.0060 -0.3951
  114SAPE   H7X11963   5.693   3.033   3.826 -0.2683  0.4413  3.3366
  114SAPE   H7Y11964   5.680   2.883   3.737 -0.1504  2.1503 -1.3625
  114SAPE   C3811965   5.735   2.868   3.957  0.2026  0.0474  0.3432
  114SAPE   H8X11966   5.845   2.875   3.941  0.1816  0.1698  0.2482
  114SAPE   H8Y11967   5.699   2.763   3.969 -1.3082  0.7897  3.2891
  114SAPE   C3911968   5.690   2.938   4.083 -0.4803 -0.1036  0.9511
  114SAPE   H9X11969   5.585   2.904   4.096 -1.1637  1.2798 -0.4501
  114SAPE   H9Y11970   5.687   3.047   4.060  1.9170  0.2033  1.7494
  114SAPE  C31011971   5.772   2.900   4.203  0.0184  0.0813 -0.7087
  114SAPE  H10X11972   5.719   2.953   4.284 -0.3468 -1.1000 -0.1534
  114SAPE  H10Y11973   5.877   2.936   4.190  0.3998 -1.4858 -2.5616
  114SAPE  C31111974   5.766   2.748   4.240 -0.6788  0.0947  0.2312
  114SAPE  H11X11975   5.815   2.689   4.160  1.4064 -0.0982  1.5661
  114SAPE  H11Y11976   5.661   2.712   4.243 -0.9699  0.9891  1.2446
  114SAPE  C31211977   5.837   2.722   4.378 -0.1355  0.2972  0.1637
  114SAPE  H12X11978   5.808   2.621   4.413  1.9255 -1.3973 -2.6293
  114SAPE  H12Y11979   5.799   2.794   4.454 -1.3773 -1.5703  1.3813
  114SAPE  C31311980   6.001   2.731   4.371  0.2696 -0.1448 -0.0332
  114SAPE  H13X11981   6.026   2.840   4.370 -1.8135  0.3667 -0.2169
  114SAPE  H13Y11982   6.028   2.692   4.270 -2.1269  2.7642 -2.0056
  114SAPE  C31411983   6.068   2.658   4.488  0.7364 -0.7706 -0.8629
  114SAPE  H14X11984   6.007   2.566   4.501  1.9270 -1.8110 -2.2575
  114SAPE  H14Y11985   6.049   2.716   4.581 -2.5573 -2.7968 -0.0971
  114SAPE  C31511986   6.213   2.642   4.467 -0.2879  0.0689  0.0271
  114SAPE  H15X11987   6.258   2.741   4.489 -0.7871 -0.1376  2.1762
  114SAPE  H15Y11988   6.229   2.619   4.359 -0.3781 -0.0961  0.0476
  114SAPE  C31611989   6.277   2.536   4.558  0.6118 -0.5251 -0.5210
  114SAPE  H16X11990   6.232   2.436   4.540 -0.6986 -0.1094  0.2642
  114SAPE  H16Y11991   6.248   2.576   4.658 -1.5106  0.1901 -1.3687
  114SAPE  C31711992   6.428   2.531   4.555  0.2262 -0.0193 -0.1463
  114SAPE  H17X11993   6.465   2.459   4.630 -1.6207 -0.0163  0.8195
  114SAPE  H17Y11994   6.471   2.626   4.592 -1.3718 -0.2694  2.6224
  114SAPE  C31811995   6.483   2.497   4.416  0.0027  0.8078  0.2777
  114SAPE  H18X11996   6.594   2.498   4.422  0.1533 -0.7242 -1.3372
  114SAPE  H18Y11997   6.457   2.575   4.342 -0.2964 -0.2147 -0.7097
  114SAPE  H18Z11998   6.472   2.391   4.384  1.4714  1.0963 -1.3037
  115SAPE     N11999   2.394   4.799   2.435 -0.1027 -0.1712  0.3538
  115SAPE   HN112000   2.426   4.705   2.401 -0.0431 -0.0813  0.1581
  115SAPE   HN212001   2.454   4.873   2.395  1.5508 -0.4449  2.1578
  115SAPE   HN312002   2.415   4.804   2.537 -1.0994  0.6234  0.5291
  115SAPE   C1212003   2.247   4.807   2.410  0.8968 -1.6315  0.0579
  115SAPE  H12A12004   2.194   4.746   2.486  0.3550 -1.3420 -0.0807
  115SAPE  H12B12005   2.222   4.759   2.313 -0.6661 -1.9499  0.5801
  115SAPE   C1112006   2.193   4.950   2.422 -0.5056  0.2330 -0.0732
  115SAPE  H11A12007   2.085   4.948   2.396 -0.7582 -1.1344  0.9526
  115SAPE  H11B12008   2.247   5.016   2.351  1.4358 -1.8151 -0.5862
  115SAPE     P12009   2.123   5.016   2.668  0.1273 -0.2020 -0.1628
  115SAPE   O1312010   1.997   5.084   2.623 -1.0848 -0.2888 -0.6229
  115SAPE   O1412011   2.108   4.881   2.727 -0.0989 -0.0515  0.1269
  115SAPE   O1212012   2.225   5.005   2.550  0.5757 -0.5538  0.0262
  115SAPE   O1112013   2.210   5.110   2.755 -0.4066 -0.7692  0.6522
  115SAPE    C112014   2.324   5.084   2.836  0.0883  0.0172  0.4411
  115SAPE    HA12015   2.355   4.978   2.822 -0.0346 -0.1429  1.2966
  115SAPE    HB12016   2.407   5.155   2.819 -0.2836  0.4941  0.6012
  115SAPE    C212017   2.279   5.079   2.979 -0.6060  0.4032 -0.3476
  115SAPE    HS12018   2.188   5.015   2.988 -0.1690 -0.3911 -1.4810
  115SAPE   O2112019   2.243   5.209   3.025 -0.4888  0.1933  0.2611
  115SAPE   C2112020   2.113   5.241   3.039  0.4091  0.0218 -0.0678
  115SAPE   O2212021   2.019   5.172   2.997  0.0184 -0.1159 -0.6950
  115SAPE   C2212022   2.112   5.385   3.094 -0.0530  0.3285 -0.0997
  115SAPE   H2R12023   2.207   5.428   3.054  0.2826  1.0668  1.4248
  115SAPE   H2S12024   2.021   5.434   3.055 -0.3918  0.2592  0.6018
  115SAPE    C312025   2.391   5.024   3.066  0.6581 -0.2789  0.0079
  115SAPE    HX12026   2.481   5.081   3.033 -0.1926  1.1556  0.0844
  115SAPE    HY12027   2.414   4.918   3.047  1.5753 -0.2574  0.9220
  115SAPE   O3112028   2.351   5.043   3.208  0.0973  0.3559  0.3097
  115SAPE   C3112029   2.427   5.104   3.283 -0.0673 -0.6828 -0.2608
  115SAPE   O3212030   2.543   5.137   3.264 -0.5170 -0.2752 -0.1084
  115SAPE   C3212031   2.354   5.129   3.413 -0.2241  0.4444  0.0839
  115SAPE   H2X12032   2.376   5.048   3.485  1.5098  1.2623  0.5198
  115SAPE   H2Y12033   2.245   5.129   3.391 -0.6008  2.5497  1.6082
  115SAPE   C2312034   2.118   5.385   3.247  0.1666 -0.2142 -0.1541
  115SAPE   H3R12035   2.207   5.322   3.267 -0.7311 -1.5229 -0.2052
  115SAPE   H3S12036   2.040   5.321   3.292  0.9411 -1.2971 -0.3313
  115SAPE   C2412037   2.128   5.521   3.323  0.4568  0.7273  0.4727
  115SAPE   H4R12038   2.211   5.584   3.284  1.5894 -1.0434 -0.0868
  115SAPE   H4S12039   2.154   5.489   3.427  0.6703  0.5315  0.3596
  115SAPE   C2512040   1.995   5.589   3.329 -0.0215 -0.5607  0.4671
  115SAPE   H5R12041   1.961   5.621   3.229  0.3329 -1.9695 -0.1198
  115SAPE   C2612042   1.912   5.602   3.433 -0.4477 -0.3699 -0.2127
  115SAPE   H6R12043   1.820   5.661   3.420 -2.1083 -2.9317 -0.9385
  115SAPE   C2712044   1.934   5.561   3.580  0.1028 -0.1048  0.3933
  115SAPE   H7R12045   1.938   5.656   3.638 -0.1289  1.3459 -1.8187
  115SAPE   H7S12046   2.025   5.499   3.593  1.1504  1.3206  0.1351
  115SAPE   C2812047   1.835   5.456   3.625 -0.3222 -0.2704 -0.0662
  115SAPE   H8R12048   1.842   5.354   3.585  0.0522 -1.4096  2.6782
  115SAPE   C2912049   1.759   5.464   3.734 -0.3975  0.0895 -1.2429
  115SAPE   H9R12050   1.699   5.375   3.759  1.4435 -0.2988  2.5184
  115SAPE  C21012051   1.766   5.573   3.846  0.6895  0.2395  0.2412
  115SAPE  H10R12052   1.871   5.606   3.858  0.3351  1.7434 -0.5638
  115SAPE  H10S12053   1.722   5.530   3.938  1.6547 -2.1002 -0.3247
  115SAPE  C21112054   1.700   5.701   3.795 -0.0902  0.2483  0.2244
  115SAPE  H11R12055   1.711   5.717   3.687  1.3200  0.6249  0.3985
  115SAPE  C21212056   1.639   5.791   3.871  0.9494  0.1379  0.1225
  115SAPE  H12R12057   1.593   5.877   3.821  1.5940  1.5980  1.9178
  115SAPE  C21312058   1.604   5.779   4.022  0.3519 -0.0126  0.7227
  115SAPE  H13R12059   1.549   5.686   4.048 -1.1223 -0.1445 -2.3781
  115SAPE  H13S12060   1.521   5.847   4.051 -0.7391 -1.9856  2.5430
  115SAPE  C21412061   1.733   5.794   4.104  0.7259 -0.9693 -0.0584
  115SAPE  H14R12062   1.817   5.833   4.045  0.1087 -0.3411 -0.5339
  115SAPE  C21512063   1.750   5.765   4.238  0.1785 -0.7022  0.1539
  115SAPE  H15R12064   1.845   5.768   4.293 -0.1363 -0.2312  0.6814
  115SAPE  C21612065   1.640   5.713   4.321  0.4220  0.1739  0.0167
  115SAPE  H16R12066   1.539   5.704   4.275 -0.2357  1.3917  1.1604
  115SAPE  H16S12067   1.630   5.788   4.402  0.7231 -0.3571  0.5541
  115SAPE  C21712068   1.662   5.576   4.391 -0.1494  0.1694 -1.0606
  115SAPE  H17R12069   1.764   5.581   4.435 -0.8606  1.1337  0.5670
  115SAPE  H17S12070   1.656   5.495   4.315 -0.1921 -1.5898  0.7362
  115SAPE  C21812071   1.560   5.535   4.495  0.3996  0.3230  0.4535
  115SAPE  H18R12072   1.457   5.572   4.478 -0.6263 -2.4357  0.2619
  115SAPE  H18S12073   1.596   5.594   4.582 -0.8869  1.6962  0.1031
  115SAPE  C21912074   1.565   5.382   4.502  0.5235  0.5334  0.4435
  115SAPE  H19R12075   1.670   5.344   4.505  0.4419  0.3765  1.9600
  115SAPE  H19S12076   1.511   5.331   4.418  0.4520 -1.5220  1.6636
  115SAPE  C22012077   1.493   5.344   4.639 -0.7605  0.4833  0.8026
  115SAPE  H20R12078   1.509   5.426   4.711 -0.1269  1.3377 -0.2891
  115SAPE  H20S12079   1.524   5.246   4.683  0.4743  0.5338  0.0645
  115SAPE  H20T12080   1.384   5.355   4.618 -0.9247 -1.9984 -0.0779
  115SAPE   C3312081   2.384   5.262   3.488  0.1660  0.0526 -0.2572
  115SAPE   H3X12082   2.391   5.341   3.410  1.0878 -0.5615 -0.8086
  115SAPE   H3Y12083   2.476   5.240   3.546 -1.5552 -0.0213  2.6492
  115SAPE   C3412084   2.281   5.313   3.590 -0.0748 -0.6226 -0.6821
  115SAPE   H4X12085   2.178   5.312   3.549 -0.4622  0.5957  0.2107
  115SAPE   H4Y12086   2.307   5.418   3.616  1.5714 -1.9792  4.2978
  115SAPE   C3512087   2.292   5.229   3.722  0.1985  0.1505 -0.4768
  115SAPE   H5X12088   2.401   5.220   3.744  0.5775 -0.8128 -2.4591
  115SAPE   H5Y12089   2.263   5.124   3.704 -1.7201  0.7886 -1.3261
  115SAPE   C3612090   2.195   5.286   3.830 -0.6890 -0.4480  0.4800
  115SAPE   H6X12091   2.094   5.286   3.783 -0.0869 -0.6349 -0.8537
  115SAPE   H6Y12092   2.226   5.392   3.843  1.7537 -1.0810  0.2943
  115SAPE   C3712093   2.211   5.215   3.957 -0.4709  0.7140  0.2003
  115SAPE   H7X12094   2.321   5.199   3.964 -0.3913  0.0357 -1.8762
  115SAPE   H7Y12095   2.161   5.119   3.936 -3.2429  2.3907 -1.3942
  115SAPE   C3812096   2.149   5.282   4.078  0.4444  0.0241 -0.3831
  115SAPE   H8X12097   2.047   5.317   4.050  0.1035 -0.7030 -0.0525
  115SAPE   H8Y12098   2.212   5.370   4.105  0.1445 -0.0925  0.7285
  115SAPE   C3912099   2.142   5.176   4.184  0.0486 -0.2509 -0.4961
  115SAPE   H9X12100   2.230   5.108   4.188 -0.1454 -0.5012 -0.4325
  115SAPE   H9Y12101   2.054   5.112   4.161  0.6748 -0.8278 -1.3330
  115SAPE  C31012102   2.130   5.238   4.329 -0.3978 -0.2433  0.1494
  115SAPE  H10X12103   2.054   5.320   4.329  1.7877  1.9852 -2.4689
  115SAPE  H10Y12104   2.226   5.292   4.347 -0.8880  0.9382 -0.6554
  115SAPE  C31112105   2.096   5.124   4.433  0.7220 -0.4987 -0.0081
  115SAPE  H11X12106   2.171   5.042   4.441  1.5538  0.1463 -0.9478
  115SAPE  H11Y12107   1.998   5.084   4.401 -0.4984  1.7107  0.7404
  115SAPE  C31212108   2.076   5.181   4.572 -0.4832  0.0440  0.4961
  115SAPE  H12X12109   1.980   5.237   4.573 -1.0772 -0.9066 -0.5292
  115SAPE  H12Y12110   2.153   5.253   4.605  0.9433 -1.9685  1.7779
  115SAPE  C31312111   2.062   5.063   4.668 -0.6092  0.5701 -0.9458
  115SAPE  H13X12112   2.166   5.025   4.675 -1.0412 -0.6852 -1.0387
  115SAPE  H13Y12113   1.994   4.991   4.618 -0.4777  0.5392 -1.0805
  115SAPE  C31412114   2.010   5.111   4.810  0.1863 -0.1221  0.2338
  115SAPE  H14X12115   1.901   5.134   4.808 -0.2575 -1.5525  2.9241
  115SAPE  H14Y12116   2.061   5.206   4.835  1.0479 -0.5618  0.1745
  115SAPE  C31512117   2.045   5.014   4.920 -0.0749  0.2594 -0.7084
  115SAPE  H15X12118   2.156   5.023   4.932 -0.0956  2.3936 -1.6758
  115SAPE  H15Y12119   2.029   4.909   4.889  0.3642 -0.2500  0.6651
  115SAPE  C31612120   1.988   5.034   5.068  0.0733  0.2117  0.3446
  115SAPE  H16X12121   1.877   5.037   5.060  0.0054  1.8026  1.3766
  115SAPE  H16Y12122   2.034   5.134   5.084  2.9586 -0.7742 -1.1337
  115SAPE  C31712123   2.026   4.940   5.176 -0.2010  0.5526 -0.5133
  115SAPE  H17X12124   2.137   4.941   5.186 -0.2016  1.5384 -0.4488
  115SAPE  H17Y12125   1.996   4.836   5.152  0.8079  0.1012  0.1481
  115SAPE  C31812126   1.972   4.982   5.317 -0.1236  0.2961 -0.9591
  115SAPE  H18X12127   1.863   4.965   5.316  0.1331 -2.4067  2.2305
  115SAPE  H18Y12128   1.993   5.089   5.337 -0.8888  0.6877 -2.1521
  115SAPE  H18Z12129   2.023   4.923   5.397 -2.1381 -0.1993  0.0074
  116SAPE     N12130   0.012   5.429   2.045 -0.1431 -0.2340  0.0377
  116SAPE   HN112131   0.054   5.524   2.044 -1.2972  0.2933  0.3567
  116SAPE   HN212132   0.085   5.356   2.033  1.9718  1.5175  1.5168
  116SAPE   HN312133  -0.061   5.418   1.971 -0.6397 -0.1651  0.5085
  116SAPE   C1212134  -0.042   5.417   2.184  0.9158  0.2410  0.3379
  116SAPE  H12A12135  -0.131   5.483   2.185  0.5848 -0.2136  1.0875
  116SAPE  H12B12136   0.029   5.474   2.248  1.0719  1.5220 -0.9003
  116SAPE   C1112137  -0.077   5.271   2.218 -0.3968  0.0725 -0.4139
  116SAPE  H11A12138  -0.150   5.231   2.144  0.9830 -0.5613 -1.4790
  116SAPE  H11B12139  -0.123   5.270   2.319 -0.8981  0.8896 -0.6299
  116SAPE     P12140   0.060   5.048   2.287 -0.4276  0.1513 -0.3512
  116SAPE   O1312141  -0.033   4.967   2.215 -0.0835  0.5572  0.6736
  116SAPE   O1412142   0.202   5.001   2.277 -0.4933  0.3196  0.3468
  116SAPE   O1212143   0.039   5.194   2.229 -0.3936  0.7009 -0.1591
  116SAPE   O1112144   0.016   5.065   2.441  0.4755  0.3224  0.4812
  116SAPE    C112145   0.078   5.158   2.530 -0.4433  0.3866  0.7156
  116SAPE    HA12146   0.174   5.202   2.496  0.4329 -1.3420  0.8489
  116SAPE    HB12147  -0.002   5.234   2.545 -2.0367 -1.3737  1.6250
  116SAPE    C212148   0.116   5.089   2.659  0.5552  0.3862  0.4088
  116SAPE    HS12149   0.170   5.169   2.714 -0.9300 -0.2194  2.8787
  116SAPE   O2112150   0.190   4.972   2.633  0.4917  0.0914  0.3286
  116SAPE   C2112151   0.315   4.953   2.675 -0.1780  0.7774  0.5315
  116SAPE   O2212152   0.383   5.035   2.732  0.1210  0.1946 -0.1825
  116SAPE   C2212153   0.364   4.821   2.610  0.1678 -0.0313 -0.2057
  116SAPE   H2R12154   0.347   4.826   2.501  0.9104 -1.0747 -0.3813
  116SAPE   H2S12155   0.472   4.806   2.629 -0.0687 -1.2994  0.2760
  116SAPE    C312156  -0.004   5.051   2.757 -0.4303 -0.3086 -0.7458
  116SAPE    HX12157  -0.077   4.985   2.705 -0.2464  0.0429 -1.4640
  116SAPE    HY12158  -0.055   5.148   2.773  2.1126  0.8604  0.8526
  116SAPE   O3112159   0.040   4.989   2.885 -0.4576 -0.4549  0.6173
  116SAPE   C3112160   0.082   5.079   2.975  0.9411  0.6210 -0.6380
  116SAPE   O3212161   0.051   5.202   2.973 -0.0770 -0.4826  0.3514
  116SAPE   C3212162   0.166   5.021   3.092 -0.6530 -0.5660 -0.6464
  116SAPE   H2X12163   0.183   5.098   3.171 -0.5619 -2.1903  0.9660
  116SAPE   H2Y12164   0.269   5.002   3.055  0.9717  0.7256  2.7766
  116SAPE   C2312165   0.277   4.692   2.657  0.3815 -0.1711  0.0637
  116SAPE   H3R12166   0.323   4.605   2.605  1.0906 -0.3980  1.0445
  116SAPE   H3S12167   0.171   4.704   2.629  0.3092  1.1111  0.8073
  116SAPE   C2412168   0.290   4.687   2.808 -0.6404 -0.8967  0.0424
  116SAPE   H4R12169   0.218   4.616   2.851 -0.4917 -0.4616  1.0264
  116SAPE   H4S12170   0.284   4.783   2.863 -0.9600 -0.8478 -0.0773
  116SAPE   C2512171   0.428   4.623   2.829 -0.1028  0.2768 -1.0538
  116SAPE   H5R12172   0.439   4.532   2.768 -0.7183  0.5859 -1.6380
  116SAPE   C2612173   0.526   4.657   2.917  0.8309  0.0123 -0.2278
  116SAPE   H6R12174   0.612   4.590   2.930  0.6154 -0.2779 -0.2732
  116SAPE   C2712175   0.509   4.770   3.015  0.0076 -0.5177  0.6491
  116SAPE   H7R12176   0.411   4.751   3.064  0.0589 -0.8708  0.6145
  116SAPE   H7S12177   0.500   4.862   2.953 -0.6074 -1.1439 -0.2266
  116SAPE   C2812178   0.623   4.796   3.111  0.5436  0.0681 -0.2914
  116SAPE   H8R12179   0.707   4.862   3.087  0.5941  0.4936  0.9955
  116SAPE   C2912180   0.652   4.720   3.219  0.8698 -0.5999  0.8290
  116SAPE   H9R12181   0.741   4.747   3.278  1.2887 -3.0950  1.4374
  116SAPE  C21012182   0.572   4.609   3.282  0.4669 -0.5675  0.1702
  116SAPE  H10R12183   0.480   4.594   3.221 -0.4475 -1.5832  1.7140
  116SAPE  H10S12184   0.524   4.641   3.378 -1.1864 -1.4147 -0.3430
  116SAPE  C21112185   0.646   4.474   3.300  0.7612  0.1205 -0.1397
  116SAPE  H11R12186   0.637   4.405   3.215  0.3562  1.4264 -1.1911
  116SAPE  C21212187   0.719   4.437   3.401 -0.3925  0.0559 -0.5151
  116SAPE  H12R12188   0.762   4.336   3.403 -1.0808 -0.3014 -2.1611
  116SAPE  C21312189   0.756   4.526   3.517  0.3207 -0.2509 -0.0178
  116SAPE  H13R12190   0.716   4.483   3.611  0.0036 -0.6346 -0.3229
  116SAPE  H13S12191   0.714   4.628   3.509  3.0027  0.9037 -0.2993
  116SAPE  C21412192   0.907   4.521   3.524 -0.2403  0.2192 -0.1393
  116SAPE  H14R12193   0.957   4.558   3.433 -0.5688  2.0161  0.3817
  116SAPE  C21512194   0.988   4.487   3.632  0.0256 -0.3070  0.3225
  116SAPE  H15R12195   1.093   4.466   3.609 -0.2420 -0.4190 -0.8598
  116SAPE  C21612196   0.943   4.442   3.771 -0.0599  0.1595  0.4866
  116SAPE  H16R12197   1.028   4.398   3.829 -1.1421  0.3660  2.3338
  116SAPE  H16S12198   0.876   4.354   3.758 -0.0485  0.1089  0.7504
  116SAPE  C21712199   0.875   4.549   3.863  0.5746  0.4611  0.8930
  116SAPE  H17R12200   0.801   4.595   3.794 -0.2032 -0.3999  1.1330
  116SAPE  H17S12201   0.944   4.631   3.892 -0.8807  1.6661  1.0345
  116SAPE  C21812202   0.809   4.489   3.990 -0.1744  0.4797  0.3455
  116SAPE  H18R12203   0.855   4.398   4.035 -0.5281 -0.4606 -1.1368
  116SAPE  H18S12204   0.704   4.463   3.962  0.3721  0.9617 -2.4475
  116SAPE  C21912205   0.815   4.601   4.101  0.0567  0.0540 -0.3385
  116SAPE  H19R12206   0.775   4.698   4.063  3.7277  2.1882  0.7118
  116SAPE  H19S12207   0.922   4.614   4.126 -0.1710  0.2822  0.5602
  116SAPE  C22012208   0.733   4.572   4.226  0.6848 -0.5410  0.2971
  116SAPE  H20R12209   0.627   4.563   4.194  0.6954 -2.5146  0.6371
  116SAPE  H20S12210   0.732   4.656   4.299 -0.6718 -1.8629  1.8998
  116SAPE  H20T12211   0.767   4.476   4.273 -0.6306 -2.4364 -2.3531
  116SAPE   C3312212   0.119   4.888   3.144  0.9765  0.1455  0.0619
  116SAPE   H3X12213   0.126   4.798   3.080 -0.8002 -1.3821  1.8915
  116SAPE   H3Y12214   0.012   4.889   3.173  0.7145  1.6500 -0.8668
  116SAPE   C3412215   0.187   4.856   3.285 -0.5893 -0.2248  0.2619
  116SAPE   H4X12216   0.212   4.944   3.347 -0.3376 -0.1047 -0.0091
  116SAPE   H4Y12217   0.280   4.802   3.255  0.3124  0.6039  1.4522
  116SAPE   C3512218   0.121   4.748   3.378  0.8591 -0.4780  0.2133
  116SAPE   H5X12219   0.211   4.696   3.416  1.2408  0.7567  1.0346
  116SAPE   H5Y12220   0.065   4.665   3.328 -0.1610 -1.3074  2.6160
  116SAPE   C3612221   0.043   4.805   3.501  0.5496 -0.7272  0.1569
  116SAPE   H6X12222  -0.055   4.837   3.460 -1.6869 -3.3845  2.9442
  116SAPE   H6Y12223   0.098   4.895   3.534  0.1027 -0.3748 -0.0474
  116SAPE   C3712224   0.025   4.706   3.619 -1.7618  0.4661 -0.4148
  116SAPE   H7X12225   0.131   4.677   3.634 -1.8330 -0.2655 -1.2776
  116SAPE   H7Y12226  -0.029   4.614   3.589  0.7425 -0.6355 -1.8173
  116SAPE   C3812227  -0.039   4.764   3.739  0.6168 -0.0916 -0.3585
  116SAPE   H8X12228  -0.140   4.805   3.715  0.0216  1.4305  3.9145
  116SAPE   H8Y12229   0.009   4.858   3.771  0.9771 -1.0529  2.0842
  116SAPE   C3912230  -0.052   4.679   3.871 -0.2062  0.1756 -0.2535
  116SAPE   H9X12231  -0.120   4.728   3.945 -0.3520 -2.2820  1.3506
  116SAPE   H9Y12232   0.047   4.659   3.917 -0.3281  0.2017  0.0255
  116SAPE  C31012233  -0.108   4.539   3.861  1.1149 -0.0556 -0.1876
  116SAPE  H10X12234  -0.060   4.486   3.776  2.4000  1.7475 -0.6428
  116SAPE  H10Y12235  -0.213   4.561   3.833 -0.1316 -1.8692  2.5645
  116SAPE  C31112236  -0.102   4.464   3.993 -0.7112 -0.6383 -0.0344
  116SAPE  H11X12237  -0.158   4.517   4.073 -0.5023 -1.3169  0.5703
  116SAPE  H11Y12238   0.007   4.451   4.011 -0.4977 -0.5152 -1.1679
  116SAPE  C31212239  -0.167   4.326   3.985  0.9180 -0.0508 -0.0154
  116SAPE  H12X12240  -0.095   4.244   3.966 -1.0785 -1.7710 -0.5624
  116SAPE  H12Y12241  -0.242   4.326   3.903 -2.8996 -0.4227  3.1922
  116SAPE  C31312242  -0.224   4.296   4.125 -0.1426  0.6633 -0.9864
  116SAPE  H13X12243  -0.267   4.194   4.125  0.9340  0.0423  2.8361
  116SAPE  H13Y12244  -0.312   4.362   4.142 -1.2203 -0.9198 -0.3069
  116SAPE  C31412245  -0.129   4.307   4.245  0.2449  0.0689  0.1926
  116SAPE  H14X12246  -0.190   4.294   4.336  0.1509  2.1623  0.4917
  116SAPE  H14Y12247  -0.079   4.406   4.251 -1.6783  1.3994 -2.8766
  116SAPE  C31512248  -0.016   4.206   4.233  0.0774 -0.3717 -0.2381
  116SAPE  H15X12249   0.036   4.236   4.140  1.0358  0.2359  0.4665
  116SAPE  H15Y12250  -0.065   4.107   4.220 -0.2142 -0.1133 -1.1977
  116SAPE  C31612251   0.091   4.209   4.348 -0.3339 -0.4057  0.3026
  116SAPE  H16X12252   0.126   4.313   4.365  0.5652 -0.5606 -0.5155
  116SAPE  H16Y12253   0.180   4.153   4.313  2.0504  1.7338  2.5258
  116SAPE  C31712254   0.032   4.141   4.471 -0.3199  0.8354  0.1402
  116SAPE  H17X12255   0.107   4.086   4.531 -0.4644  0.2267 -0.2228
  116SAPE  H17Y12256  -0.040   4.067   4.430 -0.3780  1.7447 -1.5102
  116SAPE  C31812257  -0.054   4.231   4.563  0.2645  0.3981 -0.5548
  116SAPE  H18X12258  -0.040   4.336   4.530 -0.9336  1.1060  1.0644
  116SAPE  H18Y12259  -0.017   4.245   4.667 -0.0990 -1.5744 -0.1124
  116SAPE  H18Z12260  -0.164   4.211   4.560  0.0364  1.5151 -0.0628
  117SOPE     N12261   4.965   1.429   7.101  0.0533  0.0274 -0.1081
  117SOPE   HN112262   4.920   1.363   7.168 -0.2675 -0.0097 -0.3563
  117SOPE   HN212263   5.043   1.478   7.149 -0.9691 -0.0097  1.7006
  117SOPE   HN312264   4.889   1.493   7.069 -0.7813  0.4611  2.5071
  117SOPE   C1212265   5.017   1.364   6.977 -0.4294  0.3317  0.4226
  117SOPE  H12A12266   5.113   1.414   6.950 -0.5123 -0.5225 -1.6711
  117SOPE  H12B12267   4.956   1.402   6.892  0.0635 -0.2297 -0.1931
  117SOPE   C1112268   5.030   1.213   6.994 -0.3135 -0.1000 -0.4106
  117SOPE  H11A12269   5.037   1.158   6.897  1.3939  1.5791 -1.3086
  117SOPE  H11B12270   4.944   1.173   7.051  0.6766 -0.1608  1.0865
  117SOPE     P12271   5.237   1.063   7.084  0.2636 -0.2632 -0.3076
  117SOPE   O1312272   5.153   0.963   7.155  0.9868  0.2324  0.2298
  117SOPE   O1412273   5.364   1.097   7.153 -0.2940 -0.7006  0.1530
  117SOPE   O1212274   5.153   1.193   7.069  0.0470 -0.7968 -0.3618
  117SOPE   O1112275   5.265   1.020   6.933 -0.3211 -0.1781 -0.6345
  117SOPE    C112276   5.319   1.118   6.846  0.0952  0.2428  0.3518
  117SOPE    HA12277   5.407   1.156   6.902  0.0213  0.7776  0.1145
  117SOPE    HB12278   5.253   1.204   6.825  0.5288  0.6317  0.5690
  117SOPE    C212279   5.364   1.049   6.712 -0.1574 -0.0440 -0.0893
  117SOPE    HS12280   5.411   1.126   6.647 -0.0279  0.7426  0.9085
  117SOPE   O2112281   5.253   0.980   6.653  0.2916 -0.1967  0.2645
  117SOPE   C2112282   5.155   1.059   6.614  0.3028  0.1636  0.0172
  117SOPE   O2212283   5.147   1.179   6.628  0.1414 -0.2005  0.4160
  117SOPE   C2212284   5.041   0.981   6.544 -0.1084  0.0140  0.7414
  117SOPE   H2R12285   4.956   0.995   6.614 -0.6683  0.0615  0.0570
  117SOPE   H2S12286   5.070   0.874   6.540 -0.0359 -0.0559  2.4648
  117SOPE    C312287   5.472   0.943   6.745 -0.5898 -0.3191  0.0193
  117SOPE    HX12288   5.418   0.851   6.776 -2.6861  0.7471 -0.3029
  117SOPE    HY12289   5.540   0.977   6.826 -0.4883 -1.3857  0.4021
  117SOPE   O3112290   5.543   0.906   6.625  0.2084 -0.0684 -0.2330
  117SOPE   C3112291   5.647   0.981   6.585  0.3867  0.6559 -0.6140
  117SOPE   O3212292   5.695   1.070   6.650 -1.1141 -0.3160  0.2344
  117SOPE   C3212293   5.680   0.954   6.432  0.0095  0.8933 -0.4678
  117SOPE   H2X12294   5.602   1.006   6.373  1.0802  0.1873 -2.5964
  117SOPE   H2Y12295   5.673   0.848   6.399 -0.2313  0.7639 -0.0223
  117SOPE   C2312296   4.988   1.038   6.408  0.2573 -0.5508 -0.4531
  117SOPE   H3R12297   4.959   1.143   6.432 -1.2037 -0.5698 -1.9074
  117SOPE   H3S12298   4.893   0.985   6.384  0.0079 -0.9358  1.2424
  117SOPE   C2412299   5.090   1.033   6.294  0.2151 -0.4532 -0.1548
  117SOPE   H4R12300   5.181   1.087   6.326 -0.4787 -0.2135  1.4755
  117SOPE   H4S12301   5.119   0.926   6.296 -0.7396 -0.7219  1.6871
  117SOPE   C2512302   5.029   1.083   6.164  0.3104  0.5594  0.1602
  117SOPE   H5R12303   4.946   1.015   6.136  1.5545 -0.2966 -1.6467
  117SOPE   H5S12304   4.982   1.182   6.181  3.0511  1.9670  0.1046
  117SOPE   C2612305   5.119   1.080   6.038 -0.2804 -0.3807 -0.0963
  117SOPE   H6R12306   5.184   1.167   6.060 -0.1605 -0.0762 -1.5735
  117SOPE   H6S12307   5.183   0.989   6.027  0.0928 -0.0011 -1.2070
  117SOPE   C2712308   5.034   1.116   5.914 -0.1611 -0.6765  0.2877
  117SOPE   H7R12309   4.997   1.019   5.874  1.1467 -0.4029 -1.7381
  117SOPE   H7S12310   4.944   1.176   5.939  0.0513  0.4167 -1.4195
  117SOPE   C2812311   5.117   1.201   5.814  0.2186 -0.0937 -0.3589
  117SOPE   H8R12312   5.143   1.287   5.879  3.3288  0.2567 -1.8643
  117SOPE   H8S12313   5.215   1.153   5.792  0.8944  0.8331  0.5805
  117SOPE   C2912314   5.034   1.234   5.693 -0.5662  0.5240 -0.0233
  117SOPE   H9112315   4.926   1.247   5.704 -0.9384 -1.9059 -0.4210
  117SOPE  C21012316   5.076   1.245   5.569  0.4880  0.3292  0.3030
  117SOPE  H10112317   5.001   1.257   5.490 -0.8648  0.8357  1.6227
  117SOPE  C21112318   5.217   1.222   5.529 -0.2695  0.3338 -0.6491
  117SOPE  H11R12319   5.225   1.209   5.419 -2.2019  0.4930 -0.8463
  117SOPE  H11S12320   5.269   1.130   5.564  1.6021  1.0818 -1.3550
  117SOPE  C21212321   5.306   1.345   5.565 -0.1348  0.3374  0.7676
  117SOPE  H12R12322   5.407   1.300   5.555  0.3613  1.5669  0.0552
  117SOPE  H12S12323   5.300   1.367   5.673  0.9642  0.0049  0.9069
  117SOPE  C21312324   5.303   1.463   5.470 -0.4567  0.0444  0.2453
  117SOPE  H13R12325   5.373   1.536   5.517  2.5953 -1.3557 -1.7766
  117SOPE  H13S12326   5.200   1.502   5.475 -0.3000  0.4780  0.1167
  117SOPE  C21412327   5.364   1.437   5.329  0.2863  0.2032 -0.1941
  117SOPE  H14R12328   5.299   1.361   5.281 -0.8866  2.7072 -2.8847
  117SOPE  H14S12329   5.463   1.388   5.340  0.6072  0.8340 -0.2042
  117SOPE  C21512330   5.370   1.571   5.243 -0.6234  0.0872  0.1260
  117SOPE  H15R12331   5.448   1.627   5.300  0.7009 -1.3400 -0.2045
  117SOPE  H15S12332   5.278   1.632   5.250 -1.6879 -1.5581  1.1919
  117SOPE  C21612333   5.415   1.552   5.094  0.0263 -0.5781  0.4025
  117SOPE  H16R12334   5.338   1.485   5.049  0.7957 -1.6713  0.6776
  117SOPE  H16S12335   5.516   1.506   5.091 -0.3019 -1.2803 -0.2488
  117SOPE  C21712336   5.420   1.686   5.025  0.2422 -0.1394 -0.6150
  117SOPE  H17R12337   5.506   1.751   5.051 -1.7360  2.9683 -1.3316
  117SOPE  H17S12338   5.333   1.751   5.047  1.2666  1.0946 -0.1011
  117SOPE  C21812339   5.432   1.679   4.871 -0.3272  0.2055  0.6919
  117SOPE  H18R12340   5.535   1.648   4.840 -0.9127 -1.3738  0.2211
  117SOPE  H18S12341   5.408   1.782   4.836 -0.4577 -0.2202 -0.5422
  117SOPE  H18T12342   5.365   1.604   4.823  2.3046 -0.7505 -1.8518
  117SOPE   C3312343   5.820   1.014   6.397  0.6364  0.0187  0.2812
  117SOPE   H3X12344   5.894   0.953   6.453  0.4674 -0.4070  0.0467
  117SOPE   H3Y12345   5.811   1.110   6.452 -2.6176 -0.3747  0.6569
  117SOPE   C3412346   5.847   1.018   6.239 -0.5487 -0.3752 -0.0985
  117SOPE   H4X12347   5.952   1.054   6.231 -0.6730  0.4123  1.3851
  117SOPE   H4Y12348   5.774   1.095   6.205 -0.0723 -0.8723 -2.4243
  117SOPE   C3512349   5.824   0.888   6.162  0.1322  0.2828  0.4278
  117SOPE   H5X12350   5.717   0.865   6.147  0.3424  0.8182 -2.5817
  117SOPE   H5Y12351   5.875   0.817   6.231 -0.5529  1.4561  2.1989
  117SOPE   C3612352   5.900   0.897   6.020  0.3562  0.7967  0.6165
  117SOPE   H6X12353   6.005   0.926   6.039  0.8522 -1.3686  1.5105
  117SOPE   H6Y12354   5.842   0.962   5.950  0.8900 -0.0694 -0.6691
  117SOPE   C3712355   5.917   0.753   5.962 -0.0728 -0.4107  0.0127
  117SOPE   H7X12356   5.831   0.684   5.974 -0.0931 -0.4150 -0.1471
  117SOPE   H7Y12357   5.998   0.703   6.020 -0.3720 -0.3694  0.4693
  117SOPE   C3812358   5.963   0.766   5.815 -0.7971  0.7253  0.1852
  117SOPE   H8X12359   6.013   0.672   5.787 -1.2521  1.0707 -1.9368
  117SOPE   H8Y12360   6.026   0.857   5.805 -0.8864  0.9306  1.3355
  117SOPE   C3912361   5.847   0.794   5.714 -0.0615 -0.0240 -0.0344
  117SOPE   H9X12362   5.840   0.905   5.713  3.1894  0.3496  2.1441
  117SOPE   H9Y12363   5.757   0.754   5.764  0.3035  1.1243  1.6170
  117SOPE  C31012364   5.855   0.751   5.565  0.2555 -0.4591  0.3083
  117SOPE  H10X12365   5.755   0.765   5.517  0.5294 -0.1932 -0.1953
  117SOPE  H10Y12366   5.893   0.647   5.560  0.6410 -0.3318  0.6057
  117SOPE  C31112367   5.949   0.838   5.486  0.1741  0.4950  0.0354
  117SOPE  H11X12368   6.049   0.821   5.532  1.4386  0.5238 -2.5518
  117SOPE  H11Y12369   5.939   0.948   5.501  2.7488  0.6592  1.0980
  117SOPE  C31212370   5.951   0.816   5.336 -0.2274  0.1506  0.3417
  117SOPE  H12X12371   5.849   0.818   5.293 -0.2039  0.5749  0.3014
  117SOPE  H12Y12372   5.986   0.713   5.312  0.2417 -0.0115  1.6277
  117SOPE  C31312373   6.042   0.914   5.249 -0.3935  0.2264 -0.7452
  117SOPE  H13X12374   6.148   0.904   5.280  0.6843  2.2880 -3.3232
  117SOPE  H13Y12375   6.003   1.018   5.263 -0.3456  0.0631  0.7831
  117SOPE  C31412376   6.032   0.892   5.102  0.8831  0.4056  0.5179
  117SOPE  H14X12377   6.067   0.983   5.047  1.2313  0.5945  1.0391
  117SOPE  H14Y12378   5.928   0.884   5.066 -0.1509 -2.2402  3.6305
  117SOPE  C31512379   6.120   0.780   5.047  0.3007 -0.2711 -0.6904
  117SOPE  H15X12380   6.063   0.684   5.054 -1.8597  0.9752 -0.3545
  117SOPE  H15Y12381   6.217   0.773   5.099  1.5803 -0.7378 -2.9694
  117SOPE  C31612382   6.162   0.813   4.903 -0.0154 -0.4683  0.4966
  117SOPE  H16X12383   6.240   0.892   4.895 -1.3532  1.0078  1.4160
  117SOPE  H16Y12384   6.079   0.845   4.837  0.5148  0.2262  0.1581
  117SOPE  C31712385   6.194   0.676   4.841  0.5317 -0.3777  0.7997
  117SOPE  H17X12386   6.089   0.642   4.853 -0.2356  1.2014 -0.9937
  117SOPE  H17Y12387   6.265   0.616   4.902  0.7637 -1.4009 -0.4335
  117SOPE  C31812388   6.234   0.689   4.694 -0.5806  0.5342  0.5876
  117SOPE  H18X12389   6.146   0.732   4.642  0.0911  1.3874  0.1344
  117SOPE  H18Y12390   6.254   0.591   4.647 -0.1323  1.3697 -1.0231
  117SOPE  H18Z12391   6.325   0.751   4.681  0.6212 -1.3907 -0.6462
  118SOPE     N12392   5.685   1.872   6.949  0.5340 -0.6273 -0.2707
  118SOPE   HN112393   5.777   1.850   6.906 -0.4812 -1.1979 -2.2912
  118SOPE   HN212394   5.626   1.881   6.864 -0.0889 -0.0647  0.2156
  118SOPE   HN312395   5.670   1.967   6.988 -0.0713 -0.5929 -0.5650
  118SOPE   C1212396   5.638   1.760   7.031  0.1554  0.7987  0.5218
  118SOPE  H12A12397   5.687   1.759   7.130  0.9890 -0.2825  0.1274
  118SOPE  H12B12398   5.662   1.672   6.968 -0.3425  2.3320 -1.9488
  118SOPE   C1112399   5.484   1.762   7.062 -0.3346 -0.2100  0.6569
  118SOPE  H11A12400   5.449   1.856   7.110 -0.5338  0.6441 -1.0923
  118SOPE  H11B12401   5.455   1.676   7.126  1.0296 -1.4927 -0.3916
  118SOPE     P12402   5.369   1.628   6.864 -0.1015  0.5254  0.0409
  118SOPE   O1312403   5.270   1.651   6.760  0.5730  0.5557  0.2657
  118SOPE   O1412404   5.323   1.533   6.969 -0.4720  0.5521  0.5801
  118SOPE   O1212405   5.418   1.762   6.933  0.2794  0.9351 -0.4151
  118SOPE   O1112406   5.498   1.577   6.798  0.2036  0.0919  0.1333
  118SOPE    C112407   5.530   1.444   6.760  0.4412  0.2215  0.8577
  118SOPE    HA12408   5.450   1.374   6.793 -1.2345  1.1171 -1.0968
  118SOPE    HB12409   5.620   1.410   6.814 -0.5800 -3.3084  0.5964
  118SOPE    C212410   5.545   1.428   6.602 -0.9965 -0.3789  0.4832
  118SOPE    HS12411   5.590   1.328   6.582 -1.5816 -0.6950  0.7153
  118SOPE   O2112412   5.635   1.529   6.556 -0.1726  0.5884  0.0156
  118SOPE   C2112413   5.698   1.508   6.439  0.1511 -0.4374  0.6555
  118SOPE   O2212414   5.702   1.404   6.373  0.2300  0.5759  0.4330
  118SOPE   C2212415   5.780   1.631   6.397 -0.4711 -0.0355  0.4729
  118SOPE   H2R12416   5.864   1.659   6.464 -0.4329  2.4201 -0.4654
  118SOPE   H2S12417   5.723   1.723   6.420 -1.2818  0.0399 -1.6183
  118SOPE    C312418   5.413   1.438   6.520 -0.2024  0.5407 -0.3876
  118SOPE    HX12419   5.380   1.544   6.524 -0.1076  0.5622 -0.1986
  118SOPE    HY12420   5.341   1.366   6.565  0.4789 -1.9386 -2.9318
  118SOPE   O3112421   5.429   1.411   6.380  0.1207 -0.6817 -0.0891
  118SOPE   C3112422   5.430   1.279   6.339 -0.2766  0.0927  0.8569
  118SOPE   O3212423   5.417   1.185   6.419 -0.1283  0.1713  0.2689
  118SOPE   C3212424   5.466   1.273   6.182 -0.2571  0.3780  0.2788
  118SOPE   H2X12425   5.569   1.310   6.161 -0.4979  0.6896 -0.3766
  118SOPE   H2Y12426   5.393   1.337   6.128  0.6775  0.4837 -0.9128
  118SOPE   C2312427   5.826   1.634   6.249 -0.5883  0.1883  0.2455
  118SOPE   H3R12428   5.748   1.594   6.180 -2.4595 -1.4696  3.0601
  118SOPE   H3S12429   5.906   1.558   6.234  0.3221  0.6811  2.2299
  118SOPE   C2412430   5.847   1.780   6.212 -0.0028  0.0593 -0.0141
  118SOPE   H4R12431   5.749   1.829   6.233 -0.8354 -1.4152 -0.3831
  118SOPE   H4S12432   5.930   1.813   6.280 -0.2014 -1.8580  1.2459
  118SOPE   C2512433   5.881   1.803   6.059 -0.4271  0.2217  0.0042
  118SOPE   H5R12434   5.894   1.702   6.014 -0.1769 -0.7440  2.1003
  118SOPE   H5S12435   5.795   1.858   6.014 -0.1486  1.8178  1.3360
  118SOPE   C2612436   6.016   1.881   6.049 -0.3101 -0.3824  0.1056
  118SOPE   H6R12437   6.004   1.965   6.120  1.4677 -0.7603  0.8864
  118SOPE   H6S12438   6.110   1.831   6.080  0.1172  2.1210  3.3234
  118SOPE   C2712439   6.043   1.948   5.909  0.0039  0.1988  0.0017
  118SOPE   H7R12440   5.999   1.883   5.830 -1.2011  0.3064  0.5542
  118SOPE   H7S12441   5.976   2.037   5.900  0.5513  0.6738  0.5530
  118SOPE   C2812442   6.186   1.990   5.875 -0.6265 -0.3073  0.0673
  118SOPE   H8R12443   6.184   2.074   5.803 -0.6305 -0.6809 -0.3670
  118SOPE   H8S12444   6.226   2.038   5.968 -0.3886  1.0987 -0.7331
  118SOPE   C2912445   6.275   1.871   5.834  0.2739  0.6221  0.0602
  118SOPE   H9112446   6.265   1.790   5.908  3.7963  0.0406  0.0886
  118SOPE  C21012447   6.357   1.854   5.730 -0.5299 -0.3890 -0.0557
  118SOPE  H10112448   6.412   1.759   5.725  1.8182  0.8159  1.2691
  118SOPE  C21112449   6.393   1.956   5.624  0.5696  1.3825  0.2760
  118SOPE  H11R12450   6.343   2.053   5.645  0.7968  1.6763 -0.5048
  118SOPE  H11S12451   6.349   1.926   5.526  0.6887  1.6900  0.1274
  118SOPE  C21212452   6.537   1.990   5.623  0.3775 -0.2182 -0.2837
  118SOPE  H12R12453   6.556   2.061   5.539 -0.8837 -0.4839 -0.8180
  118SOPE  H12S12454   6.590   1.897   5.595 -0.8880 -1.0245 -0.0852
  118SOPE  C21312455   6.580   2.053   5.756  0.2003 -0.1407  0.7058
  118SOPE  H13R12456   6.530   1.999   5.840  0.1097 -3.2416 -1.2139
  118SOPE  H13S12457   6.537   2.156   5.754  0.9559  0.1692  0.3547
  118SOPE  C21412458   6.733   2.080   5.770  0.0521 -0.3009  0.1690
  118SOPE  H14R12459   6.769   2.152   5.693 -1.5165 -0.7104 -0.9947
  118SOPE  H14S12460   6.792   1.985   5.773  1.8716  0.7834  1.2594
  118SOPE  C21512461   6.773   2.147   5.906 -0.6040 -0.0346  0.1184
  118SOPE  H15R12462   6.721   2.096   5.989  0.8864 -0.3653  0.8786
  118SOPE  H15S12463   6.727   2.248   5.908  0.9663  0.7018  0.2146
  118SOPE  C21612464   6.923   2.140   5.923 -0.2960 -0.2117 -0.0014
  118SOPE  H16R12465   6.981   2.158   5.830 -0.3378 -1.1943 -0.2333
  118SOPE  H16S12466   6.952   2.042   5.967  0.5715  0.3184  0.6208
  118SOPE  C21712467   6.977   2.241   6.026 -0.5776 -0.3264  0.5144
  118SOPE  H17R12468   6.915   2.250   6.117 -0.9230  1.6073  0.1280
  118SOPE  H17S12469   6.974   2.340   5.975  1.3873  0.6668  2.1636
  118SOPE  C21812470   7.124   2.203   6.060  0.5934 -0.3922 -1.4503
  118SOPE  H18R12471   7.175   2.178   5.965 -0.6326 -1.0168 -1.9650
  118SOPE  H18S12472   7.119   2.122   6.135 -0.5425  0.6715 -0.3269
  118SOPE  H18T12473   7.190   2.286   6.094  1.2952 -0.7264 -1.9702
  118SOPE   C3312474   5.465   1.132   6.133  0.0779  0.5908  0.1200
  118SOPE   H3X12475   5.369   1.086   6.166  0.2460 -0.0663 -0.3007
  118SOPE   H3Y12476   5.549   1.071   6.174  0.6742  1.1388 -0.2718
  118SOPE   C3412477   5.463   1.120   5.979  0.3593 -0.1173 -0.2162
  118SOPE   H4X12478   5.414   1.212   5.941  2.9476  0.6474 -2.0183
  118SOPE   H4Y12479   5.397   1.032   5.972  0.1351  0.1194 -1.2398
  118SOPE   C3512480   5.601   1.109   5.917  0.6795  0.3693  0.0150
  118SOPE   H5X12481   5.647   1.012   5.944  0.3981  0.0699 -0.5566
  118SOPE   H5Y12482   5.663   1.186   5.968  0.9449  0.7805 -0.9112
  118SOPE   C3612483   5.609   1.135   5.767 -0.0959 -0.1293 -0.2438
  118SOPE   H6X12484   5.715   1.125   5.732  0.2980  1.6561  0.3354
  118SOPE   H6Y12485   5.565   1.234   5.741  0.2449  0.1951  0.3982
  118SOPE   C3712486   5.533   1.020   5.693  0.2597 -0.9259 -0.3659
  118SOPE   H7X12487   5.424   1.026   5.710  0.2335 -0.5798 -0.6441
  118SOPE   H7Y12488   5.559   0.919   5.733  0.7690 -0.4496  0.5426
  118SOPE   C3812489   5.559   1.013   5.549  0.2493  0.0570  0.0871
  118SOPE   H8X12490   5.670   1.012   5.545  0.2275  0.7682 -1.2551
  118SOPE   H8Y12491   5.516   1.105   5.504 -2.9702 -0.9178  0.9393
  118SOPE   C3912492   5.490   0.892   5.477 -0.6015  0.9475  0.1443
  118SOPE   H9X12493   5.380   0.906   5.474 -0.9908 -1.6872 -2.1446
  118SOPE   H9Y12494   5.521   0.800   5.531 -0.7405 -0.3114 -1.8097
  118SOPE  C31012495   5.542   0.903   5.332 -0.2359  0.3229  0.5001
  118SOPE  H10X12496   5.653   0.904   5.328 -0.2370 -0.7254 -0.5342
  118SOPE  H10Y12497   5.498   0.994   5.287 -0.5207 -0.2233 -0.3677
  118SOPE  C31112498   5.491   0.788   5.245  0.1994  1.2275 -0.3053
  118SOPE  H11X12499   5.387   0.763   5.278 -0.0058 -0.8022 -2.2677
  118SOPE  H11Y12500   5.542   0.696   5.283  1.0571  1.8045 -0.0355
  118SOPE  C31212501   5.501   0.799   5.090 -0.0749 -0.1620 -0.2431
  118SOPE  H12X12502   5.608   0.784   5.066  0.4101  0.7343  1.2305
  118SOPE  H12Y12503   5.461   0.901   5.073  0.3088 -0.1512 -1.1469
  118SOPE  C31312504   5.418   0.697   5.021  0.2268 -0.7037 -0.1621
  118SOPE  H13X12505   5.307   0.706   5.027  0.0990 -1.6406 -0.8695
  118SOPE  H13Y12506   5.461   0.602   5.059  1.9851 -0.1329 -0.6384
  118SOPE  C31412507   5.453   0.689   4.871  0.1939 -0.0736 -0.3843
  118SOPE  H14X12508   5.564   0.699   4.868  0.3394 -1.6741 -1.6413
  118SOPE  H14Y12509   5.421   0.784   4.823  1.0039 -0.3486 -1.5366
  118SOPE  C31512510   5.396   0.570   4.797 -0.0830  0.2008 -0.7444
  118SOPE  H15X12511   5.426   0.481   4.856  0.9362 -0.1105 -1.6976
  118SOPE  H15Y12512   5.427   0.578   4.691  0.8654  0.8473 -0.4416
  118SOPE  C31612513   5.243   0.567   4.771 -0.1716  0.4149 -0.0910
  118SOPE  H16X12514   5.223   0.646   4.696  2.2459  0.7211 -0.4803
  118SOPE  H16Y12515   5.206   0.595   4.872  1.1423  1.1774  0.1909
  118SOPE  C31712516   5.206   0.424   4.723 -0.6493 -0.0989  0.3016
  118SOPE  H17X12517   5.216   0.353   4.808 -1.0656  0.6459  0.9862
  118SOPE  H17Y12518   5.278   0.382   4.649  0.1428  0.7910  0.5548
  118SOPE  C31812519   5.066   0.422   4.662  0.1576  0.8419  0.4731
  118SOPE  H18X12520   5.055   0.334   4.595  2.9544  0.1164  0.8752
  118SOPE  H18Y12521   5.039   0.510   4.599 -0.9771 -0.7436 -1.3729
  118SOPE  H18Z12522   4.995   0.412   4.747  0.4125  0.6082  0.6591
  119SOPE     N12523   0.786   1.492   7.121  0.5037 -0.3568 -0.2615
  119SOPE   HN112524   0.798   1.579   7.176 -1.2887 -0.9143  1.1400
  119SOPE   HN212525   0.716   1.438   7.177  1.3720  0.2418  1.4600
  119SOPE   HN312526   0.864   1.425   7.137  0.8445 -0.0723 -0.7305
  119SOPE   C1212527   0.725   1.519   6.985 -0.2955 -0.1234  0.5205
  119SOPE  H12A12528   0.720   1.417   6.941 -0.8019 -0.5363  1.5042
  119SOPE  H12B12529   0.795   1.580   6.924  0.0936 -2.0943 -1.1257
  119SOPE   C1112530   0.597   1.597   6.985  0.1044 -0.0086 -0.1860
  119SOPE  H11A12531   0.559   1.609   6.882 -0.8090 -0.3300  0.1090
  119SOPE  H11B12532   0.620   1.700   7.022  1.1775  0.1434 -1.2182
  119SOPE     P12533   0.361   1.492   7.060 -0.1018 -0.6095 -0.2678
  119SOPE   O1312534   0.253   1.596   7.078 -0.3870  0.6535 -0.3636
  119SOPE   O1412535   0.361   1.380   7.154  0.0124 -0.7622  0.1151
  119SOPE   O1212536   0.504   1.546   7.079  0.4971  0.5696  0.1739
  119SOPE   O1112537   0.357   1.445   6.907 -0.1937  0.0087 -0.7928
  119SOPE    C112538   0.417   1.320   6.867 -0.9836  0.4425  0.0129
  119SOPE    HA12539   0.349   1.236   6.894  0.2855 -0.5983  0.0856
  119SOPE    HB12540   0.513   1.306   6.921 -1.7465  1.4947  1.7376
  119SOPE    C212541   0.432   1.312   6.710 -0.2309 -0.0406  0.1869
  119SOPE    HS12542   0.464   1.209   6.685 -1.8280 -0.4127 -0.4309
  119SOPE   O2112543   0.525   1.416   6.674  0.4781 -0.0979  0.0454
  119SOPE   C2112544   0.589   1.400   6.563 -0.0310  0.6943  0.0622
  119SOPE   O2212545   0.587   1.300   6.493 -0.2427 -0.6280  0.1148
  119SOPE   C2212546   0.668   1.523   6.533  0.2866 -0.8067  0.3825
  119SOPE   H2R12547   0.758   1.511   6.596 -0.6497  0.5171  2.0719
  119SOPE   H2S12548   0.618   1.618   6.563  0.2602 -0.2564 -1.2941
  119SOPE    C312549   0.292   1.339   6.633  0.1313  0.3791 -0.2121
  119SOPE    HX12550   0.267   1.447   6.640 -0.1465  0.6106 -3.3182
  119SOPE    HY12551   0.217   1.279   6.688 -0.2441 -0.3211 -1.4542
  119SOPE   O3112552   0.288   1.312   6.489  0.0965 -0.2237 -0.4313
  119SOPE   C3112553   0.283   1.191   6.438 -0.1600  0.2631 -0.7885
  119SOPE   O3212554   0.240   1.092   6.496 -0.1289  0.1319 -0.0164
  119SOPE   C3212555   0.338   1.190   6.298 -0.0520 -0.0681  0.1958
  119SOPE   H2X12556   0.437   1.140   6.291  0.7591  1.2853  1.5230
  119SOPE   H2Y12557   0.345   1.294   6.260 -0.3029 -0.6205 -1.4507
  119SOPE   C2312558   0.715   1.541   6.388 -0.1672  0.0102 -0.3965
  119SOPE   H3R12559   0.741   1.445   6.339  0.1493  0.2822 -0.7693
  119SOPE   H3S12560   0.797   1.614   6.375 -1.6895  1.3435 -3.8634
  119SOPE   C2412561   0.601   1.601   6.297  0.6717 -0.0947 -0.2790
  119SOPE   H4R12562   0.505   1.545   6.297  2.1273 -2.7872  0.9673
  119SOPE   H4S12563   0.578   1.701   6.339  1.6919 -0.8736  2.3921
  119SOPE   C2512564   0.649   1.636   6.157 -0.1596 -0.4092 -0.6570
  119SOPE   H5R12565   0.577   1.716   6.129 -0.4722 -0.0223  1.1191
  119SOPE   H5S12566   0.744   1.692   6.158 -0.2500 -0.2398 -1.1260
  119SOPE   C2612567   0.639   1.532   6.039  0.1870  0.1383 -0.3565
  119SOPE   H6R12568   0.546   1.472   6.048 -0.4252  0.8755 -1.4871
  119SOPE   H6S12569   0.626   1.588   5.944 -0.2318  1.7868  0.6286
  119SOPE   C2712570   0.760   1.439   6.049 -0.5574 -0.9808  0.2490
  119SOPE   H7R12571   0.849   1.503   6.065 -1.0991 -0.0980 -0.1451
  119SOPE   H7S12572   0.758   1.358   6.125  0.2573 -2.0577 -0.8421
  119SOPE   C2812573   0.787   1.373   5.918 -0.3900  0.9308  0.1720
  119SOPE   H8R12574   0.784   1.450   5.838  0.7174  1.6777  0.8165
  119SOPE   H8S12575   0.891   1.333   5.929 -0.0900  1.3163 -1.0652
  119SOPE   C2912576   0.686   1.264   5.890  0.0057 -0.1710  0.3177
  119SOPE   H9112577   0.666   1.199   5.977 -2.0333 -0.7126 -0.4859
  119SOPE  C21012578   0.620   1.246   5.770 -0.1044  0.7808  0.6622
  119SOPE  H10112579   0.549   1.161   5.768  1.4749 -0.5843 -1.3717
  119SOPE  C21112580   0.642   1.314   5.638  0.3652  0.3505 -0.0058
  119SOPE  H11R12581   0.637   1.424   5.650 -0.2088  0.1667  1.6550
  119SOPE  H11S12582   0.555   1.297   5.571  0.4921  1.0460 -0.3631
  119SOPE  C21212583   0.764   1.268   5.558 -0.3466 -0.3556 -0.4364
  119SOPE  H12R12584   0.856   1.284   5.619  0.6111  0.0342 -1.9184
  119SOPE  H12S12585   0.780   1.329   5.466  0.3824 -0.8251 -0.6340
  119SOPE  C21312586   0.772   1.114   5.515 -0.0310 -0.0588  0.5682
  119SOPE  H13R12587   0.690   1.091   5.444  1.3172  0.7394 -1.3344
  119SOPE  H13S12588   0.757   1.051   5.605  1.8810 -1.2547  0.1045
  119SOPE  C21412589   0.903   1.070   5.448 -0.6136 -0.8201 -0.9372
  119SOPE  H14R12590   0.921   0.961   5.450  1.5086 -0.5175  1.2656
  119SOPE  H14S12591   0.974   1.109   5.524 -0.3252 -2.6235 -0.2487
  119SOPE  C21512592   0.935   1.131   5.306  0.4449  0.0203  0.1782
  119SOPE  H15R12593   0.950   1.241   5.311 -1.4371  0.3114  0.2714
  119SOPE  H15S12594   0.853   1.103   5.236 -0.0488 -0.3130  0.8718
  119SOPE  C21612595   1.064   1.069   5.248 -0.4091 -1.0523  0.2554
  119SOPE  H16R12596   1.064   1.069   5.137  1.7863  1.0326  0.1773
  119SOPE  H16S12597   1.052   0.963   5.280 -0.0734 -1.1330  0.1183
  119SOPE  C21712598   1.198   1.121   5.301 -0.4132 -0.2901  0.4313
  119SOPE  H17R12599   1.191   1.110   5.411  2.3806  0.2153  0.7218
  119SOPE  H17S12600   1.217   1.226   5.270 -0.5749 -0.3904 -0.0191
  119SOPE  C21812601   1.310   1.035   5.245 -0.2779 -0.2219  0.6453
  119SOPE  H18R12602   1.408   1.078   5.272 -0.0824  0.4772 -1.0959
  119SOPE  H18S12603   1.309   1.034   5.134 -1.0218 -0.8069  0.6476
  119SOPE  H18T12604   1.306   0.927   5.274 -2.4053 -0.3879 -0.0310
  119SOPE   C3312605   0.246   1.098   6.211 -0.8871  0.1565  0.2289
  119SOPE   H3X12606   0.147   1.147   6.200 -1.2669 -0.4910  0.7070
  119SOPE   H3Y12607   0.217   1.004   6.263 -0.0387 -0.2046  0.0676
  119SOPE   C3412608   0.305   1.068   6.071 -0.0590 -0.0968 -0.6533
  119SOPE   H4X12609   0.393   1.003   6.084  1.2334  1.6603 -0.1902
  119SOPE   H4Y12610   0.346   1.161   6.025  1.9902 -1.3808 -1.5252
  119SOPE   C3512611   0.204   1.004   5.978 -0.3289 -0.1919 -0.7999
  119SOPE   H5X12612   0.125   1.077   5.954 -1.1518  0.5581  3.4066
  119SOPE   H5Y12613   0.161   0.913   6.025 -1.9842  2.0519  2.4503
  119SOPE   C3612614   0.263   0.963   5.847  0.2499  0.0088  0.9462
  119SOPE   H6X12615   0.231   0.860   5.819  0.2556  1.0991 -3.9192
  119SOPE   H6Y12616   0.373   0.950   5.857  0.6464  2.5429  0.5076
  119SOPE   C3712617   0.238   1.056   5.732 -0.4534  0.2838  0.2879
  119SOPE   H7X12618   0.302   1.147   5.744  1.3601 -0.9322  0.1776
  119SOPE   H7Y12619   0.130   1.083   5.730  0.0176  2.4941 -2.5282
  119SOPE   C3812620   0.285   1.002   5.588  0.1859 -0.4242 -0.3445
  119SOPE   H8X12621   0.224   0.918   5.549 -0.2805 -0.8906  1.2856
  119SOPE   H8Y12622   0.389   0.976   5.617 -0.4963  0.6485  3.6090
  119SOPE   C3912623   0.285   1.112   5.486  0.1837  0.3466  0.1942
  119SOPE   H9X12624   0.320   1.208   5.528  1.6571 -0.4073  0.7793
  119SOPE   H9Y12625   0.186   1.130   5.439  1.1241  2.3687 -1.1473
  119SOPE  C31012626   0.381   1.066   5.368  0.5695 -0.2669  0.2333
  119SOPE  H10X12627   0.330   0.986   5.309 -1.9962  2.1738 -1.0787
  119SOPE  H10Y12628   0.477   1.023   5.405  0.8671 -0.0101 -0.2415
  119SOPE  C31112629   0.404   1.178   5.264  0.3599  0.0434  0.0390
  119SOPE  H11X12630   0.310   1.230   5.237  1.1207  0.3456 -2.2793
  119SOPE  H11Y12631   0.455   1.147   5.170 -0.9933 -1.4493 -0.2462
  119SOPE  C31212632   0.512   1.280   5.307  0.2620  0.0741 -0.1471
  119SOPE  H12X12633   0.605   1.223   5.329  0.0191 -0.3013 -0.0846
  119SOPE  H12Y12634   0.468   1.329   5.396 -2.1544 -0.9653 -0.7050
  119SOPE  C31312635   0.548   1.383   5.195  0.1833 -0.7696 -0.2581
  119SOPE  H13X12636   0.450   1.411   5.151 -0.1780 -1.4874  0.0924
  119SOPE  H13Y12637   0.622   1.339   5.124 -0.5667 -0.7677 -1.0543
  119SOPE  C31412638   0.610   1.511   5.253  0.4170 -0.3755  0.2396
  119SOPE  H14X12639   0.718   1.495   5.275  0.3935 -2.1158 -0.6838
  119SOPE  H14Y12640   0.549   1.543   5.340  1.6216  1.1479  0.5661
  119SOPE  C31512641   0.597   1.626   5.154  0.0339 -0.0330 -0.1661
  119SOPE  H15X12642   0.583   1.581   5.053  2.8699  0.3633 -0.8484
  119SOPE  H15Y12643   0.696   1.678   5.150  1.0595 -1.9587 -1.2560
  119SOPE  C31612644   0.486   1.730   5.186  0.3482 -0.3685  0.4079
  119SOPE  H16X12645   0.513   1.791   5.275  0.7958 -1.6461  1.1763
  119SOPE  H16Y12646   0.390   1.677   5.206  1.7380 -3.1444  0.1560
  119SOPE  C31712647   0.468   1.819   5.060  0.0910  0.2280  0.8591
  119SOPE  H17X12648   0.423   1.762   4.975  0.7414 -1.0867  1.3558
  119SOPE  H17Y12649   0.563   1.866   5.027 -0.9366  1.2632 -0.7377
  119SOPE  C31812650   0.363   1.922   5.093 -0.1305 -0.3729  0.3612
  119SOPE  H18X12651   0.280   1.881   5.153 -1.1302  0.9316 -0.0901
  119SOPE  H18Y12652   0.322   1.971   5.002 -0.0767  1.2798  1.1924
  119SOPE  H18Z12653   0.410   2.010   5.140  0.2024 -0.1583 -0.3519
  120SOPE     N12654   2.146   4.598   7.288  0.1580  0.0187 -0.2756
  120SOPE   HN112655   2.198   4.587   7.377 -0.5670 -0.0998  0.1439
  120SOPE   HN212656   2.142   4.701   7.269 -0.2500 -0.1332 -1.0537
  120SOPE   HN312657   2.049   4.567   7.309  0.6307  0.4596  3.1763
  120SOPE   C1212658   2.209   4.517   7.179  0.2919 -0.4982  0.2055
  120SOPE  H12A12659   2.320   4.524   7.188  0.3815 -0.2412 -0.9612
  120SOPE  H12B12660   2.173   4.567   7.087  0.2995 -0.1168  0.4066
  120SOPE   C1112661   2.157   4.371   7.182  0.9591  0.4677  0.3505
  120SOPE  H11A12662   2.204   4.318   7.267 -0.8845  0.6019  1.5071
  120SOPE  H11B12663   2.184   4.308   7.094 -0.8350 -1.9437  1.4398
  120SOPE     P12664   1.914   4.388   7.077  0.2200 -0.0922  0.1431
  120SOPE   O1312665   1.945   4.523   7.028 -0.0177 -0.1782 -0.0790
  120SOPE   O1412666   1.774   4.356   7.118 -0.4061 -0.3132 -0.5798
  120SOPE   O1212667   2.014   4.365   7.197 -0.0439  0.0237 -0.3415
  120SOPE   O1112668   1.962   4.292   6.963  0.3718  0.2084  0.1474
  120SOPE    C112669   2.031   4.336   6.844 -0.5255 -0.5883 -0.1741
  120SOPE    HA12670   2.118   4.271   6.820  1.2355  1.5103  0.1149
  120SOPE    HB12671   2.089   4.428   6.869  0.0757 -0.5551 -1.6033
  120SOPE    C212672   1.936   4.344   6.726  0.5103  0.4429 -0.6934
  120SOPE    HS12673   1.994   4.377   6.637  2.8889  1.2548  1.0600
  120SOPE   O2112674   1.831   4.442   6.742 -0.3630 -0.4556  0.0027
  120SOPE   C2112675   1.868   4.571   6.726  0.7883  0.4412  0.0811
  120SOPE   O2212676   1.979   4.608   6.692 -0.0375  0.3515 -0.2758
  120SOPE   C2212677   1.750   4.656   6.778 -0.6175  0.2700  0.2781
  120SOPE   H2R12678   1.767   4.684   6.884  0.9039  0.1078  0.1026
  120SOPE   H2S12679   1.650   4.609   6.786 -1.1395  1.5701  1.9518
  120SOPE    C312680   1.858   4.213   6.708  0.3635  0.5211 -0.0071
  120SOPE    HX12681   1.795   4.209   6.800  0.8101  1.7914  0.3769
  120SOPE    HY12682   1.931   4.131   6.724 -0.5122 -0.3688 -0.5238
  120SOPE   O3112683   1.781   4.203   6.581 -0.4791  0.0409  0.7796
  120SOPE   C3112684   1.833   4.115   6.489  0.0997  0.2698 -0.8077
  120SOPE   O3212685   1.943   4.071   6.492 -0.2441  0.2620  0.6071
  120SOPE   C3212686   1.729   4.070   6.383 -0.6852 -0.8686 -0.2584
  120SOPE   H2X12687   1.654   4.151   6.378 -0.0023 -0.2862 -1.4412
  120SOPE   H2Y12688   1.680   3.979   6.425 -2.3211  0.6175  1.2147
  120SOPE   C2312689   1.732   4.792   6.717 -0.3171  0.6460  0.1698
  120SOPE   H3R12690   1.828   4.844   6.699  0.2233 -0.1361  0.7163
  120SOPE   H3S12691   1.676   4.856   6.789 -0.6052 -0.8883  1.3710
  120SOPE   C2412692   1.644   4.789   6.590  0.2882 -1.2319 -0.4022
  120SOPE   H4R12693   1.536   4.774   6.611  0.5934 -0.3621  2.0514
  120SOPE   H4S12694   1.647   4.892   6.548 -0.1341 -1.0816 -0.0673
  120SOPE   C2512695   1.705   4.705   6.474 -0.4409 -0.3604  0.1338
  120SOPE   H5R12696   1.814   4.724   6.464 -0.6116  0.4859 -0.1805
  120SOPE   H5S12697   1.697   4.598   6.505  2.1696 -0.1881  1.7314
  120SOPE   C2612698   1.635   4.727   6.344 -0.5210 -0.4551 -0.5979
  120SOPE   H6R12699   1.525   4.718   6.363 -0.1458 -1.8552  1.2168
  120SOPE   H6S12700   1.646   4.830   6.305 -0.8347  0.3602  1.3816
  120SOPE   C2712701   1.680   4.632   6.237 -0.4912 -0.6728 -0.8362
  120SOPE   H7R12702   1.624   4.657   6.144 -3.3725 -1.5740  0.5413
  120SOPE   H7S12703   1.788   4.655   6.227 -0.6548  1.3983  1.1795
  120SOPE   C2812704   1.669   4.482   6.267 -0.0738  0.3354  0.3626
  120SOPE   H8R12705   1.711   4.421   6.184  0.7086  2.5998 -1.0026
  120SOPE   H8S12706   1.721   4.467   6.363  1.7623  1.7547 -0.3354
  120SOPE   C2912707   1.518   4.450   6.284 -0.3122  0.1069 -0.4117
  120SOPE   H9112708   1.479   4.464   6.386 -2.2352  1.7578 -1.3048
  120SOPE  C21012709   1.441   4.400   6.185 -0.2688  0.4629  0.1538
  120SOPE  H10112710   1.335   4.381   6.207 -0.2518 -1.5051 -1.2495
  120SOPE  C21112711   1.492   4.345   6.054  0.3487 -0.1810 -0.1528
  120SOPE  H11R12712   1.559   4.257   6.070  1.0347 -0.1933 -2.6500
  120SOPE  H11S12713   1.546   4.422   5.996 -0.9738  0.6093 -0.3788
  120SOPE  C21212714   1.384   4.296   5.960  0.1259  0.1108 -0.0446
  120SOPE  H12R12715   1.320   4.384   5.940 -1.3074 -0.9693 -0.3617
  120SOPE  H12S12716   1.319   4.215   6.001  0.1066 -0.4495 -1.1507
  120SOPE  C21312717   1.448   4.249   5.825 -0.0601 -0.0226  0.1280
  120SOPE  H13R12718   1.529   4.179   5.855  0.4709 -0.3704 -1.9440
  120SOPE  H13S12719   1.490   4.341   5.778 -2.5423  0.4346 -1.3460
  120SOPE  C21412720   1.351   4.182   5.732  0.4456  0.2432 -0.4722
  120SOPE  H14R12721   1.261   4.244   5.713  0.1927 -0.3609 -1.2925
  120SOPE  H14S12722   1.336   4.081   5.774  1.6082  1.1888  2.4926
  120SOPE  C21512723   1.406   4.176   5.576  0.3955 -0.0719  0.4224
  120SOPE  H15R12724   1.498   4.115   5.562  0.4978  0.0435  0.5928
  120SOPE  H15S12725   1.435   4.282   5.556  1.1028 -0.3294  0.0576
  120SOPE  C21612726   1.301   4.122   5.487  0.0667 -0.2368  0.0929
  120SOPE  H16R12727   1.214   4.191   5.478 -0.4117 -0.5955  1.7116
  120SOPE  H16S12728   1.255   4.028   5.524 -3.6790  1.9293  1.4762
  120SOPE  C21712729   1.356   4.123   5.342 -0.0958  0.0855 -0.5538
  120SOPE  H17R12730   1.445   4.056   5.338 -0.7148 -0.7530 -0.6406
  120SOPE  H17S12731   1.391   4.227   5.326  0.4267 -0.0499 -0.2807
  120SOPE  C21812732   1.257   4.083   5.228  0.0001  0.0555 -0.2813
  120SOPE  H18R12733   1.222   3.978   5.229  2.7072 -0.9660  2.1877
  120SOPE  H18S12734   1.295   4.098   5.125  1.9438 -0.2101  0.3422
  120SOPE  H18T12735   1.159   4.133   5.219 -1.5532 -2.8521 -0.6685
  120SOPE   C3312736   1.782   4.039   6.242  0.7500  0.3368  0.0014
  120SOPE   H3X12737   1.859   3.959   6.237 -1.7906 -2.2314 -0.6066
  120SOPE   H3Y12738   1.823   4.135   6.204  0.0534  0.2360 -1.0475
  120SOPE   C3412739   1.665   3.998   6.148  0.2840 -0.4541 -0.1481
  120SOPE   H4X12740   1.589   4.079   6.140 -0.6091 -1.0244  1.9291
  120SOPE   H4Y12741   1.607   3.913   6.190  1.1793 -1.8540 -1.6491
  120SOPE   C3512742   1.707   3.961   6.009  0.2285  0.1054  0.2102
  120SOPE   H5X12743   1.790   3.887   6.017  0.6561  0.7658  2.9957
  120SOPE   H5Y12744   1.734   4.058   5.964  0.8808  0.1012  0.5749
  120SOPE   C3612745   1.599   3.891   5.929  0.2113  0.8254 -0.3292
  120SOPE   H6X12746   1.507   3.951   5.913  0.5026  0.9320 -1.7300
  120SOPE   H6Y12747   1.548   3.808   5.983 -1.0331  0.1586 -2.4158
  120SOPE   C3712748   1.647   3.850   5.792 -0.3582 -0.3666  0.0060
  120SOPE   H7X12749   1.727   3.774   5.809 -1.4333 -1.0539  2.4505
  120SOPE   H7Y12750   1.693   3.942   5.750  1.6080 -0.3286  2.0176
  120SOPE   C3812751   1.536   3.808   5.696  0.1566 -0.5780 -0.7719
  120SOPE   H8X12752   1.457   3.885   5.711  1.9644  1.4793 -1.2197
  120SOPE   H8Y12753   1.485   3.717   5.734 -0.6432  0.0487 -0.2819
  120SOPE   C3912754   1.574   3.804   5.544 -0.1304  0.1822 -0.3071
  120SOPE   H9X12755   1.658   3.733   5.531  1.4362  1.5980  1.5272
  120SOPE   H9Y12756   1.589   3.904   5.496  0.2048  0.2301 -0.1059
  120SOPE  C31012757   1.464   3.740   5.458  0.5010  0.2286 -0.5050
  120SOPE  H10X12758   1.367   3.794   5.461  0.0990 -0.3748 -1.8202
  120SOPE  H10Y12759   1.454   3.639   5.503  3.8026 -0.9923 -2.1865
  120SOPE  C31112760   1.501   3.707   5.319 -0.7667  0.9969 -0.2928
  120SOPE  H11X12761   1.591   3.642   5.324  0.4344  2.6169  4.9342
  120SOPE  H11Y12762   1.540   3.797   5.267 -0.9400  0.3969 -1.4934
  120SOPE  C31212763   1.390   3.629   5.235  0.3018 -0.7257 -0.0108
  120SOPE  H12X12764   1.299   3.692   5.240 -0.2575 -1.5642  0.4498
  120SOPE  H12Y12765   1.361   3.546   5.303 -4.5361  1.6507  1.2831
  120SOPE  C31312766   1.425   3.603   5.084  0.7373 -0.4055  0.1629
  120SOPE  H13X12767   1.389   3.686   5.020 -1.2734 -0.1754  1.4848
  120SOPE  H13Y12768   1.358   3.522   5.048 -2.5474  1.8795  0.6895
  120SOPE  C31412769   1.576   3.586   5.052  0.2819 -0.4819  0.2120
  120SOPE  H14X12770   1.642   3.664   5.095 -0.3738  1.6051 -2.3346
  120SOPE  H14Y12771   1.581   3.589   4.941 -2.8095  1.9793 -0.0062
  120SOPE  C31512772   1.619   3.443   5.091  0.2130 -0.2625  0.3722
  120SOPE  H15X12773   1.547   3.379   5.036  1.2011  0.3211 -1.6952
  120SOPE  H15Y12774   1.589   3.438   5.198 -1.7055  1.0225 -0.0420
  120SOPE  C31612775   1.762   3.419   5.073 -0.0188  0.5873  0.6643
  120SOPE  H16X12776   1.800   3.352   5.153  0.3935 -0.4661 -0.3906
  120SOPE  H16Y12777   1.817   3.513   5.094 -0.8452  1.3582 -0.5002
  120SOPE  C31712778   1.817   3.362   4.946 -1.2701  0.4905  0.4184
  120SOPE  H17X12779   1.795   3.438   4.868 -1.0088  1.3406  1.1546
  120SOPE  H17Y12780   1.760   3.270   4.923  0.9575 -1.7015  3.0273
  120SOPE  C31812781   1.974   3.320   4.957  0.7290 -0.7513 -0.2333
  120SOPE  H18X12782   2.033   3.413   4.942 -0.5561  0.2597  0.7830
  120SOPE  H18Y12783   2.001   3.247   4.878 -0.5149 -1.7091  0.1981
  120SOPE  H18Z12784   2.011   3.273   5.051  3.8201 -0.3923 -1.1471
  121SOPE     N12785   2.359   1.026   7.088  1.0199  0.5577  0.3104
  121SOPE   HN112786   2.306   0.937   7.095  0.9386  0.1498 -3.3532
  121SOPE   HN212787   2.349   1.065   6.992 -1.8357  0.5048  0.4851
  121SOPE   HN312788   2.456   1.016   7.124  0.9502 -0.6391  0.1897
  121SOPE   C1212789   2.277   1.117   7.170 -0.3319 -0.5816 -0.4576
  121SOPE  H12A12790   2.177   1.123   7.122  0.0427 -0.5365 -1.2493
  121SOPE  H12B12791   2.330   1.213   7.157 -0.2255 -0.9498 -3.6248
  121SOPE   C1112792   2.276   1.071   7.320 -0.3829  0.6079 -0.0757
  121SOPE  H11A12793   2.243   1.158   7.381  0.7313 -0.0813  1.5986
  121SOPE  H11B12794   2.379   1.058   7.361 -0.7815  1.3310  1.2041
  121SOPE     P12795   2.221   0.826   7.367  0.4581  0.4480  0.3058
  121SOPE   O1312796   2.099   0.735   7.366  0.7628 -1.1836  0.3640
  121SOPE   O1412797   2.298   0.811   7.490  0.1017  0.9613  0.1765
  121SOPE   O1212798   2.188   0.972   7.340 -0.0440 -0.2907 -0.1887
  121SOPE   O1112799   2.312   0.803   7.240  0.6828 -0.5815  0.4699
  121SOPE    C112800   2.346   0.680   7.182 -0.3263  0.0983  0.3944
  121SOPE    HA12801   2.306   0.596   7.243  0.3365 -2.5772 -2.5456
  121SOPE    HB12802   2.455   0.669   7.164  0.0973  4.1873 -0.4473
  121SOPE    C212803   2.288   0.653   7.039  0.0497 -0.0531 -0.3508
  121SOPE    HS12804   2.302   0.544   7.020 -0.4519  0.1563 -2.1338
  121SOPE   O2112805   2.359   0.739   6.940  0.7459 -0.0877 -0.0648
  121SOPE   C2112806   2.354   0.699   6.817 -0.2074  0.7461 -0.4745
  121SOPE   O2212807   2.356   0.584   6.778 -0.0836  0.2126 -0.6216
  121SOPE   C2212808   2.369   0.822   6.732 -0.1325 -0.3924 -0.0497
  121SOPE   H2R12809   2.461   0.879   6.757  1.5298 -1.6937 -2.7601
  121SOPE   H2S12810   2.282   0.888   6.752  0.9186  1.3898 -1.0978
  121SOPE    C312811   2.136   0.689   7.043 -0.6504  0.1538 -0.6275
  121SOPE    HX12812   2.123   0.797   7.066 -0.1427  0.4689 -1.7460
  121SOPE    HY12813   2.081   0.639   7.126 -1.8254 -0.3750 -1.6985
  121SOPE   O3112814   2.078   0.667   6.912  0.0912 -0.4129  0.0506
  121SOPE   C3112815   2.058   0.543   6.882  0.5246  0.0400 -0.5190
  121SOPE   O3212816   2.065   0.447   6.963  0.3128 -0.5255  1.1762
  121SOPE   C3212817   2.047   0.530   6.727 -0.4581  0.0380 -0.0238
  121SOPE   H2X12818   2.125   0.598   6.687  0.9844 -1.0069  0.9246
  121SOPE   H2Y12819   1.944   0.566   6.707  0.4200  1.6113 -2.1694
  121SOPE   C2312820   2.359   0.782   6.581  0.4607  0.0630 -0.2722
  121SOPE   H3R12821   2.264   0.752   6.533  1.5507  0.4419 -2.8493
  121SOPE   H3S12822   2.409   0.684   6.569 -2.2372 -1.2866 -1.4227
  121SOPE   C2412823   2.412   0.896   6.495  0.1288  0.6848 -0.4355
  121SOPE   H4R12824   2.346   0.985   6.489 -1.0432 -0.1770 -0.7128
  121SOPE   H4S12825   2.507   0.918   6.548 -0.2173 -1.0832  1.0135
  121SOPE   C2512826   2.457   0.857   6.356 -0.1608  0.1046 -0.7468
  121SOPE   H5R12827   2.550   0.907   6.319  0.2230 -0.2505 -0.2576
  121SOPE   H5S12828   2.475   0.748   6.351  1.0000  0.3301 -2.3163
  121SOPE   C2612829   2.337   0.885   6.262  0.1169 -0.3290  0.3406
  121SOPE   H6R12830   2.239   0.839   6.287 -0.4602  0.3191 -0.6494
  121SOPE   H6S12831   2.323   0.995   6.254  1.1871 -0.1646  0.5365
  121SOPE   C2712832   2.356   0.811   6.131  0.0628 -0.1975  0.1790
  121SOPE   H7R12833   2.449   0.832   6.074  0.6113 -2.6188  0.1063
  121SOPE   H7S12834   2.368   0.703   6.151 -2.0432 -0.9484 -2.0744
  121SOPE   C2812835   2.236   0.833   6.033  0.5136  0.0362  0.0727
  121SOPE   H8R12836   2.146   0.783   6.075 -0.4133  0.6284 -1.1343
  121SOPE   H8S12837   2.209   0.941   6.046  0.8602 -0.0527  1.8603
  121SOPE   C2912838   2.257   0.788   5.886  0.2306  0.5020 -0.2573
  121SOPE   H9112839   2.350   0.731   5.873 -0.5324 -0.8054 -0.1454
  121SOPE  C21012840   2.195   0.829   5.782  0.2015  1.1435 -0.2714
  121SOPE  H10112841   2.225   0.788   5.684 -0.3599  1.3323 -0.5295
  121SOPE  C21112842   2.070   0.918   5.774 -0.1279 -0.4286  0.2262
  121SOPE  H11R12843   2.022   0.904   5.873  2.2634 -1.8940  1.2583
  121SOPE  H11S12844   2.003   0.875   5.697 -0.6679  0.7345  0.0178
  121SOPE  C21212845   2.106   1.060   5.740  0.7482  0.4688 -0.2034
  121SOPE  H12R12846   2.161   1.103   5.826 -3.4007  0.9670  2.4531
  121SOPE  H12S12847   2.016   1.126   5.750 -0.0347 -0.5813 -0.1701
  121SOPE  C21312848   2.157   1.095   5.598 -1.1099 -0.8349  0.2160
  121SOPE  H13R12849   2.164   0.995   5.549 -2.7889 -1.1670  0.5872
  121SOPE  H13S12850   2.256   1.145   5.597 -0.4104 -1.9786  3.0673
  121SOPE  C21412851   2.062   1.181   5.506 -0.1844 -0.1695  0.1619
  121SOPE  H14R12852   2.133   1.198   5.423  1.4624 -1.3473  1.2711
  121SOPE  H14S12853   2.015   1.269   5.554 -1.4893 -0.5911 -0.2765
  121SOPE  C21512854   1.947   1.090   5.456  0.3197 -0.1123 -0.0251
  121SOPE  H15R12855   1.862   1.086   5.528  1.1755 -0.9573  0.9670
  121SOPE  H15S12856   1.987   0.987   5.448 -0.0943 -0.3336  0.7026
  121SOPE  C21612857   1.898   1.147   5.322 -0.4414 -0.3896  0.2231
  121SOPE  H16R12858   1.991   1.165   5.265 -0.8999  0.4201 -0.2835
  121SOPE  H16S12859   1.838   1.240   5.320  1.3808  0.8252 -2.6088
  121SOPE  C21712860   1.807   1.051   5.234  0.1498  0.6504 -0.0688
  121SOPE  H17R12861   1.710   1.032   5.284  0.6994  0.6856  1.0410
  121SOPE  H17S12862   1.863   0.955   5.228 -2.7098 -1.2174  0.8603
  121SOPE  C21812863   1.790   1.101   5.089  0.3329 -0.7070 -0.6334
  121SOPE  H18R12864   1.740   1.200   5.085 -0.6144 -1.1224  0.3936
  121SOPE  H18S12865   1.734   1.025   5.030 -1.9834  1.1156 -0.9281
  121SOPE  H18T12866   1.893   1.122   5.052  0.5258  0.9170  0.6936
  121SOPE   C3312867   2.070   0.388   6.676 -0.1133  0.5022  0.5238
  121SOPE   H3X12868   1.995   0.321   6.724 -2.0652  1.4564 -1.0460
  121SOPE   H3Y12869   2.170   0.345   6.699 -1.1991 -1.8930  1.1425
  121SOPE   C3412870   2.041   0.372   6.527 -0.3147 -0.3814  0.5100
  121SOPE   H4X12871   1.959   0.446   6.516  0.4146  0.4983  0.8014
  121SOPE   H4Y12872   1.986   0.278   6.506  0.4055 -1.0053  1.3687
  121SOPE   C3512873   2.160   0.407   6.433 -0.3604  0.2868 -0.0075
  121SOPE   H5X12874   2.239   0.332   6.454 -2.8907 -2.0677  1.8478
  121SOPE   H5Y12875   2.203   0.506   6.457  1.0963 -0.3370  0.1060
  121SOPE   C3612876   2.105   0.395   6.288 -0.0180 -0.6059 -0.5195
  121SOPE   H6X12877   2.032   0.472   6.257 -0.3969 -2.3291 -4.7429
  121SOPE   H6Y12878   2.055   0.296   6.285 -0.2648 -0.6235  2.0913
  121SOPE   C3712879   2.216   0.407   6.178 -0.0937  0.1725  1.2046
  121SOPE   H7X12880   2.296   0.332   6.194 -0.2170 -1.1360 -3.0279
  121SOPE   H7Y12881   2.264   0.507   6.185  0.0948  0.1244  0.6476
  121SOPE   C3812882   2.162   0.401   6.033 -0.0443  0.5751 -0.2034
  121SOPE   H8X12883   2.234   0.459   5.971 -0.8569  1.1595 -0.6290
  121SOPE   H8Y12884   2.071   0.463   6.022 -0.7557  0.6779  4.4341
  121SOPE   C3912885   2.161   0.260   5.985  0.0403  0.3532 -0.3935
  121SOPE   H9X12886   2.103   0.202   6.061 -1.0066 -0.3385 -1.6732
  121SOPE   H9Y12887   2.260   0.210   5.976 -0.3807 -0.5976  0.1250
  121SOPE  C31012888   2.098   0.249   5.844 -0.0795  0.9313 -0.2782
  121SOPE  H10X12889   2.167   0.288   5.766 -0.3022  1.9972  0.0472
  121SOPE  H10Y12890   2.013   0.318   5.832 -0.9493 -0.4162 -2.3750
  121SOPE  C31112891   2.047   0.104   5.816  0.6483  0.7329 -0.3270
  121SOPE  H11X12892   1.982   0.070   5.899 -1.7244  0.3719 -2.2189
  121SOPE  H11Y12893   2.129   0.029   5.810 -1.2077 -1.3145 -1.7057
  121SOPE  C31212894   1.966   0.091   5.682  0.0931  0.0169 -0.0986
  121SOPE  H12X12895   1.869   0.145   5.688 -1.1316 -2.0861 -0.2344
  121SOPE  H12Y12896   1.935  -0.015   5.685 -0.6313  0.1949  3.4992
  121SOPE  C31312897   2.034   0.125   5.548 -0.0325 -0.3436  0.4537
  121SOPE  H13X12898   1.997   0.061   5.465 -0.4216  1.4427 -0.7989
  121SOPE  H13Y12899   2.144   0.118   5.559 -0.1123 -0.1864  1.4455
  121SOPE  C31412900   1.990   0.261   5.490  0.7247 -0.6973  0.6608
  121SOPE  H14X12901   2.028   0.335   5.565  1.0103 -0.7416  0.5602
  121SOPE  H14Y12902   1.879   0.268   5.480  0.7982 -2.5114 -2.9354
  121SOPE  C31512903   2.059   0.303   5.360  0.2939 -0.2116  0.3182
  121SOPE  H15X12904   2.007   0.253   5.276 -0.5795  0.1244  0.6466
  121SOPE  H15Y12905   2.170   0.298   5.360  0.2904 -0.3727 -0.3578
  121SOPE  C31612906   2.030   0.453   5.321  0.0718  0.0738 -0.2937
  121SOPE  H16X12907   1.923   0.482   5.326  0.4997  1.7191 -0.1019
  121SOPE  H16Y12908   2.079   0.475   5.223  0.8437 -0.9338 -0.1470
  121SOPE  C31712909   2.090   0.561   5.417 -0.6090 -0.5683 -0.6559
  121SOPE  H17X12910   2.195   0.530   5.437 -0.2429 -0.5367 -2.3164
  121SOPE  H17Y12911   2.026   0.551   5.507 -0.3928  1.2622 -0.2652
  121SOPE  C31812912   2.089   0.711   5.376 -0.1700  0.7298  0.1068
  121SOPE  H18X12913   2.129   0.732   5.274 -2.0138  1.0642 -0.5930
  121SOPE  H18Y12914   2.153   0.772   5.443 -0.0875  1.4643 -0.6184
  121SOPE  H18Z12915   1.985   0.749   5.385 -0.1379  0.4692  1.8187
  122SOPE     N12916   3.932   2.730   7.354  0.3477 -0.2939 -0.2644
  122SOPE   HN112917   3.933   2.657   7.428  0.0638 -1.6776 -1.5618
  122SOPE   HN212918   3.866   2.693   7.282 -0.8697  1.6461 -0.2279
  122SOPE   HN312919   4.025   2.736   7.308  0.6756  3.6711  0.5966
  122SOPE   C1212920   3.888   2.870   7.386  0.1819  0.5607  0.3396
  122SOPE  H12A12921   3.841   2.876   7.487 -0.2350 -0.0438  0.1896
  122SOPE  H12B12922   3.824   2.899   7.300 -0.5703 -0.8200  0.4000
  122SOPE   C1112923   4.014   2.970   7.381 -0.0358  0.4933 -0.4966
  122SOPE  H11A12924   3.981   3.069   7.419  1.0680  0.2144  1.2625
  122SOPE  H11B12925   4.053   2.980   7.277  1.3666 -0.7626 -0.1274
  122SOPE     P12926   4.250   3.004   7.483 -0.1779  0.2797 -0.2375
  122SOPE   O1312927   4.355   2.907   7.514 -0.7304  0.0253  0.1452
  122SOPE   O1412928   4.218   3.102   7.587 -0.1300  0.0338 -0.4314
  122SOPE   O1212929   4.119   2.920   7.463 -0.0932 -0.1576  0.1476
  122SOPE   O1112930   4.267   3.069   7.344  0.0715 -0.1268  1.0860
  122SOPE    C112931   4.390   3.071   7.272 -0.1214 -0.0044 -0.0480
  122SOPE    HA12932   4.433   2.969   7.261  0.8981  0.4606 -0.5094
  122SOPE    HB12933   4.461   3.133   7.330  0.6211 -0.0045 -0.9405
  122SOPE    C212934   4.373   3.130   7.133  0.3280  0.3134  0.0478
  122SOPE    HS12935   4.335   3.233   7.153 -0.0643 -0.0922  1.5076
  122SOPE   O2112936   4.282   3.056   7.048 -0.0007 -0.1611 -0.0579
  122SOPE   C2112937   4.165   3.117   7.012 -0.0816 -0.4645 -0.3656
  122SOPE   O2212938   4.149   3.237   7.033  0.3737  0.3518  0.2060
  122SOPE   C2212939   4.076   3.022   6.942 -0.0800  0.5451  0.6457
  122SOPE   H2R12940   4.052   2.949   7.022 -0.0520 -0.3137 -0.1142
  122SOPE   H2S12941   4.131   2.969   6.862 -0.1821 -1.3069  1.7380
  122SOPE    C312942   4.509   3.143   7.057 -0.2509 -0.1322 -0.3764
  122SOPE    HX12943   4.532   3.043   7.015 -1.2642 -0.5644  0.0634
  122SOPE    HY12944   4.575   3.185   7.135  0.0747  0.7422 -1.1054
  122SOPE   O3112945   4.491   3.235   6.946 -0.6995  0.4801  0.7918
  122SOPE   C3112946   4.593   3.249   6.870 -0.0655  0.1371  0.3180
  122SOPE   O3212947   4.706   3.199   6.899  0.2653  0.3807 -0.0838
  122SOPE   C3212948   4.564   3.331   6.744  0.3428 -0.0448  0.1540
  122SOPE   H2X12949   4.454   3.342   6.731  0.2025  0.6135  1.6424
  122SOPE   H2Y12950   4.611   3.277   6.659  3.3540  1.9606  0.3744
  122SOPE   C2312951   3.953   3.095   6.873 -0.3699  0.7587  0.0053
  122SOPE   H3R12952   3.984   3.190   6.824  0.3981 -0.1367 -1.3124
  122SOPE   H3S12953   3.883   3.123   6.955  0.2840  0.4618  0.6783
  122SOPE   C2412954   3.873   3.016   6.770  0.0562  0.0186  0.2856
  122SOPE   H4R12955   3.822   2.927   6.813 -1.6881  2.1393  2.9683
  122SOPE   H4S12956   3.793   3.084   6.736  1.7090  1.1903 -1.5230
  122SOPE   C2512957   3.963   2.969   6.656 -0.2959  0.0538 -0.0355
  122SOPE   H5R12958   4.020   3.053   6.611  2.4350 -0.0416  2.8768
  122SOPE   H5S12959   4.043   2.901   6.693  0.8567  1.1921 -0.3862
  122SOPE   C2612960   3.880   2.884   6.550  0.0322  0.0904 -0.0529
  122SOPE   H6R12961   3.810   2.817   6.604  0.2448 -1.0171 -1.1030
  122SOPE   H6S12962   3.813   2.954   6.496 -0.6184 -0.7025 -0.2942
  122SOPE   C2712963   3.967   2.808   6.449 -0.6684  0.2315 -0.2916
  122SOPE   H7R12964   4.024   2.873   6.380 -0.9313  1.3260  0.5004
  122SOPE   H7S12965   4.047   2.754   6.504  1.1443  0.8151 -2.2282
  122SOPE   C2812966   3.877   2.711   6.369 -1.3651  0.2622  0.4200
  122SOPE   H8R12967   3.818   2.641   6.433  0.0369  0.1914  1.6842
  122SOPE   H8S12968   3.797   2.765   6.314 -1.1767  2.1067  1.8757
  122SOPE   C2912969   3.951   2.617   6.268  0.0987  0.2274  0.2032
  122SOPE   H9112970   4.028   2.546   6.302  0.1741 -0.0384 -0.5049
  122SOPE  C21012971   3.920   2.608   6.138  0.1305 -0.1616  0.1962
  122SOPE  H10112972   3.984   2.549   6.071  1.1364  2.3252 -1.1911
  122SOPE  C21112973   3.803   2.684   6.074 -0.5859  0.2178  0.3000
  122SOPE  H11R12974   3.796   2.789   6.111  0.2438  0.6518 -0.7124
  122SOPE  H11S12975   3.703   2.639   6.094 -0.9518  0.5729 -0.6508
  122SOPE  C21212976   3.820   2.688   5.926 -0.7553 -0.1448  0.4526
  122SOPE  H12R12977   3.723   2.725   5.884  0.8220  0.9154 -2.5862
  122SOPE  H12S12978   3.820   2.587   5.880 -1.3324 -0.6034  1.4215
  122SOPE  C21312979   3.937   2.773   5.868  0.4426 -0.2939 -0.0533
  122SOPE  H13R12980   4.030   2.733   5.914 -0.6022 -1.8720  0.8019
  122SOPE  H13S12981   3.913   2.879   5.889 -1.3372 -0.7893  0.6872
  122SOPE  C21412982   3.946   2.765   5.714 -0.0305  0.6518 -0.1604
  122SOPE  H14R12983   3.864   2.821   5.666  0.2367  0.6196 -0.6609
  122SOPE  H14S12984   3.951   2.658   5.685  2.6750  0.9596 -1.1354
  122SOPE  C21512985   4.076   2.834   5.673  0.0512 -0.0947  0.1795
  122SOPE  H15R12986   4.163   2.798   5.732 -0.6220 -0.9514  0.6731
  122SOPE  H15S12987   4.076   2.943   5.692  0.2919  0.3150 -1.9333
  122SOPE  C21612988   4.119   2.804   5.530  0.5988 -0.1665  0.0540
  122SOPE  H16R12989   4.088   2.703   5.498  1.3774  0.5260 -3.3810
  122SOPE  H16S12990   4.230   2.793   5.523  0.5067 -1.3204  0.2756
  122SOPE  C21712991   4.082   2.919   5.427 -0.3543  0.3567 -0.1150
  122SOPE  H17R12992   4.116   3.016   5.470 -0.7909 -0.3013  1.8175
  122SOPE  H17S12993   3.972   2.910   5.417 -0.2643 -0.8148 -0.2071
  122SOPE  C21812994   4.145   2.898   5.288  0.0950  0.2971 -0.1106
  122SOPE  H18R12995   4.094   2.963   5.214 -0.5448 -1.7201 -1.5240
  122SOPE  H18S12996   4.130   2.796   5.245 -1.0955  1.9406 -4.0419
  122SOPE  H18T12997   4.250   2.934   5.298 -0.3433  1.6309 -0.2023
  122SOPE   C3312998   4.630   3.470   6.762  0.3904  0.8409 -0.4306
  122SOPE   H3X12999   4.739   3.458   6.743  0.0827 -1.5053 -0.9293
  122SOPE   H3Y13000   4.623   3.494   6.871 -0.3679  0.7815 -0.4630
  122SOPE   C3413001   4.579   3.585   6.677 -0.4438  0.2447 -0.0557
  122SOPE   H4X13002   4.587   3.688   6.717 -1.3220  0.2226  0.1981
  122SOPE   H4Y13003   4.468   3.578   6.680 -0.3464 -2.6045  3.1063
  122SOPE   C3513004   4.633   3.570   6.528 -0.2965 -0.8715  0.0661
  122SOPE   H5X13005   4.621   3.461   6.511  0.2445 -0.9541  0.2044
  122SOPE   H5Y13006   4.736   3.611   6.528  0.4160 -2.5198 -1.5361
  122SOPE   C3613007   4.558   3.665   6.437  0.3087 -0.0917 -0.0832
  122SOPE   H6X13008   4.590   3.771   6.447  0.9328 -0.3882  1.2260
  122SOPE   H6Y13009   4.453   3.654   6.473  0.8598 -0.6792  1.4089
  122SOPE   C3713010   4.571   3.624   6.282 -0.8814  0.2276  0.6090
  122SOPE   H7X13011   4.522   3.526   6.264  1.0444 -0.8148  0.7675
  122SOPE   H7Y13012   4.680   3.617   6.260 -0.9218 -2.2783  0.9541
  122SOPE   C3813013   4.510   3.727   6.192 -0.3384  0.1333  0.2824
  122SOPE   H8X13014   4.554   3.828   6.210  0.1696 -0.1516  0.6402
  122SOPE   H8Y13015   4.400   3.733   6.209 -0.8360  2.4149 -2.7406
  122SOPE   C3913016   4.543   3.697   6.045 -0.5938  0.0537  0.2984
  122SOPE   H9X13017   4.477   3.612   6.017 -0.5120 -0.0460  0.4126
  122SOPE   H9Y13018   4.648   3.666   6.028 -1.0725 -2.4480  1.4527
  122SOPE  C31013019   4.511   3.824   5.957 -0.2761  0.0754  0.3801
  122SOPE  H10X13020   4.583   3.904   5.984 -2.6550  1.8703  1.8008
  122SOPE  H10Y13021   4.414   3.865   5.991  0.0139  0.2166  1.0591
  122SOPE  C31113022   4.494   3.808   5.809 -0.2103 -0.3354 -0.3911
  122SOPE  H11X13023   4.395   3.764   5.785 -0.1650 -0.4570 -0.3580
  122SOPE  H11Y13024   4.571   3.731   5.786  0.8542  0.3448  0.7966
  122SOPE  C31213025   4.514   3.936   5.726 -0.4250 -0.1821  0.6408
  122SOPE  H12X13026   4.623   3.956   5.725 -0.7586  2.1127 -2.1151
  122SOPE  H12Y13027   4.455   4.021   5.765  0.1125 -0.4979  2.1999
  122SOPE  C31313028   4.476   3.889   5.583 -0.2391  0.9877 -0.3975
  122SOPE  H13X13029   4.376   3.842   5.587  0.7932 -1.3166  0.5943
  122SOPE  H13Y13030   4.549   3.812   5.549 -0.0624  1.0927 -0.2626
  122SOPE  C31413031   4.490   3.999   5.480  0.2034  0.2282 -0.2720
  122SOPE  H14X13032   4.591   4.046   5.485 -0.3288  1.8373 -2.6469
  122SOPE  H14Y13033   4.422   4.085   5.497 -0.1361 -0.1190  0.1488
  122SOPE  C31513034   4.463   3.935   5.339  0.1890 -0.5125  0.3852
  122SOPE  H15X13035   4.400   4.008   5.284 -0.7246 -1.7305 -0.2090
  122SOPE  H15Y13036   4.397   3.847   5.355  2.3158 -2.4935 -1.1492
  122SOPE  C31613037   4.585   3.902   5.263  0.9918  0.8137  0.3591
  122SOPE  H16X13038   4.661   3.846   5.323  0.7527 -3.3824 -2.8021
  122SOPE  H16Y13039   4.639   3.995   5.234  0.3314  1.3120  0.7150
  122SOPE  C31713040   4.554   3.837   5.129 -0.5133 -0.0484 -0.2077
  122SOPE  H17X13041   4.477   3.900   5.078 -0.6301  0.0886  0.1326
  122SOPE  H17Y13042   4.512   3.735   5.143 -0.6091 -0.5924 -3.5484
  122SOPE  C31813043   4.679   3.817   5.041  0.3033  0.1762  0.0662
  122SOPE  H18X13044   4.768   3.774   5.092 -0.0874 -1.2503 -0.4181
  122SOPE  H18Y13045   4.712   3.918   5.008 -1.0609  0.4554 -0.5248
  122SOPE  H18Z13046   4.660   3.762   4.946  2.0793 -0.5443  0.0956
  123SOPE     N13047   4.663   0.637   2.435  0.1819  0.3446  0.3040
  123SOPE   HN113048   4.631   0.619   2.338  1.1096  0.4087 -0.0224
  123SOPE   HN213049   4.639   0.733   2.466  0.3348  0.4316  0.1499
  123SOPE   HN313050   4.766   0.645   2.427  0.3395 -1.9947 -0.8566
  123SOPE   C1213051   4.619   0.543   2.534 -0.1388  0.1291 -0.9110
  123SOPE  H12A13052   4.643   0.437   2.510  0.5030  0.1305 -0.2989
  123SOPE  H12B13053   4.508   0.552   2.536 -0.1659  0.1011 -1.9904
  123SOPE   C1113054   4.653   0.581   2.675 -0.1479  0.2457 -0.0240
  123SOPE  H11A13055   4.761   0.565   2.696 -0.1184 -1.2831 -1.0971
  123SOPE  H11B13056   4.594   0.513   2.740 -0.4297  0.9010  0.4112
  123SOPE     P13057   4.642   0.777   2.839  0.1962 -0.3878 -0.4371
  123SOPE   O1313058   4.521   0.728   2.922 -0.0570 -0.0436 -0.5033
  123SOPE   O1413059   4.658   0.924   2.813 -0.2787 -0.0381  0.0282
  123SOPE   O1213060   4.620   0.712   2.702  0.0458 -0.4794 -0.4018
  123SOPE   O1113061   4.781   0.705   2.884  0.2585 -0.8718  0.2039
  123SOPE    C113062   4.840   0.753   3.005  0.2826 -0.2282 -0.2037
  123SOPE    HA13063   4.764   0.736   3.084 -0.3090 -1.0925 -0.9418
  123SOPE    HB13064   4.855   0.863   3.003 -0.9102 -0.0628 -1.3420
  123SOPE    C213065   4.962   0.673   3.047  0.9940 -0.5216 -0.4337
  123SOPE    HS13066   4.940   0.564   3.052 -0.9278 -0.2435 -1.8248
  123SOPE   O2113067   4.991   0.732   3.176 -0.7666  0.2835  0.4306
  123SOPE   C2113068   5.048   0.653   3.252  0.3399 -0.1491  0.7700
  123SOPE   O2213069   5.049   0.527   3.243  0.0780 -0.0810  0.4349
  123SOPE   C2213070   5.091   0.726   3.383 -0.1540 -0.0451  0.0565
  123SOPE   H2R13071   4.998   0.769   3.426  0.2826  1.5646 -0.5090
  123SOPE   H2S13072   5.153   0.816   3.362 -3.1609  1.6579 -2.2652
  123SOPE    C313073   5.068   0.683   2.935 -0.1883  0.1794 -0.7888
  123SOPE    HX13074   5.071   0.789   2.901  0.5085  1.3500  2.5076
  123SOPE    HY13075   5.037   0.623   2.847 -0.9154 -1.0766  0.2939
  123SOPE   O3113076   5.203   0.635   2.976 -0.0483  0.3257 -0.2340
  123SOPE   C3113077   5.236   0.514   2.946  1.2444 -0.8205 -0.3823
  123SOPE   O3213078   5.160   0.434   2.894  0.5599  0.5109  0.0129
  123SOPE   C3213079   5.371   0.481   3.006  0.0241  0.4060 -0.4103
  123SOPE   H2X13080   5.447   0.549   2.961  1.5593  0.0846  1.5326
  123SOPE   H2Y13081   5.388   0.374   2.981  0.7735  0.8966 -2.1076
  123SOPE   C2313082   5.167   0.633   3.481  0.0079 -0.1207  0.1566
  123SOPE   H3R13083   5.271   0.606   3.451  0.8860  1.7999  1.2995
  123SOPE   H3S13084   5.107   0.540   3.492  0.5953 -0.9109 -2.5021
  123SOPE   C2413085   5.189   0.714   3.614  0.2996  0.3957  0.2584
  123SOPE   H4R13086   5.254   0.657   3.684 -0.1055 -1.5671 -0.8931
  123SOPE   H4S13087   5.230   0.812   3.583 -1.5975  0.9963 -0.4752
  123SOPE   C2513088   5.056   0.740   3.683 -0.1431 -1.0233  0.1914
  123SOPE   H5R13089   4.970   0.771   3.619 -0.2678 -0.8393  0.4453
  123SOPE   H5S13090   5.010   0.649   3.726  1.4363 -1.4276  1.0903
  123SOPE   C2613091   5.055   0.851   3.798  0.3235 -0.6919  0.0984
  123SOPE   H6R13092   5.131   0.824   3.875  1.0031  1.4507  0.2265
  123SOPE   H6S13093   5.079   0.953   3.761  0.2826 -0.2921  1.1324
  123SOPE   C2713094   4.930   0.864   3.876 -0.5641 -0.0957  0.3107
  123SOPE   H7R13095   4.842   0.906   3.823  1.1216  1.4945 -1.3270
  123SOPE   H7S13096   4.894   0.763   3.907 -0.6000 -0.4892 -0.9455
  123SOPE   C2813097   4.956   0.962   3.994  0.5803 -0.0482  0.2043
  123SOPE   H8R13098   5.039   0.934   4.062 -0.7221 -1.3547  1.3059
  123SOPE   H8S13099   4.987   1.058   3.946  2.7811 -1.0986 -0.6190
  123SOPE   C2913100   4.825   0.977   4.068 -0.1713  0.2772 -0.0792
  123SOPE   H9113101   4.730   0.994   4.014 -0.6094  0.9749  0.8778
  123SOPE  C21013102   4.811   0.965   4.199  0.4140 -0.3074 -0.2195
  123SOPE  H10113103   4.714   1.000   4.236  0.3052  2.4879 -2.7608
  123SOPE  C21113104   4.925   0.938   4.290 -0.1221  1.0122 -0.4371
  123SOPE  H11R13105   4.978   0.848   4.252 -2.2100  0.2742 -1.7040
  123SOPE  H11S13106   4.881   0.896   4.383 -0.9419  2.6811 -0.0335
  123SOPE  C21213107   5.001   1.067   4.317 -0.6624 -0.2675 -0.4255
  123SOPE  H12R13108   4.932   1.150   4.347  0.4628  0.6195 -0.2235
  123SOPE  H12S13109   5.051   1.099   4.223  0.4809  0.5872  0.4421
  123SOPE  C21313110   5.105   1.055   4.433  0.5470  0.7892  0.3481
  123SOPE  H13R13111   5.173   1.143   4.438  2.6340 -0.6993 -0.2965
  123SOPE  H13S13112   5.158   0.960   4.409 -2.0269 -0.4714 -0.6563
  123SOPE  C21413113   5.034   1.027   4.572 -0.0525 -0.0250  0.1521
  123SOPE  H14R13114   4.961   0.943   4.568  1.2881 -1.2592  0.5509
  123SOPE  H14S13115   4.971   1.113   4.604 -1.7142 -0.5919 -1.3722
  123SOPE  C21513116   5.139   0.996   4.679 -1.0417  0.0838  0.2684
  123SOPE  H15R13117   5.213   1.078   4.690  0.5515 -0.9275 -2.1050
  123SOPE  H15S13118   5.202   0.915   4.636  1.3858  2.5560 -1.1511
  123SOPE  C21613119   5.069   0.955   4.811  0.2198 -0.5071 -0.3249
  123SOPE  H16R13120   5.025   0.853   4.805  1.3941 -0.9527 -2.6179
  123SOPE  H16S13121   4.986   1.024   4.837  0.8832  0.6315 -1.1190
  123SOPE  C21713122   5.165   0.959   4.939  0.2842 -0.0352 -0.0890
  123SOPE  H17R13123   5.202   1.063   4.953  3.5929 -1.2433  1.1782
  123SOPE  H17S13124   5.251   0.890   4.932  1.5915  1.4741  0.4054
  123SOPE  C21813125   5.090   0.932   5.064  0.0965 -0.0842 -0.1555
  123SOPE  H18R13126   5.072   0.822   5.059 -2.6877  0.2841 -0.0726
  123SOPE  H18S13127   4.992   0.983   5.074 -1.9941 -3.4609 -1.5349
  123SOPE  H18T13128   5.153   0.934   5.155  0.8063 -2.1810 -0.5316
  123SOPE   C3313129   5.377   0.482   3.163 -0.1472 -1.1214  0.0695
  123SOPE   H3X13130   5.302   0.409   3.202 -1.4393  0.5572  0.8433
  123SOPE   H3Y13131   5.343   0.584   3.192  2.6233  1.0838 -3.5396
  123SOPE   C3413132   5.521   0.454   3.224 -0.1000 -0.3974  0.4213
  123SOPE   H4X13133   5.580   0.546   3.204 -1.7085  0.2866 -1.5852
  123SOPE   H4Y13134   5.566   0.374   3.163  0.9154 -0.1456  0.8151
  123SOPE   C3513135   5.512   0.414   3.374  0.1221 -0.1783  0.1158
  123SOPE   H5X13136   5.438   0.332   3.387 -0.0582  0.1628  1.3765
  123SOPE   H5Y13137   5.475   0.504   3.426  0.6776  1.0957 -1.6106
  123SOPE   C3613138   5.647   0.372   3.431  0.7258 -0.1343 -0.5328
  123SOPE   H6X13139   5.696   0.289   3.376  1.9745  1.0324 -1.2585
  123SOPE   H6Y13140   5.631   0.340   3.536 -0.8776 -1.0260 -1.0078
  123SOPE   C3713141   5.749   0.487   3.434  0.2996 -0.1422  0.1558
  123SOPE   H7X13142   5.781   0.512   3.330 -2.4131 -1.1545 -1.0260
  123SOPE   H7Y13143   5.839   0.460   3.492  1.0616 -1.7019 -1.6272
  123SOPE   C3813144   5.704   0.617   3.504 -0.0003 -0.0867  0.0098
  123SOPE   H8X13145   5.615   0.647   3.444 -1.2928 -0.0213  1.8665
  123SOPE   H8Y13146   5.784   0.694   3.495  0.4567 -0.6008 -0.4639
  123SOPE   C3913147   5.658   0.589   3.650 -0.1623 -0.1281  0.3959
  123SOPE   H9X13148   5.746   0.573   3.715 -1.0664 -0.4926  1.5767
  123SOPE   H9Y13149   5.592   0.501   3.659 -0.1208 -0.3043 -0.8123
  123SOPE  C31013150   5.569   0.712   3.685 -0.2608  0.2842  0.8578
  123SOPE  H10X13151   5.501   0.715   3.598 -0.0268  0.6600  0.6858
  123SOPE  H10Y13152   5.629   0.805   3.679 -0.5017  0.3854 -0.2570
  123SOPE  C31113153   5.497   0.691   3.820 -0.2355 -0.3884  0.7721
  123SOPE  H11X13154   5.457   0.589   3.836 -0.4312 -0.7863 -1.7370
  123SOPE  H11Y13155   5.411   0.761   3.836 -0.3957 -0.2440 -0.5843
  123SOPE  C31213156   5.594   0.709   3.939  0.4409 -0.5769 -0.1994
  123SOPE  H12X13157   5.665   0.794   3.934 -0.2885 -0.0064 -1.2534
  123SOPE  H12Y13158   5.647   0.611   3.941  1.1188 -0.2142  0.7231
  123SOPE  C31313159   5.520   0.720   4.076 -0.6154 -0.4769 -0.8251
  123SOPE  H13X13160   5.483   0.619   4.102  2.7218 -2.2137 -2.1854
  123SOPE  H13Y13161   5.444   0.801   4.071  0.8888  1.3934  2.9008
  123SOPE  C31413162   5.605   0.780   4.192  0.2963 -0.3564 -0.4607
  123SOPE  H14X13163   5.612   0.891   4.188  0.8568 -0.0773  3.8018
  123SOPE  H14Y13164   5.709   0.740   4.183  1.0719  1.5712 -0.4294
  123SOPE  C31513165   5.540   0.746   4.324 -0.0884  0.7659  0.0411
  123SOPE  H15X13166   5.543   0.637   4.344 -2.7528  0.1234 -2.3951
  123SOPE  H15Y13167   5.435   0.781   4.319  0.3567  2.0605 -0.8637
  123SOPE  C31613168   5.609   0.809   4.447 -0.6748 -0.0154  0.0040
  123SOPE  H16X13169   5.555   0.778   4.540 -2.0577  1.7240 -0.1698
  123SOPE  H16Y13170   5.608   0.919   4.455 -0.4153  0.0508 -0.7772
  123SOPE  C31713171   5.756   0.768   4.463 -0.3802  0.4206  0.2488
  123SOPE  H17X13172   5.813   0.824   4.385 -2.7498 -2.1187 -3.6901
  123SOPE  H17Y13173   5.764   0.659   4.448 -0.4274  0.5611 -0.8772
  123SOPE  C31813174   5.809   0.807   4.604  0.4270  0.1150 -0.3941
  123SOPE  H18X13175   5.919   0.793   4.612  0.2248 -1.6550 -0.3814
  123SOPE  H18Y13176   5.768   0.729   4.672  1.9510 -0.5600 -0.2090
  123SOPE  H18Z13177   5.780   0.908   4.640  0.6278  0.6636 -1.7397
  124SOPE     N13178   3.489   0.369   2.697 -0.1084 -0.1018 -0.7662
  124SOPE   HN113179   3.581   0.416   2.710 -0.8802  0.7251  3.2004
  124SOPE   HN213180   3.503   0.267   2.708 -0.9282 -0.1106  0.3689
  124SOPE   HN313181   3.438   0.380   2.608  0.3805  1.4961 -0.8756
  124SOPE   C1213182   3.402   0.408   2.818  0.3353  0.0487  0.3855
  124SOPE  H12A13183   3.427   0.514   2.843 -0.4275  0.4072 -0.3119
  124SOPE  H12B13184   3.415   0.341   2.906  0.0460 -0.1402  0.2879
  124SOPE   C1113185   3.252   0.408   2.776  0.0731  0.8232 -0.1707
  124SOPE  H11A13186   3.204   0.466   2.857  2.6838  2.8686  0.0521
  124SOPE  H11B13187   3.204   0.309   2.767 -0.8120  1.0497  1.7579
  124SOPE     P13188   3.153   0.617   2.640  0.4373  0.0997 -0.0138
  124SOPE   O1313189   3.145   0.653   2.501  0.4097  0.1428  0.3208
  124SOPE   O1413190   3.227   0.712   2.728  0.5451 -0.2975 -0.3218
  124SOPE   O1213191   3.224   0.481   2.656 -0.0841  0.3517 -0.5755
  124SOPE   O1113192   3.002   0.587   2.688  0.5599 -0.1352 -0.9160
  124SOPE    C113193   2.913   0.697   2.711  0.1133 -0.0033 -0.4813
  124SOPE    HA13194   2.811   0.669   2.676 -0.4320 -1.4093  2.0169
  124SOPE    HB13195   2.940   0.789   2.654  0.4712 -0.4897 -1.1159
  124SOPE    C213196   2.907   0.728   2.861  0.1191 -0.6401 -0.0323
  124SOPE    HS13197   3.005   0.778   2.877 -0.1990  0.1787 -0.5971
  124SOPE   O2113198   2.867   0.615   2.933  0.8022 -0.1749 -0.2732
  124SOPE   C2113199   2.950   0.570   3.026 -0.0083 -0.2381  0.1300
  124SOPE   O2213200   3.043   0.634   3.066 -1.0082  0.3276 -0.1110
  124SOPE   C2213201   2.902   0.435   3.072 -0.5015 -0.1064 -0.1587
  124SOPE   H2R13202   2.956   0.363   3.008  1.2964 -0.7325  1.9077
  124SOPE   H2S13203   2.793   0.428   3.058 -0.5268  0.1900 -0.1313
  124SOPE    C313204   2.799   0.832   2.884  0.0414  0.6559 -0.3158
  124SOPE    HX13205   2.697   0.789   2.872 -0.0832  0.9698 -0.3774
  124SOPE    HY13206   2.808   0.911   2.807  1.5136  0.4295 -0.4050
  124SOPE   O3113207   2.819   0.897   3.007  0.2643  0.2349 -0.3084
  124SOPE   C3113208   2.732   0.866   3.099 -0.2685  0.6118 -0.4643
  124SOPE   O3213209   2.626   0.804   3.086 -0.4115 -0.3083  0.0317
  124SOPE   C3213210   2.795   0.921   3.230  0.4262  0.2777  0.8334
  124SOPE   H2X13211   2.779   1.031   3.226 -0.9959  0.0606 -0.6250
  124SOPE   H2Y13212   2.903   0.895   3.232 -0.1766 -2.5797  0.7842
  124SOPE   C2313213   2.934   0.410   3.216  0.6952  0.1571  0.2453
  124SOPE   H3R13214   2.902   0.500   3.272 -0.4378 -1.8979  3.1460
  124SOPE   H3S13215   3.044   0.416   3.231  0.6717  0.5208  0.2934
  124SOPE   C2413216   2.881   0.285   3.286 -0.4517  0.4874 -1.0179
  124SOPE   H4R13217   2.771   0.301   3.283 -0.5208  0.0562 -0.8826
  124SOPE   H4S13218   2.890   0.186   3.238  2.8706  0.0675  0.2115
  124SOPE   C2513219   2.923   0.281   3.440  0.0610  0.2542  0.1230
  124SOPE   H5R13220   3.032   0.265   3.430 -0.2354 -1.4827 -0.6905
  124SOPE   H5S13221   2.906   0.377   3.492 -0.2534  0.8532 -1.0379
  124SOPE   C2613222   2.866   0.160   3.524  0.0870  0.5501  0.0671
  124SOPE   H6R13223   2.755   0.167   3.520 -0.1603 -1.9929  0.8708
  124SOPE   H6S13224   2.901   0.061   3.488  1.4041  1.6902 -1.9815
  124SOPE   C2713225   2.893   0.176   3.675 -0.3363  0.1853  0.3131
  124SOPE   H7R13226   3.002   0.160   3.693 -0.3685 -0.3696  0.0360
  124SOPE   H7S13227   2.876   0.281   3.707  3.0703  1.1172 -0.4571
  124SOPE   C2813228   2.818   0.077   3.772 -0.3912 -0.0571  0.3033
  124SOPE   H8R13229   2.833   0.109   3.877  0.9963  0.2608  0.0258
  124SOPE   H8S13230   2.714   0.091   3.735 -0.6926 -2.3622  0.1055
  124SOPE   C2913231   2.867  -0.064   3.765  0.6309  0.5024  0.0189
  124SOPE   H9113232   2.819  -0.115   3.680 -0.4380  0.5482  0.5697
  124SOPE  C21013233   2.952  -0.131   3.842  0.5785 -0.1751 -0.3048
  124SOPE  H10113234   2.958  -0.241   3.838  0.0176 -0.2329  0.3204
  124SOPE  C21113235   3.037  -0.081   3.952  0.8511 -0.5135 -0.0393
  124SOPE  H11R13236   3.036   0.028   3.977  1.3039 -0.2084 -1.2936
  124SOPE  H11S13237   3.146  -0.097   3.934  1.2490  0.8985  0.9104
  124SOPE  C21213238   3.017  -0.163   4.081  0.1702  0.4327  0.1136
  124SOPE  H12R13239   3.076  -0.121   4.165 -1.0561 -3.1024  3.0537
  124SOPE  H12S13240   3.054  -0.265   4.057 -0.3322 -0.1363  1.6538
  124SOPE  C21313241   2.879  -0.166   4.131 -0.2298  0.4522 -0.1054
  124SOPE  H13R13242   2.807  -0.218   4.064  0.3617  2.0474 -2.0866
  124SOPE  H13S13243   2.842  -0.061   4.142 -0.6715  0.4529 -1.3988
  124SOPE  C21413244   2.880  -0.234   4.272 -0.6016 -0.0217  0.4270
  124SOPE  H14R13245   2.958  -0.199   4.342 -0.5750 -1.0075  0.9102
  124SOPE  H14S13246   2.907  -0.340   4.254 -1.3551 -0.3886  1.3749
  124SOPE  C21513247   2.743  -0.242   4.345  0.3694  0.3438  0.2096
  124SOPE  H15R13248   2.666  -0.270   4.270  1.2876 -1.6878 -0.0516
  124SOPE  H15S13249   2.712  -0.142   4.382  0.1601 -0.4661  2.3094
  124SOPE  C21613250   2.747  -0.341   4.466  0.6323 -0.2848 -0.1664
  124SOPE  H16R13251   2.810  -0.429   4.442  0.6967 -0.8093  1.7932
  124SOPE  H16S13252   2.646  -0.378   4.493  0.0757  0.8233 -0.6357
  124SOPE  C21713253   2.801  -0.266   4.588 -0.0645  0.1345 -0.1069
  124SOPE  H17R13254   2.766  -0.160   4.590 -2.2675 -0.5474  0.9462
  124SOPE  H17S13255   2.911  -0.277   4.592  0.2420  1.6459 -2.3512
  124SOPE  C21813256   2.744  -0.323   4.719  0.1013  0.3670 -0.0193
  124SOPE  H18R13257   2.763  -0.431   4.736  0.2936  0.3006 -0.6381
  124SOPE  H18S13258   2.634  -0.314   4.721 -0.2320 -2.5439 -0.6903
  124SOPE  H18T13259   2.797  -0.275   4.804 -3.5280  0.1768  2.5705
  124SOPE   C3313260   2.741   0.850   3.360  0.0906  0.2588 -0.0616
  124SOPE   H3X13261   2.751   0.743   3.332  0.7076  0.4303 -0.5374
  124SOPE   H3Y13262   2.633   0.871   3.374 -0.2969 -1.1889 -0.6799
  124SOPE   C3413263   2.826   0.886   3.485 -0.2297 -0.3059  0.3595
  124SOPE   H4X13264   2.808   0.993   3.511  0.6506 -0.2210  0.6601
  124SOPE   H4Y13265   2.933   0.880   3.457  0.6841  2.5241  2.7059
  124SOPE   C3513266   2.796   0.804   3.609  0.2438 -0.3141 -0.2295
  124SOPE   H5X13267   2.813   0.697   3.587  0.2823 -0.5199  0.7496
  124SOPE   H5Y13268   2.691   0.816   3.643  0.2490  0.8218 -0.5667
  124SOPE   C3613269   2.877   0.841   3.734 -0.1590 -0.2776 -0.5052
  124SOPE   H6X13270   2.834   0.925   3.792  2.0405 -0.5001  1.6079
  124SOPE   H6Y13271   2.985   0.853   3.712  0.5445 -2.4275  1.3988
  124SOPE   C3713272   2.870   0.730   3.838  0.1500 -0.0226 -0.4625
  124SOPE   H7X13273   2.906   0.639   3.784  2.9688  0.2500  0.7937
  124SOPE   H7Y13274   2.765   0.702   3.861  0.2114  0.4392  0.4031
  124SOPE   C3813275   2.950   0.749   3.968 -0.3911  0.0361 -0.6417
  124SOPE   H8X13276   2.908   0.836   4.023 -0.9769 -0.7158  0.1281
  124SOPE   H8Y13277   3.061   0.756   3.956 -0.4407 -0.9961 -1.9146
  124SOPE   C3913278   2.925   0.627   4.064 -0.2988  0.2811 -0.0965
  124SOPE   H9X13279   2.928   0.530   4.009  0.4059 -0.5486  1.3497
  124SOPE   H9Y13280   2.821   0.625   4.104  0.2859 -1.0381  1.4722
  124SOPE  C31013281   3.024   0.625   4.180  0.0628  0.0355  0.2982
  124SOPE  H10X13282   3.056   0.729   4.197  1.5449 -0.1643 -1.0357
  124SOPE  H10Y13283   3.113   0.562   4.157 -1.1427 -1.3399 -0.8569
  124SOPE  C31113284   2.958   0.576   4.311 -0.1931 -0.0128  0.7416
  124SOPE  H11X13285   2.906   0.482   4.282  1.5699 -1.2156  1.3085
  124SOPE  H11Y13286   2.873   0.641   4.340 -0.4776  0.3786 -0.8662
  124SOPE  C31213287   3.060   0.557   4.419 -0.0610  0.0898  0.1774
  124SOPE  H12X13288   3.128   0.645   4.411 -1.4849  1.0697 -2.8819
  124SOPE  H12Y13289   3.131   0.476   4.393  2.0659  0.9579  2.8452
  124SOPE  C31313290   3.002   0.533   4.554 -0.0741  0.2452  0.7571
  124SOPE  H13X13291   2.938   0.443   4.544 -1.3556  1.2198  0.0127
  124SOPE  H13Y13292   2.937   0.620   4.577 -0.5660  0.1768 -0.3059
  124SOPE  C31413293   3.119   0.507   4.643  0.3239 -0.0308 -0.2962
  124SOPE  H14X13294   3.188   0.593   4.640  0.6496 -0.3244 -1.4419
  124SOPE  H14Y13295   3.168   0.413   4.611 -2.7746 -1.7955 -0.2781
  124SOPE  C31513296   3.072   0.496   4.788  0.3638 -1.1089 -0.4578
  124SOPE  H15X13297   2.984   0.430   4.802 -0.3106 -0.0546  0.3854
  124SOPE  H15Y13298   3.046   0.596   4.829  1.6773 -0.8128 -0.2951
  124SOPE  C31613299   3.177   0.432   4.882 -0.4834  0.2896 -0.1434
  124SOPE  H16X13300   3.260   0.501   4.908  0.6362 -1.0643 -0.0045
  124SOPE  H16Y13301   3.212   0.337   4.836  0.7461  0.0420  1.2082
  124SOPE  C31713302   3.125   0.381   5.019 -0.8321 -0.0801 -0.0810
  124SOPE  H17X13303   3.211   0.331   5.069  0.3251  0.3440 -1.5651
  124SOPE  H17Y13304   3.037   0.313   5.012 -1.9083  1.1705  0.8144
  124SOPE  C31813305   3.069   0.500   5.091 -0.2649  0.1902  0.8506
  124SOPE  H18X13306   3.144   0.580   5.074  2.4155 -2.4250 -0.6264
  124SOPE  H18Y13307   3.060   0.470   5.198 -0.7352  1.0116  1.0529
  124SOPE  H18Z13308   2.963   0.519   5.062  0.4510  1.5817 -1.0214
  125SOPE     N13309   3.687   2.289   2.637  0.2761 -0.1783  0.2400
  125SOPE   HN113310   3.722   2.302   2.734 -0.3919 -0.9269  0.5908
  125SOPE   HN213311   3.769   2.261   2.579  0.1034  0.4637 -0.3249
  125SOPE   HN313312   3.638   2.375   2.606  0.9564  0.3336  0.5584
  125SOPE   C1213313   3.579   2.190   2.645 -0.2161  0.1127 -0.3933
  125SOPE  H12A13314   3.626   2.094   2.677 -1.4264 -1.2901 -2.5616
  125SOPE  H12B13315   3.535   2.178   2.544  0.9312 -1.5672 -0.7375
  125SOPE   C1113316   3.472   2.239   2.756  0.0162  0.1918  0.6073
  125SOPE  H11A13317   3.525   2.214   2.850 -3.0059 -4.4037  1.4245
  125SOPE  H11B13318   3.385   2.169   2.756  0.9005 -1.0080  3.1046
  125SOPE     P13319   3.297   2.427   2.687 -0.0979 -0.3155 -0.3978
  125SOPE   O1313320   3.240   2.318   2.605 -0.0436  0.1053  0.2466
  125SOPE   O1413321   3.310   2.557   2.622 -0.1992 -0.0056 -0.4879
  125SOPE   O1213322   3.440   2.381   2.745 -0.3396 -0.0642 -0.9332
  125SOPE   O1113323   3.213   2.439   2.819  0.9607  0.2033 -0.0936
  125SOPE    C113324   3.269   2.530   2.914  0.0522  0.2764 -0.1298
  125SOPE    HA13325   3.278   2.634   2.874 -2.3418 -0.0221 -1.6153
  125SOPE    HB13326   3.364   2.485   2.950 -1.0120 -2.0489 -0.0910
  125SOPE    C213327   3.168   2.556   3.033  0.1114 -0.6363  0.1305
  125SOPE    HS13328   3.203   2.648   3.085 -0.7406  0.0098 -0.3961
  125SOPE   O2113329   3.180   2.449   3.121 -0.1617 -0.2431  0.1096
  125SOPE   C2113330   3.285   2.441   3.196  0.4443 -0.3076 -0.8552
  125SOPE   O2213331   3.391   2.498   3.192  0.5965 -0.1046  0.6349
  125SOPE   C2213332   3.253   2.320   3.292 -0.4674 -0.0543 -0.0266
  125SOPE   H2R13333   3.343   2.266   3.330 -0.7024  0.1107  0.7919
  125SOPE   H2S13334   3.203   2.246   3.226 -1.3009  2.4938 -2.3897
  125SOPE    C313335   3.019   2.570   2.991 -0.2094  0.2324  0.2986
  125SOPE    HX13336   2.981   2.493   2.921 -0.2636  0.9382 -0.4706
  125SOPE    HY13337   3.017   2.661   2.926 -1.5760 -0.6765 -1.0114
  125SOPE   O3113338   2.938   2.598   3.098  0.3779  0.4161  0.0429
  125SOPE   C3113339   2.872   2.492   3.154 -0.3151 -0.2998  0.7969
  125SOPE   O3213340   2.886   2.376   3.128  0.4535  0.0836  0.9457
  125SOPE   C3213341   2.770   2.561   3.244 -0.5391  0.6988 -0.6351
  125SOPE   H2X13342   2.684   2.492   3.241  0.3693 -0.7659  2.3841
  125SOPE   H2Y13343   2.747   2.664   3.210  0.6348  1.4755  0.7721
  125SOPE   C2313344   3.154   2.364   3.406 -0.6518  0.6653  0.1430
  125SOPE   H3R13345   3.113   2.270   3.449 -0.5459  0.0849 -0.9524
  125SOPE   H3S13346   3.062   2.406   3.361 -0.9009 -0.8497 -0.8782
  125SOPE   C2413347   3.222   2.457   3.506  0.2816  0.3295  0.0012
  125SOPE   H4R13348   3.327   2.425   3.522  0.4088  0.3999 -0.6801
  125SOPE   H4S13349   3.233   2.560   3.465  1.5395  0.1410 -0.1810
  125SOPE   C2513350   3.155   2.460   3.641  0.2373  0.2100  0.7568
  125SOPE   H5R13351   3.051   2.493   3.627  0.2082  0.1489  0.8277
  125SOPE   H5S13352   3.158   2.353   3.672  1.5559  0.4654  1.6216
  125SOPE   C2613353   3.224   2.542   3.752  0.8777 -0.2800  0.5056
  125SOPE   H6R13354   3.313   2.482   3.779  0.5300 -0.4143  1.3648
  125SOPE   H6S13355   3.253   2.643   3.716 -0.7417  0.8481  2.1726
  125SOPE   C2713356   3.140   2.561   3.878 -1.2929 -0.7734  0.3617
  125SOPE   H7R13357   3.184   2.647   3.933 -0.7749 -0.9543  0.2326
  125SOPE   H7S13358   3.045   2.609   3.844 -0.5903  0.9693  0.7417
  125SOPE   C2813359   3.112   2.451   3.972 -0.1647 -0.1352  1.1377
  125SOPE   H8R13360   3.027   2.469   4.042  1.2875 -1.2292  3.3244
  125SOPE   H8S13361   3.082   2.362   3.912  0.5783 -1.5548  2.7777
  125SOPE   C2913362   3.236   2.420   4.048 -0.4366  0.7410 -0.2275
  125SOPE   H9113363   3.301   2.347   3.998 -1.6050 -0.5929  0.1320
  125SOPE  C21013364   3.265   2.467   4.171  0.6450  0.5203 -0.0757
  125SOPE  H10113365   3.364   2.442   4.213  0.9924  0.6758 -0.7896
  125SOPE  C21113366   3.174   2.561   4.247 -0.2668 -0.2992  0.6092
  125SOPE  H11R13367   3.090   2.507   4.295  1.4689 -3.4642  0.3259
  125SOPE  H11S13368   3.143   2.637   4.173  1.9721 -1.2932 -1.4824
  125SOPE  C21213369   3.248   2.629   4.367 -0.0140  0.0880  0.3865
  125SOPE  H12R13370   3.316   2.703   4.320  2.0341 -0.5676  2.1754
  125SOPE  H12S13371   3.305   2.549   4.419  0.1572 -0.1404 -0.1442
  125SOPE  C21313372   3.160   2.691   4.465  0.5524  0.4412  0.4153
  125SOPE  H13R13373   3.078   2.623   4.497  1.0722 -0.4209 -0.0806
  125SOPE  H13S13374   3.121   2.785   4.420  0.8089  0.9905  1.3073
  125SOPE  C21413375   3.236   2.736   4.593  0.3776 -0.2703 -0.1667
  125SOPE  H14R13376   3.316   2.811   4.575  2.1370 -1.3462  2.5065
  125SOPE  H14S13377   3.286   2.652   4.644  1.6263  2.1062  2.8299
  125SOPE  C21513378   3.132   2.795   4.686  0.7629  0.3004 -0.1265
  125SOPE  H15R13379   3.069   2.715   4.730 -1.1819  1.0421 -1.4587
  125SOPE  H15S13380   3.064   2.855   4.622  0.4364  2.0239  1.7300
  125SOPE  C21613381   3.186   2.893   4.791  0.2667  0.4658  0.0793
  125SOPE  H16R13382   3.105   2.933   4.855  0.4153  1.4978 -0.3694
  125SOPE  H16S13383   3.241   2.977   4.744  1.2998 -0.3429 -0.2057
  125SOPE  C21713384   3.299   2.831   4.876 -0.3199 -0.3590  0.2314
  125SOPE  H17R13385   3.391   2.813   4.817  1.0446 -0.0729  2.1593
  125SOPE  H17S13386   3.272   2.739   4.933  0.7946 -0.6545  0.3142
  125SOPE  C21813387   3.356   2.934   4.978 -0.9091  0.4237  0.3668
  125SOPE  H18R13388   3.398   3.016   4.916 -2.4251  0.1614 -1.0644
  125SOPE  H18S13389   3.436   2.895   5.044  1.7699 -0.0050 -2.8991
  125SOPE  H18T13390   3.264   2.968   5.031 -0.4833  0.0477  1.3821
  125SOPE   C3313391   2.819   2.554   3.393  0.4803 -0.4751 -0.6248
  125SOPE   H3X13392   2.905   2.625   3.394  1.2338 -1.3618 -0.5434
  125SOPE   H3Y13393   2.854   2.450   3.412  0.2112 -0.9393 -2.4616
  125SOPE   C3413394   2.707   2.594   3.493  0.0016  0.5576  0.1787
  125SOPE   H4X13395   2.613   2.541   3.465  0.8862 -0.1002 -1.6829
  125SOPE   H4Y13396   2.688   2.702   3.477  0.4795  0.3758 -1.9519
  125SOPE   C3513397   2.754   2.567   3.638  0.0815 -0.6079  0.3387
  125SOPE   H5X13398   2.842   2.632   3.658 -0.6795  1.3851 -2.2947
  125SOPE   H5Y13399   2.796   2.465   3.649 -0.3336 -1.0643 -1.9130
  125SOPE   C3613400   2.659   2.594   3.757  0.5281 -0.1588 -0.3809
  125SOPE   H6X13401   2.583   2.513   3.762 -1.8282  1.9605  0.0556
  125SOPE   H6Y13402   2.610   2.694   3.755  0.3568 -0.1290  2.3038
  125SOPE   C3713403   2.749   2.590   3.890 -0.3304 -0.2433  0.0771
  125SOPE   H7X13404   2.830   2.664   3.876  0.0427 -1.1415 -3.6739
  125SOPE   H7Y13405   2.800   2.492   3.898  0.7268  0.3819  1.2727
  125SOPE   C3813406   2.675   2.614   4.020 -0.3307 -0.4660  0.3692
  125SOPE   H8X13407   2.612   2.525   4.044  1.8331 -2.4731 -0.9337
  125SOPE   H8Y13408   2.621   2.708   3.998  0.1559 -0.7001 -2.0274
  125SOPE   C3913409   2.769   2.650   4.134  0.3124  0.7217  0.0168
  125SOPE   H9X13410   2.824   2.742   4.105  1.6964  0.3477  1.4049
  125SOPE   H9Y13411   2.836   2.564   4.154 -0.7036  0.2904  1.7910
  125SOPE  C31013412   2.696   2.691   4.264 -0.5773 -0.1880 -0.5519
  125SOPE  H10X13413   2.604   2.628   4.261 -0.8919  0.2042  0.3976
  125SOPE  H10Y13414   2.673   2.800   4.256  1.2400  0.1262 -2.4024
  125SOPE  C31113415   2.774   2.680   4.395 -0.4547  0.1131  0.4389
  125SOPE  H11X13416   2.864   2.745   4.395  0.5326 -1.2259 -0.1723
  125SOPE  H11Y13417   2.801   2.573   4.405 -2.2016 -0.7196 -2.4674
  125SOPE  C31213418   2.683   2.722   4.509 -0.3704 -0.0398  0.1312
  125SOPE  H12X13419   2.606   2.642   4.507 -1.1957  0.7287  0.4688
  125SOPE  H12Y13420   2.629   2.817   4.487  0.6438  0.5421  0.0772
  125SOPE  C31313421   2.737   2.719   4.652  0.1314 -0.3008 -0.3879
  125SOPE  H13X13422   2.816   2.795   4.670 -0.6807  0.5323 -0.2679
  125SOPE  H13Y13423   2.772   2.615   4.669 -2.7688 -1.7337 -2.3239
  125SOPE  C31413424   2.628   2.755   4.747  0.1552 -0.4905  0.3506
  125SOPE  H14X13425   2.547   2.680   4.743  0.0595 -0.3663 -0.0636
  125SOPE  H14Y13426   2.581   2.854   4.730 -1.6017 -1.5376 -1.2180
  125SOPE  C31513427   2.673   2.759   4.894 -0.1971 -0.7921  0.1118
  125SOPE  H15X13428   2.775   2.802   4.903 -0.4365 -0.3182  0.5657
  125SOPE  H15Y13429   2.676   2.657   4.938  1.4524 -0.7045  0.2760
  125SOPE  C31613430   2.582   2.838   4.979 -0.7733 -0.7267 -0.1559
  125SOPE  H16X13431   2.485   2.786   4.995 -2.4021  2.0442 -0.3306
  125SOPE  H16Y13432   2.563   2.929   4.917 -0.8316 -0.6439 -0.0185
  125SOPE  C31713433   2.647   2.885   5.117 -0.2458  0.0299  0.1765
  125SOPE  H17X13434   2.623   2.992   5.138  0.8142  0.3470 -0.1670
  125SOPE  H17Y13435   2.758   2.890   5.111 -0.3368  3.9593 -0.8608
  125SOPE  C31813436   2.598   2.797   5.229  0.6231  0.2307 -0.2191
  125SOPE  H18X13437   2.637   2.844   5.322  2.0539 -0.7030 -0.3151
  125SOPE  H18Y13438   2.654   2.701   5.232 -0.4155 -0.3775 -0.2059
  125SOPE  H18Z13439   2.488   2.786   5.231  0.8360 -2.6000 -0.8393
  126SOPE     N13440   3.753   5.478   2.594 -0.4097 -0.1233  0.3033
  126SOPE   HN113441   3.741   5.414   2.513  0.8872  0.0215 -0.0345
  126SOPE   HN213442   3.802   5.431   2.673  1.2140  0.5184 -0.2813
  126SOPE   HN313443   3.666   5.526   2.622  0.2580  1.1707  0.2610
  126SOPE   C1213444   3.853   5.585   2.552  0.5415 -0.1548 -0.3004
  126SOPE  H12A13445   3.811   5.631   2.460 -2.2030 -2.8732 -0.5793
  126SOPE  H12B13446   3.945   5.535   2.516  1.3133  2.2444 -1.9187
  126SOPE   C1113447   3.882   5.700   2.650  1.1246 -0.3468 -0.4524
  126SOPE  H11A13448   3.787   5.739   2.692  1.3197 -0.0791 -0.2565
  126SOPE  H11B13449   3.931   5.776   2.586  0.4902 -0.9219 -1.6667
  126SOPE     P13450   3.942   5.572   2.875 -0.0301  0.6307 -0.2332
  126SOPE   O1313451   4.068   5.575   2.957 -0.4762  0.7522  0.4429
  126SOPE   O1413452   3.878   5.441   2.844  0.3864  0.1365  0.3098
  126SOPE   O1213453   3.966   5.654   2.748  0.3772 -0.2896  0.2552
  126SOPE   O1113454   3.831   5.658   2.955 -0.0605  0.1432 -0.4222
  126SOPE    C113455   3.873   5.789   3.009  0.7417  0.7934  0.1820
  126SOPE    HA13456   3.975   5.819   2.976  0.8621 -1.1423 -1.3591
  126SOPE    HB13457   3.884   5.786   3.119  0.7546  1.3204  0.1980
  126SOPE    C213458   3.773   5.897   2.954 -0.3200  0.1094 -0.4007
  126SOPE    HS13459   3.794   5.894   2.844 -3.4250 -2.7789 -1.0664
  126SOPE   O2113460   3.803   6.028   3.008  0.0053  0.6488 -0.0859
  126SOPE   C2113461   3.913   6.074   2.971 -0.5570 -0.8253  0.0850
  126SOPE   O2213462   3.982   6.033   2.875 -0.2865 -0.3192  0.5959
  126SOPE   C2213463   3.958   6.183   3.068  0.4203 -0.4285 -0.7202
  126SOPE   H2R13464   3.869   6.236   3.106 -0.9654 -4.2991  2.0842
  126SOPE   H2S13465   4.021   6.253   3.008  1.5690 -0.1636  0.7188
  126SOPE    C313466   3.626   5.869   2.995  0.2452 -0.3080  0.7609
  126SOPE    HX13467   3.596   5.777   2.941  1.3927 -0.2090 -0.0772
  126SOPE    HY13468   3.566   5.948   2.944  1.8440  0.3964 -0.0871
  126SOPE   O3113469   3.620   5.840   3.142 -0.0290 -0.3616 -0.2146
  126SOPE   C3113470   3.501   5.868   3.198  0.2445  0.8129 -0.2433
  126SOPE   O3213471   3.400   5.905   3.131  0.2276  0.1825 -0.3397
  126SOPE   C3213472   3.498   5.874   3.349 -0.3863 -0.2882  0.0771
  126SOPE   H2X13473   3.581   5.944   3.372  1.3099 -2.2092  0.0365
  126SOPE   H2Y13474   3.526   5.773   3.386 -1.4520 -1.2558 -1.6298
  126SOPE   C2313475   4.044   6.120   3.186 -0.0483  0.4216  0.2333
  126SOPE   H3R13476   4.103   6.199   3.237  0.9837 -0.1342 -0.0748
  126SOPE   H3S13477   4.117   6.053   3.135 -2.3142 -0.8757 -1.5189
  126SOPE   C2413478   3.965   6.038   3.288  0.0579  1.5436  0.3361
  126SOPE   H4R13479   3.920   5.952   3.235 -0.4671  2.0675 -0.0789
  126SOPE   H4S13480   4.036   5.986   3.356 -0.1802 -1.2955 -1.4138
  126SOPE   C2513481   3.854   6.111   3.366 -0.4523 -0.0125 -0.3897
  126SOPE   H5R13482   3.770   6.141   3.300 -0.8073 -0.6413 -0.2339
  126SOPE   H5S13483   3.811   6.039   3.439  1.4662  0.1679  0.9875
  126SOPE   C2613484   3.897   6.228   3.456  0.0949 -0.2199 -0.2901
  126SOPE   H6R13485   3.986   6.195   3.514 -1.4312 -0.8406  1.8029
  126SOPE   H6S13486   3.922   6.318   3.395 -0.2881  0.1187  0.0438
  126SOPE   C2713487   3.785   6.271   3.550 -0.1027  0.4390  0.2389
  126SOPE   H7R13488   3.712   6.335   3.495 -1.3275 -1.4289 -0.3876
  126SOPE   H7S13489   3.735   6.177   3.582  0.9983 -0.5503 -0.8292
  126SOPE   C2813490   3.818   6.363   3.674 -0.1541  0.0172  0.7336
  126SOPE   H8R13491   3.859   6.462   3.644  2.1964 -1.6097 -1.8329
  126SOPE   H8S13492   3.716   6.388   3.712 -0.4597  0.2016 -0.1902
  126SOPE   C2913493   3.901   6.308   3.782 -0.7143  0.0038  0.0956
  126SOPE   H9113494   4.006   6.341   3.779 -0.3848 -0.9360 -2.8459
  126SOPE  C21013495   3.855   6.211   3.869 -0.7944 -0.1104  0.0184
  126SOPE  H10113496   3.929   6.174   3.941 -1.0087 -0.2824  0.1528
  126SOPE  C21113497   3.719   6.155   3.884  0.5474 -0.6087  0.0268
  126SOPE  H11R13498   3.710   6.046   3.861  1.1885 -1.1311  2.0743
  126SOPE  H11S13499   3.640   6.190   3.814 -0.2427 -3.8120 -0.8937
  126SOPE  C21213500   3.657   6.180   4.020 -0.8157 -0.1445  0.3276
  126SOPE  H12R13501   3.552   6.143   4.023 -0.9313  0.2311  2.1032
  126SOPE  H12S13502   3.646   6.285   4.054  0.8011 -0.0809  0.7215
  126SOPE  C21313503   3.730   6.101   4.134 -0.7638 -0.6735  0.4675
  126SOPE  H13R13504   3.826   6.149   4.163 -0.7083 -1.1494  1.0810
  126SOPE  H13S13505   3.748   6.004   4.083  1.4428  0.7594 -1.7225
  126SOPE  C21413506   3.637   6.095   4.260 -0.2608 -0.0144  0.1706
  126SOPE  H14R13507   3.540   6.048   4.232 -0.7002  2.1395 -2.3336
  126SOPE  H14S13508   3.615   6.202   4.283 -1.6279 -0.1936 -0.1981
  126SOPE  C21513509   3.702   6.026   4.381  0.1265  0.9406  0.0186
  126SOPE  H15R13510   3.775   6.100   4.420  1.9396 -0.5851 -0.3722
  126SOPE  H15S13511   3.748   5.930   4.349  0.1145  1.2709 -1.0479
  126SOPE  C21613512   3.611   5.984   4.497  0.4029  1.1151 -0.0533
  126SOPE  H16R13513   3.531   5.920   4.454  0.6084  2.2042 -2.2400
  126SOPE  H16S13514   3.558   6.074   4.536  0.9542  0.6778  1.7874
  126SOPE  C21713515   3.683   5.929   4.615  0.4042  0.0764  0.5158
  126SOPE  H17R13516   3.731   5.835   4.581  1.0758  0.3877  0.5907
  126SOPE  H17S13517   3.602   5.905   4.688  0.0618  1.1930  0.5214
  126SOPE  C21813518   3.784   6.019   4.687  0.1523  0.3425  0.2249
  126SOPE  H18R13519   3.736   6.115   4.714  2.4722  1.2687  1.3195
  126SOPE  H18S13520   3.859   6.056   4.615 -0.9016  1.4700 -0.3206
  126SOPE  H18T13521   3.827   5.962   4.773 -2.1375  0.9887  1.9076
  126SOPE   C3313522   3.361   5.917   3.400 -0.1786 -0.1378  0.1104
  126SOPE   H3X13523   3.278   5.844   3.392 -1.0183  0.7235  0.7250
  126SOPE   H3Y13524   3.328   6.006   3.343  0.3285 -0.3568 -0.5351
  126SOPE   C3413525   3.372   5.963   3.543 -0.4846  0.0786  0.0761
  126SOPE   H4X13526   3.271   6.005   3.564 -0.9533 -2.4047  3.7078
  126SOPE   H4Y13527   3.453   6.037   3.559 -0.1862 -0.8519  3.5671
  126SOPE   C3513528   3.396   5.847   3.643 -0.0100 -1.2786  0.2780
  126SOPE   H5X13529   3.503   5.818   3.639  0.2820 -0.3538  0.8545
  126SOPE   H5Y13530   3.345   5.752   3.617 -0.2422 -0.9735 -0.4080
  126SOPE   C3613531   3.360   5.888   3.789 -0.2097 -0.1764  0.4152
  126SOPE   H6X13532   3.260   5.933   3.807 -0.2600 -0.7498  1.7054
  126SOPE   H6Y13533   3.428   5.966   3.829 -0.8337 -0.7846  2.8498
  126SOPE   C3713534   3.386   5.772   3.887 -1.0740 -0.2992  1.2236
  126SOPE   H7X13535   3.489   5.741   3.861 -0.9806  1.1136 -0.1757
  126SOPE   H7Y13536   3.322   5.687   3.855 -2.1112  1.3221 -1.3574
  126SOPE   C3813537   3.373   5.805   4.037  0.1828  0.3596 -0.4148
  126SOPE   H8X13538   3.271   5.847   4.053  0.8413  1.4410  1.2752
  126SOPE   H8Y13539   3.444   5.887   4.057  0.2441  0.3402 -0.5555
  126SOPE   C3913540   3.392   5.681   4.122 -0.0996 -0.2715  0.0141
  126SOPE   H9X13541   3.499   5.655   4.110  0.0202  0.7426 -1.2611
  126SOPE   H9Y13542   3.336   5.595   4.079  1.2463 -0.8170 -0.7126
  126SOPE  C31013543   3.337   5.702   4.274 -0.0212 -0.5073  0.3027
  126SOPE  H10X13544   3.229   5.685   4.256  0.0574 -0.7068  0.0273
  126SOPE  H10Y13545   3.350   5.810   4.297 -2.1142  0.0881 -1.0616
  126SOPE  C31113546   3.403   5.612   4.382  0.5632  0.1825  0.5192
  126SOPE  H11X13547   3.513   5.627   4.385  0.5014  0.7294  0.2059
  126SOPE  H11Y13548   3.389   5.511   4.337  1.1642  0.4108 -0.1983
  126SOPE  C31213549   3.332   5.622   4.514  0.3373  0.0162  0.2994
  126SOPE  H12X13550   3.223   5.605   4.502 -0.2497  2.0543  2.0209
  126SOPE  H12Y13551   3.338   5.727   4.550 -0.8416 -0.3561  1.6737
  126SOPE  C31313552   3.384   5.526   4.621  0.2446 -0.2739  0.6404
  126SOPE  H13X13553   3.345   5.425   4.593  0.1007 -0.1420  0.3635
  126SOPE  H13Y13554   3.346   5.568   4.717  0.0119 -1.2853  1.0149
  126SOPE  C31413555   3.534   5.528   4.645 -0.8695  0.1799  0.2289
  126SOPE  H14X13556   3.566   5.627   4.683 -0.3694  0.0272  0.2087
  126SOPE  H14Y13557   3.593   5.509   4.553 -0.3476 -0.5089  0.6977
  126SOPE  C31513558   3.581   5.413   4.734  0.6020  0.0974 -0.1128
  126SOPE  H15X13559   3.546   5.312   4.705  1.4010 -0.5257  1.0362
  126SOPE  H15Y13560   3.540   5.426   4.837 -0.9503 -0.7756 -0.5858
  126SOPE  C31613561   3.731   5.404   4.727 -0.8201  0.4685 -0.4552
  126SOPE  H16X13562   3.766   5.505   4.754 -0.7241  0.7647 -1.6435
  126SOPE  H16Y13563   3.746   5.392   4.618  2.5897  0.0906 -0.0577
  126SOPE  C31713564   3.796   5.298   4.818  0.4647 -0.0684  1.0100
  126SOPE  H17X13565   3.895   5.281   4.771 -0.7884 -2.8478 -0.9158
  126SOPE  H17Y13566   3.740   5.202   4.813 -1.5644  1.0817 -0.0589
  126SOPE  C31813567   3.806   5.322   4.964 -0.0578 -0.2752 -0.1216
  126SOPE  H18X13568   3.831   5.428   4.985  1.0201 -0.5061 -0.1795
  126SOPE  H18Y13569   3.880   5.255   5.013 -0.8041 -0.1695  1.2032
  126SOPE  H18Z13570   3.705   5.309   5.009 -1.1229  1.2879 -1.9165
  127SOPE     N13571   3.957   0.530   3.159 -0.0443  0.1682  0.8006
  127SOPE   HN113572   3.957   0.509   3.261  0.6961  1.6607  1.1466
  127SOPE   HN213573   4.011   0.468   3.097 -0.1151  0.9129 -0.0264
  127SOPE   HN313574   4.007   0.620   3.144 -0.7574  0.4898  0.2718
  127SOPE   C1213575   3.821   0.552   3.103  0.0430 -0.1418  0.2924
  127SOPE  H12A13576   3.777   0.635   3.162  1.1643 -0.6931  1.9883
  127SOPE  H12B13577   3.757   0.465   3.126 -0.3974 -0.9172 -3.2282
  127SOPE   C1113578   3.839   0.582   2.958  0.0691  0.1450 -1.1495
  127SOPE  H11A13579   3.902   0.673   2.953 -0.6731  0.8732  1.2862
  127SOPE  H11B13580   3.743   0.614   2.912 -0.2265  0.6729 -0.1927
  127SOPE     P13581   3.831   0.368   2.796  0.3053  0.2537  0.5130
  127SOPE   O1313582   3.934   0.266   2.761  0.1039 -0.0410 -0.0135
  127SOPE   O1413583   3.757   0.432   2.684 -0.4215 -0.4047 -0.1950
  127SOPE   O1213584   3.907   0.483   2.880 -0.7930 -0.0489 -0.2270
  127SOPE   O1113585   3.726   0.315   2.899  0.0148 -0.2234  0.4967
  127SOPE    C113586   3.755   0.199   2.981 -0.4229  0.2757 -0.3258
  127SOPE    HA13587   3.819   0.232   3.066 -3.3606  0.4517  1.9951
  127SOPE    HB13588   3.818   0.124   2.930  2.6966  1.2161  1.8792
  127SOPE    C213589   3.634   0.140   3.052 -0.0814 -0.2807 -0.2934
  127SOPE    HS13590   3.554   0.157   2.977  0.0059 -3.1322 -1.1398
  127SOPE   O2113591   3.613   0.221   3.178 -0.2320 -0.6460  0.4441
  127SOPE   C2113592   3.487   0.253   3.198 -1.2567 -0.0078 -0.0652
  127SOPE   O2213593   3.390   0.223   3.130 -0.0986  0.2026  0.5464
  127SOPE   C2213594   3.488   0.334   3.323  0.6664  0.3378 -0.5105
  127SOPE   H2R13595   3.385   0.370   3.345 -0.2211 -1.6140 -1.2124
  127SOPE   H2S13596   3.559   0.415   3.297 -0.1650  0.5317 -2.3106
  127SOPE    C313597   3.637  -0.011   3.064  0.2124 -0.0445 -0.0404
  127SOPE    HX13598   3.629  -0.060   2.964  1.1497 -0.5873  0.1369
  127SOPE    HY13599   3.545  -0.049   3.112  0.1240 -1.2200 -1.0909
  127SOPE   O3113600   3.763  -0.061   3.126 -0.1722 -0.0038  0.2813
  127SOPE   C3113601   3.753  -0.068   3.262  0.8639  0.7018  0.3783
  127SOPE   O3213602   3.647  -0.052   3.324 -0.7333 -0.0088  0.8138
  127SOPE   C3213603   3.888  -0.100   3.317 -0.6839 -0.8815 -0.3939
  127SOPE   H2X13604   3.960  -0.113   3.234  1.0275  2.4617  0.3854
  127SOPE   H2Y13605   3.884  -0.202   3.361 -1.6327 -0.0167  1.6550
  127SOPE   C2313606   3.542   0.262   3.442 -0.1705 -0.5454 -0.5336
  127SOPE   H3R13607   3.635   0.206   3.419  0.9249  0.2296  1.7487
  127SOPE   H3S13608   3.463   0.192   3.478  0.4106 -1.5578 -1.1865
  127SOPE   C2413609   3.583   0.365   3.548 -0.0342  0.0337  0.2445
  127SOPE   H4R13610   3.672   0.426   3.523 -1.4848  2.0706 -0.2034
  127SOPE   H4S13611   3.499   0.435   3.568 -0.8288 -0.9675  0.4850
  127SOPE   C2513612   3.623   0.293   3.681  0.6896 -0.5894 -0.8949
  127SOPE   H5R13613   3.619   0.366   3.764 -0.8608 -1.2402 -0.3592
  127SOPE   H5S13614   3.543   0.221   3.708  1.9415 -0.7966  2.9054
  127SOPE   C2613615   3.749   0.208   3.686  0.0001  0.1016  0.3623
  127SOPE   H6R13616   3.729   0.125   3.614  1.1302  0.2502 -0.1454
  127SOPE   H6S13617   3.844   0.260   3.661 -1.0671  2.0696  0.2087
  127SOPE   C2713618   3.773   0.137   3.820 -0.3370 -0.2418  0.3995
  127SOPE   H7R13619   3.675   0.120   3.869 -0.1012 -0.3669  0.8414
  127SOPE   H7S13620   3.819   0.036   3.813  1.1849  0.1447  3.2695
  127SOPE   C2813621   3.859   0.215   3.917  0.5038 -0.1505 -0.4942
  127SOPE   H8R13622   3.909   0.143   3.985  1.4106  0.2902 -0.6883
  127SOPE   H8S13623   3.944   0.262   3.863  1.3774  0.2789  1.1858
  127SOPE   C2913624   3.781   0.308   4.012  0.1359  0.2932  0.4048
  127SOPE   H9113625   3.761   0.407   3.968 -0.9549 -0.5214 -1.0754
  127SOPE  C21013626   3.737   0.294   4.136 -0.0877  0.0314 -0.2386
  127SOPE  H10113627   3.663   0.371   4.162  0.8331  0.9857 -0.3509
  127SOPE  C21113628   3.752   0.170   4.216  0.3632  0.1853 -0.4600
  127SOPE  H11R13629   3.853   0.157   4.260  0.3830  0.1829 -0.5054
  127SOPE  H11S13630   3.734   0.076   4.160  3.4107 -0.5671 -0.3464
  127SOPE  C21213631   3.662   0.152   4.344 -0.1914 -0.4682  0.4478
  127SOPE  H12R13632   3.557   0.174   4.314 -0.4551 -0.1982  1.5512
  127SOPE  H12S13633   3.691   0.233   4.413  0.4922  0.5870 -1.0233
  127SOPE  C21313634   3.661   0.022   4.428  0.5310  0.2906  0.1117
  127SOPE  H13R13635   3.646  -0.058   4.352 -0.3206 -0.5686  1.1390
  127SOPE  H13S13636   3.577   0.027   4.501  0.5987 -0.0573  0.2158
  127SOPE  C21413637   3.787  -0.009   4.512 -0.4191  0.5387  0.2423
  127SOPE  H14R13638   3.817   0.085   4.563 -0.5000  0.5696  0.2339
  127SOPE  H14S13639   3.878  -0.026   4.450 -1.8225  1.0219 -2.1033
  127SOPE  C21513640   3.774  -0.125   4.611 -0.4055  0.5283  0.9075
  127SOPE  H15R13641   3.673  -0.171   4.621  0.0683 -1.1960 -1.3140
  127SOPE  H15S13642   3.808  -0.077   4.705 -0.1025  2.5047 -0.1535
  127SOPE  C21613643   3.872  -0.240   4.568  0.8517 -0.3732  0.8487
  127SOPE  H16R13644   3.979  -0.209   4.567  1.5226 -1.9586 -3.6251
  127SOPE  H16S13645   3.859  -0.263   4.460 -0.4409  1.6493  0.5173
  127SOPE  C21713646   3.836  -0.365   4.646  0.9059  0.3877  0.3798
  127SOPE  H17R13647   3.927  -0.427   4.631  0.9608  0.5554 -0.0130
  127SOPE  H17S13648   3.746  -0.408   4.596  0.3961  2.5796 -0.7496
  127SOPE  C21813649   3.806  -0.350   4.790 -0.2282 -0.2423 -0.2051
  127SOPE  H18R13650   3.705  -0.307   4.803 -1.2826 -2.6873  0.2276
  127SOPE  H18S13651   3.879  -0.280   4.835 -2.3530  1.2598  1.0614
  127SOPE  H18T13652   3.813  -0.451   4.836 -0.5857 -0.5696 -0.8454
  127SOPE   C3313653   3.940   0.016   3.409  0.1412 -0.4621 -0.5020
  127SOPE   H3X13654   4.021  -0.022   3.474  0.3383 -1.2301 -1.1899
  127SOPE   H3Y13655   3.865   0.039   3.487  1.6763 -0.4297  1.0108
  127SOPE   C3413656   3.989   0.151   3.346 -0.0632  0.1682 -0.2935
  127SOPE   H4X13657   3.910   0.182   3.274 -2.4354 -2.3761  1.0290
  127SOPE   H4Y13658   4.088   0.129   3.300 -0.5937 -1.4513 -0.7146
  127SOPE   C3513659   4.005   0.253   3.457  0.2946  0.8946  0.6912
  127SOPE   H5X13660   4.021   0.205   3.555  1.0789  0.3334  0.2964
  127SOPE   H5Y13661   3.907   0.304   3.471  0.3666  0.8449  1.4252
  127SOPE   C3613662   4.125   0.350   3.435  0.8261 -0.0413  0.1927
  127SOPE   H6X13663   4.085   0.443   3.389  0.4355 -0.3125 -0.0282
  127SOPE   H6Y13664   4.203   0.311   3.366 -1.1516 -1.7390 -1.2354
  127SOPE   C3713665   4.199   0.394   3.562  0.3413 -0.1569 -0.5532
  127SOPE   H7X13666   4.276   0.471   3.540  0.6363 -0.6002 -1.0906
  127SOPE   H7Y13667   4.258   0.310   3.604  0.2590  0.7448  1.4847
  127SOPE   C3813668   4.116   0.451   3.685 -0.0694 -0.4232 -0.4693
  127SOPE   H8X13669   4.063   0.363   3.728 -0.1239 -1.0445 -1.7440
  127SOPE   H8Y13670   4.042   0.524   3.646  2.0616  1.9354 -0.3005
  127SOPE   C3913671   4.200   0.509   3.794 -0.7950 -0.0394 -0.5202
  127SOPE   H9X13672   4.244   0.601   3.749  1.5918 -0.5939  0.4984
  127SOPE   H9Y13673   4.279   0.435   3.820 -0.5852  0.6196  0.8215
  127SOPE  C31013674   4.133   0.528   3.933  0.4687 -0.3367 -0.0617
  127SOPE  H10X13675   4.046   0.461   3.948  1.3811 -2.3173 -2.8150
  127SOPE  H10Y13676   4.089   0.630   3.939 -0.3248 -0.5823 -1.3588
  127SOPE  C31113677   4.220   0.520   4.062 -0.1946 -0.2038  0.5109
  127SOPE  H11X13678   4.276   0.614   4.079  1.2216 -1.3831  2.8945
  127SOPE  H11Y13679   4.298   0.441   4.055  1.1394  1.1628 -1.0229
  127SOPE  C31213680   4.141   0.488   4.195  0.2143 -0.4288 -0.2877
  127SOPE  H12X13681   4.088   0.392   4.177 -1.0286 -0.1178  1.4952
  127SOPE  H12Y13682   4.069   0.572   4.202  1.4456  0.5072  2.1818
  127SOPE  C31313683   4.229   0.502   4.322  0.5695 -0.4267 -0.0356
  127SOPE  H13X13684   4.238   0.611   4.340 -0.1372 -0.4424  0.4671
  127SOPE  H13Y13685   4.326   0.454   4.296  1.9514  2.5960 -0.9562
  127SOPE  C31413686   4.163   0.441   4.452  0.3745  0.5770  0.3281
  127SOPE  H14X13687   4.119   0.345   4.417 -0.6401  1.1895 -0.1058
  127SOPE  H14Y13688   4.078   0.508   4.477 -0.6672 -0.9867  1.2258
  127SOPE  C31513689   4.259   0.404   4.565  0.4950 -0.3495  0.3918
  127SOPE  H15X13690   4.300   0.502   4.597  0.4209 -0.1891  0.0003
  127SOPE  H15Y13691   4.334   0.332   4.526 -0.8680 -1.1817 -0.8041
  127SOPE  C31613692   4.191   0.357   4.694 -0.0001 -0.4902 -0.5850
  127SOPE  H16X13693   4.131   0.440   4.736  0.6024  0.0909 -0.8619
  127SOPE  H16Y13694   4.274   0.343   4.766  0.2221  3.6970  0.2195
  127SOPE  C31713695   4.107   0.236   4.672 -0.0389 -0.3502 -1.1777
  127SOPE  H17X13696   4.177   0.162   4.627  0.9108 -0.4273  0.3615
  127SOPE  H17Y13697   4.022   0.250   4.602 -1.2127 -1.1782  0.0409
  127SOPE  C31813698   4.046   0.177   4.802 -0.2170  0.4909 -0.1288
  127SOPE  H18X13699   4.126   0.165   4.877  1.9087 -0.6585 -2.4470
  127SOPE  H18Y13700   3.991   0.082   4.782 -1.7727  1.1718  0.7051
  127SOPE  H18Z13701   3.966   0.247   4.836 -1.9101 -0.3236 -2.1444
  128SOPE     N13702   2.826   4.559   2.569  1.0027 -0.1748 -0.6409
  128SOPE   HN113703   2.766   4.533   2.649 -1.6617  0.1658 -2.3912
  128SOPE   HN213704   2.769   4.536   2.485  0.1261 -0.7396  0.0951
  128SOPE   HN313705   2.903   4.490   2.559  0.0545 -1.3102 -0.2931
  128SOPE   C1213706   2.866   4.706   2.550 -1.0676  0.1428  0.0915
  128SOPE  H12A13707   2.790   4.770   2.501  0.2571  0.9342 -1.0040
  128SOPE  H12B13708   2.951   4.698   2.479 -1.2219 -2.1811  0.0857
  128SOPE   C1113709   2.900   4.769   2.689 -0.0405 -0.0704 -0.7196
  128SOPE  H11A13710   2.958   4.861   2.669  1.8000 -0.9533  0.2495
  128SOPE  H11B13711   2.976   4.694   2.721 -0.3498 -0.5055 -0.9812
  128SOPE     P13712   2.794   4.884   2.896 -0.4919 -0.2504 -0.1122
  128SOPE   O1313713   2.674   4.861   2.976  0.0238  0.4911 -0.3880
  128SOPE   O1413714   2.808   5.022   2.845 -0.3499  1.0747  0.2083
  128SOPE   O1213715   2.791   4.774   2.774 -0.0917  0.3021 -0.5195
  128SOPE   O1113716   2.922   4.838   2.980 -0.4047 -0.3197  0.1205
  128SOPE    C113717   2.935   4.705   3.031 -0.6968 -0.5293 -0.4531
  128SOPE    HA13718   3.031   4.659   2.999 -0.7015 -1.3010  0.6182
  128SOPE    HB13719   2.859   4.635   2.988  0.8177 -1.7873 -1.1779
  128SOPE    C213720   2.930   4.709   3.185 -0.1787  0.7458 -0.1153
  128SOPE    HS13721   2.932   4.601   3.211  0.7085  0.5896 -0.7974
  128SOPE   O2113722   2.816   4.772   3.245 -0.5656  0.0954 -0.0213
  128SOPE   C2113723   2.711   4.695   3.264 -0.1296 -0.3781  0.1461
  128SOPE   O2213724   2.708   4.578   3.237 -0.1113  0.0583 -0.0554
  128SOPE   C2213725   2.607   4.780   3.331 -0.1065  0.6876  0.3983
  128SOPE   H2R13726   2.568   4.853   3.257 -0.3430  0.1726  0.0041
  128SOPE   H2S13727   2.641   4.842   3.416 -0.6687  0.7932  0.5457
  128SOPE    C313728   3.048   4.763   3.257 -0.7535 -0.8984 -0.6065
  128SOPE    HX13729   3.069   4.869   3.231  2.0786 -1.6626 -1.8513
  128SOPE    HY13730   3.141   4.719   3.215 -0.2662  0.3612 -0.9110
  128SOPE   O3113731   3.042   4.755   3.403  0.3109 -0.6416 -0.4331
  128SOPE   C3113732   3.047   4.635   3.445 -0.1244  0.2691 -1.1912
  128SOPE   O3213733   3.088   4.539   3.387  0.5534  0.8225 -0.2024
  128SOPE   C3213734   3.005   4.623   3.591  0.0055  0.2661 -0.0697
  128SOPE   H2X13735   2.899   4.592   3.598 -0.3383  1.6377  1.6092
  128SOPE   H2Y13736   3.004   4.727   3.633 -0.1758  1.2202 -2.3113
  128SOPE   C2313737   2.485   4.690   3.380  0.1281  0.0901  0.5945
  128SOPE   H3R13738   2.430   4.638   3.299 -2.3784 -0.1091  2.2915
  128SOPE   H3S13739   2.420   4.766   3.430  1.1012  1.3528 -0.0060
  128SOPE   C2413740   2.516   4.591   3.489  0.1490  0.1369  0.3491
  128SOPE   H4R13741   2.420   4.556   3.531  0.9448  1.6803  3.8407
  128SOPE   H4S13742   2.576   4.503   3.459  1.3446 -0.3433  3.6761
  128SOPE   C2513743   2.587   4.664   3.608  0.3835 -0.4588  0.0880
  128SOPE   H5R13744   2.689   4.682   3.568 -0.1093  1.0039 -0.5750
  128SOPE   H5S13745   2.537   4.758   3.638  0.2885 -0.3173 -0.5132
  128SOPE   C2613746   2.608   4.568   3.723 -0.1612 -0.3179 -0.3646
  128SOPE   H6R13747   2.516   4.510   3.747 -1.9591  2.3400 -0.3336
  128SOPE   H6S13748   2.693   4.499   3.704 -0.4527 -0.5185 -0.9428
  128SOPE   C2713749   2.641   4.644   3.854  1.0140  0.9876 -0.0686
  128SOPE   H7R13750   2.733   4.705   3.844  2.1239  0.1749  3.7896
  128SOPE   H7S13751   2.551   4.705   3.879 -1.7255 -2.1298 -1.5481
  128SOPE   C2813752   2.683   4.547   3.970 -0.3355 -0.4664 -0.6678
  128SOPE   H8R13753   2.752   4.471   3.928  0.0910  0.5626 -1.8713
  128SOPE   H8S13754   2.740   4.602   4.048  0.6583 -2.2786 -0.0637
  128SOPE   C2913755   2.564   4.470   4.030 -0.1501  0.1388  0.2595
  128SOPE   H9113756   2.540   4.395   3.953  0.5979  0.8775 -0.7263
  128SOPE  C21013757   2.495   4.494   4.140 -1.1612 -0.2306  0.6639
  128SOPE  H10113758   2.411   4.426   4.161 -1.4519 -0.8339 -2.0791
  128SOPE  C21113759   2.521   4.590   4.260 -0.9606  0.2639  0.1277
  128SOPE  H11R13760   2.431   4.650   4.286 -0.3265  0.8187  1.1359
  128SOPE  H11S13761   2.607   4.660   4.253 -0.9283  0.1191 -1.2283
  128SOPE  C21213762   2.557   4.507   4.392 -0.3785  0.2898  0.0219
  128SOPE  H12R13763   2.577   4.592   4.461  1.4479  1.9244 -2.3616
  128SOPE  H12S13764   2.643   4.440   4.374 -1.2163 -0.9997  0.7110
  128SOPE  C21313765   2.433   4.435   4.441  0.3618  0.7237 -0.1276
  128SOPE  H13R13766   2.386   4.381   4.357  0.0734  0.7833 -0.0057
  128SOPE  H13S13767   2.354   4.512   4.458 -0.5823 -0.3441  0.3970
  128SOPE  C21413768   2.455   4.361   4.568 -0.5408  0.0758 -0.0401
  128SOPE  H14R13769   2.503   4.431   4.640 -3.1326 -0.0779  1.9842
  128SOPE  H14S13770   2.526   4.277   4.554 -0.1599  0.3677  0.0832
  128SOPE  C21513771   2.328   4.306   4.627  0.1797 -0.0700 -0.3351
  128SOPE  H15R13772   2.267   4.246   4.557  0.5325  0.1118 -0.8048
  128SOPE  H15S13773   2.260   4.391   4.651 -1.6085 -0.9372 -2.0242
  128SOPE  C21613774   2.339   4.217   4.749  0.2704 -0.5149 -0.2285
  128SOPE  H16R13775   2.383   4.122   4.712  0.8123  0.2362 -1.6222
  128SOPE  H16S13776   2.235   4.204   4.787  0.6644  2.4841  2.2967
  128SOPE  C21713777   2.424   4.270   4.864 -0.6973 -0.3607 -0.6415
  128SOPE  H17R13778   2.365   4.359   4.896 -2.3246 -1.3014 -0.8597
  128SOPE  H17S13779   2.520   4.315   4.834 -1.3646  1.8761  0.3715
  128SOPE  C21813780   2.444   4.169   4.971  0.0329 -0.3806 -0.1070
  128SOPE  H18R13781   2.486   4.218   5.061  3.2046 -0.5168 -1.3972
  128SOPE  H18S13782   2.512   4.084   4.950  0.6249 -0.7619  2.8773
  128SOPE  H18T13783   2.350   4.116   4.996  0.1946  0.5805  2.9253
  128SOPE   C3313784   3.111   4.533   3.663  0.0026  0.3165 -0.1521
  128SOPE   H3X13785   3.211   4.580   3.644 -0.3932  0.9307 -0.7732
  128SOPE   H3Y13786   3.114   4.435   3.610  0.1652 -0.4672  1.2723
  128SOPE   C3413787   3.071   4.512   3.809  0.5089  0.1534  0.6290
  128SOPE   H4X13788   2.965   4.485   3.823  1.0915 -1.8347  1.5052
  128SOPE   H4Y13789   3.078   4.612   3.857  1.0089  0.1329  0.6091
  128SOPE   C3513790   3.160   4.415   3.894  0.1511  0.5903 -0.5791
  128SOPE   H5X13791   3.266   4.445   3.880  0.1746  0.6841 -0.2135
  128SOPE   H5Y13792   3.151   4.308   3.866  3.0248  0.6564 -2.0453
  128SOPE   C3613793   3.143   4.420   4.042  0.5242  0.2324  0.2327
  128SOPE   H6X13794   3.142   4.526   4.077 -1.2395  0.8410 -1.4406
  128SOPE   H6Y13795   3.235   4.370   4.081 -1.4216 -2.4895  1.6405
  128SOPE   C3713796   3.011   4.368   4.101 -0.4404  0.2316  0.4401
  128SOPE   H7X13797   2.983   4.276   4.046  2.1399  0.2523 -1.0926
  128SOPE   H7Y13798   2.942   4.448   4.067  1.1205  1.8256  0.8708
  128SOPE   C3813799   3.017   4.336   4.248 -0.4467  0.5704 -0.5228
  128SOPE   H8X13800   2.909   4.317   4.270 -1.4541  2.8585 -2.9419
  128SOPE   H8Y13801   3.048   4.422   4.311  1.1634 -0.1999 -0.2063
  128SOPE   C3913802   3.113   4.227   4.281 -0.0279  0.5506  0.4938
  128SOPE   H9X13803   3.207   4.282   4.303  0.6546  1.1108 -3.1591
  128SOPE   H9Y13804   3.137   4.163   4.193  0.5488  3.8372 -1.9881
  128SOPE  C31013805   3.083   4.141   4.408 -0.0224  0.5529 -0.1748
  128SOPE  H10X13806   3.175   4.080   4.417  0.1516  0.4449 -2.1224
  128SOPE  H10Y13807   2.991   4.080   4.396 -1.2319  1.9885  1.2937
  128SOPE  C31113808   3.068   4.214   4.540 -0.1979 -0.4397  0.1738
  128SOPE  H11X13809   3.012   4.310   4.530 -0.5035 -0.6004  0.3251
  128SOPE  H11Y13810   3.153   4.273   4.580 -0.7811  0.3436  0.2920
  128SOPE  C31213811   3.003   4.125   4.649 -0.0189 -0.0341  0.8177
  128SOPE  H12X13812   3.086   4.060   4.683 -0.8088 -1.5333 -0.0036
  128SOPE  H12Y13813   2.917   4.063   4.618  1.5268 -1.6598 -0.3989
  128SOPE  C31313814   2.960   4.208   4.774  0.5850 -0.5474 -0.7020
  128SOPE  H13X13815   2.907   4.298   4.734  1.3603 -1.2975 -3.7216
  128SOPE  H13Y13816   3.045   4.262   4.820  0.0992 -1.2619  1.0962
  128SOPE  C31413817   2.882   4.136   4.886  0.4985 -0.5916 -0.6777
  128SOPE  H14X13818   2.955   4.058   4.916  0.4687 -0.5349 -0.4548
  128SOPE  H14Y13819   2.786   4.101   4.844  0.7426  1.5550 -3.3533
  128SOPE  C31513820   2.848   4.238   5.004  0.2655  0.2397  0.3676
  128SOPE  H15X13821   2.752   4.288   4.976 -0.3311 -0.5731  0.9006
  128SOPE  H15Y13822   2.925   4.316   5.020  2.3639 -1.8035  0.6990
  128SOPE  C31613823   2.844   4.166   5.142 -0.1666 -0.1134  0.2764
  128SOPE  H16X13824   2.767   4.090   5.164  0.7206 -1.2231 -0.3750
  128SOPE  H16Y13825   2.810   4.244   5.213 -1.3553  1.1877 -1.6316
  128SOPE  C31713826   2.986   4.108   5.180 -0.5042  0.4506 -0.4429
  128SOPE  H17X13827   3.065   4.186   5.171  1.0610 -0.7716  1.7964
  128SOPE  H17Y13828   3.019   4.020   5.121  2.1210  0.9892  0.1181
  128SOPE  C31813829   2.998   4.069   5.331  0.3746  0.0340 -0.7806
  128SOPE  H18X13830   3.108   4.062   5.345  0.1102  2.0817  4.0265
  128SOPE  H18Y13831   2.943   3.977   5.362  3.0117 -1.4718 -0.2053
  128SOPE  H18Z13832   2.964   4.151   5.397 -1.4348 -1.2221 -0.0881
  129OSM      N13833   6.236   6.622   7.019  0.0019 -0.0052 -0.3594
  129OSM    C1513834   6.341   6.534   6.951 -0.3609  0.1578 -0.1273
  129OSM   H15A13835   6.303   6.454   6.888  3.0649 -0.9434 -1.0328
  129OSM   H15B13836   6.407   6.490   7.025  0.7813 -0.5419 -1.5004
  129OSM   H15C13837   6.404   6.594   6.888  2.6293 -0.3545  2.1056
  129OSM    C1413838   6.147   6.527   7.094  0.1017  0.3980 -0.3520
  129OSM   H14A13839   6.070   6.573   7.154 -0.5263 -3.0012  1.7264
  129OSM   H14B13840   6.207   6.466   7.159  0.8600 -1.3157 -2.5278
  129OSM   H14C13841   6.101   6.459   7.023  4.9155 -2.0763 -1.5391
  129OSM    C1313842   6.308   6.706   7.120 -0.2097 -0.5109 -0.0045
  129OSM   H13A13843   6.249   6.746   7.201  0.1727 -0.7498  0.3970
  129OSM   H13B13844   6.343   6.791   7.063  1.3801 -0.3354  1.1512
  129OSM   H13C13845   6.397   6.663   7.164  0.3786 -0.1381 -0.7965
  129OSM    C1213846   6.154   6.712   6.920 -0.0464  0.4307  0.1852
  129OSM   H12A13847   6.206   6.805   6.898  0.3904  0.6504  1.9557
  129OSM   H12B13848   6.062   6.739   6.969 -0.3775 -3.6725  2.2847
  129OSM    C1113849   6.108   6.641   6.785  0.5932 -0.2137  0.0633
  129OSM   H11A13850   6.204   6.621   6.732 -0.4769 -1.4570 -1.5043
  129OSM   H11B13851   6.055   6.707   6.713 -0.8123  0.9741  2.0758
  129OSM      P13852   5.885   6.500   6.804 -0.7249  0.2820 -0.5563
  129OSM    O1313853   5.857   6.357   6.801  0.5051 -0.0677 -0.4131
  129OSM    O1413854   5.833   6.582   6.915  0.0539 -0.5413  0.0903
  129OSM    O1113855   5.842   6.567   6.670  0.5742 -0.1985 -0.3173
  129OSM    O1213856   6.040   6.516   6.804  0.6750 -0.3992 -0.3738
  129OSM    C1S13857   5.908   6.519   6.548 -0.0250 -0.1699  0.1944
  129OSM    H1S13858   5.989   6.446   6.573  1.3513  1.7190  1.5694
  129OSM    H1T13859   5.966   6.598   6.496 -0.4591  1.1395  1.6228
  129OSM     NF13860   5.880   6.438   6.314  0.2628  0.4319 -0.4525
  129OSM    HNF13861   5.895   6.514   6.251 -1.5858  2.4015  1.3387
  129OSM    C2S13862   5.808   6.464   6.439 -0.5451  0.8511 -0.0260
  129OSM    H2S13863   5.778   6.365   6.481  1.5708  0.9529  1.9144
  129OSM    C3S13864   5.691   6.555   6.422  0.8932 -0.5978  0.6576
  129OSM    H3S13865   5.728   6.653   6.386 -0.9430 -0.0591  0.1452
  129OSM     O313866   5.615   6.578   6.539  0.3929 -1.0961 -0.4001
  129OSM    HO313867   5.688   6.580   6.601 -0.7948 -1.4723  1.0585
  129OSM    C4S13868   5.597   6.482   6.322 -0.2567 -0.6585 -0.3294
  129OSM    H4S13869   5.578   6.376   6.345 -4.3127 -0.0783 -0.2916
  129OSM    C5S13870   5.541   6.528   6.213  0.5478 -0.1383 -0.6564
  129OSM    H5S13871   5.554   6.632   6.180  0.0572  0.3162  0.5059
  129OSM    C6S13872   5.451   6.441   6.121  0.2618 -0.1592  0.1927
  129OSM    H6S13873   5.347   6.472   6.144  0.4657  1.1306 -0.5228
  129OSM    H6T13874   5.452   6.333   6.147  1.1284 -1.3178 -3.8866
  129OSM    C7S13875   5.496   6.455   5.977  0.6679  0.0308  0.1884
  129OSM    H7S13876   5.594   6.405   5.967  1.4901  2.0348 -4.6573
  129OSM    H7T13877   5.507   6.562   5.947 -0.8321 -0.2054 -1.4146
  129OSM    C8S13878   5.406   6.391   5.876  0.6316 -0.2028  0.0436
  129OSM    H8S13879   5.316   6.455   5.865 -0.5600 -1.5221  1.6850
  129OSM    H8T13880   5.385   6.294   5.926  0.4215 -0.7223 -1.0191
  129OSM    C9S13881   5.462   6.380   5.737 -0.0935  0.5576  0.0613
  129OSM    H9S13882   5.558   6.324   5.746 -0.3714  0.1579  0.6440
  129OSM    H9T13883   5.488   6.482   5.701  0.9627  1.1232  2.2790
  129OSM   C10S13884   5.379   6.313   5.629 -0.2283  0.1418  0.0075
  129OSM   H10S13885   5.280   6.363   5.631 -0.8753 -1.0921 -0.1880
  129OSM   H10T13886   5.361   6.208   5.661 -1.5914  0.7330  1.2964
  129OSM   C11S13887   5.431   6.314   5.489 -0.4199  0.4293 -0.3749
  129OSM   H11S13888   5.525   6.254   5.483 -0.2838  0.4879  0.8567
  129OSM   H11T13889   5.457   6.420   5.470 -1.6886  1.0212  1.0546
  129OSM   C12S13890   5.337   6.283   5.383  0.0960  0.1999 -0.0557
  129OSM   H12S13891   5.259   6.362   5.388  1.2556  1.3145  0.9837
  129OSM   H12T13892   5.284   6.189   5.410 -0.6041  0.2829 -1.0615
  129OSM   C13S13893   5.399   6.268   5.239  0.1738  0.3554 -0.3302
  129OSM   H13S13894   5.473   6.185   5.243 -1.9208 -1.6811 -1.4474
  129OSM   H13T13895   5.455   6.365   5.236  1.2163 -0.2511 -1.0453
  129OSM   C14S13896   5.292   6.245   5.136 -0.2871 -0.6292  0.3047
  129OSM   H14S13897   5.237   6.341   5.138  0.5538 -0.1319 -0.1328
  129OSM   H14T13898   5.226   6.160   5.164 -2.7624  1.2004  0.3519
  129OSM   C15S13899   5.356   6.216   5.002  0.1554  0.0462 -0.1388
  129OSM   H15S13900   5.274   6.179   4.936 -0.4782  1.6114 -0.2565
  129OSM   H15T13901   5.430   6.135   5.021 -1.0129 -1.4690 -1.6722
  129OSM   C16S13902   5.412   6.345   4.936 -0.0682  0.1823  0.7154
  129OSM   H16S13903   5.492   6.379   5.006  0.4079  0.8939 -0.1631
  129OSM   H16T13904   5.336   6.424   4.920  2.0782  1.6692 -3.6094
  129OSM   C17S13905   5.481   6.310   4.800 -0.6137  0.7689  1.1448
  129OSM   H17S13906   5.394   6.265   4.746  0.2866 -0.7661  0.8996
  129OSM   H17T13907   5.566   6.239   4.811  1.5970  2.3066 -3.4129
  129OSM   C18S13908   5.531   6.424   4.717 -0.0057  0.7723 -1.0495
  129OSM   H18S13909   5.601   6.495   4.765  1.4472 -0.1288 -1.7886
  129OSM   H18T13910   5.444   6.482   4.680  0.2900  2.0962  0.2178
  129OSM   H18U13911   5.564   6.395   4.615  0.1167 -1.1548 -0.4970
  129OSM    C1F13912   5.963   6.335   6.298  0.4259 -0.2162 -0.1186
  129OSM     OF13913   5.986   6.260   6.395  0.2439 -0.1177  0.1543
  129OSM    C2F13914   6.033   6.329   6.162  0.0555 -0.3018 -0.2076
  129OSM    H2F13915   6.077   6.431   6.152 -1.3033  0.4170  0.7333
  129OSM    H2G13916   5.955   6.330   6.082  1.0622  0.5625 -1.2281
  129OSM    C3F13917   6.123   6.207   6.139 -0.2535  0.2623  0.0681
  129OSM    H3F13918   6.089   6.111   6.185 -2.1862  0.5290 -0.7096
  129OSM    H3G13919   6.224   6.240   6.172  0.1505 -0.6610 -0.1747
  129OSM    C4F13920   6.147   6.176   5.992 -0.4555 -0.9862 -0.8909
  129OSM    H4F13921   6.047   6.159   5.946  0.1043  3.1337 -4.2432
  129OSM    H4G13922   6.203   6.081   5.982 -1.1923 -1.6446  0.7414
  129OSM    C5F13923   6.217   6.281   5.903  0.0003  0.1067 -0.4593
  129OSM    H5F13924   6.318   6.295   5.947 -0.6702 -0.5015  1.3527
  129OSM    H5G13925   6.152   6.370   5.920  3.0888  2.1845  1.4249
  129OSM    C6F13926   6.233   6.242   5.753  0.4314 -0.0440 -0.2255
  129OSM    H6F13927   6.219   6.334   5.693  1.4429  0.9356  0.9935
  129OSM    H6G13928   6.165   6.159   5.725  1.4481 -1.2765  0.7865
  129OSM    C7F13929   6.374   6.191   5.722 -0.8479 -0.1448 -0.1172
  129OSM    H7F13930   6.397   6.111   5.795 -0.2631 -1.1091 -1.3144
  129OSM    H7G13931   6.455   6.262   5.749 -0.8893 -0.5131  1.0249
  129OSM    C8F13932   6.390   6.146   5.573 -0.1194 -0.6555 -0.0672
  129OSM    H8F13933   6.496   6.112   5.568 -0.1190 -0.7665  0.6032
  129OSM    H8G13934   6.379   6.234   5.507 -1.2395 -1.6982 -1.3252
  129OSM    C9F13935   6.293   6.038   5.528 -0.0525  0.3738  0.2546
  129OSM    H9F13936   6.195   6.045   5.576 -0.7174  2.2759 -1.2575
  129OSM   C10F13937   6.321   5.938   5.445 -0.0314  0.0259  0.3306
  129OSM   H10F13938   6.240   5.871   5.412 -0.9272  1.3917 -0.3599
  129OSM   C11F13939   6.457   5.920   5.383 -0.4244 -0.2011 -0.7778
  129OSM   H11F13940   6.539   5.964   5.442 -1.8760  1.2324  0.2644
  129OSM   H11G13941   6.456   5.948   5.275 -0.6132  0.6197 -0.5673
  129OSM   C12F13942   6.503   5.772   5.400 -0.2933  0.6455 -0.6080
  129OSM   H12F13943   6.515   5.754   5.509  0.8918  0.2987 -0.7862
  129OSM   H12G13944   6.605   5.766   5.356  0.1373 -2.4822  0.5840
  129OSM   C13F13945   6.417   5.672   5.333  0.6992  0.4844  0.2031
  129OSM   H13F13946   6.387   5.700   5.230 -0.5092  0.4634  0.5312
  129OSM   H13G13947   6.323   5.659   5.391 -0.5172  0.1917 -1.7356
  129OSM   C14F13948   6.469   5.522   5.328  0.8271  0.0435  0.1629
  129OSM   H14F13949   6.454   5.489   5.433  0.8322  2.6221  1.0441
  129OSM   H14G13950   6.580   5.518   5.314  0.6789 -1.1780 -0.8243
  129OSM   C15F13951   6.386   5.443   5.219 -1.0542  0.4637 -0.1270
  129OSM   H15F13952   6.448   5.354   5.194 -1.5288  0.2015 -0.3866
  129OSM   H15G13953   6.371   5.503   5.126  0.9132  0.1537 -0.6852
  129OSM   C16F13954   6.242   5.396   5.264 -0.5012 -0.6176 -0.5510
  129OSM   H16F13955   6.181   5.486   5.287  0.4791  0.1305 -0.8262
  129OSM   H16G13956   6.251   5.328   5.351  1.4193  1.0498  0.6446
  129OSM   C17F13957   6.174   5.311   5.154  0.6306  0.3095 -0.0371
  129OSM   H17F13958   6.250   5.250   5.101 -0.2657 -1.8647  1.0614
  129OSM   H17G13959   6.149   5.383   5.073  1.0085 -0.4017 -0.7913
  129OSM   C18F13960   6.049   5.235   5.188  0.1941  0.7494 -0.4220
  129OSM   H18F13961   5.971   5.308   5.220  0.1942 -0.1348  1.7772
  129OSM   H18G13962   6.064   5.180   5.283  0.7967 -0.4520 -1.1970
  129OSM   H18H13963   6.011   5.165   5.111  0.8051 -1.1206  0.9276
  130OSM      N13964   6.290   1.760   7.404 -0.1013 -0.7977  0.5212
  130OSM    C1513965   6.276   1.612   7.435  0.3579 -0.6594  0.1622
  130OSM   H15A13966   6.184   1.591   7.488  1.9377 -0.7862  3.0388
  130OSM   H15B13967   6.348   1.581   7.509  2.2575  0.6148 -1.0814
  130OSM   H15C13968   6.287   1.563   7.339  0.1046  0.2293 -0.3257
  130OSM    C1413969   6.167   1.797   7.322 -0.4166 -0.0180  0.2891
  130OSM   H14A13970   6.174   1.896   7.280  2.2125 -0.4641 -0.5431
  130OSM   H14B13971   6.072   1.793   7.373 -0.8094  1.2370 -0.3093
  130OSM   H14C13972   6.162   1.723   7.244 -0.8647 -1.6125  1.7679
  130OSM    C1313973   6.291   1.835   7.531  0.6442  0.3398 -0.1310
  130OSM   H13A13974   6.198   1.816   7.582 -0.5065  0.0995 -2.2108
  130OSM   H13B13975   6.305   1.940   7.508  1.8402 -0.0836 -1.5156
  130OSM   H13C13976   6.367   1.797   7.598  2.0568 -0.3841 -2.0310
  130OSM    C1213977   6.423   1.796   7.330 -0.1819  0.3104 -0.1452
  130OSM   H12A13978   6.502   1.783   7.403 -0.8218 -1.1521  0.3185
  130OSM   H12B13979   6.425   1.900   7.301 -2.3844  0.1554 -1.0436
  130OSM    C1113980   6.469   1.707   7.212  0.0983  0.2659  0.4728
  130OSM   H11A13981   6.472   1.600   7.243  0.1327 -0.0047 -0.4100
  130OSM   H11B13982   6.575   1.725   7.187 -0.5006  1.2845 -1.5846
  130OSM      P13983   6.375   1.845   7.014  0.1150 -0.0026  0.6857
  130OSM    O1313984   6.238   1.890   6.983 -0.2421 -0.4276  0.1713
  130OSM    O1413985   6.474   1.940   7.060  0.4110 -0.2222 -0.2130
  130OSM    O1113986   6.433   1.798   6.876 -0.2875  0.1564  0.5612
  130OSM    O1213987   6.373   1.716   7.104  0.4539  0.2952 -0.5324
  130OSM    C1S13988   6.539   1.700   6.859  0.2446  0.5992  0.1198
  130OSM    H1S13989   6.498   1.598   6.841  1.0097  0.1387  0.8737
  130OSM    H1T13990   6.608   1.699   6.947 -1.9287  2.2191  1.9692
  130OSM     NF13991   6.720   1.603   6.721  0.1553  0.4068 -0.6538
  130OSM    HNF13992   6.809   1.603   6.766  1.3530  0.6005 -2.8803
  130OSM    C2S13993   6.636   1.723   6.735  0.6428  0.5923  0.0442
  130OSM    H2S13994   6.577   1.734   6.641  2.8996  0.1738 -1.5073
  130OSM    C3S13995   6.720   1.853   6.755  0.3076 -0.4791  0.1971
  130OSM    H3S13996   6.791   1.854   6.840 -0.2432  1.3789  0.6709
  130OSM     O313997   6.638   1.970   6.776  0.1297  0.1237 -0.2617
  130OSM    HO313998   6.553   1.931   6.799 -0.3188  0.3624 -1.4331
  130OSM    C4S13999   6.798   1.866   6.625 -0.0217 -0.5452  0.2534
  130OSM    H4S14000   6.732   1.902   6.545 -0.9917  1.1038  1.7210
  130OSM    C5S14001   6.932   1.864   6.609  0.5483  0.3629  0.9714
  130OSM    H5S14002   7.001   1.849   6.694  0.4922 -1.3016  0.7624
  130OSM    C6S14003   6.990   1.888   6.471 -0.0692  0.1086 -0.1832
  130OSM    H6S14004   7.082   1.948   6.485  0.9427 -1.5131  0.4342
  130OSM    H6T14005   6.923   1.935   6.396  2.2942  0.6903 -2.0352
  130OSM    C7S14006   7.024   1.754   6.414  0.7911 -0.4265  0.0710
  130OSM    H7S14007   6.940   1.681   6.414  1.3284 -1.1370  2.2992
  130OSM    H7T14008   7.107   1.706   6.471  2.4206  0.9726 -1.0387
  130OSM    C8S14009   7.081   1.762   6.273  0.2461 -0.5691 -0.1806
  130OSM    H8S14010   7.181   1.809   6.261 -1.1987  2.2029 -2.6458
  130OSM    H8T14011   7.009   1.821   6.213 -0.3319  0.1616  1.2030
  130OSM    C9S14012   7.077   1.615   6.210 -0.2602 -0.3960 -0.3120
  130OSM    H9S14013   6.977   1.568   6.200  0.2385 -1.0841 -2.6120
  130OSM    H9T14014   7.127   1.545   6.280 -0.1390  0.0541  0.0646
  130OSM   C10S14015   7.135   1.610   6.065 -0.3053 -0.4039  0.6309
  130OSM   H10S14016   7.229   1.669   6.065  0.4914 -1.6152  1.5034
  130OSM   H10T14017   7.058   1.658   6.002  0.2287 -0.2406  0.0966
  130OSM   C11S14018   7.153   1.473   6.006  0.4884  0.8249  0.4787
  130OSM   H11S14019   7.058   1.421   5.983  0.2544  1.3161  0.3096
  130OSM   H11T14020   7.211   1.410   6.076 -1.5056 -0.8428  0.6938
  130OSM   C12S14021   7.208   1.488   5.861 -0.3007 -0.3066 -0.4112
  130OSM   H12S14022   7.261   1.395   5.830 -0.2077 -0.4589  0.1979
  130OSM   H12T14023   7.276   1.575   5.855 -0.5672 -0.1682 -2.3001
  130OSM   C13S14024   7.101   1.504   5.748  0.6305 -0.2505 -0.4989
  130OSM   H13S14025   7.033   1.585   5.783  0.2444 -0.1593 -1.4339
  130OSM   H13T14026   7.034   1.415   5.745  0.0484 -0.0039  2.2764
  130OSM   C14S14027   7.168   1.551   5.619 -0.4159  0.9926 -0.4503
  130OSM   H14S14028   7.257   1.485   5.606 -1.6424 -0.7651 -0.2155
  130OSM   H14T14029   7.197   1.658   5.631 -0.1260  0.7523  1.2557
  130OSM   C15S14030   7.076   1.529   5.499 -0.3685 -0.2465 -0.2054
  130OSM   H15S14031   6.986   1.588   5.527 -0.1996  0.5215 -1.2229
  130OSM   H15T14032   7.056   1.422   5.477 -0.6376 -0.0425 -0.9997
  130OSM   C16S14033   7.122   1.600   5.373  0.0389 -0.1718  0.2668
  130OSM   H16S14034   7.222   1.559   5.346  0.5902  1.2380  0.0993
  130OSM   H16T14035   7.141   1.708   5.389  1.5917 -0.5707  1.3970
  130OSM   C17S14036   7.024   1.582   5.260  0.8338  0.5486 -0.3844
  130OSM   H17S14037   7.053   1.651   5.178  0.2289  2.1810  0.7419
  130OSM   H17T14038   6.920   1.611   5.284 -0.1538 -1.3301 -2.0793
  130OSM   C18S14039   7.020   1.439   5.202 -0.5567 -0.3910 -0.3818
  130OSM   H18S14040   6.955   1.432   5.113  1.1498 -0.4387 -1.6667
  130OSM   H18T14041   6.989   1.362   5.277 -2.2910  0.6896  0.0799
  130OSM   H18U14042   7.116   1.407   5.156  0.3149 -0.1963  1.2196
  130OSM    C1F14043   6.670   1.489   6.673  0.5961  0.6491 -0.3143
  130OSM     OF14044   6.552   1.474   6.642 -0.3588 -0.5342 -0.2441
  130OSM    C2F14045   6.760   1.367   6.693  0.3397 -0.2089 -0.2500
  130OSM    H2F14046   6.686   1.289   6.722 -1.2600  1.6660  0.9580
  130OSM    H2G14047   6.839   1.385   6.770  1.2127  1.5949 -1.4952
  130OSM    C3F14048   6.834   1.340   6.562 -0.7857 -0.6804 -0.2321
  130OSM    H3F14049   6.925   1.290   6.603  0.8600  1.1386 -1.4842
  130OSM    H3G14050   6.873   1.435   6.521  0.3551 -1.5711 -1.2800
  130OSM    C4F14051   6.762   1.260   6.461  0.1287  0.1700 -0.2288
  130OSM    H4F14052   6.671   1.320   6.440  0.9262  0.5635 -2.9489
  130OSM    H4G14053   6.745   1.158   6.501 -0.2216  0.4366  0.3049
  130OSM    C5F14054   6.832   1.252   6.326 -0.1568  0.4141  0.1315
  130OSM    H5F14055   6.934   1.209   6.335  0.1114  0.2812 -2.5761
  130OSM    H5G14056   6.848   1.349   6.274  0.8927 -0.8787 -2.1035
  130OSM    C6F14057   6.752   1.179   6.220  0.4228 -0.1278 -0.3728
  130OSM    H6F14058   6.651   1.224   6.212  0.2394 -0.0489  1.8209
  130OSM    H6G14059   6.733   1.072   6.240 -1.8103  0.2806 -0.1081
  130OSM    C7F14060   6.804   1.206   6.074  0.7676 -0.0060  0.2074
  130OSM    H7F14061   6.899   1.152   6.054  1.5249  0.9814  1.0140
  130OSM    H7G14062   6.832   1.313   6.067  0.8929 -0.0196  0.5047
  130OSM    C8F14063   6.697   1.140   5.970  0.4727 -1.3623  0.5852
  130OSM    H8F14064   6.662   1.046   6.017  1.1836 -2.5771 -1.2219
  130OSM    H8G14065   6.765   1.111   5.887 -1.2019 -0.9831 -0.9673
  130OSM    C9F14066   6.583   1.237   5.930 -0.3482  0.3545 -0.7095
  130OSM    H9F14067   6.541   1.308   6.003 -3.1330  1.4852 -3.1770
  130OSM   C10F14068   6.534   1.236   5.807  0.6382  0.2544  1.0462
  130OSM   H10F14069   6.451   1.307   5.792  0.9499  0.4584  0.2326
  130OSM   C11F14070   6.571   1.161   5.690  0.1314  0.6562  0.5462
  130OSM   H11F14071   6.478   1.122   5.644 -0.8090  2.8018  0.5200
  130OSM   H11G14072   6.640   1.076   5.711  0.7904  1.0719  0.1114
  130OSM   C12F14073   6.638   1.252   5.585  0.1844  0.0911  0.5201
  130OSM   H12F14074   6.682   1.178   5.515 -3.1659 -1.7429  0.1048
  130OSM   H12G14075   6.718   1.304   5.641  0.4368 -0.5949  0.8029
  130OSM   C13F14076   6.556   1.359   5.515 -0.2673 -0.5518  0.2507
  130OSM   H13F14077   6.503   1.425   5.587  0.1193 -1.0262  0.9797
  130OSM   H13G14078   6.474   1.304   5.463 -0.2030 -0.8647  0.4826
  130OSM   C14F14079   6.640   1.447   5.428  0.6427  0.3869  0.2739
  130OSM   H14F14080   6.702   1.381   5.363  0.0033 -0.7526  0.8003
  130OSM   H14G14081   6.710   1.516   5.479 -2.0112  1.5848  2.5057
  130OSM   C15F14082   6.571   1.532   5.322  0.7294 -0.1403 -0.5041
  130OSM   H15F14083   6.495   1.481   5.259 -0.5955  0.8674  0.2235
  130OSM   H15G14084   6.652   1.569   5.256  0.8318  2.3607  0.9138
  130OSM   C16F14085   6.509   1.660   5.379 -0.1288 -0.2167 -0.0239
  130OSM   H16F14086   6.586   1.724   5.426 -0.4360 -0.6290  1.0743
  130OSM   H16G14087   6.427   1.631   5.448  0.6578  1.0764  1.5167
  130OSM   C17F14088   6.439   1.756   5.274  0.1686  0.2484 -0.1793
  130OSM   H17F14089   6.376   1.815   5.344  1.3069  1.7735 -0.3860
  130OSM   H17G14090   6.372   1.693   5.211 -1.6575  0.7851  1.1468
  130OSM   C18F14091   6.533   1.844   5.186  0.2272  0.4159  0.4418
  130OSM   H18F14092   6.570   1.772   5.110 -2.5844 -1.3267  0.6054
  130OSM   H18G14093   6.618   1.895   5.236  1.1544  0.9930 -1.6256
  130OSM   H18H14094   6.484   1.924   5.127  0.5220 -0.4316 -0.9851
  131OSM      N14095   6.725   4.639   6.992  0.3344  0.2961 -0.1038
  131OSM    C1514096   6.693   4.787   6.996 -0.0534  1.0165 -0.0451
  131OSM   H15A14097   6.707   4.817   6.894  1.1381  1.0824  0.1243
  131OSM   H15B14098   6.752   4.849   7.062 -0.4074  2.1437 -0.7667
  131OSM   H15C14099   6.590   4.792   7.029 -0.4637 -0.7092 -0.9206
  131OSM    C1414100   6.866   4.624   6.938 -0.5948 -0.2267  0.0788
  131OSM   H14A14101   6.895   4.520   6.935 -0.9947 -0.4435  1.9948
  131OSM   H14B14102   6.929   4.687   6.999  1.1358 -0.6778 -1.1709
  131OSM   H14C14103   6.867   4.650   6.834 -1.5591 -1.0414 -0.1515
  131OSM    C1314104   6.732   4.595   7.134 -0.1618  0.0903  0.6833
  131OSM   H13A14105   6.741   4.487   7.138 -2.1272 -0.2145 -1.3023
  131OSM   H13B14106   6.642   4.613   7.190  1.5879 -0.2822  3.8079
  131OSM   H13C14107   6.809   4.644   7.192 -0.1012  0.3564  0.3867
  131OSM    C1214108   6.630   4.554   6.908  0.3236  0.4026  0.2882
  131OSM   H12A14109   6.685   4.463   6.889 -1.8026 -0.6860 -1.0441
  131OSM   H12B14110   6.613   4.602   6.813  1.7411  0.1049 -0.1366
  131OSM    C1114111   6.489   4.526   6.967  0.0441  0.4597  0.0894
  131OSM   H11A14112   6.514   4.457   7.050 -0.6924 -0.4449 -0.4226
  131OSM   H11B14113   6.433   4.471   6.889  0.4489  1.8875 -1.2707
  131OSM      P14114   6.342   4.722   6.892  0.0066 -0.0818 -0.1831
  131OSM    O1314115   6.207   4.666   6.885 -0.4988 -0.5524  0.2340
  131OSM    O1414116   6.359   4.868   6.924 -0.5015  0.5354 -0.7990
  131OSM    O1114117   6.423   4.690   6.766 -0.1697 -0.6108 -0.1273
  131OSM    O1214118   6.413   4.641   7.006 -0.8306  0.1012  0.7002
  131OSM    C1S14119   6.372   4.627   6.648 -0.9831 -0.4919  0.0321
  131OSM    H1S14120   6.270   4.663   6.626 -0.1292  1.0279 -1.7133
  131OSM    H1T14121   6.385   4.517   6.645  1.0010 -0.2890 -3.0363
  131OSM     NF14122   6.403   4.620   6.401  0.0450  0.0410 -0.9305
  131OSM    HNF14123   6.451   4.542   6.360  0.5582  0.1679 -0.5829
  131OSM    C2S14124   6.452   4.681   6.525  0.0336 -0.3801 -0.0543
  131OSM    H2S14125   6.437   4.791   6.523 -0.2331 -0.4163 -0.2050
  131OSM    C3S14126   6.602   4.663   6.549  0.3472 -0.1448  1.0500
  131OSM    H3S14127   6.605   4.565   6.602  1.0675 -0.8451 -0.2229
  131OSM     O314128   6.665   4.756   6.642  0.2017  0.0818  0.1099
  131OSM    HO314129   6.600   4.821   6.670  0.2020 -0.4945  1.5472
  131OSM    C4S14130   6.679   4.649   6.421  0.2741 -0.0841 -0.1661
  131OSM    H4S14131   6.684   4.547   6.381  0.3443 -0.2896  0.3533
  131OSM    C5S14132   6.744   4.747   6.350  0.5008  0.1303  0.0747
  131OSM    H5S14133   6.735   4.853   6.378 -1.6919  0.8847 -2.9332
  131OSM    C6S14134   6.811   4.730   6.209  0.3189  0.1646 -0.0540
  131OSM    H6S14135   6.909   4.679   6.219 -0.7806 -1.9124  0.8258
  131OSM    H6T14136   6.825   4.830   6.163 -0.4379  0.3600  0.1231
  131OSM    C7S14137   6.719   4.645   6.124  0.2037 -0.2539 -0.5019
  131OSM    H7S14138   6.617   4.688   6.133 -0.2886 -0.6149 -3.3823
  131OSM    H7T14139   6.711   4.542   6.163 -3.5863  0.5058  1.1270
  131OSM    C8S14140   6.754   4.638   5.976 -0.2275 -0.2656  0.1199
  131OSM    H8S14141   6.717   4.546   5.925 -1.4370  0.4494 -0.3288
  131OSM    H8T14142   6.866   4.640   5.974 -0.1929  2.1516  1.1785
  131OSM    C9S14143   6.717   4.756   5.885 -0.4021  0.4165 -0.0513
  131OSM    H9S14144   6.752   4.850   5.934  2.1033 -0.9767  0.9932
  131OSM    H9T14145   6.608   4.763   5.864 -0.3157  0.8731 -0.3587
  131OSM   C10S14146   6.782   4.759   5.751  0.4017 -0.0801 -0.8294
  131OSM   H10S14147   6.891   4.743   5.764  0.1231 -2.2427 -0.8898
  131OSM   H10T14148   6.783   4.861   5.707  2.2234 -0.3064 -1.4019
  131OSM   C11S14149   6.724   4.656   5.651  0.0888 -0.1059  0.3131
  131OSM   H11S14150   6.613   4.652   5.660 -0.0414 -0.3701 -1.1147
  131OSM   H11T14151   6.753   4.552   5.678  0.3603 -0.9049 -2.6223
  131OSM   C12S14152   6.775   4.672   5.505  0.3114  0.2956 -0.0244
  131OSM   H12S14153   6.753   4.777   5.476  0.0145  0.5669  1.1118
  131OSM   H12T14154   6.711   4.607   5.442  0.4047  0.8256 -0.6722
  131OSM   C13S14155   6.925   4.660   5.479  0.0144 -0.2768  0.8376
  131OSM   H13S14156   6.947   4.556   5.511 -1.3107 -0.7147  0.3627
  131OSM   H13T14157   6.983   4.731   5.542  1.2052  2.6855 -3.2131
  131OSM   C14S14158   6.963   4.673   5.331 -0.4315 -0.0181  0.0333
  131OSM   H14S14159   7.064   4.630   5.318  0.5984  2.3663 -0.4072
  131OSM   H14T14160   6.982   4.778   5.301 -0.0682 -0.3082 -0.8021
  131OSM   C15S14161   6.868   4.609   5.230  0.2532 -1.2912  0.1177
  131OSM   H15S14162   6.766   4.651   5.241  0.2577 -1.6288  1.6648
  131OSM   H15T14163   6.841   4.504   5.250 -1.8898 -1.1253 -1.5234
  131OSM   C16S14164   6.908   4.639   5.082  0.1315 -0.0130 -0.0565
  131OSM   H16S14165   7.009   4.686   5.081  0.1114  0.0121 -1.2003
  131OSM   H16T14166   6.840   4.723   5.058  1.8595  1.4700  0.0085
  131OSM   C17S14167   6.892   4.532   4.969  0.4566 -1.0388 -0.5998
  131OSM   H17S14168   6.808   4.464   4.996  1.0777 -1.3650  0.5990
  131OSM   H17T14169   6.986   4.474   4.983  1.0931 -0.8219 -3.5256
  131OSM   C18S14170   6.889   4.591   4.832  0.3662 -0.0756  0.2770
  131OSM   H18S14171   6.872   4.519   4.749 -3.2210  1.8289 -0.8998
  131OSM   H18T14172   6.976   4.657   4.814  0.4276 -0.9076 -3.2962
  131OSM   H18U14173   6.806   4.665   4.824 -0.3532 -1.0145 -1.7394
  131OSM    C1F14174   6.284   4.652   6.345 -0.7992  0.4206 -0.2115
  131OSM     OF14175   6.204   4.733   6.389  0.5169 -0.3535  0.3043
  131OSM    C2F14176   6.258   4.579   6.218 -0.7457  1.2456  0.2502
  131OSM    H2F14177   6.212   4.483   6.248 -0.3539  1.6902  2.4699
  131OSM    H2G14178   6.358   4.563   6.172 -1.5561 -0.2645 -1.1109
  131OSM    C3F14179   6.177   4.671   6.131  0.6079  0.0428  0.1832
  131OSM    H3F14180   6.215   4.775   6.138  0.6025  0.1998 -1.6224
  131OSM    H3G14181   6.071   4.665   6.164  0.9471 -2.3121  1.0400
  131OSM    C4F14182   6.174   4.628   5.977 -0.1081 -0.3752  0.1336
  131OSM    H4F14183   6.116   4.701   5.917 -0.0805 -0.0488  0.4970
  131OSM    H4G14184   6.126   4.528   5.974  1.0597 -0.9826  0.8685
  131OSM    C5F14185   6.312   4.627   5.913  0.0551  0.0720 -0.3616
  131OSM    H5F14186   6.382   4.554   5.959 -1.4738 -1.5920 -0.5781
  131OSM    H5G14187   6.368   4.722   5.929 -1.2183  0.5146  1.8572
  131OSM    C6F14188   6.317   4.600   5.764 -0.0918  0.5288  0.4282
  131OSM    H6F14189   6.417   4.630   5.727 -0.5849 -1.3881 -2.8333
  131OSM    H6G14190   6.237   4.659   5.715 -1.6484 -1.3567  0.5787
  131OSM    C7F14191   6.288   4.451   5.739  0.4956 -0.4642 -0.2065
  131OSM    H7F14192   6.194   4.416   5.786  0.8611 -0.1786  0.7662
  131OSM    H7G14193   6.361   4.384   5.789  1.3529  1.4667  1.2699
  131OSM    C8F14194   6.279   4.422   5.592  0.3967  0.3382  0.1646
  131OSM    H8F14195   6.206   4.485   5.537 -0.1027 -2.8824 -3.2781
  131OSM    H8G14196   6.257   4.313   5.589  0.2831  0.3721 -0.2770
  131OSM    C9F14197   6.401   4.445   5.510 -0.5637 -0.6387  0.4044
  131OSM    H9F14198   6.438   4.549   5.514 -2.6712  0.2038 -0.3319
  131OSM   C10F14199   6.474   4.354   5.441  0.5500  0.2672  0.1707
  131OSM   H10F14200   6.568   4.383   5.393 -0.7709  1.3314 -1.8981
  131OSM   C11F14201   6.424   4.217   5.417  0.3477  0.0748 -0.3770
  131OSM   H11F14202   6.318   4.200   5.446  0.0213 -0.3600 -1.7675
  131OSM   H11G14203   6.491   4.137   5.457 -0.1606 -0.7445 -1.1334
  131OSM   C12F14204   6.447   4.179   5.269 -0.6886 -0.6843 -0.2440
  131OSM   H12F14205   6.551   4.200   5.234 -0.6829 -1.1142 -0.4957
  131OSM   H12G14206   6.366   4.235   5.218 -1.2844 -1.7282 -0.4620
  131OSM   C13F14207   6.423   4.032   5.248 -0.3852 -0.5393  0.0413
  131OSM   H13F14208   6.319   4.022   5.286 -0.9137 -0.0250 -1.2156
  131OSM   H13G14209   6.491   3.964   5.304  0.5641 -0.7243 -1.2768
  131OSM   C14F14210   6.397   4.012   5.099  0.2863  0.3013  0.0831
  131OSM   H14F14211   6.491   4.023   5.040  0.5365  0.6671  0.5438
  131OSM   H14G14212   6.332   4.100   5.076  1.0011  1.3848  1.9602
  131OSM   C15F14213   6.317   3.887   5.055  0.5797  0.5177  0.3064
  131OSM   H15F14214   6.307   3.877   4.945  0.2934 -2.1289  0.4895
  131OSM   H15G14215   6.216   3.906   5.098  0.9077  0.0347  1.3243
  131OSM   C16F14216   6.370   3.753   5.119 -0.7478  0.0604 -0.7536
  131OSM   H16F14217   6.309   3.666   5.086 -0.7638 -0.6716  1.0777
  131OSM   H16G14218   6.350   3.742   5.228 -0.9421  2.5921 -0.4807
  131OSM   C17F14219   6.520   3.736   5.078  0.0360  0.0206 -0.5666
  131OSM   H17F14220   6.556   3.640   5.120 -0.9381  0.0470  0.3633
  131OSM   H17G14221   6.580   3.810   5.134 -0.9455  0.3779  0.0255
  131OSM   C18F14222   6.542   3.722   4.924  0.2901 -0.5475  0.4656
  131OSM   H18F14223   6.645   3.686   4.904  0.5802  0.5106 -0.0509
  131OSM   H18G14224   6.539   3.826   4.884  2.7897 -0.5916 -0.0003
  131OSM   H18H14225   6.466   3.652   4.884 -0.3960 -0.3325  1.3599
  132OSM      N14226   1.063   5.964   7.060 -0.1749  0.8894  0.0781
  132OSM    C1514227   0.980   5.899   7.169 -0.8406 -0.8368 -0.1636
  132OSM   H15A14228   0.915   5.970   7.219 -3.3801 -1.7221 -1.9916
  132OSM   H15B14229   1.048   5.861   7.243  0.4264 -0.8732 -1.3212
  132OSM   H15C14230   0.913   5.821   7.136 -0.1227 -1.2387 -0.6940
  132OSM    C1414231   1.130   6.076   7.118  0.0354  0.4385 -0.2215
  132OSM   H14A14232   1.176   6.039   7.209  1.0680 -0.8701 -1.2234
  132OSM   H14B14233   1.054   6.145   7.151  0.8907  1.0261  0.5639
  132OSM   H14C14234   1.200   6.120   7.048  1.2151 -1.3769 -0.2568
  132OSM    C1314235   1.164   5.868   7.010  0.1649  0.3196  1.1372
  132OSM   H13A14236   1.205   5.911   6.920 -0.1740 -1.8327 -0.1279
  132OSM   H13B14237   1.122   5.770   6.991  1.6537 -0.6347  2.4160
  132OSM   H13C14238   1.242   5.842   7.081  2.8108 -2.7697 -2.4683
  132OSM    C1214239   0.972   6.017   6.952 -0.3941  0.4238 -0.3995
  132OSM   H12A14240   0.891   6.077   6.990 -0.0583  1.0749 -0.6970
  132OSM   H12B14241   0.923   5.929   6.912  0.4689  0.5567 -1.8289
  132OSM    C1114242   1.036   6.079   6.828  0.2029 -0.0818  0.1384
  132OSM   H11A14243   0.959   6.099   6.751  0.9435  0.3066 -0.5178
  132OSM   H11B14244   1.110   6.015   6.775  1.3624  1.7521 -0.5701
  132OSM      P14245   1.045   6.345   6.850  0.4812 -0.1124  0.2194
  132OSM    O1314246   0.903   6.353   6.892 -0.1532  0.4869 -0.6125
  132OSM    O1414247   1.140   6.438   6.926 -0.3589  0.4869 -0.2272
  132OSM    O1114248   1.058   6.365   6.697 -0.0466 -0.2017  0.1209
  132OSM    O1214249   1.104   6.197   6.862  0.4366  0.2286  0.0430
  132OSM    C1S14250   0.936   6.341   6.615 -0.2968 -0.5614  0.1224
  132OSM    H1S14251   0.865   6.427   6.624 -0.8532 -0.9310 -0.5798
  132OSM    H1T14252   0.878   6.251   6.646 -0.6207 -0.1718  0.6665
  132OSM     NF14253   0.844   6.307   6.376  0.0194 -0.1085 -0.2924
  132OSM    HNF14254   0.816   6.218   6.341 -0.6062  0.2910 -0.8163
  132OSM    C2S14255   0.966   6.320   6.456 -0.3121 -0.0337  0.3008
  132OSM    H2S14256   1.028   6.405   6.419 -0.5182  0.2279  0.5580
  132OSM    C3S14257   1.072   6.204   6.447 -0.0668 -0.2269 -0.5152
  132OSM    H3S14258   1.020   6.110   6.476  0.1592  0.1075  1.0732
  132OSM     O314259   1.188   6.217   6.532 -0.4911 -0.3959 -0.0741
  132OSM    HO314260   1.168   6.294   6.587  0.3096  0.5468 -1.0418
  132OSM    C4S14261   1.102   6.184   6.301 -0.2318  0.1174  0.6841
  132OSM    H4S14262   1.027   6.126   6.245 -0.4380  0.9136  0.1248
  132OSM    C5S14263   1.210   6.227   6.232 -0.2109 -0.7094 -0.2531
  132OSM    H5S14264   1.287   6.281   6.289 -1.3948 -0.2108  0.9256
  132OSM    C6S14265   1.236   6.212   6.087  0.5116 -1.1608  0.4125
  132OSM    H6S14266   1.322   6.144   6.069  0.0804 -2.0156  1.4836
  132OSM    H6T14267   1.258   6.314   6.050  0.1146 -1.6224 -1.2076
  132OSM    C7S14268   1.128   6.152   6.001  0.4285  0.4392  0.0489
  132OSM    H7S14269   1.047   6.228   5.998  0.9241  0.9633 -0.0797
  132OSM    H7T14270   1.092   6.055   6.042 -1.1197  0.2119 -1.6768
  132OSM    C8S14271   1.183   6.134   5.860  0.3823  0.1568 -0.1649
  132OSM    H8S14272   1.235   6.035   5.859  0.0638 -0.0238  0.5754
  132OSM    H8T14273   1.252   6.219   5.842 -2.1400  1.9904 -1.6842
  132OSM    C9S14274   1.078   6.138   5.745 -0.2332 -0.3525  0.0255
  132OSM    H9S14275   1.014   6.227   5.762  3.0566  2.2173 -0.0686
  132OSM    H9T14276   1.010   6.050   5.743 -0.9575  0.2168 -1.1743
  132OSM   C10S14277   1.137   6.153   5.605  0.8947  0.1358  0.1652
  132OSM   H10S14278   1.217   6.078   5.587  0.4467 -0.1503 -0.7273
  132OSM   H10T14279   1.187   6.252   5.603  1.5829 -0.0327  3.6505
  132OSM   C11S14280   1.034   6.135   5.490 -0.5852 -0.2017 -0.2587
  132OSM   H11S14281   0.947   6.201   5.510  0.4980  1.3008 -0.2959
  132OSM   H11T14282   0.988   6.036   5.509 -1.6394  0.0042 -1.5757
  132OSM   C12S14283   1.091   6.146   5.344  0.3668 -0.6870 -0.3483
  132OSM   H12S14284   1.184   6.085   5.343  0.5133 -0.4586 -1.6561
  132OSM   H12T14285   1.129   6.249   5.329 -0.0605 -0.2160  1.5107
  132OSM   C13S14286   0.991   6.100   5.239 -0.6277  0.2813 -0.1282
  132OSM   H13S14287   0.884   6.131   5.249 -1.5098 -1.3996 -3.1217
  132OSM   H13T14288   0.968   5.992   5.245  2.5842 -0.7788 -3.6469
  132OSM   C14S14289   1.036   6.120   5.100  0.6542 -0.5832  0.1428
  132OSM   H14S14290   1.110   6.038   5.086  0.7388 -0.5195  0.2173
  132OSM   H14T14291   1.081   6.222   5.095 -2.6611  1.1751  2.1906
  132OSM   C15S14292   0.912   6.118   5.010  0.6918  0.2900 -0.3416
  132OSM   H15S14293   0.933   6.149   4.905 -0.9315  1.1333 -0.4340
  132OSM   H15T14294   0.841   6.187   5.059  1.1190 -0.6932  1.7691
  132OSM   C16S14295   0.821   5.988   5.000  0.4301  0.1442 -0.3517
  132OSM   H16S14296   0.786   5.968   5.103  0.0335  1.1331 -0.2801
  132OSM   H16T14297   0.881   5.905   4.958  0.8382 -0.5569  1.5008
  132OSM   C17S14298   0.695   6.023   4.915 -0.4311 -0.3139 -1.0454
  132OSM   H17S14299   0.744   6.020   4.815 -1.2245 -0.8532 -1.4243
  132OSM   H17T14300   0.658   6.126   4.938  0.7129 -0.0511 -0.2941
  132OSM   C18S14301   0.580   5.926   4.923 -0.6158  0.0335  0.4049
  132OSM   H18S14302   0.619   5.827   4.891  0.3235  0.9222 -1.3588
  132OSM   H18T14303   0.499   5.956   4.854  0.7551 -1.9812 -2.2610
  132OSM   H18U14304   0.545   5.904   5.026  0.9074 -1.4251  0.6638
  132OSM    C1F14305   0.770   6.409   6.352  0.2302 -0.4261 -0.4142
  132OSM     OF14306   0.803   6.525   6.377 -0.8182  0.0831 -0.0806
  132OSM    C2F14307   0.636   6.383   6.297  0.1579 -0.6293 -0.0847
  132OSM    H2F14308   0.579   6.455   6.361 -1.6700 -2.5294  0.5572
  132OSM    H2G14309   0.602   6.279   6.316 -0.5276 -0.3386  0.3428
  132OSM    C3F14310   0.615   6.407   6.146 -0.4117  0.5729  0.1912
  132OSM    H3F14311   0.627   6.512   6.114 -1.4864  0.1639 -1.7032
  132OSM    H3G14312   0.508   6.388   6.123 -0.2644 -1.8001  1.1482
  132OSM    C4F14313   0.709   6.327   6.059 -0.6944 -0.1571 -0.3890
  132OSM    H4F14314   0.708   6.217   6.070 -4.0620 -0.0602  1.4920
  132OSM    H4G14315   0.811   6.352   6.096  0.9546 -3.8551 -1.9390
  132OSM    C5F14316   0.711   6.372   5.908  0.2436 -0.0453  0.0585
  132OSM    H5F14317   0.781   6.297   5.866  1.2105  1.9370 -2.1019
  132OSM    H5G14318   0.751   6.474   5.892  1.3347 -0.6435 -1.1978
  132OSM    C6F14319   0.575   6.351   5.836 -0.5603  0.9674  0.1421
  132OSM    H6F14320   0.505   6.427   5.878 -2.5318 -0.7018  0.0266
  132OSM    H6G14321   0.539   6.247   5.853  1.5566  0.0205 -0.8998
  132OSM    C7F14322   0.589   6.364   5.681  0.1729  0.1687  0.6604
  132OSM    H7F14323   0.642   6.275   5.641 -3.4461 -0.9951 -2.0495
  132OSM    H7G14324   0.635   6.461   5.653 -0.4362  0.3290  0.2138
  132OSM    C8F14325   0.453   6.362   5.612  0.6002 -0.9191  0.1870
  132OSM    H8F14326   0.407   6.265   5.642 -0.7476  0.0310  1.3465
  132OSM    H8G14327   0.464   6.378   5.503 -2.8435 -1.1508 -0.3071
  132OSM    C9F14328   0.354   6.471   5.663 -0.0108  0.4060  0.4970
  132OSM    H9F14329   0.315   6.464   5.766 -2.7665 -2.0230 -0.5712
  132OSM   C10F14330   0.308   6.580   5.591 -0.5489  0.5631 -0.8687
  132OSM   H10F14331   0.220   6.632   5.631  0.1358  1.1776 -0.1305
  132OSM   C11F14332   0.355   6.630   5.452 -0.0658 -0.1885 -0.1298
  132OSM   H11F14333   0.280   6.613   5.372  0.3728  1.7544 -1.0022
  132OSM   H11G14334   0.460   6.597   5.436 -0.0292  0.7455 -2.1171
  132OSM   C12F14335   0.364   6.779   5.464 -0.1234 -0.0147  0.0935
  132OSM   H12F14336   0.434   6.806   5.546  0.0380  2.2387 -0.7312
  132OSM   H12G14337   0.266   6.825   5.487 -0.7118 -0.5449 -1.2280
  132OSM   C13F14338   0.418   6.847   5.336 -1.3642 -0.5074 -0.5962
  132OSM   H13F14339   0.519   6.802   5.323 -0.6420  1.1156 -0.8272
  132OSM   H13G14340   0.428   6.957   5.342  1.5339 -0.4613 -3.3612
  132OSM   C14F14341   0.337   6.822   5.206  0.5877 -0.3549 -0.0454
  132OSM   H14F14342   0.229   6.836   5.229 -0.2192 -1.4788 -2.8237
  132OSM   H14G14343   0.326   6.715   5.180  1.7242 -0.8304  1.2823
  132OSM   C15F14344   0.405   6.899   5.090  0.4626  0.0032 -0.0173
  132OSM   H15F14345   0.510   6.864   5.079  0.9078  0.8951  1.1331
  132OSM   H15G14346   0.416   7.007   5.117  1.2368 -0.2096  0.5751
  132OSM   C16F14347   0.325   6.891   4.960  0.1501  0.5134  0.3451
  132OSM   H16F14348   0.216   6.910   4.976  0.1997  1.6171 -0.4951
  132OSM   H16G14349   0.338   6.792   4.911  4.0705  2.2312 -2.6257
  132OSM   C17F14350   0.381   6.988   4.857 -0.3227 -0.7478 -0.1616
  132OSM   H17F14351   0.489   6.963   4.849 -0.0379  0.5996 -0.7960
  132OSM   H17G14352   0.373   7.093   4.893 -0.9729 -0.7575 -0.2675
  132OSM   C18F14353   0.315   6.983   4.719 -0.4439  0.7470 -0.9807
  132OSM   H18F14354   0.356   7.068   4.659  0.9180  0.9590  0.1955
  132OSM   H18G14355   0.205   6.980   4.733 -0.4723  0.7927 -1.1956
  132OSM   H18H14356   0.344   6.891   4.665  2.9156 -0.4123  2.3390
  133OSM      N14357   3.316   0.295   7.728 -0.5526  0.5686  0.1607
  133OSM    C1514358   3.301   0.391   7.833 -0.4838  0.1022  0.8403
  133OSM   H15A14359   3.273   0.351   7.929  2.5572 -0.1352  1.7597
  133OSM   H15B14360   3.240   0.476   7.807  0.2140  0.6379  0.9332
  133OSM   H15C14361   3.402   0.428   7.847  0.4549 -1.6730 -0.5932
  133OSM    C1414362   3.387   0.168   7.777 -0.5470  0.0849  0.4908
  133OSM   H14A14363   3.440   0.114   7.700  0.0477  0.6541  0.4924
  133OSM   H14B14364   3.310   0.104   7.815 -1.5659  1.4120  0.7407
  133OSM   H14C14365   3.464   0.187   7.851  0.6368 -0.3376 -0.5935
  133OSM    C1314366   3.183   0.246   7.680 -1.1612 -0.2291 -0.3783
  133OSM   H13A14367   3.207   0.161   7.617 -1.0798 -0.2097 -0.3734
  133OSM   H13B14368   3.130   0.328   7.635  1.1106  0.6087 -1.7295
  133OSM   H13C14369   3.134   0.209   7.769  0.1361 -0.3328  0.3260
  133OSM    C1214370   3.392   0.356   7.610  0.1073  0.3502 -0.0471
  133OSM   H12A14371   3.487   0.397   7.641  0.4676 -1.8258  2.0768
  133OSM   H12B14372   3.332   0.436   7.570  0.4167  1.0787  0.8897
  133OSM    C1114373   3.438   0.247   7.508  0.1280 -0.4417 -0.4917
  133OSM   H11A14374   3.454   0.292   7.407  1.7546 -0.9107 -0.4741
  133OSM   H11B14375   3.356   0.176   7.484  0.1239 -0.3043 -0.8977
  133OSM      P14376   3.698   0.243   7.532 -0.0301  0.2794  0.3637
  133OSM    O1314377   3.708   0.339   7.648  0.0657  0.3720 -0.1711
  133OSM    O1414378   3.801   0.140   7.519 -0.4199  0.1238 -0.2809
  133OSM    O1114379   3.688   0.327   7.403 -0.2722  0.4731  0.2645
  133OSM    O1214380   3.552   0.174   7.542 -0.2724 -0.0791 -0.6296
  133OSM    C1S14381   3.767   0.317   7.286  0.3838  0.1992 -0.5050
  133OSM    H1S14382   3.814   0.217   7.276  0.3165  0.0962  0.1284
  133OSM    H1T14383   3.848   0.392   7.300 -1.7063  2.4354  0.2615
  133OSM     NF14384   3.764   0.306   7.028 -0.8537  0.1811  0.3206
  133OSM    HNF14385   3.831   0.364   6.983  0.6106 -1.1770  0.6544
  133OSM    C2S14386   3.694   0.348   7.150  0.1333  0.1674  1.3568
  133OSM    H2S14387   3.602   0.287   7.148  1.4768 -2.0060 -1.6637
  133OSM    C3S14388   3.645   0.499   7.151 -0.1158 -0.1234 -0.2243
  133OSM    H3S14389   3.729   0.568   7.174 -2.5679  2.5292  1.4124
  133OSM     O314390   3.565   0.517   7.264  0.1348  0.0288  0.3140
  133OSM    HO314391   3.590   0.434   7.307  0.4150  0.6602  1.4111
  133OSM    C4S14392   3.585   0.535   7.024  0.6551 -0.0242 -0.4999
  133OSM    H4S14393   3.490   0.484   6.999  0.9991  0.0063 -1.9410
  133OSM    C5S14394   3.648   0.617   6.940 -0.6727  0.5602  0.1650
  133OSM    H5S14395   3.751   0.648   6.961  1.7560 -4.3605 -2.5426
  133OSM    C6S14396   3.590   0.642   6.802 -0.0856 -0.5720  0.2847
  133OSM    H6S14397   3.562   0.749   6.801  0.8005 -0.2918  1.7973
  133OSM    H6T14398   3.491   0.591   6.794 -0.9984  1.0820  0.7192
  133OSM    C7S14399   3.677   0.598   6.688 -0.0668 -0.2190 -0.2369
  133OSM    H7S14400   3.676   0.487   6.695  3.0011 -0.2941  0.3356
  133OSM    H7T14401   3.779   0.642   6.695  0.1221 -0.9638  2.5459
  133OSM    C8S14402   3.605   0.644   6.558 -0.4865 -0.0090 -0.2269
  133OSM    H8S14403   3.571   0.749   6.572 -0.0462 -0.2960  4.4749
  133OSM    H8T14404   3.510   0.588   6.548 -0.9460  0.8939 -1.0347
  133OSM    C9S14405   3.680   0.617   6.433  0.6823 -0.3899 -0.4877
  133OSM    H9S14406   3.713   0.511   6.442 -0.0884 -0.7241 -1.4843
  133OSM    H9T14407   3.759   0.694   6.422  0.1143  0.0192 -1.8772
  133OSM   C10S14408   3.589   0.645   6.313 -0.0534  0.6627  0.9479
  133OSM   H10S14409   3.544   0.747   6.318  0.4669  1.0955 -1.7430
  133OSM   H10T14410   3.498   0.583   6.304 -1.6231  3.1256 -2.9317
  133OSM   C11S14411   3.671   0.626   6.182  0.3446 -0.2198 -0.6463
  133OSM   H11S14412   3.700   0.520   6.163  0.3200 -0.7216  1.8671
  133OSM   H11T14413   3.761   0.689   6.201  0.4354 -0.8580  1.1409
  133OSM   C12S14414   3.604   0.685   6.064  0.4766 -0.1916  0.0447
  133OSM   H12S14415   3.570   0.789   6.081  0.8491 -0.4550  2.8255
  133OSM   H12T14416   3.523   0.611   6.045  0.7439 -0.2398 -0.9644
  133OSM   C13S14417   3.693   0.684   5.934 -0.2303  0.0895 -0.3376
  133OSM   H13S14418   3.714   0.576   5.917 -1.0738 -0.0354 -0.6716
  133OSM   H13T14419   3.783   0.745   5.956 -1.0111  0.9751  0.5345
  133OSM   C14S14420   3.627   0.732   5.812  0.1451 -0.5189  0.7527
  133OSM   H14S14421   3.594   0.837   5.799 -0.5074 -0.6684  1.1386
  133OSM   H14T14422   3.534   0.672   5.800  0.9031 -1.3410 -1.6582
  133OSM   C15S14423   3.715   0.705   5.689  0.8955  0.4018  0.3985
  133OSM   H15S14424   3.750   0.599   5.685 -0.4849 -0.1895  2.3148
  133OSM   H15T14425   3.796   0.780   5.677  0.8257  0.6235  1.2730
  133OSM   C16S14426   3.626   0.722   5.559 -0.3357  0.2813 -0.7429
  133OSM   H16S14427   3.589   0.826   5.548 -0.2633  0.3785 -0.0940
  133OSM   H16T14428   3.533   0.661   5.560  0.7185 -1.3662 -0.4431
  133OSM   C17S14429   3.705   0.693   5.426 -0.0495  0.4445 -1.2745
  133OSM   H17S14430   3.643   0.643   5.348  0.4603 -0.3597 -1.1800
  133OSM   H17T14431   3.786   0.625   5.460 -1.7994 -1.1613 -0.1421
  133OSM   C18S14432   3.756   0.830   5.378  0.0107  0.6397 -0.3970
  133OSM   H18S14433   3.677   0.905   5.398 -0.0111  0.1413  1.6219
  133OSM   H18T14434   3.781   0.828   5.270  1.1299 -0.0638 -0.1514
  133OSM   H18U14435   3.851   0.849   5.433  0.2882  0.2546 -0.7402
  133OSM    C1F14436   3.781   0.176   7.014 -0.6050  0.3874  0.1987
  133OSM     OF14437   3.739   0.089   7.088  0.8417  0.3317  0.8911
  133OSM    C2F14438   3.872   0.142   6.888  0.4801  0.7373  0.0708
  133OSM    H2F14439   3.886   0.032   6.894  0.8618  0.7111 -1.0913
  133OSM    H2G14440   3.969   0.193   6.906  1.4056 -1.0121  0.2379
  133OSM    C3F14441   3.812   0.177   6.754  0.8786 -0.1254 -0.1119
  133OSM    H3F14442   3.782   0.284   6.754 -2.6074 -0.9816 -0.9724
  133OSM    H3G14443   3.712   0.131   6.740  1.8777 -2.4517 -0.1626
  133OSM    C4F14444   3.900   0.158   6.630 -0.5353  0.5410  0.5351
  133OSM    H4F14445   3.916   0.050   6.610  1.7994  1.2064 -1.8294
  133OSM    H4G14446   3.998   0.207   6.645  0.2570 -0.9020  0.2181
  133OSM    C5F14447   3.835   0.216   6.499 -0.1881  0.1703 -0.1917
  133OSM    H5F14448   3.807   0.323   6.506  0.4219  0.4605 -1.7899
  133OSM    H5G14449   3.755   0.150   6.460  1.9073 -2.3483 -0.4927
  133OSM    C6F14450   3.928   0.219   6.378  0.4425  0.1691 -0.6108
  133OSM    H6F14451   3.968   0.120   6.346 -0.2490 -0.4042  0.2521
  133OSM    H6G14452   4.009   0.286   6.414 -0.7491  0.2552  2.1428
  133OSM    C7F14453   3.864   0.284   6.255  0.3476 -0.8668  0.2606
  133OSM    H7F14454   3.858   0.392   6.281  1.9781 -1.2630  2.5364
  133OSM    H7G14455   3.759   0.253   6.238 -1.2283  1.9607  3.6304
  133OSM    C8F14456   3.944   0.273   6.125  0.0547  0.3629 -0.6917
  133OSM    H8F14457   4.049   0.297   6.150 -0.0333 -1.7830  2.4788
  133OSM    H8G14458   3.904   0.347   6.053  0.4027  0.3530 -0.8932
  133OSM    C9F14459   3.927   0.128   6.069 -0.2071  0.3541  0.1671
  133OSM    H9F14460   3.980   0.042   6.113 -0.2817 -1.5387 -3.0760
  133OSM   C10F14461   3.840   0.084   5.969  0.7706  0.1182  0.8438
  133OSM   H10F14462   3.836  -0.024   5.949  2.1382 -0.2503  2.3471
  133OSM   C11F14463   3.742   0.167   5.900  0.1174  0.9709  0.0821
  133OSM   H11F14464   3.756   0.274   5.926  3.2922  0.5649  0.4114
  133OSM   H11G14465   3.640   0.141   5.937  0.0620  0.1228 -0.6286
  133OSM   C12F14466   3.736   0.165   5.747 -0.0326  0.0495 -0.1255
  133OSM   H12F14467   3.733   0.055   5.732  3.2636 -0.4605  1.7998
  133OSM   H12G14468   3.830   0.198   5.697 -0.4910  0.4893 -0.6974
  133OSM   C13F14469   3.621   0.235   5.682 -0.3734  0.0092  0.0250
  133OSM   H13F14470   3.602   0.324   5.745  0.5940 -0.2188  0.6510
  133OSM   H13G14471   3.526   0.176   5.677  0.0752 -0.8841  1.5061
  133OSM   C14F14472   3.659   0.286   5.539 -0.0996  0.8499  0.2945
  133OSM   H14F14473   3.666   0.200   5.469 -2.2387 -1.5368  2.7800
  133OSM   H14G14474   3.756   0.340   5.546 -0.1657  0.9749  0.2517
  133OSM   C15F14475   3.541   0.370   5.492 -0.2103 -0.2979  0.4828
  133OSM   H15F14476   3.578   0.433   5.408 -0.3764 -0.9275 -0.0686
  133OSM   H15G14477   3.505   0.420   5.585  2.7710 -0.1558  1.6573
  133OSM   C16F14478   3.424   0.293   5.448 -0.2428 -0.5485  0.4441
  133OSM   H16F14479   3.380   0.242   5.536 -1.5809  0.4360  0.3783
  133OSM   H16G14480   3.469   0.223   5.375  0.8622 -1.0483  1.5740
  133OSM   C17F14481   3.316   0.384   5.387 -0.1428 -0.0620  0.0484
  133OSM   H17F14482   3.245   0.312   5.340 -1.3164  1.0143  0.1077
  133OSM   H17G14483   3.356   0.438   5.299 -1.1686 -0.6286 -0.7997
  133OSM   C18F14484   3.253   0.482   5.489  0.4293 -0.5450  0.0838
  133OSM   H18F14485   3.212   0.429   5.577  0.8910 -0.1698  0.5318
  133OSM   H18G14486   3.162   0.530   5.445  0.5373 -2.3360 -2.2887
  133OSM   H18H14487   3.320   0.564   5.524 -0.5923  0.0322  0.7354
  134OSM      N14488   4.711   5.322   7.334 -0.2100 -0.0802 -0.0508
  134OSM    C1514489   4.737   5.223   7.231 -0.7039  0.3454 -0.4231
  134OSM   H15A14490   4.788   5.137   7.272 -0.8818 -0.0131 -0.9504
  134OSM   H15B14491   4.805   5.264   7.158  0.6037  0.7298  0.9687
  134OSM   H15C14492   4.647   5.202   7.175 -1.9836 -0.0554  1.6587
  134OSM    C1414493   4.600   5.278   7.426 -0.1983 -0.2614 -0.0936
  134OSM   H14A14494   4.639   5.191   7.477  2.2648  0.2026 -1.0875
  134OSM   H14B14495   4.508   5.258   7.373  0.1130  0.4106 -0.9132
  134OSM   H14C14496   4.576   5.347   7.506 -0.0777 -1.9170  1.4214
  134OSM    C1314497   4.839   5.344   7.411  0.5332 -0.1558 -0.1601
  134OSM   H13A14498   4.826   5.421   7.485  0.5352 -2.9130  2.9952
  134OSM   H13B14499   4.902   5.375   7.330 -1.3833  0.1182 -1.6155
  134OSM   H13C14500   4.866   5.253   7.463  2.1004  0.7840  0.7682
  134OSM    C1214501   4.647   5.440   7.253 -0.6500 -0.2791  0.3047
  134OSM   H12A14502   4.620   5.515   7.326  2.1736 -0.6245  1.8423
  134OSM   H12B14503   4.553   5.398   7.220 -1.0363 -0.5389  1.6460
  134OSM    C1114504   4.723   5.512   7.134 -0.7377 -0.0031  0.3683
  134OSM   H11A14505   4.650   5.578   7.082 -0.5767  0.7356  1.0611
  134OSM   H11B14506   4.760   5.437   7.061 -2.1142 -1.1287  0.7844
  134OSM      P14507   4.858   5.736   7.165  0.1556 -0.2470  0.2246
  134OSM    O1314508   4.769   5.795   7.274 -0.3844 -0.2370  0.1881
  134OSM    O1414509   4.997   5.778   7.165  0.8480 -0.0310 -0.4411
  134OSM    O1114510   4.799   5.771   7.022 -0.3183  0.4562 -0.2119
  134OSM    O1214511   4.839   5.582   7.171  0.5672  0.1833  0.1785
  134OSM    C1S14512   4.876   5.756   6.901 -0.0447 -0.4127  0.0431
  134OSM    H1S14513   4.951   5.675   6.892  0.1226 -0.1714 -0.9276
  134OSM    H1T14514   4.936   5.847   6.880  3.2372 -2.1266  1.3270
  134OSM     NF14515   4.881   5.735   6.659 -0.3150  0.2238 -0.0912
  134OSM    HNF14516   4.924   5.821   6.634  2.0405 -1.0980 -0.8752
  134OSM    C2S14517   4.787   5.743   6.773 -0.0927  0.1612 -0.6462
  134OSM    H2S14518   4.720   5.654   6.770 -1.2189  0.7527  2.5694
  134OSM    C3S14519   4.680   5.864   6.781 -0.3970  0.7131  0.4110
  134OSM    H3S14520   4.729   5.960   6.810  0.1282  0.7109 -0.4216
  134OSM     O314521   4.581   5.842   6.876 -0.3684 -0.6319 -0.3697
  134OSM    HO314522   4.619   5.772   6.930 -2.0617 -1.0268  0.3986
  134OSM    C4S14523   4.612   5.879   6.642 -0.6859 -0.5003 -0.0584
  134OSM    H4S14524   4.521   5.820   6.628 -1.3249  0.6333 -0.8378
  134OSM    C5S14525   4.662   5.957   6.549  0.5852 -0.0230  0.0740
  134OSM    H5S14526   4.748   6.021   6.574  1.2220 -0.9263  0.2218
  134OSM    C6S14527   4.597   5.975   6.408 -0.5571  0.4516  0.0694
  134OSM    H6S14528   4.545   6.073   6.405 -0.0759  0.8019  1.7732
  134OSM    H6T14529   4.509   5.910   6.391 -0.1089 -0.3007  0.5619
  134OSM    C7S14530   4.695   5.932   6.290 -0.4508 -0.3535  0.5416
  134OSM    H7S14531   4.724   5.826   6.306  0.5240 -0.6033 -2.2719
  134OSM    H7T14532   4.789   5.990   6.303 -0.1781 -0.9171  1.1892
  134OSM    C8S14533   4.645   5.934   6.143 -0.0564 -0.0313 -0.1227
  134OSM    H8S14534   4.569   5.853   6.129 -0.1842  0.0893 -0.1318
  134OSM    H8T14535   4.724   5.907   6.071  1.4108 -0.8770  1.7141
  134OSM    C9S14536   4.569   6.058   6.112 -0.2475  0.1271  0.4634
  134OSM    H9S14537   4.644   6.137   6.130 -1.3317  0.9901  1.3079
  134OSM    H9T14538   4.484   6.082   6.180 -0.4825  2.0454 -0.4519
  134OSM   C10S14539   4.524   6.066   5.965  0.4205 -0.3006  0.4827
  134OSM   H10S14540   4.467   5.973   5.944 -0.6697 -0.2787  3.0116
  134OSM   H10T14541   4.609   6.067   5.893 -0.2625 -3.0750 -0.4838
  134OSM   C11S14542   4.441   6.195   5.944  0.1601  0.2096  0.2204
  134OSM   H11S14543   4.481   6.280   6.004  0.7515 -0.7979  1.2859
  134OSM   H11T14544   4.340   6.177   5.986 -0.5889  1.1445 -1.1245
  134OSM   C12S14545   4.419   6.241   5.798  0.2341  0.4936  0.5752
  134OSM   H12S14546   4.518   6.237   5.747 -0.7661 -0.5693 -1.3767
  134OSM   H12T14547   4.395   6.349   5.792  1.9624  0.8846  0.2398
  134OSM   C13S14548   4.314   6.158   5.724 -0.1603  0.6086 -0.4277
  134OSM   H13S14549   4.224   6.147   5.788  0.0026 -2.6791 -0.6142
  134OSM   H13T14550   4.364   6.059   5.716  0.9993  0.8110  2.7326
  134OSM   C14S14551   4.281   6.204   5.581  0.3356 -0.8004  0.3970
  134OSM   H14S14552   4.373   6.230   5.523 -0.9159  0.5280 -1.0977
  134OSM   H14T14553   4.221   6.297   5.588 -1.0742 -1.8350  3.8140
  134OSM   C15S14554   4.197   6.107   5.501 -0.6852 -0.2696 -0.9820
  134OSM   H15S14555   4.100   6.097   5.554 -0.7000  2.6670 -0.3215
  134OSM   H15T14556   4.245   6.006   5.497 -1.5653 -0.7115 -0.6282
  134OSM   C16S14557   4.165   6.150   5.355 -0.3703  0.4815  0.9304
  134OSM   H16S14558   4.250   6.184   5.291 -1.4800 -0.2622 -1.0306
  134OSM   H16T14559   4.111   6.246   5.368  0.5667  1.2525 -0.5390
  134OSM   C17S14560   4.069   6.048   5.276  0.3060 -0.9678 -0.4554
  134OSM   H17S14561   3.988   6.014   5.344  0.0676  0.3688 -0.0410
  134OSM   H17T14562   4.114   5.954   5.238 -0.2725 -1.3274 -0.2524
  134OSM   C18S14563   3.992   6.112   5.164 -0.0277  0.0722  0.0463
  134OSM   H18S14564   3.911   6.181   5.196 -3.2316 -2.1392 -2.6122
  134OSM   H18T14565   3.951   6.033   5.098  2.0704 -1.4564  0.4702
  134OSM   H18U14566   4.056   6.180   5.105 -1.8288  1.3036 -0.5589
  134OSM    C1F14567   4.944   5.620   6.628 -0.1078  0.0555 -0.2113
  134OSM     OF14568   4.905   5.514   6.679  0.0531 -0.2006 -0.0272
  134OSM    C2F14569   5.055   5.631   6.517  0.7787 -1.1258 -0.4513
  134OSM    H2F14570   5.157   5.644   6.561  1.0055 -0.3980 -1.1581
  134OSM    H2G14571   5.029   5.730   6.473 -0.0638 -0.6011  1.1368
  134OSM    C3F14572   5.049   5.518   6.413  0.6124  1.1544  0.8867
  134OSM    H3F14573   5.029   5.421   6.462  1.9108 -0.9993 -2.5149
  134OSM    H3G14574   5.149   5.526   6.365 -0.9698  0.8209 -2.8288
  134OSM    C4F14575   4.940   5.541   6.302  0.1351 -0.1011 -0.0587
  134OSM    H4F14576   4.886   5.632   6.336 -1.1659 -0.5944 -0.7001
  134OSM    H4G14577   4.867   5.457   6.309 -0.2129  0.1286 -0.8252
  134OSM    C5F14578   4.984   5.549   6.155  0.2667 -0.4185  0.0235
  134OSM    H5F14579   5.063   5.473   6.139  0.9677  0.1665  0.6096
  134OSM    H5G14580   5.028   5.650   6.142  1.2959 -0.5659  1.9645
  134OSM    C6F14581   4.860   5.548   6.058  0.1908 -0.5889 -0.3524
  134OSM    H6F14582   4.801   5.635   6.092  0.5350 -1.3324  2.3883
  134OSM    H6G14583   4.798   5.458   6.079  1.4096 -1.1915  0.8861
  134OSM    C7F14584   4.888   5.547   5.909 -0.3166 -0.5630  0.3217
  134OSM    H7F14585   4.794   5.539   5.851  0.6473  2.1774 -1.8625
  134OSM    H7G14586   4.947   5.454   5.891  0.7565 -0.1510  1.5364
  134OSM    C8F14587   4.962   5.670   5.855 -0.0839  0.7992 -0.2372
  134OSM    H8F14588   4.975   5.652   5.746  0.6599 -0.9792  0.1126
  134OSM    H8G14589   5.062   5.683   5.903  0.4204 -3.5343  0.2410
  134OSM    C9F14590   4.876   5.786   5.893  0.4701 -0.0028  0.6806
  134OSM    H9F14591   4.892   5.818   5.997 -1.6188  0.5692  0.8739
  134OSM   C10F14592   4.798   5.849   5.808 -0.4939  0.0450  0.0345
  134OSM   H10F14593   4.743   5.940   5.836  0.2088  1.2693 -2.3125
  134OSM   C11F14594   4.779   5.816   5.662  0.2678 -0.1490 -0.4907
  134OSM   H11F14595   4.723   5.720   5.663 -3.1017  1.7005 -0.4247
  134OSM   H11G14596   4.875   5.802   5.607 -0.1057 -0.0798 -1.1576
  134OSM   C12F14597   4.680   5.916   5.599 -1.0441  0.3954 -0.3673
  134OSM   H12F14598   4.723   6.019   5.596 -0.7127  0.3430  1.4417
  134OSM   H12G14599   4.579   5.909   5.646 -0.6955 -2.7675  0.1323
  134OSM   C13F14600   4.655   5.875   5.452 -0.6693  0.2478 -0.4194
  134OSM   H13F14601   4.625   5.768   5.455  0.2661 -0.0170  1.0624
  134OSM   H13G14602   4.755   5.856   5.407 -0.3539 -2.9686  1.2789
  134OSM   C14F14603   4.562   5.971   5.376  0.4503  0.3618  0.0163
  134OSM   H14F14604   4.580   6.080   5.377 -0.0669  0.4621 -0.8032
  134OSM   H14G14605   4.460   5.964   5.419  0.8070  0.4192  0.8795
  134OSM   C15F14606   4.554   5.912   5.235  0.8046 -0.5145 -0.3814
  134OSM   H15F14607   4.497   5.817   5.245 -0.6812  0.3185 -0.5607
  134OSM   H15G14608   4.651   5.913   5.180  0.1014 -1.4331 -1.6948
  134OSM   C16F14609   4.470   6.002   5.139  0.3746 -0.2475  0.0787
  134OSM   H16F14610   4.371   6.020   5.185  0.0770  0.4348 -0.7825
  134OSM   H16G14611   4.457   5.941   5.046 -1.6117 -1.2902  0.9774
  134OSM   C17F14612   4.537   6.133   5.115 -0.2885  0.0176 -0.3976
  134OSM   H17F14613   4.634   6.104   5.068 -0.6275 -1.1768 -0.3788
  134OSM   H17G14614   4.572   6.187   5.206 -0.4731  0.8943 -0.8350
  134OSM   C18F14615   4.456   6.235   5.022 -0.2709  0.2086  0.3651
  134OSM   H18F14616   4.502   6.334   5.044 -0.1093 -0.2192  2.1290
  134OSM   H18G14617   4.357   6.247   5.072 -1.1163 -2.1983 -0.5825
  134OSM   H18H14618   4.456   6.223   4.912 -0.0188  1.6063  0.1914
  135OSM      N14619   5.150   6.811   7.435 -0.6030 -1.3259  0.2951
  135OSM    C1514620   5.034   6.724   7.423 -0.2304 -0.0984  0.2360
  135OSM   H15A14621   5.007   6.673   7.514 -1.0477 -0.1848 -0.0546
  135OSM   H15B14622   5.068   6.646   7.356  0.4510  0.2055  0.2150
  135OSM   H15C14623   4.946   6.772   7.384  0.0150  0.5496  0.4649
  135OSM    C1414624   5.105   6.918   7.532  0.3764 -0.0134  0.3155
  135OSM   H14A14625   5.186   6.986   7.553 -0.1763  0.8533 -0.2803
  135OSM   H14B14626   5.074   6.871   7.624 -1.6561  0.5138 -0.0581
  135OSM   H14C14627   5.024   6.974   7.488  1.8248 -0.1256 -2.7988
  135OSM    C1314628   5.279   6.759   7.483  0.7281 -0.4028  0.4355
  135OSM   H13A14629   5.312   6.682   7.415 -1.5991 -3.0408  2.0283
  135OSM   H13B14630   5.262   6.714   7.580 -0.0345 -2.6069 -0.6305
  135OSM   H13C14631   5.357   6.833   7.484 -0.7959  1.3025 -0.9140
  135OSM    C1214632   5.183   6.880   7.299  0.9164  0.2509 -0.1489
  135OSM   H12A14633   5.253   6.961   7.311  1.7055 -0.3712 -0.4740
  135OSM   H12B14634   5.095   6.927   7.257  1.1631 -0.5593 -1.6524
  135OSM    C1114635   5.248   6.786   7.190  0.3180 -0.1801 -0.1817
  135OSM   H11A14636   5.232   6.838   7.093  1.0329 -1.2461 -0.8956
  135OSM   H11B14637   5.195   6.688   7.188 -0.4156  0.1931  0.6622
  135OSM      P14638   5.488   6.859   7.146 -0.1676  0.1459 -0.2675
  135OSM    O1314639   5.481   6.992   7.207  0.3813 -0.2390 -0.0826
  135OSM    O1414640   5.625   6.799   7.146  0.4937 -0.1435  0.2705
  135OSM    O1114641   5.433   6.874   6.996 -0.0617  0.4245  0.2859
  135OSM    O1214642   5.387   6.757   7.218 -0.0783  0.5313 -0.2529
  135OSM    C1S14643   5.422   6.754   6.912  0.0231  0.0460 -0.2090
  135OSM    H1S14644   5.324   6.713   6.945 -1.2327  2.3396 -0.8306
  135OSM    H1T14645   5.510   6.690   6.935 -0.2783 -1.8030 -3.5052
  135OSM     NF14646   5.396   6.666   6.687 -0.0324 -0.0375  0.1436
  135OSM    HNF14647   5.478   6.631   6.642  0.9208  0.3495  1.5010
  135OSM    C2S14648   5.413   6.792   6.763 -0.1622  0.8500  0.6544
  135OSM    H2S14649   5.323   6.856   6.758 -0.8382 -0.0703  0.7155
  135OSM    C3S14650   5.543   6.870   6.718 -0.0341  0.2806  0.4588
  135OSM    H3S14651   5.629   6.801   6.733  0.3594  0.6655  0.0071
  135OSM     O314652   5.582   6.985   6.793 -0.4784  0.4459 -0.0809
  135OSM    HO314653   5.543   6.965   6.878 -0.6425 -0.9742 -0.4684
  135OSM    C4S14654   5.528   6.896   6.572  0.0805  0.6035 -0.4884
  135OSM    H4S14655   5.566   6.824   6.498 -2.3314  0.5888 -1.8074
  135OSM    C5S14656   5.484   7.009   6.521  0.4018  0.5902  0.8868
  135OSM    H5S14657   5.465   7.090   6.593  2.1608 -0.0271  2.0960
  135OSM    C6S14658   5.472   7.041   6.369  0.2541 -0.2454 -0.3188
  135OSM    H6S14659   5.540   7.127   6.350 -1.9214  1.3399 -1.2744
  135OSM    H6T14660   5.369   7.074   6.343  0.0459 -1.4962 -1.1884
  135OSM    C7S14661   5.520   6.943   6.256  0.7915  0.5245  0.1819
  135OSM    H7S14662   5.450   6.857   6.259  0.7465  0.5537 -0.0243
  135OSM    H7T14663   5.622   6.899   6.271  0.9361  0.0733 -1.8759
  135OSM    C8S14664   5.516   6.999   6.114 -0.0068 -0.6595  0.4829
  135OSM    H8S14665   5.572   7.095   6.116 -2.7254  1.0370  1.2037
  135OSM    H8T14666   5.407   7.018   6.103 -0.2585 -2.1687  0.1780
  135OSM    C9S14667   5.571   6.913   6.002  0.1404  0.2511  0.3921
  135OSM    H9S14668   5.546   6.807   6.022 -2.5827  0.8058  0.3030
  135OSM    H9T14669   5.682   6.921   5.996  0.1710  0.1562  0.8476
  135OSM   C10S14670   5.496   6.954   5.875 -0.4039 -0.1288  0.0335
  135OSM   H10S14671   5.502   7.065   5.885 -2.4763 -0.1646  2.8377
  135OSM   H10T14672   5.387   6.934   5.881 -0.6786  1.3396  0.3096
  135OSM   C11S14673   5.555   6.898   5.741  0.3543  0.1933 -0.0939
  135OSM   H11S14674   5.561   6.788   5.759  0.3439  0.0590 -0.8610
  135OSM   H11T14675   5.654   6.942   5.721 -0.3576  1.5291 -0.8004
  135OSM   C12S14676   5.459   6.929   5.632 -0.0927  0.0557  0.1779
  135OSM   H12S14677   5.448   7.037   5.608  1.1657  0.4864  1.3976
  135OSM   H12T14678   5.359   6.899   5.669  0.3359 -0.4710  0.9408
  135OSM   C13S14679   5.505   6.847   5.514 -0.8106  0.0853  0.0390
  135OSM   H13S14680   5.530   6.743   5.543 -4.4096 -1.2315 -1.0091
  135OSM   H13T14681   5.599   6.891   5.476 -1.2342  0.8720 -0.1377
  135OSM   C14S14682   5.394   6.835   5.405 -0.3601 -0.0510 -0.1660
  135OSM   H14S14683   5.349   6.935   5.387 -1.3041 -0.1956  1.1719
  135OSM   H14T14684   5.313   6.779   5.457  1.6986 -1.1061  2.1208
  135OSM   C15S14685   5.436   6.769   5.263  0.0652 -0.6311 -0.7485
  135OSM   H15S14686   5.487   6.680   5.304 -2.3289 -1.9156 -0.3598
  135OSM   H15T14687   5.507   6.843   5.220 -0.3244 -0.1056 -0.4938
  135OSM   C16S14688   5.314   6.739   5.178 -0.0604 -0.0313  1.1796
  135OSM   H16S14689   5.246   6.827   5.175 -1.7403 -1.3127  0.0054
  135OSM   H16T14690   5.251   6.657   5.217  0.2481  0.1779  2.1448
  135OSM   C17S14691   5.369   6.709   5.038  0.2803  0.0227 -0.1154
  135OSM   H17S14692   5.421   6.611   5.046  1.5801  0.6637 -0.4902
  135OSM   H17T14693   5.443   6.783   5.002  0.6180  0.2156  0.9609
  135OSM   C18S14694   5.256   6.719   4.928 -0.2655  0.2764 -0.8237
  135OSM   H18S14695   5.163   6.673   4.968  1.4414 -3.1775 -0.4446
  135OSM   H18T14696   5.284   6.671   4.832  0.6581 -1.6445  0.3329
  135OSM   H18U14697   5.234   6.826   4.913 -2.1318  0.1181  0.4830
  135OSM    C1F14698   5.282   6.591   6.678  0.7469 -0.2280  0.0217
  135OSM     OF14699   5.188   6.612   6.754  0.1814  0.2545  0.1161
  135OSM    C2F14700   5.270   6.496   6.565 -0.3078  0.1271 -0.4801
  135OSM    H2F14701   5.343   6.412   6.565 -2.1824 -1.5793 -0.5002
  135OSM    H2G14702   5.294   6.551   6.472  0.1415  0.0798 -0.3953
  135OSM    C3F14703   5.131   6.436   6.556 -0.2349 -0.3632 -0.2813
  135OSM    H3F14704   5.057   6.518   6.559  0.7504  0.5230  0.5592
  135OSM    H3G14705   5.115   6.371   6.645  0.3041  0.0646  0.1382
  135OSM    C4F14706   5.103   6.360   6.422  0.0412 -0.7448 -0.4061
  135OSM    H4F14707   5.178   6.288   6.382 -1.2282 -2.1741 -0.2735
  135OSM    H4G14708   5.004   6.310   6.429 -0.0861 -1.1991 -3.7448
  135OSM    C5F14709   5.081   6.467   6.305 -0.2856  1.2744 -0.7749
  135OSM    H5F14710   5.178   6.522   6.308  1.7720 -2.0682  2.6766
  135OSM    H5G14711   4.992   6.529   6.327 -0.7405  0.6141 -0.7329
  135OSM    C6F14712   5.068   6.390   6.176 -0.0215 -0.2080  0.1546
  135OSM    H6F14713   4.970   6.339   6.187 -1.0859  1.5333 -0.6806
  135OSM    H6G14714   5.145   6.312   6.162 -0.4037 -0.3643 -1.2529
  135OSM    C7F14715   5.067   6.474   6.037  0.2617 -0.0922 -0.3544
  135OSM    H7F14716   5.172   6.506   6.017 -0.0692  0.2875 -1.5442
  135OSM    H7G14717   4.991   6.553   6.051 -2.0424 -2.1234 -0.8373
  135OSM    C8F14718   5.026   6.384   5.916  0.0237  0.1978  0.0299
  135OSM    H8F14719   5.097   6.301   5.894  0.5574  1.2550 -2.5874
  135OSM    H8G14720   5.048   6.442   5.824 -0.5473  0.4920  0.0762
  135OSM    C9F14721   4.883   6.351   5.913  0.1787  0.2088 -0.2784
  135OSM    H9F14722   4.825   6.380   6.002 -0.6706  0.8318 -1.0116
  135OSM   C10F14723   4.816   6.310   5.805 -0.1735 -0.2755 -0.7507
  135OSM   H10F14724   4.707   6.305   5.819 -0.0387 -2.6108 -0.2079
  135OSM   C11F14725   4.880   6.272   5.673  0.4975  0.1209  0.0511
  135OSM   H11F14726   4.829   6.186   5.624  0.8399 -0.0211 -0.0575
  135OSM   H11G14727   4.985   6.238   5.682 -0.0353 -1.6222  0.2673
  135OSM   C12F14728   4.878   6.400   5.593 -0.1310  0.1538  0.2915
  135OSM   H12F14729   4.936   6.482   5.641  0.8315  0.0692 -0.6769
  135OSM   H12G14730   4.775   6.440   5.583 -0.2971 -0.8341 -3.0664
  135OSM   C13F14731   4.924   6.383   5.445  0.7912  1.1425 -0.4136
  135OSM   H13F14732   4.854   6.310   5.399 -0.7998 -1.1647  4.9069
  135OSM   H13G14733   5.023   6.334   5.440  0.1537 -0.6681  2.5630
  135OSM   C14F14734   4.913   6.503   5.352 -0.2029 -0.6727  0.9056
  135OSM   H14F14735   4.926   6.485   5.243 -1.2162  0.5503  0.5452
  135OSM   H14G14736   4.997   6.573   5.371 -0.7325  0.4255 -0.5589
  135OSM   C15F14737   4.783   6.591   5.356  0.2595  0.0602 -0.2328
  135OSM   H15F14738   4.778   6.679   5.288  0.9364  1.2710  1.2316
  135OSM   H15G14739   4.774   6.625   5.461 -0.9369 -1.0930  0.0814
  135OSM   C16F14740   4.649   6.521   5.315  0.1266 -0.0220 -0.8669
  135OSM   H16F14741   4.639   6.437   5.387  0.3337 -0.1071 -0.9341
  135OSM   H16G14742   4.672   6.465   5.221  0.9976 -3.8494  1.3990
  135OSM   C17F14743   4.535   6.616   5.301 -0.0007  0.3931  0.7071
  135OSM   H17F14744   4.566   6.701   5.236 -1.3973  1.2819  1.1609
  135OSM   H17G14745   4.531   6.666   5.401  3.5808 -1.8449  2.1810
  135OSM   C18F14746   4.406   6.552   5.260 -0.6847 -0.6433  0.5824
  135OSM   H18F14747   4.407   6.515   5.155  0.2396 -0.0857  0.3842
  135OSM   H18G14748   4.323   6.625   5.267 -1.5946 -1.3108 -1.9884
  135OSM   H18H14749   4.392   6.463   5.325 -0.2021 -0.7321  0.5660
  136OSM      N14750   3.802   4.695   7.817  0.1204 -0.2164  0.3047
  136OSM    C1514751   3.896   4.582   7.820 -0.5392  0.0197 -0.0046
  136OSM   H15A14752   3.865   4.501   7.755  3.4973 -2.2046  0.4846
  136OSM   H15B14753   3.904   4.534   7.916  0.9259  0.5996  0.1818
  136OSM   H15C14754   3.998   4.607   7.793  0.0294  0.4704  2.3591
  136OSM    C1414755   3.673   4.657   7.883  0.5820  0.4964  0.5715
  136OSM   H14A14756   3.592   4.723   7.856  0.0619 -0.9382 -1.7336
  136OSM   H14B14757   3.689   4.664   7.989  3.9429  3.0527  0.0391
  136OSM   H14C14758   3.631   4.561   7.855 -0.3686  0.9683  0.3351
  136OSM    C1314759   3.846   4.807   7.898 -0.3561 -0.6546  0.2486
  136OSM   H13A14760   3.858   4.772   7.999 -0.3236 -1.3616  0.0048
  136OSM   H13B14761   3.779   4.892   7.896  0.2231 -0.1831 -1.9305
  136OSM   H13C14762   3.938   4.842   7.852 -0.1526  0.6848  1.5920
  136OSM    C1214763   3.773   4.742   7.669  0.0739 -0.2075  0.0768
  136OSM   H12A14764   3.686   4.806   7.661 -0.2687 -0.5609  0.9273
  136OSM   H12B14765   3.732   4.657   7.616 -0.0769 -0.6826  0.9416
  136OSM    C1114766   3.893   4.803   7.598  0.4521  0.1907  0.3442
  136OSM   H11A14767   3.977   4.732   7.586  1.6764  1.7094 -0.3857
  136OSM   H11B14768   3.930   4.889   7.657 -0.6792  0.9029  0.0554
  136OSM      P14769   3.853   4.767   7.335 -0.1772  0.1907 -0.1505
  136OSM    O1314770   3.836   4.617   7.353  0.3038 -0.0210 -0.0297
  136OSM    O1414771   3.764   4.833   7.233  0.0225 -0.0487 -0.0355
  136OSM    O1114772   4.007   4.782   7.297 -0.4242  0.4565  0.8090
  136OSM    O1214773   3.843   4.852   7.470  0.1370  0.4524 -0.0361
  136OSM    C1S14774   4.042   4.767   7.157 -0.2240 -0.8030 -0.2390
  136OSM    H1S14775   3.989   4.676   7.121 -2.1999 -0.4151  1.4997
  136OSM    H1T14776   4.153   4.757   7.151 -0.2521 -0.6814 -1.1947
  136OSM     NF14777   4.048   4.865   6.918 -0.3578 -0.1264 -0.6405
  136OSM    HNF14778   4.107   4.935   6.877  0.6382  1.0722  2.5609
  136OSM    C2S14779   4.009   4.891   7.061  0.2426 -0.1577  1.0042
  136OSM    H2S14780   3.899   4.900   7.056  0.4554  2.7069 -0.8598
  136OSM    C3S14781   4.071   5.024   7.124 -0.7231 -0.4034  0.3964
  136OSM    H3S14782   4.177   5.018   7.154 -0.2729 -2.1495 -1.3651
  136OSM     O314783   4.000   5.069   7.237  0.1194  0.2389 -0.3442
  136OSM    HO314784   3.935   4.999   7.249 -1.5974  1.9122  0.8341
  136OSM    C4S14785   4.059   5.134   7.021  0.3334  0.1030  0.3369
  136OSM    H4S14786   4.156   5.186   7.021 -0.5764  1.9085  1.8830
  136OSM    C5S14787   3.964   5.169   6.937  0.3403 -0.4212  0.7557
  136OSM    H5S14788   3.871   5.112   6.925  0.2381  0.2655 -2.5780
  136OSM    C6S14789   3.990   5.274   6.830 -0.5268  0.1880  1.0524
  136OSM    H6S14790   4.089   5.325   6.837 -0.4377  0.2715 -0.5345
  136OSM    H6T14791   3.916   5.355   6.846 -0.6066  0.4150 -0.3985
  136OSM    C7S14792   3.989   5.206   6.689 -0.2449 -0.3929  0.0125
  136OSM    H7S14793   3.890   5.158   6.670  0.5545 -2.4407  0.7108
  136OSM    H7T14794   4.063   5.124   6.696 -1.7411 -1.7173  1.2178
  136OSM    C8S14795   4.015   5.304   6.575  0.1045 -0.1443 -0.4158
  136OSM    H8S14796   4.112   5.355   6.596 -0.9524  1.4829  0.8068
  136OSM    H8T14797   3.943   5.388   6.578  1.2502  0.8437  1.2667
  136OSM    C9S14798   3.987   5.237   6.444  0.1976  0.7370  0.0703
  136OSM    H9S14799   3.878   5.222   6.436  0.6731 -3.3214 -1.2193
  136OSM    H9T14800   4.037   5.138   6.442  0.3302  0.8099 -0.4120
  136OSM   C10S14801   4.032   5.342   6.330 -1.0728  0.1548 -0.3349
  136OSM   H10S14802   4.135   5.370   6.360 -0.3747  1.2153 -3.3865
  136OSM   H10T14803   3.965   5.429   6.318  0.2410  0.9754 -1.9976
  136OSM   C11S14804   4.050   5.273   6.198 -0.6943 -0.0987 -0.1382
  136OSM   H11S14805   3.994   5.177   6.196  2.4678 -2.0934 -0.1853
  136OSM   H11T14806   4.152   5.235   6.177 -0.3693  1.1954 -0.9988
  136OSM   C12S14807   4.022   5.363   6.071 -0.2416  0.5873  0.2575
  136OSM   H12S14808   4.081   5.456   6.084 -2.3795  1.9048  0.8919
  136OSM   H12T14809   3.917   5.397   6.064 -0.1695  0.7383 -0.1425
  136OSM   C13S14810   4.071   5.293   5.943 -0.1077 -0.1159  0.2396
  136OSM   H13S14811   4.043   5.186   5.949 -1.1602  0.1885  1.0686
  136OSM   H13T14812   4.182   5.293   5.943 -0.0789 -1.7355  0.1366
  136OSM   C14S14813   4.010   5.353   5.816  0.4931  0.5817  0.0203
  136OSM   H14S14814   4.028   5.461   5.798  0.5604  0.7440  1.0087
  136OSM   H14T14815   3.900   5.343   5.831  0.7467 -1.6826  0.7457
  136OSM   C15S14816   4.053   5.274   5.698 -0.4632  0.0773 -0.3649
  136OSM   H15S14817   4.053   5.164   5.716 -0.4024  0.6787  4.5361
  136OSM   H15T14818   4.161   5.295   5.680  0.2362 -2.8127 -0.0757
  136OSM   C16S14819   3.983   5.309   5.563  0.1680  0.7112 -0.9128
  136OSM   H16S14820   4.007   5.414   5.534  1.9639 -0.4920 -4.3848
  136OSM   H16T14821   3.877   5.293   5.591  0.2155  2.1609  0.1994
  136OSM   C17S14822   4.019   5.225   5.438  0.0330  0.4051 -0.2376
  136OSM   H17S14823   4.024   5.116   5.458  0.5675  0.5612  0.5273
  136OSM   H17T14824   4.119   5.246   5.392  1.0318 -1.5141  0.9639
  136OSM   C18S14825   3.922   5.269   5.323 -0.3282  0.2297 -0.4914
  136OSM   H18S14826   3.819   5.244   5.355 -0.8187 -1.1459 -2.9615
  136OSM   H18T14827   3.946   5.199   5.240  0.5038 -1.8806  1.4279
  136OSM   H18U14828   3.937   5.373   5.287  0.6041 -0.0443 -0.9275
  136OSM    C1F14829   3.981   4.774   6.846 -0.5551  0.3846  0.5192
  136OSM     OF14830   3.878   4.729   6.879  0.6955  0.4855 -0.6797
  136OSM    C2F14831   4.036   4.739   6.711 -0.3086  0.4106  0.0784
  136OSM    H2F14832   4.134   4.789   6.695 -0.4239  0.4256 -0.5887
  136OSM    H2G14833   3.964   4.784   6.640 -1.1486  0.7880  1.1515
  136OSM    C3F14834   4.047   4.588   6.670  0.3660  0.5397 -1.0246
  136OSM    H3F14835   3.945   4.544   6.671  1.6698 -2.7343 -1.1560
  136OSM    H3G14836   4.119   4.535   6.736 -1.6841 -1.1271  0.0092
  136OSM    C4F14837   4.122   4.559   6.535  0.4502 -0.7112 -0.8159
  136OSM    H4F14838   4.150   4.451   6.525 -0.9371 -1.1404 -0.2298
  136OSM    H4G14839   4.220   4.612   6.536  1.0320 -1.7430 -0.5723
  136OSM    C5F14840   4.047   4.617   6.408  0.2012 -0.1575  0.1697
  136OSM    H5F14841   4.037   4.723   6.440  0.9751 -0.8799  3.0657
  136OSM    H5G14842   3.958   4.551   6.412  1.6833 -2.2455  0.1819
  136OSM    C6F14843   4.126   4.614   6.282  0.9644  0.1162  0.5286
  136OSM    H6F14844   4.131   4.510   6.243  1.5850  0.2316  0.2831
  136OSM    H6G14845   4.235   4.638   6.289  1.1245 -0.3122 -0.3044
  136OSM    C7F14846   4.047   4.682   6.171 -0.1660  0.2101 -0.6220
  136OSM    H7F14847   4.029   4.787   6.203  0.4139 -0.1401  0.9707
  136OSM    H7G14848   3.946   4.638   6.158 -0.6911  0.5896  1.6055
  136OSM    C8F14849   4.128   4.678   6.038 -0.4629 -0.1119  0.3254
  136OSM    H8F14850   4.071   4.746   5.971  0.0587 -1.2992 -1.3816
  136OSM    H8G14851   4.108   4.576   5.998 -3.3985  1.1372 -1.7950
  136OSM    C9F14852   4.274   4.706   6.035  0.9324  0.8447 -0.7670
  136OSM    H9F14853   4.336   4.690   6.124 -1.8860  0.6521  1.2981
  136OSM   C10F14854   4.334   4.734   5.922  0.2290 -0.5898 -0.2788
  136OSM   H10F14855   4.435   4.776   5.915  0.0983  0.5929  3.0583
  136OSM   C11F14856   4.269   4.716   5.785  0.5338  0.1135 -0.7089
  136OSM   H11F14857   4.196   4.632   5.790 -3.5727  3.3162 -0.8791
  136OSM   H11G14858   4.342   4.686   5.707  0.1717  0.3946 -1.1603
  136OSM   C12F14859   4.193   4.839   5.734 -0.0329 -0.0553  0.8992
  136OSM   H12F14860   4.262   4.901   5.673 -0.5946 -0.5920 -0.3270
  136OSM   H12G14861   4.171   4.898   5.825  0.1362 -0.4380  1.1930
  136OSM   C13F14862   4.063   4.808   5.661 -0.6457  0.0492  0.4011
  136OSM   H13F14863   4.008   4.899   5.628 -0.1261  1.7946  3.9009
  136OSM   H13G14864   3.999   4.750   5.731 -0.6702 -1.2248 -0.6423
  136OSM   C14F14865   4.076   4.725   5.527 -0.2965 -0.0419  0.5641
  136OSM   H14F14866   3.972   4.703   5.492  0.1625  0.2149 -1.0281
  136OSM   H14G14867   4.136   4.636   5.554  1.2822  0.8030 -0.0925
  136OSM   C15F14868   4.147   4.797   5.418 -0.2187 -0.2908 -0.5333
  136OSM   H15F14869   4.251   4.826   5.444 -0.4370 -0.3141  0.4061
  136OSM   H15G14870   4.098   4.895   5.400 -1.3355 -0.4537  1.3334
  136OSM   C16F14871   4.140   4.711   5.292 -0.0909 -0.5385  0.6238
  136OSM   H16F14872   4.034   4.678   5.284 -0.7999  1.9097 -1.7747
  136OSM   H16G14873   4.202   4.620   5.304  0.7703  0.1974  2.0397
  136OSM   C17F14874   4.184   4.793   5.166  0.4868 -0.5225 -0.6185
  136OSM   H17F14875   4.293   4.817   5.170  0.1437  1.2474 -1.0649
  136OSM   H17G14876   4.137   4.893   5.155  1.1871 -0.3420 -2.2735
  136OSM   C18F14877   4.148   4.714   5.044 -0.1768 -0.3934 -0.1235
  136OSM   H18F14878   4.038   4.695   5.048  0.0210 -1.3676  2.1302
  136OSM   H18G14879   4.205   4.620   5.049 -0.7816 -0.7931 -0.5262
  136OSM   H18H14880   4.176   4.776   4.956  0.3674 -0.8270 -0.2561
  137OSM      N14881   6.181   5.089   7.298 -0.0267  0.2295  0.4889
  137OSM    C1514882   6.103   5.211   7.282 -0.1546 -0.2442 -0.0032
  137OSM   H15A14883   6.054   5.217   7.186 -0.2511 -0.9574 -0.0030
  137OSM   H15B14884   6.155   5.302   7.306 -3.0644  1.5206  0.1474
  137OSM   H15C14885   6.016   5.201   7.346 -0.2770  1.2967  0.0996
  137OSM    C1414886   6.309   5.103   7.219 -0.3584 -0.1146 -0.5725
  137OSM   H14A14887   6.370   5.014   7.219  0.3211  0.3360  0.3843
  137OSM   H14B14888   6.377   5.177   7.259  0.0059  0.3563 -1.9992
  137OSM   H14C14889   6.288   5.117   7.114 -0.6329 -0.9442 -0.6382
  137OSM    C1314890   6.227   5.075   7.447  0.0785  0.1403 -0.2840
  137OSM   H13A14891   6.275   5.166   7.481  0.2462 -0.3911  0.9620
  137OSM   H13B14892   6.290   4.989   7.462 -0.2622 -0.4112 -1.8361
  137OSM   H13C14893   6.140   5.058   7.509  0.1958  1.6848  0.3576
  137OSM    C1214894   6.096   4.966   7.260  0.2359 -0.4850  0.0576
  137OSM   H12A14895   6.005   4.967   7.319  0.9428 -0.9564  1.2085
  137OSM   H12B14896   6.152   4.881   7.298  1.6357 -0.6419 -2.1958
  137OSM    C1114897   6.066   4.954   7.104 -0.8521  0.7194 -0.5152
  137OSM   H11A14898   6.035   4.851   7.077  0.9241  0.7249 -2.9295
  137OSM   H11B14899   6.157   4.974   7.043  0.0595 -0.7576  0.2731
  137OSM      P14900   5.935   5.104   6.942 -0.0046 -0.1018  0.5055
  137OSM    O1314901   5.797   5.068   6.896  0.4236 -0.2648 -0.7765
  137OSM    O1414902   5.954   5.245   6.970  0.0440 -0.1786 -0.6468
  137OSM    O1114903   6.045   5.065   6.844  0.3142  0.5298  0.2076
  137OSM    O1214904   5.958   5.031   7.082 -0.0924 -0.1259  0.2417
  137OSM    C1S14905   6.033   4.952   6.755  0.0572  0.8230 -0.7284
  137OSM    H1S14906   5.951   4.884   6.787  1.0257  0.5720  1.3765
  137OSM    H1T14907   6.126   4.892   6.766  1.6288  2.9961 -1.4089
  137OSM     NF14908   5.989   4.875   6.525 -0.8965  0.3680  0.1841
  137OSM    HNF14909   6.055   4.814   6.482 -1.5153  0.0618 -0.3329
  137OSM    C2S14910   6.022   4.992   6.608 -0.0558  0.3083  0.3771
  137OSM    H2S14911   5.931   5.057   6.607 -0.2783  0.0114 -0.7693
  137OSM    C3S14912   6.148   5.075   6.561 -0.2923  0.6836  0.0997
  137OSM    H3S14913   6.235   5.005   6.565  0.0170  1.0290 -0.3576
  137OSM     O314914   6.183   5.179   6.647  0.1069  0.0166 -0.0746
  137OSM    HO314915   6.145   5.156   6.732 -1.0450  2.7893  0.2701
  137OSM    C4S14916   6.119   5.116   6.420 -0.3301 -0.4392  0.2756
  137OSM    H4S14917   6.104   5.030   6.353 -0.8164 -0.5100  0.4711
  137OSM    C5S14918   6.096   5.236   6.364 -0.2927 -0.1330 -0.2846
  137OSM    H5S14919   6.095   5.325   6.428  1.6527 -0.0271 -0.3444
  137OSM    C6S14920   6.065   5.263   6.218 -0.1062  0.0983  0.5027
  137OSM    H6S14921   6.134   5.344   6.185  2.6245 -0.8705  3.3582
  137OSM    H6T14922   5.959   5.297   6.214 -0.1976 -0.2958 -2.0587
  137OSM    C7S14923   6.062   5.141   6.114  0.5296 -1.0367 -0.2243
  137OSM    H7S14924   5.991   5.062   6.147  2.0237 -1.3328  2.6238
  137OSM    H7T14925   6.160   5.089   6.104  1.1864  0.4043 -1.8281
  137OSM    C8S14926   6.038   5.179   5.970  0.6485 -0.7912  0.1368
  137OSM    H8S14927   6.122   5.248   5.946  0.9762 -0.6801  1.5009
  137OSM    H8T14928   5.942   5.235   5.963  0.6701 -0.4887  1.7647
  137OSM    C9S14929   6.030   5.053   5.882 -0.1401  0.5402  0.2861
  137OSM    H9S14930   5.932   5.006   5.908  0.2469 -0.4674 -0.0093
  137OSM    H9T14931   6.105   4.975   5.908 -0.5718  0.5887  1.7635
  137OSM   C10S14932   6.033   5.076   5.731 -0.0348 -0.1460 -0.4020
  137OSM   H10S14933   6.130   5.108   5.686  2.0773 -1.7972  2.6226
  137OSM   H10T14934   5.957   5.153   5.708 -0.9960 -0.8271  0.3870
  137OSM   C11S14935   5.990   4.947   5.660  0.4461  0.2572 -0.5865
  137OSM   H11S14936   5.883   4.924   5.681  0.2402 -0.4451 -2.2505
  137OSM   H11T14937   6.054   4.864   5.697  0.6626 -0.0614 -1.6558
  137OSM   C12S14938   6.019   4.962   5.513  0.5472 -0.1939  0.0135
  137OSM   H12S14939   6.093   5.041   5.488  1.3897 -1.2827 -1.0673
  137OSM   H12T14940   5.927   5.005   5.468 -0.4799 -2.8990 -0.7036
  137OSM   C13S14941   6.056   4.836   5.433  0.0943 -0.1457  0.7322
  137OSM   H13S14942   5.968   4.769   5.425  1.4031 -1.9828  0.8304
  137OSM   H13T14943   6.135   4.776   5.484  1.5989 -0.6441 -1.9806
  137OSM   C14S14944   6.096   4.862   5.288 -0.0667  0.8069  0.1680
  137OSM   H14S14945   6.190   4.920   5.293  0.5630 -0.2109  0.4028
  137OSM   H14T14946   6.012   4.916   5.238  0.2953  1.8113  0.6249
  137OSM   C15S14947   6.121   4.742   5.197  0.6200 -0.5501  0.0935
  137OSM   H15S14948   6.139   4.785   5.097  1.6226 -0.3336  0.3555
  137OSM   H15T14949   6.034   4.672   5.196 -0.3585  0.5794  1.4165
  137OSM   C16S14950   6.236   4.655   5.248  0.6581 -0.2500 -0.4288
  137OSM   H16S14951   6.203   4.629   5.351 -1.8825  2.8234 -0.3160
  137OSM   H16T14952   6.324   4.722   5.243  1.0644 -0.8934 -2.9423
  137OSM   C17S14953   6.253   4.530   5.165 -0.4670  0.3163 -0.2206
  137OSM   H17S14954   6.164   4.466   5.176 -1.1324  1.5418  2.3335
  137OSM   H17T14955   6.326   4.468   5.221 -0.9503 -0.0423  0.0178
  137OSM   C18S14956   6.294   4.558   5.027 -0.3977  0.0525  0.9907
  137OSM   H18S14957   6.208   4.599   4.970  0.3498 -1.2629 -1.2170
  137OSM   H18T14958   6.328   4.461   4.985  0.3952 -0.4953  2.8018
  137OSM   H18U14959   6.376   4.631   5.041  0.0161 -0.3458  0.6796
  137OSM    C1F14960   5.880   4.799   6.539  0.3667 -0.2706 -0.0268
  137OSM     OF14961   5.778   4.852   6.592 -0.2320 -0.7763  0.0923
  137OSM    C2F14962   5.880   4.658   6.499  0.4946 -0.3692 -0.0652
  137OSM    H2F14963   5.932   4.604   6.580 -0.6115  1.9025  2.3442
  137OSM    H2G14964   5.939   4.650   6.406 -0.4290  0.8288 -0.7999
  137OSM    C3F14965   5.735   4.602   6.478 -0.0269 -1.2874 -0.3534
  137OSM    H3F14966   5.658   4.624   6.555 -1.0740 -0.7621 -1.5094
  137OSM    H3G14967   5.739   4.491   6.475  0.1645 -1.2882 -3.4362
  137OSM    C4F14968   5.674   4.645   6.349  0.1253  0.0201  0.8829
  137OSM    H4F14969   5.644   4.752   6.356 -1.2680 -0.2767 -0.0838
  137OSM    H4G14970   5.581   4.589   6.327  1.0829 -2.8243  3.4034
  137OSM    C5F14971   5.762   4.637   6.226  0.4556 -0.4806 -0.2958
  137OSM    H5F14972   5.822   4.543   6.224  3.9403  1.6014 -0.5863
  137OSM    H5G14973   5.843   4.712   6.234  0.6514 -0.5042 -1.8204
  137OSM    C6F14974   5.692   4.647   6.088  0.8080  0.2412 -0.2292
  137OSM    H6F14975   5.650   4.748   6.067  1.0909  0.3410 -0.3185
  137OSM    H6G14976   5.605   4.578   6.099  1.1478 -0.2282 -0.4258
  137OSM    C7F14977   5.777   4.615   5.976 -0.0641  0.2522 -0.2068
  137OSM    H7F14978   5.826   4.516   5.981 -0.8260 -0.0764  1.3816
  137OSM    H7G14979   5.860   4.687   5.991 -0.7538  0.8104  1.1029
  137OSM    C8F14980   5.711   4.631   5.843  0.0836 -0.5646  0.0357
  137OSM    H8F14981   5.655   4.727   5.833  1.9720  0.6561  0.5948
  137OSM    H8G14982   5.627   4.559   5.841  0.9742 -1.7004 -3.4455
  137OSM    C9F14983   5.821   4.617   5.736  0.8573  0.2084  0.5538
  137OSM    H9F14984   5.884   4.707   5.726  1.0804  0.0126  0.1765
  137OSM   C10F14985   5.851   4.513   5.661  0.0096 -0.1392  1.0108
  137OSM   H10F14986   5.906   4.527   5.567  0.2796 -1.1887  0.9981
  137OSM   C11F14987   5.790   4.375   5.653  0.4296  0.0581 -0.3012
  137OSM   H11F14988   5.714   4.361   5.733  0.4346 -0.5327 -0.3962
  137OSM   H11G14989   5.864   4.292   5.665 -1.6404 -1.8356  0.0314
  137OSM   C12F14990   5.699   4.358   5.521 -0.6658  0.0685 -0.5536
  137OSM   H12F14991   5.611   4.424   5.525 -1.2290 -0.7503  2.2186
  137OSM   H12G14992   5.656   4.256   5.532 -0.6547  0.2163  1.0192
  137OSM   C13F14993   5.764   4.360   5.389  0.9839 -0.2389  0.5636
  137OSM   H13F14994   5.792   4.466   5.374 -1.7038  0.4549 -0.0511
  137OSM   H13G14995   5.689   4.342   5.309  2.1316  0.0717 -0.6247
  137OSM   C14F14996   5.875   4.257   5.385  0.0985 -0.8104 -0.5926
  137OSM   H14F14997   5.835   4.154   5.387 -3.3645  0.4132  1.8685
  137OSM   H14G14998   5.931   4.273   5.480 -1.1101  1.1545 -0.1401
  137OSM   C15F14999   5.974   4.266   5.269 -0.1425 -0.2384  0.5930
  137OSM   H15F15000   6.054   4.190   5.280 -1.8329 -2.0029  1.1443
  137OSM   H15G15001   6.035   4.359   5.272  0.6821 -0.6725 -1.2781
  137OSM   C16F15002   5.919   4.247   5.130  0.4225  0.0330  0.0875
  137OSM   H16F15003   5.870   4.342   5.097 -1.8481 -0.3737  1.9984
  137OSM   H16G15004   5.833   4.176   5.134 -0.0029  0.5332 -0.0008
  137OSM   C17F15005   6.018   4.206   5.024 -0.2982  0.2184  0.5005
  137OSM   H17F15006   6.092   4.139   5.072 -0.1945  0.0247  0.0821
  137OSM   H17G15007   6.066   4.300   4.990 -0.4900  0.5216  1.0571
  137OSM   C18F15008   5.969   4.125   4.901 -0.1944 -0.1627 -0.1685
  137OSM   H18F15009   5.877   4.178   4.868  0.1720  1.0571  0.7044
  137OSM   H18G15010   5.940   4.024   4.936 -2.5714 -0.5709 -2.9798
  137OSM   H18H15011   6.043   4.106   4.820  0.5471 -1.2486  0.7358
  138OSM      N15012   6.814   3.661   7.116  0.0292 -0.5560 -0.0764
  138OSM    C1515013   6.912   3.647   7.236 -0.0301  0.0437  0.7049
  138OSM   H15A15014   6.857   3.663   7.327 -0.8632  2.6814 -0.1762
  138OSM   H15B15015   6.984   3.728   7.231  1.4554 -1.2451  0.3302
  138OSM   H15C15016   6.953   3.547   7.228 -1.1821 -0.2986 -2.1545
  138OSM    C1415017   6.706   3.561   7.143  0.5012 -0.4906  0.2816
  138OSM   H14A15018   6.655   3.590   7.234 -0.2455  0.9599 -0.5677
  138OSM   H14B15019   6.740   3.461   7.167  1.8783 -0.8206 -2.6168
  138OSM   H14C15020   6.642   3.563   7.056  0.7386 -1.6425  0.0522
  138OSM    C1315021   6.744   3.800   7.130 -0.0137  0.6670 -0.2238
  138OSM   H13A15022   6.662   3.798   7.059 -0.4878 -1.7566  0.3014
  138OSM   H13B15023   6.812   3.877   7.097 -0.4990  1.0444 -0.3532
  138OSM   H13C15024   6.703   3.806   7.229  1.0558 -2.1385  0.4911
  138OSM    C1215025   6.875   3.632   6.985  0.2311 -0.5330  0.8043
  138OSM   H12A15026   6.798   3.621   6.910  1.8949 -0.9357 -0.9406
  138OSM   H12B15027   6.932   3.540   6.991 -0.8325 -1.1738  1.3190
  138OSM    C1115028   6.967   3.742   6.927 -0.1349  1.1129 -0.4036
  138OSM   H11A15029   7.019   3.681   6.850  0.3572 -0.9665  1.4728
  138OSM   H11B15030   7.040   3.776   7.004 -0.3942  3.3540 -1.0659
  138OSM      P15031   6.955   3.965   6.802 -0.2096 -0.2552 -0.5268
  138OSM    O1315032   6.856   4.037   6.722 -0.0109  0.3788 -0.8119
  138OSM    O1415033   7.021   4.047   6.904  0.2821 -0.1512  0.3608
  138OSM    O1115034   7.062   3.886   6.721  0.9213  0.2648  0.8359
  138OSM    O1215035   6.880   3.846   6.877 -0.3435 -0.5456  0.1822
  138OSM    C1S15036   7.020   3.812   6.601  0.3726 -0.0064 -0.1184
  138OSM    H1S15037   6.911   3.825   6.582  0.8585  1.2286 -2.3816
  138OSM    H1T15038   7.048   3.705   6.610  0.2593  0.0383  0.9392
  138OSM     NF15039   7.054   3.795   6.369 -0.1999 -0.1461 -0.6318
  138OSM    HNF15040   7.108   3.716   6.342 -2.1064 -1.5493 -0.5801
  138OSM    C2S15041   7.098   3.872   6.484  0.2894 -0.0776  0.0109
  138OSM    H2S15042   7.061   3.975   6.468  0.4672 -0.2192 -1.4665
  138OSM    C3S15043   7.252   3.882   6.510 -0.1495 -0.5411 -0.3047
  138OSM    H3S15044   7.295   3.780   6.523  2.4601  0.5182 -0.0955
  138OSM     O315045   7.292   3.953   6.630 -0.7902  0.7193  0.1515
  138OSM    HO315046   7.206   3.955   6.672 -1.7639 -0.2114 -1.6909
  138OSM    C4S15047   7.315   3.932   6.380  0.0211 -0.3042  0.1876
  138OSM    H4S15048   7.339   3.849   6.312  0.5852  1.2063 -1.5372
  138OSM    C5S15049   7.328   4.062   6.339 -0.1014 -0.1269  0.0113
  138OSM    H5S15050   7.300   4.135   6.417  0.3458 -0.2310  0.2773
  138OSM    C6S15051   7.371   4.107   6.205 -1.0155 -0.6020 -0.0280
  138OSM    H6S15052   7.480   4.130   6.199 -0.8934 -1.4512 -2.1401
  138OSM    H6T15053   7.317   4.203   6.193 -0.5263 -0.1251  1.3843
  138OSM    C7S15054   7.338   4.006   6.094 -0.1656 -0.3521  0.0882
  138OSM    H7S15055   7.229   3.984   6.097  0.0728 -1.4376  1.7832
  138OSM    H7T15056   7.394   3.911   6.108 -1.0782 -0.8556  0.4050
  138OSM    C8S15057   7.384   4.059   5.949 -0.1535  0.1034  0.7037
  138OSM    H8S15058   7.495   4.061   5.946 -0.1337 -1.2396 -1.7022
  138OSM    H8T15059   7.356   4.164   5.924 -0.8083 -0.2965 -0.3058
  138OSM    C9S15060   7.347   3.966   5.839 -0.1311 -0.0067  0.7662
  138OSM    H9S15061   7.236   3.959   5.836 -0.0957 -1.3081  1.5132
  138OSM    H9T15062   7.389   3.867   5.867 -1.6341 -0.3123  2.0859
  138OSM   C10S15063   7.402   4.025   5.707  0.5148 -0.2554 -0.3687
  138OSM   H10S15064   7.508   4.035   5.739  1.3537 -2.6631 -2.1248
  138OSM   H10T15065   7.349   4.119   5.680 -0.8455 -0.0368  2.7017
  138OSM   C11S15066   7.381   3.925   5.598 -0.6566  0.3486  0.1639
  138OSM   H11S15067   7.271   3.921   5.581 -0.5441 -0.4057 -0.4364
  138OSM   H11T15068   7.408   3.820   5.622  2.3702  1.1592  0.6503
  138OSM   C12S15069   7.454   3.957   5.461  0.5067 -0.2877  0.0495
  138OSM   H12S15070   7.556   3.915   5.449  0.6678 -0.0531  0.5565
  138OSM   H12T15071   7.446   4.068   5.450  1.9172 -0.3007 -1.4218
  138OSM   C13S15072   7.378   3.900   5.343 -0.1626  0.2565  0.9566
  138OSM   H13S15073   7.271   3.899   5.371 -0.9799  0.2306 -1.9328
  138OSM   H13T15074   7.408   3.795   5.321 -0.3638  0.2871  0.5408
  138OSM   C14S15075   7.397   3.986   5.216  0.6904  1.0470  0.0064
  138OSM   H14S15076   7.502   4.018   5.200  1.3287  0.0357  1.9052
  138OSM   H14T15077   7.342   4.081   5.233 -1.8969 -0.3841  0.1637
  138OSM   C15S15078   7.335   3.910   5.100  0.4051 -0.3154 -0.1636
  138OSM   H15S15079   7.232   3.880   5.128  0.4322 -0.2943 -0.0418
  138OSM   H15T15080   7.395   3.820   5.076 -0.8959 -1.1086 -0.5006
  138OSM   C16S15081   7.316   3.991   4.972  0.0732 -0.1558 -0.6531
  138OSM   H16S15082   7.413   4.041   4.950 -0.2013  1.1944  1.0163
  138OSM   H16T15083   7.240   4.069   4.991 -1.2908 -1.9052  1.6590
  138OSM   C17S15084   7.245   3.911   4.865 -0.3098  1.0254 -0.2551
  138OSM   H17S15085   7.135   3.910   4.880 -0.2427  3.2440  0.8042
  138OSM   H17T15086   7.288   3.808   4.864  0.9187  1.5200 -0.4519
  138OSM   C18S15087   7.280   3.958   4.720 -0.6964  0.2694 -0.3226
  138OSM   H18S15088   7.194   3.923   4.658  0.4178 -2.5742 -0.4268
  138OSM   H18T15089   7.375   3.917   4.679 -0.1221  0.9430  0.3050
  138OSM   H18U15090   7.296   4.068   4.715  0.5379  0.1111 -0.0903
  138OSM    C1F15091   6.934   3.808   6.322  0.4429  0.3192  0.6194
  138OSM     OF15092   6.851   3.891   6.365  0.5110  0.0782  0.3811
  138OSM    C2F15093   6.900   3.706   6.212 -0.5697 -0.4117  1.2413
  138OSM    H2F15094   6.793   3.707   6.184  0.2330 -0.0208 -2.4118
  138OSM    H2G15095   6.931   3.603   6.239  0.0713 -0.5771 -0.0392
  138OSM    C3F15096   6.974   3.754   6.087  0.0052  0.1428 -0.1362
  138OSM    H3F15097   7.081   3.730   6.103  0.7165  3.9969  2.0609
  138OSM    H3G15098   6.959   3.864   6.075  2.5243  0.4279 -1.2867
  138OSM    C4F15099   6.922   3.685   5.960  0.0417 -0.4168 -0.3150
  138OSM    H4F15100   6.812   3.702   5.957  0.3897  2.5247  0.5534
  138OSM    H4G15101   6.941   3.577   5.979  1.3260 -0.0287  0.7627
  138OSM    C5F15102   6.989   3.733   5.833 -0.3453 -0.3738 -0.2560
  138OSM    H5F15103   7.097   3.720   5.854 -0.0262 -1.7707 -2.4816
  138OSM    H5G15104   6.960   3.840   5.828  2.9935  0.6048 -0.9578
  138OSM    C6F15105   6.945   3.651   5.713  0.0767  0.4072 -0.4074
  138OSM    H6F15106   6.850   3.684   5.665  0.5937  2.9919  0.2454
  138OSM    H6G15107   6.921   3.550   5.754 -0.1098  0.1777 -1.0569
  138OSM    C7F15108   7.047   3.644   5.599 -0.3026 -0.1488  0.8168
  138OSM    H7F15109   7.146   3.626   5.646 -0.8031 -1.9106  1.2732
  138OSM    H7G15110   7.051   3.735   5.536  1.6958  0.0564  1.1640
  138OSM    C8F15111   7.025   3.524   5.507  0.6411 -0.3749 -0.2909
  138OSM    H8F15112   7.041   3.432   5.567 -0.1622 -1.4383 -1.6424
  138OSM    H8G15113   7.102   3.521   5.426  1.0646  0.2116  0.0864
  138OSM    C9F15114   6.886   3.511   5.445 -0.1373  0.1966 -0.3109
  138OSM    H9F15115   6.809   3.458   5.504  0.0645 -0.2777 -0.4677
  138OSM   C10F15116   6.846   3.556   5.325 -0.1940 -0.4173  0.0228
  138OSM   H10F15117   6.746   3.536   5.283 -0.0156 -1.0087 -0.1367
  138OSM   C11F15118   6.928   3.632   5.226 -0.1728  0.4907 -0.0746
  138OSM   H11F15119   6.934   3.573   5.131  1.7424 -1.2350  1.0306
  138OSM   H11G15120   7.035   3.635   5.256  0.3280  1.2459 -1.7983
  138OSM   C12F15121   6.881   3.773   5.197  0.2153 -0.5255  0.0010
  138OSM   H12F15122   6.797   3.760   5.125  0.0699 -0.9235  0.2414
  138OSM   H12G15123   6.956   3.828   5.136 -0.5429 -1.8839 -2.2615
  138OSM   C13F15124   6.849   3.865   5.319  0.7545  0.1056 -0.4902
  138OSM   H13F15125   6.943   3.887   5.373  1.0594 -0.0178 -0.9640
  138OSM   H13G15126   6.779   3.815   5.389  0.0822 -1.7606 -2.3740
  138OSM   C14F15127   6.794   4.000   5.265  0.1156 -0.2380 -0.3845
  138OSM   H14F15128   6.683   4.000   5.260  0.1244  0.2292 -0.5928
  138OSM   H14G15129   6.836   4.020   5.165  0.9957  1.8218  0.3316
  138OSM   C15F15130   6.828   4.114   5.361  0.0062 -0.6845  0.2217
  138OSM   H15F15131   6.812   4.096   5.469 -1.9832  2.3303  0.5593
  138OSM   H15G15132   6.761   4.201   5.342 -0.2742 -0.7763  0.7883
  138OSM   C16F15133   6.975   4.161   5.343 -0.2222 -0.5199  0.6187
  138OSM   H16F15134   6.979   4.200   5.239 -1.4764 -1.2091  0.2874
  138OSM   H16G15135   7.048   4.078   5.350  1.3152  0.8202  1.1599
  138OSM   C17F15136   7.028   4.280   5.435  0.3536 -0.0736 -0.3975
  138OSM   H17F15137   7.013   4.251   5.541  1.4257 -1.3248 -0.5578
  138OSM   H17G15138   6.968   4.372   5.417 -0.8922  0.0620  3.5174
  138OSM   C18F15139   7.166   4.318   5.402 -0.6715  0.0538  0.0005
  138OSM   H18F15140   7.195   4.413   5.452 -0.7959  1.5519 -2.6177
  138OSM   H18G15141   7.174   4.355   5.298 -1.7530  0.0283 -0.0980
  138OSM   H18H15142   7.247   4.244   5.421  0.1439  0.7525 -0.6764
  139OSM      N15143   1.113   6.891   7.115  0.4168 -0.1185 -0.9729
  139OSM    C1515144   1.074   6.973   7.002  0.6128 -0.4923 -0.4373
  139OSM   H15A15145   1.131   7.064   7.013  1.7869 -1.2399 -0.1399
  139OSM   H15B15146   0.968   6.993   7.000  0.4416 -1.3385 -0.2296
  139OSM   H15C15147   1.088   6.927   6.906  0.0173 -1.9506  0.1607
  139OSM    C1415148   1.265   6.893   7.133  0.1033  0.5466  0.0914
  139OSM   H14A15149   1.297   6.995   7.149  0.4767  0.2498  1.3490
  139OSM   H14B15150   1.318   6.849   7.050  1.1614  0.8042  0.5995
  139OSM   H14C15151   1.300   6.847   7.225 -2.0979 -0.8462  0.3050
  139OSM    C1315152   1.051   6.958   7.239 -0.4930 -0.4419  0.9321
  139OSM   H13A15153   1.040   6.891   7.323  2.1618 -1.3367  0.6894
  139OSM   H13B15154   0.954   6.986   7.201 -0.4609 -2.9498 -1.3567
  139OSM   H13C15155   1.104   7.049   7.264 -0.6293  0.6369 -2.2253
  139OSM    C1215156   1.057   6.753   7.097  0.7018 -0.3401  0.4267
  139OSM   H12A15157   1.090   6.685   7.174 -1.2683 -3.5373 -1.3265
  139OSM   H12B15158   1.097   6.718   7.003 -1.3336  2.0712 -1.4790
  139OSM    C1115159   0.906   6.735   7.081  1.4011 -0.2429  0.2233
  139OSM   H11A15160   0.857   6.793   7.162  1.2618  0.4889 -0.3684
  139OSM   H11B15161   0.884   6.627   7.098 -0.7816 -0.1183 -1.4183
  139OSM      P15162   0.720   6.815   6.927  0.2268 -0.4497  0.5215
  139OSM    O1315163   0.627   6.695   6.925 -0.4672 -0.3005  0.2915
  139OSM    O1415164   0.688   6.927   7.010  0.1174 -0.1282 -0.7632
  139OSM    O1115165   0.732   6.868   6.779  0.4824 -0.0962 -0.1170
  139OSM    O1215166   0.864   6.769   6.948  0.1942  0.3322 -0.4017
  139OSM    C1S15167   0.753   6.765   6.680 -0.8509 -0.3369  0.7047
  139OSM    H1S15168   0.663   6.724   6.630  0.8452 -0.5798 -2.3929
  139OSM    H1T15169   0.805   6.677   6.725  4.1309  1.4856 -0.7429
  139OSM     NF15170   0.793   6.788   6.439  0.0017  0.5220 -0.0892
  139OSM    HNF15171   0.812   6.696   6.406  0.5095  0.7488 -0.4258
  139OSM    C2S15172   0.851   6.812   6.567 -0.3318  0.7646  0.2388
  139OSM    H2S15173   0.850   6.923   6.578 -0.4648  0.8173 -0.3063
  139OSM    C3S15174   0.996   6.750   6.592  0.1072 -0.1600 -0.0409
  139OSM    H3S15175   0.984   6.640   6.605  0.5435  0.1317  4.0792
  139OSM     O315176   1.051   6.788   6.716 -0.2000 -0.6268 -0.0407
  139OSM    HO315177   0.976   6.803   6.775 -0.5073 -1.4768 -0.2036
  139OSM    C4S15178   1.082   6.784   6.480  0.6479 -0.6693 -1.3743
  139OSM    H4S15179   1.085   6.889   6.446 -1.6357 -0.2378 -0.4452
  139OSM    C5S15180   1.154   6.693   6.414  0.0528 -0.3484 -1.3386
  139OSM    H5S15181   1.162   6.590   6.451  1.4173  0.0767 -0.3626
  139OSM    C6S15182   1.245   6.712   6.299  0.2888 -0.6373  0.2851
  139OSM    H6S15183   1.269   6.617   6.245  0.0712 -0.8701  0.5963
  139OSM    H6T15184   1.339   6.758   6.335  0.2194 -0.6747  0.5125
  139OSM    C7S15185   1.195   6.814   6.193 -0.6780  0.1698  0.2025
  139OSM    H7S15186   1.272   6.840   6.118 -1.5527 -0.7657 -1.0495
  139OSM    H7T15187   1.160   6.909   6.239  0.6600  0.1130  1.4094
  139OSM    C8S15188   1.077   6.760   6.112  0.3529  0.4068  0.6457
  139OSM    H8S15189   1.012   6.838   6.068 -0.0679  0.2687  1.0201
  139OSM    H8T15190   1.008   6.711   6.185  0.9976  1.6469  2.1497
  139OSM    C9S15191   1.112   6.648   6.003  0.4151 -0.0063  0.2904
  139OSM    H9S15192   1.023   6.585   5.984 -0.6981  1.0100  1.9016
  139OSM    H9T15193   1.204   6.594   6.034  0.2555  0.2190  1.1800
  139OSM   C10S15194   1.161   6.706   5.872 -0.3588  0.3692  0.2003
  139OSM   H10S15195   1.257   6.757   5.893  0.0982 -1.2536  2.5073
  139OSM   H10T15196   1.092   6.783   5.830  2.8191  2.9589 -0.6435
  139OSM   C11S15197   1.185   6.597   5.769 -0.0463 -0.2187  0.1046
  139OSM   H11S15198   1.095   6.532   5.774 -0.7572  0.7323  0.0002
  139OSM   H11T15199   1.268   6.528   5.795 -0.8184 -0.6614  1.4948
  139OSM   C12S15200   1.207   6.671   5.640  0.5871 -0.3711  0.1257
  139OSM   H12S15201   1.297   6.735   5.655  0.6084 -0.1831 -0.7511
  139OSM   H12T15202   1.119   6.733   5.612  0.1574 -2.2225 -3.1331
  139OSM   C13S15203   1.231   6.577   5.512  0.6216 -0.1943 -0.3607
  139OSM   H13S15204   1.138   6.524   5.480 -0.1433  1.0828 -0.3344
  139OSM   H13T15205   1.306   6.497   5.531 -0.1793 -1.3878 -1.9574
  139OSM   C14S15206   1.272   6.676   5.399  0.1694  0.4675  0.2108
  139OSM   H14S15207   1.380   6.697   5.412  0.1517  0.3428  0.5565
  139OSM   H14T15208   1.208   6.765   5.384  1.5400  0.9496 -4.1342
  139OSM   C15S15209   1.257   6.603   5.259  0.0375 -0.1162 -0.2636
  139OSM   H15S15210   1.155   6.568   5.232 -1.5859  3.1673  1.1127
  139OSM   H15T15211   1.323   6.514   5.267  1.7047  1.2120  1.4558
  139OSM   C16S15212   1.308   6.682   5.142  0.8339 -0.4659 -0.6495
  139OSM   H16S15213   1.276   6.788   5.148  0.3070 -0.6811  0.7885
  139OSM   H16T15214   1.262   6.640   5.050 -1.1929 -0.4795  0.3118
  139OSM   C17S15215   1.457   6.676   5.119  0.9586 -0.2787  0.7866
  139OSM   H17S15216   1.494   6.571   5.116  0.2015 -0.5843  1.6520
  139OSM   H17T15217   1.500   6.722   5.211  0.8424 -1.3868  1.4224
  139OSM   C18S15218   1.506   6.757   4.995  0.3415  0.4692  0.0655
  139OSM   H18S15219   1.616   6.746   4.981  0.0778 -1.8785 -0.8101
  139OSM   H18T15220   1.486   6.865   5.005  1.5896  0.7031  0.1507
  139OSM   H18U15221   1.459   6.706   4.908  0.6461 -1.2120  0.8422
  139OSM    C1F15222   0.693   6.850   6.376  0.5119 -0.5906 -0.6128
  139OSM     OF15223   0.620   6.921   6.437  0.4541  0.2860 -0.1519
  139OSM    C2F15224   0.687   6.820   6.230 -0.5877 -0.0397  0.0753
  139OSM    H2F15225   0.654   6.715   6.226 -1.3940  0.1670  0.9960
  139OSM    H2G15226   0.791   6.824   6.193 -0.4374 -0.8509  0.3877
  139OSM    C3F15227   0.583   6.904   6.154 -0.9176 -0.2741 -0.4322
  139OSM    H3F15228   0.606   7.012   6.145 -0.8370 -0.1073  1.5186
  139OSM    H3G15229   0.488   6.908   6.211  0.0013  0.0669  1.1318
  139OSM    C4F15230   0.572   6.854   6.015 -0.5131  0.3910 -0.0627
  139OSM    H4F15231   0.491   6.900   5.955 -0.0064  0.9798 -0.3090
  139OSM    H4G15232   0.542   6.747   6.020  0.3032  0.1272 -0.5323
  139OSM    C5F15233   0.699   6.866   5.930  0.3533 -0.6344  0.2121
  139OSM    H5F15234   0.771   6.789   5.965  1.8534  0.0657 -1.2135
  139OSM    H5G15235   0.736   6.968   5.952 -0.8256  0.4450 -2.3995
  139OSM    C6F15236   0.671   6.840   5.781 -0.6465  0.9517 -0.6244
  139OSM    H6F15237   0.659   6.942   5.740 -0.1379  1.6515  0.8784
  139OSM    H6G15238   0.580   6.776   5.779  0.4121 -1.0580  3.3415
  139OSM    C7F15239   0.786   6.776   5.705 -0.7543  0.4063 -0.3960
  139OSM    H7F15240   0.778   6.672   5.741  1.8046  0.1885 -0.2881
  139OSM    H7G15241   0.884   6.819   5.735 -1.6411  2.1755  0.1499
  139OSM    C8F15242   0.778   6.774   5.549 -0.1721  0.2223  0.1285
  139OSM    H8F15243   0.689   6.710   5.532 -0.5965  1.0391 -0.7995
  139OSM    H8G15244   0.861   6.721   5.497  2.7166  2.6024  1.9881
  139OSM    C9F15245   0.748   6.907   5.487  0.4321 -0.1256 -0.0070
  139OSM    H9F15246   0.646   6.946   5.501  1.3532  2.5662 -0.2470
  139OSM   C10F15247   0.841   6.982   5.432  0.3436 -0.5333 -0.0563
  139OSM   H10F15248   0.810   7.081   5.394  0.1504 -0.6133 -0.1132
  139OSM   C11F15249   0.982   6.941   5.388 -0.1034 -0.3554 -0.5190
  139OSM   H11F15250   1.022   6.863   5.457  0.5841  0.2285 -0.2498
  139OSM   H11G15251   1.055   7.023   5.405 -0.2305 -0.3940  0.2639
  139OSM   C12F15252   1.004   6.918   5.249  0.1414  0.4621  0.9660
  139OSM   H12F15253   0.943   6.834   5.210 -2.5403  1.7352  2.2097
  139OSM   H12G15254   1.112   6.902   5.225 -0.7501 -0.8035 -3.0772
  139OSM   C13F15255   0.984   7.042   5.151 -0.1365 -0.1360 -0.4574
  139OSM   H13F15256   1.047   7.131   5.172 -0.4766  0.9391 -3.5120
  139OSM   H13G15257   0.879   7.070   5.176  0.3907  0.4335  1.2795
  139OSM   C14F15258   0.991   7.007   5.003  0.6232  0.3787  0.1996
  139OSM   H14F15259   0.904   6.942   4.980  2.1596 -1.4576 -0.7223
  139OSM   H14G15260   1.080   6.948   4.973  0.4071 -1.3786  2.6422
  139OSM   C15F15261   0.978   7.130   4.917  1.2714 -0.8910  0.2908
  139OSM   H15F15262   0.896   7.196   4.952  2.0357  0.4514 -0.3355
  139OSM   H15G15263   0.969   7.103   4.809  1.3998  0.0251  0.0427
  139OSM   C16F15264   1.110   7.222   4.929  0.1916 -0.2424 -0.1405
  139OSM   H16F15265   1.197   7.154   4.921  1.0725  0.9152 -0.7705
  139OSM   H16G15266   1.107   7.268   5.031  1.5345 -2.4060  0.9422
  139OSM   C17F15267   1.139   7.321   4.812  0.3504  0.3763  0.1783
  139OSM   H17F15268   1.061   7.400   4.803  0.4016  0.3436 -0.5847
  139OSM   H17G15269   1.142   7.265   4.717 -2.1161 -0.9972  0.8230
  139OSM   C18F15270   1.268   7.394   4.826  0.6434  0.4594 -0.1954
  139OSM   H18F15271   1.289   7.443   4.729 -2.0308  1.2014 -0.4818
  139OSM   H18G15272   1.344   7.321   4.861  0.1046 -1.5803 -2.8972
  139OSM   H18H15273   1.260   7.477   4.898  0.5795 -0.0766  0.4273
  140OSM      N15274   4.689   4.740   7.462  0.4071  0.0772 -1.0659
  140OSM    C1515275   4.613   4.866   7.508  0.3259 -0.0814  0.4025
  140OSM   H15A15276   4.552   4.901   7.426 -0.7062 -3.6310 -0.5101
  140OSM   H15B15277   4.686   4.942   7.532 -2.0215  1.5088  3.0766
  140OSM   H15C15278   4.556   4.838   7.595  1.4334 -2.4853  0.4307
  140OSM    C1415279   4.774   4.709   7.580  0.0030  0.0024  0.2878
  140OSM   H14A15280   4.855   4.779   7.594  2.1503 -2.5452  1.2395
  140OSM   H14B15281   4.822   4.613   7.574 -1.9987 -1.0915  0.7843
  140OSM   H14C15282   4.731   4.695   7.679  2.5733  1.2037  1.6948
  140OSM    C1315283   4.595   4.632   7.448 -0.2517  0.4647  0.4330
  140OSM   H13A15284   4.557   4.595   7.542 -1.1583  1.7181  0.5829
  140OSM   H13B15285   4.637   4.552   7.389  0.3247 -0.2378  1.7583
  140OSM   H13C15286   4.506   4.659   7.393  0.6215 -0.1892 -1.3859
  140OSM    C1215287   4.773   4.776   7.349  0.3706  0.4663 -0.1903
  140OSM   H12A15288   4.847   4.700   7.329 -1.0593 -0.6413 -1.6326
  140OSM   H12B15289   4.842   4.856   7.371  1.1629 -0.1241 -0.4682
  140OSM    C1115290   4.697   4.808   7.218  0.2173  0.5306 -0.4706
  140OSM   H11A15291   4.645   4.716   7.185  2.3843 -0.3579 -1.6519
  140OSM   H11B15292   4.776   4.816   7.140  0.3597 -2.9703 -0.8494
  140OSM      P15293   4.484   4.944   7.180 -0.1443  0.0773 -0.0617
  140OSM    O1315294   4.398   4.835   7.232 -0.1735  0.0885 -0.5929
  140OSM    O1415295   4.438   5.082   7.199 -0.1143  0.2618 -0.3373
  140OSM    O1115296   4.499   4.925   7.024 -0.2106  0.5740  0.8582
  140OSM    O1215297   4.631   4.933   7.231  0.4257  0.0038 -0.2292
  140OSM    C1S15298   4.594   4.991   6.946  0.3987  0.0704  0.7399
  140OSM    H1S15299   4.683   4.924   6.944  0.7864  0.5592 -1.4374
  140OSM    H1T15300   4.614   5.095   6.979 -0.8218  0.8400 -0.8103
  140OSM     NF15301   4.632   5.100   6.736  0.3951  0.3420  0.6008
  140OSM    HNF15302   4.590   5.179   6.690 -0.2858  1.2002  2.5980
  140OSM    C2S15303   4.548   5.001   6.792  0.1413 -0.1890  0.1853
  140OSM    H2S15304   4.561   4.898   6.751  0.0363  0.5140 -1.7370
  140OSM    C3S15305   4.396   5.041   6.781  0.1956 -0.1336  0.8837
  140OSM    H3S15306   4.387   5.139   6.833  1.5167 -0.6911  2.2470
  140OSM     O315307   4.307   4.963   6.861 -0.6705 -0.4508  0.5950
  140OSM    HO315308   4.364   4.925   6.929 -1.6403 -0.5244  1.3850
  140OSM    C4S15309   4.350   5.065   6.640 -0.2661  0.1529  0.2763
  140OSM    H4S15310   4.334   5.172   6.618  0.4746 -0.0316 -1.2974
  140OSM    C5S15311   4.324   4.964   6.550 -0.3513  0.8002  0.2194
  140OSM    H5S15312   4.358   4.865   6.581  1.8554  2.0103  1.8980
  140OSM    C6S15313   4.270   4.991   6.413 -0.6279 -0.4903  0.5036
  140OSM    H6S15314   4.275   5.099   6.385 -0.5251 -0.2047  1.5922
  140OSM    H6T15315   4.163   4.964   6.401 -0.8053  0.4512 -0.1998
  140OSM    C7S15316   4.358   4.919   6.314 -0.5342 -0.1248 -0.0285
  140OSM    H7S15317   4.307   4.943   6.218 -0.7503  1.4615  0.4617
  140OSM    H7T15318   4.334   4.811   6.329  1.8134 -0.9487 -1.6126
  140OSM    C8S15319   4.509   4.946   6.302  1.2001 -0.5430 -0.5907
  140OSM    H8S15320   4.556   4.865   6.242 -0.7489 -0.8861 -1.7377
  140OSM    H8T15321   4.541   4.915   6.404 -1.5726 -1.6289  0.0551
  140OSM    C9S15322   4.553   5.088   6.280 -0.6569  0.4255 -1.0277
  140OSM    H9S15323   4.663   5.073   6.273 -0.7279 -1.1904  0.5801
  140OSM    H9T15324   4.519   5.144   6.369 -0.2199  1.6338 -1.5935
  140OSM   C10S15325   4.499   5.148   6.151  0.1330 -0.4992 -0.0654
  140OSM   H10S15326   4.536   5.252   6.136 -1.1469  0.0509  0.4822
  140OSM   H10T15327   4.389   5.163   6.150  0.2940  0.8952  0.7858
  140OSM   C11S15328   4.540   5.081   6.023  0.2818  0.2129 -0.2268
  140OSM   H11S15329   4.494   4.981   6.009 -1.3638  0.7223  1.1692
  140OSM   H11T15330   4.648   5.056   6.027 -0.0582 -2.3316 -3.0306
  140OSM   C12S15331   4.507   5.178   5.904 -0.3289  0.0800  0.4451
  140OSM   H12S15332   4.574   5.265   5.925 -2.7682  1.8050  1.6411
  140OSM   H12T15333   4.407   5.226   5.908  0.0193  0.8973 -0.1429
  140OSM   C13S15334   4.527   5.109   5.774  0.1642 -0.6663  0.3501
  140OSM   H13S15335   4.459   5.021   5.773 -1.3798  0.4807  0.7494
  140OSM   H13T15336   4.634   5.076   5.772 -0.0436 -1.3308 -1.0458
  140OSM   C14S15337   4.496   5.193   5.650 -0.2366 -0.5996  0.5922
  140OSM   H14S15338   4.393   5.233   5.663 -0.4978 -1.2370  0.5154
  140OSM   H14T15339   4.492   5.127   5.561 -2.1143  0.5035 -0.2056
  140OSM   C15S15340   4.596   5.312   5.634  0.0429 -0.4150  1.4550
  140OSM   H15S15341   4.677   5.293   5.707  0.9528  1.5187  0.9936
  140OSM   H15T15342   4.548   5.406   5.667  0.4283  2.5583 -4.9831
  140OSM   C16S15343   4.641   5.340   5.488 -0.7569 -0.5014  0.3996
  140OSM   H16S15344   4.547   5.363   5.433 -1.4332 -0.2219  1.6541
  140OSM   H16T15345   4.702   5.254   5.451 -0.6802 -0.4339  0.3665
  140OSM   C17S15346   4.736   5.456   5.480  0.1537 -0.3831  0.0383
  140OSM   H17S15347   4.803   5.457   5.568  1.6316 -0.4708 -1.0524
  140OSM   H17T15348   4.676   5.548   5.498 -0.2435 -1.0743  2.6502
  140OSM   C18S15349   4.818   5.473   5.346  0.2690 -0.0590 -0.3052
  140OSM   H18S15350   4.769   5.539   5.272 -0.6070 -1.0458 -0.6214
  140OSM   H18T15351   4.847   5.375   5.303  0.4130 -0.3021  0.3223
  140OSM   H18U15352   4.918   5.516   5.370  1.1606 -1.8220 -0.6935
  140OSM    C1F15353   4.753   5.066   6.700 -0.1875 -0.2236  0.5873
  140OSM     OF15354   4.785   4.947   6.712 -0.1322 -0.8542  0.0792
  140OSM    C2F15355   4.833   5.175   6.636  0.4223 -0.0451 -0.1622
  140OSM    H2F15356   4.863   5.247   6.716  1.6886 -1.5383  0.7548
  140OSM    H2G15357   4.768   5.232   6.565  2.0845  2.8385  0.4659
  140OSM    C3F15358   4.961   5.137   6.562  0.1441 -0.6894 -0.5844
  140OSM    H3F15359   5.017   5.063   6.623  0.5809 -0.5988 -0.8778
  140OSM    H3G15360   5.031   5.222   6.566 -1.3604  0.5483  1.4741
  140OSM    C4F15361   4.929   5.090   6.422  0.2395 -0.0494 -0.0915
  140OSM    H4F15362   4.900   5.181   6.366  0.2440  0.3019  0.4717
  140OSM    H4G15363   4.842   5.021   6.418  0.4345 -0.2719 -0.5361
  140OSM    C5F15364   5.048   5.017   6.360  0.0369  0.2864 -0.3419
  140OSM    H5F15365   5.015   4.941   6.286  2.5903 -1.5712  0.2884
  140OSM    H5G15366   5.102   4.957   6.436  0.3281 -1.1496 -1.6443
  140OSM    C6F15367   5.139   5.110   6.277 -0.0148  0.3828 -0.1068
  140OSM    H6F15368   5.221   5.044   6.239  0.2423 -0.8396  2.3833
  140OSM    H6G15369   5.192   5.174   6.351  0.3812 -0.3109  0.2228
  140OSM    C7F15370   5.070   5.190   6.162 -0.0293  0.0915 -0.1517
  140OSM    H7F15371   5.159   5.229   6.108  2.1155 -2.7229  1.0974
  140OSM    H7G15372   5.018   5.274   6.212 -0.2975 -0.5452  0.6594
  140OSM    C8F15373   4.980   5.103   6.080  0.7143  0.1486  0.2443
  140OSM    H8F15374   4.900   5.058   6.143 -0.1484  0.4675 -0.5817
  140OSM    H8G15375   5.032   5.017   6.033 -1.3895  0.1843 -2.3975
  140OSM    C9F15376   4.906   5.175   5.966 -0.9608  0.5730 -0.1951
  140OSM    H9F15377   4.813   5.216   6.010  0.6104 -0.1616  4.3516
  140OSM   C10F15378   4.943   5.187   5.832  0.0031  0.8416  0.1498
  140OSM   H10F15379   4.874   5.230   5.757 -1.3720 -0.5251  0.5850
  140OSM   C11F15380   5.078   5.150   5.777 -0.4645 -0.3155 -0.3201
  140OSM   H11F15381   5.076   5.100   5.678  1.5226  2.0189 -1.6244
  140OSM   H11G15382   5.134   5.095   5.855  1.4929  0.1299 -1.3626
  140OSM   C12F15383   5.173   5.267   5.763 -0.4626  1.0531 -0.1427
  140OSM   H12F15384   5.172   5.305   5.867 -0.4126 -1.0561  0.6608
  140OSM   H12G15385   5.133   5.349   5.699  0.0653  0.6110 -1.0722
  140OSM   C13F15386   5.323   5.229   5.734  0.3388 -0.1510  0.4969
  140OSM   H13F15387   5.339   5.122   5.706  2.5385 -0.0721  1.3017
  140OSM   H13G15388   5.364   5.231   5.837  1.0146 -1.1459  0.2604
  140OSM   C14F15389   5.404   5.329   5.644 -0.2681  0.6743  0.3320
  140OSM   H14F15390   5.501   5.352   5.693  0.3579  1.5446 -1.2234
  140OSM   H14G15391   5.350   5.426   5.639  1.7392  1.7954 -1.1980
  140OSM   C15F15392   5.414   5.288   5.493 -0.2410 -0.2566 -0.2744
  140OSM   H15F15393   5.447   5.380   5.439 -2.7197  1.3975  0.8268
  140OSM   H15G15394   5.320   5.253   5.446 -0.0672 -0.1689 -0.6943
  140OSM   C16F15395   5.523   5.179   5.474 -0.5483 -0.1272  0.0938
  140OSM   H16F15396   5.490   5.084   5.523  0.8888 -1.6856 -1.8152
  140OSM   H16G15397   5.613   5.212   5.530  0.0895 -0.2169 -0.8592
  140OSM   C17F15398   5.548   5.148   5.327 -0.5643 -0.5707  0.4489
  140OSM   H17F15399   5.609   5.227   5.280 -0.3385 -1.1697 -0.2823
  140OSM   H17G15400   5.450   5.133   5.277 -0.0308 -1.8315 -0.2798
  140OSM   C18F15401   5.629   5.015   5.305 -0.3682  0.4608 -0.6564
  140OSM   H18F15402   5.591   4.933   5.369  1.4415 -0.2654 -0.4531
  140OSM   H18G15403   5.734   5.023   5.340 -0.7100  1.2489  0.2328
  140OSM   H18H15404   5.633   4.971   5.203  0.5657 -1.6332  0.2369
  141OSM      N15405   3.682   4.070   7.698  0.0116  0.1936  0.3347
  141OSM    C1515406   3.625   3.947   7.770 -1.0519  0.8018 -1.0014
  141OSM   H15A15407   3.533   3.967   7.822  0.6294  0.1690  2.5214
  141OSM   H15B15408   3.689   3.930   7.856 -1.7881  2.4365 -0.0979
  141OSM   H15C15409   3.633   3.859   7.707 -0.2854  1.0732 -1.2961
  141OSM    C1415410   3.700   4.187   7.787 -0.8835 -0.2883 -0.7506
  141OSM   H14A15411   3.742   4.268   7.730  0.1863 -0.3282 -0.0525
  141OSM   H14B15412   3.771   4.162   7.865  1.1963  1.1988 -2.0715
  141OSM   H14C15413   3.605   4.211   7.833 -0.2729 -0.5982  0.7585
  141OSM    C1315414   3.820   4.027   7.658  0.8063  0.1713 -0.3171
  141OSM   H13A15415   3.874   3.984   7.741  0.4894 -0.8583 -0.6369
  141OSM   H13B15416   3.880   4.108   7.619  0.5364 -0.3300 -1.8291
  141OSM   H13C15417   3.804   3.957   7.578  0.1454 -0.7505  0.5970
  141OSM    C1215418   3.590   4.103   7.588 -0.1879 -0.4287  0.3246
  141OSM   H12A15419   3.488   4.117   7.621 -1.2108  0.5693 -2.9161
  141OSM   H12B15420   3.581   4.016   7.525 -0.8273 -1.2235  1.4705
  141OSM    C1115421   3.622   4.225   7.495 -0.3153  0.2592  0.6240
  141OSM   H11A15422   3.550   4.217   7.412 -0.2024 -1.4966  0.6712
  141OSM   H11B15423   3.720   4.201   7.448 -0.3584  3.0521 -1.1508
  141OSM      P15424   3.483   4.430   7.558 -0.4555 -0.4068 -0.2490
  141OSM    O1315425   3.379   4.339   7.623  0.1406  0.6925 -0.2110
  141OSM    O1415426   3.514   4.565   7.617  0.0235  0.1892  0.1467
  141OSM    O1115427   3.443   4.444   7.405 -0.2672 -0.4796  0.1630
  141OSM    O1215428   3.625   4.357   7.551 -0.2775 -0.1807  0.4028
  141OSM    C1S15429   3.531   4.493   7.303  0.9003  0.2200 -0.1187
  141OSM    H1S15430   3.580   4.407   7.254 -0.2278 -1.0731  0.9239
  141OSM    H1T15431   3.609   4.564   7.338 -1.3425  2.1907  1.2328
  141OSM     NF15432   3.504   4.571   7.064  0.2899 -0.1628 -0.1727
  141OSM    HNF15433   3.544   4.659   7.040  1.8827 -0.8813 -0.2726
  141OSM    C2S15434   3.449   4.571   7.198  0.0748 -0.0649 -0.2204
  141OSM    H2S15435   3.358   4.511   7.176 -0.1427  0.1996 -0.0473
  141OSM    C3S15436   3.402   4.710   7.241  0.9022 -0.0238 -0.0026
  141OSM    H3S15437   3.494   4.771   7.239  1.0366 -0.0981  1.8614
  141OSM     O315438   3.343   4.713   7.372  0.0236  0.0383  0.4945
  141OSM    HO315439   3.373   4.628   7.405 -1.2001 -0.4332  0.4377
  141OSM    C4S15440   3.315   4.783   7.143  0.7339  0.5943  0.2249
  141OSM    H4S15441   3.360   4.827   7.053 -0.2687 -1.9423 -1.6380
  141OSM    C5S15442   3.185   4.780   7.145  0.7639  0.2331  0.7225
  141OSM    H5S15443   3.139   4.718   7.223 -1.6052 -0.1802 -0.8853
  141OSM    C6S15444   3.086   4.834   7.042  0.0786 -0.7678  0.3302
  141OSM    H6S15445   3.038   4.924   7.086  1.4508  0.7275 -1.0935
  141OSM    H6T15446   3.005   4.763   7.014  0.4973 -0.2484 -2.4213
  141OSM    C7S15447   3.138   4.894   6.909  0.0697  0.3382  0.2928
  141OSM    H7S15448   3.177   4.813   6.844 -1.9409  0.1747 -0.7937
  141OSM    H7T15449   3.221   4.967   6.919  1.3019 -0.1355 -4.3191
  141OSM    C8S15450   3.030   4.981   6.839 -0.2338  0.1603  0.2418
  141OSM    H8S15451   3.023   5.081   6.886 -3.4140 -0.0968  0.5151
  141OSM    H8T15452   2.930   4.936   6.855 -0.2672  0.0869 -0.1759
  141OSM    C9S15453   3.072   5.005   6.693 -0.0350  0.4884  0.5129
  141OSM    H9S15454   3.100   4.906   6.650 -2.6636  0.6252 -1.8689
  141OSM    H9T15455   3.166   5.064   6.697  0.2381  0.2728 -1.4674
  141OSM   C10S15456   2.965   5.076   6.608 -0.8994 -0.2897  0.3246
  141OSM   H10S15457   2.961   5.185   6.626 -3.1121 -0.5008  1.4338
  141OSM   H10T15458   2.867   5.032   6.636 -0.9861 -0.5707 -0.4036
  141OSM   C11S15459   3.000   5.067   6.457 -0.1876 -0.0201  0.4121
  141OSM   H11S15460   3.109   5.084   6.446 -0.5816  1.5323 -1.4916
  141OSM   H11T15461   2.945   5.139   6.393 -1.3314  1.6515  3.1096
  141OSM   C12S15462   2.973   4.927   6.390 -0.2971 -0.2189  0.0651
  141OSM   H12S15463   2.869   4.899   6.418 -0.3168 -1.7794 -1.3670
  141OSM   H12T15464   3.037   4.846   6.432 -0.8615 -1.0808 -0.7020
  141OSM   C13S15465   2.989   4.933   6.238 -0.5986  0.4095 -0.0312
  141OSM   H13S15466   3.091   4.971   6.220  0.3363 -2.7901 -2.2295
  141OSM   H13T15467   2.916   5.008   6.202 -1.8756 -1.8049 -2.3428
  141OSM   C14S15468   2.968   4.805   6.173  0.3989  0.4104  0.2151
  141OSM   H14S15469   2.866   4.765   6.188  1.3806 -2.0442  0.8991
  141OSM   H14T15470   3.035   4.729   6.220  0.2409 -0.3561 -0.7647
  141OSM   C15S15471   3.004   4.827   6.030 -0.2666  0.3510 -0.2500
  141OSM   H15S15472   3.103   4.878   6.029 -0.1990  0.2090 -1.1151
  141OSM   H15T15473   2.935   4.885   5.966  0.9332  2.6562  0.4200
  141OSM   C16S15474   3.035   4.695   5.958  0.1705  0.3535  0.0039
  141OSM   H16S15475   2.946   4.629   5.960  3.1912 -4.3013 -1.5584
  141OSM   H16T15476   3.117   4.639   6.008  0.8814  1.1349 -0.2483
  141OSM   C17S15477   3.079   4.720   5.813  0.3082 -0.1157  0.7369
  141OSM   H17S15478   3.164   4.792   5.802 -1.5398  1.8968 -1.5687
  141OSM   H17T15479   2.988   4.765   5.769  1.1801  1.5939  0.5652
  141OSM   C18S15480   3.103   4.603   5.714  0.8916  0.0194 -0.8562
  141OSM   H18S15481   3.104   4.631   5.607 -2.4081  0.1498 -0.9418
  141OSM   H18T15482   3.013   4.538   5.726  0.0845  1.4737  1.7910
  141OSM   H18U15483   3.188   4.538   5.746  0.0944 -2.3290 -3.1604
  141OSM    C1F15484   3.510   4.463   6.991  0.1593 -0.0436  0.7501
  141OSM     OF15485   3.441   4.366   7.024  0.1601 -0.2774 -0.3278
  141OSM    C2F15486   3.583   4.470   6.866  0.2860 -0.4784 -0.1342
  141OSM    H2F15487   3.678   4.524   6.886 -1.1585  1.3670  2.3785
  141OSM    H2G15488   3.531   4.543   6.800 -1.1842 -0.7205  0.7033
  141OSM    C3F15489   3.626   4.333   6.798  0.0030  0.6844 -0.0203
  141OSM    H3F15490   3.541   4.262   6.784  1.4614 -1.4410  1.4271
  141OSM    H3G15491   3.697   4.281   6.865  0.1266  1.1040  0.1731
  141OSM    C4F15492   3.694   4.352   6.662 -0.0431  0.2104  0.3408
  141OSM    H4F15493   3.760   4.268   6.630 -1.0833 -0.6320  0.3490
  141OSM    H4G15494   3.768   4.434   6.663 -0.8051  0.9710 -1.6846
  141OSM    C5F15495   3.594   4.381   6.558  0.6667  0.3012  0.3569
  141OSM    H5F15496   3.539   4.470   6.595  0.7832 -0.3043  2.0746
  141OSM    H5G15497   3.507   4.313   6.544  0.9800 -0.1391  0.5406
  141OSM    C6F15498   3.643   4.411   6.420  0.1504 -0.5884  0.4812
  141OSM    H6F15499   3.720   4.486   6.449 -2.6659  2.9973 -0.5613
  141OSM    H6G15500   3.575   4.471   6.356  3.2116  1.1842 -1.3852
  141OSM    C7F15501   3.713   4.293   6.344  0.3162 -0.1136 -0.2051
  141OSM    H7F15502   3.637   4.215   6.321  1.2862 -1.1414 -0.0346
  141OSM    H7G15503   3.788   4.241   6.408  1.7755  1.9837 -0.1079
  141OSM    C8F15504   3.796   4.345   6.222 -0.1235  0.2606  0.0296
  141OSM    H8F15505   3.858   4.434   6.243  0.5240 -0.3565  0.8365
  141OSM    H8G15506   3.709   4.384   6.165 -1.4885 -0.3739  1.5750
  141OSM    C9F15507   3.875   4.235   6.159 -0.4385 -0.6695  0.1781
  141OSM    H9F15508   3.930   4.172   6.231  0.2081 -1.3230 -0.8623
  141OSM   C10F15509   3.872   4.206   6.027 -0.7276  0.4541  0.1036
  141OSM   H10F15510   3.925   4.111   6.008 -2.2783 -0.3725 -0.2835
  141OSM   C11F15511   3.809   4.264   5.916  0.8483 -0.0633  0.2405
  141OSM   H11F15512   3.726   4.331   5.947  1.0613  0.6368 -0.6738
  141OSM   H11G15513   3.778   4.186   5.843 -0.7727  0.5690  0.2307
  141OSM   C12F15514   3.918   4.351   5.858 -0.2902  0.2086 -0.1406
  141OSM   H12F15515   4.014   4.295   5.850  0.5036  1.7301 -2.2674
  141OSM   H12G15516   3.930   4.442   5.920  0.8224 -1.2000  1.8500
  141OSM   C13F15517   3.880   4.392   5.712  0.0994  0.0070  0.1047
  141OSM   H13F15518   3.856   4.298   5.658  0.2876  0.6232 -1.0934
  141OSM   H13G15519   3.965   4.439   5.658  2.1632  0.7901  3.7206
  141OSM   C14F15520   3.755   4.486   5.709  0.1432 -0.2929  0.0217
  141OSM   H14F15521   3.797   4.579   5.752  0.4499 -0.9603  1.2347
  141OSM   H14G15522   3.677   4.437   5.771 -0.5951 -0.5089 -1.0334
  141OSM   C15F15523   3.709   4.518   5.565  0.3668 -0.1190  0.2535
  141OSM   H15F15524   3.793   4.566   5.510  0.9243 -1.1562  0.1680
  141OSM   H15G15525   3.624   4.588   5.579  1.5647  0.8683  3.3759
  141OSM   C16F15526   3.666   4.398   5.476 -0.6792 -0.4920 -0.2210
  141OSM   H16F15527   3.587   4.344   5.533 -1.5545 -0.1998 -1.1359
  141OSM   H16G15528   3.757   4.338   5.457  0.7041  1.1671  0.8347
  141OSM   C17F15529   3.611   4.427   5.335 -0.6219 -0.5396 -0.6304
  141OSM   H17F15530   3.602   4.335   5.274 -1.3186 -0.7237 -0.2634
  141OSM   H17G15531   3.675   4.499   5.278 -1.1300 -0.0662 -0.6109
  141OSM   C18F15532   3.473   4.501   5.338  0.6539 -0.0749  0.4707
  141OSM   H18F15533   3.434   4.493   5.234  0.3307  4.2414  0.1067
  141OSM   H18G15534   3.474   4.607   5.369 -0.0870 -0.2001  0.9340
  141OSM   H18H15535   3.395   4.450   5.399 -0.8472 -0.1217 -1.4059
  142OSM      N15536   2.703   4.501   7.613 -0.2656  0.2919 -0.0468
  142OSM    C1515537   2.609   4.597   7.543  0.5421 -0.4763 -0.2382
  142OSM   H15A15538   2.632   4.605   7.438  1.9814  0.6851  0.1379
  142OSM   H15B15539   2.627   4.693   7.590 -0.0810 -2.0815  3.6637
  142OSM   H15C15540   2.505   4.577   7.567  0.5723  0.4227  0.7544
  142OSM    C1415541   2.847   4.532   7.571 -0.4613 -0.0358  0.1393
  142OSM   H14A15542   2.868   4.631   7.609 -0.1580  0.3505 -0.9832
  142OSM   H14B15543   2.850   4.529   7.463 -0.5166 -0.8450  0.1549
  142OSM   H14C15544   2.907   4.453   7.613 -2.6437 -3.4229 -2.4844
  142OSM    C1315545   2.688   4.495   7.759 -0.4503  0.2440 -0.6203
  142OSM   H13A15546   2.693   4.594   7.803  1.1428  0.1252 -0.4812
  142OSM   H13B15547   2.771   4.434   7.792 -0.8062 -2.1250 -3.5982
  142OSM   H13C15548   2.588   4.458   7.774 -0.3115  0.6789  1.8164
  142OSM    C1215549   2.669   4.362   7.566 -0.2683 -0.0263  0.3330
  142OSM   H12A15550   2.692   4.358   7.461  1.4333  2.7028  0.5011
  142OSM   H12B15551   2.563   4.348   7.573 -0.3408  0.8211  1.1194
  142OSM    C1115552   2.725   4.237   7.638 -0.0932 -0.5065 -0.1369
  142OSM   H11A15553   2.686   4.146   7.587  1.1423 -0.2409 -1.6296
  142OSM   H11B15554   2.695   4.227   7.744  0.0841 -1.0121 -0.1284
  142OSM      P15555   2.956   4.150   7.542  0.1249  0.1351  0.0064
  142OSM    O1315556   3.054   4.083   7.622 -0.1369  0.2987 -0.4668
  142OSM    O1415557   2.859   4.069   7.466  0.8052 -0.5593  0.0680
  142OSM    O1115558   3.022   4.264   7.456  0.4887  0.2059  0.4272
  142OSM    O1215559   2.871   4.240   7.633  0.6676  0.3150  0.3555
  142OSM    C1S15560   3.152   4.239   7.388  0.3656  0.1341 -0.4366
  142OSM    H1S15561   3.181   4.133   7.399 -0.5606 -0.1454 -0.5719
  142OSM    H1T15562   3.226   4.303   7.440 -1.0297  0.3021  1.4426
  142OSM     NF15563   3.258   4.200   7.165 -0.9912 -0.2419  0.3142
  142OSM    HNF15564   3.315   4.257   7.106 -1.2445  0.6977  0.9349
  142OSM    C2S15565   3.139   4.258   7.235 -0.3864  0.8970  0.7575
  142OSM    H2S15566   3.047   4.209   7.196  0.5138  0.8035 -1.3953
  142OSM    C3S15567   3.108   4.413   7.206 -0.0468 -0.3155  0.2315
  142OSM    H3S15568   3.194   4.457   7.261 -1.0534 -0.7295  2.2182
  142OSM     O315569   2.997   4.462   7.278  0.5588 -0.5109 -0.0339
  142OSM    HO315570   2.983   4.394   7.344  3.5400 -0.9872  0.2310
  142OSM    C4S15571   3.092   4.440   7.059  0.4144  0.1485 -0.1209
  142OSM    H4S15572   3.181   4.484   7.013 -0.4346  0.6475 -1.3289
  142OSM    C5S15573   2.976   4.405   6.992 -0.5275 -0.4737 -0.0542
  142OSM    H5S15574   2.900   4.357   7.056 -0.7356 -0.9269 -0.6292
  142OSM    C6S15575   2.949   4.420   6.843 -0.2029  0.8081 -0.1146
  142OSM    H6S15576   2.847   4.463   6.838 -0.6685 -0.0474  1.3485
  142OSM    H6T15577   2.962   4.328   6.782 -1.6182  1.2097 -1.0713
  142OSM    C7S15578   3.042   4.521   6.784  0.1765  0.1230 -0.5602
  142OSM    H7S15579   3.145   4.480   6.791  0.0802 -0.0534 -0.1259
  142OSM    H7T15580   3.029   4.613   6.845 -1.6208 -1.4419  1.5317
  142OSM    C8S15581   3.010   4.562   6.641 -0.3654  0.0366  0.1999
  142OSM    H8S15582   3.073   4.651   6.618  1.2194 -0.8815  0.8160
  142OSM    H8T15583   2.905   4.597   6.626 -0.0497  1.0044  0.1535
  142OSM    C9S15584   3.043   4.450   6.535 -0.0929 -0.8144  0.0235
  142OSM    H9S15585   2.979   4.360   6.548  0.8166 -1.2913  1.4959
  142OSM    H9T15586   3.141   4.402   6.558  0.7929  0.3343 -1.2103
  142OSM   C10S15587   3.049   4.507   6.399 -0.4432 -0.1280  0.0133
  142OSM   H10S15588   3.100   4.606   6.401 -0.9833  0.1368  0.8981
  142OSM   H10T15589   2.944   4.529   6.371 -0.2258  1.0429  0.0622
  142OSM   C11S15590   3.107   4.409   6.294  0.8633 -0.4531  0.0624
  142OSM   H11S15591   3.112   4.464   6.197 -1.0585 -1.3834 -0.6044
  142OSM   H11T15592   3.036   4.325   6.284 -0.4041  0.6288 -0.2412
  142OSM   C12S15593   3.245   4.360   6.315  0.4456 -0.2786  0.3475
  142OSM   H12S15594   3.242   4.285   6.397 -2.5304 -1.0976 -0.3977
  142OSM   H12T15595   3.307   4.447   6.346 -0.1267  0.4681 -0.5714
  142OSM   C13S15596   3.308   4.289   6.192 -0.6273 -0.4930 -0.7364
  142OSM   H13S15597   3.234   4.215   6.152 -2.3381 -0.2862  1.7854
  142OSM   H13T15598   3.398   4.237   6.229  0.1378  1.0294 -0.3961
  142OSM   C14S15599   3.354   4.398   6.091 -0.2382  0.1979 -0.0397
  142OSM   H14S15600   3.424   4.467   6.144  1.1556 -1.7840  0.8265
  142OSM   H14T15601   3.265   4.460   6.067  0.2590  0.8491 -0.2380
  142OSM   C15S15602   3.413   4.333   5.970  0.3608  0.2976  0.1957
  142OSM   H15S15603   3.483   4.252   5.999  2.0668  1.6635  0.0352
  142OSM   H15T15604   3.479   4.410   5.926 -2.1418  2.4569 -0.0612
  142OSM   C16S15605   3.307   4.270   5.873  0.1459  0.3748 -0.5536
  142OSM   H16S15606   3.247   4.354   5.833  0.3143  0.0077 -1.6172
  142OSM   H16T15607   3.236   4.203   5.925  0.4854  0.9375  0.6722
  142OSM   C17S15608   3.383   4.193   5.765  0.2926  0.0074  0.2976
  142OSM   H17S15609   3.430   4.106   5.815 -0.5487 -0.9027 -0.4563
  142OSM   H17T15610   3.471   4.259   5.745 -0.3996  1.4746  1.9121
  142OSM   C18S15611   3.310   4.133   5.644 -0.4398 -0.2773  0.1344
  142OSM   H18S15612   3.360   4.047   5.596 -0.5871  0.8525 -2.1907
  142OSM   H18T15613   3.311   4.217   5.571  0.3797 -0.5361 -0.1593
  142OSM   H18U15614   3.201   4.114   5.660 -0.4069 -0.2561  0.3932
  142OSM    C1F15615   3.271   4.072   7.157  0.1651 -0.2948 -0.3928
  142OSM     OF15616   3.167   4.008   7.188 -0.1716 -0.2318 -0.0485
  142OSM    C2F15617   3.405   4.014   7.112  0.3540  0.2255  0.3258
  142OSM    H2F15618   3.468   3.994   7.201  0.2503  1.9952  0.8410
  142OSM    H2G15619   3.465   4.092   7.061 -1.1417  2.3887  1.6971
  142OSM    C3F15620   3.381   3.873   7.049 -0.3178  0.3349  0.0895
  142OSM    H3F15621   3.325   3.865   6.953  0.7064 -0.2310 -0.4805
  142OSM    H3G15622   3.322   3.805   7.113 -2.7104  1.0788 -1.1967
  142OSM    C4F15623   3.515   3.794   7.033 -0.2308  0.0476  0.6505
  142OSM    H4F15624   3.488   3.687   7.018  0.5852  0.0545 -1.0866
  142OSM    H4G15625   3.570   3.813   7.127  0.5204 -0.2077  0.2757
  142OSM    C5F15626   3.616   3.840   6.929  0.7046  0.1815 -0.0796
  142OSM    H5F15627   3.705   3.776   6.947  0.2364 -1.2444 -2.4649
  142OSM    H5G15628   3.641   3.947   6.941 -0.4606  0.6870 -1.7720
  142OSM    C6F15629   3.569   3.811   6.787  0.1642  0.5335  0.5521
  142OSM    H6F15630   3.466   3.852   6.778  0.1642  0.1303 -2.3095
  142OSM    H6G15631   3.551   3.702   6.776  1.6809  0.3775 -0.6579
  142OSM    C7F15632   3.660   3.858   6.674 -0.0518 -0.3128 -0.3865
  142OSM    H7F15633   3.758   3.809   6.691 -0.0674 -0.3119 -0.2895
  142OSM    H7G15634   3.683   3.967   6.676 -0.1274 -0.2767 -1.2529
  142OSM    C8F15635   3.622   3.833   6.527 -0.5938 -0.5111  0.3100
  142OSM    H8F15636   3.544   3.912   6.516 -0.5700 -0.4004  0.9165
  142OSM    H8G15637   3.582   3.730   6.518 -1.8755 -0.0802  0.8151
  142OSM    C9F15638   3.723   3.853   6.423  0.1145 -0.8223  0.6505
  142OSM    H9F15639   3.826   3.841   6.460 -0.8982 -1.2786  3.5757
  142OSM   C10F15640   3.697   3.882   6.297 -0.0226 -0.9971  0.5580
  142OSM   H10F15641   3.783   3.896   6.230 -1.1891 -0.1453 -0.8364
  142OSM   C11F15642   3.558   3.890   6.250  0.4751  0.3163  1.2366
  142OSM   H11F15643   3.520   3.995   6.247 -0.8736 -0.1730 -1.1866
  142OSM   H11G15644   3.494   3.825   6.314 -0.4073  0.8541  0.9212
  142OSM   C12F15645   3.558   3.831   6.106 -0.0395  0.2456  0.6323
  142OSM   H12F15646   3.459   3.797   6.072  0.8753 -1.1388 -0.7639
  142OSM   H12G15647   3.616   3.736   6.104  0.5321  0.5580  1.4253
  142OSM   C13F15648   3.613   3.932   5.998 -0.2132  0.2224 -0.1164
  142OSM   H13F15649   3.720   3.951   6.018 -0.8424  2.3537  1.5780
  142OSM   H13G15650   3.566   4.033   6.006  2.3870  1.6261 -1.3371
  142OSM   C14F15651   3.597   3.900   5.853 -0.2501  0.1060  0.5057
  142OSM   H14F15652   3.636   3.982   5.789  0.0799 -1.4945 -1.4657
  142OSM   H14G15653   3.487   3.902   5.835 -0.1631  3.2556 -0.4327
  142OSM   C15F15654   3.663   3.767   5.808  0.8198 -0.1869 -0.5854
  142OSM   H15F15655   3.602   3.683   5.848 -0.4962  0.0478 -2.0089
  142OSM   H15G15656   3.765   3.769   5.851  0.8879  1.4532 -0.7569
  142OSM   C16F15657   3.683   3.756   5.660 -0.4018 -0.8977  0.3667
  142OSM   H16F15658   3.745   3.844   5.633  1.1756 -1.5791  1.5387
  142OSM   H16G15659   3.590   3.766   5.601  0.4335  1.8303 -0.6569
  142OSM   C17F15660   3.749   3.627   5.616 -0.5110  0.4987  0.0429
  142OSM   H17F15661   3.703   3.540   5.668 -0.9666  0.5226 -0.3162
  142OSM   H17G15662   3.853   3.630   5.655 -0.4807 -2.6414  0.4904
  142OSM   C18F15663   3.757   3.612   5.465  0.8808 -0.1130 -0.0854
  142OSM   H18F15664   3.653   3.612   5.427  0.5077  0.1262  0.8858
  142OSM   H18G15665   3.826   3.532   5.432  2.4580 -0.0794  2.7452
  142OSM   H18H15666   3.810   3.705   5.433  1.4415 -0.7531 -1.0533
  143OSM      N15667   0.183   0.781   6.953  0.4399 -0.0745 -0.7063
  143OSM    C1515668   0.185   0.921   7.012  0.5454 -0.1656 -0.7328
  143OSM   H15A15669   0.284   0.964   7.024 -1.3734  4.7806 -0.3149
  143OSM   H15B15670   0.142   0.926   7.111  0.2789 -2.4177 -0.6798
  143OSM   H15C15671   0.139   0.993   6.946  1.7602  0.6515 -0.7238
  143OSM    C1415672   0.266   0.688   7.038  0.4461  0.4085 -0.4951
  143OSM   H14A15673   0.370   0.717   7.045  0.7239 -0.3889 -1.1439
  143OSM   H14B15674   0.283   0.592   6.990  2.5547  0.9278 -0.8866
  143OSM   H14C15675   0.230   0.680   7.139 -2.9407  2.5100 -1.3803
  143OSM    C1315676   0.043   0.717   6.953  0.1459 -0.3421 -0.3810
  143OSM   H13A15677  -0.026   0.779   6.898 -1.2284 -0.7670  0.8032
  143OSM   H13B15678   0.008   0.698   7.054 -1.1091  2.2584 -0.2325
  143OSM   H13C15679   0.058   0.621   6.907  1.1458 -1.0003  1.2336
  143OSM    C1215680   0.224   0.776   6.810 -0.2783 -0.1945  0.1035
  143OSM   H12A15681   0.145   0.834   6.764 -1.4881 -1.3459  0.6654
  143OSM   H12B15682   0.232   0.676   6.771  1.2118 -0.8484  1.9561
  143OSM    C1115683   0.361   0.839   6.777  0.2136  0.4482 -0.7502
  143OSM   H11A15684   0.348   0.948   6.792 -1.7677 -0.0800  2.5272
  143OSM   H11B15685   0.378   0.822   6.669 -1.2357 -1.1828 -0.7753
  143OSM      P15686   0.564   0.673   6.818  0.4359  0.2835  0.0381
  143OSM    O1315687   0.681   0.678   6.910 -0.2106 -0.2889 -0.4411
  143OSM    O1415688   0.489   0.543   6.814 -0.1788 -0.5558  0.3926
  143OSM    O1115689   0.616   0.701   6.671 -0.3126  0.5621  0.3888
  143OSM    O1215690   0.463   0.792   6.869 -0.0517  0.2713  0.2540
  143OSM    C1S15691   0.704   0.813   6.643 -0.3275  0.6977  0.0925
  143OSM    H1S15692   0.783   0.822   6.721 -1.4070 -3.0394  1.8587
  143OSM    H1T15693   0.650   0.910   6.654 -0.8793  0.4311 -0.2235
  143OSM     NF15694   0.864   0.920   6.491 -0.0921 -0.8337 -0.0921
  143OSM    HNF15695   0.831   0.997   6.437  1.4980  0.7744  1.1072
  143OSM    C2S15696   0.760   0.822   6.497 -0.2000  0.1253 -0.6422
  143OSM    H2S15697   0.800   0.721   6.474 -1.0115 -0.0509 -1.3279
  143OSM    C3S15698   0.654   0.838   6.382 -0.3073  0.1124 -0.2463
  143OSM    H3S15699   0.607   0.934   6.409  0.0733  0.1129  0.4460
  143OSM     O315700   0.549   0.743   6.389 -0.0101  0.1233 -0.1721
  143OSM    HO315701   0.555   0.713   6.479  3.5944  1.9178  0.3526
  143OSM    C4S15702   0.720   0.855   6.245  0.0333  0.8635 -0.4401
  143OSM    H4S15703   0.736   0.962   6.227 -0.0344  0.7380 -1.2891
  143OSM    C5S15704   0.734   0.760   6.154 -1.6366 -0.4916  0.0149
  143OSM    H5S15705   0.687   0.665   6.184 -3.3769  0.3483  0.1175
  143OSM    C6S15706   0.783   0.772   6.016 -0.2375  0.0476  0.5060
  143OSM    H6S15707   0.877   0.718   5.993 -0.8025  0.1478 -2.3609
  143OSM    H6T15708   0.799   0.879   5.990 -1.5307  1.2816  4.0948
  143OSM    C7S15709   0.679   0.716   5.920  0.0412 -0.4185 -0.1083
  143OSM    H7S15710   0.581   0.759   5.948  0.8543  2.8362 -1.7443
  143OSM    H7T15711   0.679   0.605   5.928 -2.3957 -0.4456  0.0538
  143OSM    C8S15712   0.699   0.756   5.767 -0.4338  0.4671 -0.1654
  143OSM    H8S15713   0.727   0.863   5.766  1.3569  0.1743  3.2974
  143OSM    H8T15714   0.608   0.731   5.708 -0.1262 -0.2085 -0.3647
  143OSM    C9S15715   0.811   0.662   5.708  0.3549 -0.5528  0.7545
  143OSM    H9S15716   0.780   0.555   5.706 -1.5679 -0.0634  1.8920
  143OSM    H9T15717   0.900   0.672   5.774  2.1598  1.4475 -1.7867
  143OSM   C10S15718   0.848   0.710   5.570 -0.3388 -0.6206  0.2293
  143OSM   H10S15719   0.909   0.802   5.580  0.3957 -1.0036 -0.6247
  143OSM   H10T15720   0.753   0.732   5.516 -1.8286 -5.5548  0.3617
  143OSM   C11S15721   0.924   0.611   5.489 -0.1492 -1.0667 -0.1544
  143OSM   H11S15722   0.856   0.524   5.479  0.6350 -2.0225  2.2398
  143OSM   H11T15723   1.008   0.564   5.545  1.7917  2.3981  0.1353
  143OSM   C12S15724   0.974   0.672   5.358 -0.6778  0.1922  0.0200
  143OSM   H12S15725   1.049   0.747   5.390  0.7564 -1.0917 -0.1981
  143OSM   H12T15726   0.897   0.732   5.306 -0.0935  0.8631 -0.0766
  143OSM   C13S15727   1.046   0.581   5.264  0.2917  0.3593 -0.3864
  143OSM   H13S15728   0.984   0.498   5.225 -0.3082  0.0323  1.2042
  143OSM   H13T15729   1.139   0.532   5.302  0.2621 -0.3880 -1.2495
  143OSM   C14S15730   1.105   0.653   5.141 -0.3009 -0.5846 -0.1869
  143OSM   H14S15731   1.186   0.596   5.091  2.0669  2.4763 -0.1694
  143OSM   H14T15732   1.168   0.733   5.185 -2.8679  1.4432  0.0868
  143OSM   C15S15733   0.991   0.718   5.057 -0.4422 -0.0255  0.2688
  143OSM   H15S15734   0.917   0.773   5.118 -0.0672  0.5071  0.2421
  143OSM   H15T15735   0.931   0.639   5.006 -0.1852  0.4423 -0.8025
  143OSM   C16S15736   1.041   0.812   4.938 -0.3781  0.7813 -0.2730
  143OSM   H16S15737   1.140   0.772   4.910 -0.7059  0.9376 -1.6964
  143OSM   H16T15738   1.053   0.913   4.985 -2.3637  0.1077  1.9144
  143OSM   C17S15739   0.960   0.805   4.810  0.2015  0.3763 -0.0753
  143OSM   H17S15740   0.865   0.858   4.829  0.3864  0.5353  0.4076
  143OSM   H17T15741   0.947   0.698   4.781  1.6515  0.7056 -2.1422
  143OSM   C18S15742   1.024   0.867   4.683  0.0106 -0.1227 -0.1570
  143OSM   H18S15743   1.093   0.949   4.713 -1.4246  0.3816  1.9867
  143OSM   H18T15744   0.951   0.891   4.604 -1.7383  0.6961  1.6184
  143OSM   H18U15745   1.097   0.791   4.647  0.8521  0.3774  0.4381
  143OSM    C1F15746   0.976   0.920   6.566 -0.2912 -0.3657  0.7527
  143OSM     OF15747   1.005   0.812   6.620 -0.3881  0.1263  0.6279
  143OSM    C2F15748   1.041   1.054   6.577  0.1439  0.2076  0.1702
  143OSM    H2F15749   1.041   1.083   6.684 -2.7787 -0.0949  0.3343
  143OSM    H2G15750   0.978   1.131   6.527  1.3478  1.2858  0.2473
  143OSM    C3F15751   1.184   1.060   6.520 -0.3509 -0.2990 -0.4857
  143OSM    H3F15752   1.245   0.983   6.573 -0.7437  0.1700  0.6786
  143OSM    H3G15753   1.230   1.159   6.537  1.4873 -1.0562 -0.7927
  143OSM    C4F15754   1.191   1.022   6.372  0.3195 -0.2508  0.1021
  143OSM    H4F15755   1.175   1.125   6.335 -2.3249 -0.4150  0.5797
  143OSM    H4G15756   1.101   0.962   6.344 -1.1385  2.0870 -0.5886
  143OSM    C5F15757   1.325   0.974   6.334  0.2151 -0.2142  0.4107
  143OSM    H5F15758   1.324   0.866   6.360  2.1634 -0.5794 -0.7766
  143OSM    H5G15759   1.406   1.031   6.386 -1.0414  0.9212  1.2043
  143OSM    C6F15760   1.339   0.988   6.182 -0.3779  0.2133 -0.2152
  143OSM    H6F15761   1.298   1.089   6.161  0.6165  0.6354 -0.1408
  143OSM    H6G15762   1.264   0.917   6.140  1.4620 -0.1065 -3.2847
  143OSM    C7F15763   1.479   0.974   6.113 -0.5678 -0.0184 -0.2368
  143OSM    H7F15764   1.536   0.888   6.154  1.5476  1.8108  0.8896
  143OSM    H7G15765   1.533   1.069   6.134 -2.6532  1.0411  0.5762
  143OSM    C8F15766   1.467   0.965   5.962 -0.5383  0.3008  0.1117
  143OSM    H8F15767   1.407   1.052   5.927  3.3003  2.1493 -2.5541
  143OSM    H8G15768   1.411   0.878   5.924  1.5550 -0.3098 -1.8170
  143OSM    C9F15769   1.599   0.967   5.892  1.4908  0.4424  0.3716
  143OSM    H9F15770   1.662   0.878   5.911 -0.1334 -0.6009  1.0661
  143OSM   C10F15771   1.640   1.058   5.800 -0.0903  0.1138 -0.5063
  143OSM   H10F15772   1.735   1.039   5.749 -0.1753 -4.0896  0.5606
  143OSM   C11F15773   1.566   1.173   5.751 -0.7249 -0.6331 -0.3492
  143OSM   H11F15774   1.605   1.267   5.794  0.4554 -1.1921 -0.1519
  143OSM   H11G15775   1.457   1.171   5.771 -0.7054 -1.4819 -0.2917
  143OSM   C12F15776   1.590   1.189   5.602 -0.1642  0.0948  0.4436
  143OSM   H12F15777   1.564   1.100   5.541 -0.3632  0.1954  0.3821
  143OSM   H12G15778   1.697   1.206   5.578 -0.9325  1.8871 -2.1606
  143OSM   C13F15779   1.518   1.315   5.557 -0.0776  0.3865 -0.0378
  143OSM   H13F15780   1.550   1.411   5.604 -3.9707  0.5430  2.7850
  143OSM   H13G15781   1.413   1.306   5.590  0.4648 -1.1530  1.3992
  143OSM   C14F15782   1.519   1.332   5.410  0.2718 -0.0303  0.4695
  143OSM   H14F15783   1.477   1.246   5.354  0.6110  0.7828 -1.0970
  143OSM   H14G15784   1.613   1.358   5.358 -0.4436  1.3016 -0.2233
  143OSM   C15F15785   1.418   1.446   5.365 -0.4586  0.1631 -0.2704
  143OSM   H15F15786   1.440   1.542   5.416 -0.3422 -0.2942  0.5644
  143OSM   H15G15787   1.321   1.412   5.406 -0.1059 -0.2825  0.2248
  143OSM   C16F15788   1.432   1.462   5.213  0.2339  0.6665  0.2474
  143OSM   H16F15789   1.404   1.370   5.158  0.3206  0.3160  0.7705
  143OSM   H16G15790   1.540   1.472   5.188  0.2743  1.8959  0.8203
  143OSM   C17F15791   1.362   1.581   5.152 -0.8255 -0.5784  0.0118
  143OSM   H17F15792   1.410   1.677   5.180 -1.0836  0.1517 -1.8588
  143OSM   H17G15793   1.262   1.576   5.199 -0.1386 -2.0394  1.3989
  143OSM   C18F15794   1.353   1.583   5.005  0.0810  0.6248  0.3689
  143OSM   H18F15795   1.295   1.670   4.968  3.6423  2.0399 -2.5695
  143OSM   H18G15796   1.304   1.491   4.970 -1.8957  1.9739 -0.5847
  143OSM   H18H15797   1.454   1.596   4.959 -0.0606  2.3684  0.4642
  144OSM      N15798   2.048   5.923   7.127  0.5826 -0.2311  0.1194
  144OSM    C1515799   2.070   6.060   7.063  0.2999  0.0210 -0.1397
  144OSM   H15A15800   2.003   6.071   6.979 -2.2006 -0.3383  1.7104
  144OSM   H15B15801   2.171   6.080   7.030 -0.3355  1.8574 -1.0804
  144OSM   H15C15802   2.040   6.139   7.130 -0.2370  1.8224 -2.3629
  144OSM    C1415803   2.122   5.823   7.050  0.7811 -0.0160  0.4329
  144OSM   H14A15804   2.082   5.815   6.950  2.5134 -1.1967 -0.2145
  144OSM   H14B15805   2.111   5.725   7.096  0.0037 -0.9850 -1.6730
  144OSM   H14C15806   2.227   5.847   7.044  0.3552  2.1271  0.6976
  144OSM    C1315807   2.102   5.926   7.268  0.0268  0.2829  0.1628
  144OSM   H13A15808   2.204   5.963   7.272 -0.1594  0.7926  3.9656
  144OSM   H13B15809   2.112   5.823   7.297  0.2184  0.1150 -0.5013
  144OSM   H13C15810   2.050   5.992   7.337  1.4213  1.2094  0.3888
  144OSM    C1215811   1.900   5.890   7.135  0.3443 -0.2607 -0.7343
  144OSM   H12A15812   1.852   5.947   7.213  2.3519  0.2219  0.2381
  144OSM   H12B15813   1.892   5.791   7.176  1.1983  0.6079  1.6699
  144OSM    C1115814   1.832   5.910   7.002  0.1588  0.1597  0.1428
  144OSM   H11A15815   1.861   5.823   6.940 -2.4174 -1.5709  1.1914
  144OSM   H11B15816   1.861   6.006   6.955  1.0773 -1.3870 -2.7095
  144OSM      P15817   1.581   5.815   6.986 -0.1114 -0.5717  0.1947
  144OSM    O1315818   1.640   5.684   6.962  0.1651 -0.5807 -0.0943
  144OSM    O1415819   1.462   5.823   7.071  0.3100 -0.7691 -0.1108
  144OSM    O1115820   1.563   5.871   6.842  0.3347  0.4226 -0.3856
  144OSM    O1215821   1.697   5.910   7.036  0.4438 -0.1271  0.0094
  144OSM    C1S15822   1.511   6.003   6.821  0.2535 -0.1139 -0.2432
  144OSM    H1S15823   1.566   6.078   6.882  0.3813  1.1947 -1.9036
  144OSM    H1T15824   1.405   6.003   6.854  0.5757  1.5293  0.9193
  144OSM     NF15825   1.472   6.184   6.649  0.0051  0.3845 -0.1708
  144OSM    HNF15826   1.378   6.184   6.615 -0.3855 -1.6300  0.8146
  144OSM    C2S15827   1.518   6.045   6.674 -0.1425  0.3992 -0.0595
  144OSM    H2S15828   1.626   6.042   6.648  0.1559 -0.1335  1.1825
  144OSM    C3S15829   1.441   5.946   6.580  0.4444 -0.3422  0.2608
  144OSM    H3S15830   1.336   5.979   6.586  0.6281  0.7102 -1.4528
  144OSM     O315831   1.450   5.808   6.603  0.4760 -0.5822  0.1678
  144OSM    HO315832   1.489   5.808   6.690  0.7175  0.1995  0.0680
  144OSM    C4S15833   1.465   5.970   6.428 -0.3417  0.1862 -0.3668
  144OSM    H4S15834   1.395   6.030   6.369  0.8352  0.2447 -1.7545
  144OSM    C5S15835   1.571   5.919   6.353 -0.3490  0.6789 -0.4653
  144OSM    H5S15836   1.642   5.850   6.400  0.3107  0.6959 -1.3950
  144OSM    C6S15837   1.585   5.955   6.208 -0.3558  0.5249 -0.4579
  144OSM    H6S15838   1.676   6.018   6.196  0.4523 -0.7571 -1.3008
  144OSM    H6T15839   1.496   6.001   6.161 -2.6571 -3.3069 -0.3427
  144OSM    C7S15840   1.603   5.828   6.121 -0.0947 -0.3031 -0.4240
  144OSM    H7S15841   1.523   5.756   6.149  0.2959 -0.1779  1.1257
  144OSM    H7T15842   1.698   5.779   6.152 -0.4380 -0.0003  1.2098
  144OSM    C8S15843   1.609   5.851   5.967  0.3489 -0.4552  0.4613
  144OSM    H8S15844   1.704   5.898   5.933  0.3576 -1.6779 -1.4251
  144OSM    H8T15845   1.516   5.909   5.947 -0.1950 -0.2923  3.1494
  144OSM    C9S15846   1.598   5.718   5.881 -0.4619 -0.2182 -1.1359
  144OSM    H9S15847   1.494   5.681   5.890 -1.1518  1.5156 -1.6990
  144OSM    H9T15848   1.669   5.644   5.924  0.0693  0.9062 -0.0019
  144OSM   C10S15849   1.618   5.749   5.736  0.0356  0.3254 -0.1256
  144OSM   H10S15850   1.716   5.800   5.725  1.8671 -2.7725  0.5507
  144OSM   H10T15851   1.544   5.819   5.692  1.1460  0.5349 -1.7247
  144OSM   C11S15852   1.627   5.630   5.645  0.2270 -0.8750 -0.1260
  144OSM   H11S15853   1.528   5.581   5.648  0.5065 -1.4244  0.2003
  144OSM   H11T15854   1.702   5.559   5.686 -0.2673 -1.7965 -0.7991
  144OSM   C12S15855   1.647   5.674   5.506 -0.0629  0.2585 -0.4044
  144OSM   H12S15856   1.755   5.699   5.491  0.9512 -2.4658  1.5996
  144OSM   H12T15857   1.584   5.762   5.479  1.4155  1.3822 -0.3654
  144OSM   C13S15858   1.624   5.563   5.396 -0.9066  0.6117 -0.9681
  144OSM   H13S15859   1.519   5.530   5.378 -0.4048 -1.5871 -0.1652
  144OSM   H13T15860   1.670   5.470   5.434 -0.5179  0.6988 -1.2225
  144OSM   C14S15861   1.681   5.602   5.261 -0.3819 -0.3662  0.6284
  144OSM   H14S15862   1.785   5.631   5.287  0.3587  1.1511 -3.3384
  144OSM   H14T15863   1.625   5.684   5.210  0.0247  1.0247  2.3058
  144OSM   C15S15864   1.692   5.481   5.175  0.6834 -0.0163  0.4968
  144OSM   H15S15865   1.591   5.454   5.138  1.1816  0.8163 -1.6379
  144OSM   H15T15866   1.752   5.408   5.234  1.5487  1.3544  1.3741
  144OSM   C16S15867   1.793   5.488   5.052  0.6024 -0.1450  0.3445
  144OSM   H16S15868   1.894   5.513   5.090  1.0884 -1.0834 -0.2921
  144OSM   H16T15869   1.767   5.568   4.978  1.6769 -1.4332 -1.5144
  144OSM   C17S15870   1.814   5.357   4.973 -0.2856 -0.6215  0.5958
  144OSM   H17S15871   1.863   5.279   5.034  0.9464  0.2606  0.7623
  144OSM   H17T15872   1.884   5.375   4.889 -1.8631 -3.3926 -1.4932
  144OSM   C18S15873   1.687   5.294   4.917 -0.2888  0.2708  0.5339
  144OSM   H18S15874   1.709   5.201   4.860  0.2347 -0.8004  2.4126
  144OSM   H18T15875   1.647   5.378   4.856 -0.2454  1.0565  1.5553
  144OSM   H18U15876   1.619   5.266   5.000 -0.4982  0.0798  0.3009
  144OSM    C1F15877   1.529   6.296   6.689  0.0917 -0.1401 -0.5633
  144OSM     OF15878   1.635   6.294   6.746 -0.1686  0.0866 -0.1052
  144OSM    C2F15879   1.463   6.425   6.665  0.4977 -0.7592  1.1546
  144OSM    H2F15880   1.464   6.495   6.752 -2.7698 -0.4197  1.0541
  144OSM    H2G15881   1.355   6.408   6.644  0.1492  2.6144 -0.6135
  144OSM    C3F15882   1.527   6.500   6.541  0.5797 -0.0625  0.5957
  144OSM    H3F15883   1.635   6.522   6.559  0.2726  4.0054 -1.2752
  144OSM    H3G15884   1.473   6.596   6.526 -2.5487 -1.1798  3.5080
  144OSM    C4F15885   1.522   6.426   6.402 -0.3366  0.3231  0.7644
  144OSM    H4F15886   1.415   6.395   6.394 -0.5362  0.8837  1.1853
  144OSM    H4G15887   1.580   6.331   6.401  1.0373  1.0555 -2.7556
  144OSM    C5F15888   1.580   6.511   6.283 -0.0856 -0.1610  0.1282
  144OSM    H5F15889   1.689   6.529   6.299 -0.5843  2.3985  1.1657
  144OSM    H5G15890   1.534   6.612   6.291 -2.5730 -1.3607  2.4684
  144OSM    C6F15891   1.564   6.439   6.148 -0.3481 -0.0602 -0.1870
  144OSM    H6F15892   1.458   6.409   6.135  0.1614 -1.8102 -0.4370
  144OSM    H6G15893   1.618   6.345   6.168  0.3786  1.0176  4.0926
  144OSM    C7F15894   1.621   6.509   6.021  0.1368  0.4232  0.1293
  144OSM    H7F15895   1.729   6.502   6.043 -0.2766 -1.2515  1.9043
  144OSM    H7G15896   1.595   6.617   6.031 -1.7012 -0.1166  1.5972
  144OSM    C8F15897   1.586   6.454   5.879  0.3759 -0.0842  0.4909
  144OSM    H8F15898   1.653   6.496   5.800 -0.4981 -0.8251 -0.6774
  144OSM    H8G15899   1.489   6.492   5.841  0.8343 -0.7678 -1.4621
  144OSM    C9F15900   1.595   6.304   5.877 -0.1391 -0.1216  0.2235
  144OSM    H9F15901   1.641   6.260   5.967  2.4120  4.8836  1.7936
  144OSM   C10F15902   1.546   6.228   5.774 -0.8335  0.6684 -0.3674
  144OSM   H10F15903   1.561   6.120   5.788  2.0703  1.0688  0.3458
  144OSM   C11F15904   1.495   6.289   5.645 -0.4274 -0.5002  0.0624
  144OSM   H11F15905   1.497   6.399   5.651 -0.2826 -0.5607  1.1816
  144OSM   H11G15906   1.387   6.267   5.632 -0.7487 -0.4974  2.4052
  144OSM   C12F15907   1.580   6.257   5.517  0.2009  0.0402 -0.0772
  144OSM   H12F15908   1.579   6.147   5.500  1.6460  0.0522 -0.3790
  144OSM   H12G15909   1.684   6.287   5.540  0.5032 -0.2210 -1.0708
  144OSM   C13F15910   1.523   6.320   5.392 -0.3812 -0.1464 -0.0413
  144OSM   H13F15911   1.533   6.430   5.408  0.8365  0.1435 -2.3525
  144OSM   H13G15912   1.417   6.288   5.381 -0.5034 -0.3252  1.5299
  144OSM   C14F15913   1.604   6.283   5.262  0.0698  0.1055  0.3555
  144OSM   H14F15914   1.700   6.337   5.276 -0.2741  0.3932  1.7238
  144OSM   H14G15915   1.544   6.324   5.178 -1.1351 -0.3088  0.9962
  144OSM   C15F15916   1.607   6.124   5.237  0.0953  0.4219  0.4981
  144OSM   H15F15917   1.502   6.087   5.230  0.7079 -1.1309 -1.2985
  144OSM   H15G15918   1.645   6.074   5.329 -0.0226  0.2400  0.4474
  144OSM   C16F15919   1.685   6.085   5.109 -0.5351  0.0046 -0.1929
  144OSM   H16F15920   1.795   6.070   5.121 -0.8150 -1.4465  0.8460
  144OSM   H16G15921   1.684   6.173   5.042  1.4971  0.2092 -0.0322
  144OSM   C17F15922   1.631   5.965   5.025  0.3841  0.3606  0.3633
  144OSM   H17F15923   1.542   5.987   4.963  0.1791 -1.2760  0.0559
  144OSM   H17G15924   1.595   5.897   5.105  0.1530  0.1942  0.1175
  144OSM   C18F15925   1.739   5.898   4.930 -0.0707 -0.0791  0.2910
  144OSM   H18F15926   1.789   5.981   4.876 -0.4395  0.2401  0.4280
  144OSM   H18G15927   1.688   5.841   4.850  0.7889 -0.3873 -0.0457
  144OSM   H18H15928   1.824   5.839   4.970 -0.1985 -1.5336 -1.4343
  145OSM      N15929   5.123   4.058   7.128 -1.2533  0.4186 -0.2779
  145OSM    C1515930   5.097   4.084   6.984 -0.3267 -0.0501 -0.2118
  145OSM   H15A15931   4.992   4.109   6.977 -0.2769  0.5322  0.8843
  145OSM   H15B15932   5.108   3.995   6.923 -1.5630  0.8333 -1.8180
  145OSM   H15C15933   5.152   4.170   6.948 -0.7593  0.1038 -0.5188
  145OSM    C1415934   5.258   3.998   7.145 -0.3459 -0.9971 -0.0928
  145OSM   H14A15935   5.286   3.969   7.245 -2.0940  0.6738  0.9503
  145OSM   H14B15936   5.324   4.077   7.114 -0.2368 -1.8543 -2.2066
  145OSM   H14C15937   5.273   3.912   7.081 -1.0866 -0.3237 -1.2063
  145OSM    C1315938   5.123   4.191   7.188 -0.2277  0.2791  0.0895
  145OSM   H13A15939   5.028   4.241   7.182 -0.5374  0.1233  2.4855
  145OSM   H13B15940   5.189   4.260   7.139 -1.8667  0.4693 -1.9392
  145OSM   H13C15941   5.156   4.181   7.291  0.8520 -0.1979 -0.2857
  145OSM    C1215942   5.017   3.973   7.197 -0.4039 -0.6813 -0.0504
  145OSM   H12A15943   4.931   4.038   7.200 -0.9957 -1.4697  0.1762
  145OSM   H12B15944   5.058   3.961   7.296  0.0221 -1.0648 -0.2714
  145OSM    C1115945   4.970   3.845   7.129 -0.0381 -0.0993 -0.2341
  145OSM   H11A15946   5.049   3.771   7.104 -0.0577 -0.0650 -0.3993
  145OSM   H11B15947   4.930   3.875   7.030  0.3931  0.6068 -0.1983
  145OSM      P15948   4.822   3.644   7.181  0.2321  0.1425  0.0860
  145OSM    O1315949   4.869   3.599   7.048 -0.0887 -0.0246  0.1888
  145OSM    O1415950   4.855   3.552   7.294 -0.2083  0.4012  0.4243
  145OSM    O1115951   4.667   3.651   7.161 -0.0438  0.0349 -0.1171
  145OSM    O1215952   4.874   3.785   7.215 -0.0545  0.6603 -0.0022
  145OSM    C1S15953   4.601   3.773   7.132 -0.3085 -0.3355 -0.4724
  145OSM    H1S15954   4.675   3.856   7.126  0.8103 -1.0914  1.8432
  145OSM    H1T15955   4.542   3.803   7.220  0.9983 -1.4465  0.8405
  145OSM     NF15956   4.465   3.882   6.956  0.1413  0.0473  0.5147
  145OSM    HNF15957   4.374   3.909   6.988  0.8449  3.2340  0.1881
  145OSM    C2S15958   4.511   3.757   7.012  0.6045 -0.0275 -1.1980
  145OSM    H2S15959   4.569   3.705   6.933 -0.3475  0.9684 -2.5941
  145OSM    C3S15960   4.393   3.652   7.051  0.7999 -0.0367  0.0140
  145OSM    H3S15961   4.324   3.693   7.128 -1.9032 -2.9920 -0.5979
  145OSM     O315962   4.431   3.536   7.113 -0.3053 -0.1856 -0.1985
  145OSM    HO315963   4.521   3.560   7.137  0.1894  2.3109 -3.8065
  145OSM    C4S15964   4.287   3.627   6.940 -1.0433 -0.4937 -0.6868
  145OSM    H4S15965   4.219   3.713   6.934 -0.3005  0.0787 -1.0633
  145OSM    C5S15966   4.275   3.515   6.865  0.6085  0.6759 -0.4959
  145OSM    H5S15967   4.347   3.438   6.896  2.2913  2.3639 -0.0158
  145OSM    C6S15968   4.169   3.477   6.765 -0.1153  0.4087 -0.3319
  145OSM    H6S15969   4.117   3.568   6.729  0.3190  0.5502 -0.6133
  145OSM    H6T15970   4.091   3.421   6.822  0.1534  1.7691  1.4718
  145OSM    C7S15971   4.215   3.404   6.636 -0.2530 -0.2943  0.3886
  145OSM    H7S15972   4.258   3.304   6.660  1.1609  0.1934 -0.0341
  145OSM    H7T15973   4.297   3.463   6.590 -0.6176 -0.2174 -0.1661
  145OSM    C8S15974   4.102   3.365   6.543  0.4108 -0.2530  0.2656
  145OSM    H8S15975   4.040   3.452   6.512  0.0382 -0.5166  0.2699
  145OSM    H8T15976   4.037   3.294   6.598  0.8030 -0.0974  0.9503
  145OSM    C9S15977   4.157   3.293   6.415  0.3101 -0.8626  0.4433
  145OSM    H9S15978   4.228   3.212   6.446  1.8448  0.2887  0.0478
  145OSM    H9T15979   4.208   3.369   6.352 -0.0538 -1.0742 -0.1125
  145OSM   C10S15980   4.056   3.239   6.319  0.0440  0.1329  0.3967
  145OSM   H10S15981   4.005   3.330   6.280  2.0621  1.1208 -0.1018
  145OSM   H10T15982   3.992   3.169   6.377 -0.7224  0.7249  0.2844
  145OSM   C11S15983   4.102   3.142   6.203 -0.0318 -0.1356 -0.3365
  145OSM   H11S15984   4.010   3.093   6.164 -0.5959  1.5369 -1.2112
  145OSM   H11T15985   4.174   3.071   6.249  0.7583 -0.7862 -2.4767
  145OSM   C12S15986   4.179   3.228   6.107  0.3858  0.1687 -0.4018
  145OSM   H12S15987   4.265   3.273   6.160  0.3430  1.2932 -1.2533
  145OSM   H12T15988   4.112   3.312   6.080  1.0813  0.9162  0.1568
  145OSM   C13S15989   4.199   3.146   5.976 -0.1565 -0.1358  1.1834
  145OSM   H13S15990   4.109   3.141   5.910  0.9811 -0.1341 -0.4235
  145OSM   H13T15991   4.230   3.043   6.004 -0.6107 -0.2830  1.1564
  145OSM   C14S15992   4.311   3.212   5.890 -0.1955 -0.0950 -0.0215
  145OSM   H14S15993   4.349   3.138   5.817 -4.0171 -1.4222 -0.8605
  145OSM   H14T15994   4.397   3.240   5.956  0.8094 -1.7709 -0.5655
  145OSM   C15S15995   4.238   3.324   5.808 -0.0472 -0.5434  0.2625
  145OSM   H15S15996   4.307   3.408   5.785 -0.1116 -0.5932 -0.1106
  145OSM   H15T15997   4.157   3.370   5.868  1.3609  1.1404  0.9683
  145OSM   C16S15998   4.185   3.273   5.670 -0.6503 -0.8367  0.8132
  145OSM   H16S15999   4.124   3.183   5.692 -0.4037 -1.2380 -0.1091
  145OSM   H16T16000   4.272   3.253   5.605 -0.0268  1.5393  0.8173
  145OSM   C17S16001   4.102   3.368   5.580  0.3897 -0.7735 -0.5382
  145OSM   H17S16002   4.168   3.445   5.535  0.8981 -1.8680 -1.7409
  145OSM   H17T16003   4.023   3.426   5.632  0.4884 -1.2210  0.1240
  145OSM   C18S16004   4.035   3.295   5.467 -0.3204  0.8096 -0.3706
  145OSM   H18S16005   4.113   3.249   5.403 -0.5854 -0.3187  0.0910
  145OSM   H18T16006   3.966   3.351   5.401 -1.0810  0.5685  0.1933
  145OSM   H18U16007   3.974   3.209   5.503 -1.9501  2.1635  0.2150
  145OSM    C1F16008   4.542   3.960   6.881 -0.1264  0.0133  0.1389
  145OSM     OF16009   4.663   3.945   6.875 -0.2281 -0.0045 -1.0970
  145OSM    C2F16010   4.468   4.057   6.805  1.0079 -0.3786 -0.8296
  145OSM    H2F16011   4.410   4.126   6.870  2.4749 -1.9668  2.4227
  145OSM    H2G16012   4.382   4.008   6.754  0.8215 -0.3565 -0.5374
  145OSM    C3F16013   4.541   4.135   6.704 -0.3796  0.3779 -0.5036
  145OSM    H3F16014   4.640   4.169   6.740 -0.3754  0.1484 -0.2949
  145OSM    H3G16015   4.492   4.234   6.690 -0.6700  0.4594  0.9533
  145OSM    C4F16016   4.561   4.071   6.565 -0.0509 -0.4738  0.8828
  145OSM    H4F16017   4.460   4.035   6.535  0.2078 -0.9783  0.6001
  145OSM    H4G16018   4.616   3.977   6.586  1.8643  0.6572  1.1034
  145OSM    C5F16019   4.626   4.152   6.457 -0.1915 -0.4184 -1.0094
  145OSM    H5F16020   4.636   4.087   6.367 -1.8248  0.0719 -1.5962
  145OSM    H5G16021   4.731   4.170   6.486 -0.4649  1.2215 -0.9438
  145OSM    C6F16022   4.540   4.270   6.404 -0.4353 -0.0376 -0.0184
  145OSM    H6F16023   4.536   4.354   6.477 -2.1434  0.4082 -0.5611
  145OSM    H6G16024   4.432   4.246   6.391 -0.2122  0.1467 -2.5803
  145OSM    C7F16025   4.594   4.310   6.269  0.7038 -0.3283 -0.0762
  145OSM    H7F16026   4.598   4.224   6.198 -0.0024  2.1420 -3.3996
  145OSM    H7G16027   4.693   4.359   6.272  0.5900 -0.0476 -0.7267
  145OSM    C8F16028   4.493   4.397   6.190 -0.3678 -0.6010 -0.6812
  145OSM    H8F16029   4.536   4.442   6.098 -1.4431 -0.7299 -1.2674
  145OSM    H8G16030   4.484   4.478   6.266  0.3777 -2.8243  1.9255
  145OSM    C9F16031   4.365   4.333   6.153  0.1856  0.2798 -0.1168
  145OSM    H9F16032   4.310   4.276   6.229 -0.8732  2.0568  0.4946
  145OSM   C10F16033   4.319   4.311   6.026 -0.5402  0.1797 -0.1833
  145OSM   H10F16034   4.225   4.254   6.015  0.6534 -1.9719  0.1727
  145OSM   C11F16035   4.389   4.359   5.898 -0.5273  0.1753 -0.3757
  145OSM   H11F16036   4.497   4.334   5.892 -0.4363  0.9042 -2.2937
  145OSM   H11G16037   4.388   4.470   5.906 -1.3683  0.1352  0.2348
  145OSM   C12F16038   4.307   4.321   5.781 -0.1837  0.0907 -0.9402
  145OSM   H12F16039   4.216   4.385   5.779  0.2836  0.7843 -0.6374
  145OSM   H12G16040   4.276   4.215   5.789  0.6294 -0.1102 -0.3548
  145OSM   C13F16041   4.389   4.352   5.650 -0.5656 -0.5848  0.6052
  145OSM   H13F16042   4.456   4.266   5.630  0.0176 -0.0523  0.2020
  145OSM   H13G16043   4.432   4.455   5.658  0.1433 -0.6980 -1.2380
  145OSM   C14F16044   4.302   4.364   5.517  0.9621 -0.3226 -0.1046
  145OSM   H14F16045   4.228   4.447   5.523  2.3643  0.8771  2.7765
  145OSM   H14G16046   4.255   4.264   5.505 -0.7351  0.4992 -0.6723
  145OSM   C15F16047   4.396   4.373   5.392 -0.5688  0.2720 -0.1105
  145OSM   H15F16048   4.493   4.321   5.407  1.5590  2.5893 -3.8853
  145OSM   H15G16049   4.414   4.482   5.378 -0.7499  0.4024  0.6606
  145OSM   C16F16050   4.327   4.324   5.267 -0.1305 -0.4446  0.2689
  145OSM   H16F16051   4.219   4.337   5.290 -0.3879  0.8897 -1.4589
  145OSM   H16G16052   4.354   4.217   5.254  1.2162  0.1877 -3.1862
  145OSM   C17F16053   4.373   4.402   5.142  0.6413  0.3697 -0.2538
  145OSM   H17F16054   4.483   4.420   5.143  0.4562  2.0211 -2.1580
  145OSM   H17G16055   4.345   4.505   5.172  2.0888  1.1525 -1.4099
  145OSM   C18F16056   4.321   4.361   5.006 -0.3479  0.5278  0.0823
  145OSM   H18F16057   4.338   4.253   4.989  1.0674  0.6990  0.2911
  145OSM   H18G16058   4.363   4.413   4.917 -0.4902  0.4984 -0.0016
  145OSM   H18H16059   4.211   4.378   5.010 -0.3149  0.7803 -0.0770
  146OSM      N16060   1.968   5.322   7.345  0.1661 -0.0265 -0.8622
  146OSM    C1516061   2.113   5.360   7.347  0.9118 -0.5279  0.1971
  146OSM   H15A16062   2.170   5.295   7.282  1.2589 -0.3638  0.3330
  146OSM   H15B16063   2.163   5.364   7.443 -0.4175  0.8621  0.8643
  146OSM   H15C16064   2.127   5.460   7.308 -1.2398 -0.9674 -1.9670
  146OSM    C1416065   1.952   5.187   7.413 -0.5748 -0.6248  0.1547
  146OSM   H14A16066   2.006   5.116   7.353  3.9165  1.9217  0.7726
  146OSM   H14B16067   1.847   5.162   7.425 -1.1058  1.8063  1.1249
  146OSM   H14C16068   2.005   5.180   7.507  1.9408 -1.7930 -1.2634
  146OSM    C1316069   1.890   5.433   7.411 -0.3978 -0.0052  0.3507
  146OSM   H13A16070   1.920   5.530   7.375 -2.1886  0.0065 -1.2726
  146OSM   H13B16071   1.895   5.412   7.517 -2.5925 -1.5141  0.2386
  146OSM   H13C16072   1.785   5.423   7.388 -0.3840  0.0782  0.2541
  146OSM    C1216073   1.926   5.296   7.204 -0.9411  0.2894  0.2301
  146OSM   H12A16074   1.918   5.393   7.158 -0.1907  1.4651  2.4359
  146OSM   H12B16075   1.819   5.277   7.199 -1.1971  1.9076 -1.0740
  146OSM    C1116076   1.995   5.193   7.111 -0.3651 -0.2197  1.4938
  146OSM   H11A16077   2.096   5.231   7.087 -1.3516  1.0328 -1.0060
  146OSM   H11B16078   1.938   5.208   7.017 -0.3055  1.9954  1.7658
  146OSM      P16079   2.115   4.974   7.182  0.3642  0.1822  0.3679
  146OSM    O1316080   2.197   5.052   7.277  0.0019  0.0952 -0.3390
  146OSM    O1416081   2.079   4.840   7.219  0.3152  0.3473 -0.2303
  146OSM    O1116082   2.188   4.977   7.040 -0.1249  0.2944  0.4834
  146OSM    O1216083   1.985   5.060   7.161 -0.1179 -0.5634  0.1205
  146OSM    C1S16084   2.123   4.931   6.919  0.1702  0.4613  0.0837
  146OSM    H1S16085   2.070   5.017   6.872  1.5954  1.2874 -0.0807
  146OSM    H1T16086   2.042   4.860   6.947  0.8555 -0.8401 -1.1060
  146OSM     NF16087   2.151   4.832   6.695 -0.0147 -0.6745 -0.3424
  146OSM    HNF16088   2.102   4.746   6.679  0.7478 -1.1350 -0.2892
  146OSM    C2S16089   2.218   4.866   6.824 -1.2679  0.0075  0.3069
  146OSM    H2S16090   2.298   4.937   6.793 -0.9352 -0.2595  0.5377
  146OSM    C3S16091   2.292   4.743   6.880  0.0063 -0.1141  0.8440
  146OSM    H3S16092   2.215   4.663   6.895  1.3846 -1.2627  2.2462
  146OSM     O316093   2.342   4.760   7.013 -0.0620  0.5601  0.3866
  146OSM    HO316094   2.300   4.842   7.040 -0.6970  0.1514  0.6695
  146OSM    C4S16095   2.393   4.697   6.781 -0.0095  0.0134  0.0575
  146OSM    H4S16096   2.362   4.637   6.694  0.7069 -0.3856  0.0710
  146OSM    C5S16097   2.526   4.717   6.785  0.6020  0.1679 -0.4457
  146OSM    H5S16098   2.567   4.779   6.866 -4.1280  1.5840  1.1672
  146OSM    C6S16099   2.621   4.686   6.672  0.3937  0.2892  0.0309
  146OSM    H6S16100   2.692   4.607   6.706 -1.9891 -1.8511  0.3814
  146OSM    H6T16101   2.667   4.782   6.642 -1.9341  2.2531  2.2364
  146OSM    C7S16102   2.549   4.622   6.549 -0.7129 -0.3620  1.1556
  146OSM    H7S16103   2.490   4.700   6.496  1.7771 -0.2267 -1.6766
  146OSM    H7T16104   2.482   4.535   6.562  1.1881 -2.3210 -1.1192
  146OSM    C8S16105   2.650   4.574   6.435  0.1393  0.3506  0.0485
  146OSM    H8S16106   2.698   4.488   6.487  1.2540  0.5893 -0.5543
  146OSM    H8T16107   2.730   4.651   6.427 -0.2007  0.4711 -4.5503
  146OSM    C9S16108   2.590   4.539   6.300  0.1957  0.6058  0.3003
  146OSM    H9S16109   2.525   4.617   6.256  0.7720 -0.5341 -2.9001
  146OSM    H9T16110   2.519   4.459   6.331 -0.9892  2.5605  2.9958
  146OSM   C10S16111   2.694   4.486   6.197  0.1778 -0.7896 -0.1823
  146OSM   H10S16112   2.741   4.397   6.244 -0.5846 -0.7837  0.5963
  146OSM   H10T16113   2.755   4.577   6.174 -3.1628  1.9001  0.7552
  146OSM   C11S16114   2.620   4.451   6.070  0.1798  0.6689  0.1354
  146OSM   H11S16115   2.582   4.547   6.029  0.0787  0.3835 -0.4515
  146OSM   H11T16116   2.532   4.384   6.084  0.5659  0.0061 -0.5155
  146OSM   C12S16117   2.715   4.386   5.970  0.2583 -0.0782 -0.4203
  146OSM   H12S16118   2.746   4.289   6.014 -0.5620 -0.0941  0.1531
  146OSM   H12T16119   2.807   4.449   5.963  1.3856 -1.5985  0.2698
  146OSM   C13S16120   2.648   4.363   5.834  0.2172 -0.0214 -0.6724
  146OSM   H13S16121   2.597   4.457   5.804 -2.6343 -1.0266  0.6112
  146OSM   H13T16122   2.569   4.288   5.857 -1.4781  2.0845  0.7965
  146OSM   C14S16123   2.735   4.321   5.722 -0.3997 -0.2465  0.3151
  146OSM   H14S16124   2.808   4.249   5.766 -0.2410  0.5232  1.3381
  146OSM   H14T16125   2.798   4.409   5.696  1.5107 -1.7407 -0.3841
  146OSM   C15S16126   2.663   4.268   5.600  0.3479 -0.3092 -0.2720
  146OSM   H15S16127   2.707   4.320   5.512 -2.5166 -0.5336 -1.9404
  146OSM   H15T16128   2.557   4.298   5.610  0.7845  0.7651  1.9778
  146OSM   C16S16129   2.676   4.115   5.586 -0.4479  0.1452 -0.2250
  146OSM   H16S16130   2.629   4.077   5.679 -1.4730 -0.7166 -1.0609
  146OSM   H16T16131   2.781   4.080   5.585 -0.8108 -1.0258  0.5865
  146OSM   C17S16132   2.607   4.054   5.468 -0.0527  0.6417  1.1997
  146OSM   H17S16133   2.635   3.949   5.444  0.4505  1.5493 -3.0510
  146OSM   H17T16134   2.644   4.105   5.376  0.5060 -0.1245  0.9832
  146OSM   C18S16135   2.459   4.084   5.466 -0.2361 -0.3325  0.9136
  146OSM   H18S16136   2.444   4.193   5.452  2.0337 -0.0898 -0.0427
  146OSM   H18T16137   2.418   4.056   5.565 -3.3319 -1.2032 -0.5007
  146OSM   H18U16138   2.405   4.036   5.381 -0.7688  1.7392  0.0397
  146OSM    C1F16139   2.139   4.931   6.604 -0.1646 -0.8728  0.0700
  146OSM     OF16140   2.171   5.045   6.631 -0.0383  0.9105 -0.8367
  146OSM    C2F16141   2.089   4.887   6.472 -0.0328  0.1999 -0.1147
  146OSM    H2F16142   1.983   4.854   6.480 -0.2983  1.1683  0.4057
  146OSM    H2G16143   2.159   4.809   6.433 -1.8168 -1.1423 -0.7978
  146OSM    C3F16144   2.086   5.002   6.372 -0.4785  0.7921  0.1629
  146OSM    H3F16145   2.186   5.048   6.357 -0.4778  0.9420  0.6365
  146OSM    H3G16146   2.023   5.087   6.405 -2.4974  0.6189 -2.8243
  146OSM    C4F16147   2.022   4.956   6.235  0.2145 -0.0538 -0.1477
  146OSM    H4F16148   1.973   5.048   6.196 -0.6458 -0.5549 -0.2660
  146OSM    H4G16149   1.939   4.892   6.271 -2.3213  3.7084  1.3575
  146OSM    C5F16150   2.123   4.878   6.140  0.2019 -0.6272 -0.3478
  146OSM    H5F16151   2.193   4.819   6.203  1.1725  0.0030 -0.7934
  146OSM    H5G16152   2.195   4.951   6.096  2.1253 -2.6382 -0.7162
  146OSM    C6F16153   2.065   4.788   6.035  0.0939  0.9823 -0.4181
  146OSM    H6F16154   2.022   4.691   6.068 -0.5549  1.0294 -1.1019
  146OSM    H6G16155   2.148   4.782   5.962 -0.7617  0.2534 -1.3454
  146OSM    C7F16156   1.947   4.854   5.969  0.3517 -0.0999 -0.4233
  146OSM    H7F16157   1.964   4.960   5.937  0.3921  1.0613  3.0483
  146OSM    H7G16158   1.864   4.861   6.042 -0.8059 -0.2269 -1.6978
  146OSM    C8F16159   1.881   4.790   5.841 -0.0502  0.4537  0.0471
  146OSM    H8F16160   1.948   4.811   5.755  0.2749  1.2368  0.4874
  146OSM    H8G16161   1.787   4.842   5.812 -0.1065  0.4581  0.2361
  146OSM    C9F16162   1.845   4.645   5.874  0.2453  0.0211 -0.5288
  146OSM    H9F16163   1.921   4.581   5.920  0.9636 -0.1044 -1.8237
  146OSM   C10F16164   1.721   4.592   5.868  0.1104  0.3382  0.8013
  146OSM   H10F16165   1.703   4.489   5.901  1.5114  0.6599  2.6812
  146OSM   C11F16166   1.597   4.663   5.822  0.4775 -0.0943  0.0866
  146OSM   H11F16167   1.605   4.772   5.843  0.8586 -0.6785  3.5253
  146OSM   H11G16168   1.510   4.629   5.882  1.7075  2.0393  3.3690
  146OSM   C12F16169   1.568   4.627   5.675 -0.2239 -0.3947  0.5084
  146OSM   H12F16170   1.473   4.673   5.642 -0.8063 -1.3726  0.7747
  146OSM   H12G16171   1.545   4.518   5.672 -2.7110  0.0809  0.1107
  146OSM   C13F16172   1.677   4.683   5.575  0.2862  0.2709 -0.1535
  146OSM   H13F16173   1.776   4.635   5.588  0.1336 -0.1859 -0.6299
  146OSM   H13G16174   1.695   4.790   5.600 -0.4320  0.2910  0.3104
  146OSM   C14F16175   1.632   4.674   5.429  0.3984 -0.0365  0.3319
  146OSM   H14F16176   1.540   4.735   5.421  0.7908  0.6570  0.9249
  146OSM   H14G16177   1.704   4.720   5.358 -1.6571  1.6814 -0.7609
  146OSM   C15F16178   1.602   4.525   5.389  0.2537 -0.5035  0.2539
  146OSM   H15F16179   1.497   4.505   5.419 -0.7625 -1.0678 -3.2247
  146OSM   H15G16180   1.668   4.464   5.455 -0.4098 -2.4218 -0.7581
  146OSM   C16F16181   1.630   4.502   5.238  0.2262 -0.5241  0.0097
  146OSM   H16F16182   1.622   4.595   5.179  2.2036 -1.4815 -1.9224
  146OSM   H16G16183   1.540   4.447   5.204  0.3298 -0.7392  0.0757
  146OSM   C17F16184   1.750   4.417   5.209 -0.4727 -0.1968 -0.5190
  146OSM   H17F16185   1.744   4.397   5.100  1.9247  2.7087 -1.3251
  146OSM   H17G16186   1.758   4.330   5.277 -0.8057  1.6195  1.9988
  146OSM   C18F16187   1.878   4.500   5.226  0.2026  0.3416  0.1751
  146OSM   H18F16188   1.963   4.442   5.186  0.4953  1.8094 -1.4780
  146OSM   H18G16189   1.899   4.506   5.335  0.2167  0.0075  0.1920
  146OSM   H18H16190   1.862   4.595   5.170  1.1968  0.8051  0.6566
  147OSM      N16191   5.667   6.759   2.586  0.1809 -0.4280 -0.7157
  147OSM    C1516192   5.594   6.633   2.551  0.4048  1.2091 -0.5335
  147OSM   H15A16193   5.646   6.546   2.591 -1.6689 -1.2465 -2.8245
  147OSM   H15B16194   5.593   6.628   2.443 -2.2660 -0.0756 -0.5326
  147OSM   H15C16195   5.492   6.643   2.586 -0.7864  1.2448 -3.7465
  147OSM    C1416196   5.795   6.759   2.513 -1.1313  0.4637  0.3408
  147OSM   H14A16197   5.855   6.675   2.543  0.2292  1.4207  0.3676
  147OSM   H14B16198   5.854   6.849   2.525 -2.1330  1.3422 -0.8846
  147OSM   H14C16199   5.786   6.756   2.405 -1.6590  0.1059  0.3906
  147OSM    C1316200   5.584   6.870   2.541 -0.7635 -0.5312  0.8501
  147OSM   H13A16201   5.620   6.969   2.565 -0.5840 -0.3087 -0.2721
  147OSM   H13B16202   5.485   6.848   2.578 -1.0825 -0.0128  0.3229
  147OSM   H13C16203   5.576   6.868   2.433  1.6014  2.0475  0.5357
  147OSM    C1216204   5.691   6.765   2.735  0.1397 -0.2854 -0.1670
  147OSM   H12A16205   5.763   6.690   2.767  0.3179  1.1777  3.3651
  147OSM   H12B16206   5.598   6.744   2.785  0.4317  0.4838  0.7260
  147OSM    C1116207   5.738   6.899   2.803 -0.4150  0.9026 -0.0134
  147OSM   H11A16208   5.749   6.886   2.913 -0.2782 -1.6671 -0.2567
  147OSM   H11B16209   5.650   6.966   2.803 -1.9485 -1.0191 -0.7499
  147OSM      P16210   5.999   6.925   2.798  0.1943  0.1583  0.0417
  147OSM    O1316211   6.013   6.784   2.835  0.1229 -0.5869 -0.1806
  147OSM    O1416212   6.096   6.987   2.703 -1.1862  0.3728 -0.3480
  147OSM    O1116213   5.993   7.009   2.933  0.0397  0.4868  0.7647
  147OSM    O1216214   5.857   6.950   2.737  0.2177  0.1041  0.5690
  147OSM    C1S16215   6.003   7.151   2.919  0.2749 -0.8082  0.2389
  147OSM    H1S16216   5.903   7.188   2.890  0.8620 -0.2835 -1.1690
  147OSM    H1T16217   6.078   7.178   2.842 -0.7730 -2.1771 -1.3166
  147OSM     NF16218   6.020   7.372   3.039  0.6350  0.3288 -0.5867
  147OSM    HNF16219   6.099   7.431   3.024  0.9731  0.3510  1.0695
  147OSM    C2S16220   6.041   7.228   3.056 -1.0775 -0.3450  0.0718
  147OSM    H2S16221   5.978   7.188   3.138 -1.4299 -2.4391 -1.1269
  147OSM    C3S16222   6.190   7.179   3.094  0.6651 -0.4354  0.5449
  147OSM    H3S16223   6.247   7.202   3.001 -0.3536  0.5929  0.1482
  147OSM     O316224   6.202   7.040   3.106  0.1954  0.2330  0.9822
  147OSM    HO316225   6.120   7.011   3.066  0.5558  0.5939 -0.0552
  147OSM    C4S16226   6.237   7.256   3.209 -0.2394 -0.0786  0.3934
  147OSM    H4S16227   6.289   7.350   3.187  0.3119 -0.4401  0.1541
  147OSM    C5S16228   6.252   7.217   3.337  0.4521 -0.0596 -0.8276
  147OSM    H5S16229   6.216   7.118   3.367  0.6717 -0.2743 -1.2674
  147OSM    C6S16230   6.325   7.285   3.449 -0.6032 -0.0695 -0.2525
  147OSM    H6S16231   6.369   7.203   3.509 -3.8718 -0.8004  1.3700
  147OSM    H6T16232   6.250   7.321   3.522  1.1569 -0.4945  1.8503
  147OSM    C7S16233   6.437   7.384   3.408  1.1044 -0.6351 -0.1643
  147OSM    H7S16234   6.387   7.468   3.356  1.9717 -0.7025 -1.1442
  147OSM    H7T16235   6.511   7.345   3.334  1.1487  1.4186 -1.2840
  147OSM    C8S16236   6.518   7.447   3.521 -0.6911 -0.4021 -1.1692
  147OSM    H8S16237   6.592   7.378   3.568 -0.7150  0.8093  0.7257
  147OSM    H8T16238   6.443   7.489   3.591 -0.1034 -0.6864 -0.3568
  147OSM    C9S16239   6.594   7.570   3.465 -0.0086 -0.5374 -0.3587
  147OSM    H9S16240   6.543   7.622   3.382 -0.8789  0.3917  0.7266
  147OSM    H9T16241   6.698   7.552   3.429  0.3910  1.3923 -0.2996
  147OSM   C10S16242   6.605   7.674   3.568  0.2616 -0.0705 -0.1352
  147OSM   H10S16243   6.503   7.688   3.611 -0.2051 -1.8643 -0.5867
  147OSM   H10T16244   6.645   7.763   3.514 -0.8707  1.8525  2.0246
  147OSM   C11S16245   6.703   7.632   3.687 -0.0802 -0.6592 -0.6787
  147OSM   H11S16246   6.799   7.594   3.647  1.6488  1.7225  0.9348
  147OSM   H11T16247   6.667   7.539   3.736  0.3685  0.3068  1.6200
  147OSM   C12S16248   6.722   7.739   3.794  0.6284 -0.1385 -0.1599
  147OSM   H12S16249   6.736   7.836   3.741  1.6898 -0.1659  0.0532
  147OSM   H12T16250   6.808   7.734   3.865 -1.1208  1.3934  2.2378
  147OSM   C13S16251   6.599   7.756   3.879  0.1142  1.0827  0.1126
  147OSM   H13S16252   6.517   7.804   3.823 -1.3286 -3.2726 -1.9190
  147OSM   H13T16253   6.624   7.825   3.963 -2.1572  0.8265  1.0569
  147OSM   C14S16254   6.542   7.631   3.954  0.1120 -0.0594  0.3772
  147OSM   H14S16255   6.631   7.591   4.007  1.2349  1.7161 -0.1193
  147OSM   H14T16256   6.493   7.557   3.887 -2.6820  2.6208 -0.7644
  147OSM   C15S16257   6.430   7.679   4.054 -0.1749 -0.8928  0.3187
  147OSM   H15S16258   6.354   7.739   4.000  1.6139  1.1176 -0.0625
  147OSM   H15T16259   6.482   7.745   4.126  1.6356 -0.2644 -1.4725
  147OSM   C16S16260   6.369   7.569   4.141 -0.9322  0.7452  0.1392
  147OSM   H16S16261   6.452   7.524   4.200  2.2345  2.6252 -2.4860
  147OSM   H16T16262   6.331   7.490   4.073  0.2422  0.9623 -0.8127
  147OSM   C17S16263   6.247   7.621   4.215 -0.3985 -0.0043 -1.3130
  147OSM   H17S16264   6.179   7.663   4.138 -0.6682  0.4578 -0.8333
  147OSM   H17T16265   6.279   7.703   4.283 -2.4148 -1.2848  1.4295
  147OSM   C18S16266   6.182   7.521   4.313  0.3895 -0.0570 -0.5411
  147OSM   H18S16267   6.141   7.426   4.272 -0.1994 -1.4087  2.7923
  147OSM   H18T16268   6.090   7.572   4.349 -0.5438 -0.0911 -2.7586
  147OSM   H18U16269   6.236   7.488   4.405 -0.7759 -1.5878 -0.3714
  147OSM    C1F16270   5.897   7.402   3.008  0.1111  0.5858  0.1663
  147OSM     OF16271   5.805   7.342   3.057 -0.1219 -0.3344  0.2112
  147OSM    C2F16272   5.873   7.504   2.907  0.5959  0.2735  0.5681
  147OSM    H2F16273   5.856   7.466   2.804 -2.2577  1.4053  0.5283
  147OSM    H2G16274   5.963   7.567   2.892  0.2901  0.4296 -0.6979
  147OSM    C3F16275   5.752   7.597   2.934 -0.6439  0.4383  0.0353
  147OSM    H3F16276   5.653   7.555   2.905  0.0868 -0.7553 -0.7985
  147OSM    H3G16277   5.774   7.682   2.866 -1.4652 -0.1223 -0.9728
  147OSM    C4F16278   5.752   7.662   3.075 -0.3833 -0.9013  0.1413
  147OSM    H4F16279   5.846   7.721   3.085 -0.3289 -0.7619 -1.0659
  147OSM    H4G16280   5.750   7.578   3.147 -1.2618  0.9994  2.4641
  147OSM    C5F16281   5.632   7.753   3.114 -0.0762  0.2876  0.4012
  147OSM    H5F16282   5.655   7.795   3.214  2.9028 -0.3081  0.0765
  147OSM    H5G16283   5.543   7.687   3.117  1.3698 -1.8618 -0.5571
  147OSM    C6F16284   5.609   7.865   3.005 -0.4694  0.2020 -0.1660
  147OSM    H6F16285   5.582   7.820   2.907  1.1624 -2.0336  0.3145
  147OSM    H6G16286   5.707   7.916   2.993 -0.5142  0.6969  1.3416
  147OSM    C7F16287   5.489   7.955   3.031  0.5754  0.0865  0.4694
  147OSM    H7F16288   5.476   8.022   2.944 -1.9027 -0.3972  0.4040
  147OSM    H7G16289   5.514   8.021   3.117  2.9711 -0.2145  0.0722
  147OSM    C8F16290   5.355   7.891   3.060  0.4515  0.3033 -0.2887
  147OSM    H8F16291   5.367   7.819   3.144 -1.8089 -1.9758 -1.7833
  147OSM    H8G16292   5.326   7.832   2.970  0.3678 -2.8167  1.6112
  147OSM    C9F16293   5.252   8.004   3.079  0.0764 -0.5538  0.1041
  147OSM    H9F16294   5.206   8.037   2.985  0.4093  1.3318  0.5642
  147OSM   C10F16295   5.215   8.069   3.195 -0.1108  0.6959 -0.2110
  147OSM   H10F16296   5.141   8.149   3.183 -2.0149 -0.8175  0.8243
  147OSM   C11F16297   5.262   8.036   3.338 -0.7506 -0.5036 -0.3409
  147OSM   H11F16298   5.323   7.942   3.337  3.3115  1.8753  0.3784
  147OSM   H11G16299   5.179   8.020   3.409 -0.5642 -1.4382 -0.3088
  147OSM   C12F16300   5.371   8.134   3.392 -0.3849  0.0229 -0.3156
  147OSM   H12F16301   5.342   8.238   3.366 -1.5132  0.7217  3.2798
  147OSM   H12G16302   5.465   8.118   3.335 -1.5920  1.4541 -2.9179
  147OSM   C13F16303   5.375   8.129   3.543 -0.4491  0.2276  0.2387
  147OSM   H13F16304   5.275   8.123   3.591 -0.8627 -2.8500 -0.8039
  147OSM   H13G16305   5.436   8.215   3.577  0.2959 -0.3770  0.4466
  147OSM   C14F16306   5.444   7.995   3.594 -0.1896  0.3465  0.1213
  147OSM   H14F16307   5.526   7.962   3.527  0.3624 -1.3394  1.5291
  147OSM   H14G16308   5.370   7.912   3.587 -0.4318  0.7068 -2.3894
  147OSM   C15F16309   5.502   8.015   3.740 -0.4850  0.2635 -0.4546
  147OSM   H15F16310   5.546   8.117   3.743  1.0807 -0.3976  1.0226
  147OSM   H15G16311   5.576   7.933   3.753 -0.5556  0.1268 -0.8817
  147OSM   C16F16312   5.397   8.011   3.855 -0.3340 -0.0072  0.6781
  147OSM   H16F16313   5.348   7.911   3.857 -1.4672  0.4274 -1.6477
  147OSM   H16G16314   5.321   8.090   3.834 -0.3655 -0.5611 -1.4943
  147OSM   C17F16315   5.456   8.034   3.998 -0.8805 -0.1552 -0.1726
  147OSM   H17F16316   5.538   8.108   3.980 -0.9755 -0.0213 -0.0549
  147OSM   H17G16317   5.501   7.939   4.032 -1.7658 -0.1359  1.1008
  147OSM   C18F16318   5.355   8.080   4.098 -0.1785  0.8026  0.5239
  147OSM   H18F16319   5.403   8.112   4.193  1.2763 -3.6841  1.5294
  147OSM   H18G16320   5.265   8.017   4.113 -0.6806  1.2425 -0.5278
  147OSM   H18H16321   5.321   8.177   4.055 -2.8275 -1.1126 -2.1048
  148OSM      N16322   1.349   2.369   2.458  0.1449 -0.8071  0.6985
  148OSM    C1516323   1.337   2.481   2.564 -1.0565 -0.4649 -0.2467
  148OSM   H15A16324   1.389   2.458   2.656 -1.2410 -0.7363 -0.2068
  148OSM   H15B16325   1.234   2.508   2.583 -1.0179  0.0734 -0.7892
  148OSM   H15C16326   1.387   2.572   2.534  0.6810 -1.5133 -0.6701
  148OSM    C1416327   1.272   2.408   2.331  0.4069 -0.2572 -0.2409
  148OSM   H14A16328   1.327   2.484   2.278  0.7789 -1.1721 -1.1933
  148OSM   H14B16329   1.182   2.458   2.366 -0.0065 -0.6932 -0.6640
  148OSM   H14C16330   1.248   2.323   2.269 -3.2234  0.3650  0.0495
  148OSM    C1316331   1.487   2.363   2.420 -0.8451  0.0419 -0.0410
  148OSM   H13A16332   1.532   2.461   2.410  2.7869 -1.4486  0.3613
  148OSM   H13B16333   1.512   2.303   2.333  0.6074  0.2515  0.2052
  148OSM   H13C16334   1.535   2.322   2.507 -3.2031  2.1589  2.4695
  148OSM    C1216335   1.295   2.249   2.524  0.4383 -0.3214  0.0879
  148OSM   H12A16336   1.306   2.171   2.450 -0.4486 -0.4938  0.1243
  148OSM   H12B16337   1.192   2.261   2.556  0.6818 -1.6728  1.4210
  148OSM    C1116338   1.349   2.214   2.671 -0.0519  0.0284 -0.0231
  148OSM   H11A16339   1.295   2.123   2.705 -1.9303  0.4042 -1.7812
  148OSM   H11B16340   1.322   2.295   2.742  0.8655 -1.1590  1.7479
  148OSM      P16341   1.549   2.051   2.616 -0.2175 -0.0377  0.1734
  148OSM    O1316342   1.456   1.973   2.533 -0.0874  0.0850 -0.7263
  148OSM    O1416343   1.681   2.082   2.558  0.1246 -0.8388  0.7447
  148OSM    O1116344   1.578   1.953   2.734 -0.3071  0.0203 -0.0842
  148OSM    O1216345   1.495   2.189   2.671 -0.0231 -0.7942 -0.0838
  148OSM    C1S16346   1.695   1.963   2.817  0.8374  0.2553 -0.0217
  148OSM    H1S16347   1.726   2.067   2.842  0.4237 -0.0351  1.8625
  148OSM    H1T16348   1.778   1.912   2.764 -0.8705 -2.2196 -0.5072
  148OSM     NF16349   1.798   1.911   3.041  0.5004  0.2782  0.2502
  148OSM    HNF16350   1.854   1.830   3.055  0.7574  0.3978 -0.0829
  148OSM    C2S16351   1.683   1.895   2.952  0.1804  0.1853 -0.0904
  148OSM    H2S16352   1.600   1.938   3.012 -0.4527 -0.4631 -0.4930
  148OSM    C3S16353   1.642   1.744   2.933 -0.9687  0.4092  0.0023
  148OSM    H3S16354   1.730   1.692   2.890 -2.0681 -0.8054 -0.8040
  148OSM     O316355   1.551   1.728   2.832  0.7367  0.8114  0.3911
  148OSM    HO316356   1.553   1.816   2.794  1.0979  1.0139  0.8705
  148OSM    C4S16357   1.604   1.679   3.063  0.1407  0.1633  0.7813
  148OSM    H4S16358   1.691   1.618   3.091 -0.5021 -0.4826  1.3995
  148OSM    C5S16359   1.487   1.679   3.132  1.2707  0.0014  0.1887
  148OSM    H5S16360   1.403   1.732   3.085  0.2389 -2.0566 -0.4310
  148OSM    C6S16361   1.461   1.594   3.257 -0.1382  0.4896 -0.7806
  148OSM    H6S16362   1.439   1.488   3.231  0.3614 -0.6520  2.8936
  148OSM    H6T16363   1.372   1.632   3.313 -0.0164  0.4833 -0.5812
  148OSM    C7S16364   1.567   1.576   3.365 -0.0848  0.2248 -0.2258
  148OSM    H7S16365   1.626   1.493   3.322  1.0950  1.1706 -0.4905
  148OSM    H7T16366   1.518   1.547   3.460 -1.9094  1.6085 -0.6739
  148OSM    C8S16367   1.643   1.698   3.399  0.5427 -0.2681 -0.8605
  148OSM    H8S16368   1.612   1.793   3.350  0.6770 -0.5292 -1.4705
  148OSM    H8T16369   1.751   1.681   3.378  0.8385  0.3556  0.1255
  148OSM    C9S16370   1.634   1.727   3.552 -0.5147 -0.1401  0.1548
  148OSM    H9S16371   1.683   1.640   3.600  2.3891  0.7947 -0.9074
  148OSM    H9T16372   1.534   1.735   3.599 -0.0719  1.2984  0.9178
  148OSM   C10S16373   1.711   1.854   3.581 -0.2859  0.1359 -0.3654
  148OSM   H10S16374   1.808   1.843   3.527 -1.0688 -2.8452 -1.3563
  148OSM   H10T16375   1.743   1.855   3.688  2.3970 -0.7266 -1.0752
  148OSM   C11S16376   1.631   1.982   3.543 -0.3329 -0.5962  0.0920
  148OSM   H11S16377   1.522   1.961   3.540 -0.1420 -1.5461 -2.1928
  148OSM   H11T16378   1.658   2.007   3.439 -1.8016  0.1578 -0.1379
  148OSM   C12S16379   1.645   2.098   3.642 -0.6609  0.4558  0.4045
  148OSM   H12S16380   1.752   2.116   3.667 -0.3944  4.2854 -2.5652
  148OSM   H12T16381   1.596   2.067   3.737 -0.4164 -2.1668 -0.2718
  148OSM   C13S16382   1.597   2.235   3.591  0.1355 -0.6722  0.1039
  148OSM   H13S16383   1.621   2.239   3.482  0.2151  1.5761  0.1604
  148OSM   H13T16384   1.652   2.316   3.643 -1.2126  0.4172 -0.1156
  148OSM   C14S16385   1.442   2.245   3.604  0.0440 -0.1377  0.0157
  148OSM   H14S16386   1.419   2.241   3.713 -3.0710  0.6853 -0.5055
  148OSM   H14T16387   1.401   2.158   3.548  3.1827 -2.3645  0.9451
  148OSM   C15S16388   1.384   2.376   3.551  0.2657 -0.0917  0.5463
  148OSM   H15S16389   1.402   2.385   3.442  1.8852  1.6879  0.9030
  148OSM   H15T16390   1.438   2.460   3.601  3.6740 -0.1437 -2.6166
  148OSM   C16S16391   1.236   2.388   3.580  0.8255 -0.1501 -0.9974
  148OSM   H16S16392   1.222   2.388   3.690  2.4087 -2.0118 -0.7568
  148OSM   H16T16393   1.177   2.301   3.545 -0.6942 -0.5162  2.1276
  148OSM   C17S16394   1.179   2.517   3.517  0.4360  0.2835  0.0065
  148OSM   H17S16395   1.147   2.507   3.411  0.6752 -0.9580  0.0451
  148OSM   H17T16396   1.261   2.591   3.513 -0.1070  0.9119  0.2329
  148OSM   C18S16397   1.067   2.585   3.604 -0.6350 -1.1271 -0.3971
  148OSM   H18S16398   1.087   2.588   3.713 -3.1988  1.7988  0.1443
  148OSM   H18T16399   0.965   2.542   3.592 -1.3940  0.1836  1.0161
  148OSM   H18U16400   1.067   2.694   3.584 -0.1483 -0.6686  1.7795
  148OSM    C1F16401   1.820   2.029   3.095 -0.2616 -0.3365  0.6175
  148OSM     OF16402   1.735   2.119   3.075  0.0717 -0.0432 -0.3558
  148OSM    C2F16403   1.947   2.060   3.170  0.2631 -0.5751 -0.0649
  148OSM    H2F16404   1.977   2.156   3.122 -0.9171 -1.6085 -3.1547
  148OSM    H2G16405   2.019   1.976   3.158  0.1189 -0.7004 -0.0509
  148OSM    C3F16406   1.925   2.076   3.319  0.2173  0.0208  0.0549
  148OSM    H3F16407   1.849   2.006   3.360  1.9646 -2.9390 -1.4404
  148OSM    H3G16408   1.887   2.177   3.344 -2.5788 -1.1489  0.9359
  148OSM    C4F16409   2.053   2.049   3.398  0.5614  0.7976  0.1025
  148OSM    H4F16410   2.136   2.109   3.356  1.0900 -1.1806 -1.8356
  148OSM    H4G16411   2.084   1.943   3.406  1.8914  1.2681  2.0187
  148OSM    C5F16412   2.031   2.101   3.538 -0.2274 -0.2215  0.3925
  148OSM    H5F16413   1.936   2.055   3.576 -0.6083 -1.2692 -1.7182
  148OSM    H5G16414   2.025   2.212   3.535 -1.7786 -0.3083 -1.5054
  148OSM    C6F16415   2.157   2.073   3.621  0.5857  0.4049 -0.3141
  148OSM    H6F16416   2.245   2.112   3.566  2.7024 -1.1148  1.8239
  148OSM    H6G16417   2.178   1.964   3.619  1.0428  0.4543  0.8968
  148OSM    C7F16418   2.138   2.121   3.761  0.0981  0.0404 -0.4928
  148OSM    H7F16419   2.048   2.186   3.771  0.0806 -0.1340  0.7469
  148OSM    H7G16420   2.226   2.185   3.782  0.8095 -1.5154  1.7588
  148OSM    C8F16421   2.140   2.012   3.863  0.0717  0.2494 -0.4976
  148OSM    H8F16422   2.235   1.956   3.852  1.4052  2.4571 -0.9442
  148OSM    H8G16423   2.054   1.942   3.854  0.6829 -0.6554  0.4536
  148OSM    C9F16424   2.126   2.062   4.009 -0.3337  0.3077  0.0889
  148OSM    H9F16425   2.203   2.016   4.072 -1.6424  0.3841  1.8276
  148OSM   C10F16426   2.020   2.119   4.077  0.3944  0.5357  0.0394
  148OSM   H10F16427   2.044   2.149   4.180  0.1189  0.1035  0.2340
  148OSM   C11F16428   1.889   2.177   4.031 -0.0295  0.4455 -0.0043
  148OSM   H11F16429   1.868   2.151   3.925  0.1693 -0.6759  0.2202
  148OSM   H11G16430   1.905   2.287   4.041 -1.2654  0.8017 -1.5535
  148OSM   C12F16431   1.765   2.147   4.113 -0.3216  0.1711 -0.1939
  148OSM   H12F16432   1.791   2.183   4.215  2.0410 -1.8747  0.0039
  148OSM   H12G16433   1.750   2.037   4.117 -1.4452  0.2290 -1.7871
  148OSM   C13F16434   1.642   2.209   4.050  0.1929  0.2502 -0.1337
  148OSM   H13F16435   1.627   2.169   3.947 -2.2604  0.8000 -0.0384
  148OSM   H13G16436   1.660   2.317   4.032  2.4016 -0.4261 -2.4776
  148OSM   C14F16437   1.518   2.184   4.141  0.0387  0.0455 -0.9218
  148OSM   H14F16438   1.555   2.174   4.245 -1.6825  0.6125 -0.2114
  148OSM   H14G16439   1.479   2.085   4.111 -0.1363  0.5897 -2.5959
  148OSM   C15F16440   1.409   2.289   4.129 -0.7686 -0.5918  0.0542
  148OSM   H15F16441   1.455   2.387   4.157 -1.4419 -0.3689  0.3950
  148OSM   H15G16442   1.323   2.286   4.199 -0.6864 -0.2469  0.1721
  148OSM   C16F16443   1.343   2.306   3.990 -0.4507 -0.1781  0.3667
  148OSM   H16F16444   1.281   2.217   3.965  3.1597 -2.6718 -0.4994
  148OSM   H16G16445   1.416   2.313   3.907 -2.5028 -1.1812 -1.6029
  148OSM   C17F16446   1.258   2.440   3.978  0.4691  0.0466  0.0593
  148OSM   H17F16447   1.194   2.444   3.887 -0.1810  0.5276  0.5346
  148OSM   H17G16448   1.316   2.534   3.965  0.4387 -0.0528 -0.9000
  148OSM   C18F16449   1.168   2.473   4.096 -0.1772  0.2280 -0.7151
  148OSM   H18F16450   1.236   2.485   4.183 -0.3162 -3.8762  0.1717
  148OSM   H18G16451   1.098   2.391   4.124 -0.9712  1.0459 -0.2834
  148OSM   H18H16452   1.116   2.570   4.089 -0.4033  0.1335 -0.4071
  149OSM      N16453   2.428   5.388   2.405 -0.3338  0.0877 -0.1211
  149OSM    C1516454   2.541   5.297   2.372 -0.2238 -0.1555  0.0353
  149OSM   H15A16455   2.605   5.337   2.294 -0.6409 -1.3275 -0.9518
  149OSM   H15B16456   2.512   5.197   2.345 -0.0602 -0.9945  2.7261
  149OSM   H15C16457   2.602   5.284   2.459  1.8783  0.8397 -1.2016
  149OSM    C1416458   2.376   5.449   2.287  0.0757 -0.0750 -0.0499
  149OSM   H14A16459   2.295   5.511   2.322 -0.4117 -1.2149  0.9239
  149OSM   H14B16460   2.343   5.379   2.212  0.3755  3.4516 -3.8265
  149OSM   H14C16461   2.457   5.511   2.250 -1.5674  1.0634 -1.9675
  149OSM    C1316462   2.323   5.303   2.464  0.3918  0.4253  0.1666
  149OSM   H13A16463   2.356   5.259   2.557  0.9031 -0.4532 -0.4167
  149OSM   H13B16464   2.290   5.223   2.400 -0.4929  1.6975 -1.0468
  149OSM   H13C16465   2.228   5.351   2.486  0.6684  0.1168  2.1395
  149OSM    C1216466   2.488   5.495   2.502  0.5073 -0.3303 -0.9021
  149OSM   H12A16467   2.406   5.563   2.518 -0.2129 -0.9854 -1.7562
  149OSM   H12B16468   2.565   5.551   2.451  2.3557  0.1332  2.1240
  149OSM    C1116469   2.552   5.456   2.636  0.3237  0.1697  0.5117
  149OSM   H11A16470   2.486   5.384   2.688  1.4206 -0.0160  1.6929
  149OSM   H11B16471   2.571   5.540   2.706  0.1579 -1.0714  2.1010
  149OSM      P16472   2.812   5.432   2.665  0.3754 -0.4019  0.4999
  149OSM    O1316473   2.912   5.328   2.637  0.1810  0.3788  0.1393
  149OSM    O1416474   2.844   5.566   2.606 -0.0698 -0.3077 -0.1743
  149OSM    O1116475   2.804   5.454   2.816  0.1503 -0.2322  0.6180
  149OSM    O1216476   2.676   5.386   2.613 -0.4052  0.8287  0.3049
  149OSM    C1S16477   2.765   5.353   2.913  0.2538 -0.0805  0.1189
  149OSM    H1S16478   2.847   5.278   2.908 -0.6615 -1.0090 -2.8144
  149OSM    H1T16479   2.675   5.297   2.880  0.7553 -0.2610 -1.0196
  149OSM     NF16480   2.759   5.278   3.144  0.1315 -0.1980 -0.0153
  149OSM    HNF16481   2.677   5.224   3.160  0.4478 -0.7701 -0.3160
  149OSM    C2S16482   2.743   5.394   3.060 -0.4991  0.1410  0.3107
  149OSM    H2S16483   2.811   5.476   3.091 -0.2037 -0.5776  1.6599
  149OSM    C3S16484   2.604   5.454   3.071 -0.2492 -0.0549 -0.7103
  149OSM    H3S16485   2.527   5.373   3.073  0.1892 -0.5113  1.7699
  149OSM     O316486   2.564   5.534   2.963 -0.1406 -0.1767 -0.3819
  149OSM    HO316487   2.628   5.519   2.892 -3.0647 -4.8599 -2.5279
  149OSM    C4S16488   2.582   5.512   3.216  0.9374  0.1606  0.3736
  149OSM    H4S16489   2.577   5.429   3.287 -0.4566  1.8725  2.3831
  149OSM    C5S16490   2.593   5.639   3.254 -0.7558 -0.6060  0.7123
  149OSM    H5S16491   2.598   5.716   3.176  1.7618 -0.5357  0.8503
  149OSM    C6S16492   2.560   5.696   3.388 -0.4677 -0.0173  0.3980
  149OSM    H6S16493   2.462   5.746   3.399 -0.0776  0.6574  0.8355
  149OSM    H6T16494   2.637   5.770   3.418 -0.7323 -0.5470  2.5515
  149OSM    C7S16495   2.578   5.595   3.501 -0.4283  0.0600  0.4997
  149OSM    H7S16496   2.680   5.550   3.501  0.2383  1.5294  0.5354
  149OSM    H7T16497   2.506   5.512   3.484 -1.3173  0.5430  1.8131
  149OSM    C8S16498   2.544   5.657   3.643 -0.4724 -0.2060  0.2381
  149OSM    H8S16499   2.434   5.673   3.638 -0.7626 -2.0698 -0.2222
  149OSM    H8T16500   2.592   5.757   3.640 -0.3392 -0.2454  0.9901
  149OSM    C9S16501   2.592   5.570   3.757  0.1416 -0.1186  0.3981
  149OSM    H9S16502   2.702   5.562   3.775  0.4325 -1.4041 -1.6048
  149OSM    H9T16503   2.559   5.469   3.725  2.7290 -0.9812  0.1526
  149OSM   C10S16504   2.534   5.610   3.885  0.4460 -0.0957 -0.1297
  149OSM   H10S16505   2.424   5.608   3.871  0.2860 -1.7312  1.0043
  149OSM   H10T16506   2.564   5.715   3.905 -1.0456  0.0226  1.8309
  149OSM   C11S16507   2.572   5.524   4.002 -0.7385 -0.6964  0.1767
  149OSM   H11S16508   2.677   5.538   4.036 -0.2454  1.6339 -2.0089
  149OSM   H11T16509   2.565   5.420   3.966 -0.6683 -0.4643 -0.5170
  149OSM   C12S16510   2.488   5.558   4.127 -0.5584  0.7280  0.0957
  149OSM   H12S16511   2.381   5.549   4.098 -0.2867  0.0590 -0.7593
  149OSM   H12T16512   2.510   5.657   4.172  1.1697 -0.3018  1.6512
  149OSM   C13S16513   2.494   5.449   4.235  0.8235  0.3495  0.0319
  149OSM   H13S16514   2.469   5.360   4.173 -0.3553  2.0751 -2.0861
  149OSM   H13T16515   2.420   5.470   4.315  1.2109 -0.4169  0.6176
  149OSM   C14S16516   2.638   5.414   4.298 -0.3646 -0.2347 -0.2730
  149OSM   H14S16517   2.711   5.475   4.240 -0.4047 -1.3248 -1.5062
  149OSM   H14T16518   2.660   5.307   4.279  0.1723 -0.4015  1.1639
  149OSM   C15S16519   2.643   5.448   4.446 -0.0157  0.3521  0.3915
  149OSM   H15S16520   2.605   5.551   4.463  1.1086  1.1517 -1.6422
  149OSM   H15T16521   2.749   5.447   4.478 -0.5335  0.9739  2.2530
  149OSM   C16S16522   2.576   5.346   4.530 -0.2935 -0.1120 -0.0231
  149OSM   H16S16523   2.648   5.263   4.544  0.1033  0.5274  2.1892
  149OSM   H16T16524   2.482   5.299   4.494 -1.6443  0.2551  2.7545
  149OSM   C17S16525   2.557   5.403   4.673 -0.4657  0.4165  0.0442
  149OSM   H17S16526   2.484   5.487   4.673 -1.0413 -0.0756 -0.0936
  149OSM   H17T16527   2.658   5.444   4.696  0.0368 -0.9172  0.2957
  149OSM   C18S16528   2.523   5.291   4.776 -0.1460 -0.7958  0.2084
  149OSM   H18S16529   2.610   5.233   4.813  3.0340  2.9913 -0.6147
  149OSM   H18T16530   2.442   5.228   4.735 -0.4427 -0.2815 -0.0060
  149OSM   H18U16531   2.489   5.344   4.868 -3.8083 -0.2796 -1.2708
  149OSM    C1F16532   2.882   5.237   3.177 -0.7574  0.5313 -0.0313
  149OSM     OF16533   2.978   5.310   3.144 -0.3005 -0.0363  0.7233
  149OSM    C2F16534   2.889   5.103   3.233  0.8320  0.5952  1.0104
  149OSM    H2F16535   2.947   5.031   3.171 -0.1640  1.0005 -0.4517
  149OSM    H2G16536   2.786   5.063   3.244  0.4999  1.3445  0.6540
  149OSM    C3F16537   2.957   5.089   3.376  0.9743 -0.2778  0.0485
  149OSM    H3F16538   3.056   5.137   3.364 -0.3228  2.8274  0.7598
  149OSM    H3G16539   2.977   4.982   3.395 -1.6075 -0.5456  1.7862
  149OSM    C4F16540   2.889   5.154   3.496  0.5288 -0.1695  0.3570
  149OSM    H4F16541   2.871   5.260   3.468  2.4029 -0.2690 -1.3844
  149OSM    H4G16542   2.956   5.160   3.585 -0.8275  2.7033  1.3320
  149OSM    C5F16543   2.771   5.073   3.544  1.1509  0.2515 -1.1071
  149OSM    H5F16544   2.814   4.970   3.539  3.2656  0.9127  1.1708
  149OSM    H5G16545   2.688   5.071   3.470  0.1575  0.9367 -0.0492
  149OSM    C6F16546   2.730   5.098   3.690  0.2478  0.5466 -0.5184
  149OSM    H6F16547   2.625   5.060   3.690  0.0291  1.0409  1.4399
  149OSM    H6G16548   2.730   5.208   3.709 -3.0543  0.3228  1.6479
  149OSM    C7F16549   2.804   5.007   3.792 -0.1913  0.9995  0.1638
  149OSM    H7F16550   2.913   5.023   3.783  0.2901 -1.2959  1.1399
  149OSM    H7G16551   2.793   4.900   3.763  0.8118  1.1565 -0.8472
  149OSM    C8F16552   2.769   5.016   3.940  0.1833  0.5586  0.0645
  149OSM    H8F16553   2.777   5.122   3.974 -0.9875  1.0025 -0.9640
  149OSM    H8G16554   2.851   4.959   3.989  1.7161  0.5407 -2.3454
  149OSM    C9F16555   2.634   4.963   3.973  0.1266  0.3263 -0.6953
  149OSM    H9F16556   2.572   4.934   3.887  1.0589  1.0898 -1.6601
  149OSM   C10F16557   2.580   4.947   4.099  0.2553 -0.1313  0.3749
  149OSM   H10F16558   2.477   4.912   4.113  0.0155  0.5149  0.2205
  149OSM   C11F16559   2.649   4.982   4.228  0.0814 -0.0496 -0.3315
  149OSM   H11F16560   2.741   5.042   4.211  0.7019 -0.8921  0.0159
  149OSM   H11G16561   2.673   4.884   4.273  0.7871  0.4320  0.3807
  149OSM   C12F16562   2.568   5.039   4.343  0.1682  0.1967  0.1995
  149OSM   H12F16563   2.487   5.105   4.303  0.3996 -0.3429 -1.2263
  149OSM   H12G16564   2.624   5.106   4.411 -1.2455 -0.5126  2.1706
  149OSM   C13F16565   2.485   4.927   4.417 -0.0624  0.5207 -0.6234
  149OSM   H13F16566   2.542   4.833   4.429 -2.4038 -0.7534  1.4481
  149OSM   H13G16567   2.391   4.889   4.372 -0.1200 -1.8715  1.3267
  149OSM   C14F16568   2.450   4.978   4.563  0.3476 -0.6912 -0.1953
  149OSM   H14F16569   2.369   5.054   4.557  1.5059  0.6653  0.8031
  149OSM   H14G16570   2.540   5.022   4.610  0.7452 -1.4261 -0.2581
  149OSM   C15F16571   2.414   4.863   4.665 -0.2476  0.4154 -0.2307
  149OSM   H15F16572   2.492   4.786   4.651 -1.0303 -0.4129 -0.1203
  149OSM   H15G16573   2.321   4.810   4.634  1.1370 -2.7884  0.6815
  149OSM   C16F16574   2.411   4.913   4.808 -0.6782 -0.4597 -0.1443
  149OSM   H16F16575   2.355   5.010   4.813  0.7388  0.3632  0.3693
  149OSM   H16G16576   2.515   4.939   4.834 -0.1338 -0.3597 -2.2090
  149OSM   C17F16577   2.355   4.810   4.914  0.2852 -0.3129 -0.0621
  149OSM   H17F16578   2.250   4.792   4.883  0.3031 -1.9154  0.6679
  149OSM   H17G16579   2.351   4.849   5.017  0.6015  0.0907 -0.2030
  149OSM   C18F16580   2.419   4.671   4.900  0.2698 -0.2075 -0.0045
  149OSM   H18F16581   2.413   4.636   4.795 -2.0960  2.6661 -0.9480
  149OSM   H18G16582   2.349   4.602   4.952  0.0836 -0.0484 -0.0414
  149OSM   H18H16583   2.519   4.658   4.947 -1.3063 -0.3927  3.6588
  150OSM      N16584   0.361   5.831   2.635  0.0467  0.6926 -0.4638
  150OSM    C1516585   0.383   5.700   2.573  0.4704 -0.5503  0.2919
  150OSM   H15A16586   0.389   5.611   2.633  1.7021 -1.0295 -0.4988
  150OSM   H15B16587   0.471   5.705   2.510  0.0892  2.1551 -0.1706
  150OSM   H15C16588   0.292   5.679   2.518  1.0862  0.8428 -1.3503
  150OSM    C1416589   0.356   5.928   2.522 -0.1663  0.6792  0.7140
  150OSM   H14A16590   0.359   6.033   2.549  1.6951  0.3216  2.1634
  150OSM   H14B16591   0.271   5.913   2.458  0.9043  0.6066 -0.7484
  150OSM   H14C16592   0.444   5.915   2.460  0.1065 -2.1240  1.5717
  150OSM    C1316593   0.229   5.826   2.703 -0.3828  0.1525 -0.4406
  150OSM   H13A16594   0.225   5.921   2.755  0.6570  0.6520 -1.2404
  150OSM   H13B16595   0.214   5.757   2.785  2.1060  1.6410  1.4122
  150OSM   H13C16596   0.148   5.822   2.632 -0.8759  1.6075  0.0038
  150OSM    C1216597   0.467   5.860   2.732 -0.7208 -0.3348 -0.4620
  150OSM   H12A16598   0.560   5.863   2.677 -0.4806  0.2341 -0.0320
  150OSM   H12B16599   0.472   5.782   2.807 -0.5628 -1.0537 -1.1913
  150OSM    C1116600   0.462   6.002   2.798 -0.0365 -0.1030  0.5598
  150OSM   H11A16601   0.550   5.995   2.865  0.7659 -4.6108 -0.6175
  150OSM   H11B16602   0.366   6.008   2.854  0.3343  2.3642  1.0438
  150OSM      P16603   0.594   6.174   2.643  0.2133  0.1714 -0.1092
  150OSM    O1316604   0.666   6.072   2.562  0.7188 -0.1905  0.0744
  150OSM    O1416605   0.552   6.290   2.559 -0.2109 -0.5237 -0.3015
  150OSM    O1116606   0.687   6.224   2.756 -0.4447 -0.1508 -0.0318
  150OSM    O1216607   0.471   6.121   2.713 -0.3861 -0.4088  0.5391
  150OSM    C1S16608   0.682   6.346   2.820 -0.6844  0.2590 -0.3616
  150OSM    H1S16609   0.579   6.386   2.817 -1.1959 -0.9997 -0.1350
  150OSM    H1T16610   0.759   6.418   2.782 -0.9507  2.2075  2.4817
  150OSM     NF16611   0.676   6.444   3.054  0.8056 -0.2909 -0.2739
  150OSM    HNF16612   0.756   6.493   3.087  0.1809  1.4833 -1.2076
  150OSM    C2S16613   0.700   6.317   2.980  0.1401  0.4176  0.4810
  150OSM    H2S16614   0.625   6.243   3.016  1.9869  0.0242  3.9405
  150OSM    C3S16615   0.838   6.258   3.006  0.0958  0.2868  0.0674
  150OSM    H3S16616   0.918   6.326   2.971 -0.4581 -0.2000 -2.2901
  150OSM     O316617   0.863   6.140   2.926  0.4525  0.2988 -0.1131
  150OSM    HO316618   0.797   6.133   2.857  1.7227 -1.2725 -1.2235
  150OSM    C4S16619   0.851   6.227   3.158 -0.5719 -1.1281  0.1514
  150OSM    H4S16620   0.904   6.305   3.214 -3.6340  1.0434  0.2611
  150OSM    C5S16621   0.819   6.118   3.222 -0.2173 -0.2538  0.1696
  150OSM    H5S16622   0.784   6.028   3.171 -2.3738  0.0197  1.0804
  150OSM    C6S16623   0.834   6.103   3.372  0.1187  0.4092  0.8566
  150OSM    H6S16624   0.926   6.048   3.402 -0.4050  0.2285  2.1736
  150OSM    H6T16625   0.741   6.046   3.388  0.8568 -0.7572  1.0980
  150OSM    C7S16626   0.835   6.232   3.458  0.4878  0.7751 -0.2930
  150OSM    H7S16627   0.745   6.296   3.445 -0.2945 -0.4556 -1.0970
  150OSM    H7T16628   0.920   6.298   3.432  0.6647  0.5633 -0.2558
  150OSM    C8S16629   0.845   6.190   3.611 -0.3434 -0.6229 -0.0722
  150OSM    H8S16630   0.851   6.284   3.670 -1.0096 -0.6243  0.0148
  150OSM    H8T16631   0.937   6.138   3.643 -1.1045 -1.2056  1.2378
  150OSM    C9S16632   0.721   6.112   3.656 -0.6643 -0.2236  0.3153
  150OSM    H9S16633   0.736   6.023   3.592  0.0032  0.5102 -0.5795
  150OSM    H9T16634   0.626   6.162   3.627 -0.4754 -0.7309 -1.2625
  150OSM   C10S16635   0.709   6.098   3.808 -0.2997 -0.4013  0.1396
  150OSM   H10S16636   0.602   6.101   3.838 -0.7628  2.1395 -1.4550
  150OSM   H10T16637   0.755   6.191   3.849 -1.5974  1.3711 -2.1443
  150OSM   C11S16638   0.776   5.965   3.859  0.0733  0.1675 -0.0131
  150OSM   H11S16639   0.884   5.992   3.868 -0.1195  1.1363 -0.4343
  150OSM   H11T16640   0.768   5.891   3.776  0.1998 -0.5198  0.5813
  150OSM   C12S16641   0.712   5.909   3.987  0.1601  0.6516  0.1945
  150OSM   H12S16642   0.613   5.862   3.965 -0.7098  1.1059  2.7764
  150OSM   H12T16643   0.697   5.993   4.058  0.4192  1.7807 -1.0415
  150OSM   C13S16644   0.799   5.809   4.057 -0.1637  0.0125  0.7895
  150OSM   H13S16645   0.899   5.838   4.018 -1.0780  0.7277 -1.1485
  150OSM   H13T16646   0.786   5.707   4.017 -1.5265  0.4344  0.0994
  150OSM   C14S16647   0.788   5.821   4.211 -0.4916  0.0110  0.1522
  150OSM   H14S16648   0.830   5.922   4.233 -1.4346  0.4310  0.0506
  150OSM   H14T16649   0.864   5.752   4.251 -0.3245  1.3382  2.2603
  150OSM   C15S16650   0.654   5.778   4.261  0.3219 -0.2321 -0.3040
  150OSM   H15S16651   0.646   5.668   4.249 -1.5378 -0.1254 -0.2449
  150OSM   H15T16652   0.571   5.817   4.199 -0.4408 -2.1319 -0.5338
  150OSM   C16S16653   0.634   5.814   4.409  0.4220  0.0815 -0.3535
  150OSM   H16S16654   0.647   5.924   4.405  4.6502 -0.2833 -2.9216
  150OSM   H16T16655   0.720   5.765   4.459  1.8330 -1.1204 -3.6874
  150OSM   C17S16656   0.488   5.781   4.451 -0.5278  0.0916 -0.4240
  150OSM   H17S16657   0.479   5.674   4.423  2.6040 -0.4474  0.2737
  150OSM   H17T16658   0.419   5.844   4.391 -1.5863 -0.8443 -0.2165
  150OSM   C18S16659   0.455   5.802   4.603  0.0978 -0.7598  0.3559
  150OSM   H18S16660   0.501   5.897   4.639 -0.5124 -0.7178  1.0534
  150OSM   H18T16661   0.495   5.717   4.663  0.5412 -1.1044 -0.4126
  150OSM   H18U16662   0.346   5.808   4.620  0.1407  0.0262  0.3837
  150OSM    C1F16663   0.555   6.501   3.075 -0.7009  0.8390 -0.1148
  150OSM     OF16664   0.452   6.433   3.050 -0.7948 -0.2247 -0.4080
  150OSM    C2F16665   0.558   6.636   3.126  0.4928  0.7127 -0.3381
  150OSM    H2F16666   0.520   6.693   3.039 -2.5691 -1.2984 -0.4700
  150OSM    H2G16667   0.661   6.672   3.148  0.0420  0.8424  1.8374
  150OSM    C3F16668   0.480   6.660   3.252 -0.0459 -0.4656 -0.1349
  150OSM    H3F16669   0.381   6.616   3.229 -0.5724 -0.4966  2.0564
  150OSM    H3G16670   0.472   6.768   3.279 -1.7647 -0.2479 -1.3678
  150OSM    C4F16671   0.527   6.583   3.373  0.0188  0.3410 -0.6715
  150OSM    H4F16672   0.633   6.604   3.398  0.8234 -1.0198 -2.6532
  150OSM    H4G16673   0.522   6.472   3.368 -1.8768  0.3046  1.0136
  150OSM    C5F16674   0.442   6.612   3.491  0.4605  0.0337  0.2580
  150OSM    H5F16675   0.336   6.593   3.466  0.5629 -0.5439  0.2608
  150OSM    H5G16676   0.460   6.713   3.536 -0.0260 -0.4214  1.5369
  150OSM    C6F16677   0.472   6.515   3.613  0.1691 -0.1688  1.0175
  150OSM    H6F16678   0.583   6.511   3.618  0.3302  0.9426 -0.7457
  150OSM    H6G16679   0.436   6.411   3.597 -0.7576  0.0895  1.3727
  150OSM    C7F16680   0.434   6.575   3.756 -0.2467  0.5017  0.5229
  150OSM    H7F16681   0.324   6.590   3.751 -0.0251  1.9803 -0.9730
  150OSM    H7G16682   0.481   6.674   3.775  1.7307  0.2513 -2.3560
  150OSM    C8F16683   0.463   6.467   3.870  0.2570  0.1310 -1.2820
  150OSM    H8F16684   0.423   6.369   3.836 -0.6428 -0.0906  0.2984
  150OSM    H8G16685   0.410   6.482   3.967 -1.1658 -0.0718 -2.0006
  150OSM    C9F16686   0.611   6.444   3.894  0.8517 -0.1469  0.9014
  150OSM    H9F16687   0.643   6.349   3.850  2.1900 -0.3676  2.2846
  150OSM   C10F16688   0.711   6.511   3.951 -0.4145  0.2907  1.1046
  150OSM   H10F16689   0.807   6.458   3.953 -0.7858 -0.3645  1.8314
  150OSM   C11F16690   0.706   6.641   4.022 -0.0756 -0.1056  0.0266
  150OSM   H11F16691   0.602   6.679   4.027  0.3582  2.0663 -3.6339
  150OSM   H11G16692   0.772   6.705   3.961  0.5270 -0.9628 -0.2490
  150OSM   C12F16693   0.760   6.638   4.162 -0.3651 -0.4750  0.2188
  150OSM   H12F16694   0.854   6.579   4.155 -0.4604 -0.6219  0.1710
  150OSM   H12G16695   0.680   6.597   4.228 -2.7757  0.5059 -1.9446
  150OSM   C13F16696   0.794   6.783   4.200 -0.2113 -0.4507  0.3878
  150OSM   H13F16697   0.696   6.833   4.183  0.4018  0.1889 -1.4661
  150OSM   H13G16698   0.881   6.823   4.145  0.2436 -1.1038  0.6173
  150OSM   C14F16699   0.835   6.770   4.353 -0.0660  0.0424 -0.3279
  150OSM   H14F16700   0.928   6.710   4.357 -0.3622 -0.3715  0.8044
  150OSM   H14G16701   0.756   6.723   4.417  2.5736 -2.1350  1.5785
  150OSM   C15F16702   0.863   6.908   4.411  0.1320  0.5025  1.0482
  150OSM   H15F16703   0.774   6.974   4.417 -0.2116  0.2868 -0.9173
  150OSM   H15G16704   0.928   6.968   4.344 -1.5736 -0.1650 -1.3440
  150OSM   C16F16705   0.930   6.901   4.550 -0.3608  0.0239  0.0355
  150OSM   H16F16706   0.961   7.000   4.589 -4.7032  1.6273 -0.0007
  150OSM   H16G16707   1.018   6.835   4.533  0.0189  0.7657 -0.9838
  150OSM   C17F16708   0.857   6.840   4.665 -0.3741 -0.4599  0.2121
  150OSM   H17F16709   0.915   6.806   4.754  0.4898  0.4893  0.0198
  150OSM   H17G16710   0.808   6.748   4.628 -2.3549  0.9068 -0.7376
  150OSM   C18F16711   0.739   6.926   4.719 -0.7448  1.0315  0.0283
  150OSM   H18F16712   0.700   6.869   4.806 -0.2507 -2.0671 -1.6680
  150OSM   H18G16713   0.655   6.928   4.646 -2.0628 -1.4910  1.3418
  150OSM   H18H16714   0.767   7.028   4.754  1.5550 -0.0263  1.5054
  151OSM      N16715   3.123   5.715   2.395  0.1060 -0.8237 -0.1002
  151OSM    C1516716   3.267   5.779   2.382 -0.1731  0.1288  0.5695
  151OSM   H15A16717   3.275   5.874   2.432  0.4045 -0.0918  0.9219
  151OSM   H15B16718   3.287   5.795   2.277 -0.2762  0.6013  0.6240
  151OSM   H15C16719   3.346   5.711   2.414 -0.1770 -0.0038  0.2972
  151OSM    C1416720   3.037   5.831   2.380  0.8081  0.2289  0.5780
  151OSM   H14A16721   3.056   5.907   2.454  0.7176  0.5740  0.2515
  151OSM   H14B16722   2.932   5.806   2.387  0.9189 -0.5726 -0.3567
  151OSM   H14C16723   3.042   5.874   2.281 -0.4618 -3.4197 -1.2584
  151OSM    C1316724   3.099   5.608   2.293 -0.5821  0.1611 -0.1873
  151OSM   H13A16725   2.997   5.580   2.271 -0.4855 -0.4445  0.1259
  151OSM   H13B16726   3.148   5.520   2.330 -0.9135  0.9813  2.3769
  151OSM   H13C16727   3.137   5.643   2.198 -0.3969  2.8178  0.7656
  151OSM    C1216728   3.103   5.656   2.520  0.6512  0.5289 -1.0256
  151OSM   H12A16729   3.000   5.629   2.536  0.9122  0.6852  1.1905
  151OSM   H12B16730   3.119   5.721   2.604  2.3361  0.0599 -0.9506
  151OSM    C1116731   3.198   5.533   2.558  0.1546  0.9004 -0.5094
  151OSM   H11A16732   3.209   5.455   2.479 -0.7629 -1.2815  1.4075
  151OSM   H11B16733   3.161   5.478   2.647  1.9276  0.1750 -0.1812
  151OSM      P16734   3.427   5.551   2.701  0.2600 -0.2649 -0.2810
  151OSM    O1316735   3.460   5.409   2.702 -0.2518  0.2495 -0.3120
  151OSM    O1416736   3.544   5.644   2.686  0.2545  0.3064 -0.3365
  151OSM    O1116737   3.345   5.589   2.832 -0.4522  0.6489  0.2521
  151OSM    O1216738   3.327   5.586   2.589  0.2076 -0.0689 -0.1887
  151OSM    C1S16739   3.351   5.499   2.943  0.8874 -1.0539 -0.1141
  151OSM    H1S16740   3.455   5.480   2.979  0.5768 -1.2870  0.6579
  151OSM    H1T16741   3.303   5.403   2.913 -0.6733 -0.6366  0.9792
  151OSM     NF16742   3.263   5.463   3.174  0.1698  0.0965  0.1608
  151OSM    HNF16743   3.181   5.408   3.186 -0.5517  0.9337 -0.7329
  151OSM    C2S16744   3.264   5.555   3.060 -0.6421  0.2860 -0.2238
  151OSM    H2S16745   3.311   5.648   3.098  0.1219 -0.2102  0.0768
  151OSM    C3S16746   3.117   5.590   3.014 -0.4440  0.6076  0.8270
  151OSM    H3S16747   3.064   5.497   2.983  1.3992  0.2366 -1.4237
  151OSM     O316748   3.104   5.665   2.892 -0.6317 -0.0984 -0.1769
  151OSM    HO316749   3.193   5.663   2.856 -0.8501  2.0127 -1.0223
  151OSM    C4S16750   3.043   5.650   3.130 -0.6445  0.0801  0.8473
  151OSM    H4S16751   2.985   5.574   3.185 -0.9739  1.6110  2.7415
  151OSM    C5S16752   3.053   5.783   3.162  0.3799  0.4498  0.5501
  151OSM    H5S16753   3.088   5.855   3.086 -1.0420  0.1891 -0.3880
  151OSM    C6S16754   2.981   5.845   3.275 -0.0633 -0.2214  0.0603
  151OSM    H6S16755   2.906   5.910   3.227  0.9104 -0.4728 -1.9200
  151OSM    H6T16756   3.045   5.919   3.327 -1.8729  2.8449 -1.7802
  151OSM    C7S16757   2.920   5.757   3.391  0.0472  0.9643  0.3154
  151OSM    H7S16758   2.859   5.676   3.344  3.8530 -1.7773 -0.3651
  151OSM    H7T16759   2.850   5.809   3.460 -0.7166  0.3979 -0.0215
  151OSM    C8S16760   3.037   5.699   3.478  0.8231 -0.2612 -0.7396
  151OSM    H8S16761   3.094   5.781   3.527  0.3072  0.9650 -2.1300
  151OSM    H8T16762   3.111   5.626   3.439  0.0728 -1.1251 -0.5933
  151OSM    C9S16763   2.972   5.610   3.594 -0.1713  0.1746 -0.0658
  151OSM    H9S16764   2.917   5.534   3.535 -0.6569 -0.2350  0.9054
  151OSM    H9T16765   2.898   5.670   3.651 -2.3452 -0.1849 -2.3704
  151OSM   C10S16766   3.079   5.547   3.688  0.1508 -0.3852  0.7439
  151OSM   H10S16767   3.155   5.625   3.708  0.4958 -1.3513  3.5994
  151OSM   H10T16768   3.134   5.462   3.642  0.7928 -0.8884  2.3862
  151OSM   C11S16769   3.026   5.513   3.824  0.1425  0.3446 -0.4792
  151OSM   H11S16770   2.928   5.563   3.842 -0.4594 -1.1385  0.5771
  151OSM   H11T16771   3.110   5.549   3.886  1.1201  2.3480 -2.8062
  151OSM   C12S16772   3.004   5.363   3.842  0.1325 -0.2580  0.3240
  151OSM   H12S16773   3.071   5.310   3.771 -1.6639  0.3799 -1.9588
  151OSM   H12T16774   2.899   5.340   3.813 -0.7574  3.2969  0.2699
  151OSM   C13S16775   3.051   5.320   3.983 -0.4059 -0.0491 -0.5735
  151OSM   H13S16776   3.150   5.366   4.001 -1.1564  1.1376  0.7602
  151OSM   H13T16777   3.061   5.210   3.992 -0.7960  0.0829  3.0129
  151OSM   C14S16778   2.955   5.355   4.093 -0.4446  0.0253  0.4326
  151OSM   H14S16779   2.867   5.288   4.083 -1.3968  1.3258 -0.2138
  151OSM   H14T16780   2.914   5.456   4.072  2.2373  1.3321  1.1324
  151OSM   C15S16781   3.017   5.363   4.231  0.1113 -0.6354 -0.0443
  151OSM   H15S16782   2.931   5.393   4.294  0.7342 -1.8716  1.4630
  151OSM   H15T16783   3.086   5.448   4.247  0.6026 -1.0528  0.0886
  151OSM   C16S16784   3.076   5.240   4.289  0.2065  0.9741  0.0023
  151OSM   H16S16785   3.143   5.204   4.208  0.3126  3.9845 -1.4040
  151OSM   H16T16786   2.990   5.170   4.291 -0.0371  1.1740 -1.6888
  151OSM   C17S16787   3.131   5.261   4.427  0.6053 -0.0817 -0.0619
  151OSM   H17S16788   3.202   5.347   4.418 -0.8176  1.0857 -0.5461
  151OSM   H17T16789   3.191   5.179   4.472 -0.1870  0.1142  1.3948
  151OSM   C18S16790   3.021   5.295   4.524 -0.6818  0.6113 -0.6422
  151OSM   H18S16791   2.941   5.219   4.515 -0.6621  0.2361  1.6933
  151OSM   H18T16792   2.992   5.399   4.499  1.5848  0.9027 -2.4828
  151OSM   H18U16793   3.066   5.285   4.625 -1.4643 -3.3655 -0.5225
  151OSM    C1F16794   3.372   5.446   3.252 -0.0595 -0.4432  0.4581
  151OSM     OF16795   3.475   5.510   3.231  0.1610  0.1670  0.1701
  151OSM    C2F16796   3.361   5.336   3.357 -0.0873  0.4520  0.2832
  151OSM    H2F16797   3.379   5.242   3.301 -0.2638  1.7596 -2.0648
  151OSM    H2G16798   3.259   5.345   3.400 -0.7291  1.7872 -1.4241
  151OSM    C3F16799   3.484   5.356   3.451 -0.4172  0.1844 -1.0344
  151OSM    H3F16800   3.481   5.465   3.474  0.7440  0.0334 -0.0472
  151OSM    H3G16801   3.584   5.328   3.412 -0.3562  0.2091 -0.8967
  151OSM    C4F16802   3.470   5.277   3.585  0.5567 -0.2500 -0.6306
  151OSM    H4F16803   3.527   5.182   3.578 -0.4394 -0.7913 -1.7541
  151OSM    H4G16804   3.364   5.243   3.585  0.9951 -1.6701 -0.6902
  151OSM    C5F16805   3.495   5.362   3.714 -0.1720 -0.3158 -0.5181
  151OSM    H5F16806   3.431   5.453   3.709 -1.4748 -1.1709  0.0863
  151OSM    H5G16807   3.594   5.410   3.696 -0.2192 -0.8600 -2.4379
  151OSM    C6F16808   3.500   5.286   3.849  0.1707 -0.4589  0.4185
  151OSM    H6F16809   3.587   5.218   3.864  0.4679 -0.1525  0.0844
  151OSM    H6G16810   3.406   5.227   3.856 -1.8137  2.2602 -1.4675
  151OSM    C7F16811   3.495   5.376   3.975  0.2759 -0.2727  0.3453
  151OSM    H7F16812   3.396   5.427   3.975 -0.3690 -1.4968 -0.0293
  151OSM    H7G16813   3.567   5.461   3.975 -1.8353  1.6403 -1.1690
  151OSM    C8F16814   3.501   5.294   4.110  0.3572 -0.0685  0.5150
  151OSM    H8F16815   3.436   5.204   4.107 -0.3548  0.4614 -1.2968
  151OSM    H8G16816   3.463   5.363   4.188 -0.6183  0.2805 -0.2616
  151OSM    C9F16817   3.646   5.271   4.137 -0.5103  0.7935 -0.8461
  151OSM    H9F16818   3.711   5.332   4.073  0.7899  0.1918 -0.1417
  151OSM   C10F16819   3.700   5.177   4.226  0.3736  1.0007  0.2877
  151OSM   H10F16820   3.809   5.163   4.224  0.1871 -0.6123 -0.0804
  151OSM   C11F16821   3.613   5.096   4.322 -0.2500  0.1422  0.0577
  151OSM   H11F16822   3.654   4.994   4.329 -0.7975  0.0123  2.7044
  151OSM   H11G16823   3.512   5.083   4.279 -0.1322 -1.1346  0.1330
  151OSM   C12F16824   3.589   5.153   4.466  0.2934  0.7026 -0.1407
  151OSM   H12F16825   3.538   5.251   4.461  0.8624  0.9737 -0.8682
  151OSM   H12G16826   3.687   5.172   4.515  0.6879  0.8843 -0.9841
  151OSM   C13F16827   3.509   5.058   4.559 -0.0928  0.2568 -0.0506
  151OSM   H13F16828   3.411   5.039   4.510  0.2124 -0.6948 -0.3011
  151OSM   H13G16829   3.490   5.120   4.649 -2.4961 -0.1113 -0.2284
  151OSM   C14F16830   3.586   4.926   4.598 -0.1573 -0.1934  0.6625
  151OSM   H14F16831   3.581   4.864   4.506 -0.9614  1.4939 -0.4779
  151OSM   H14G16832   3.528   4.885   4.683 -0.1042 -0.2236  0.6844
  151OSM   C15F16833   3.735   4.947   4.648 -0.5964  0.1006  0.1873
  151OSM   H15F16834   3.720   5.019   4.731 -1.9145 -0.5584  0.5546
  151OSM   H15G16835   3.806   4.986   4.572 -1.5751  0.2826 -0.6640
  151OSM   C16F16836   3.806   4.819   4.718 -0.3632 -0.3064 -0.3107
  151OSM   H16F16837   3.820   4.732   4.650 -0.5104 -0.7125  0.1714
  151OSM   H16G16838   3.745   4.795   4.807 -0.8930  0.1087 -0.5579
  151OSM   C17F16839   3.949   4.855   4.766 -0.0263  0.8551  0.1182
  151OSM   H17F16840   4.005   4.889   4.676 -0.7549  1.4160 -0.1400
  151OSM   H17G16841   4.002   4.765   4.804  1.5666  1.5528 -0.3713
  151OSM   C18F16842   3.964   4.961   4.872  0.4334  0.0994 -0.3849
  151OSM   H18F16843   3.924   4.936   4.973  1.8832  0.0240  0.1933
  151OSM   H18G16844   3.911   5.054   4.842 -2.3412 -0.9697  0.8384
  151OSM   H18H16845   4.072   4.980   4.893  0.2050 -0.4260  1.4492
  152OSM      N16846   6.573   2.504   2.588  0.1133  0.1913  0.5146
  152OSM    C1516847   6.425   2.498   2.550  0.2777  0.7888 -0.5069
  152OSM   H15A16848   6.366   2.511   2.639  0.7686 -1.1130  0.1651
  152OSM   H15B16849   6.408   2.400   2.508  0.2345 -0.3694  2.0153
  152OSM   H15C16850   6.404   2.576   2.479 -0.0717  0.4893 -0.7374
  152OSM    C1416851   6.621   2.635   2.644  0.2358  0.4452  0.2624
  152OSM   H14A16852   6.556   2.651   2.729  0.9703 -0.0059  0.9239
  152OSM   H14B16853   6.613   2.710   2.567 -1.2087 -2.3072 -2.5118
  152OSM   H14C16854   6.719   2.625   2.687 -0.6659  2.3737  3.0521
  152OSM    C1316855   6.599   2.396   2.687  0.3751  0.8192  1.1374
  152OSM   H13A16856   6.696   2.394   2.735  2.0209  0.8971 -1.9369
  152OSM   H13B16857   6.592   2.299   2.638 -1.5155  0.7434  1.4630
  152OSM   H13C16858   6.515   2.400   2.755 -0.4440  2.8186  0.0911
  152OSM    C1216859   6.649   2.481   2.461 -0.4244  0.9031  0.5432
  152OSM   H12A16860   6.755   2.497   2.472  0.2018 -0.6206 -2.3516
  152OSM   H12B16861   6.625   2.558   2.388 -0.5221 -0.5432 -1.0043
  152OSM    C1116862   6.633   2.340   2.400 -0.6842  0.2415  0.3402
  152OSM   H11A16863   6.681   2.266   2.469  0.5544  0.9373  0.2526
  152OSM   H11B16864   6.688   2.332   2.304 -2.7603  1.2388 -0.9960
  152OSM      P16865   6.448   2.152   2.372  0.0470 -0.1426  0.0626
  152OSM    O1316866   6.302   2.164   2.338  0.7402 -0.2324  0.5470
  152OSM    O1416867   6.526   2.059   2.292 -0.2101  1.0321 -0.3994
  152OSM    O1116868   6.464   2.115   2.521  1.0151  0.3711 -0.2033
  152OSM    O1216869   6.509   2.295   2.354 -0.1291  0.5869  0.7491
  152OSM    C1S16870   6.571   2.031   2.563 -0.7742 -0.6037 -0.5634
  152OSM    H1S16871   6.670   2.061   2.523 -1.5527  3.2040 -0.0805
  152OSM    H1T16872   6.548   1.925   2.543 -0.2346 -0.6627 -0.8850
  152OSM     NF16873   6.685   1.928   2.764 -0.8662  0.1332  0.5162
  152OSM    HNF16874   6.639   1.842   2.785  0.2193 -1.1276 -1.8554
  152OSM    C2S16875   6.595   2.037   2.721 -0.5454 -0.2030  0.0057
  152OSM    H2S16876   6.636   2.136   2.751 -0.0914 -0.4099  0.0763
  152OSM    C3S16877   6.448   2.033   2.796  0.1434  0.1103  0.1848
  152OSM    H3S16878   6.417   1.929   2.775  1.1893 -0.1480 -0.1475
  152OSM     O316879   6.340   2.117   2.751 -0.5543  0.5544  0.4347
  152OSM    HO316880   6.372   2.153   2.668 -2.0837  0.7015 -0.1115
  152OSM    C4S16881   6.449   2.021   2.950 -0.1680 -0.1082 -0.3097
  152OSM    H4S16882   6.463   1.919   2.988  1.7901  0.2109 -0.0574
  152OSM    C5S16883   6.443   2.118   3.038 -0.6396 -0.0720 -0.0984
  152OSM    H5S16884   6.420   2.218   2.996  0.4938 -0.6661 -2.2556
  152OSM    C6S16885   6.446   2.116   3.189  0.8116  0.0355 -0.6280
  152OSM    H6S16886   6.364   2.183   3.224  0.9088  1.1685 -2.4227
  152OSM    H6T16887   6.539   2.160   3.230  0.0355 -0.1612  1.4736
  152OSM    C7S16888   6.447   1.977   3.255  0.0955 -0.5445 -0.2876
  152OSM    H7S16889   6.537   1.923   3.217  0.8637  1.1609 -0.9853
  152OSM    H7T16890   6.349   1.931   3.229  0.6608 -1.9358 -0.0761
  152OSM    C8S16891   6.459   1.997   3.404 -0.2740  0.2493 -0.0768
  152OSM    H8S16892   6.373   2.058   3.439 -0.1879 -0.4365  1.3642
  152OSM    H8T16893   6.556   2.050   3.420  0.3800 -0.5414 -1.2842
  152OSM    C9S16894   6.465   1.863   3.474 -0.7329 -0.0091  0.3229
  152OSM    H9S16895   6.556   1.803   3.452 -1.1176 -0.7453  0.6680
  152OSM    H9T16896   6.382   1.798   3.440 -0.1669 -1.2689  1.2395
  152OSM   C10S16897   6.447   1.891   3.622  0.1327  0.0917  1.3619
  152OSM   H10S16898   6.351   1.937   3.653  0.3132  0.2860  1.6432
  152OSM   H10T16899   6.522   1.970   3.643  0.8521  0.4627 -1.9779
  152OSM   C11S16900   6.466   1.770   3.709 -0.4434  0.0121 -0.0091
  152OSM   H11S16901   6.566   1.733   3.676 -0.9309  0.8134 -2.6435
  152OSM   H11T16902   6.391   1.691   3.690 -1.9796  1.4784 -0.3348
  152OSM   C12S16903   6.467   1.802   3.856  0.5534  0.3678  0.1660
  152OSM   H12S16904   6.371   1.848   3.889  1.6801  0.2681  4.0819
  152OSM   H12T16905   6.549   1.872   3.881 -0.0292  0.4323  2.0430
  152OSM   C13S16906   6.477   1.673   3.943 -0.5211 -0.2826 -0.3835
  152OSM   H13S16907   6.567   1.619   3.908 -0.9083 -1.8898  0.9374
  152OSM   H13T16908   6.391   1.609   3.914 -1.1371  0.9196 -1.3175
  152OSM   C14S16909   6.487   1.701   4.099 -0.0123  0.0954  0.0568
  152OSM   H14S16910   6.396   1.762   4.114 -1.4397 -2.3843  2.4047
  152OSM   H14T16911   6.583   1.746   4.133  0.9912 -1.1897 -0.9805
  152OSM   C15S16912   6.473   1.578   4.187  0.4990  0.2769 -0.4944
  152OSM   H15S16913   6.559   1.515   4.156  0.7035  1.2764 -2.1465
  152OSM   H15T16914   6.380   1.526   4.155  0.3309  0.6525 -0.6248
  152OSM   C16S16915   6.472   1.598   4.341  0.5239  0.2696 -0.5275
  152OSM   H16S16916   6.442   1.496   4.373 -0.1052 -0.0021 -1.9023
  152OSM   H16T16917   6.393   1.671   4.368 -2.2078 -2.1371 -1.4763
  152OSM   C17S16918   6.600   1.630   4.412 -0.2733  0.1379 -0.1630
  152OSM   H17S16919   6.565   1.644   4.517  0.2498  0.2126  0.0093
  152OSM   H17T16920   6.642   1.730   4.386 -1.1478  0.4307 -0.4957
  152OSM   C18S16921   6.693   1.514   4.412 -0.2020 -0.2833  0.0194
  152OSM   H18S16922   6.766   1.517   4.496 -3.0123  0.4956  2.6113
  152OSM   H18T16923   6.744   1.508   4.314 -0.4527  0.7204 -0.1820
  152OSM   H18U16924   6.630   1.423   4.426  2.7232 -2.3398  0.6930
  152OSM    C1F16925   6.811   1.936   2.734 -1.0517  0.6941 -0.3405
  152OSM     OF16926   6.857   2.031   2.674  0.6829  0.1055  0.0435
  152OSM    C2F16927   6.889   1.818   2.772 -0.1499  1.0149 -0.1841
  152OSM    H2F16928   6.903   1.746   2.688  1.8589 -0.4037  1.2710
  152OSM    H2G16929   6.832   1.759   2.847  0.6831  0.7461  0.2488
  152OSM    C3F16930   7.022   1.852   2.841 -0.0576  0.4665 -0.0221
  152OSM    H3F16931   7.087   1.902   2.766  2.8848 -1.8811  0.7577
  152OSM    H3G16932   7.055   1.749   2.864  1.3811  0.4694 -1.8818
  152OSM    C4F16933   7.022   1.934   2.972  0.1975  0.6860  0.7898
  152OSM    H4F16934   6.984   2.038   2.968  1.2923  1.0782 -2.0524
  152OSM    H4G16935   7.130   1.944   2.996  0.4299  0.4917 -0.1306
  152OSM    C5F16936   6.959   1.862   3.093 -0.5122 -0.1427  0.0648
  152OSM    H5F16937   7.021   1.772   3.117 -1.5921 -0.8429  0.2851
  152OSM    H5G16938   6.857   1.823   3.075 -0.8827  0.0783  1.5391
  152OSM    C6F16939   6.969   1.950   3.218  0.6812 -0.3090 -0.0253
  152OSM    H6F16940   6.919   2.047   3.198 -0.6919 -0.7948  0.9286
  152OSM    H6G16941   7.072   1.986   3.242  0.8882 -0.9263  0.0288
  152OSM    C7F16942   6.909   1.896   3.348 -0.0546 -1.0812  0.0837
  152OSM    H7F16943   6.949   1.795   3.374 -0.7760 -1.3944  0.0143
  152OSM    H7G16944   6.800   1.891   3.327  0.0003 -0.5419 -0.3441
  152OSM    C8F16945   6.932   1.980   3.477 -0.0439  0.3057 -0.7499
  152OSM    H8F16946   6.924   2.089   3.457 -2.5983  0.2977 -0.1130
  152OSM    H8G16947   7.036   1.964   3.515  0.1872  0.3883 -1.3404
  152OSM    C9F16948   6.829   1.946   3.588 -0.1664  0.0927  0.1574
  152OSM    H9F16949   6.731   1.994   3.574 -0.8243 -0.9015  1.2110
  152OSM   C10F16950   6.842   1.857   3.688  0.9309 -0.1904  0.2134
  152OSM   H10F16951   6.755   1.830   3.750  0.7650 -0.8912 -0.3050
  152OSM   C11F16952   6.973   1.786   3.716  1.0814 -0.4276 -0.0904
  152OSM   H11F16953   7.051   1.865   3.718 -0.0425  0.7087  0.1372
  152OSM   H11G16954   6.995   1.720   3.629  2.3581  1.1626 -1.0524
  152OSM   C12F16955   6.986   1.688   3.831 -0.0331  0.1854 -0.7736
  152OSM   H12F16956   7.067   1.614   3.823  0.0541 -0.3150  2.8677
  152OSM   H12G16957   6.891   1.631   3.838  0.2013 -0.2112 -0.7934
  152OSM   C13F16958   6.997   1.760   3.960 -0.2403 -0.4832 -0.2863
  152OSM   H13F16959   6.920   1.840   3.955  1.0353  0.8274  0.2669
  152OSM   H13G16960   7.088   1.824   3.960 -1.0456  0.7091 -1.1583
  152OSM   C14F16961   6.970   1.677   4.090  0.6832 -0.5404 -0.5166
  152OSM   H14F16962   7.065   1.620   4.100  1.4032  0.6229 -0.3728
  152OSM   H14G16963   6.881   1.611   4.086 -1.1120  1.7386 -0.2258
  152OSM   C15F16964   6.954   1.763   4.213 -0.2030  0.7332  0.3510
  152OSM   H15F16965   6.904   1.695   4.285  1.0114  0.3885  0.8933
  152OSM   H15G16966   6.891   1.854   4.202 -1.4882 -0.2530 -0.7097
  152OSM   C16F16967   7.092   1.789   4.276  0.2137 -0.2140  0.5906
  152OSM   H16F16968   7.149   1.850   4.203 -0.2625 -0.3261  0.1226
  152OSM   H16G16969   7.142   1.690   4.279  1.0023  0.0104 -2.4126
  152OSM   C17F16970   7.093   1.858   4.425 -0.3382  0.6670  0.3907
  152OSM   H17F16971   7.047   1.959   4.419 -0.1592  0.7317  0.0353
  152OSM   H17G16972   7.195   1.885   4.461 -1.6921  2.6193  3.0511
  152OSM   C18F16973   7.015   1.780   4.536 -0.8824 -0.4999 -0.0248
  152OSM   H18F16974   7.036   1.832   4.632  0.9287 -0.2174 -0.5385
  152OSM   H18G16975   7.063   1.684   4.565  1.4443  0.6300  0.0641
  152OSM   H18H16976   6.908   1.772   4.507 -0.5798  0.6613 -1.5470
  153OSM      N16977   4.400   2.474   2.466 -0.0946 -0.3746  0.1123
  153OSM    C1516978   4.492   2.394   2.374  0.1912  0.2852  0.3587
  153OSM   H15A16979   4.596   2.405   2.403  0.3450  0.0983 -0.1061
  153OSM   H15B16980   4.496   2.437   2.276  2.2939 -0.4384  0.0647
  153OSM   H15C16981   4.467   2.289   2.374  0.0230  0.2674 -2.0651
  153OSM    C1416982   4.400   2.625   2.444 -0.2923  0.0811 -0.8695
  153OSM   H14A16983   4.354   2.675   2.528  2.9374  0.1409  0.9995
  153OSM   H14B16984   4.356   2.648   2.348  1.1399 -0.5391 -1.7068
  153OSM   H14C16985   4.501   2.664   2.440 -0.3662  0.2360 -1.4069
  153OSM    C1316986   4.257   2.432   2.457 -0.1198  0.3674  0.1339
  153OSM   H13A16987   4.187   2.497   2.507 -2.9282 -0.6577 -2.1691
  153OSM   H13B16988   4.254   2.344   2.520 -1.3739  0.9523  0.9165
  153OSM   H13C16989   4.226   2.395   2.360 -2.2511 -0.4298  1.0500
  153OSM    C1216990   4.455   2.466   2.612  0.0803  0.2708  0.8206
  153OSM   H12A16991   4.552   2.511   2.607  0.8790 -1.4010 -4.0712
  153OSM   H12B16992   4.473   2.362   2.637  0.8045 -0.1837 -1.3480
  153OSM    C1116993   4.361   2.517   2.723  0.6009 -0.9659  1.2305
  153OSM   H11A16994   4.397   2.478   2.821  2.6444  2.2459  1.9302
  153OSM   H11B16995   4.256   2.485   2.711  0.7887 -0.3949 -3.8120
  153OSM      P16996   4.474   2.723   2.810  0.2057  0.0342  0.0962
  153OSM    O1316997   4.596   2.672   2.756  0.3518 -0.1009 -0.3807
  153OSM    O1416998   4.454   2.871   2.808 -0.0242 -0.6069 -0.1809
  153OSM    O1116999   4.454   2.663   2.948 -0.4187  0.5922 -0.6768
  153OSM    O1217000   4.360   2.663   2.725  0.1397  0.0756  0.2445
  153OSM    C1S17001   4.331   2.666   3.022 -0.3294  0.1254 -0.7881
  153OSM    H1S17002   4.267   2.582   2.988 -0.5671  0.5763 -1.4703
  153OSM    H1T17003   4.272   2.759   3.004  0.3774  1.2999  2.3314
  153OSM     NF17004   4.235   2.626   3.243  0.4808 -0.4260 -0.4882
  153OSM    HNF17005   4.185   2.694   3.297 -0.0102 -3.0828  2.7490
  153OSM    C2S17006   4.349   2.671   3.175 -0.4723  0.1980 -0.1408
  153OSM    H2S17007   4.433   2.605   3.206 -1.3790  0.0531  2.1757
  153OSM    C3S17008   4.388   2.818   3.216  0.0158 -0.2252 -0.1383
  153OSM    H3S17009   4.295   2.872   3.188  0.3626 -0.2996 -1.5198
  153OSM     O317010   4.486   2.873   3.133  0.4835 -0.3435 -0.2831
  153OSM    HO317011   4.517   2.807   3.070  1.0246 -0.0091 -0.3770
  153OSM    C4S17012   4.426   2.825   3.355  0.1390  0.4158 -1.1603
  153OSM    H4S17013   4.337   2.832   3.419  0.1442  0.0497 -1.1093
  153OSM    C5S17014   4.544   2.803   3.421  0.0177  0.1233 -0.3735
  153OSM    H5S17015   4.638   2.768   3.376  1.5408  2.5902  0.6395
  153OSM    C6S17016   4.564   2.818   3.570 -0.0430 -0.5727  0.0490
  153OSM    H6S17017   4.669   2.856   3.571 -0.9061  2.1568 -2.0983
  153OSM    H6T17018   4.554   2.722   3.625  2.4966 -1.3088 -0.6076
  153OSM    C7S17019   4.479   2.925   3.635 -0.0796 -0.9089 -0.8169
  153OSM    H7S17020   4.372   2.925   3.605 -0.0670 -0.7903 -0.8641
  153OSM    H7T17021   4.510   3.027   3.602 -0.2152 -0.0985  1.3965
  153OSM    C8S17022   4.480   2.930   3.790 -0.6359 -0.1082 -0.1302
  153OSM    H8S17023   4.449   2.833   3.833 -0.3103 -0.2859 -0.2985
  153OSM    H8T17024   4.411   3.011   3.823  2.2260  1.0575  3.6242
  153OSM    C9S17025   4.616   2.964   3.852  0.9291 -0.9037  0.1980
  153OSM    H9S17026   4.629   3.069   3.817 -2.5712  0.1927  1.7348
  153OSM    H9T17027   4.699   2.903   3.810  0.8053  0.4378 -2.1688
  153OSM   C10S17028   4.624   2.961   4.002 -0.0680  0.2913  0.7425
  153OSM   H10S17029   4.726   2.987   4.035 -0.5860  0.1947  2.4980
  153OSM   H10T17030   4.600   2.859   4.039 -1.1097  0.1346 -0.3005
  153OSM   C11S17031   4.537   3.060   4.080  0.0736 -0.1439  0.1329
  153OSM   H11S17032   4.452   3.012   4.132 -1.4710  0.8864 -1.3106
  153OSM   H11T17033   4.496   3.142   4.017 -1.4477 -0.8067  0.2237
  153OSM   C12S17034   4.619   3.138   4.185 -0.2054 -0.2472  0.2480
  153OSM   H12S17035   4.563   3.227   4.223 -1.5137 -0.7543 -0.4381
  153OSM   H12T17036   4.708   3.183   4.136  0.3871  0.2109  1.6719
  153OSM   C13S17037   4.660   3.056   4.307  0.3013  0.2907 -0.1072
  153OSM   H13S17038   4.689   2.952   4.280 -1.5544 -0.5395  0.9425
  153OSM   H13T17039   4.575   3.034   4.375  0.4085  1.5176  0.4541
  153OSM   C14S17040   4.776   3.128   4.384  0.5175 -0.1219  0.0778
  153OSM   H14S17041   4.736   3.222   4.428  0.2282 -0.4675  0.5725
  153OSM   H14T17042   4.863   3.155   4.320 -0.3521 -2.7805 -2.4698
  153OSM   C15S17043   4.822   3.032   4.492  0.6375  0.6779  0.3976
  153OSM   H15S17044   4.845   2.934   4.445 -2.1446  0.7780 -1.3866
  153OSM   H15T17045   4.731   3.004   4.550  0.1259  0.7686 -0.3517
  153OSM   C16S17046   4.929   3.086   4.587  0.0247 -0.3410  0.4264
  153OSM   H16S17047   4.912   3.193   4.615  1.0779  0.0787 -0.4451
  153OSM   H16T17048   5.021   3.080   4.524  0.3198  0.2448  0.7843
  153OSM   C17S17049   4.963   2.998   4.712  0.1995 -0.4819  0.1494
  153OSM   H17S17050   5.006   2.903   4.674  1.9721  0.1831  0.4127
  153OSM   H17T17051   4.870   2.955   4.755 -0.1979  0.1574 -0.0582
  153OSM   C18S17052   5.055   3.050   4.821  0.5306  0.4478  1.0511
  153OSM   H18S17053   5.156   3.076   4.783 -0.3690 -1.6637 -3.4376
  153OSM   H18T17054   5.077   2.969   4.894 -1.9989 -0.9564  0.3637
  153OSM   H18U17055   5.016   3.139   4.874 -1.5286 -0.7454  1.6566
  153OSM    C1F17056   4.180   2.508   3.246 -0.0898 -0.3854  0.3062
  153OSM     OF17057   4.251   2.421   3.202  0.0924 -0.5938  0.7497
  153OSM    C2F17058   4.040   2.488   3.290  0.7407 -0.1559  0.3827
  153OSM    H2F17059   3.992   2.438   3.203  2.0627  1.1946 -1.1838
  153OSM    H2G17060   3.991   2.584   3.318 -1.5964 -0.6243 -1.7115
  153OSM    C3F17061   4.041   2.394   3.414  0.5386  0.2931 -0.5750
  153OSM    H3F17062   4.089   2.299   3.383  1.2003  0.3548  0.2241
  153OSM    H3G17063   3.937   2.368   3.442  1.3983 -0.7395  1.9607
  153OSM    C4F17064   4.111   2.450   3.536 -0.2808  0.0561  0.3070
  153OSM    H4F17065   4.048   2.539   3.559 -0.2423 -0.1072  1.0363
  153OSM    H4G17066   4.212   2.477   3.498 -0.2233 -1.0941 -0.4265
  153OSM    C5F17067   4.118   2.351   3.647  0.1014 -0.3391  0.1498
  153OSM    H5F17068   4.182   2.263   3.626 -0.5286 -0.4490 -1.4310
  153OSM    H5G17069   4.011   2.326   3.664 -0.2921  1.4678  0.5188
  153OSM    C6F17070   4.155   2.437   3.771 -0.2278 -0.1887 -0.3866
  153OSM    H6F17071   4.068   2.489   3.818  0.8400  2.7046 -1.3901
  153OSM    H6G17072   4.231   2.515   3.752  0.9028 -1.4729 -1.2725
  153OSM    C7F17073   4.214   2.358   3.887 -0.0787 -0.3920 -0.1857
  153OSM    H7F17074   4.307   2.309   3.851  0.5322  1.1555 -0.8249
  153OSM    H7G17075   4.146   2.280   3.927  1.6347 -1.7417  0.2254
  153OSM    C8F17076   4.255   2.444   4.006  0.1285  0.1964  0.2063
  153OSM    H8F17077   4.169   2.508   4.037  0.0386  0.5660 -0.7631
  153OSM    H8G17078   4.335   2.514   3.974  0.3347  0.4275  1.2115
  153OSM    C9F17079   4.299   2.346   4.113  0.0453 -0.0770 -0.1831
  153OSM    H9F17080   4.389   2.288   4.087  1.1901  0.8436  1.5553
  153OSM   C10F17081   4.247   2.325   4.236 -0.0816  0.1770  0.1695
  153OSM   H10F17082   4.295   2.247   4.298 -0.5102 -1.0801 -1.0229
  153OSM   C11F17083   4.124   2.387   4.300  0.1695 -0.1747  0.7572
  153OSM   H11F17084   4.065   2.300   4.333  3.6521 -2.1350  2.3821
  153OSM   H11G17085   4.085   2.462   4.227 -0.7334 -1.4893 -0.1531
  153OSM   C12F17086   4.178   2.463   4.428 -0.4711  0.8903  0.5928
  153OSM   H12F17087   4.218   2.382   4.492 -0.6979 -0.3350 -0.7674
  153OSM   H12G17088   4.084   2.497   4.476 -2.5390 -2.1748 -0.9549
  153OSM   C13F17089   4.279   2.574   4.402  0.4010 -0.0862  0.1963
  153OSM   H13F17090   4.237   2.658   4.462 -2.1413  0.5828 -2.2756
  153OSM   H13G17091   4.267   2.605   4.296 -0.6606 -2.8955 -0.5792
  153OSM   C14F17092   4.417   2.540   4.445 -0.0605  0.0836  0.1471
  153OSM   H14F17093   4.473   2.505   4.356 -0.5483 -1.9211  0.5832
  153OSM   H14G17094   4.421   2.459   4.521  1.1289 -0.8546 -0.8668
  153OSM   C15F17095   4.504   2.660   4.486  0.4552 -0.8253 -0.6009
  153OSM   H15F17096   4.485   2.733   4.405 -0.4529 -2.5154 -1.9906
  153OSM   H15G17097   4.613   2.643   4.497  1.2256  2.6227 -1.6309
  153OSM   C16F17098   4.446   2.716   4.619  0.8422  0.1322  0.2002
  153OSM   H16F17099   4.446   2.641   4.700  0.9445  1.4356  1.4452
  153OSM   H16G17100   4.342   2.756   4.611  0.7057 -0.4606 -1.6224
  153OSM   C17F17101   4.536   2.836   4.652 -0.0954 -0.4242 -0.3093
  153OSM   H17F17102   4.535   2.897   4.560 -0.9128 -0.1157 -0.1031
  153OSM   H17G17103   4.638   2.792   4.660 -0.9890 -2.6267 -0.2249
  153OSM   C18F17104   4.513   2.909   4.782 -0.2364 -0.5914  0.4740
  153OSM   H18F17105   4.600   2.974   4.804  1.1087 -1.8680 -0.8455
  153OSM   H18G17106   4.502   2.840   4.867  0.7165 -1.5802 -0.1779
  153OSM   H18H17107   4.423   2.974   4.788  0.9184  1.0179  1.0675
  154OSM      N17108   1.144   6.793   2.225 -0.2638  0.3212 -0.1915
  154OSM    C1517109   1.001   6.838   2.238 -0.3775 -0.4715 -0.3065
  154OSM   H15A17110   0.943   6.821   2.149  0.4694 -0.2193 -0.9154
  154OSM   H15B17111   1.005   6.939   2.274  0.8286 -0.8114  0.6034
  154OSM   H15C17112   0.949   6.783   2.316  0.8221  0.9842  1.5903
  154OSM    C1417113   1.142   6.644   2.203 -0.0292 -0.5798 -0.5249
  154OSM   H14A17114   1.070   6.596   2.267  0.6865  0.4773  1.1381
  154OSM   H14B17115   1.240   6.607   2.230 -1.7012 -3.4842  2.1131
  154OSM   H14C17116   1.124   6.626   2.098  1.3800  2.0423 -1.3075
  154OSM    C1317117   1.209   6.868   2.115  0.5991  0.0823  0.5411
  154OSM   H13A17118   1.312   6.843   2.095  0.6213  2.2166 -2.8473
  154OSM   H13B17119   1.216   6.975   2.131 -3.9682  0.6087  0.1987
  154OSM   H13C17120   1.158   6.854   2.021 -0.3342 -0.1317  1.0724
  154OSM    C1217121   1.211   6.824   2.355 -0.1157 -0.4847  0.0500
  154OSM   H12A17122   1.199   6.929   2.378  0.0749 -0.3639 -0.4088
  154OSM   H12B17123   1.317   6.805   2.346 -0.4669 -1.6215 -2.2872
  154OSM    C1117124   1.161   6.743   2.479  0.0250  0.6396 -0.7671
  154OSM   H11A17125   1.211   6.782   2.571 -3.1465  1.4016  0.7511
  154OSM   H11B17126   1.185   6.636   2.463 -3.0212 -0.0603 -1.1310
  154OSM      P17127   0.925   6.643   2.553  0.2289  0.1701  0.1537
  154OSM    O1317128   0.793   6.700   2.572  0.1769 -0.2928 -0.3133
  154OSM    O1417129   0.932   6.544   2.441 -0.0863  0.0058  0.1030
  154OSM    O1117130   0.992   6.585   2.684  0.0609  0.5410  0.0235
  154OSM    O1217131   1.018   6.765   2.508 -0.1227  0.2846  0.2297
  154OSM    C1S17132   1.000   6.663   2.811 -1.1107  0.3056  0.3233
  154OSM    H1S17133   0.904   6.663   2.866  0.2627 -1.3292  2.9825
  154OSM    H1T17134   1.025   6.770   2.796  1.5323  0.0378  2.0015
  154OSM     NF17135   1.094   6.705   3.036  0.1180 -0.6264 -0.0727
  154OSM    HNF17136   1.149   6.789   3.035 -0.1515 -0.4095 -2.4323
  154OSM    C2S17137   1.110   6.619   2.918 -0.3814  0.0718 -0.5323
  154OSM    H2S17138   1.086   6.515   2.947  0.7689 -0.6568 -2.0142
  154OSM    C3S17139   1.262   6.608   2.869  0.6102  0.1495 -0.5888
  154OSM    H3S17140   1.298   6.709   2.839 -1.0125  2.3744  4.0707
  154OSM     O317141   1.277   6.523   2.761  0.4049  0.0870 -0.0477
  154OSM    HO317142   1.189   6.492   2.740  0.2584 -0.3422  1.1345
  154OSM    C4S17143   1.363   6.546   2.958 -0.4027 -0.3505 -0.0153
  154OSM    H4S17144   1.361   6.437   2.975  0.8900 -0.2248  1.1527
  154OSM    C5S17145   1.450   6.617   3.029 -0.0083  0.3876  0.0054
  154OSM    H5S17146   1.474   6.718   2.990 -0.2880  0.7028  0.6461
  154OSM    C6S17147   1.546   6.550   3.120  0.9174 -0.1820 -0.1494
  154OSM    H6S17148   1.647   6.594   3.108  1.1080 -0.6667 -0.3468
  154OSM    H6T17149   1.558   6.442   3.098  1.0215  0.0495 -1.2652
  154OSM    C7S17150   1.499   6.589   3.260 -0.1157 -0.1155  0.4350
  154OSM    H7S17151   1.393   6.561   3.282 -0.2401  0.8064  1.0687
  154OSM    H7T17152   1.493   6.699   3.267 -1.5988 -0.1081 -0.5628
  154OSM    C8S17153   1.589   6.546   3.374 -0.2443  0.7557 -0.0850
  154OSM    H8S17154   1.690   6.588   3.356 -0.7025  1.1511 -2.0635
  154OSM    H8T17155   1.592   6.435   3.374  1.8007  0.7789 -0.9018
  154OSM    C9S17156   1.527   6.611   3.506 -0.0757 -0.2794 -0.1028
  154OSM    H9S17157   1.420   6.583   3.522  0.0597 -0.1289  1.1929
  154OSM    H9T17158   1.518   6.720   3.484  1.8066 -0.3453 -1.3784
  154OSM   C10S17159   1.603   6.586   3.628 -0.4444  0.2342  0.4608
  154OSM   H10S17160   1.700   6.635   3.609 -0.5421 -0.1435 -1.1881
  154OSM   H10T17161   1.617   6.476   3.637  0.5905  0.3313  0.1814
  154OSM   C11S17162   1.538   6.643   3.760  0.0708  0.2680  0.6538
  154OSM   H11S17163   1.431   6.617   3.747  0.8787 -2.5535 -1.0946
  154OSM   H11T17164   1.544   6.754   3.753 -1.0806  0.3698  1.0238
  154OSM   C12S17165   1.605   6.590   3.889  0.1162 -0.2910 -0.0846
  154OSM   H12S17166   1.712   6.586   3.862  0.2668  0.6619  0.3190
  154OSM   H12T17167   1.561   6.493   3.919  2.6506 -1.4452  0.1285
  154OSM   C13S17168   1.570   6.670   4.016  0.0769 -0.1918  0.3848
  154OSM   H13S17169   1.460   6.675   4.033 -0.0316  0.8800 -0.4844
  154OSM   H13T17170   1.619   6.770   4.006  1.4297 -0.6631  1.8536
  154OSM   C14S17171   1.632   6.612   4.149  0.1137  0.8263  0.2706
  154OSM   H14S17172   1.718   6.545   4.129 -0.5643  0.3964 -1.3397
  154OSM   H14T17173   1.565   6.531   4.186  0.2616 -0.4666 -2.1088
  154OSM   C15S17174   1.664   6.714   4.253 -0.1797 -0.1632  0.6214
  154OSM   H15S17175   1.575   6.773   4.284  0.3234  0.0544  1.7362
  154OSM   H15T17176   1.738   6.780   4.203 -1.2492  0.7526  0.2028
  154OSM   C16S17177   1.736   6.670   4.381 -0.4276  0.9491  0.2038
  154OSM   H16S17178   1.813   6.593   4.361 -0.6630  0.8352 -0.2880
  154OSM   H16T17179   1.670   6.631   4.461  0.5839 -2.1056 -0.3186
  154OSM   C17S17180   1.821   6.782   4.442 -0.4916 -0.3108  0.5865
  154OSM   H17S17181   1.765   6.873   4.472  1.2744  1.4492 -1.2007
  154OSM   H17T17182   1.882   6.829   4.362  0.8803  2.0050  2.8670
  154OSM   C18S17183   1.921   6.714   4.536 -0.3647  0.2339 -0.4926
  154OSM   H18S17184   1.985   6.637   4.488 -0.3065  0.1111 -0.2158
  154OSM   H18T17185   1.869   6.677   4.627  0.3130 -0.6621 -0.4633
  154OSM   H18U17186   1.995   6.790   4.571  0.9439 -1.4399  0.5107
  154OSM    C1F17187   0.988   6.687   3.116  0.4299  0.1923 -0.3264
  154OSM     OF17188   0.929   6.580   3.116  0.2228 -0.3610  0.1097
  154OSM    C2F17189   0.947   6.800   3.198  0.3186  0.9745 -0.8237
  154OSM    H2F17190   0.875   6.863   3.142  0.1214  2.8373  1.3717
  154OSM    H2G17191   1.032   6.870   3.208  1.0735  0.2885 -2.2137
  154OSM    C3F17192   0.910   6.754   3.339  0.9317  0.4373 -0.4689
  154OSM    H3F17193   0.835   6.672   3.334  1.7910 -0.3522 -0.9384
  154OSM    H3G17194   0.870   6.836   3.403  1.6358  1.8513 -1.7914
  154OSM    C4F17195   1.029   6.693   3.417 -0.1643  0.6436 -0.4947
  154OSM    H4F17196   1.104   6.774   3.433 -1.1928  1.3924  0.7077
  154OSM    H4G17197   1.081   6.619   3.352 -0.7554 -0.1128 -0.1155
  154OSM    C5F17198   0.989   6.638   3.555  0.2510 -0.1765  0.6052
  154OSM    H5F17199   0.908   6.563   3.556 -0.1811  0.2234 -1.1593
  154OSM    H5G17200   0.939   6.720   3.611 -0.7337 -0.0830 -0.3714
  154OSM    C6F17201   1.104   6.593   3.645  0.3294 -0.1231 -0.0440
  154OSM    H6F17202   1.153   6.687   3.676 -3.5559  2.4429 -0.9033
  154OSM    H6G17203   1.180   6.521   3.610 -0.5637 -4.0543  4.8782
  154OSM    C7F17204   1.054   6.512   3.768  0.1166  0.4468  0.8021
  154OSM    H7F17205   0.997   6.423   3.733  0.8676  0.4299 -0.4494
  154OSM    H7G17206   0.975   6.572   3.819  0.0496 -0.1188  1.3670
  154OSM    C8F17207   1.172   6.466   3.852 -0.3806 -0.0459 -0.2332
  154OSM    H8F17208   1.231   6.554   3.885 -0.4392  1.0599 -2.8556
  154OSM    H8G17209   1.235   6.393   3.797 -1.2614 -1.9619  1.1796
  154OSM    C9F17210   1.124   6.389   3.974  0.3657 -0.4863 -0.2287
  154OSM    H9F17211   1.052   6.316   3.937  1.5899 -1.6027 -0.4806
  154OSM   C10F17212   1.132   6.412   4.105 -0.1322 -0.1680  0.0651
  154OSM   H10F17213   1.082   6.340   4.171 -4.6665  1.0828 -1.6556
  154OSM   C11F17214   1.220   6.514   4.169 -0.6114  0.3317 -0.6984
  154OSM   H11F17215   1.176   6.610   4.203  2.2906  1.8418 -0.9546
  154OSM   H11G17216   1.293   6.558   4.098 -1.5171  0.3473 -1.6578
  154OSM   C12F17217   1.295   6.451   4.292  0.4951 -0.3182  0.1311
  154OSM   H12F17218   1.374   6.525   4.316 -0.4929  0.9569 -0.4050
  154OSM   H12G17219   1.337   6.352   4.264  0.9994 -0.0681 -0.0173
  154OSM   C13F17220   1.206   6.443   4.417 -0.2673  0.0274  0.2648
  154OSM   H13F17221   1.102   6.417   4.386  0.5116 -1.0262 -1.6915
  154OSM   H13G17222   1.204   6.543   4.466  3.2818  0.6400 -0.5949
  154OSM   C14F17223   1.273   6.348   4.524 -0.0128 -0.1360  0.0287
  154OSM   H14F17224   1.380   6.367   4.546  0.5266 -2.6040 -0.1962
  154OSM   H14G17225   1.262   6.246   4.482 -0.4931  0.2490 -0.8082
  154OSM   C15F17226   1.191   6.371   4.657 -0.7194  0.2553 -0.7549
  154OSM   H15F17227   1.085   6.348   4.635 -0.3738 -1.6013 -0.6333
  154OSM   H15G17228   1.219   6.472   4.694 -2.2144 -0.1394  1.6254
  154OSM   C16F17229   1.233   6.274   4.763  0.2085  0.4777 -0.5950
  154OSM   H16F17230   1.186   6.175   4.743 -1.6606  1.4161 -1.0615
  154OSM   H16G17231   1.183   6.309   4.856 -3.3815 -0.5646 -1.9627
  154OSM   C17F17232   1.382   6.252   4.790  0.3202 -1.0846  0.0863
  154OSM   H17F17233   1.430   6.209   4.700  2.4140 -0.6784  0.9304
  154OSM   H17G17234   1.390   6.167   4.861  2.0431 -0.7932  0.3045
  154OSM   C18F17235   1.464   6.371   4.843  0.6223  0.6316 -0.4128
  154OSM   H18F17236   1.458   6.456   4.771  1.2042  0.0024 -1.2259
  154OSM   H18G17237   1.571   6.342   4.852  0.1494 -1.1056  0.0055
  154OSM   H18H17238   1.426   6.393   4.945  1.3153  0.4465 -0.1138
  155OSM      N17239   4.551   6.607   2.787 -0.4880  0.4011  0.1344
  155OSM    C1517240   4.507   6.580   2.927  0.1416 -0.1622  0.0400
  155OSM   H15A17241   4.564   6.505   2.980 -0.6817 -1.0612 -0.3195
  155OSM   H15B17242   4.405   6.544   2.935 -0.5501  1.5693 -0.4935
  155OSM   H15C17243   4.495   6.671   2.983 -2.6431  0.0896 -0.8164
  155OSM    C1417244   4.546   6.481   2.716 -0.6040 -0.2833  0.3139
  155OSM   H14A17245   4.455   6.422   2.717  0.4393 -1.9821 -0.8210
  155OSM   H14B17246   4.620   6.414   2.758 -0.2567 -1.4543 -2.0453
  155OSM   H14C17247   4.582   6.487   2.615  0.7836 -0.6073  0.7772
  155OSM    C1317248   4.445   6.697   2.724 -0.1489 -0.9543  0.3819
  155OSM   H13A17249   4.438   6.778   2.794  0.0738 -0.2712 -0.3700
  155OSM   H13B17250   4.353   6.640   2.724 -0.2536 -0.8247  2.1518
  155OSM   H13C17251   4.464   6.737   2.625  1.0786 -1.0599  0.5686
  155OSM    C1217252   4.691   6.673   2.784 -0.0329 -0.2875  0.1908
  155OSM   H12A17253   4.709   6.692   2.679  0.3251  0.4639  0.3858
  155OSM   H12B17254   4.761   6.596   2.814  1.1965  0.5269 -0.4958
  155OSM    C1117255   4.713   6.796   2.873 -0.3640  0.8083  0.0456
  155OSM   H11A17256   4.817   6.829   2.852 -0.5142 -0.1502 -2.5762
  155OSM   H11B17257   4.694   6.765   2.977 -1.0697  0.9430 -0.0379
  155OSM      P17258   4.625   7.007   2.731  0.1214 -0.2164 -0.5157
  155OSM    O1317259   4.666   6.944   2.600  0.4672  0.6440 -0.1759
  155OSM    O1417260   4.504   7.089   2.729  0.2705 -0.3535 -0.1414
  155OSM    O1117261   4.751   7.088   2.786  0.2128  0.5351  0.0386
  155OSM    O1217262   4.613   6.901   2.843 -0.1806  0.2164  0.0695
  155OSM    C1S17263   4.746   7.183   2.893  0.0885  0.4502  0.4063
  155OSM    H1S17264   4.643   7.206   2.927  0.7833  2.9913  0.9864
  155OSM    H1T17265   4.794   7.277   2.859 -0.8140  0.9071  0.3778
  155OSM     NF17266   4.809   7.251   3.135  0.7725  0.5668 -0.8607
  155OSM    HNF17267   4.889   7.307   3.156  0.5143  0.2933  1.0346
  155OSM    C2S17268   4.826   7.147   3.030 -0.0256  0.4963  0.1347
  155OSM    H2S17269   4.769   7.061   3.071 -0.6298  0.1111 -1.4249
  155OSM    C3S17270   4.968   7.114   2.990 -0.1488  0.3359 -0.1795
  155OSM    H3S17271   5.003   7.206   2.938 -2.2381  0.6176 -1.1814
  155OSM     O317272   4.979   6.990   2.922  0.2523 -0.0373  0.2081
  155OSM    HO317273   4.908   6.984   2.858 -0.8672 -0.4698  1.4347
  155OSM    C4S17274   5.061   7.101   3.110 -0.1032 -0.2670 -0.5783
  155OSM    H4S17275   5.120   7.193   3.116  0.0364 -0.3833 -0.1017
  155OSM    C5S17276   5.071   7.007   3.206  0.1253 -0.0220 -0.3090
  155OSM    H5S17277   5.016   6.913   3.198  0.6518 -0.3782  0.1722
  155OSM    C6S17278   5.173   7.026   3.314 -0.2292  0.3091  1.0313
  155OSM    H6S17279   5.213   7.129   3.320  0.7563 -0.1144  2.3897
  155OSM    H6T17280   5.250   6.951   3.284 -1.2160 -0.6486  0.8149
  155OSM    C7S17281   5.114   6.989   3.453  0.1229  0.0969 -0.1663
  155OSM    H7S17282   5.021   7.044   3.481 -0.2429  0.0658 -1.3003
  155OSM    H7T17283   5.194   7.015   3.526  0.3196 -5.0105  1.9286
  155OSM    C8S17284   5.090   6.837   3.475 -0.4831 -0.5281  0.5172
  155OSM    H8S17285   5.158   6.778   3.410 -1.8345 -1.2397 -0.2952
  155OSM    H8T17286   4.991   6.809   3.434  0.4814 -0.5298 -2.0057
  155OSM    C9S17287   5.097   6.802   3.625 -0.1023 -0.1811 -0.6697
  155OSM    H9S17288   5.192   6.833   3.673  0.5348 -3.0453  0.1333
  155OSM    H9T17289   5.096   6.691   3.638  0.7561  0.0606  2.0137
  155OSM   C10S17290   4.975   6.846   3.701  0.0813  0.4486 -0.7624
  155OSM   H10S17291   4.888   6.834   3.634  0.9934  1.4106 -2.1680
  155OSM   H10T17292   5.002   6.953   3.718 -1.7940  0.8059  0.2127
  155OSM   C11S17293   4.966   6.777   3.836  0.4373 -0.2372 -0.3526
  155OSM   H11S17294   5.059   6.806   3.889  0.5805  0.7075 -1.0871
  155OSM   H11T17295   4.965   6.666   3.829 -0.8338 -0.2414 -0.2485
  155OSM   C12S17296   4.840   6.821   3.912  0.0405  0.0965 -0.3843
  155OSM   H12S17297   4.855   6.771   4.010  1.3599 -0.7496 -0.9997
  155OSM   H12T17298   4.751   6.798   3.850  1.1501 -1.0091 -1.6309
  155OSM   C13S17299   4.846   6.974   3.944  0.3045  0.0865 -0.1236
  155OSM   H13S17300   4.826   7.027   3.848 -0.4622  0.3694  0.1812
  155OSM   H13T17301   4.951   6.996   3.974 -0.0430  0.6367  0.7323
  155OSM   C14S17302   4.751   7.029   4.053  0.4745  0.7254  0.0899
  155OSM   H14S17303   4.653   6.987   4.025  0.9673 -1.3190  1.2792
  155OSM   H14T17304   4.740   7.137   4.028  1.8555  0.9233  0.2676
  155OSM   C15S17305   4.772   6.990   4.204 -0.5131  0.1058  0.0358
  155OSM   H15S17306   4.881   6.997   4.222 -0.8513  0.6495  2.1095
  155OSM   H15T17307   4.743   6.883   4.217 -0.6012  0.2753  1.3917
  155OSM   C16S17308   4.698   7.077   4.300  0.4631  0.2145  0.1272
  155OSM   H16S17309   4.588   7.062   4.291  0.8194 -2.2545 -0.8003
  155OSM   H16T17310   4.710   7.185   4.276  2.7597  0.0365  0.2865
  155OSM   C17S17311   4.727   7.059   4.453  0.0065 -0.0649 -0.4450
  155OSM   H17S17312   4.838   7.067   4.459  0.1109 -0.0405 -1.9568
  155OSM   H17T17313   4.697   6.954   4.473  0.0286 -0.4187 -2.1202
  155OSM   C18S17314   4.661   7.169   4.536  0.3333 -0.0542  0.5915
  155OSM   H18S17315   4.550   7.159   4.535  0.2107  0.8752  1.8455
  155OSM   H18T17316   4.690   7.270   4.499 -1.4672  1.0444  1.9733
  155OSM   H18U17317   4.692   7.155   4.642 -0.0041  0.8395  0.8190
  155OSM    C1F17318   4.689   7.272   3.183  0.1863  0.6828 -0.3578
  155OSM     OF17319   4.599   7.189   3.177 -0.4081 -0.1437 -0.0327
  155OSM    C2F17320   4.672   7.407   3.246  0.2863 -0.3905  0.5119
  155OSM    H2F17321   4.571   7.443   3.217  0.6716 -0.3976 -0.9041
  155OSM    H2G17322   4.741   7.486   3.211 -0.3534 -0.5035 -1.1136
  155OSM    C3F17323   4.665   7.398   3.399  0.1834  0.1936 -0.3737
  155OSM    H3F17324   4.574   7.337   3.417 -0.3009  0.9012 -0.4072
  155OSM    H3G17325   4.646   7.504   3.426 -1.8283  0.1498 -1.4537
  155OSM    C4F17326   4.787   7.341   3.469  0.2585 -0.0634  0.6041
  155OSM    H4F17327   4.866   7.419   3.467  2.2381 -1.9821 -1.4488
  155OSM    H4G17328   4.825   7.253   3.413 -1.4511  0.6311 -1.7838
  155OSM    C5F17329   4.754   7.300   3.612  0.2249  0.0423  0.0336
  155OSM    H5F17330   4.845   7.282   3.674  0.2509 -0.1414 -0.0566
  155OSM    H5G17331   4.700   7.203   3.604  0.9660 -0.3289 -0.6190
  155OSM    C6F17332   4.658   7.393   3.687 -0.1231 -0.2066 -0.2010
  155OSM    H6F17333   4.551   7.397   3.661 -0.0999  2.3696 -0.1986
  155OSM    H6G17334   4.684   7.499   3.668 -2.0895  0.4571  0.6100
  155OSM    C7F17335   4.675   7.371   3.842 -0.2079 -0.0488  0.7588
  155OSM    H7F17336   4.778   7.337   3.865 -0.1517 -0.3676  0.0534
  155OSM    H7G17337   4.594   7.299   3.868  0.8750 -1.1180  1.2987
  155OSM    C8F17338   4.653   7.504   3.911  0.1311 -0.3750  0.0236
  155OSM    H8F17339   4.576   7.565   3.859  1.8833  3.6605  1.6841
  155OSM    H8G17340   4.746   7.565   3.907 -1.4232  2.0335 -1.3054
  155OSM    C9F17341   4.604   7.500   4.054  0.2555  1.0998  0.3372
  155OSM    H9F17342   4.497   7.480   4.074  0.3064 -0.0787 -0.4504
  155OSM   C10F17343   4.680   7.499   4.163  0.2464  0.3036 -0.4697
  155OSM   H10F17344   4.647   7.488   4.268  1.8639  0.6334  0.1062
  155OSM   C11F17345   4.834   7.514   4.163  0.2298  0.4384  0.2730
  155OSM   H11F17346   4.868   7.620   4.166  0.8094  0.2500  0.6194
  155OSM   H11G17347   4.871   7.484   4.063 -0.9163  0.4966 -0.1804
  155OSM   C12F17348   4.908   7.433   4.267 -0.3694  0.1766 -0.3053
  155OSM   H12F17349   4.887   7.324   4.259  3.2942 -0.7578  1.0096
  155OSM   H12G17350   4.876   7.459   4.370  0.9111 -1.7639  0.6402
  155OSM   C13F17351   5.068   7.451   4.262 -0.0348 -0.6653  0.7384
  155OSM   H13F17352   5.114   7.371   4.324 -1.1839 -2.9241 -1.1626
  155OSM   H13G17353   5.093   7.544   4.318 -2.3999  0.3034  0.2932
  155OSM   C14F17354   5.118   7.459   4.118 -0.4038  0.3931 -0.1812
  155OSM   H14F17355   5.226   7.467   4.143 -0.7905 -0.3677  1.9198
  155OSM   H14G17356   5.087   7.552   4.066 -0.9016  0.0600 -0.4873
  155OSM   C15F17357   5.104   7.336   4.020  1.3782 -0.7135 -0.1929
  155OSM   H15F17358   5.019   7.353   3.950  1.6455  1.1489 -0.1204
  155OSM   H15G17359   5.075   7.245   4.078  0.2457  0.7458  1.6543
  155OSM   C16F17360   5.232   7.312   3.935  0.1417  0.9373  0.6987
  155OSM   H16F17361   5.321   7.287   3.996 -1.4761  0.3421  2.9093
  155OSM   H16G17362   5.252   7.400   3.869 -0.1642 -0.4548 -1.3391
  155OSM   C17F17363   5.208   7.184   3.848 -0.4404 -0.3431 -0.3838
  155OSM   H17F17364   5.129   7.205   3.774  0.9635  0.3442 -1.7383
  155OSM   H17G17365   5.167   7.102   3.912  2.2745 -3.0412 -1.8394
  155OSM   C18F17366   5.333   7.143   3.772 -0.1221  0.5003  0.4031
  155OSM   H18F17367   5.313   7.058   3.703  0.6170 -0.8183  1.7505
  155OSM   H18G17368   5.412   7.110   3.844 -0.0373 -1.3002 -0.4573
  155OSM   H18H17369   5.363   7.220   3.698  0.5566 -1.4493 -1.4682
  156OSM      N17370   2.633   0.174   2.381  0.1559  0.2010 -0.8375
  156OSM    C1517371   2.774   0.121   2.362  0.0015  0.2614  0.4035
  156OSM   H15A17372   2.807   0.053   2.439  0.5385 -1.5443 -1.3614
  156OSM   H15B17373   2.840   0.206   2.370 -0.2249  0.6515 -1.4309
  156OSM   H15C17374   2.791   0.079   2.264 -1.2798 -1.7224  0.9619
  156OSM    C1417375   2.619   0.285   2.286  0.2307 -0.0762 -0.4358
  156OSM   H14A17376   2.524   0.333   2.304 -0.1421 -1.8012  2.9967
  156OSM   H14B17377   2.612   0.254   2.183 -1.4669  0.0414 -0.3851
  156OSM   H14C17378   2.691   0.362   2.311 -2.5426  2.5909 -0.0759
  156OSM    C1317379   2.532   0.069   2.346  0.3614  0.5397  0.2554
  156OSM   H13A17380   2.550   0.045   2.242 -0.9831 -0.4896  0.2445
  156OSM   H13B17381   2.430   0.101   2.356 -0.5001 -0.8655 -2.7381
  156OSM   H13C17382   2.553  -0.016   2.409  2.1670  1.7312  1.3584
  156OSM    C1217383   2.617   0.217   2.521 -0.2417  0.1012  0.0026
  156OSM   H12A17384   2.686   0.299   2.537 -0.3982  0.2172  0.0841
  156OSM   H12B17385   2.653   0.147   2.596 -0.8043  3.2707  3.5594
  156OSM    C1117386   2.480   0.273   2.570 -0.5110 -0.6093 -0.9021
  156OSM   H11A17387   2.490   0.289   2.679  1.0975 -2.0604 -0.8038
  156OSM   H11B17388   2.406   0.197   2.539  1.9506 -1.8873 -4.2366
  156OSM      P17389   2.467   0.538   2.548  0.5977 -0.0431 -0.3616
  156OSM    O1317390   2.612   0.568   2.539 -0.2032  0.6148 -0.0466
  156OSM    O1417391   2.370   0.631   2.483 -0.5260  0.2833  0.2110
  156OSM    O1117392   2.428   0.522   2.702  0.0315  0.2606 -0.2137
  156OSM    O1217393   2.439   0.388   2.491  0.5516 -0.6468 -0.5507
  156OSM    C1S17394   2.433   0.634   2.798  0.5052 -0.0349 -0.3022
  156OSM    H1S17395   2.361   0.710   2.760  2.2612  0.9589 -1.7694
  156OSM    H1T17396   2.534   0.677   2.808 -0.2708  1.4927  1.6395
  156OSM     NF17397   2.380   0.710   3.031  0.5192  0.3185 -0.2372
  156OSM    HNF17398   2.466   0.739   3.071  0.5773  0.0202 -0.1443
  156OSM    C2S17399   2.399   0.592   2.943 -1.1123  0.0805  0.2504
  156OSM    H2S17400   2.308   0.529   2.935 -0.9948  0.1381 -3.4612
  156OSM    C3S17401   2.505   0.490   2.998  0.0796  0.4313 -0.4895
  156OSM    H3S17402   2.604   0.541   2.997 -0.0884  0.8531  1.0513
  156OSM     O317403   2.520   0.372   2.915  0.5412 -0.2462  0.4249
  156OSM    HO317404   2.459   0.399   2.845 -1.0614  0.1582  1.9074
  156OSM    C4S17405   2.479   0.447   3.145 -0.1169  0.5451  0.3133
  156OSM    H4S17406   2.404   0.367   3.147  2.0882 -1.9475 -3.2917
  156OSM    C5S17407   2.555   0.502   3.243  0.1361 -0.0350  0.3290
  156OSM    H5S17408   2.650   0.550   3.214 -0.5302  0.9355 -0.3187
  156OSM    C6S17409   2.528   0.474   3.383  1.1709 -0.1151 -0.1872
  156OSM    H6S17410   2.522   0.364   3.398 -1.9900 -0.0794 -0.4532
  156OSM    H6T17411   2.422   0.501   3.405  1.9457  1.3690  2.0374
  156OSM    C7S17412   2.620   0.534   3.488 -0.5085  0.1053 -0.2326
  156OSM    H7S17413   2.608   0.644   3.479 -0.1341  0.3677  1.9480
  156OSM    H7T17414   2.727   0.518   3.463 -0.5269  2.0018 -1.8288
  156OSM    C8S17415   2.611   0.483   3.629 -0.5593  0.2452  0.7009
  156OSM    H8S17416   2.697   0.505   3.695  0.4643 -0.5498 -0.3284
  156OSM    H8T17417   2.618   0.372   3.627  0.1935  0.2868 -1.8251
  156OSM    C9S17418   2.479   0.531   3.690 -0.1765  0.0140  0.2310
  156OSM    H9S17419   2.394   0.497   3.627  1.5781  0.7450 -2.7405
  156OSM    H9T17420   2.471   0.641   3.673 -0.0909 -0.0077  0.0498
  156OSM   C10S17421   2.467   0.485   3.833 -0.7816 -0.8261  0.2326
  156OSM   H10S17422   2.565   0.507   3.879 -0.6274  1.5132 -1.0965
  156OSM   H10T17423   2.445   0.376   3.835 -0.9148 -0.7921  0.6292
  156OSM   C11S17424   2.354   0.553   3.913  0.2609 -0.2304  0.6632
  156OSM   H11S17425   2.262   0.512   3.867 -0.5403  0.3351  1.7103
  156OSM   H11T17426   2.351   0.664   3.909  0.1704 -0.2666 -0.3966
  156OSM   C12S17427   2.367   0.503   4.064  0.2054 -0.4617 -0.4004
  156OSM   H12S17428   2.465   0.533   4.107  0.5246 -0.9365 -0.7885
  156OSM   H12T17429   2.352   0.393   4.062 -0.1871 -0.4399  0.6872
  156OSM   C13S17430   2.246   0.556   4.146 -0.3687  0.6892  0.4289
  156OSM   H13S17431   2.154   0.502   4.117 -0.6610  0.4600  1.7286
  156OSM   H13T17432   2.225   0.665   4.139 -1.2273  0.4992 -0.1036
  156OSM   C14S17433   2.263   0.538   4.298 -0.2004 -0.2219  0.0919
  156OSM   H14S17434   2.200   0.614   4.349  0.7514  0.7067 -0.1023
  156OSM   H14T17435   2.364   0.568   4.333  0.2961  0.0869 -1.5206
  156OSM   C15S17436   2.209   0.402   4.347  0.6376  0.4238 -0.5862
  156OSM   H15S17437   2.256   0.322   4.287  0.5537  0.2271 -0.3922
  156OSM   H15T17438   2.103   0.395   4.313  0.2942  1.3356  0.2318
  156OSM   C16S17439   2.206   0.380   4.503  0.6328  0.5194 -0.6387
  156OSM   H16S17440   2.146   0.465   4.542  1.4100  0.9882 -0.4482
  156OSM   H16T17441   2.306   0.380   4.552 -0.5430  0.8705  1.9444
  156OSM   C17S17442   2.125   0.257   4.532  0.0726  0.4289  0.7539
  156OSM   H17S17443   2.166   0.175   4.470  0.5130  0.1852  1.3576
  156OSM   H17T17444   2.019   0.268   4.498  1.2478 -0.1939 -3.8585
  156OSM   C18S17445   2.126   0.209   4.680  0.5793  0.9388  0.3138
  156OSM   H18S17446   2.034   0.146   4.684  0.3547  1.1448 -1.1568
  156OSM   H18T17447   2.117   0.300   4.743  3.3070  1.1032  0.5472
  156OSM   H18U17448   2.222   0.160   4.707 -0.6688 -2.9435 -1.5287
  156OSM    C1F17449   2.277   0.794   3.008 -0.6523 -0.0099 -0.3143
  156OSM     OF17450   2.191   0.757   2.927  0.5294  0.8592  0.4342
  156OSM    C2F17451   2.276   0.927   3.079  0.4323 -0.6213  0.5989
  156OSM    H2F17452   2.253   1.012   3.011  1.4224 -0.2887  0.6652
  156OSM    H2G17453   2.381   0.945   3.111  0.5566  1.0714 -0.6050
  156OSM    C3F17454   2.188   0.932   3.209  0.1211  0.5385 -1.2022
  156OSM    H3F17455   2.081   0.907   3.191  0.4821 -0.2257 -2.3491
  156OSM    H3G17456   2.195   1.027   3.266 -0.0050 -0.0697 -0.1415
  156OSM    C4F17457   2.230   0.820   3.310 -0.1189 -0.1914  0.6921
  156OSM    H4F17458   2.250   0.720   3.265  1.8608 -0.5332  2.1802
  156OSM    H4G17459   2.142   0.820   3.378 -1.6063  3.5692 -0.9507
  156OSM    C5F17460   2.348   0.854   3.401 -0.0991 -0.6529 -0.2113
  156OSM    H5F17461   2.430   0.898   3.341  0.9035  0.9598  2.2318
  156OSM    H5G17462   2.397   0.763   3.441  0.5738 -0.3718 -0.3899
  156OSM    C6F17463   2.300   0.926   3.528  0.2346 -0.7626 -0.4051
  156OSM    H6F17464   2.251   1.018   3.488  2.8597  0.6668 -0.5963
  156OSM    H6G17465   2.391   0.973   3.569 -0.7809 -0.2392  1.3451
  156OSM    C7F17466   2.236   0.841   3.632  0.7168  0.4257  0.2399
  156OSM    H7F17467   2.287   0.744   3.653 -0.1290  0.5523  3.4006
  156OSM    H7G17468   2.139   0.806   3.593  1.5163 -2.1357  0.3442
  156OSM    C8F17469   2.227   0.916   3.766  1.3492  0.6298  0.4349
  156OSM    H8F17470   2.334   0.929   3.793  1.5214 -2.0677  1.3469
  156OSM    H8G17471   2.174   0.839   3.826 -2.7003 -0.0992 -3.5218
  156OSM    C9F17472   2.168   1.050   3.778 -0.6960  0.1724 -1.4311
  156OSM    H9F17473   2.152   1.094   3.678  1.1450 -0.7064 -2.1401
  156OSM   C10F17474   2.169   1.123   3.890  0.1996  0.2905 -0.4887
  156OSM   H10F17475   2.135   1.228   3.891  0.5513  0.4063  0.6103
  156OSM   C11F17476   2.222   1.070   4.025  0.7655  0.5900 -0.4833
  156OSM   H11F17477   2.298   1.136   4.071  0.4129  0.0070  0.9873
  156OSM   H11G17478   2.270   0.971   4.016  0.3288  0.1912  1.2505
  156OSM   C12F17479   2.096   1.057   4.109  0.8665 -0.4952  0.2921
  156OSM   H12F17480   2.125   1.034   4.214  0.6910 -0.3992  0.3622
  156OSM   H12G17481   2.020   0.986   4.071 -0.7148  1.4625 -0.3788
  156OSM   C13F17482   2.009   1.187   4.137 -0.5107 -0.2671 -0.1052
  156OSM   H13F17483   1.958   1.212   4.041 -0.9115 -1.2957 -0.1801
  156OSM   H13G17484   2.072   1.276   4.157 -0.7768 -0.8021  3.7892
  156OSM   C14F17485   1.906   1.180   4.245  0.4827  0.1073 -0.5362
  156OSM   H14F17486   1.961   1.160   4.339 -1.9177 -0.6770  0.7738
  156OSM   H14G17487   1.838   1.093   4.236  2.3553 -1.4814  0.1001
  156OSM   C15F17488   1.834   1.307   4.280 -0.3964 -0.2702  0.1156
  156OSM   H15F17489   1.763   1.337   4.200  0.9588  2.7480 -0.1149
  156OSM   H15G17490   1.899   1.393   4.309  0.7713 -0.8925 -0.5798
  156OSM   C16F17491   1.737   1.289   4.399 -0.2100 -0.3372 -0.7712
  156OSM   H16F17492   1.794   1.295   4.494  0.9982 -2.0023 -1.3488
  156OSM   H16G17493   1.685   1.190   4.401 -0.7856 -0.0458 -1.0015
  156OSM   C17F17494   1.634   1.407   4.409 -0.4779  0.0253  0.2833
  156OSM   H17F17495   1.558   1.375   4.334 -0.2708  0.1776  0.0064
  156OSM   H17G17496   1.669   1.506   4.372 -1.4992 -0.5589 -2.4421
  156OSM   C18F17497   1.565   1.424   4.549  0.2989 -0.7686  0.3617
  156OSM   H18F17498   1.487   1.345   4.559 -0.2104 -0.0927  2.3777
  156OSM   H18G17499   1.515   1.523   4.553  0.6127 -0.5059 -1.5603
  156OSM   H18H17500   1.637   1.411   4.633  1.4434  0.4789 -0.3791
  157OSM      N17501   0.055   2.022   2.257 -0.2535  0.3227 -0.2854
  157OSM    C1517502   0.179   2.097   2.242  0.2988  0.2382  0.2995
  157OSM   H15A17503   0.228   2.095   2.339  0.1043  0.8818  0.4147
  157OSM   H15B17504   0.155   2.197   2.211  1.0546 -0.2321 -1.9688
  157OSM   H15C17505   0.245   2.050   2.170 -0.7813 -0.5620 -0.1951
  157OSM    C1417506  -0.042   2.099   2.345  0.3553  0.2194 -0.2122
  157OSM   H14A17507  -0.131   2.038   2.354  0.2039  0.3366 -0.8469
  157OSM   H14B17508  -0.061   2.196   2.302 -0.1673 -0.4734 -1.6181
  157OSM   H14C17509   0.013   2.110   2.437  2.7779 -0.2232 -1.5025
  157OSM    C1317510  -0.008   2.005   2.119 -0.6235  0.0176 -0.3660
  157OSM   H13A17511  -0.048   2.101   2.091 -2.3052 -0.8667 -1.1664
  157OSM   H13B17512  -0.101   1.950   2.125 -0.2450 -0.8633 -1.8413
  157OSM   H13C17513   0.052   1.959   2.041 -1.7954  2.0804 -2.6137
  157OSM    C1217514   0.086   1.882   2.316  0.8207  0.2162  0.7394
  157OSM   H12A17515   0.147   1.831   2.243 -0.8025  2.2171 -2.1626
  157OSM   H12B17516  -0.007   1.828   2.321  1.1375 -0.6078 -1.3077
  157OSM    C1117517   0.174   1.861   2.447  0.5072 -0.0741  0.2456
  157OSM   H11A17518   0.170   1.755   2.479  0.9181 -0.0693  0.3140
  157OSM   H11B17519   0.115   1.929   2.512  1.3351  0.9470 -0.0476
  157OSM      P17520   0.411   1.843   2.359  0.1025  0.0535 -0.1538
  157OSM    O1317521   0.348   1.795   2.233 -0.0824 -0.1789 -0.0671
  157OSM    O1417522   0.532   1.922   2.352 -0.4932  0.3021  0.4093
  157OSM    O1117523   0.435   1.715   2.457  0.4392  0.5145  0.8320
  157OSM    O1217524   0.301   1.912   2.441 -0.1204  0.1541 -0.4916
  157OSM    C1S17525   0.487   1.732   2.592  0.3692  0.1898 -0.3021
  157OSM    H1S17526   0.505   1.839   2.616  0.6201  0.0340  0.2152
  157OSM    H1T17527   0.582   1.676   2.599 -0.2884 -0.8368  0.6894
  157OSM     NF17528   0.432   1.683   2.830  0.8578  0.3309 -0.4180
  157OSM    HNF17529   0.447   1.598   2.880  0.7439  1.0720  0.9170
  157OSM    C2S17530   0.389   1.662   2.694  0.2950  0.2907  0.3327
  157OSM    H2S17531   0.292   1.712   2.674  0.3045 -0.4096 -1.6050
  157OSM    C3S17532   0.372   1.511   2.656  0.4941  0.0399 -0.0783
  157OSM    H3S17533   0.469   1.462   2.679  1.0537  2.2709  2.9906
  157OSM     O317534   0.334   1.492   2.519  0.1288 -0.0293 -0.3494
  157OSM    HO317535   0.358   1.578   2.482 -2.1574  0.8462  0.0584
  157OSM    C4S17536   0.278   1.442   2.750 -0.4734  0.6549  1.0136
  157OSM    H4S17537   0.336   1.358   2.790  1.3176  0.5523 -1.5151
  157OSM    C5S17538   0.146   1.469   2.773  0.1100  0.5222 -0.8242
  157OSM    H5S17539   0.096   1.547   2.714 -2.7542 -1.3006 -1.0091
  157OSM    C6S17540   0.053   1.401   2.868  0.7233 -0.1228  0.3618
  157OSM    H6S17541   0.004   1.313   2.823 -1.6895  0.9802  0.6531
  157OSM    H6T17542  -0.021   1.479   2.897  1.2005 -0.2088  1.9155
  157OSM    C7S17543   0.114   1.343   2.997  0.7794 -0.4921 -0.4894
  157OSM    H7S17544   0.177   1.252   2.981  1.8463  0.4378 -1.7833
  157OSM    H7T17545   0.027   1.306   3.055  0.7318  1.0454  0.4857
  157OSM    C8S17546   0.173   1.436   3.096  1.0846 -0.7596 -0.1464
  157OSM    H8S17547   0.103   1.520   3.116 -0.4837 -2.0538  0.0651
  157OSM    H8T17548   0.274   1.471   3.065  1.1080 -0.8034 -0.1210
  157OSM    C9S17549   0.197   1.363   3.233  0.4051  0.4961 -0.0882
  157OSM    H9S17550   0.252   1.270   3.209 -0.2598  0.5023 -1.7504
  157OSM    H9T17551   0.101   1.321   3.270  1.1182 -1.2167 -0.0892
  157OSM   C10S17552   0.265   1.448   3.334  0.1332  0.5130 -0.1287
  157OSM   H10S17553   0.193   1.531   3.352 -1.8054 -1.6081  2.8101
  157OSM   H10T17554   0.367   1.480   3.304  0.4241  1.4429  1.7259
  157OSM   C11S17555   0.281   1.380   3.474 -0.4337 -0.1076  0.0889
  157OSM   H11S17556   0.376   1.323   3.472  0.2228  0.9868 -1.2000
  157OSM   H11T17557   0.197   1.310   3.493  0.3552 -1.5160 -1.3682
  157OSM   C12S17558   0.297   1.474   3.592 -0.5791 -0.3366 -0.6597
  157OSM   H12S17559   0.203   1.534   3.593 -0.4674 -0.1681 -0.0993
  157OSM   H12T17560   0.376   1.550   3.572 -0.0603 -0.3191  1.2593
  157OSM   C13S17561   0.311   1.401   3.723 -0.1024 -0.2050 -0.2929
  157OSM   H13S17562   0.239   1.316   3.729  1.0548 -1.1458  1.3878
  157OSM   H13T17563   0.306   1.468   3.812  0.4651 -1.6845  0.8975
  157OSM   C14S17564   0.447   1.339   3.748 -0.1954  0.5787 -0.3919
  157OSM   H14S17565   0.536   1.404   3.763 -0.1717  0.4603 -0.0131
  157OSM   H14T17566   0.479   1.280   3.660 -0.3508 -0.0064 -0.0652
  157OSM   C15S17567   0.445   1.249   3.870  0.1177 -0.0077 -0.0871
  157OSM   H15S17568   0.520   1.168   3.858 -1.5316 -1.6386  0.2914
  157OSM   H15T17569   0.344   1.209   3.892  0.7666 -0.9504  1.3609
  157OSM   C16S17570   0.482   1.327   4.003  0.0816 -0.2978  0.5556
  157OSM   H16S17571   0.525   1.428   3.987  1.7032 -1.4444 -3.8372
  157OSM   H16T17572   0.570   1.273   4.044 -0.2397 -1.3392 -0.0718
  157OSM   C17S17573   0.353   1.322   4.091  0.5858  0.1361 -0.7170
  157OSM   H17S17574   0.330   1.216   4.116 -0.3886  0.4403 -0.2948
  157OSM   H17T17575   0.273   1.352   4.020  0.1570  2.4500  0.6370
  157OSM   C18S17576   0.359   1.406   4.224 -0.7616 -0.0493 -0.1911
  157OSM   H18S17577   0.443   1.362   4.282 -0.1685 -0.2890 -1.2054
  157OSM   H18T17578   0.265   1.393   4.283  0.7251  2.6041  3.1169
  157OSM   H18U17579   0.368   1.516   4.216 -2.9217  0.1455 -0.6580
  157OSM    C1F17580   0.459   1.794   2.896 -0.2402  0.1228  0.5835
  157OSM     OF17581   0.436   1.903   2.844 -0.6970  0.0579 -0.3704
  157OSM    C2F17582   0.525   1.787   3.027 -0.3835 -0.3436 -0.4056
  157OSM    H2F17583   0.613   1.855   3.028 -0.1606 -0.5718  1.7164
  157OSM    H2G17584   0.569   1.686   3.035  2.2661  0.7074 -0.4331
  157OSM    C3F17585   0.425   1.816   3.143  0.4235  0.3231 -1.0577
  157OSM    H3F17586   0.347   1.738   3.159  1.4601 -0.3769  1.0840
  157OSM    H3G17587   0.373   1.913   3.135 -0.5260  0.0731  1.2070
  157OSM    C4F17588   0.505   1.827   3.274  0.3330 -0.7644 -1.3740
  157OSM    H4F17589   0.587   1.901   3.263  0.6942 -0.8860  0.2434
  157OSM    H4G17590   0.558   1.730   3.285 -1.1061 -1.5656 -1.2067
  157OSM    C5F17591   0.413   1.849   3.392  0.1938  0.1183  0.2939
  157OSM    H5F17592   0.335   1.772   3.377  0.9862 -0.4537 -1.0373
  157OSM    H5G17593   0.369   1.951   3.397  0.5617  0.5297 -2.9150
  157OSM    C6F17594   0.497   1.815   3.518 -0.5186 -0.2676  0.5421
  157OSM    H6F17595   0.594   1.869   3.513  0.7781 -2.1476  3.2115
  157OSM    H6G17596   0.518   1.707   3.502  0.1418  0.0455 -0.8838
  157OSM    C7F17597   0.425   1.827   3.651  0.3622  0.4493 -0.0960
  157OSM    H7F17598   0.322   1.787   3.647 -0.6039  2.4972  1.9257
  157OSM    H7G17599   0.410   1.937   3.656 -3.2170  0.0565  0.2364
  157OSM    C8F17600   0.503   1.766   3.759 -0.5717  0.5723  0.8945
  157OSM    H8F17601   0.607   1.806   3.759 -1.2123  2.2680  0.8589
  157OSM    H8G17602   0.516   1.657   3.738 -1.3967  0.6095  0.1793
  157OSM    C9F17603   0.464   1.776   3.903  0.2017  0.1353  0.3827
  157OSM    H9F17604   0.419   1.683   3.940 -1.0078  0.0533 -1.2078
  157OSM   C10F17605   0.475   1.886   3.989 -0.3502  0.2761  0.6262
  157OSM   H10F17606   0.446   1.866   4.093  0.0411 -1.0288  0.5089
  157OSM   C11F17607   0.553   2.020   3.957  0.8106  0.6940 -0.1914
  157OSM   H11F17608   0.502   2.062   3.868 -0.2251 -1.0128 -0.4576
  157OSM   H11G17609   0.659   1.994   3.940  0.9039  0.9497 -0.0094
  157OSM   C12F17610   0.545   2.111   4.079  0.3707 -0.0843 -0.0360
  157OSM   H12F17611   0.596   2.207   4.056  1.5518 -0.7011 -0.1017
  157OSM   H12G17612   0.599   2.077   4.171  0.2793  0.5627  0.2631
  157OSM   C13F17613   0.399   2.157   4.113 -0.1078 -0.1783  0.3126
  157OSM   H13F17614   0.322   2.079   4.127 -0.3006  0.1464  1.1237
  157OSM   H13G17615   0.370   2.229   4.033 -1.7241 -0.5585  0.5233
  157OSM   C14F17616   0.376   2.244   4.242  0.3323  1.1455  0.5911
  157OSM   H14F17617   0.445   2.331   4.237 -0.0179  1.4243  0.5463
  157OSM   H14G17618   0.394   2.175   4.326 -2.3528 -1.7976 -1.0335
  157OSM   C15F17619   0.233   2.295   4.241  0.1822 -0.1924  0.2842
  157OSM   H15F17620   0.164   2.208   4.240 -0.2330  0.1301 -1.1138
  157OSM   H15G17621   0.197   2.354   4.154 -1.1565 -3.5389 -1.6389
  157OSM   C16F17622   0.194   2.371   4.365  0.1759  0.0673 -0.4020
  157OSM   H16F17623   0.092   2.408   4.343 -0.0510 -1.0208 -1.2277
  157OSM   H16G17624   0.257   2.463   4.377 -1.7856  1.2988  1.2242
  157OSM   C17F17625   0.175   2.281   4.489 -0.5903 -0.6942  0.3657
  157OSM   H17F17626   0.274   2.236   4.509  0.1837  1.0551  0.6237
  157OSM   H17G17627   0.108   2.193   4.480 -2.1156  0.1045  2.8542
  157OSM   C18F17628   0.122   2.346   4.615  0.0591 -0.3815 -0.9715
  157OSM   H18F17629   0.017   2.379   4.605  0.7058  2.9057  1.3493
  157OSM   H18G17630   0.184   2.436   4.637 -2.0582  0.8759  0.1786
  157OSM   H18H17631   0.135   2.273   4.698 -2.9211 -0.8926 -0.8574
  158OSM      N17632   4.489   3.453   3.035 -0.1206  0.0923 -0.0261
  158OSM    C1517633   4.366   3.388   3.076 -0.9267  0.2712 -0.3965
  158OSM   H15A17634   4.277   3.437   3.038 -2.1247 -0.5319  1.2868
  158OSM   H15B17635   4.347   3.379   3.182  1.0091 -0.0676 -0.0524
  158OSM   H15C17636   4.353   3.286   3.041  0.5558 -0.1970  0.3489
  158OSM    C1417637   4.487   3.591   3.092 -0.0656 -0.5616  0.5195
  158OSM   H14A17638   4.408   3.658   3.061  1.1151  0.4480 -0.4138
  158OSM   H14B17639   4.582   3.643   3.089 -1.4810  2.1561 -0.4677
  158OSM   H14C17640   4.459   3.580   3.196 -0.7076 -1.7898  0.2408
  158OSM    C1317641   4.613   3.385   3.086  0.4461  0.7946  0.2508
  158OSM   H13A17642   4.700   3.439   3.051  0.3418  0.5869 -0.3531
  158OSM   H13B17643   4.615   3.287   3.040 -0.0522  1.2451 -0.7507
  158OSM   H13C17644   4.618   3.379   3.193  2.1739  2.1099  0.2874
  158OSM    C1217645   4.497   3.458   2.879  0.1778  0.7338 -0.3810
  158OSM   H12A17646   4.410   3.504   2.836 -1.8399 -3.0429 -0.8038
  158OSM   H12B17647   4.493   3.362   2.829 -2.0620  1.2963 -1.4305
  158OSM    C1117648   4.635   3.512   2.816  0.0676 -1.0944 -0.2881
  158OSM   H11A17649   4.654   3.612   2.862 -0.2631 -0.0491 -2.2975
  158OSM   H11B17650   4.619   3.521   2.707  0.7825 -0.1886 -0.3334
  158OSM      P17651   4.762   3.288   2.748 -0.3342  0.0433 -0.1100
  158OSM    O1317652   4.636   3.270   2.674  0.9086  0.5170  0.4505
  158OSM    O1417653   4.882   3.287   2.659 -0.2020  0.9481 -0.3757
  158OSM    O1117654   4.771   3.174   2.862 -0.2673  0.5300 -0.0613
  158OSM    O1217655   4.746   3.427   2.833  0.2420  0.6024  0.2985
  158OSM    C1S17656   4.863   3.169   2.968 -0.5695  0.2090 -1.0141
  158OSM    H1S17657   4.834   3.236   3.052  3.2886 -1.3149  1.8308
  158OSM    H1T17658   4.963   3.208   2.942 -0.7678 -0.1466 -2.4204
  158OSM     NF17659   4.933   3.031   3.163  1.0845 -0.0654  0.1355
  158OSM    HNF17660   5.030   3.008   3.171  1.3974  0.9348 -0.6426
  158OSM    C2S17661   4.885   3.019   3.024  0.3958  0.3196 -0.0925
  158OSM    H2S17662   4.785   2.970   3.027  0.9727 -0.9886 -1.0290
  158OSM    C3S17663   4.975   2.942   2.921  0.4369  0.1913  0.5469
  158OSM    H3S17664   5.072   2.997   2.922  0.2368  0.6024 -0.8981
  158OSM     O317665   4.923   2.947   2.785 -0.4915 -0.5061 -0.0537
  158OSM    HO317666   4.850   3.009   2.788 -1.2622 -1.4227  1.1134
  158OSM    C4S17667   5.004   2.803   2.968 -0.0659 -0.6936  0.2133
  158OSM    H4S17668   5.110   2.782   2.989 -0.2455 -1.7461  0.0838
  158OSM    C5S17669   4.927   2.696   2.944  0.1313 -0.1161  0.4947
  158OSM    H5S17670   4.830   2.703   2.893 -0.2098  1.7867  1.3196
  158OSM    C6S17671   4.958   2.547   2.978 -0.4320 -0.5940 -0.1505
  158OSM    H6S17672   5.063   2.538   3.013 -0.9070 -0.9942  1.2228
  158OSM    H6T17673   4.961   2.484   2.887 -1.5607 -0.4304 -0.3157
  158OSM    C7S17674   4.866   2.479   3.084 -0.3742  0.6099 -0.1317
  158OSM    H7S17675   4.892   2.520   3.185  0.0972  0.2549 -0.1032
  158OSM    H7T17676   4.893   2.371   3.081  0.2421  0.7339  0.6149
  158OSM    C8S17677   4.711   2.485   3.063 -1.0967 -0.0794 -0.1692
  158OSM    H8S17678   4.687   2.455   2.959  1.1796 -0.0687 -0.7606
  158OSM    H8T17679   4.670   2.588   3.054  0.8981  0.6391 -2.2777
  158OSM    C9S17680   4.622   2.391   3.149 -0.4990 -0.0128  0.2905
  158OSM    H9S17681   4.648   2.285   3.126  1.1557 -0.3318  3.1561
  158OSM    H9T17682   4.519   2.416   3.117  0.6140  1.7717 -2.2376
  158OSM   C10S17683   4.645   2.417   3.302 -0.1505 -0.1670  0.3740
  158OSM   H10S17684   4.623   2.525   3.317  2.5793  0.2546  2.0851
  158OSM   H10T17685   4.748   2.414   3.342  0.7875  0.0114 -1.8748
  158OSM   C11S17686   4.552   2.336   3.390  0.6395  0.2154  0.2729
  158OSM   H11S17687   4.584   2.230   3.381 -0.1947  0.0127 -0.5086
  158OSM   H11T17688   4.449   2.339   3.350  0.4967 -0.4483  0.5730
  158OSM   C12S17689   4.537   2.380   3.532 -0.5659 -0.1907 -0.9458
  158OSM   H12S17690   4.460   2.319   3.585  1.2502 -1.5408  0.2332
  158OSM   H12T17691   4.499   2.485   3.531 -0.3142 -0.0970 -0.7404
  158OSM   C13S17692   4.666   2.376   3.621 -0.2028  0.4172  0.3701
  158OSM   H13S17693   4.744   2.428   3.561  0.3058 -0.6556  0.0764
  158OSM   H13T17694   4.701   2.272   3.637 -1.7160 -0.4544 -1.4885
  158OSM   C14S17695   4.645   2.453   3.748  1.5200 -0.5129 -0.6339
  158OSM   H14S17696   4.576   2.395   3.813 -0.9732  3.5316  0.7611
  158OSM   H14T17697   4.601   2.552   3.722  3.9095  1.3883  1.9779
  158OSM   C15S17698   4.770   2.499   3.816  0.0529 -0.4949 -0.2371
  158OSM   H15S17699   4.750   2.596   3.866  1.1330  0.2310 -1.1737
  158OSM   H15T17700   4.844   2.513   3.735 -1.8909  0.3103 -1.9624
  158OSM   C16S17701   4.814   2.394   3.917 -0.3491 -0.1267 -1.2310
  158OSM   H16S17702   4.924   2.402   3.928 -0.3370 -0.8633 -0.8294
  158OSM   H16T17703   4.799   2.290   3.880  2.1732 -0.2542 -2.0601
  158OSM   C17S17704   4.754   2.422   4.057 -0.1665  0.4980  0.9176
  158OSM   H17S17705   4.646   2.396   4.050  0.1107 -1.0519  1.8996
  158OSM   H17T17706   4.770   2.531   4.068  0.1535  0.5636 -0.1175
  158OSM   C18S17707   4.812   2.334   4.172  0.0486  0.0898 -0.0442
  158OSM   H18S17708   4.785   2.380   4.269 -2.1374 -0.8623 -0.1388
  158OSM   H18T17709   4.920   2.311   4.161 -0.0982 -0.7591  0.2307
  158OSM   H18U17710   4.773   2.230   4.171 -0.9268  0.4233  0.8176
  158OSM    C1F17711   4.856   3.080   3.262 -0.4023  1.0144 -0.1971
  158OSM     OF17712   4.743   3.129   3.244 -0.6005  0.9543  0.1523
  158OSM    C2F17713   4.912   3.065   3.403 -0.4165  0.4212  0.2778
  158OSM    H2F17714   5.019   3.093   3.414 -0.4326  0.3352  0.7081
  158OSM    H2G17715   4.912   2.956   3.420 -0.0917  0.0176 -2.0181
  158OSM    C3F17716   4.813   3.133   3.506 -0.3217 -0.1915  0.3016
  158OSM    H3F17717   4.716   3.081   3.491 -1.1573  1.1690  0.7924
  158OSM    H3G17718   4.806   3.239   3.475 -1.5311 -0.3836 -0.1364
  158OSM    C4F17719   4.853   3.135   3.658  0.2662  0.3045 -0.6206
  158OSM    H4F17720   4.859   3.030   3.692  0.4398  1.2847  2.8092
  158OSM    H4G17721   4.775   3.179   3.723  1.0263  0.5102  0.1801
  158OSM    C5F17722   4.986   3.211   3.685  0.3020 -0.5916 -0.2476
  158OSM    H5F17723   4.980   3.303   3.623 -2.0204  0.2215  1.0739
  158OSM    H5G17724   5.070   3.151   3.644  0.2011  0.1699 -1.6131
  158OSM    C6F17725   5.018   3.257   3.829 -0.2167 -0.3488 -0.3078
  158OSM    H6F17726   5.121   3.295   3.841  0.2630 -2.3510  3.0077
  158OSM    H6G17727   5.015   3.174   3.903 -1.5130 -1.1108 -1.1764
  158OSM    C7F17728   4.939   3.370   3.891  1.0606  0.1027  0.0673
  158OSM    H7F17729   4.834   3.342   3.913  1.6096 -2.5991 -0.3554
  158OSM    H7G17730   4.921   3.444   3.810  1.3926 -1.0135 -1.0612
  158OSM    C8F17731   5.004   3.436   4.013 -0.1767 -0.1367 -0.9856
  158OSM    H8F17732   4.969   3.540   4.027  1.8812  0.7993 -2.3947
  158OSM    H8G17733   5.112   3.459   3.999 -0.3625  0.9958 -0.6587
  158OSM    C9F17734   4.988   3.357   4.140 -0.5512  0.5965  0.2134
  158OSM    H9F17735   4.954   3.252   4.130 -1.4772  0.7067  1.9340
  158OSM   C10F17736   4.991   3.409   4.264  0.8646  0.2178  0.0003
  158OSM   H10F17737   4.978   3.340   4.349  0.0280  0.9842  0.5231
  158OSM   C11F17738   5.012   3.548   4.300 -0.5678 -0.6777 -0.2377
  158OSM   H11F17739   4.912   3.587   4.328 -0.3238 -1.2572  1.5509
  158OSM   H11G17740   5.051   3.618   4.223  2.7845  0.1105  1.9289
  158OSM   C12F17741   5.092   3.567   4.435  0.4149 -0.6705 -0.2726
  158OSM   H12F17742   5.116   3.676   4.444 -0.1350 -0.5745  0.1098
  158OSM   H12G17743   5.194   3.523   4.430  0.7669  0.2098 -1.2501
  158OSM   C13F17744   5.022   3.528   4.565  0.6208  1.2557  0.5668
  158OSM   H13F17745   5.082   3.557   4.654 -0.2670  2.0744  0.9108
  158OSM   H13G17746   5.017   3.417   4.573  0.8570  1.1197 -0.9817
  158OSM   C14F17747   4.887   3.592   4.592 -0.2545  0.0724 -0.4847
  158OSM   H14F17748   4.808   3.557   4.522 -0.7052 -0.6914  0.3910
  158OSM   H14G17749   4.906   3.701   4.581  2.9067 -0.4724 -1.5051
  158OSM   C15F17750   4.833   3.578   4.743  0.1354  0.3210  0.3675
  158OSM   H15F17751   4.737   3.634   4.744 -1.3938 -1.8520 -3.3114
  158OSM   H15G17752   4.909   3.624   4.809 -1.5728  0.3177  2.4432
  158OSM   C16F17753   4.811   3.434   4.777 -0.8463 -0.2797 -0.1598
  158OSM   H16F17754   4.905   3.375   4.784 -0.4701  0.0969 -1.6759
  158OSM   H16G17755   4.756   3.384   4.694 -0.4086 -0.6696 -0.2218
  158OSM   C17F17756   4.727   3.413   4.906  0.0730 -0.0714 -0.4245
  158OSM   H17F17757   4.621   3.445   4.894  0.1288  1.2070  1.9550
  158OSM   H17G17758   4.776   3.477   4.982 -1.7976 -0.8458  1.5507
  158OSM   C18F17759   4.744   3.269   4.957 -0.7158 -0.0892  0.2739
  158OSM   H18F17760   4.697   3.183   4.905  0.4264 -2.0750  2.3115
  158OSM   H18G17761   4.708   3.262   5.062  1.7723 -0.8762  1.1641
  158OSM   H18H17762   4.855   3.257   4.956 -0.4356  2.0471 -1.5017
  159OSM      N17763   5.787   2.791   2.859 -0.0449 -0.1600  0.1927
  159OSM    C1517764   5.862   2.867   2.965 -0.1528  1.2419  0.4069
  159OSM   H15A17765   5.800   2.879   3.052  2.2050  2.2077  2.0412
  159OSM   H15B17766   5.877   2.961   2.914 -0.1106  0.4266 -1.1584
  159OSM   H15C17767   5.955   2.817   2.986  0.3860  0.7843 -2.5736
  159OSM    C1417768   5.839   2.839   2.722  0.0520 -0.1018 -0.3668
  159OSM   H14A17769   5.781   2.790   2.645 -1.0411 -1.1366  1.0700
  159OSM   H14B17770   5.945   2.829   2.704 -0.0903  2.3136 -3.4907
  159OSM   H14C17771   5.828   2.946   2.711 -0.1339 -0.3357 -3.3731
  159OSM    C1317772   5.813   2.642   2.868  0.3056  0.0340  0.0948
  159OSM   H13A17773   5.776   2.611   2.965  0.1187 -0.2615 -0.0728
  159OSM   H13B17774   5.917   2.619   2.848  0.9578  2.5295  0.2111
  159OSM   H13C17775   5.749   2.592   2.798 -3.1089 -0.1166  3.0628
  159OSM    C1217776   5.646   2.814   2.866  0.0907 -0.0027 -0.7129
  159OSM   H12A17777   5.600   2.785   2.773  1.8172 -1.9062 -1.0612
  159OSM   H12B17778   5.628   2.919   2.882 -1.9697 -0.6754  2.2062
  159OSM    C1117779   5.557   2.729   2.958 -0.5192  0.3046  0.1954
  159OSM   H11A17780   5.457   2.775   2.960 -1.5494 -1.6988 -1.1447
  159OSM   H11B17781   5.603   2.729   3.059  1.2180 -0.9067 -0.5253
  159OSM      P17782   5.397   2.556   2.838 -0.0003 -0.0932 -0.5236
  159OSM    O1317783   5.343   2.665   2.762 -0.0094  0.0885  0.1563
  159OSM    O1417784   5.426   2.425   2.773 -0.0208  0.3854 -0.0161
  159OSM    O1117785   5.309   2.531   2.967  0.0391  0.5666  0.0578
  159OSM    O1217786   5.536   2.599   2.904 -0.5599 -0.4031 -0.2696
  159OSM    C1S17787   5.310   2.403   3.037 -0.2337 -0.0072 -0.5357
  159OSM    H1S17788   5.384   2.330   3.000  0.7355  0.1992  0.9042
  159OSM    H1T17789   5.210   2.356   3.028  0.3035 -1.1414 -0.7800
  159OSM     NF17790   5.344   2.296   3.260  0.4588 -0.1741  0.0556
  159OSM    HNF17791   5.260   2.251   3.291  1.4072 -3.2022 -1.4383
  159OSM    C2S17792   5.337   2.428   3.191 -0.1694  0.0323 -0.2897
  159OSM    H2S17793   5.438   2.473   3.196 -0.9047  1.7274 -0.2632
  159OSM    C3S17794   5.236   2.531   3.249 -0.0098  0.0044 -0.4554
  159OSM    H3S17795   5.132   2.493   3.248  0.6807 -1.9994 -1.0020
  159OSM     O317796   5.228   2.655   3.174 -0.2428  0.0495 -0.0420
  159OSM    HO317797   5.291   2.640   3.104 -0.0892 -1.4319  0.3711
  159OSM    C4S17798   5.258   2.560   3.391  0.2328  0.6233  0.2017
  159OSM    H4S17799   5.354   2.606   3.418  1.0860 -0.9474 -0.0525
  159OSM    C5S17800   5.162   2.547   3.488 -0.4437 -0.2547  0.0983
  159OSM    H5S17801   5.062   2.505   3.468  0.7994 -2.8285 -1.2558
  159OSM    C6S17802   5.175   2.574   3.635 -0.5919  0.7479  0.4611
  159OSM    H6S17803   5.280   2.596   3.664  0.0030  0.2188 -1.1553
  159OSM    H6T17804   5.147   2.479   3.686  0.8447 -0.1519 -0.3690
  159OSM    C7S17805   5.099   2.695   3.693  0.1167 -0.0392  1.3049
  159OSM    H7S17806   4.992   2.688   3.666  0.1227  1.7016  0.7429
  159OSM    H7T17807   5.136   2.783   3.636  2.2395 -1.5443  0.2148
  159OSM    C8S17808   5.123   2.730   3.838 -0.5490 -0.2585 -0.0845
  159OSM    H8S17809   5.231   2.744   3.861 -0.3953 -0.9660 -0.3304
  159OSM    H8T17810   5.086   2.648   3.903  2.8523  1.4062  4.5140
  159OSM    C9S17811   5.046   2.853   3.893 -0.3226  0.0907 -0.1740
  159OSM    H9S17812   4.943   2.859   3.852 -0.6037  2.3286  0.6623
  159OSM    H9T17813   5.100   2.946   3.864  2.0160 -2.0016 -3.0230
  159OSM   C10S17814   5.039   2.848   4.050 -0.2918  0.0148  0.4296
  159OSM   H10S17815   4.969   2.763   4.066  1.6661 -1.9369 -0.7997
  159OSM   H10T17816   4.982   2.934   4.092  0.2621  0.0027  1.2184
  159OSM   C11S17817   5.171   2.831   4.124 -0.0627  1.0210  0.5902
  159OSM   H11S17818   5.246   2.901   4.081  0.3680 -0.6955 -1.6666
  159OSM   H11T17819   5.211   2.731   4.096  2.0575  2.3080 -1.3271
  159OSM   C12S17820   5.172   2.846   4.276 -0.0953  0.3440 -0.5071
  159OSM   H12S17821   5.100   2.781   4.329  0.2572 -2.3583 -3.0830
  159OSM   H12T17822   5.145   2.954   4.285  2.0395  0.8052  1.3709
  159OSM   C13S17823   5.315   2.829   4.334  0.7343 -0.7010  0.2183
  159OSM   H13S17824   5.387   2.877   4.265 -0.0745 -2.3275 -1.8788
  159OSM   H13T17825   5.343   2.722   4.323 -0.6752 -1.0541 -0.0537
  159OSM   C14S17826   5.317   2.865   4.483  0.0310  0.0130  0.3888
  159OSM   H14S17827   5.231   2.816   4.532 -2.5249  1.3445 -2.3820
  159OSM   H14T17828   5.305   2.974   4.502 -1.2275 -0.2010  0.9677
  159OSM   C15S17829   5.444   2.807   4.551  0.0200  0.1721  0.0422
  159OSM   H15S17830   5.517   2.801   4.467  3.4330  1.6121  2.6429
  159OSM   H15T17831   5.421   2.714   4.607 -0.7545 -0.1849 -0.8503
  159OSM   C16S17832   5.502   2.900   4.657  0.3576  0.4920 -0.3556
  159OSM   H16S17833   5.509   3.003   4.618 -1.1147  1.2887  1.3214
  159OSM   H16T17834   5.601   2.856   4.683  0.1383  0.8443  1.1596
  159OSM   C17S17835   5.421   2.903   4.785 -0.1011 -1.1883  0.3808
  159OSM   H17S17836   5.388   2.800   4.810 -5.0362  0.5043  2.0508
  159OSM   H17T17837   5.325   2.956   4.765 -0.1047 -0.7721  1.4880
  159OSM   C18S17838   5.491   2.973   4.904  0.2913  0.2815 -0.4569
  159OSM   H18S17839   5.435   2.952   4.997  0.1994  0.2422 -0.5212
  159OSM   H18T17840   5.518   3.081   4.897  0.8789  0.1693 -0.0169
  159OSM   H18U17841   5.587   2.918   4.917  0.8214  0.9440 -1.4147
  159OSM    C1F17842   5.446   2.212   3.244 -0.3706 -0.3551  0.7507
  159OSM     OF17843   5.529   2.242   3.157 -0.2026  0.4361  0.4348
  159OSM    C2F17844   5.455   2.091   3.326 -0.0406  0.9229 -0.0350
  159OSM    H2F17845   5.473   2.002   3.262 -1.8102  1.1879 -0.9651
  159OSM    H2G17846   5.362   2.080   3.385  1.3809  0.2024  2.1719
  159OSM    C3F17847   5.571   2.117   3.424  0.0824  0.1032 -0.4501
  159OSM    H3F17848   5.544   2.210   3.478 -1.2479 -1.5455  1.9393
  159OSM    H3G17849   5.667   2.126   3.369  0.4483 -0.4927  0.0757
  159OSM    C4F17850   5.590   1.998   3.526  0.7831  0.2932  0.4444
  159OSM    H4F17851   5.628   1.911   3.468  1.2504 -0.4522  1.8283
  159OSM    H4G17852   5.489   1.968   3.562  1.0104 -1.0269  0.0240
  159OSM    C5F17853   5.668   2.038   3.655  0.1059  0.1438  0.3037
  159OSM    H5F17854   5.617   2.120   3.710  2.3861  0.8154  1.5525
  159OSM    H5G17855   5.754   2.097   3.617 -1.3797  2.2151  0.0208
  159OSM    C6F17856   5.712   1.930   3.752  0.3682 -0.2597 -0.1644
  159OSM    H6F17857   5.800   1.971   3.807 -0.0836  0.4744  0.0159
  159OSM    H6G17858   5.754   1.842   3.700 -0.3733  0.3476 -1.8469
  159OSM    C7F17859   5.595   1.915   3.858  0.3022  0.1081 -0.6320
  159OSM    H7F17860   5.511   1.860   3.811 -0.9922 -0.4324  2.1639
  159OSM    H7G17861   5.558   2.012   3.898 -0.4839 -0.5734  0.3254
  159OSM    C8F17862   5.637   1.829   3.980  0.2360 -0.1927  0.2007
  159OSM    H8F17863   5.663   1.727   3.943  0.7438 -0.0984  0.2808
  159OSM    H8G17864   5.547   1.819   4.044 -0.9194  1.1116 -1.1532
  159OSM    C9F17865   5.748   1.881   4.059 -0.7472  0.5166 -0.1963
  159OSM    H9F17866   5.845   1.879   4.007 -0.0958  2.2253  0.8730
  159OSM   C10F17867   5.754   1.925   4.183  0.2255  0.2508  0.3482
  159OSM   H10F17868   5.843   1.978   4.220  1.0217  0.7839 -2.1996
  159OSM   C11F17869   5.620   1.945   4.267  0.4390 -0.2254  0.4073
  159OSM   H11F17870   5.617   1.916   4.374 -1.2067  2.0291  1.0579
  159OSM   H11G17871   5.531   1.902   4.216  0.5936  0.6539 -0.6631
  159OSM   C12F17872   5.577   2.095   4.282 -0.2513  0.6157 -0.2634
  159OSM   H12F17873   5.497   2.090   4.359  0.4371 -2.0874  0.3815
  159OSM   H12G17874   5.555   2.151   4.189 -0.6777  0.1809 -0.4318
  159OSM   C13F17875   5.680   2.179   4.361  0.1821 -0.2172 -0.3418
  159OSM   H13F17876   5.752   2.227   4.291  0.8405 -1.5615 -0.6065
  159OSM   H13G17877   5.732   2.112   4.432 -0.1271  1.0330  1.1153
  159OSM   C14F17878   5.622   2.282   4.455  0.3832  0.2706 -0.1782
  159OSM   H14F17879   5.567   2.228   4.535 -0.3076  2.8800  1.2569
  159OSM   H14G17880   5.544   2.342   4.402 -1.0323 -1.4251 -0.1023
  159OSM   C15F17881   5.733   2.360   4.522  0.8906  0.4576  0.3601
  159OSM   H15F17882   5.785   2.419   4.443 -1.2377  0.5722 -1.0333
  159OSM   H15G17883   5.811   2.290   4.559 -0.5719 -1.2715  0.3647
  159OSM   C16F17884   5.675   2.450   4.631  0.8169  0.4285  0.0111
  159OSM   H16F17885   5.647   2.380   4.713 -0.2863 -1.4816 -1.9080
  159OSM   H16G17886   5.584   2.505   4.599  1.1440 -0.4928 -2.7803
  159OSM   C17F17887   5.775   2.557   4.683 -0.1490 -0.4809 -0.1730
  159OSM   H17F17888   5.785   2.645   4.615  1.7194 -0.5395 -0.0408
  159OSM   H17G17889   5.878   2.519   4.702  0.0227  0.2923  0.5325
  159OSM   C18F17890   5.714   2.621   4.813 -0.2391  0.1442  0.4350
  159OSM   H18F17891   5.785   2.696   4.852 -1.9474  1.3983  1.2494
  159OSM   H18G17892   5.697   2.541   4.889 -1.1632 -2.3537 -2.2080
  159OSM   H18H17893   5.621   2.674   4.783  0.5807  1.6037  0.4200
  160OSM      N17894   1.061   6.215   2.580  0.0108 -0.3333  0.2821
  160OSM    C1517895   0.978   6.227   2.457 -0.2576 -0.2095  0.4753
  160OSM   H15A17896   1.020   6.195   2.362 -0.9798  1.2512 -0.3801
  160OSM   H15B17897   0.930   6.323   2.446  0.9551  0.3196 -0.5495
  160OSM   H15C17898   0.894   6.160   2.464 -0.5746  0.1879  0.4987
  160OSM    C1417899   1.187   6.293   2.571 -0.3673 -0.6777  0.1184
  160OSM   H14A17900   1.172   6.393   2.532  3.3607  0.2361  0.5957
  160OSM   H14B17901   1.249   6.253   2.492 -0.2408  1.8974 -1.1807
  160OSM   H14C17902   1.243   6.298   2.663 -1.7175 -1.2622  0.9985
  160OSM    C1317903   0.978   6.283   2.689 -0.3515  0.2334 -0.8511
  160OSM   H13A17904   0.889   6.227   2.715 -1.0570  1.3999 -0.6643
  160OSM   H13B17905   0.945   6.384   2.668 -0.8334 -0.3663 -3.3890
  160OSM   H13C17906   1.036   6.278   2.780  1.2712 -0.7172 -1.8701
  160OSM    C1217907   1.085   6.068   2.632  0.4571  0.5619 -0.1268
  160OSM   H12A17908   0.990   6.023   2.655  0.1840  1.6724  1.0264
  160OSM   H12B17909   1.143   6.068   2.723  1.0994  0.3091 -0.5256
  160OSM    C1117910   1.166   5.974   2.536  0.4557  0.6881  0.1379
  160OSM   H11A17911   1.109   5.984   2.441  1.3871  0.1026 -0.5006
  160OSM   H11B17912   1.165   5.873   2.582  1.5633  1.1901  1.3398
  160OSM      P17913   1.411   5.974   2.611 -0.3970  0.4319 -0.2684
  160OSM    O1317914   1.418   5.825   2.598 -0.0075  0.8455 -0.3424
  160OSM    O1417915   1.528   6.055   2.593  0.1957 -0.1749 -0.0558
  160OSM    O1117916   1.342   6.015   2.749 -0.3312  0.7010 -0.1439
  160OSM    O1217917   1.299   6.018   2.513 -0.4223  0.4556  0.1331
  160OSM    C1S17918   1.331   5.923   2.860  0.0207 -0.9046  0.3875
  160OSM    H1S17919   1.422   5.861   2.867  0.5947  0.1070  2.7260
  160OSM    H1T17920   1.236   5.865   2.856  0.1703 -1.1733  0.7398
  160OSM     NF17921   1.323   5.896   3.109  0.5713 -0.7845 -0.4688
  160OSM    HNF17922   1.238   5.888   3.160  0.5688 -0.7738 -0.4715
  160OSM    C2S17923   1.319   5.993   3.001  0.2740  0.1216  0.2466
  160OSM    H2S17924   1.412   6.053   3.017  1.5237 -1.7228  0.2617
  160OSM    C3S17925   1.202   6.090   3.013 -0.6189 -0.3084  0.8855
  160OSM    H3S17926   1.105   6.042   2.989  0.8266 -3.4493  0.8750
  160OSM     O317927   1.222   6.192   2.921  0.1427  0.2083  0.1341
  160OSM    HO317928   1.300   6.168   2.871 -1.0120 -0.3185 -1.5119
  160OSM    C4S17929   1.200   6.134   3.158 -0.2637 -0.4089 -0.3267
  160OSM    H4S17930   1.128   6.075   3.217  0.5337 -1.7999 -0.6815
  160OSM    C5S17931   1.271   6.234   3.215  0.9676 -0.6367  0.3131
  160OSM    H5S17932   1.334   6.298   3.152  1.5967 -1.4564  0.0953
  160OSM    C6S17933   1.250   6.275   3.359 -0.0055  0.7009  0.7078
  160OSM    H6S17934   1.179   6.360   3.353 -0.4193  0.2852 -0.6557
  160OSM    H6T17935   1.346   6.312   3.401 -0.0681 -0.1333  1.6061
  160OSM    C7S17936   1.232   6.150   3.446  0.1508  0.8618 -0.1567
  160OSM    H7S17937   1.301   6.066   3.423 -1.3553 -0.3273 -0.4828
  160OSM    H7T17938   1.137   6.094   3.430  1.1319 -0.6684 -0.9409
  160OSM    C8S17939   1.258   6.180   3.592 -0.1007  0.1929  0.4993
  160OSM    H8S17940   1.192   6.262   3.627 -0.2423  0.2485  0.1045
  160OSM    H8T17941   1.361   6.221   3.596 -0.2923  0.8503 -0.9330
  160OSM    C9S17942   1.243   6.053   3.679 -0.0694  0.7172 -0.4868
  160OSM    H9S17943   1.333   5.992   3.658  0.8281  1.7655  0.2157
  160OSM    H9T17944   1.149   6.000   3.651 -0.2681 -0.2531  1.7592
  160OSM   C10S17945   1.236   6.087   3.826 -0.5995  0.1943 -0.0655
  160OSM   H10S17946   1.137   6.137   3.826  0.4149  2.2959 -0.1415
  160OSM   H10T17947   1.311   6.167   3.843 -0.6995  0.2212  0.2507
  160OSM   C11S17948   1.246   5.971   3.923  0.6298  0.0843  0.5975
  160OSM   H11S17949   1.350   5.933   3.912  1.6873  1.9806  3.0553
  160OSM   H11T17950   1.163   5.899   3.907  0.1570  0.2142  2.2168
  160OSM   C12S17951   1.230   6.025   4.066 -0.0034 -0.3954 -0.8578
  160OSM   H12S17952   1.127   6.065   4.076  0.4344  0.4760  0.4767
  160OSM   H12T17953   1.294   6.112   4.093 -1.0328 -0.4039  1.9272
  160OSM   C13S17954   1.231   5.911   4.171 -0.2246  0.4421  0.3293
  160OSM   H13S17955   1.332   5.864   4.174 -0.1337  0.4023 -1.6898
  160OSM   H13T17956   1.155   5.832   4.149 -0.1372 -1.0560  4.5556
  160OSM   C14S17957   1.200   5.971   4.311  0.1023 -0.7602  0.0882
  160OSM   H14S17958   1.112   6.039   4.301 -0.2064 -1.0351  0.8049
  160OSM   H14T17959   1.280   6.044   4.337 -0.5440 -0.1369  0.3873
  160OSM   C15S17960   1.193   5.865   4.417  0.3051  0.3921 -0.4516
  160OSM   H15S17961   1.297   5.827   4.428  0.5649  0.9251 -1.0715
  160OSM   H15T17962   1.129   5.775   4.400  2.0763 -0.4063 -3.6017
  160OSM   C16S17963   1.157   5.933   4.554  0.4419  0.5615 -0.2705
  160OSM   H16S17964   1.062   5.989   4.542 -0.1324 -0.1825  0.5511
  160OSM   H16T17965   1.231   6.011   4.582 -0.8676  1.5532  0.5455
  160OSM   C17S17966   1.124   5.827   4.670 -0.8489  0.1214  0.7900
  160OSM   H17S17967   1.054   5.747   4.640  2.0438 -2.6072  0.7789
  160OSM   H17T17968   1.086   5.891   4.753 -1.0857  0.3405  0.5166
  160OSM   C18S17969   1.255   5.758   4.707  0.7444  0.0575 -0.2540
  160OSM   H18S17970   1.318   5.827   4.767 -1.4384  1.1211  0.9415
  160OSM   H18T17971   1.303   5.717   4.616  0.6632  0.2448 -0.3812
  160OSM   H18U17972   1.225   5.677   4.778 -3.7177  1.6225 -0.0160
  160OSM    C1F17973   1.429   5.820   3.131  0.2725  0.0449  0.1864
  160OSM     OF17974   1.533   5.831   3.073  0.2663  0.4197  0.3659
  160OSM    C2F17975   1.418   5.720   3.234  0.4432 -0.3554 -0.5723
  160OSM    H2F17976   1.450   5.627   3.182  1.8381 -0.0151 -0.3738
  160OSM    H2G17977   1.318   5.716   3.280  0.8956 -2.9370  0.3625
  160OSM    C3F17978   1.516   5.745   3.341 -0.7654 -0.6609  0.2104
  160OSM    H3F17979   1.502   5.850   3.374  3.6542  1.1084 -2.6833
  160OSM    H3G17980   1.615   5.742   3.290 -0.4801  1.4408  0.5384
  160OSM    C4F17981   1.511   5.639   3.446 -0.0559  0.2697 -0.3249
  160OSM    H4F17982   1.609   5.624   3.496  0.6452  1.3373 -1.3442
  160OSM    H4G17983   1.487   5.541   3.399  0.8274 -0.6945  1.1715
  160OSM    C5F17984   1.408   5.674   3.559 -0.7196 -0.2825 -0.1384
  160OSM    H5F17985   1.315   5.721   3.520 -0.8177 -0.0919  0.3256
  160OSM    H5G17986   1.462   5.741   3.629 -0.2443 -1.2268  0.4125
  160OSM    C6F17987   1.370   5.550   3.643  0.4046  0.2107  0.1818
  160OSM    H6F17988   1.462   5.498   3.680 -0.1894 -0.5524  0.6166
  160OSM    H6G17989   1.300   5.485   3.588  0.5244 -1.1879  1.5894
  160OSM    C7F17990   1.289   5.600   3.769 -0.1536  0.4995 -0.0650
  160OSM    H7F17991   1.192   5.636   3.729 -0.6514 -2.0751 -1.4065
  160OSM    H7G17992   1.352   5.673   3.825  0.9280 -0.2754 -0.2284
  160OSM    C8F17993   1.244   5.484   3.858  0.4112 -0.6669  0.5353
  160OSM    H8F17994   1.201   5.404   3.793  1.0788 -1.7760  1.4167
  160OSM    H8G17995   1.160   5.508   3.926 -3.3687 -2.2162 -3.0719
  160OSM    C9F17996   1.359   5.421   3.928  0.5500 -0.0314 -0.7904
  160OSM    H9F17997   1.424   5.360   3.864  1.0773  0.5393 -0.8008
  160OSM   C10F17998   1.398   5.445   4.055 -0.4537  0.9541  0.8098
  160OSM   H10F17999   1.492   5.397   4.087 -1.2940 -0.8316  0.7544
  160OSM   C11F18000   1.331   5.532   4.160 -0.6145  0.9853  1.4632
  160OSM   H11F18001   1.330   5.633   4.114  5.0403 -0.0875 -1.9117
  160OSM   H11G18002   1.392   5.549   4.251  0.0025 -0.2205  1.2930
  160OSM   C12F18003   1.199   5.476   4.219  0.5277 -0.1501 -0.2700
  160OSM   H12F18004   1.137   5.455   4.129  2.2187 -0.6978 -1.3396
  160OSM   H12G18005   1.143   5.555   4.274 -1.9422 -2.8993  1.4310
  160OSM   C13F18006   1.204   5.356   4.305 -0.0665 -0.3642  0.2357
  160OSM   H13F18007   1.308   5.322   4.325 -0.8221 -2.5218  0.8327
  160OSM   H13G18008   1.134   5.278   4.268 -0.2780  0.7748 -1.9072
  160OSM   C14F18009   1.138   5.381   4.444  0.6605  0.0175 -0.8574
  160OSM   H14F18010   1.170   5.483   4.476  2.5244 -0.4006 -1.2263
  160OSM   H14G18011   1.167   5.304   4.518 -2.2804 -1.5028 -1.1676
  160OSM   C15F18012   0.984   5.396   4.426  0.1858  0.3829  0.0163
  160OSM   H15F18013   0.947   5.301   4.383 -2.9515  0.6140  1.8925
  160OSM   H15G18014   0.956   5.484   4.364 -1.3913  0.2171  0.4563
  160OSM   C16F18015   0.905   5.416   4.561 -0.3621  0.0055 -0.0706
  160OSM   H16F18016   0.949   5.509   4.603  0.7463 -0.3564 -0.4015
  160OSM   H16G18017   0.929   5.329   4.625 -0.3428 -1.0343 -1.4575
  160OSM   C17F18018   0.761   5.437   4.528 -0.2068  0.1706  0.3063
  160OSM   H17F18019   0.722   5.341   4.486  0.1843 -0.2976  0.9847
  160OSM   H17G18020   0.751   5.523   4.459 -0.1132 -1.5071 -1.8983
  160OSM   C18F18021   0.678   5.467   4.654  0.0915 -0.1443 -0.4240
  160OSM   H18F18022   0.687   5.387   4.731  0.2771  3.2569  3.4182
  160OSM   H18G18023   0.571   5.483   4.629 -0.4652 -0.4697  1.6131
  160OSM   H18H18024   0.690   5.566   4.703  0.0632 -1.7335  3.0731
  161OSM      N18025   6.276   3.321   2.506  0.5588  0.4158  0.4336
  161OSM    C1518026   6.259   3.173   2.494 -0.5027  0.0654 -0.1472
  161OSM   H15A18027   6.331   3.121   2.433  1.4086 -0.1402  2.1540
  161OSM   H15B18028   6.167   3.142   2.446 -0.6885  4.3694 -3.1308
  161OSM   H15C18029   6.259   3.126   2.591 -0.7699 -1.4805 -0.8690
  161OSM    C1418030   6.321   3.380   2.375 -0.5630 -0.0369  0.2426
  161OSM   H14A18031   6.265   3.341   2.291 -0.4889 -0.5638  0.4380
  161OSM   H14B18032   6.421   3.352   2.345 -1.0005  0.5584 -1.9450
  161OSM   H14C18033   6.315   3.488   2.373 -0.5308  0.0403  2.2207
  161OSM    C1318034   6.138   3.370   2.551  0.2880 -0.9398  0.0067
  161OSM   H13A18035   6.115   3.328   2.648  1.4089  0.7397  1.0438
  161OSM   H13B18036   6.062   3.344   2.479 -0.3271  1.7900 -0.4325
  161OSM   H13C18037   6.125   3.476   2.566 -1.4275 -0.8930 -1.5198
  161OSM    C1218038   6.377   3.364   2.613 -0.2859  0.8691 -0.2675
  161OSM   H12A18039   6.395   3.471   2.618  2.4424  0.4196  0.9712
  161OSM   H12B18040   6.475   3.339   2.578  0.2834 -0.8066  2.2995
  161OSM    C1118041   6.366   3.310   2.754 -0.2193 -0.3416 -0.0450
  161OSM   H11A18042   6.270   3.345   2.799  0.3598  0.9175  0.2588
  161OSM   H11B18043   6.440   3.373   2.807 -1.9342 -0.3831  2.5920
  161OSM      P18044   6.522   3.108   2.770 -0.5392  0.1788 -0.0332
  161OSM    O1318045   6.501   2.962   2.755 -0.5208 -0.2073 -0.2582
  161OSM    O1418046   6.627   3.158   2.678 -0.2904 -0.1261  0.4765
  161OSM    O1118047   6.557   3.136   2.921 -0.0281  0.0505  0.1044
  161OSM    O1218048   6.384   3.172   2.755  0.0550 -0.0668 -0.1922
  161OSM    C1S18049   6.463   3.114   3.030 -0.6029 -0.3222 -0.6180
  161OSM    H1S18050   6.456   3.004   3.038  2.0145 -0.5603 -0.7343
  161OSM    H1T18051   6.360   3.150   3.007 -0.2467  2.3428  1.4470
  161OSM     NF18052   6.421   3.114   3.268 -0.6207 -0.0707  0.3600
  161OSM    HNF18053   6.354   3.171   3.315  0.0515 -0.0219  1.3016
  161OSM    C2S18054   6.513   3.174   3.169  0.2722 -0.3509  0.1581
  161OSM    H2S18055   6.617   3.141   3.188  0.7439  1.5259  1.0159
  161OSM    C3S18056   6.504   3.330   3.161 -0.7475  0.2624  0.0270
  161OSM    H3S18057   6.407   3.363   3.118  0.2367  1.5843 -1.2751
  161OSM     O318058   6.605   3.377   3.068 -0.7250 -0.1038  0.5169
  161OSM    HO318059   6.614   3.297   3.016  1.0333  0.3738  0.0244
  161OSM    C4S18060   6.525   3.388   3.300 -0.5825 -0.0064  0.3574
  161OSM    H4S18061   6.632   3.397   3.325 -0.4886  3.6981 -0.7792
  161OSM    C5S18062   6.427   3.433   3.379 -0.1862 -0.8743  0.6382
  161OSM    H5S18063   6.324   3.418   3.344 -0.2480  0.8949 -0.0150
  161OSM    C6S18064   6.434   3.469   3.523  0.5699  0.4050  0.3832
  161OSM    H6S18065   6.537   3.485   3.559  1.7307 -1.9282 -1.6332
  161OSM    H6T18066   6.380   3.395   3.586  0.7266  1.1737  1.4371
  161OSM    C7S18067   6.370   3.602   3.563 -0.7031 -0.3278 -0.2102
  161OSM    H7S18068   6.264   3.615   3.533  0.0633 -0.8000 -3.4558
  161OSM    H7T18069   6.426   3.688   3.520  0.1163 -0.9800 -0.4727
  161OSM    C8S18070   6.385   3.637   3.714 -0.0913 -0.3756 -0.4301
  161OSM    H8S18071   6.370   3.553   3.784 -0.7145  2.2918  2.9389
  161OSM    H8T18072   6.311   3.717   3.738  1.4187  0.9362  0.0826
  161OSM    C9S18073   6.521   3.694   3.747 -0.5485 -0.4675  0.9674
  161OSM    H9S18074   6.543   3.798   3.713  4.8890 -1.9742 -1.2361
  161OSM    H9T18075   6.605   3.633   3.708 -0.6997 -0.4265  0.5809
  161OSM   C10S18076   6.533   3.712   3.905 -0.5906  0.3616  0.4578
  161OSM   H10S18077   6.550   3.609   3.943 -0.6482  0.6809  1.3744
  161OSM   H10T18078   6.433   3.737   3.946 -0.8670 -1.2762  0.8398
  161OSM   C11S18079   6.647   3.805   3.949  0.0795  0.0264  0.0586
  161OSM   H11S18080   6.618   3.910   3.924  0.7773  0.3758  0.6976
  161OSM   H11T18081   6.739   3.785   3.890  0.6038  0.9899  0.5309
  161OSM   C12S18082   6.682   3.806   4.100  0.8198 -0.4090 -0.0404
  161OSM   H12S18083   6.588   3.836   4.149  0.3844  0.4273 -1.3170
  161OSM   H12T18084   6.759   3.881   4.128  0.5573  1.3610 -3.5251
  161OSM   C13S18085   6.720   3.668   4.163  0.1505 -0.2412  0.2033
  161OSM   H13S18086   6.774   3.613   4.083  0.3632 -0.4318  0.4732
  161OSM   H13T18087   6.623   3.615   4.174 -0.0877 -0.0650 -0.9015
  161OSM   C14S18088   6.803   3.677   4.289  0.0849 -0.4849  0.3478
  161OSM   H14S18089   6.898   3.732   4.271 -1.1368  1.5095 -0.3459
  161OSM   H14T18090   6.830   3.574   4.319 -0.0974 -0.0193  2.2675
  161OSM   C15S18091   6.733   3.740   4.414  0.5711 -0.3749 -0.9633
  161OSM   H15S18092   6.645   3.683   4.450 -0.2777  0.6232 -1.4069
  161OSM   H15T18093   6.688   3.836   4.382 -1.5241 -0.2730  1.9511
  161OSM   C16S18094   6.820   3.758   4.540  0.0884  0.1394 -0.3771
  161OSM   H16S18095   6.926   3.786   4.520  1.0593 -1.1652  2.4803
  161OSM   H16T18096   6.836   3.659   4.588 -2.7381  0.8303  2.2441
  161OSM   C17S18097   6.757   3.847   4.646 -0.0180  0.1477 -0.9759
  161OSM   H17S18098   6.668   3.793   4.685  0.6009  0.9852  1.8269
  161OSM   H17T18099   6.717   3.938   4.597 -1.3316 -0.9624 -2.0616
  161OSM   C18S18100   6.856   3.874   4.759 -0.1624 -0.5331  0.2371
  161OSM   H18S18101   6.891   3.782   4.811  0.2788  1.3759  3.6400
  161OSM   H18T18102   6.819   3.949   4.833  0.7716 -1.4456  1.6933
  161OSM   H18U18103   6.946   3.920   4.712 -0.8892 -1.0617 -1.7742
  161OSM    C1F18104   6.423   2.988   3.307  0.1021  0.2396  0.9895
  161OSM     OF18105   6.502   2.908   3.254  0.2062 -0.0354  0.2249
  161OSM    C2F18106   6.346   2.950   3.428 -0.5820 -0.3807  0.2302
  161OSM    H2F18107   6.240   2.924   3.410 -0.2807 -1.7330  0.3138
  161OSM    H2G18108   6.363   3.031   3.502 -1.4498  1.7798 -1.8007
  161OSM    C3F18109   6.407   2.827   3.502  0.6791 -0.1913 -0.2932
  161OSM    H3F18110   6.516   2.849   3.508  0.5491  0.8079 -1.2593
  161OSM    H3G18111   6.405   2.738   3.435  1.5948  0.5607 -1.3687
  161OSM    C4F18112   6.357   2.799   3.643  0.0624 -1.0463 -0.5108
  161OSM    H4F18113   6.250   2.769   3.645 -0.0951 -0.5995 -1.4598
  161OSM    H4G18114   6.358   2.901   3.688 -0.9918 -0.6789 -1.2930
  161OSM    C5F18115   6.457   2.713   3.710  0.2874  0.4070 -0.2209
  161OSM    H5F18116   6.559   2.752   3.689  0.1607  1.6063  1.2868
  161OSM    H5G18117   6.443   2.610   3.670 -1.3710 -0.0136  1.3550
  161OSM    C6F18118   6.436   2.716   3.862  0.1749 -0.3439  0.2920
  161OSM    H6F18119   6.330   2.692   3.882 -1.3386  3.0297 -2.6584
  161OSM    H6G18120   6.436   2.822   3.893  0.0772  0.0137 -0.9123
  161OSM    C7F18121   6.523   2.623   3.948 -0.2320  0.1556  0.5295
  161OSM    H7F18122   6.513   2.515   3.925  0.5265 -0.0854  1.2510
  161OSM    H7G18123   6.501   2.648   4.054  0.5646  1.4668  0.4156
  161OSM    C8F18124   6.675   2.651   3.924  1.1663  0.0550 -0.0617
  161OSM    H8F18125   6.682   2.759   3.949  1.7833  0.2975 -1.2258
  161OSM    H8G18126   6.698   2.642   3.816  0.7586  1.3228 -0.2727
  161OSM    C9F18127   6.759   2.564   4.009  0.0288  0.4155 -0.1553
  161OSM    H9F18128   6.770   2.462   3.970  0.9448  0.7440 -0.7925
  161OSM   C10F18129   6.828   2.597   4.118 -0.5869  0.4866 -0.5345
  161OSM   H10F18130   6.878   2.518   4.176  0.2931  2.3295  1.3541
  161OSM   C11F18131   6.842   2.735   4.175  0.3453 -0.1536 -0.0358
  161OSM   H11F18132   6.748   2.762   4.226  0.8703 -1.0702  1.5137
  161OSM   H11G18133   6.856   2.815   4.099 -0.5153  0.6332  0.6141
  161OSM   C12F18134   6.957   2.738   4.275  0.0908 -0.6001  0.4134
  161OSM   H12F18135   7.044   2.712   4.211 -1.1504  1.4467 -2.3448
  161OSM   H12G18136   6.944   2.662   4.355  1.0303 -0.0102  1.1505
  161OSM   C13F18137   6.982   2.881   4.329  0.5262  0.3267 -0.2624
  161OSM   H13F18138   7.002   2.944   4.240  0.4054  1.5356  0.5330
  161OSM   H13G18139   7.077   2.882   4.387 -0.2638  2.1992  1.1372
  161OSM   C14F18140   6.870   2.948   4.412  0.6918  0.5566 -0.3529
  161OSM   H14F18141   6.783   2.967   4.346 -0.9699 -0.1427  1.5366
  161OSM   H14G18142   6.901   3.047   4.452 -0.1794  1.2687 -1.3787
  161OSM   C15F18143   6.824   2.862   4.533  0.3738 -0.3343  0.0895
  161OSM   H15F18144   6.798   2.762   4.493  0.5851 -0.6824  0.8063
  161OSM   H15G18145   6.730   2.900   4.579 -0.5542 -1.2024 -1.0073
  161OSM   C16F18146   6.930   2.860   4.645 -0.3193  1.1077 -0.0995
  161OSM   H16F18147   6.972   2.960   4.669  2.2195  0.8106 -2.7624
  161OSM   H16G18148   7.020   2.800   4.619 -0.5783  0.7342 -0.1474
  161OSM   C17F18149   6.861   2.799   4.774 -0.3912 -1.0412  0.5089
  161OSM   H17F18150   6.791   2.875   4.814  1.6644  1.4715 -0.3025
  161OSM   H17G18151   6.940   2.801   4.852 -1.0769  2.1600  1.2637
  161OSM   C18F18152   6.811   2.663   4.761 -0.0687 -0.4279  0.4311
  161OSM   H18F18153   6.732   2.666   4.683  1.0684  0.9113 -0.7261
  161OSM   H18G18154   6.768   2.617   4.852  3.2692 -3.1366  0.8202
  161OSM   H18H18155   6.895   2.604   4.718  1.8395  1.7288  1.0063
  162OSM      N18156   2.930   3.063   2.643 -0.1104  0.2632 -0.8859
  162OSM    C1518157   2.836   3.179   2.619 -0.3760 -0.1507 -0.0980
  162OSM   H15A18158   2.854   3.203   2.516  0.7894  0.4857  0.2384
  162OSM   H15B18159   2.857   3.265   2.680  0.4038 -1.0868  1.0161
  162OSM   H15C18160   2.734   3.147   2.634 -0.4015 -0.1845 -0.3402
  162OSM    C1418161   2.876   2.941   2.575  0.1534  0.5714  0.4669
  162OSM   H14A18162   2.922   2.855   2.623 -1.7989 -0.4274  0.6662
  162OSM   H14B18163   2.896   2.951   2.470  1.3947  0.2997  0.6646
  162OSM   H14C18164   2.770   2.921   2.589  0.1847 -0.5878 -0.8294
  162OSM    C1318165   3.067   3.091   2.601 -0.3983 -0.1542 -0.1633
  162OSM   H13A18166   3.112   3.173   2.655  1.4495 -0.0363 -1.7739
  162OSM   H13B18167   3.081   3.119   2.497 -0.7209 -0.9982 -0.4388
  162OSM   H13C18168   3.126   3.005   2.626  0.8066 -0.4294 -3.4161
  162OSM    C1218169   2.928   3.050   2.797 -1.3886  0.2800 -0.2581
  162OSM   H12A18170   2.825   3.060   2.825 -1.7133 -0.9608 -0.9480
  162OSM   H12B18171   2.981   3.135   2.838 -2.3449 -0.6793  3.2902
  162OSM    C1118172   2.994   2.922   2.863  0.0559  0.4635  0.4984
  162OSM   H11A18173   2.937   2.832   2.833  0.0724  0.5438  0.2172
  162OSM   H11B18174   2.971   2.927   2.971 -1.7180 -0.5564  0.1998
  162OSM      P18175   3.240   2.967   2.920 -0.2604  0.0616  0.2401
  162OSM    O1318176   3.373   2.927   2.874 -0.3482  0.5976 -0.1820
  162OSM    O1418177   3.212   3.110   2.916  0.3129 -0.6130 -0.0768
  162OSM    O1118178   3.223   2.907   3.064  0.3879 -0.1744  0.2402
  162OSM    O1218179   3.130   2.909   2.825 -0.2515 -0.3744 -0.0506
  162OSM    C1S18180   3.298   2.952   3.178  0.1319 -0.5774  0.3143
  162OSM    H1S18181   3.376   3.026   3.148 -0.9723  0.1277 -0.9574
  162OSM    H1T18182   3.363   2.868   3.208 -1.1310 -1.7230 -0.0678
  162OSM     NF18183   3.292   3.066   3.397 -0.3878  0.4263  0.1030
  162OSM    HNF18184   3.294   3.019   3.485 -1.3052  1.5898  0.7732
  162OSM    C2S18185   3.207   3.007   3.295 -0.9925  0.6136  0.0365
  162OSM    H2S18186   3.137   3.086   3.258  0.0447  1.6554  0.2374
  162OSM    C3S18187   3.111   2.895   3.337  0.9935 -0.3148  0.1588
  162OSM    H3S18188   3.164   2.800   3.358  0.3249 -0.9325 -0.8392
  162OSM     O318189   3.014   2.858   3.242 -0.3926 -0.1625  0.3159
  162OSM    HO318190   3.057   2.867   3.156 -0.6498  2.4601  0.3933
  162OSM    C4S18191   3.035   2.933   3.461  0.1598  0.0558  0.3362
  162OSM    H4S18192   2.967   3.019   3.458  2.4395  2.0598  1.8361
  162OSM    C5S18193   3.032   2.865   3.578 -0.4894 -0.1253 -0.5440
  162OSM    H5S18194   3.098   2.779   3.594 -1.2713 -0.8355 -1.0466
  162OSM    C6S18195   2.959   2.914   3.702  0.0931 -0.3109 -0.0836
  162OSM    H6S18196   2.900   2.833   3.750  1.3244 -1.0098  0.3141
  162OSM    H6T18197   2.880   2.990   3.681 -0.9473 -1.7156 -1.4273
  162OSM    C7S18198   3.052   2.958   3.823 -0.3286  0.7373  0.4392
  162OSM    H7S18199   3.122   3.036   3.787  0.7009 -1.3040 -2.3935
  162OSM    H7T18200   3.119   2.870   3.838 -1.1091  0.0642  0.0416
  162OSM    C8S18201   2.966   2.984   3.945 -0.6035 -0.4371 -0.1499
  162OSM    H8S18202   2.901   2.894   3.952 -1.7038  0.1271 -2.2714
  162OSM    H8T18203   2.897   3.063   3.908 -0.1473  0.5970  1.0981
  162OSM    C9S18204   3.037   3.031   4.067  0.4494 -0.1464 -0.6486
  162OSM    H9S18205   3.070   3.134   4.045 -1.9672  0.8391  0.0918
  162OSM    H9T18206   3.124   2.965   4.089  1.2639  0.6763 -1.3117
  162OSM   C10S18207   2.948   3.043   4.193  0.3981 -0.4974  0.0363
  162OSM   H10S18208   2.895   2.948   4.213 -0.4225 -0.4404 -1.7081
  162OSM   H10T18209   2.877   3.122   4.161  1.5771 -0.2792 -2.2370
  162OSM   C11S18210   3.014   3.094   4.323  0.7105 -0.3732  0.7605
  162OSM   H11S18211   3.064   3.188   4.290 -0.1076 -0.1046  0.2292
  162OSM   H11T18212   3.101   3.033   4.355  0.3862 -0.9600  0.5316
  162OSM   C12S18213   2.902   3.096   4.429  0.3037 -0.4135 -0.1357
  162OSM   H12S18214   2.865   2.992   4.440  0.1234 -0.3242  0.1255
  162OSM   H12T18215   2.818   3.155   4.388 -0.6616 -0.6773  1.3565
  162OSM   C13S18216   2.939   3.164   4.563  0.4311  0.0405 -0.6116
  162OSM   H13S18217   2.955   3.274   4.567  1.2951 -0.0806 -0.3607
  162OSM   H13T18218   3.032   3.121   4.607  0.6368  1.0211 -0.0686
  162OSM   C14S18219   2.825   3.129   4.664  0.5230 -0.1754 -0.1956
  162OSM   H14S18220   2.821   3.019   4.685  1.6383 -0.1083  0.4579
  162OSM   H14T18221   2.730   3.168   4.621  0.4855  0.6001  0.5627
  162OSM   C15S18222   2.848   3.198   4.801  0.0955  0.2999  0.5409
  162OSM   H15S18223   2.842   3.309   4.798 -1.3852  0.2234 -0.5780
  162OSM   H15T18224   2.958   3.197   4.811  0.1361  0.4038  0.1002
  162OSM   C16S18225   2.773   3.141   4.927  0.6763 -0.1369 -0.2779
  162OSM   H16S18226   2.814   3.047   4.969  2.1504  0.1464 -0.9835
  162OSM   H16T18227   2.673   3.113   4.889  0.1628  1.3029 -0.0415
  162OSM   C17S18228   2.758   3.239   5.046  0.5444  0.2795 -0.0947
  162OSM   H17S18229   2.670   3.214   5.108  1.6730  0.2188  1.5395
  162OSM   H17T18230   2.740   3.342   5.009  0.7409  0.7876  1.1742
  162OSM   C18S18231   2.876   3.231   5.145 -0.3666 -0.3108 -0.3096
  162OSM   H18S18232   2.873   3.136   5.203 -0.4973 -0.5605 -0.7144
  162OSM   H18T18233   2.871   3.321   5.209  0.7569 -1.9940  2.2898
  162OSM   H18U18234   2.976   3.227   5.096 -0.0008 -1.3468  0.4811
  162OSM    C1F18235   3.367   3.179   3.385  0.0336  0.2899 -0.2851
  162OSM     OF18236   3.395   3.239   3.285  0.5784 -0.7104  0.1914
  162OSM    C2F18237   3.434   3.221   3.514  0.4121 -0.1477  0.6155
  162OSM    H2F18238   3.468   3.326   3.506  1.7439 -0.6284 -0.5852
  162OSM    H2G18239   3.518   3.151   3.532  0.2269 -0.0434  1.9281
  162OSM    C3F18240   3.335   3.217   3.635  0.5363 -0.1033 -0.5295
  162OSM    H3F18241   3.296   3.114   3.650  0.2783 -0.0865 -1.0636
  162OSM    H3G18242   3.246   3.281   3.618  0.8012  0.7426  1.1527
  162OSM    C4F18243   3.405   3.250   3.760  0.0777  0.0190  0.3271
  162OSM    H4F18244   3.449   3.352   3.761 -0.7595  0.3918 -0.0778
  162OSM    H4G18245   3.491   3.182   3.776 -2.5919 -3.4458  1.0089
  162OSM    C5F18246   3.313   3.237   3.888  0.4757 -0.1886 -0.1191
  162OSM    H5F18247   3.282   3.130   3.894 -2.3056  0.5479  0.2374
  162OSM    H5G18248   3.228   3.306   3.868 -1.0100 -1.5848  1.1192
  162OSM    C6F18249   3.384   3.264   4.018  0.4424 -0.1977  0.1081
  162OSM    H6F18250   3.430   3.365   4.015 -1.1504  0.6150  1.3753
  162OSM    H6G18251   3.469   3.192   4.027  0.0109 -0.6841  0.3810
  162OSM    C7F18252   3.309   3.248   4.155 -0.2772  0.6243  0.3100
  162OSM    H7F18253   3.269   3.145   4.162 -0.5966  0.8207  1.6672
  162OSM    H7G18254   3.223   3.317   4.141 -1.0330 -0.2922  0.3360
  162OSM    C8F18255   3.392   3.284   4.283  0.0825 -0.0668  0.2597
  162OSM    H8F18256   3.439   3.378   4.248 -0.3920 -0.0845 -0.4393
  162OSM    H8G18257   3.467   3.203   4.295 -1.2458 -1.1984  1.2231
  162OSM    C9F18258   3.314   3.319   4.406 -0.6790 -0.0655  0.5004
  162OSM    H9F18259   3.247   3.403   4.382  2.1672  2.6678  1.3411
  162OSM   C10F18260   3.337   3.262   4.527  0.2585 -0.5603 -0.4090
  162OSM   H10F18261   3.274   3.291   4.612  0.8609 -3.2105  1.0615
  162OSM   C11F18262   3.451   3.162   4.561  1.1521 -0.5596  0.2464
  162OSM   H11F18263   3.475   3.101   4.472 -0.2714 -1.1637  0.2589
  162OSM   H11G18264   3.421   3.087   4.637  0.4054  1.8351  2.4593
  162OSM   C12F18265   3.577   3.237   4.602 -0.0495 -0.1284 -0.2592
  162OSM   H12F18266   3.552   3.293   4.695 -0.2413  0.2983 -0.5614
  162OSM   H12G18267   3.595   3.314   4.524 -0.7295  0.2736 -0.0291
  162OSM   C13F18268   3.703   3.160   4.623  0.0312 -0.0077 -0.3044
  162OSM   H13F18269   3.751   3.112   4.535  2.4669 -1.0372  1.4949
  162OSM   H13G18270   3.671   3.072   4.683 -1.4175  0.2095 -0.7069
  162OSM   C14F18271   3.809   3.231   4.712  0.3721  0.4204  0.2708
  162OSM   H14F18272   3.771   3.295   4.794  0.2202  2.3824 -1.2349
  162OSM   H14G18273   3.854   3.308   4.645  2.6573  1.3679  2.7216
  162OSM   C15F18274   3.916   3.128   4.762  0.5074 -0.6045 -0.0918
  162OSM   H15F18275   3.965   3.081   4.673 -2.4551 -1.3215 -1.4977
  162OSM   H15G18276   3.868   3.051   4.826  0.1939 -0.3964 -0.0729
  162OSM   C16F18277   4.027   3.187   4.842 -0.3130 -0.3797 -0.7890
  162OSM   H16F18278   3.995   3.250   4.928 -1.4562 -2.4794  0.4125
  162OSM   H16G18279   4.086   3.259   4.781 -0.1260 -0.0058 -0.1723
  162OSM   C17F18280   4.128   3.080   4.889 -0.0438  0.2408 -0.4043
  162OSM   H17F18281   4.173   3.012   4.814 -1.5988 -0.5905 -0.6423
  162OSM   H17G18282   4.074   3.016   4.963  0.8442 -1.5037 -1.2190
  162OSM   C18F18283   4.245   3.133   4.970  0.4650 -0.4053  0.1213
  162OSM   H18F18284   4.292   3.046   5.021  2.4269 -0.7349 -2.0998
  162OSM   H18G18285   4.208   3.204   5.047  1.2428 -0.4581  0.5513
  162OSM   H18H18286   4.314   3.187   4.901  0.1520 -0.5262 -0.2918
  163OSM      N18287   0.693   2.444   2.132 -0.1766  0.0530 -0.1849
  163OSM    C1518288   0.577   2.487   2.058 -0.5034  0.2371  0.3060
  163OSM   H15A18289   0.502   2.416   2.088  2.0318 -2.0238  1.7503
  163OSM   H15B18290   0.597   2.486   1.952 -0.3189 -2.0703  0.3095
  163OSM   H15C18291   0.541   2.583   2.092 -0.6464 -0.1621  1.3246
  163OSM    C1418292   0.671   2.438   2.274  0.7767 -0.0519 -0.3802
  163OSM   H14A18293   0.644   2.535   2.312  1.1671  1.0450 -2.7888
  163OSM   H14B18294   0.753   2.401   2.334  1.6514  1.0803 -0.8405
  163OSM   H14C18295   0.587   2.373   2.295  0.0793  0.9395 -0.0078
  163OSM    C1318296   0.736   2.303   2.099 -1.9870  0.7763  0.3370
  163OSM   H13A18297   0.821   2.270   2.157 -0.1667  0.4593 -2.3492
  163OSM   H13B18298   0.756   2.293   1.994 -1.2081  2.0082  0.3446
  163OSM   H13C18299   0.656   2.234   2.124 -1.2046 -0.6528 -0.9509
  163OSM    C1218300   0.817   2.544   2.112  0.2415 -0.1415 -0.5742
  163OSM   H12A18301   0.840   2.548   2.006 -0.9952 -0.0493 -0.8523
  163OSM   H12B18302   0.897   2.496   2.166  0.1539 -0.7734 -0.9993
  163OSM    C1118303   0.805   2.689   2.170  0.2954 -0.2059 -0.5619
  163OSM   H11A18304   0.726   2.753   2.124  0.9323 -0.7858 -2.5594
  163OSM   H11B18305   0.896   2.740   2.134 -0.7650  0.5798 -2.3012
  163OSM      P18306   0.783   2.824   2.390 -0.1129  0.5654 -0.0861
  163OSM    O1318307   0.893   2.847   2.484 -0.2325  0.3306 -0.1397
  163OSM    O1418308   0.741   2.933   2.296  0.4050 -0.6014 -0.9023
  163OSM    O1118309   0.648   2.795   2.470 -0.0316  0.7782 -0.6862
  163OSM    O1218310   0.804   2.685   2.312  0.8560 -0.7190 -0.2849
  163OSM    C1S18311   0.639   2.677   2.555  0.0317 -0.0569 -0.3790
  163OSM    H1S18312   0.708   2.593   2.532  0.1262  0.2824 -1.3997
  163OSM    H1T18313   0.533   2.646   2.547 -0.0682  0.1935 -0.0408
  163OSM     NF18314   0.640   2.606   2.790  0.3957  0.3318 -0.1359
  163OSM    HNF18315   0.549   2.600   2.830 -0.2552 -0.6272 -1.6645
  163OSM    C2S18316   0.663   2.716   2.703  0.1108 -0.4107  0.6130
  163OSM    H2S18317   0.768   2.748   2.720  0.8866 -1.9649 -0.9697
  163OSM    C3S18318   0.577   2.847   2.742 -0.4166  0.8251  0.7666
  163OSM    H3S18319   0.478   2.805   2.718  0.7147 -1.5519 -0.0926
  163OSM     O318320   0.617   2.963   2.670  0.0047  0.4006  0.1877
  163OSM    HO318321   0.645   2.915   2.591 -0.3092  1.3851 -0.5392
  163OSM    C4S18322   0.594   2.873   2.884  0.5289  0.0446 -0.1702
  163OSM    H4S18323   0.694   2.903   2.921  0.3088 -0.6012  1.0212
  163OSM    C5S18324   0.495   2.869   2.973  0.2035  0.3677  0.3057
  163OSM    H5S18325   0.391   2.835   2.959  0.2269 -0.5618  2.0442
  163OSM    C6S18326   0.517   2.908   3.116 -0.8394 -0.2795 -0.5454
  163OSM    H6S18327   0.622   2.901   3.153 -1.3926  2.5837  1.9154
  163OSM    H6T18328   0.458   2.835   3.176 -3.1546  1.8257 -0.0921
  163OSM    C7S18329   0.464   3.048   3.152 -0.7030 -0.1510 -0.3827
  163OSM    H7S18330   0.357   3.064   3.125 -0.3229 -0.1210 -1.9849
  163OSM    H7T18331   0.534   3.116   3.099  1.0237 -1.7776 -0.2672
  163OSM    C8S18332   0.492   3.086   3.293 -0.2852 -0.2708 -0.3868
  163OSM    H8S18333   0.595   3.061   3.327  0.7498  0.9071 -2.4514
  163OSM    H8T18334   0.437   3.020   3.363 -0.5990 -1.0327 -1.3284
  163OSM    C9S18335   0.427   3.227   3.322 -0.1550 -0.1382  0.4145
  163OSM    H9S18336   0.317   3.231   3.312 -0.3491  0.5085  2.3655
  163OSM    H9T18337   0.465   3.287   3.237  1.0901 -1.9873 -0.4216
  163OSM   C10S18338   0.469   3.290   3.457 -0.3779 -0.2132 -0.3030
  163OSM   H10S18339   0.400   3.375   3.476 -1.0058 -1.1259  1.7773
  163OSM   H10T18340   0.577   3.315   3.452 -0.5855  0.7436 -0.3463
  163OSM   C11S18341   0.460   3.201   3.587 -0.2702 -0.2446 -0.2840
  163OSM   H11S18342   0.550   3.136   3.593 -0.6461 -0.9278 -1.7423
  163OSM   H11T18343   0.365   3.148   3.565 -1.7362  2.2230 -0.1568
  163OSM   C12S18344   0.452   3.275   3.721 -0.1943 -0.3085 -0.2643
  163OSM   H12S18345   0.543   3.336   3.740  0.0759 -1.1773  1.4171
  163OSM   H12T18346   0.451   3.190   3.793  0.7087 -0.5845 -0.5575
  163OSM   C13S18347   0.336   3.369   3.736  0.4678 -0.2040 -0.1251
  163OSM   H13S18348   0.297   3.412   3.641 -0.4371 -1.3736 -0.3006
  163OSM   H13T18349   0.374   3.450   3.802 -1.9472  1.1019 -0.2161
  163OSM   C14S18350   0.215   3.318   3.816 -0.5036  0.5539  0.2255
  163OSM   H14S18351   0.177   3.223   3.774 -1.4326  1.0292 -0.0258
  163OSM   H14T18352   0.130   3.386   3.796  0.0123  1.2217  0.2359
  163OSM   C15S18353   0.221   3.297   3.963 -0.2092  0.3444 -0.3583
  163OSM   H15S18354   0.264   3.377   4.028 -0.8211 -0.3392  0.9315
  163OSM   H15T18355   0.280   3.206   3.984 -3.4608 -1.5407  1.4179
  163OSM   C16S18356   0.078   3.272   4.003  0.0906  0.2730 -0.1443
  163OSM   H16S18357   0.038   3.186   3.946  1.4651 -0.3478 -0.1944
  163OSM   H16T18358   0.028   3.366   3.971 -0.5448  0.5276  1.4769
  163OSM   C17S18359   0.058   3.270   4.153 -0.0825  0.1238 -0.3460
  163OSM   H17S18360   0.125   3.353   4.185 -2.5982  3.1157 -2.2418
  163OSM   H17T18361   0.093   3.174   4.198  1.9555  0.1976 -1.6735
  163OSM   C18S18362  -0.088   3.293   4.191 -0.2075 -0.0648  0.1898
  163OSM   H18S18363  -0.094   3.291   4.302  0.5827  1.7899  0.2961
  163OSM   H18T18364  -0.155   3.210   4.161  0.4402 -0.6174  0.2461
  163OSM   H18U18365  -0.134   3.387   4.155  1.8388  0.7163 -0.5130
  163OSM    C1F18366   0.721   2.493   2.791  0.0595  0.1854  0.1702
  163OSM     OF18367   0.833   2.500   2.734  0.8006  0.7627  0.2689
  163OSM    C2F18368   0.678   2.368   2.858  0.3169 -0.0550  0.6007
  163OSM    H2F18369   0.576   2.336   2.825  0.3400  0.9466 -0.4831
  163OSM    H2G18370   0.680   2.384   2.968  1.9182 -0.5951  0.6662
  163OSM    C3F18371   0.784   2.245   2.849  0.0199 -0.6563  1.0411
  163OSM    H3F18372   0.888   2.283   2.848 -0.2190  0.0145  0.9610
  163OSM    H3G18373   0.768   2.196   2.750 -0.9553  1.6219 -0.0177
  163OSM    C4F18374   0.776   2.154   2.967 -0.3128 -0.2301 -1.1225
  163OSM    H4F18375   0.824   2.056   2.945  2.5366  0.4935  1.1659
  163OSM    H4G18376   0.673   2.133   3.002  0.6004  1.7353  3.4639
  163OSM    C5F18377   0.854   2.215   3.089  0.1486  0.1240 -0.1682
  163OSM    H5F18378   0.801   2.302   3.134  0.5822 -1.4232  3.6347
  163OSM    H5G18379   0.949   2.262   3.055 -1.4904  2.5132 -1.7743
  163OSM    C6F18380   0.882   2.107   3.193 -0.0654 -0.1754  0.4247
  163OSM    H6F18381   0.932   2.020   3.144  0.3418  0.2128  0.1362
  163OSM    H6G18382   0.777   2.083   3.221 -0.2917 -1.5994 -1.4332
  163OSM    C7F18383   0.965   2.159   3.311  0.2182 -0.2798  0.0016
  163OSM    H7F18384   1.039   2.229   3.265 -0.7669 -0.8618 -2.6694
  163OSM    H7G18385   1.016   2.074   3.361 -1.3695 -1.6325 -0.6260
  163OSM    C8F18386   0.886   2.239   3.412  0.3045  0.2792  0.1168
  163OSM    H8F18387   0.825   2.314   3.356  2.1127  1.3424 -0.4894
  163OSM    H8G18388   0.950   2.295   3.482  1.5654  0.7451 -1.3646
  163OSM    C9F18389   0.807   2.145   3.501  0.8931  0.6775  0.5752
  163OSM    H9F18390   0.727   2.083   3.456  2.1433  0.3325 -1.2782
  163OSM   C10F18391   0.829   2.118   3.631 -0.2724 -0.2475  0.2843
  163OSM   H10F18392   0.754   2.050   3.674  0.2044  1.2312  3.7946
  163OSM   C11F18393   0.920   2.182   3.737 -0.0816 -0.2804 -0.5556
  163OSM   H11F18394   1.028   2.187   3.711 -0.1567  0.7489 -0.7121
  163OSM   H11G18395   0.927   2.122   3.830  2.0382 -2.1925 -1.8468
  163OSM   C12F18396   0.881   2.329   3.777 -0.4637 -0.7461  0.2451
  163OSM   H12F18397   0.857   2.378   3.680  1.0848 -0.5966 -0.1024
  163OSM   H12G18398   0.969   2.381   3.823 -1.0056  1.9675 -1.5224
  163OSM   C13F18399   0.773   2.347   3.887 -0.7616 -0.0960 -0.1057
  163OSM   H13F18400   0.784   2.276   3.972 -2.4426 -0.8736 -0.4910
  163OSM   H13G18401   0.673   2.317   3.847 -1.5828 -1.0138  2.4358
  163OSM   C14F18402   0.775   2.490   3.946  0.2641  0.1379  0.3769
  163OSM   H14F18403   0.729   2.555   3.868  1.1772  0.1876 -0.1309
  163OSM   H14G18404   0.876   2.533   3.960 -0.7115  2.6056  0.4550
  163OSM   C15F18405   0.696   2.499   4.077 -0.5124 -0.5009  0.6507
  163OSM   H15F18406   0.755   2.462   4.164  0.2371 -1.1363 -0.1152
  163OSM   H15G18407   0.614   2.426   4.060 -0.7305 -0.5982  2.0206
  163OSM   C16F18408   0.644   2.637   4.106 -0.4841  0.1249  0.0564
  163OSM   H16F18409   0.570   2.656   4.025 -1.9506 -0.6085  1.1732
  163OSM   H16G18410   0.720   2.717   4.092 -0.7111  0.3441  0.0813
  163OSM   C17F18411   0.579   2.654   4.237  0.6020  0.7091 -0.2520
  163OSM   H17F18412   0.487   2.592   4.230  0.8888  0.2815 -0.3034
  163OSM   H17G18413   0.555   2.758   4.268 -0.4118  0.1643  0.8532
  163OSM   C18F18414   0.668   2.613   4.357 -0.0381  0.0333 -0.0230
  163OSM   H18F18415   0.703   2.509   4.371  0.9626  0.2825 -0.6242
  163OSM   H18G18416   0.636   2.650   4.457 -1.5093 -1.4308  0.0834
  163OSM   H18H18417   0.767   2.653   4.327  0.1136  0.0959  0.5394
  164OSM      N18418   2.009   6.247   2.526  0.4261 -0.1534  0.5288
  164OSM    C1518419   1.876   6.217   2.462  0.4171  0.1580  0.4921
  164OSM   H15A18420   1.830   6.308   2.424 -0.5377 -0.1138  0.9598
  164OSM   H15B18421   1.815   6.167   2.536  0.9477  0.7155  1.3217
  164OSM   H15C18422   1.890   6.147   2.381 -2.3814 -0.0744  0.1031
  164OSM    C1418423   2.091   6.332   2.440 -0.7431 -0.0806  0.8537
  164OSM   H14A18424   2.100   6.299   2.338 -2.9680  1.2684  0.1632
  164OSM   H14B18425   2.189   6.361   2.477  0.5640 -1.6681 -1.1287
  164OSM   H14C18426   2.042   6.428   2.432 -1.8398 -0.7835 -4.0939
  164OSM    C1318427   1.968   6.330   2.643  0.4298 -1.0710 -0.3517
  164OSM   H13A18428   2.047   6.383   2.694  0.0207  0.0755 -0.8784
  164OSM   H13B18429   1.929   6.267   2.721  0.4169  0.8597  1.2856
  164OSM   H13C18430   1.892   6.403   2.618  0.5483 -0.0545  1.9708
  164OSM    C1218431   2.079   6.123   2.568  0.1413 -0.1527 -0.2458
  164OSM   H12A18432   2.008   6.061   2.620 -0.6864  0.5164 -0.5549
  164OSM   H12B18433   2.159   6.145   2.637 -0.9770 -2.0685  1.7878
  164OSM    C1118434   2.118   6.030   2.461 -0.5503 -0.3474 -0.2485
  164OSM   H11A18435   2.175   5.949   2.512 -0.2358 -0.2416 -0.4231
  164OSM   H11B18436   2.177   6.088   2.387 -0.3833 -1.2840 -0.8773
  164OSM      P18437   1.913   5.855   2.453 -0.5451  0.0721 -0.5361
  164OSM    O1318438   1.783   5.859   2.387  0.2073 -0.6166 -1.0446
  164OSM    O1418439   1.996   5.732   2.443 -0.5222  0.2403  0.2644
  164OSM    O1118440   1.908   5.902   2.613 -0.4533  0.0651  0.0074
  164OSM    O1218441   2.007   5.973   2.392 -0.2006  0.2452  0.6496
  164OSM    C1S18442   1.815   5.818   2.684 -0.0007 -0.3962 -0.8030
  164OSM    H1S18443   1.838   5.710   2.678  0.9825 -0.3191  0.8969
  164OSM    H1T18444   1.712   5.830   2.643  0.0777 -0.6454 -1.0739
  164OSM     NF18445   1.748   5.751   2.918  0.0795 -0.1967 -0.0820
  164OSM    HNF18446   1.662   5.774   2.963 -1.3017 -1.3937 -1.9589
  164OSM    C2S18447   1.819   5.851   2.838 -0.4275  0.3804 -0.3536
  164OSM    H2S18448   1.923   5.856   2.875 -0.0070  1.7769 -1.6289
  164OSM    C3S18449   1.780   6.000   2.874  0.2419 -0.7772 -0.6088
  164OSM    H3S18450   1.669   6.004   2.870  0.2086  0.4620  0.9834
  164OSM     O318451   1.819   6.105   2.786  0.2665 -0.3157  0.4584
  164OSM    HO318452   1.858   6.051   2.718 -0.5110  0.1542 -0.3731
  164OSM    C4S18453   1.804   6.024   3.017 -0.2909  0.1887 -0.4956
  164OSM    H4S18454   1.733   5.969   3.081 -1.7955 -0.0456 -2.2895
  164OSM    C5S18455   1.905   6.088   3.071  0.3423  0.3733  0.4043
  164OSM    H5S18456   1.961   6.156   3.006  0.5828  0.5233  0.7617
  164OSM    C6S18457   1.908   6.105   3.227  0.1581  0.4808  0.3597
  164OSM    H6S18458   1.903   6.213   3.252  0.7273  1.2695 -2.4774
  164OSM    H6T18459   2.008   6.064   3.253 -1.2754 -2.4199  1.8161
  164OSM    C7S18460   1.808   6.031   3.315 -0.8491 -0.1264 -0.2777
  164OSM    H7S18461   1.813   5.921   3.303  1.8650 -0.1008 -0.1714
  164OSM    H7T18462   1.713   6.080   3.285  0.3122  2.9553  0.6117
  164OSM    C8S18463   1.837   6.072   3.462  0.6998 -0.7633  0.3108
  164OSM    H8S18464   1.941   6.039   3.484  1.3994  0.2416 -1.2938
  164OSM    H8T18465   1.780   6.000   3.525  0.4535 -0.0998  0.8510
  164OSM    C9S18466   1.789   6.215   3.496  0.3653 -0.1478 -0.4775
  164OSM    H9S18467   1.682   6.230   3.470 -0.1632  1.0911  2.1011
  164OSM    H9T18468   1.856   6.290   3.448  0.9370 -0.1635  0.2750
  164OSM   C10S18469   1.803   6.243   3.648 -0.8054  0.6779  0.6233
  164OSM   H10S18470   1.794   6.353   3.666  0.7782  0.7794  0.8861
  164OSM   H10T18471   1.907   6.216   3.675 -0.7258 -0.4711 -0.7664
  164OSM   C11S18472   1.711   6.167   3.748 -0.2365  0.6450  0.2967
  164OSM   H11S18473   1.729   6.058   3.735  0.4922  0.6586  1.1302
  164OSM   H11T18474   1.603   6.188   3.730 -0.2931  2.5855  2.3811
  164OSM   C12S18475   1.733   6.203   3.892  0.3522  0.1860 -0.4925
  164OSM   H12S18476   1.727   6.314   3.896 -1.7443  0.0675  1.3173
  164OSM   H12T18477   1.836   6.165   3.913 -0.2834 -2.9900 -2.3931
  164OSM   C13S18478   1.626   6.146   3.986 -0.3928 -0.0618 -0.2027
  164OSM   H13S18479   1.638   6.035   3.987  2.4569  0.1841  0.5339
  164OSM   H13T18480   1.523   6.182   3.967 -1.0342 -0.7410  1.6968
  164OSM   C14S18481   1.653   6.180   4.137 -0.2527  0.5670 -0.3336
  164OSM   H14S18482   1.635   6.289   4.150 -2.0913  0.2104  0.5411
  164OSM   H14T18483   1.757   6.144   4.152 -0.1665  0.4392 -1.1759
  164OSM   C15S18484   1.576   6.098   4.246  0.3211 -0.3366 -0.2303
  164OSM   H15S18485   1.587   5.991   4.220  3.7062  0.4481 -2.5840
  164OSM   H15T18486   1.470   6.133   4.242  0.2763 -0.5599 -1.8039
  164OSM   C16S18487   1.637   6.111   4.384  0.3441 -0.1084 -0.2776
  164OSM   H16S18488   1.737   6.062   4.388  0.6977  0.6846  1.2456
  164OSM   H16T18489   1.574   6.068   4.464  0.6318  0.4843  0.2742
  164OSM   C17S18490   1.661   6.260   4.434 -0.0829  0.4001  0.2756
  164OSM   H17S18491   1.569   6.318   4.409 -0.9153 -0.0650  2.0557
  164OSM   H17T18492   1.740   6.302   4.369  0.7620 -0.7641  0.5248
  164OSM   C18S18493   1.695   6.285   4.586  0.1926  0.3501  0.1414
  164OSM   H18S18494   1.792   6.239   4.614  0.7519 -0.0555 -2.2466
  164OSM   H18T18495   1.617   6.240   4.651  0.7436  0.6195  1.0029
  164OSM   H18U18496   1.685   6.394   4.599 -0.2971  0.3837 -0.4821
  164OSM    C1F18497   1.777   5.623   2.914 -0.1543  0.4020 -0.3226
  164OSM     OF18498   1.896   5.589   2.898  0.1326 -0.4440 -0.3210
  164OSM    C2F18499   1.686   5.525   2.963 -0.3081  0.1373 -0.2008
  164OSM    H2F18500   1.642   5.463   2.882 -0.0252 -2.5586  1.5838
  164OSM    H2G18501   1.597   5.580   3.000  0.1184  1.9323 -1.7291
  164OSM    C3F18502   1.763   5.436   3.066  0.2678 -0.3222 -0.2229
  164OSM    H3F18503   1.822   5.505   3.129  0.4618 -1.1596  0.5296
  164OSM    H3G18504   1.837   5.367   3.019 -1.0007 -0.6149 -1.9109
  164OSM    C4F18505   1.675   5.352   3.159 -0.4733  0.4501 -0.0989
  164OSM    H4F18506   1.619   5.270   3.110  0.0915 -1.8060  2.7371
  164OSM    H4G18507   1.599   5.420   3.204  1.1830  2.9131 -0.8104
  164OSM    C5F18508   1.753   5.299   3.279  0.0723  0.6511  0.0956
  164OSM    H5F18509   1.818   5.374   3.327 -0.0881  0.9942 -0.2123
  164OSM    H5G18510   1.819   5.221   3.235 -2.4086 -1.4963 -0.1091
  164OSM    C6F18511   1.664   5.234   3.381  0.6056  0.1118 -0.1114
  164OSM    H6F18512   1.576   5.194   3.326  0.5704 -1.0283  0.7451
  164OSM    H6G18513   1.622   5.311   3.451 -1.0919 -2.0411  1.3864
  164OSM    C7F18514   1.742   5.136   3.468  0.3745  0.1810 -0.0770
  164OSM    H7F18515   1.831   5.172   3.525 -0.6308 -0.2837  1.8611
  164OSM    H7G18516   1.772   5.056   3.397  0.8240  0.4661 -0.2123
  164OSM    C8F18517   1.647   5.076   3.579 -0.9685 -0.4764  0.4573
  164OSM    H8F18518   1.561   5.019   3.537  1.7041 -4.5278  0.0143
  164OSM    H8G18519   1.601   5.158   3.639 -1.1164  1.2337 -1.8760
  164OSM    C9F18520   1.712   4.966   3.653  0.2383  0.3161 -0.1176
  164OSM    H9F18521   1.681   4.867   3.615  0.8615 -0.6157  1.7060
  164OSM   C10F18522   1.785   4.973   3.764 -0.0458 -0.2059  0.1265
  164OSM   H10F18523   1.807   4.881   3.821  2.0291  1.2161  1.7772
  164OSM   C11F18524   1.843   5.101   3.826  0.0942  0.3673  0.5417
  164OSM   H11F18525   1.837   5.187   3.756 -0.0642 -1.4675 -1.8465
  164OSM   H11G18526   1.953   5.088   3.839  0.0426  0.4004  1.0249
  164OSM   C12F18527   1.776   5.123   3.959  0.1013 -0.1957 -0.3040
  164OSM   H12F18528   1.673   5.160   3.941 -0.2731 -0.4624  1.1724
  164OSM   H12G18529   1.831   5.202   4.014 -3.3105  2.3205 -0.2016
  164OSM   C13F18530   1.777   5.000   4.053 -0.0883  0.4023 -0.1631
  164OSM   H13F18531   1.881   4.961   4.043  0.1296  1.5394 -3.7958
  164OSM   H13G18532   1.705   4.922   4.019 -0.7689  2.2657 -3.4192
  164OSM   C14F18533   1.758   5.042   4.199  0.1913  0.3511 -0.3881
  164OSM   H14F18534   1.669   5.109   4.206  0.5985  0.8184  0.5011
  164OSM   H14G18535   1.842   5.105   4.235  0.1126 -0.4325  1.2747
  164OSM   C15F18536   1.716   4.929   4.302 -0.0910  0.1351 -0.1034
  164OSM   H15F18537   1.797   4.856   4.322  0.5871  1.1459  0.9790
  164OSM   H15G18538   1.626   4.881   4.259 -0.3849  0.7037 -0.1310
  164OSM   C16F18539   1.695   4.994   4.436  0.1666  0.9381  0.3500
  164OSM   H16F18540   1.621   5.075   4.424 -0.7523  0.0102 -0.4321
  164OSM   H16G18541   1.791   5.038   4.471 -0.9052  0.9756  3.5419
  164OSM   C17F18542   1.652   4.895   4.537 -0.1170 -0.3998 -0.5765
  164OSM   H17F18543   1.703   4.797   4.525 -1.7421 -1.2698 -0.6530
  164OSM   H17G18544   1.544   4.870   4.530 -0.6634  2.1572 -2.4202
  164OSM   C18F18545   1.664   4.938   4.684 -1.4436 -0.0574 -0.7598
  164OSM   H18F18546   1.643   4.850   4.748 -2.5180  0.1295 -0.8350
  164OSM   H18G18547   1.596   5.023   4.708 -0.2151  0.4046  1.3495
  164OSM   H18H18548   1.768   4.972   4.705 -0.2423 -2.8143 -1.8212
  165SAPS     N18549   0.208   6.380   7.079  0.6228 -0.2327  0.3235
  165SAPS   HN118550   0.238   6.281   7.067 -4.2394 -2.1327  1.4446
  165SAPS   HN218551   0.256   6.445   7.014  2.8363 -0.5261  1.5797
  165SAPS   HN318552   0.221   6.398   7.180 -2.9547 -0.4555  0.9592
  165SAPS   C1218553   0.058   6.373   7.044 -0.2259 -0.3360  0.0410
  165SAPS  H12A18554   0.014   6.289   7.094 -3.0049  1.0379  0.0904
  165SAPS   C1318555  -0.024   6.498   7.091  0.3020  0.2333 -0.3969
  165SAPS  O13A18556   0.050   6.594   7.120  0.6356 -0.4876 -0.4461
  165SAPS  O13B18557  -0.146   6.495   7.080 -0.3790 -0.1000 -0.6100
  165SAPS   C1118558   0.033   6.362   6.893 -0.1831 -0.2050 -0.0807
  165SAPS  H11A18559   0.062   6.456   6.842  1.6112  0.2439  1.6255
  165SAPS  H11B18560  -0.078   6.357   6.888 -0.2780 -4.5474  1.7780
  165SAPS     P18561   0.170   6.238   6.705 -0.0036  0.1893  0.2297
  165SAPS   O1318562   0.246   6.364   6.699 -0.4706  0.0162 -0.4780
  165SAPS   O1418563   0.243   6.108   6.690 -0.4420 -0.4704 -0.4397
  165SAPS   O1218564   0.092   6.239   6.842 -0.1396  0.3654 -0.3628
  165SAPS   O1118565   0.059   6.242   6.597  0.0260 -0.5607 -0.8441
  165SAPS    C118566   0.061   6.327   6.481 -0.5379 -0.5706 -0.8562
  165SAPS    HA18567   0.163   6.360   6.452 -0.7388 -0.5125 -1.5243
  165SAPS    HB18568   0.025   6.271   6.392 -0.3222  0.4876 -1.6363
  165SAPS    C218569  -0.028   6.453   6.499 -0.1741  0.6338  0.1751
  165SAPS    HS18570   0.023   6.510   6.579  3.1576 -1.4598 -0.2570
  165SAPS   O2118571  -0.155   6.395   6.542 -0.4782  0.2895 -0.0113
  165SAPS   C2118572  -0.238   6.484   6.597  0.2263  0.7649  0.0369
  165SAPS   O2218573  -0.213   6.599   6.613 -0.1717  0.7647  0.3385
  165SAPS   C2218574  -0.374   6.424   6.644 -0.4828  0.5722 -0.1162
  165SAPS   H2R18575  -0.354   6.356   6.729  0.8786 -0.6983 -1.3848
  165SAPS   H2S18576  -0.438   6.504   6.688  0.3317  1.9041 -1.2361
  165SAPS    C318577  -0.044   6.530   6.365  0.2959 -0.6190  0.4099
  165SAPS    HX18578  -0.112   6.614   6.390  2.1246  0.2676  2.8582
  165SAPS    HY18579  -0.098   6.466   6.293 -0.3248  2.0041 -1.6211
  165SAPS   O3118580   0.078   6.576   6.312  0.5629 -0.8425 -0.0880
  165SAPS   C3118581   0.107   6.704   6.308  0.4743  0.2596  0.9979
  165SAPS   O3218582   0.052   6.789   6.369 -0.3301  0.1255 -0.2165
  165SAPS   C3218583   0.218   6.718   6.201 -0.2851 -0.6689 -0.4672
  165SAPS   H2X18584   0.248   6.619   6.162 -0.7881 -0.8414 -0.4153
  165SAPS   H2Y18585   0.303   6.763   6.256 -1.1457  2.1592 -1.2764
  165SAPS   C2318586  -0.450   6.342   6.537  0.0667 -0.2930 -0.2339
  165SAPS   H3R18587  -0.531   6.277   6.575  0.1559  0.4258  1.2111
  165SAPS   H3S18588  -0.382   6.267   6.490  0.1847 -0.1461 -0.2976
  165SAPS   C2418589  -0.509   6.415   6.418  0.1433 -0.3236 -0.0097
  165SAPS   H4R18590  -0.567   6.344   6.356  0.9124 -0.3699 -0.6830
  165SAPS   H4S18591  -0.423   6.436   6.351  1.0940  1.1051  1.5632
  165SAPS   C2518592  -0.593   6.533   6.456  0.0127 -0.0527 -0.3244
  165SAPS   H5R18593  -0.680   6.504   6.517  1.6660 -1.8657  1.3535
  165SAPS   C2618594  -0.576   6.658   6.410 -0.1379  0.5642  0.3792
  165SAPS   H6R18595  -0.653   6.734   6.424 -0.7406 -0.0881  0.6920
  165SAPS   C2718596  -0.464   6.706   6.318 -0.1770 -0.2936  0.6764
  165SAPS   H7R18597  -0.491   6.761   6.225  1.9114 -2.7974 -1.5503
  165SAPS   H7S18598  -0.416   6.615   6.277  0.6834  0.5488 -0.2493
  165SAPS   C2818599  -0.360   6.794   6.397 -0.2182  0.8518  0.0879
  165SAPS   H8R18600  -0.372   6.797   6.506  0.2794  0.2002  0.1636
  165SAPS   C2918601  -0.266   6.871   6.341 -0.1860 -0.0637  0.0292
  165SAPS   H9R18602  -0.192   6.926   6.401  0.5678 -1.7834  0.7320
  165SAPS  C21018603  -0.255   6.901   6.194 -0.2052  0.3837  0.6746
  165SAPS  H10R18604  -0.354   6.918   6.146  0.4358  0.7385 -0.5632
  165SAPS  H10S18605  -0.222   6.810   6.140 -1.2213  0.5461 -0.2470
  165SAPS  C21118606  -0.159   7.018   6.168 -0.3350 -0.2315  0.5736
  165SAPS  H11R18607  -0.060   7.011   6.214 -0.7785  1.5173  1.8932
  165SAPS  C21218608  -0.179   7.121   6.078  0.5554  0.3183  0.5530
  165SAPS  H12R18609  -0.100   7.190   6.045  1.2922 -1.6410 -2.2043
  165SAPS  C21318610  -0.306   7.138   6.001 -0.2612 -0.5387 -0.0625
  165SAPS  H13R18611  -0.335   7.043   5.950  0.4699 -0.7634 -0.0727
  165SAPS  H13S18612  -0.269   7.192   5.911 -0.8996 -2.3917 -1.4967
  165SAPS  C21418613  -0.405   7.229   6.078 -0.2364  0.3001  0.1459
  165SAPS  H14R18614  -0.361   7.304   6.145  0.1748 -1.0617  1.4362
  165SAPS  C21518615  -0.537   7.218   6.066  0.4769  0.0914 -0.5917
  165SAPS  H15R18616  -0.606   7.273   6.132  0.1909  1.3914 -1.9419
  165SAPS  C21618617  -0.627   7.121   5.994 -0.9090 -0.5148  0.8625
  165SAPS  H16R18618  -0.712   7.078   6.052 -1.6798 -1.8321 -1.1047
  165SAPS  H16S18619  -0.572   7.029   5.963 -2.9978 -1.9666  1.2456
  165SAPS  C21718620  -0.703   7.186   5.874 -0.8678  0.4781  0.1442
  165SAPS  H17R18621  -0.779   7.261   5.905 -3.0929 -0.5047 -2.5824
  165SAPS  H17S18622  -0.764   7.104   5.831 -1.0000  0.2669  0.7227
  165SAPS  C21818623  -0.601   7.232   5.774 -0.2597 -0.3516  0.8107
  165SAPS  H18R18624  -0.542   7.145   5.737  0.4725  0.5741 -0.2980
  165SAPS  H18S18625  -0.529   7.311   5.805  0.4000 -1.2504  1.6462
  165SAPS  C21918626  -0.672   7.287   5.643 -0.5826  0.3873 -0.0031
  165SAPS  H19R18627  -0.591   7.342   5.592  0.7098 -1.4415 -0.0038
  165SAPS  H19S18628  -0.741   7.371   5.665  1.1465  1.3324  2.2279
  165SAPS  C22018629  -0.734   7.196   5.541  0.3694 -0.0136 -0.4983
  165SAPS  H20R18630  -0.663   7.118   5.505 -1.6119 -1.1681 -2.1688
  165SAPS  H20S18631  -0.785   7.258   5.464 -0.3792  0.1404  0.1092
  165SAPS  H20T18632  -0.815   7.131   5.582  0.4448 -0.0874 -0.4677
  165SAPS   C3318633   0.169   6.822   6.099 -0.2348 -0.5308 -0.4478
  165SAPS   H3X18634   0.249   6.862   6.034  1.1819 -0.0434  1.4822
  165SAPS   H3Y18635   0.121   6.907   6.152  0.0875 -1.3445  1.2413
  165SAPS   C3418636   0.079   6.768   5.988 -0.3714 -0.3555 -0.2319
  165SAPS   H4X18637  -0.027   6.763   6.022 -1.1930 -0.7938 -2.6093
  165SAPS   H4Y18638   0.120   6.671   5.953  2.8497  1.3261 -1.4882
  165SAPS   C3518639   0.078   6.862   5.869  0.6226  0.1028 -0.0555
  165SAPS   H5X18640   0.183   6.871   5.833  1.2316 -2.4855  0.8857
  165SAPS   H5Y18641   0.045   6.959   5.911  2.1065  0.4462  0.3811
  165SAPS   C3618642  -0.010   6.820   5.754  0.2093  0.0216  1.1057
  165SAPS   H6X18643  -0.114   6.784   5.767 -0.4326 -0.8314 -4.1162
  165SAPS   H6Y18644   0.032   6.733   5.699 -0.8753  0.9845 -1.4180
  165SAPS   C3718645  -0.014   6.924   5.641  0.4957  0.1703 -0.8057
  165SAPS   H7X18646  -0.066   6.877   5.554 -0.2835 -1.8391  0.6691
  165SAPS   H7Y18647   0.088   6.948   5.603  0.3154  0.4132 -1.1374
  165SAPS   C3818648  -0.096   7.051   5.677  0.4174 -0.1523 -0.7619
  165SAPS   H8X18649  -0.037   7.107   5.752  0.0039  0.1519 -0.6610
  165SAPS   H8Y18650  -0.186   7.017   5.732  0.3046 -3.2262 -2.6007
  165SAPS   C3918651  -0.139   7.138   5.552  0.0447  0.0099 -0.6807
  165SAPS   H9X18652  -0.204   7.085   5.479  0.4575  0.4666 -1.3907
  165SAPS   H9Y18653  -0.047   7.152   5.491  1.2378 -0.7952  0.8468
  165SAPS  C31018654  -0.207   7.268   5.585  0.6119  0.1426 -0.0885
  165SAPS  H10X18655  -0.164   7.301   5.682 -0.1929 -1.0330  0.6866
  165SAPS  H10Y18656  -0.315   7.245   5.586  0.9215 -1.8868 -2.3441
  165SAPS  C31118657  -0.185   7.372   5.482  0.1783 -0.0870 -0.4419
  165SAPS  H11X18658  -0.075   7.389   5.484  0.4434 -1.2980 -2.1967
  165SAPS  H11Y18659  -0.239   7.461   5.521 -0.2903 -1.4983  2.4288
  165SAPS  C31218660  -0.237   7.350   5.342  0.7717  0.1722  0.3599
  165SAPS  H12X18661  -0.181   7.273   5.284 -0.3508  0.5720 -1.3071
  165SAPS  H12Y18662  -0.216   7.449   5.295  0.0852  0.1489  0.0002
  165SAPS  C31318663  -0.382   7.308   5.339 -0.0449 -0.2032 -0.1961
  165SAPS  H13X18664  -0.449   7.368   5.405  0.2944 -0.9084  0.8134
  165SAPS  H13Y18665  -0.393   7.206   5.382  0.5499  0.0416  0.5473
  165SAPS  C31418666  -0.446   7.311   5.202  1.2386 -0.1657 -0.4210
  165SAPS  H14X18667  -0.396   7.233   5.140  0.1169 -1.7705  0.5904
  165SAPS  H14Y18668  -0.429   7.408   5.151  6.1405 -0.5149  0.0899
  165SAPS  C31518669  -0.600   7.283   5.203 -0.3990  0.1491  0.1134
  165SAPS  H15X18670  -0.651   7.376   5.236 -0.1775  0.9572 -1.6740
  165SAPS  H15Y18671  -0.624   7.209   5.282  1.4422 -2.1688 -1.3608
  165SAPS  C31618672  -0.652   7.225   5.074 -0.1885  0.6210  0.0739
  165SAPS  H16X18673  -0.584   7.255   4.992 -0.4567 -1.7313 -1.1134
  165SAPS  H16Y18674  -0.759   7.251   5.058 -0.4886 -1.0126 -0.7992
  165SAPS  C31718675  -0.656   7.068   5.063 -0.8289 -0.6857 -0.1347
  165SAPS  H17X18676  -0.717   7.038   5.151 -2.2428  2.8672  0.2681
  165SAPS  H17Y18677  -0.551   7.032   5.064 -1.5026 -2.8247  1.7645
  165SAPS  C31818678  -0.731   7.008   4.940 -0.4282  0.1678 -0.4640
  165SAPS  H18X18679  -0.840   7.007   4.962 -0.1197  0.9644  1.2851
  165SAPS  H18Y18680  -0.700   6.903   4.923 -0.0916  0.3158 -0.7715
  165SAPS  H18Z18681  -0.704   7.058   4.844 -2.3815  0.7926 -0.7418
  166SAPS     N18682   4.398   1.323   7.235  0.4348 -0.0423 -1.0307
  166SAPS   HN118683   4.309   1.296   7.188  1.1687 -0.9570 -1.9448
  166SAPS   HN218684   4.377   1.386   7.315  2.6686 -0.4848 -0.0461
  166SAPS   HN318685   4.462   1.370   7.168  0.2770  0.9693 -0.4987
  166SAPS   C1218686   4.468   1.195   7.278  0.0645  0.8113 -0.7515
  166SAPS  H12A18687   4.490   1.141   7.187 -1.2066 -0.5987 -0.2692
  166SAPS   C1318688   4.597   1.215   7.343  0.2938  0.4294  0.5618
  166SAPS  O13A18689   4.640   1.335   7.373  0.7532 -0.1842 -0.5858
  166SAPS  O13B18690   4.666   1.120   7.386  0.0142  0.2481  0.1150
  166SAPS   C1118691   4.374   1.120   7.380 -0.1763 -0.0915  0.1343
  166SAPS  H11A18692   4.336   1.193   7.454 -0.1805  0.1565 -0.1099
  166SAPS  H11B18693   4.439   1.052   7.439  1.8928  1.1074 -0.6711
  166SAPS     P18694   4.132   1.104   7.286 -0.4331  0.0852  0.3126
  166SAPS   O1318695   4.052   0.991   7.233 -0.4479 -0.3428  0.6708
  166SAPS   O1418696   4.093   1.177   7.403 -0.7527 -0.2649 -0.4096
  166SAPS   O1218697   4.273   1.045   7.313  0.2764 -0.0856  0.6244
  166SAPS   O1118698   4.176   1.204   7.177  0.0078 -0.8137  0.3003
  166SAPS    C118699   4.074   1.244   7.075 -0.5239 -0.2787 -0.2876
  166SAPS    HA18700   3.976   1.254   7.126  0.9947  0.0802  2.8008
  166SAPS    HB18701   4.114   1.339   7.034  3.2332 -2.3445 -1.9211
  166SAPS    C218702   4.073   1.154   6.954 -0.0988  0.1308  0.1711
  166SAPS    HS18703   4.034   1.057   6.990  2.0892 -0.1891  1.9416
  166SAPS   O2118704   4.212   1.127   6.924  0.4998 -0.4415  0.3197
  166SAPS   C2118705   4.242   1.010   6.862  1.4298 -0.0336  0.5248
  166SAPS   O2218706   4.161   0.923   6.833  0.1495  0.3304 -0.2259
  166SAPS   C2218707   4.386   1.007   6.816 -1.2670 -0.0346  0.7609
  166SAPS   H2R18708   4.455   1.002   6.903 -0.3402  1.9924  0.1960
  166SAPS   H2S18709   4.392   0.916   6.752 -0.1064 -0.1075  0.9551
  166SAPS    C318710   3.986   1.218   6.842 -0.0872 -0.7234  0.1367
  166SAPS    HX18711   4.035   1.314   6.817  1.2671 -0.7080  2.5002
  166SAPS    HY18712   3.884   1.250   6.872 -0.1900 -0.3976 -0.5363
  166SAPS   O3118713   3.978   1.137   6.723 -0.1349  0.2366 -0.4414
  166SAPS   C3118714   3.875   1.058   6.715  0.0363  0.3280  0.1164
  166SAPS   O3218715   3.783   1.041   6.798 -0.1512 -0.4947  0.3904
  166SAPS   C3218716   3.871   1.004   6.571  0.2861  0.0121 -0.3325
  166SAPS   H2X18717   3.906   0.899   6.571 -1.6602 -0.6904 -0.5590
  166SAPS   H2Y18718   3.951   1.053   6.512  0.6489 -1.3673 -1.0067
  166SAPS   C2318719   4.423   1.131   6.731 -0.7851  0.0733 -0.0216
  166SAPS   H3R18720   4.533   1.143   6.742 -0.7749 -1.6408  2.8197
  166SAPS   H3S18721   4.386   1.228   6.772 -2.5561 -0.0390 -1.2442
  166SAPS   C2418722   4.394   1.111   6.583  0.3499 -0.1728  0.5433
  166SAPS   H4R18723   4.285   1.112   6.560  0.8547  0.1698 -2.1829
  166SAPS   H4S18724   4.416   1.004   6.565 -1.2773 -0.4280 -0.1499
  166SAPS   C2518725   4.473   1.210   6.505  0.5936 -0.1498 -0.2507
  166SAPS   H5R18726   4.461   1.315   6.534  1.4199 -0.4021  1.0889
  166SAPS   C2618727   4.506   1.181   6.378 -0.0892  0.2338  0.7723
  166SAPS   H6R18728   4.554   1.257   6.315 -0.3849  1.0059  1.4531
  166SAPS   C2718729   4.509   1.045   6.313 -0.1400  0.0838  0.0618
  166SAPS   H7R18730   4.473   0.966   6.383  0.1784  0.6148  0.8275
  166SAPS   H7S18731   4.611   1.027   6.274  1.1786  3.7596  1.4657
  166SAPS   C2818732   4.420   1.022   6.191 -0.0055  0.4436  0.6260
  166SAPS   H8R18733   4.317   0.987   6.209 -0.2133  0.6445 -0.1532
  166SAPS   C2918734   4.445   1.058   6.063  0.2864  0.4374 -0.2455
  166SAPS   H9R18735   4.364   1.038   5.992 -0.4033  0.5299  0.4926
  166SAPS  C21018736   4.574   1.128   6.020 -0.1022  0.2620  0.2709
  166SAPS  H10R18737   4.621   1.196   6.095  0.9178 -1.3219  1.1293
  166SAPS  H10S18738   4.540   1.198   5.941 -0.5035  2.4186  2.2376
  166SAPS  C21118739   4.671   1.030   5.955  0.1014  0.2512 -0.6389
  166SAPS  H11R18740   4.727   0.963   6.022 -0.1293  1.5907  0.9516
  166SAPS  C21218741   4.705   1.027   5.822 -0.2903  0.2369 -0.0231
  166SAPS  H12R18742   4.778   0.951   5.791 -0.8211 -0.8702  1.3467
  166SAPS  C21318743   4.659   1.118   5.702 -0.0917 -0.1773  0.0919
  166SAPS  H13R18744   4.741   1.173   5.651 -0.7296  1.1420  0.4587
  166SAPS  H13S18745   4.596   1.205   5.730 -1.4363 -1.2782  0.5988
  166SAPS  C21418746   4.590   1.034   5.598 -0.1332 -0.1948  0.3322
  166SAPS  H14R18747   4.492   1.001   5.634 -0.5861  1.5349  0.7849
  166SAPS  C21518748   4.618   1.020   5.470 -0.2216 -0.1048 -0.1957
  166SAPS  H15R18749   4.562   0.956   5.400  0.5704  0.2702 -1.2137
  166SAPS  C21618750   4.730   1.086   5.389 -0.7981 -0.4484 -0.7161
  166SAPS  H16R18751   4.808   1.133   5.452  1.3585 -2.1145 -1.9923
  166SAPS  H16S18752   4.700   1.172   5.325 -1.9350 -0.0669  0.2854
  166SAPS  C21718753   4.793   0.984   5.292  0.6935 -0.0034 -0.0454
  166SAPS  H17R18754   4.849   1.036   5.211  0.2163  1.1025  0.3127
  166SAPS  H17S18755   4.707   0.946   5.233  1.1810 -1.9141  0.4377
  166SAPS  C21818756   4.865   0.869   5.356  0.0563  0.6096 -0.2309
  166SAPS  H18R18757   4.891   0.796   5.277  2.2044  1.4221 -0.3318
  166SAPS  H18S18758   4.803   0.812   5.428 -0.9886 -0.4350 -1.8952
  166SAPS  C21918759   4.994   0.914   5.428 -0.8429  0.8850  0.0861
  166SAPS  H19R18760   4.970   0.979   5.516 -0.1015  0.2700  0.7584
  166SAPS  H19S18761   5.049   0.978   5.356 -2.4639  0.3737 -1.6930
  166SAPS  C22018762   5.078   0.798   5.486 -0.4928 -0.2259  0.1335
  166SAPS  H20R18763   5.173   0.834   5.531 -1.4497 -1.6820  3.6129
  166SAPS  H20S18764   5.093   0.716   5.412  0.4904 -0.4936  0.6211
  166SAPS  H20T18765   5.018   0.742   5.560  0.6084  0.1538  1.3384
  166SAPS   C3318766   3.734   1.009   6.506 -0.4263 -0.3528 -0.1178
  166SAPS   H3X18767   3.652   0.977   6.573  0.8334 -0.1073  1.6224
  166SAPS   H3Y18768   3.733   0.936   6.423 -0.9185  0.7911 -1.1435
  166SAPS   C3418769   3.694   1.146   6.443 -0.2299  0.3975 -0.6026
  166SAPS   H4X18770   3.780   1.180   6.382 -0.4868  0.0663 -1.1521
  166SAPS   H4Y18771   3.670   1.222   6.520 -1.9392 -0.1462 -0.5556
  166SAPS   C3518772   3.576   1.144   6.351 -1.1731 -0.0397 -0.1169
  166SAPS   H5X18773   3.486   1.097   6.395 -0.3871 -3.4029 -1.7900
  166SAPS   H5Y18774   3.603   1.094   6.255  0.3522 -0.3745  0.4547
  166SAPS   C3618775   3.526   1.279   6.303 -0.4567 -0.5141 -0.5950
  166SAPS   H6X18776   3.611   1.327   6.249 -1.0829 -0.5176 -1.5845
  166SAPS   H6Y18777   3.501   1.331   6.398  0.4258 -1.2053  0.0450
  166SAPS   C3718778   3.392   1.270   6.217  0.4402  0.0568  0.2350
  166SAPS   H7X18779   3.358   1.375   6.209  1.2567  0.2388 -0.9366
  166SAPS   H7Y18780   3.307   1.218   6.268 -2.4994  1.3856 -2.8981
  166SAPS   C3818781   3.412   1.233   6.069 -0.5114  0.1780 -1.0313
  166SAPS   H8X18782   3.472   1.140   6.068 -0.6248  0.0164  1.2986
  166SAPS   H8Y18783   3.476   1.307   6.016 -1.7240  1.2170 -1.0839
  166SAPS   C3918784   3.282   1.206   5.998  0.4567  0.1861 -0.5990
  166SAPS   H9X18785   3.230   1.304   5.994  0.0417 -0.0734 -2.0799
  166SAPS   H9Y18786   3.216   1.138   6.057  2.0243  0.7163  1.9225
  166SAPS  C31018787   3.314   1.187   5.849  0.4744 -0.2429  0.0651
  166SAPS  H10X18788   3.365   1.282   5.822 -1.1276  0.1422 -1.8840
  166SAPS  H10Y18789   3.227   1.178   5.780  1.5559 -1.5004 -1.1777
  166SAPS  C31118790   3.416   1.073   5.806  0.0339  0.6631 -0.2275
  166SAPS  H11X18791   3.384   0.976   5.849  0.0236  1.5766  1.9828
  166SAPS  H11Y18792   3.512   1.110   5.848  0.4951 -0.8294  0.0644
  166SAPS  C31218793   3.435   1.065   5.656 -0.1861  0.3361  0.2566
  166SAPS  H12X18794   3.534   1.016   5.647 -0.2530  0.3821 -0.8339
  166SAPS  H12Y18795   3.444   1.169   5.619 -1.7130  0.4575  0.1413
  166SAPS  C31318796   3.330   0.990   5.582  0.4338  0.5865  0.4426
  166SAPS  H13X18797   3.229   1.026   5.610  0.7421  0.5507  1.6420
  166SAPS  H13Y18798   3.341   0.889   5.627  1.4955 -1.1946 -3.4141
  166SAPS  C31418799   3.343   0.983   5.427 -0.6599  0.2414 -0.4765
  166SAPS  H14X18800   3.453   0.976   5.413 -0.7276  0.2159 -1.0633
  166SAPS  H14Y18801   3.310   1.082   5.387  1.1411  0.9625 -0.2713
  166SAPS  C31518802   3.252   0.880   5.358 -0.6486  0.6979  0.1269
  166SAPS  H15X18803   3.154   0.888   5.411 -0.5655 -0.3566  0.4609
  166SAPS  H15Y18804   3.299   0.786   5.392 -0.5094  1.9383  3.8062
  166SAPS  C31618805   3.247   0.878   5.208  0.6720  0.1737 -0.3177
  166SAPS  H16X18806   3.191   0.965   5.167  0.1465  0.7436  1.5021
  166SAPS  H16Y18807   3.181   0.791   5.187 -0.8475  0.3693  3.0686
  166SAPS  C31718808   3.384   0.879   5.137  0.5213 -0.1839 -0.0898
  166SAPS  H17X18809   3.450   0.950   5.189 -0.8687  1.1277 -0.0397
  166SAPS  H17Y18810   3.367   0.926   5.038 -1.5063  0.7741  0.6641
  166SAPS  C31818811   3.449   0.738   5.129 -0.0512 -1.0802  0.1977
  166SAPS  H18X18812   3.384   0.662   5.082  0.5146 -0.3411 -1.9025
  166SAPS  H18Y18813   3.490   0.696   5.223 -3.2284  0.2552  2.3264
  166SAPS  H18Z18814   3.538   0.743   5.062  0.2686 -0.1940  0.6736
  167SAPS     N18815   5.900   1.028   7.086  0.0380 -0.2922 -0.4606
  167SAPS   HN118816   5.817   1.069   7.134  1.2833  0.3533  1.2493
  167SAPS   HN218817   5.882   0.926   7.079  0.0926 -0.3568  0.2455
  167SAPS   HN318818   5.976   1.057   7.151 -0.3631 -1.1559  0.4229
  167SAPS   C1218819   5.924   1.101   6.955 -0.0728  0.3734  0.0360
  167SAPS  H12A18820   5.858   1.072   6.876  0.3452 -0.5412  0.0090
  167SAPS   C1318821   5.898   1.256   6.979  0.0920  0.5921 -0.1599
  167SAPS  O13A18822   5.896   1.306   7.091  0.5873  0.9073  0.2642
  167SAPS  O13B18823   5.934   1.336   6.887 -0.2292 -1.0169  0.2962
  167SAPS   C1118824   6.067   1.075   6.913 -1.2318 -0.5343  0.1198
  167SAPS  H11A18825   6.130   1.160   6.946 -0.1873 -0.6009 -1.6041
  167SAPS  H11B18826   6.076   1.075   6.803  1.7646 -2.7665  0.2141
  167SAPS     P18827   6.257   0.921   7.011 -0.2120  0.3977 -0.2762
  167SAPS   O1318828   6.284   1.016   7.127  0.2563  0.8523  0.5122
  167SAPS   O1418829   6.271   0.770   7.041 -1.1229 -0.0125 -0.1355
  167SAPS   O1218830   6.111   0.946   6.952 -0.3088  0.0354  0.0670
  167SAPS   O1118831   6.352   0.961   6.889 -0.3555  0.4052 -0.1716
  167SAPS    C118832   6.342   0.914   6.755  0.1175 -0.0828 -0.5557
  167SAPS    HA18833   6.421   0.842   6.724 -0.8265 -0.5992 -1.8550
  167SAPS    HB18834   6.246   0.869   6.723  0.8686 -2.6838  0.5773
  167SAPS    C218835   6.370   1.040   6.673 -0.3229 -0.4993 -0.3014
  167SAPS    HS18836   6.318   1.120   6.730 -1.5699 -0.0483 -1.9876
  167SAPS   O2118837   6.302   1.022   6.544  0.0930 -1.4102 -0.0170
  167SAPS   C2118838   6.294   1.141   6.484 -0.0507 -0.4005 -0.0064
  167SAPS   O2218839   6.329   1.252   6.526 -0.4498  0.4219 -0.1578
  167SAPS   C2218840   6.204   1.118   6.365 -0.0197  0.2944 -0.2063
  167SAPS   H2R18841   6.193   1.009   6.345 -0.1927  0.5846 -1.8463
  167SAPS   H2S18842   6.097   1.141   6.385 -0.5433 -1.6917 -0.5246
  167SAPS    C318843   6.522   1.058   6.649  0.1084  0.0160 -0.5475
  167SAPS    HX18844   6.562   1.077   6.751 -0.9225  0.6162 -0.2492
  167SAPS    HY18845   6.545   1.148   6.587  0.0229 -0.5501 -1.4151
  167SAPS   O3118846   6.600   0.939   6.607 -0.7680 -0.2543 -0.2594
  167SAPS   C3118847   6.581   0.910   6.478 -0.9164 -0.2106  0.1687
  167SAPS   O3218848   6.525   0.980   6.399  0.6539 -0.0229  0.0475
  167SAPS   C3218849   6.636   0.771   6.448 -0.0821 -0.3967  0.0334
  167SAPS   H2X18850   6.546   0.709   6.429 -0.1119 -0.0668 -0.9900
  167SAPS   H2Y18851   6.694   0.729   6.533  0.5254 -0.6028 -0.4713
  167SAPS   C2318852   6.251   1.178   6.227  0.1004 -0.1552 -0.8475
  167SAPS   H3R18853   6.216   1.100   6.156 -0.7168 -1.1388  0.6014
  167SAPS   H3S18854   6.361   1.192   6.223  0.0577  1.0253  0.9348
  167SAPS   C2418855   6.176   1.300   6.171 -0.3422  0.0237 -0.5628
  167SAPS   H4R18856   6.208   1.296   6.065  2.5943 -0.1821  0.2313
  167SAPS   H4S18857   6.211   1.395   6.219 -0.6355 -0.3747  0.4580
  167SAPS   C2518858   6.025   1.303   6.193 -0.3393 -0.1227  0.0968
  167SAPS   H5R18859   5.984   1.307   6.295  0.9349 -0.8740  0.6585
  167SAPS   C2618860   5.940   1.310   6.091 -0.6500  0.3465  0.3745
  167SAPS   H6R18861   5.833   1.329   6.104 -0.4581  1.5965  0.2443
  167SAPS   C2718862   5.984   1.308   5.949 -0.4454 -0.1494  0.2210
  167SAPS   H7R18863   6.047   1.398   5.933 -0.6677  0.1077  0.7948
  167SAPS   H7S18864   5.896   1.334   5.886 -0.1721  1.5951  0.4959
  167SAPS   C2818865   6.050   1.182   5.887 -0.1680  0.3118  0.2812
  167SAPS   H8R18866   6.052   1.095   5.956 -1.0557 -1.4953 -1.8540
  167SAPS   C2918867   6.132   1.187   5.782 -0.5245  0.0839  0.3844
  167SAPS   H9R18868   6.164   1.092   5.736 -2.0232  0.3879 -1.4165
  167SAPS  C21018869   6.154   1.319   5.702  0.2966 -0.5067  0.0074
  167SAPS  H10R18870   6.215   1.389   5.763 -0.7321  1.1262 -0.7644
  167SAPS  H10S18871   6.070   1.389   5.688  1.1979  0.3064 -1.5994
  167SAPS  C21118872   6.232   1.303   5.573 -0.0557  0.7464 -0.4489
  167SAPS  H11R18873   6.329   1.255   5.592 -1.2905 -0.7331  2.8601
  167SAPS  C21218874   6.198   1.334   5.443 -0.4181  0.2806 -0.4688
  167SAPS  H12R18875   6.269   1.316   5.360  0.1034 -0.3133  0.0899
  167SAPS  C21318876   6.072   1.381   5.390  0.7843 -0.2337  0.8177
  167SAPS  H13R18877   6.075   1.387   5.279  2.2581 -2.5629  0.6858
  167SAPS  H13S18878   6.049   1.489   5.405 -2.2078 -0.0594 -3.1948
  167SAPS  C21418879   5.952   1.299   5.416  0.2949  0.2239  0.1679
  167SAPS  H14R18880   5.976   1.194   5.438  0.2179 -0.4083 -2.3999
  167SAPS  C21518881   5.829   1.346   5.431 -0.6137 -0.3188  0.0991
  167SAPS  H15R18882   5.748   1.274   5.447  1.1471 -2.2744  0.6098
  167SAPS  C21618883   5.783   1.487   5.416  0.9063  0.0391 -0.0843
  167SAPS  H16R18884   5.733   1.500   5.317 -0.5632 -0.5685  0.5482
  167SAPS  H16S18885   5.859   1.567   5.410 -0.4979  1.4038 -0.2700
  167SAPS  C21718886   5.686   1.522   5.535  0.0048 -0.9275 -0.4720
  167SAPS  H17R18887   5.607   1.445   5.549 -0.3238 -0.1054  2.9833
  167SAPS  H17S18888   5.643   1.622   5.513  0.1759 -0.5795  0.7217
  167SAPS  C21818889   5.741   1.528   5.679 -0.2051 -0.0587 -0.2019
  167SAPS  H18R18890   5.831   1.592   5.680  0.4764 -0.9937 -0.5389
  167SAPS  H18S18891   5.779   1.428   5.710 -0.2575 -0.1191 -0.3351
  167SAPS  C21918892   5.634   1.559   5.794 -0.3710 -0.8453  0.1646
  167SAPS  H19R18893   5.529   1.546   5.760 -1.0595  2.6508  0.6552
  167SAPS  H19S18894   5.659   1.663   5.824  1.1882 -0.6199 -1.6661
  167SAPS  C22018895   5.658   1.484   5.926 -0.2780 -0.2149 -0.3975
  167SAPS  H20R18896   5.633   1.376   5.911  1.2640 -1.2349  3.2155
  167SAPS  H20S18897   5.593   1.527   6.005 -0.2737 -0.4349 -0.2736
  167SAPS  H20T18898   5.765   1.493   5.956 -0.2197 -0.2848 -0.5801
  167SAPS   C3318899   6.718   0.771   6.319  0.5824  0.2940 -0.4939
  167SAPS   H3X18900   6.790   0.853   6.335 -0.0806  0.6597  0.7325
  167SAPS   H3Y18901   6.650   0.801   6.236  0.5835 -0.7573 -0.8972
  167SAPS   C3418902   6.764   0.630   6.274  0.2924 -0.2947 -0.8484
  167SAPS   H4X18903   6.681   0.556   6.266  0.4250 -1.1181  3.1673
  167SAPS   H4Y18904   6.825   0.590   6.358  1.3389  1.7435 -0.5920
  167SAPS   C3518905   6.853   0.636   6.153 -0.0665  0.4340  0.8092
  167SAPS   H5X18906   6.892   0.535   6.129  0.6563  0.6630  0.9845
  167SAPS   H5Y18907   6.944   0.678   6.202 -0.0731 -0.3445  1.5171
  167SAPS   C3618908   6.794   0.692   6.022 -0.3830  0.4107  0.0665
  167SAPS   H6X18909   6.760   0.797   6.039  0.8102  1.2108 -2.0878
  167SAPS   H6Y18910   6.695   0.650   5.998 -1.7477  3.3447  0.0414
  167SAPS   C3718911   6.879   0.695   5.892  0.2765  0.3415  0.2163
  167SAPS   H7X18912   6.892   0.593   5.849  0.9376 -0.0348  1.2562
  167SAPS   H7Y18913   6.978   0.730   5.927 -1.1002  1.1066  3.7992
  167SAPS   C3818914   6.826   0.789   5.783 -0.2887 -0.1057  0.1254
  167SAPS   H8X18915   6.859   0.892   5.810  1.2447 -0.4893 -0.2350
  167SAPS   H8Y18916   6.715   0.793   5.773 -0.9014 -2.7236  3.8197
  167SAPS   C3918917   6.890   0.748   5.651 -0.6691 -0.0710  0.0264
  167SAPS   H9X18918   6.874   0.640   5.627 -0.8596  0.6254 -3.4553
  167SAPS   H9Y18919   6.999   0.761   5.670 -0.5138 -0.9914 -0.1644
  167SAPS  C31018920   6.848   0.828   5.528 -1.3893 -0.3790  0.0464
  167SAPS  H10X18921   6.856   0.937   5.546 -0.6739 -0.3032 -0.6629
  167SAPS  H10Y18922   6.740   0.815   5.508 -1.1889  0.9691 -2.1928
  167SAPS  C31118923   6.926   0.781   5.401 -0.1469 -0.1245  0.5053
  167SAPS  H11X18924   6.900   0.676   5.373  0.4714 -0.1948  0.1971
  167SAPS  H11Y18925   7.034   0.773   5.424 -0.0962  0.7684  0.6052
  167SAPS  C31218926   6.899   0.877   5.280 -0.5728  0.0523 -0.3612
  167SAPS  H12X18927   6.922   0.979   5.318  0.3102 -0.8038  1.5244
  167SAPS  H12Y18928   6.790   0.877   5.256 -0.4894  3.2791 -1.1968
  167SAPS  C31318929   6.971   0.841   5.159 -0.3062  0.3098  0.6043
  167SAPS  H13X18930   7.073   0.815   5.195 -0.3130 -0.7850 -0.1379
  167SAPS  H13Y18931   6.979   0.931   5.094  0.7291  1.2353  1.9249
  167SAPS  C31418932   6.912   0.722   5.076 -1.0381  0.2175 -0.6890
  167SAPS  H14X18933   6.870   0.651   5.151  0.0484  0.7917  0.5060
  167SAPS  H14Y18934   6.989   0.677   5.009  0.7048  3.5877 -1.1284
  167SAPS  C31518935   6.787   0.760   5.001 -0.4627 -0.4154 -0.9114
  167SAPS  H15X18936   6.829   0.844   4.941  2.8258 -0.9787  0.3758
  167SAPS  H15Y18937   6.712   0.810   5.066 -1.2363  0.3382 -2.3343
  167SAPS  C31618938   6.726   0.654   4.917 -0.6422 -1.0529  0.1206
  167SAPS  H16X18939   6.675   0.584   4.987  0.0044 -0.1590  1.5408
  167SAPS  H16Y18940   6.820   0.605   4.886 -0.8731  0.1298 -2.7334
  167SAPS  C31718941   6.638   0.703   4.799  0.7621 -0.3002  0.0953
  167SAPS  H17X18942   6.677   0.784   4.734 -0.6773 -0.8964 -1.6165
  167SAPS  H17Y18943   6.548   0.742   4.850  1.5758  2.1944 -0.2476
  167SAPS  C31818944   6.579   0.593   4.708  0.4930 -0.6954  0.1522
  167SAPS  H18X18945   6.498   0.533   4.754  0.4515  0.8520  2.2418
  167SAPS  H18Y18946   6.654   0.517   4.677  1.1417 -0.1194  0.2906
  167SAPS  H18Z18947   6.544   0.628   4.608 -1.3029 -0.4086  0.8497
  168SAPS     N18948   4.040   1.459   7.403 -0.4572 -0.8793  0.2867
  168SAPS   HN118949   4.080   1.365   7.417  1.0251 -0.3012  0.1227
  168SAPS   HN218950   3.940   1.435   7.388 -0.5904  0.0393 -0.4590
  168SAPS   HN318951   4.080   1.493   7.313  0.2236  0.2557  0.9958
  168SAPS   C1218952   4.076   1.534   7.523  0.0047  0.3739 -0.0245
  168SAPS  H12A18953   4.033   1.486   7.610 -0.3057  1.9532  0.7190
  168SAPS   C1318954   4.229   1.523   7.550  0.2478  0.5456  1.2509
  168SAPS  O13A18955   4.299   1.458   7.461 -0.6821 -0.0474  0.1035
  168SAPS  O13B18956   4.281   1.611   7.621  0.3300 -0.0734  0.1977
  168SAPS   C1118957   4.034   1.685   7.517  0.1585  0.1349  0.3672
  168SAPS  H11A18958   4.077   1.738   7.429  0.0642  1.9671  1.3709
  168SAPS  H11B18959   4.053   1.747   7.607 -0.4772 -1.0216  1.3223
  168SAPS     P18960   3.804   1.812   7.518 -0.0005 -0.0029  0.0057
  168SAPS   O1318961   3.665   1.776   7.562  0.2339  0.0019  0.4672
  168SAPS   O1418962   3.880   1.914   7.591  0.3913  0.1132 -0.1325
  168SAPS   O1218963   3.886   1.677   7.503 -0.0946 -0.3008 -0.0634
  168SAPS   O1118964   3.799   1.858   7.364 -0.4449 -0.2130  0.2208
  168SAPS    C118965   3.694   1.950   7.318 -0.3943  0.5442 -0.6210
  168SAPS    HA18966   3.637   1.996   7.402  1.8670  0.1643  1.2395
  168SAPS    HB18967   3.739   2.032   7.258  3.7132 -1.6360 -0.9445
  168SAPS    C218968   3.594   1.885   7.220 -0.2259 -0.1467 -0.1892
  168SAPS    HS18969   3.564   1.791   7.272  2.1106 -0.7084  0.2445
  168SAPS   O2118970   3.659   1.854   7.097  0.4195  0.3947  0.2160
  168SAPS   C2118971   3.582   1.777   7.014 -0.1320 -0.1394  0.2880
  168SAPS   O2218972   3.476   1.723   7.042 -0.3260  0.0749  0.3420
  168SAPS   C2218973   3.641   1.793   6.872 -0.0276 -0.2362  0.6456
  168SAPS   H2R18974   3.671   1.899   6.859  2.2728 -0.9128 -0.0172
  168SAPS   H2S18975   3.734   1.734   6.855 -0.2261  0.2086 -2.6135
  168SAPS    C318976   3.472   1.985   7.198 -0.3955  0.2076 -0.2534
  168SAPS    HX18977   3.406   1.992   7.287 -0.3761 -0.9449 -0.1432
  168SAPS    HY18978   3.403   1.947   7.120 -1.9605  0.9955  0.6939
  168SAPS   O3118979   3.518   2.122   7.171  0.6446 -0.4280 -0.4976
  168SAPS   C3118980   3.525   2.163   7.044  0.0806  0.3238 -0.3519
  168SAPS   O3218981   3.514   2.093   6.948 -0.2591  0.1329  0.3867
  168SAPS   C3218982   3.555   2.315   7.043  0.0181 -0.1279  1.0076
  168SAPS   H2X18983   3.661   2.322   7.076 -0.0308  0.1116  1.1157
  168SAPS   H2Y18984   3.493   2.355   7.126 -1.6809 -0.0120 -0.2646
  168SAPS   C2318985   3.550   1.748   6.754  0.1008  0.9340 -0.3770
  168SAPS   H3R18986   3.461   1.814   6.762  0.3547  1.2425 -0.0822
  168SAPS   H3S18987   3.519   1.647   6.788 -0.4926  1.5008  0.8246
  168SAPS   C2418988   3.602   1.763   6.612  0.3006 -0.0635 -0.2439
  168SAPS   H4R18989   3.645   1.863   6.589 -0.0726  0.2223  0.2760
  168SAPS   H4S18990   3.508   1.751   6.553 -1.8814 -0.2855  3.0248
  168SAPS   C2518991   3.687   1.644   6.574  0.3490 -0.1914  0.6645
  168SAPS   H5R18992   3.752   1.600   6.652 -0.0671 -0.5169  0.8352
  168SAPS   C2618993   3.674   1.584   6.456  0.0543 -0.1112  0.3789
  168SAPS   H6R18994   3.728   1.489   6.443 -0.3410 -0.1908 -0.7997
  168SAPS   C2718995   3.627   1.629   6.323  0.6003 -0.8240 -0.0893
  168SAPS   H7R18996   3.519   1.656   6.331  0.7329 -0.1560 -0.4396
  168SAPS   H7S18997   3.641   1.543   6.254 -1.3328 -0.1080 -1.4702
  168SAPS   C2818998   3.700   1.756   6.276  0.6116  0.1254 -0.3805
  168SAPS   H8R18999   3.679   1.848   6.333  0.0408 -0.3210  0.1500
  168SAPS   C2919000   3.781   1.761   6.166 -0.4563 -0.0464  0.0370
  168SAPS   H9R19001   3.835   1.855   6.149 -0.8944  0.5480  1.8005
  168SAPS  C21019002   3.825   1.643   6.084 -0.3391 -0.1946  0.1621
  168SAPS  H10R19003   3.762   1.639   5.993 -1.6207  0.9796  0.9497
  168SAPS  H10S19004   3.817   1.547   6.139  2.1773  0.4307  1.7926
  168SAPS  C21119005   3.966   1.671   6.036  0.8234  0.0872  0.0700
  168SAPS  H11R19006   4.035   1.697   6.118  1.2621  1.4100 -0.7064
  168SAPS  C21219007   4.005   1.690   5.909  0.2979  0.2043  0.2018
  168SAPS  H12R19008   4.107   1.713   5.874 -0.2432  1.1860 -0.7784
  168SAPS  C21319009   3.925   1.674   5.779  0.0333  0.2510  0.4941
  168SAPS  H13R19010   3.892   1.776   5.752  1.3790  0.7156  0.5542
  168SAPS  H13S19011   3.830   1.617   5.790  0.5663 -0.5930  0.8874
  168SAPS  C21419012   4.001   1.592   5.674  0.0297  0.6288  0.0427
  168SAPS  H14R19013   4.026   1.488   5.702  0.7685  0.0805 -2.4326
  168SAPS  C21519014   4.048   1.627   5.546 -0.0110 -0.0866  0.0324
  168SAPS  H15R19015   4.111   1.553   5.494  2.0176  2.8113 -1.9428
  168SAPS  C21619016   4.038   1.756   5.470 -0.1815 -0.4977 -0.1182
  168SAPS  H16R19017   4.003   1.831   5.544  0.0172 -1.4276  0.9593
  168SAPS  H16S19018   3.962   1.754   5.388 -1.8805 -0.9532  1.3884
  168SAPS  C21719019   4.171   1.808   5.408 -0.7148  0.0974 -0.7604
  168SAPS  H17R19020   4.206   1.714   5.359  2.1546 -0.8103  2.5715
  168SAPS  H17S19021   4.247   1.827   5.487 -1.5706 -0.7965  0.3093
  168SAPS  C21819022   4.155   1.930   5.320  0.2917  0.1906 -0.5759
  168SAPS  H18R19023   4.113   2.009   5.385  0.0169 -1.3882  1.2301
  168SAPS  H18S19024   4.076   1.904   5.246 -3.5733  2.7253  2.3171
  168SAPS  C21919025   4.290   1.970   5.255  0.2126  0.8780 -0.4135
  168SAPS  H19R19026   4.336   1.872   5.229 -0.2997 -0.4780  3.1574
  168SAPS  H19S19027   4.356   2.012   5.334  2.4205 -1.8961 -0.6161
  168SAPS  C22019028   4.267   2.062   5.138  0.3112  0.3194 -0.3186
  168SAPS  H20R19029   4.206   2.007   5.063  0.5277  2.7742 -2.4269
  168SAPS  H20S19030   4.362   2.087   5.087  0.4383 -0.2272 -0.3511
  168SAPS  H20T19031   4.217   2.156   5.170  0.8460  0.6777 -0.5233
  168SAPS   C3319032   3.532   2.392   6.912  0.7044 -0.0703  0.0661
  168SAPS   H3X19033   3.554   2.332   6.821  0.8274  1.2995 -0.8287
  168SAPS   H3Y19034   3.609   2.470   6.894  2.5886 -2.0179 -0.8511
  168SAPS   C3419035   3.388   2.450   6.903 -0.4439  0.0505  0.0159
  168SAPS   H4X19036   3.372   2.510   6.995 -2.3362 -0.5844  0.1657
  168SAPS   H4Y19037   3.313   2.368   6.908 -2.4819  1.5892 -2.4648
  168SAPS   C3519038   3.367   2.528   6.774  0.6388  0.5300 -0.5771
  168SAPS   H5X19039   3.424   2.623   6.774 -1.8441  2.2002  2.4408
  168SAPS   H5Y19040   3.258   2.548   6.782  0.6593  0.1423  0.8547
  168SAPS   C3619041   3.385   2.442   6.646  0.2773  0.2595 -0.0213
  168SAPS   H6X19042   3.320   2.355   6.670  0.9118  0.2337  1.7447
  168SAPS   H6Y19043   3.492   2.420   6.623 -0.3532  0.0163 -3.1732
  168SAPS   C3719044   3.326   2.518   6.527  0.7270 -0.1380 -0.2206
  168SAPS   H7X19045   3.360   2.623   6.513 -0.0988  0.4887  2.0206
  168SAPS   H7Y19046   3.217   2.515   6.547  1.1580 -1.0917  2.4924
  168SAPS   C3819047   3.345   2.454   6.385 -0.1486  0.1557  0.1865
  168SAPS   H8X19048   3.296   2.355   6.386 -1.2347  0.6755 -0.3649
  168SAPS   H8Y19049   3.454   2.445   6.364 -0.2602  1.8022 -1.3960
  168SAPS   C3919050   3.284   2.518   6.259  0.2719  0.1057 -0.1636
  168SAPS   H9X19051   3.309   2.626   6.269 -0.1615  0.1640  0.3326
  168SAPS   H9Y19052   3.174   2.509   6.248  0.4044  0.0804 -1.7985
  168SAPS  C31019053   3.353   2.460   6.139 -0.1733  0.4999 -0.2153
  168SAPS  H10X19054   3.322   2.354   6.119  0.1619 -0.0420  1.9443
  168SAPS  H10Y19055   3.462   2.464   6.158  0.0962 -2.8338 -0.3489
  168SAPS  C31119056   3.344   2.541   6.010  0.3024  0.2207  0.3303
  168SAPS  H11X19057   3.391   2.642   6.015  0.4639  0.2460 -1.3826
  168SAPS  H11Y19058   3.235   2.554   5.993 -0.2593 -0.8972  2.6292
  168SAPS  C31219059   3.396   2.458   5.887  0.3887 -0.4137  0.4419
  168SAPS  H12X19060   3.364   2.353   5.901  1.0345 -0.4878  1.4050
  168SAPS  H12Y19061   3.507   2.460   5.890  0.6031 -2.0739 -2.4225
  168SAPS  C31319062   3.366   2.519   5.754 -0.1738  0.3585 -0.2273
  168SAPS  H13X19063   3.407   2.622   5.746  2.8228 -0.7844 -0.7732
  168SAPS  H13Y19064   3.257   2.533   5.736 -0.2002  1.1015  0.4826
  168SAPS  C31419065   3.420   2.434   5.637 -0.1026  0.3353 -0.1114
  168SAPS  H14X19066   3.383   2.452   5.534  2.1124  0.1832 -0.9843
  168SAPS  H14Y19067   3.398   2.328   5.661  0.1041  0.2612 -0.2481
  168SAPS  C31519068   3.567   2.444   5.623 -0.2179  0.2187 -0.3836
  168SAPS  H15X19069   3.606   2.371   5.549  0.7546 -1.2593  1.4968
  168SAPS  H15Y19070   3.618   2.414   5.717  0.1582 -0.1428 -0.6997
  168SAPS  C31619071   3.630   2.581   5.582 -0.0236  0.0104 -0.2384
  168SAPS  H16X19072   3.740   2.574   5.586 -0.0542  0.0048  1.0040
  168SAPS  H16Y19073   3.610   2.660   5.658  2.6248 -0.7423  1.3506
  168SAPS  C31719074   3.603   2.621   5.438  0.0351 -0.2864  0.7385
  168SAPS  H17X19075   3.495   2.610   5.412 -0.0141 -2.6590  1.6657
  168SAPS  H17Y19076   3.653   2.555   5.364  1.1194  2.3463 -1.0015
  168SAPS  C31819077   3.655   2.761   5.390 -0.1075 -0.4320  0.1002
  168SAPS  H18X19078   3.764   2.775   5.402 -0.2346  0.3307  0.4270
  168SAPS  H18Y19079   3.606   2.838   5.454 -0.3220 -0.6191  0.1616
  168SAPS  H18Z19080   3.628   2.764   5.283  0.6435  1.0714 -0.0644
  169SAPS     N19081   2.455   2.646   7.401  0.1043 -0.3150  0.1644
  169SAPS   HN119082   2.452   2.659   7.504 -2.9407  0.8755  0.0457
  169SAPS   HN219083   2.550   2.617   7.369 -0.7357 -2.3521 -0.6529
  169SAPS   HN319084   2.421   2.735   7.359 -1.7389 -1.5700 -1.1781
  169SAPS   C1219085   2.364   2.536   7.350  0.3445 -0.4256 -0.3838
  169SAPS  H12A19086   2.419   2.447   7.379  2.2902  0.6636 -0.6062
  169SAPS   C1319087   2.224   2.527   7.417 -0.1276  0.3189  0.8382
  169SAPS  O13A19088   2.189   2.591   7.513 -0.3907 -0.4144 -0.3964
  169SAPS  O13B19089   2.144   2.439   7.380  0.3428  0.6726  0.3782
  169SAPS   C1119090   2.360   2.540   7.197 -0.4704  0.1310 -0.4713
  169SAPS  H11A19091   2.330   2.641   7.163 -1.4387 -0.2166 -0.6949
  169SAPS  H11B19092   2.286   2.472   7.149 -1.6239  0.4221  0.8502
  169SAPS     P19093   2.546   2.379   7.092  0.0732 -0.0081  0.0408
  169SAPS   O1319094   2.687   2.364   7.126 -0.0954  0.4246 -0.4753
  169SAPS   O1419095   2.454   2.270   7.139  0.7719 -0.5941  0.1254
  169SAPS   O1219096   2.498   2.525   7.150 -0.4961  0.4145  0.0801
  169SAPS   O1119097   2.530   2.387   6.942  0.4306  0.1945  0.5652
  169SAPS    C119098   2.516   2.497   6.861  0.4891 -0.3504 -0.4338
  169SAPS    HA19099   2.454   2.476   6.770  2.5039 -2.0939 -1.4983
  169SAPS    HB19100   2.465   2.580   6.914  3.0347  0.6123  0.6601
  169SAPS    C219101   2.651   2.542   6.802 -0.7160  0.1625  0.0571
  169SAPS    HS19102   2.642   2.573   6.696  1.3157 -2.0346 -0.8614
  169SAPS   O2119103   2.752   2.434   6.798  0.0856 -0.1435  0.3826
  169SAPS   C2119104   2.711   2.321   6.719 -0.3485 -0.3669  0.7463
  169SAPS   O2219105   2.612   2.318   6.653  0.0323  0.5274  0.0234
  169SAPS   C2219106   2.825   2.226   6.725 -0.2198 -0.2724  0.4584
  169SAPS   H2R19107   2.863   2.213   6.829  0.4103  0.6079  0.3445
  169SAPS   H2S19108   2.797   2.125   6.689  0.1586 -1.0175  2.1272
  169SAPS    C319109   2.697   2.668   6.876  0.1504 -0.0081 -0.4329
  169SAPS    HX19110   2.747   2.640   6.972  0.9751 -1.0849 -1.1574
  169SAPS    HY19111   2.610   2.732   6.905  1.1208  1.6519 -1.0752
  169SAPS   O3119112   2.776   2.745   6.789 -0.3943  0.3247  0.0420
  169SAPS   C3119113   2.906   2.703   6.782  0.7068  0.1087 -0.5344
  169SAPS   O3219114   2.948   2.617   6.855  0.0002 -0.1266  0.0691
  169SAPS   C3219115   2.977   2.772   6.673  0.0666 -0.5092  0.7451
  169SAPS   H2X19116   3.084   2.789   6.696  0.5720  0.4464 -2.0164
  169SAPS   H2Y19117   2.938   2.876   6.667  2.3024  0.4695  1.8919
  169SAPS   C2319118   2.931   2.285   6.620  0.1579  0.2059 -0.1602
  169SAPS   H3R19119   3.022   2.223   6.630  0.1772 -0.2093 -2.3906
  169SAPS   H3S19120   2.957   2.390   6.643 -1.2416  0.5259  0.0768
  169SAPS   C2419121   2.875   2.280   6.474 -0.6348 -0.1304  0.6935
  169SAPS   H4R19122   2.783   2.342   6.467 -1.4178 -1.4088 -0.9008
  169SAPS   H4S19123   2.825   2.182   6.457 -0.9692  0.1664 -0.0727
  169SAPS   C2519124   2.983   2.310   6.369  0.3121 -0.2059 -0.0759
  169SAPS   H5R19125   2.974   2.407   6.317 -0.5231  0.5923  1.4868
  169SAPS   C2619126   3.081   2.230   6.336 -0.5583  0.4914  0.0578
  169SAPS   H6R19127   3.163   2.258   6.268  0.4027  3.5707  2.2466
  169SAPS   C2719128   3.113   2.098   6.402  0.7089  0.4399  0.8911
  169SAPS   H7R19129   3.122   2.034   6.312  1.2312  3.3293 -1.2752
  169SAPS   H7S19130   3.030   2.055   6.461 -1.4870  1.4455 -1.2712
  169SAPS   C2819131   3.230   2.086   6.487 -0.1679  0.5832 -0.9927
  169SAPS   H8R19132   3.226   2.142   6.581  1.8025 -0.3240 -0.3021
  169SAPS   C2919133   3.340   2.011   6.458  0.5913 -0.4716 -0.7759
  169SAPS   H9R19134   3.412   2.000   6.540 -0.1954  0.4730  0.0710
  169SAPS  C21019135   3.368   1.932   6.339  0.8367  0.4557  0.1656
  169SAPS  H10R19136   3.276   1.878   6.309  1.6447 -1.5116  1.0775
  169SAPS  H10S19137   3.439   1.848   6.355  0.3594  0.1996  0.9749
  169SAPS  C21119138   3.422   2.014   6.223  0.1513  0.6895 -0.1999
  169SAPS  H11R19139   3.491   2.096   6.246  0.8109  0.3590 -0.9196
  169SAPS  C21219140   3.408   1.972   6.096 -0.5071  0.0596 -0.3110
  169SAPS  H12R19141   3.463   2.038   6.027 -1.5871  0.3812 -0.8840
  169SAPS  C21319142   3.332   1.858   6.037 -0.3427  0.1616 -0.0277
  169SAPS  H13R19143   3.279   1.881   5.942 -0.0003 -1.2102 -0.5738
  169SAPS  H13S19144   3.262   1.813   6.111  0.2920 -0.6859  0.0693
  169SAPS  C21419145   3.421   1.740   6.007  0.4105 -0.4286 -0.1844
  169SAPS  H14R19146   3.526   1.740   6.041  0.2806 -4.4803  0.7160
  169SAPS  C21519147   3.386   1.629   5.937 -0.0512 -0.2027 -1.1823
  169SAPS  H15R19148   3.456   1.546   5.921 -0.1262 -1.2527  2.8116
  169SAPS  C21619149   3.235   1.607   5.902 -0.2900  0.5488 -0.5400
  169SAPS  H16R19150   3.161   1.655   5.970 -0.4243 -1.7368  1.0292
  169SAPS  H16S19151   3.209   1.499   5.900 -0.7845  0.6614 -1.9883
  169SAPS  C21719152   3.181   1.663   5.759  0.2657  1.2646  0.1210
  169SAPS  H17R19153   3.194   1.772   5.746  0.2052  1.4862  1.6883
  169SAPS  H17S19154   3.075   1.632   5.746  0.8603  0.1104 -2.5212
  169SAPS  C21819155   3.243   1.576   5.634  0.0198 -0.2375 -0.8939
  169SAPS  H18R19156   3.205   1.472   5.645  0.1357 -0.3358 -1.4040
  169SAPS  H18S19157   3.354   1.580   5.644 -0.1614  0.7158  1.2863
  169SAPS  C21919158   3.207   1.636   5.499  0.8198  0.3058 -0.6581
  169SAPS  H19R19159   3.253   1.573   5.419 -0.4916 -0.6362 -0.7042
  169SAPS  H19S19160   3.258   1.734   5.488 -0.0981  0.9073  0.2616
  169SAPS  C22019161   3.059   1.649   5.478 -0.2209  0.0014 -0.7789
  169SAPS  H20R19162   3.034   1.667   5.372 -2.5221  1.8860 -0.0054
  169SAPS  H20S19163   3.031   1.739   5.537  1.3532 -0.4553  0.7597
  169SAPS  H20T19164   3.004   1.556   5.507  1.8197 -0.9304  0.3053
  169SAPS   C3319165   2.958   2.706   6.531  0.3196 -0.6205  0.4368
  169SAPS   H3X19166   2.987   2.599   6.535  0.6939 -0.5599 -0.3449
  169SAPS   H3Y19167   3.036   2.750   6.464  0.4986  1.2237  1.7792
  169SAPS   C3419168   2.817   2.725   6.472  0.3655  0.3866  0.1046
  169SAPS   H4X19169   2.791   2.833   6.465  0.8393  0.4903 -0.1605
  169SAPS   H4Y19170   2.742   2.668   6.530  2.1392 -1.9721  0.2438
  169SAPS   C3519171   2.799   2.665   6.334 -0.3719 -0.3526  0.0652
  169SAPS   H5X19172   2.694   2.676   6.300 -0.2332 -0.9736 -0.6071
  169SAPS   H5Y19173   2.813   2.555   6.347 -1.1815 -1.3059 -4.9803
  169SAPS   C3619174   2.884   2.740   6.224  0.2158 -0.0114  0.2768
  169SAPS   H6X19175   2.989   2.755   6.256  0.1567  0.0112  0.4611
  169SAPS   H6Y19176   2.844   2.841   6.200 -0.5050 -0.2788  0.3236
  169SAPS   C3719177   2.890   2.657   6.094 -0.5992  0.4129  0.5453
  169SAPS   H7X19178   2.909   2.551   6.121 -0.9749 -0.0870 -1.0143
  169SAPS   H7Y19179   2.981   2.687   6.038 -0.2024  1.3894  1.6818
  169SAPS   C3819180   2.766   2.656   6.003  0.2371  0.0932 -0.2785
  169SAPS   H8X19181   2.715   2.753   5.985  0.0958 -0.1839 -1.4171
  169SAPS   H8Y19182   2.705   2.596   6.074  2.1260 -3.2735 -1.2722
  169SAPS   C3919183   2.786   2.582   5.873  0.5211 -0.7990  0.0178
  169SAPS   H9X19184   2.682   2.551   5.852 -0.4387  2.6721 -1.0188
  169SAPS   H9Y19185   2.858   2.498   5.885  2.6949  0.8537 -0.6692
  169SAPS  C31019186   2.833   2.654   5.742 -0.1126  0.6802  0.0816
  169SAPS  H10X19187   2.938   2.689   5.757  0.8095 -1.7330 -0.3462
  169SAPS  H10Y19188   2.758   2.734   5.723 -1.6740 -0.6160  0.6510
  169SAPS  C31119189   2.846   2.559   5.626  0.4001  0.3710  0.5524
  169SAPS  H11X19190   2.743   2.523   5.610  1.8939 -3.5175 -1.7255
  169SAPS  H11Y19191   2.895   2.467   5.664  0.7356  1.6865  3.5863
  169SAPS  C31219192   2.912   2.614   5.492  0.7165 -0.3896 -0.8516
  169SAPS  H12X19193   3.023   2.616   5.500  0.6120  2.5519  1.5284
  169SAPS  H12Y19194   2.874   2.717   5.477 -0.2050 -0.5439  0.2675
  169SAPS  C31319195   2.883   2.532   5.361 -0.4570  0.0108  0.3218
  169SAPS  H13X19196   2.775   2.544   5.339 -0.6565  2.3098  2.1743
  169SAPS  H13Y19197   2.896   2.424   5.384 -0.1054  0.3934  2.0887
  169SAPS  C31419198   2.970   2.583   5.233 -0.5620  0.3388 -0.4134
  169SAPS  H14X19199   3.079   2.570   5.252 -0.7803 -0.8579  0.1491
  169SAPS  H14Y19200   2.958   2.691   5.212  3.4503  0.8416 -1.0360
  169SAPS  C31519201   2.946   2.495   5.107  0.1355 -0.1928 -1.1231
  169SAPS  H15X19202   2.836   2.499   5.096 -0.1052  1.5397  1.2602
  169SAPS  H15Y19203   2.992   2.394   5.115  0.1699 -0.1370 -0.6095
  169SAPS  C31619204   3.008   2.540   4.978  0.0240 -0.2486  0.2804
  169SAPS  H16X19205   3.117   2.555   4.994  0.5975 -3.6711  0.2682
  169SAPS  H16Y19206   2.954   2.632   4.948 -1.0277 -1.0540 -0.3424
  169SAPS  C31719207   2.997   2.441   4.859  0.6949 -0.4233 -0.0802
  169SAPS  H17X19208   2.926   2.488   4.787  0.1630 -3.8035 -1.9497
  169SAPS  H17Y19209   2.935   2.352   4.884 -0.5655  0.9626  2.0388
  169SAPS  C31819210   3.131   2.411   4.793 -0.8256  0.3636  0.7105
  169SAPS  H18X19211   3.107   2.378   4.690  0.0950 -2.7022  1.3956
  169SAPS  H18Y19212   3.180   2.325   4.842 -1.1439  0.4636  1.2129
  169SAPS  H18Z19213   3.200   2.496   4.772 -0.5197 -0.3988 -1.6246
  170SAPS     N19214   1.191   1.769   7.349  0.4067  0.1566  0.3232
  170SAPS   HN119215   1.171   1.744   7.448 -1.2438 -0.5175 -0.1533
  170SAPS   HN219216   1.279   1.720   7.323  0.1715  0.1017 -0.3871
  170SAPS   HN319217   1.204   1.871   7.328  0.9165 -0.1609 -1.0293
  170SAPS   C1219218   1.079   1.721   7.255  0.2425 -0.7705 -0.4004
  170SAPS  H12A19219   1.057   1.620   7.285  0.3091 -0.6872 -0.0660
  170SAPS   C1319220   0.954   1.803   7.275  0.4423 -0.5764  0.2230
  170SAPS  O13A19221   0.945   1.878   7.373 -0.3497  0.0249  0.0022
  170SAPS  O13B19222   0.853   1.746   7.220  0.4031 -0.0143  0.1161
  170SAPS   C1119223   1.113   1.716   7.101 -0.3278  1.0385  0.7540
  170SAPS  H11A19224   1.124   1.824   7.079  0.9134  0.4254 -2.0754
  170SAPS  H11B19225   1.022   1.678   7.050  0.5626 -0.3200  0.1155
  170SAPS     P19226   1.233   1.495   7.021  0.3724 -0.0630  0.1420
  170SAPS   O1319227   1.354   1.424   7.064 -0.2192  0.1100  0.2791
  170SAPS   O1419228   1.101   1.434   7.042 -0.1724 -0.2646  0.0689
  170SAPS   O1219229   1.228   1.640   7.084  0.5521  0.2186 -0.3847
  170SAPS   O1119230   1.258   1.539   6.866 -0.4148 -0.4615 -0.5783
  170SAPS    C119231   1.292   1.671   6.834  0.1032  0.1348  0.1944
  170SAPS    HA19232   1.207   1.735   6.865 -0.6474 -0.1232 -1.2737
  170SAPS    HB19233   1.387   1.704   6.882 -0.6886  0.2926  1.6983
  170SAPS    C219234   1.307   1.693   6.678 -0.6645 -0.3408  0.2888
  170SAPS    HS19235   1.356   1.789   6.655  3.8162 -2.4378  0.0429
  170SAPS   O2119236   1.181   1.677   6.615  0.2164  0.3898 -0.2849
  170SAPS   C2119237   1.100   1.781   6.619 -0.7301 -0.3757 -0.4482
  170SAPS   O2219238   1.126   1.887   6.677 -0.5420  0.2736  0.3354
  170SAPS   C2219239   0.961   1.749   6.552 -0.5811  0.2542 -0.0459
  170SAPS   H2R19240   0.954   1.642   6.526  1.8558  0.2800 -1.1278
  170SAPS   H2S19241   0.881   1.786   6.620 -0.0374 -1.8864  1.8414
  170SAPS    C319242   1.401   1.576   6.629  1.1139 -0.2005 -0.4887
  170SAPS    HX19243   1.359   1.477   6.655  2.2495 -0.1064  1.9482
  170SAPS    HY19244   1.501   1.584   6.677  0.1827  0.6888  1.4009
  170SAPS   O3119245   1.418   1.585   6.486 -0.1229 -0.3417  0.2735
  170SAPS   C3119246   1.332   1.511   6.412  0.5711  0.2543 -0.8295
  170SAPS   O3219247   1.232   1.458   6.460 -0.3911  0.8405  0.0346
  170SAPS   C3219248   1.386   1.503   6.271  0.0698  0.1828 -0.0838
  170SAPS   H2X19249   1.492   1.534   6.263 -0.1524  1.1121  0.4361
  170SAPS   H2Y19250   1.342   1.586   6.212  3.6736  1.0346 -1.8728
  170SAPS   C2319251   0.962   1.842   6.429 -0.2926 -0.2762  0.1239
  170SAPS   H3R19252   0.978   1.948   6.458 -1.6093 -0.0769  0.1646
  170SAPS   H3S19253   0.855   1.844   6.399 -0.7153 -1.1824  1.4923
  170SAPS   C2419254   1.047   1.782   6.306  0.1835 -0.0958 -0.5546
  170SAPS   H4R19255   0.997   1.693   6.263 -1.7685 -0.1010  1.5295
  170SAPS   H4S19256   1.145   1.747   6.346  0.6057 -1.0414 -2.3062
  170SAPS   C2519257   1.083   1.897   6.217  0.3581 -0.7996 -0.0669
  170SAPS   H5R19258   1.148   1.972   6.263 -0.9048  1.0714 -1.1494
  170SAPS   C2619259   1.050   1.919   6.090  0.2906 -0.4208 -0.3032
  170SAPS   H6R19260   1.083   2.013   6.043 -1.7173  1.8801  2.5745
  170SAPS   C2719261   0.953   1.838   6.008 -0.2097  0.1137  0.4399
  170SAPS   H7R19262   0.853   1.878   6.035  0.0063  1.0062 -0.0470
  170SAPS   H7S19263   0.958   1.729   6.028  3.8746 -0.0205 -0.3039
  170SAPS   C2819264   0.979   1.835   5.857 -0.1441 -0.0662 -0.1078
  170SAPS   H8R19265   1.081   1.800   5.835 -0.2624 -0.8289  0.5240
  170SAPS   C2919266   0.883   1.846   5.758 -0.1690  0.0940 -0.2295
  170SAPS   H9R19267   0.922   1.846   5.655  1.6338 -0.1546  0.4052
  170SAPS  C21019268   0.743   1.889   5.778  0.6675  0.4274  0.1836
  170SAPS  H10R19269   0.731   1.994   5.745 -0.8200  0.4669  0.7921
  170SAPS  H10S19270   0.724   1.898   5.887  2.4701 -0.3600  0.6100
  170SAPS  C21119271   0.641   1.809   5.703 -0.0773 -0.1274 -0.6833
  170SAPS  H11R19272   0.683   1.719   5.655 -1.7465 -0.8110 -0.9387
  170SAPS  C21219273   0.511   1.837   5.686  0.4763  0.1364 -0.2280
  170SAPS  H12R19274   0.464   1.774   5.609  1.5192 -2.3200  1.0391
  170SAPS  C21319275   0.434   1.951   5.743 -0.3463  0.0512  0.2514
  170SAPS  H13R19276   0.427   2.032   5.667 -0.0505  0.1117  0.2892
  170SAPS  H13S19277   0.478   2.004   5.830  0.6728 -0.2097 -0.0948
  170SAPS  C21419278   0.286   1.918   5.781 -0.8600 -0.1717 -0.2131
  170SAPS  H14R19279   0.268   1.886   5.885 -0.4464  1.4880  0.3999
  170SAPS  C21519280   0.179   1.936   5.701 -0.4149 -0.5059  0.4018
  170SAPS  H15R19281   0.077   1.911   5.733 -1.1474  0.5100 -1.0162
  170SAPS  C21619282   0.199   1.966   5.552  0.1384 -0.1507 -1.3924
  170SAPS  H16R19283   0.161   1.878   5.495  0.0452 -2.3954  1.8947
  170SAPS  H16S19284   0.304   1.985   5.523  0.0859  2.0642 -0.3177
  170SAPS  C21719285   0.126   2.091   5.508 -0.1863 -0.0223  0.8908
  170SAPS  H17R19286   0.174   2.173   5.566 -0.0938  0.9003 -0.4340
  170SAPS  H17S19287   0.022   2.094   5.546 -0.5252 -1.6307  0.1722
  170SAPS  C21819288   0.137   2.126   5.357 -0.7775 -0.3552  0.0481
  170SAPS  H18R19289   0.095   2.051   5.287  1.0988  0.5157 -2.1257
  170SAPS  H18S19290   0.242   2.135   5.323 -0.6170  2.2788  0.9526
  170SAPS  C21919291   0.071   2.259   5.306  0.1846 -0.6943 -0.3819
  170SAPS  H19R19292  -0.038   2.243   5.296  0.2711 -2.0550  0.5751
  170SAPS  H19S19293   0.116   2.280   5.207 -0.0604  1.1479 -0.1356
  170SAPS  C22019294   0.089   2.381   5.397  0.1117  1.0618 -0.4831
  170SAPS  H20R19295   0.036   2.365   5.493  1.5783  2.3074  0.5959
  170SAPS  H20S19296   0.036   2.470   5.356 -1.3457  1.1630  1.5043
  170SAPS  H20T19297   0.195   2.413   5.410 -1.0168  4.6573  1.2329
  170SAPS   C3319298   1.343   1.373   6.204  0.3550 -0.1086 -0.0431
  170SAPS   H3X19299   1.240   1.338   6.227  0.6406 -0.0791  1.3573
  170SAPS   H3Y19300   1.405   1.292   6.248 -0.4078 -1.3717 -1.2079
  170SAPS   C3419301   1.356   1.358   6.054 -0.9476 -0.6281  0.4635
  170SAPS   H4X19302   1.376   1.251   6.030  1.0104  0.0661 -1.3179
  170SAPS   H4Y19303   1.444   1.422   6.030 -2.5950  0.9667 -1.6647
  170SAPS   C3519304   1.229   1.403   5.981 -0.4718 -0.0608  0.3690
  170SAPS   H5X19305   1.226   1.511   6.005  0.7262  0.4240 -1.4842
  170SAPS   H5Y19306   1.145   1.348   6.029  0.2175 -1.3420  0.1678
  170SAPS   C3619307   1.245   1.395   5.827 -0.0316 -0.7837 -0.4007
  170SAPS   H6X19308   1.274   1.292   5.795  1.7935 -0.3363 -0.2380
  170SAPS   H6Y19309   1.329   1.461   5.799 -1.5259  1.0740 -0.7199
  170SAPS   C3719310   1.127   1.457   5.763 -0.3244 -0.5099  0.6374
  170SAPS   H7X19311   1.100   1.553   5.811 -0.9935  0.2583 -1.2114
  170SAPS   H7Y19312   1.037   1.392   5.771 -1.0146  0.4164  0.4844
  170SAPS   C3819313   1.154   1.492   5.616 -0.4247 -0.1499 -0.2229
  170SAPS   H8X19314   1.151   1.407   5.544 -1.5506  1.0716 -1.6938
  170SAPS   H8Y19315   1.254   1.541   5.608 -1.1323  1.3728 -0.0797
  170SAPS   C3919316   1.059   1.598   5.569 -0.3045  0.1839 -0.2665
  170SAPS   H9X19317   1.083   1.685   5.635 -0.1109 -1.7564  2.3825
  170SAPS   H9Y19318   0.955   1.570   5.592 -0.4939  1.4755  0.5870
  170SAPS  C31019319   1.083   1.638   5.421  0.0956 -0.0812 -0.4390
  170SAPS  H10X19320   1.044   1.555   5.358 -0.8825 -1.0355  1.3590
  170SAPS  H10Y19321   1.191   1.648   5.396  0.1856  1.0420  0.3308
  170SAPS  C31119322   1.016   1.771   5.381 -0.4780  0.4155 -0.2666
  170SAPS  H11X19323   1.078   1.856   5.417 -0.4727 -0.6861  2.5040
  170SAPS  H11Y19324   0.914   1.791   5.420 -0.7222  0.8633 -1.0894
  170SAPS  C31219325   1.016   1.782   5.229  0.1920 -0.7613  0.0006
  170SAPS  H12X19326   0.952   1.704   5.185 -3.6306  1.8202  0.5362
  170SAPS  H12Y19327   1.124   1.768   5.204  0.5521 -0.3374  1.1956
  170SAPS  C31319328   0.964   1.915   5.166  0.3591  0.1822 -0.5820
  170SAPS  H13X19329   1.019   2.003   5.205 -0.7987 -0.2784  2.3661
  170SAPS  H13Y19330   0.856   1.907   5.189  0.5204 -1.9227 -0.3268
  170SAPS  C31419331   0.974   1.917   5.015  0.1003 -0.1536 -0.1952
  170SAPS  H14X19332   0.916   1.999   4.968 -0.5186 -0.7837 -0.5385
  170SAPS  H14Y19333   0.944   1.820   4.971  0.5251  0.3948 -1.7480
  170SAPS  C31519334   1.119   1.949   4.976  0.3959  0.1335 -0.1314
  170SAPS  H15X19335   1.183   1.859   4.964  0.1781 -0.0918  0.3730
  170SAPS  H15Y19336   1.170   2.020   5.044  1.6811  0.4480 -1.3763
  170SAPS  C31619337   1.120   2.017   4.842 -0.7348 -0.5381  0.1194
  170SAPS  H16X19338   1.229   2.033   4.825 -0.2041 -2.6202  1.1175
  170SAPS  H16Y19339   1.065   2.114   4.847 -1.5749 -1.0246  0.5396
  170SAPS  C31719340   1.085   1.922   4.733 -0.5328 -0.0611  0.2914
  170SAPS  H17X19341   0.979   1.890   4.739 -0.2238 -1.6330 -1.6148
  170SAPS  H17Y19342   1.144   1.829   4.747 -0.5718 -0.1230  0.0420
  170SAPS  C31819343   1.101   1.991   4.595 -0.1244 -0.5267 -0.0159
  170SAPS  H18X19344   1.052   2.091   4.592  1.0884  0.1229  0.6505
  170SAPS  H18Y19345   1.063   1.924   4.515  1.4354 -1.9976  0.4260
  170SAPS  H18Z19346   1.210   2.000   4.573  0.0147  2.1383  1.3180
  171SAPS     N19347   4.532   1.591   7.466 -0.0738  0.1173  0.6336
  171SAPS   HN119348   4.596   1.514   7.439  1.3582  1.0301  1.3070
  171SAPS   HN219349   4.565   1.630   7.557  3.6967 -1.1614  0.0051
  171SAPS   HN319350   4.434   1.557   7.479 -0.4792  1.2848  0.7675
  171SAPS   C1219351   4.523   1.709   7.374 -0.7329  0.3206  0.0330
  171SAPS  H12A19352   4.433   1.761   7.400  0.2091  0.9153  2.3247
  171SAPS   C1319353   4.636   1.810   7.385 -0.2642  0.0379  0.1587
  171SAPS  O13A19354   4.737   1.784   7.459 -0.0831 -0.0435  0.2517
  171SAPS  O13B19355   4.625   1.921   7.327 -0.0495  0.5172 -0.2320
  171SAPS   C1119356   4.502   1.659   7.225 -0.0944  0.2432  0.3230
  171SAPS  H11A19357   4.596   1.614   7.187 -0.0768  0.6771 -0.1492
  171SAPS  H11B19358   4.500   1.747   7.157 -0.0335 -0.7396 -0.9752
  171SAPS     P19359   4.248   1.661   7.157 -0.0906  0.1999 -0.1036
  171SAPS   O1319360   4.134   1.565   7.156  0.0386  0.0587 -0.0607
  171SAPS   O1419361   4.233   1.789   7.227  0.2373  0.7143  0.2227
  171SAPS   O1219362   4.382   1.582   7.210 -0.4379  0.3278 -0.0869
  171SAPS   O1119363   4.291   1.709   7.013  0.1432 -0.0166  0.2433
  171SAPS    C119364   4.294   1.605   6.913  0.7801 -0.3719  0.2630
  171SAPS    HA19365   4.349   1.513   6.944  1.1948 -0.6826 -1.2877
  171SAPS    HB19366   4.191   1.574   6.884  0.8857  1.1354 -1.9974
  171SAPS    C219367   4.358   1.654   6.780  0.0716 -0.3230 -0.3356
  171SAPS    HS19368   4.458   1.697   6.804  0.3646 -0.1608 -1.7257
  171SAPS   O2119369   4.265   1.757   6.734 -0.3812 -0.1073 -0.0268
  171SAPS   C2119370   4.311   1.822   6.628 -0.5471 -0.6572  0.2608
  171SAPS   O2219371   4.429   1.822   6.593 -0.5701 -0.6538 -0.3662
  171SAPS   C2219372   4.192   1.895   6.562 -0.3466 -0.0434 -0.1621
  171SAPS   H2R19373   4.145   1.818   6.498 -2.2350  3.4537 -3.3807
  171SAPS   H2S19374   4.129   1.924   6.649  2.1553  1.1684  1.3951
  171SAPS    C319375   4.381   1.530   6.683 -0.6153 -0.8818 -0.3326
  171SAPS    HX19376   4.435   1.459   6.747  0.5879 -0.1490 -0.5034
  171SAPS    HY19377   4.437   1.555   6.590 -1.5387  0.7643 -0.4965
  171SAPS   O3119378   4.259   1.468   6.659  0.6829 -0.3436  1.1212
  171SAPS   C3119379   4.198   1.502   6.545 -0.0027  0.2771  0.1427
  171SAPS   O3219380   4.233   1.596   6.473  0.4426 -0.3586  0.0859
  171SAPS   C3219381   4.080   1.404   6.515  0.2968  0.6911 -0.0108
  171SAPS   H2X19382   3.990   1.440   6.569 -0.9641 -1.8814 -0.2454
  171SAPS   H2Y19383   4.102   1.306   6.563  0.7482 -0.9221 -3.2322
  171SAPS   C2319384   4.217   2.026   6.488  0.2416 -0.2914 -0.9066
  171SAPS   H3R19385   4.275   2.102   6.544 -1.2845  2.2116 -2.5715
  171SAPS   H3S19386   4.112   2.062   6.483  0.5622  1.0501  1.1275
  171SAPS   C2419387   4.264   2.003   6.343 -0.1094  0.0228  0.0183
  171SAPS   H4R19388   4.354   1.939   6.336 -0.6927 -1.1698  2.3867
  171SAPS   H4S19389   4.295   2.100   6.299 -1.5149  0.3265 -0.3498
  171SAPS   C2519390   4.171   1.937   6.243 -0.2937  0.1250  0.5908
  171SAPS   H5R19391   4.089   1.871   6.276 -1.7147  0.5806 -1.8227
  171SAPS   C2619392   4.178   1.956   6.112  0.6815 -0.4697 -0.5602
  171SAPS   H6R19393   4.102   1.913   6.045  0.7393 -2.1818  0.4266
  171SAPS   C2719394   4.290   2.038   6.042  0.4553 -0.5353 -0.0828
  171SAPS   H7R19395   4.374   2.064   6.109  0.6462  0.1286 -0.5639
  171SAPS   H7S19396   4.253   2.142   6.024  0.4090  0.4081  4.3255
  171SAPS   C2819397   4.342   1.971   5.917  0.2855 -0.6598 -0.7147
  171SAPS   H8R19398   4.383   1.869   5.934 -0.4962 -0.9700 -0.6639
  171SAPS   C2919399   4.330   2.008   5.791  0.3253 -0.4538 -0.4375
  171SAPS   H9R19400   4.379   1.947   5.714  1.3664  2.1425 -1.9632
  171SAPS  C21019401   4.292   2.157   5.762 -0.0916  0.4811  0.1728
  171SAPS  H10R19402   4.369   2.192   5.690 -1.3381 -0.5892 -1.7873
  171SAPS  H10S19403   4.309   2.231   5.842  1.0197  1.2986 -0.7881
  171SAPS  C21119404   4.149   2.173   5.704  0.1874  0.3995  0.4752
  171SAPS  H11R19405   4.077   2.094   5.729 -0.0495  0.0438 -1.1577
  171SAPS  C21219406   4.104   2.278   5.621 -0.2390  0.4855  0.2748
  171SAPS  H12R19407   4.003   2.275   5.578 -0.5832 -1.4730  1.1366
  171SAPS  C21319408   4.193   2.387   5.564  0.4544  0.9404 -0.0261
  171SAPS  H13R19409   4.286   2.400   5.624 -0.7636  1.3111  1.8832
  171SAPS  H13S19410   4.133   2.479   5.580  0.3578  1.1507 -1.4865
  171SAPS  C21419411   4.220   2.362   5.418  0.0641  0.7733  0.5335
  171SAPS  H14R19412   4.310   2.301   5.398 -1.1631 -0.8780 -0.1267
  171SAPS  C21519413   4.135   2.386   5.314 -0.5952  0.7117  0.4882
  171SAPS  H15R19414   4.171   2.379   5.211 -0.4108 -1.1555  0.6423
  171SAPS  C21619415   3.999   2.450   5.328 -0.2639  0.2071 -0.7952
  171SAPS  H16R19416   3.996   2.523   5.245  0.5431  0.1028 -0.9208
  171SAPS  H16S19417   3.991   2.506   5.424 -1.3849 -1.0631 -0.1031
  171SAPS  C21719418   3.875   2.351   5.318  0.2006  0.5803  0.3859
  171SAPS  H17R19419   3.785   2.416   5.312  1.8776  2.9319 -2.2074
  171SAPS  H17S19420   3.874   2.286   5.408  2.4501 -0.2476 -0.1285
  171SAPS  C21819421   3.862   2.257   5.198 -0.0046 -0.1085  0.1618
  171SAPS  H18R19422   3.958   2.203   5.181 -0.1600 -0.7227  1.1051
  171SAPS  H18S19423   3.846   2.316   5.106 -1.4767 -1.6052 -0.5942
  171SAPS  C21919424   3.752   2.154   5.220  0.5127 -0.3879  0.2548
  171SAPS  H19R19425   3.698   2.132   5.125 -0.7553 -1.2843  1.1564
  171SAPS  H19S19426   3.680   2.191   5.295  0.7471 -1.8277  1.2251
  171SAPS  C22019427   3.815   2.022   5.282 -1.1711 -0.2282 -0.0448
  171SAPS  H20R19428   3.744   1.967   5.347 -0.3826 -1.9369 -0.5642
  171SAPS  H20S19429   3.892   2.065   5.350  0.8316 -0.4083 -2.0637
  171SAPS  H20T19430   3.868   1.953   5.212  0.2175  1.9327 -1.2232
  171SAPS   C3319431   4.040   1.395   6.363 -0.3564  0.8513 -0.3483
  171SAPS   H3X19432   4.019   1.489   6.306  0.2860 -1.2346 -4.3692
  171SAPS   H3Y19433   3.944   1.339   6.366 -1.1579  1.9792 -2.8291
  171SAPS   C3419434   4.141   1.304   6.290  0.0631  0.1975  0.3414
  171SAPS   H4X19435   4.159   1.204   6.335  2.4665  0.1615 -0.5333
  171SAPS   H4Y19436   4.240   1.354   6.299  0.0502  0.0210  1.5754
  171SAPS   C3519437   4.117   1.271   6.137 -0.4478  0.2422  0.2499
  171SAPS   H5X19438   4.198   1.204   6.102 -0.2915  0.5997 -0.0808
  171SAPS   H5Y19439   4.145   1.363   6.080  0.1481  0.2245  0.5024
  171SAPS   C3619440   3.973   1.229   6.097 -0.2579  0.4081 -0.8419
  171SAPS   H6X19441   3.900   1.263   6.174 -1.1096 -1.1561 -0.9342
  171SAPS   H6Y19442   3.972   1.118   6.092  0.0811  0.3797 -0.3816
  171SAPS   C3719443   3.932   1.282   5.965  0.2605 -0.0258 -0.0436
  171SAPS   H7X19444   4.005   1.235   5.897  2.3309 -1.5317  2.9902
  171SAPS   H7Y19445   3.939   1.392   5.955 -2.4326  0.2412  0.0700
  171SAPS   C3819446   3.793   1.237   5.927  0.0517 -0.0760  1.0226
  171SAPS   H8X19447   3.721   1.259   6.008 -2.1030  0.4546 -0.9228
  171SAPS   H8Y19448   3.813   1.129   5.915  0.2513  0.1607 -1.3492
  171SAPS   C3919449   3.754   1.289   5.785 -0.6910 -0.6608  0.8574
  171SAPS   H9X19450   3.782   1.395   5.804  0.2908 -0.7909  0.2268
  171SAPS   H9Y19451   3.644   1.291   5.771 -0.5065  0.3342 -0.7575
  171SAPS  C31019452   3.825   1.225   5.663 -0.0651 -0.4580 -0.8228
  171SAPS  H10X19453   3.787   1.122   5.646 -2.0022  0.1717 -0.4415
  171SAPS  H10Y19454   3.935   1.219   5.677 -0.3205  1.2777  3.0676
  171SAPS  C31119455   3.800   1.297   5.535  0.0580 -0.2212 -0.3870
  171SAPS  H11X19456   3.826   1.404   5.535  2.0738 -0.5358 -3.9505
  171SAPS  H11Y19457   3.691   1.297   5.513  0.3053  2.2780 -2.0054
  171SAPS  C31219458   3.881   1.229   5.414  0.1423 -0.1059 -0.2098
  171SAPS  H12X19459   3.850   1.123   5.415 -1.4035  0.2046 -3.2615
  171SAPS  H12Y19460   3.991   1.241   5.430 -0.0307  1.9239 -0.2501
  171SAPS  C31319461   3.845   1.274   5.272 -1.0703 -0.5427 -0.0053
  171SAPS  H13X19462   3.877   1.378   5.249  2.6030 -1.2163  1.4106
  171SAPS  H13Y19463   3.739   1.268   5.238 -1.0778 -1.1514  0.1087
  171SAPS  C31419464   3.929   1.193   5.165  0.7750 -0.4925 -0.4515
  171SAPS  H14X19465   3.908   1.086   5.183 -0.8554 -0.0590  0.4095
  171SAPS  H14Y19466   4.034   1.212   5.196  1.3762 -0.0885 -2.5454
  171SAPS  C31519467   3.886   1.242   5.024 -0.0867 -0.5858 -0.4029
  171SAPS  H15X19468   3.941   1.336   4.999  0.0401 -1.2368 -2.8147
  171SAPS  H15Y19469   3.777   1.261   5.014  0.2244  0.4116 -2.4910
  171SAPS  C31619470   3.924   1.147   4.914 -0.3389 -0.8232  0.0310
  171SAPS  H16X19471   4.002   1.079   4.956 -2.0797 -2.8238  0.2157
  171SAPS  H16Y19472   3.970   1.188   4.822 -0.7715 -1.0202 -0.2786
  171SAPS  C31719473   3.820   1.044   4.868  0.3710 -0.1883  0.5695
  171SAPS  H17X19474   3.872   0.985   4.790  0.3129 -1.4987  1.4947
  171SAPS  H17Y19475   3.737   1.097   4.816  1.4772  2.1860  1.0762
  171SAPS  C31819476   3.779   0.954   4.984 -0.0330  0.6960 -0.4480
  171SAPS  H18X19477   3.868   0.919   5.040 -0.6161 -0.4712 -0.2283
  171SAPS  H18Y19478   3.733   0.860   4.947  0.3157 -0.3269  1.5749
  171SAPS  H18Z19479   3.720   1.001   5.066  0.5888 -1.3864  1.2832
  172SAPS     N19480   2.739   1.753   7.491 -0.5935 -0.4160  0.5815
  172SAPS   HN119481   2.675   1.835   7.491  0.0887  0.2025 -1.7326
  172SAPS   HN219482   2.829   1.799   7.510 -0.9975  1.5474 -1.7005
  172SAPS   HN319483   2.763   1.721   7.395  4.1734 -0.6758  1.6139
  172SAPS   C1219484   2.710   1.639   7.579  0.5962 -0.2169  0.5306
  172SAPS  H12A19485   2.752   1.543   7.553  1.8996  0.5739 -0.4286
  172SAPS   C1319486   2.739   1.664   7.721  0.6906 -0.6525  0.4920
  172SAPS  O13A19487   2.780   1.775   7.763  0.2370 -0.4141  0.1319
  172SAPS  O13B19488   2.702   1.571   7.803 -0.2878 -0.0458 -0.2635
  172SAPS   C1119489   2.560   1.609   7.560 -0.1949 -0.8754 -1.0006
  172SAPS  H11A19490   2.507   1.696   7.605 -0.5397 -1.1554 -0.8614
  172SAPS  H11B19491   2.532   1.521   7.622 -1.5187 -1.4452 -2.3540
  172SAPS     P19492   2.501   1.445   7.368 -0.0014 -0.3768 -0.0804
  172SAPS   O1319493   2.374   1.390   7.422 -0.3086  0.1105  0.3607
  172SAPS   O1419494   2.510   1.458   7.223  0.1124  0.0612 -0.2216
  172SAPS   O1219495   2.531   1.588   7.426 -0.0346  0.1055 -0.1792
  172SAPS   O1119496   2.625   1.368   7.418 -0.3661  0.4699 -0.1691
  172SAPS    C119497   2.751   1.382   7.345  0.2731 -0.3694  0.1088
  172SAPS    HA19498   2.754   1.476   7.287  0.9037 -0.3243  0.2096
  172SAPS    HB19499   2.832   1.372   7.420 -0.7630 -0.5684  1.2518
  172SAPS    C219500   2.773   1.255   7.258 -0.5789 -0.4499  0.2131
  172SAPS    HS19501   2.686   1.251   7.189  0.0566 -1.1824 -0.5756
  172SAPS   O2119502   2.790   1.140   7.340 -0.2095 -0.0108 -0.1616
  172SAPS   C2119503   2.689   1.047   7.318  0.0574 -0.0074 -0.5744
  172SAPS   O2219504   2.609   1.050   7.230  0.5162  0.1411 -0.0218
  172SAPS   C2219505   2.691   0.937   7.429 -0.0487  0.0277 -0.2802
  172SAPS   H2R19506   2.793   0.936   7.472 -0.3533  0.4295  0.4783
  172SAPS   H2S19507   2.622   0.970   7.510 -0.6801 -0.1240 -0.7517
  172SAPS    C319508   2.900   1.269   7.174 -0.1853 -0.1935 -0.2289
  172SAPS    HX19509   2.990   1.268   7.239 -1.3986  0.6476  1.5361
  172SAPS    HY19510   2.900   1.366   7.118  0.0798 -0.6318 -0.9981
  172SAPS   O3119511   2.915   1.164   7.079 -0.1148 -0.3039 -0.7716
  172SAPS   C3119512   2.827   1.178   6.981  0.3471  0.7843  0.7491
  172SAPS   O3219513   2.753   1.273   6.970  0.0351 -0.1155  0.5882
  172SAPS   C3219514   2.811   1.049   6.895  0.2925  0.3263 -0.5630
  172SAPS   H2X19515   2.765   0.979   6.968 -1.1870  3.7410  2.0674
  172SAPS   H2Y19516   2.912   1.010   6.871  0.8106  1.5166 -0.3827
  172SAPS   C2319517   2.659   0.800   7.381  0.0110  0.1454  0.3123
  172SAPS   H3R19518   2.553   0.791   7.350 -0.4363 -2.0824  2.2195
  172SAPS   H3S19519   2.666   0.735   7.471 -1.7865 -0.9833 -0.3050
  172SAPS   C2419520   2.747   0.738   7.277  0.4275 -0.5168 -0.2661
  172SAPS   H4R19521   2.733   0.784   7.177  1.1986  0.8956  0.2605
  172SAPS   H4S19522   2.701   0.637   7.267 -0.3698 -0.3098  1.0153
  172SAPS   C2519523   2.890   0.732   7.319 -0.7437 -0.0858 -0.0751
  172SAPS   H5R19524   2.912   0.700   7.422  4.0914 -0.6776 -1.0727
  172SAPS   C2619525   3.001   0.762   7.251 -0.5115 -0.0532  0.4991
  172SAPS   H6R19526   3.098   0.737   7.295 -1.3575 -1.3845  1.7143
  172SAPS   C2719527   3.006   0.808   7.106 -0.0223  0.4528 -0.1571
  172SAPS   H7R19528   3.058   0.905   7.114 -0.2879  0.5918 -0.0782
  172SAPS   H7S19529   2.903   0.830   7.069  0.3111 -1.1418 -2.2040
  172SAPS   C2819530   3.075   0.714   7.014 -0.8343 -0.1095 -0.1250
  172SAPS   H8R19531   3.042   0.609   7.018 -0.5596 -0.2802 -1.7629
  172SAPS   C2919532   3.177   0.748   6.933 -0.5839  0.1575  0.5719
  172SAPS   H9R19533   3.197   0.670   6.859 -0.4537  0.3727  0.3789
  172SAPS  C21019534   3.248   0.880   6.913 -0.0314  0.6349  0.2400
  172SAPS  H10R19535   3.357   0.868   6.892  0.1543  0.3231  1.2931
  172SAPS  H10S19536   3.259   0.939   7.006  0.9252  2.2565 -0.8592
  172SAPS  C21119537   3.199   0.964   6.802 -1.2118  0.3881 -0.0014
  172SAPS  H11R19538   3.136   1.040   6.852 -0.1683  0.4603  1.2432
  172SAPS  C21219539   3.214   0.954   6.668 -0.0605  0.7618  0.2669
  172SAPS  H12R19540   3.181   1.036   6.601  0.7019 -1.4873 -3.1298
  172SAPS  C21319541   3.298   0.857   6.594  0.4560 -0.0946  0.4685
  172SAPS  H13R19542   3.364   0.796   6.659  1.9813 -0.2859 -1.2021
  172SAPS  H13S19543   3.369   0.919   6.535  2.3575 -1.5607  1.1152
  172SAPS  C21419544   3.202   0.775   6.510 -0.6647  0.2015  0.5766
  172SAPS  H14R19545   3.143   0.710   6.576  0.8608 -0.5739  1.2086
  172SAPS  C21519546   3.173   0.782   6.378 -0.0508  0.2346 -0.7414
  172SAPS  H15R19547   3.087   0.722   6.345 -0.3506  0.2679 -0.0432
  172SAPS  C21619548   3.248   0.864   6.276 -0.4560  0.6152  0.2895
  172SAPS  H16R19549   3.348   0.896   6.312 -1.4564  0.7380  3.2330
  172SAPS  H16S19550   3.205   0.965   6.265 -0.5984  0.5453  0.2012
  172SAPS  C21719551   3.261   0.793   6.137 -0.2142 -0.3660 -0.4032
  172SAPS  H17R19552   3.285   0.685   6.132  0.2621 -0.2040 -2.3012
  172SAPS  H17S19553   3.341   0.841   6.077  0.3486  1.1603  1.4533
  172SAPS  C21819554   3.132   0.816   6.041  0.7136  0.4796  0.7221
  172SAPS  H18R19555   3.107   0.925   6.039 -1.1011  0.1085 -0.7011
  172SAPS  H18S19556   3.047   0.769   6.096  0.0102  0.3436 -0.4408
  172SAPS  C21919557   3.161   0.762   5.899  0.0378  0.4724 -0.1857
  172SAPS  H19R19558   3.154   0.651   5.902 -0.2079  0.4416 -1.3804
  172SAPS  H19S19559   3.268   0.786   5.879  0.2793 -0.8402 -0.6319
  172SAPS  C22019560   3.048   0.810   5.795 -0.3568 -0.1919  0.2600
  172SAPS  H20R19561   3.088   0.809   5.692  3.2206  0.2253  1.5176
  172SAPS  H20S19562   3.028   0.916   5.824  0.0822  0.3201 -1.2165
  172SAPS  H20T19563   2.953   0.753   5.810 -0.8384  0.4724 -0.1925
  172SAPS   C3319564   2.716   1.057   6.768 -0.2889 -0.4791  0.0808
  172SAPS   H3X19565   2.671   1.157   6.748  2.5443  0.5718 -1.6642
  172SAPS   H3Y19566   2.630   0.988   6.783 -0.8855 -0.2268 -1.8166
  172SAPS   C3419567   2.792   1.019   6.642  0.2338  0.1685  0.7039
  172SAPS   H4X19568   2.715   0.967   6.581  0.8443 -0.5186  0.4929
  172SAPS   H4Y19569   2.863   0.935   6.659 -0.9876 -1.2927 -0.9460
  172SAPS   C3519570   2.851   1.134   6.570  0.1768  0.1915 -0.5290
  172SAPS   H5X19571   2.913   1.203   6.630  0.5798 -0.2552 -0.4277
  172SAPS   H5Y19572   2.765   1.187   6.523 -0.2081 -1.8452 -2.2958
  172SAPS   C3619573   2.937   1.095   6.446  0.1371 -0.2224 -0.2918
  172SAPS   H6X19574   3.030   1.039   6.470 -0.3823 -1.7495 -1.6723
  172SAPS   H6Y19575   2.966   1.188   6.392 -2.0018  1.1858  0.8486
  172SAPS   C3719576   2.863   1.012   6.338 -0.1988 -0.0865  0.1397
  172SAPS   H7X19577   2.813   0.923   6.381  0.9170 -2.1862 -2.6192
  172SAPS   H7Y19578   2.945   0.962   6.282  1.2653  2.8761 -0.5703
  172SAPS   C3819579   2.779   1.093   6.236  0.2627 -0.2698 -0.4967
  172SAPS   H8X19580   2.817   1.196   6.216 -1.1142  0.3528 -0.0352
  172SAPS   H8Y19581   2.674   1.110   6.270  0.3694 -1.2963  0.3977
  172SAPS   C3919582   2.764   1.021   6.103 -0.1202  0.2048  0.5768
  172SAPS   H9X19583   2.713   0.923   6.117 -1.1914  0.6349 -0.2007
  172SAPS   H9Y19584   2.865   0.997   6.064 -1.3239 -0.0495 -2.6985
  172SAPS  C31019585   2.689   1.109   6.008  0.0755 -0.4525  0.4203
  172SAPS  H10X19586   2.737   1.209   6.012  1.1246 -0.8560 -1.2946
  172SAPS  H10Y19587   2.582   1.112   6.039 -0.2191  0.3166 -0.6100
  172SAPS  C31119588   2.697   1.068   5.862 -0.2530  0.3285  0.3286
  172SAPS  H11X19589   2.806   1.059   5.842  0.0889  0.2858  2.0878
  172SAPS  H11Y19590   2.670   1.151   5.794  1.5254  0.2824 -0.4845
  172SAPS  C31219591   2.621   0.942   5.823  0.7639 -0.0760 -0.0274
  172SAPS  H12X19592   2.514   0.959   5.847  1.3758  3.1582  1.0002
  172SAPS  H12Y19593   2.664   0.862   5.886  1.8706  0.4198 -0.1125
  172SAPS  C31319594   2.642   0.911   5.678 -0.3422 -0.1370 -0.7928
  172SAPS  H13X19595   2.634   0.801   5.664  1.9806 -0.2445 -1.6729
  172SAPS  H13Y19596   2.743   0.943   5.645  0.6790 -0.3139  1.9354
  172SAPS  C31419597   2.540   0.977   5.581 -1.1334 -0.1376 -0.2785
  172SAPS  H14X19598   2.555   1.086   5.595 -0.6478 -0.2600  0.2208
  172SAPS  H14Y19599   2.437   0.948   5.609 -0.2861 -0.8682  2.4474
  172SAPS  C31519600   2.549   0.946   5.425  0.2412  0.0204  0.2099
  172SAPS  H15X19601   2.540   0.836   5.424 -1.1988 -0.0127  3.3381
  172SAPS  H15Y19602   2.650   0.977   5.390  0.0582  0.0106 -0.3273
  172SAPS  C31619603   2.427   1.004   5.349 -0.1839  0.0584 -0.0434
  172SAPS  H16X19604   2.337   1.006   5.414  0.4698 -0.0968  0.8940
  172SAPS  H16Y19605   2.452   1.112   5.338 -0.0009 -0.1225 -1.6216
  172SAPS  C31719606   2.395   0.937   5.214  0.5251 -0.9976  0.2604
  172SAPS  H17X19607   2.357   0.834   5.234 -0.5950 -0.3562  1.6550
  172SAPS  H17Y19608   2.490   0.940   5.157  1.1365  0.4330  1.3031
  172SAPS  C31819609   2.281   1.004   5.130  0.1472  0.0099  0.3052
  172SAPS  H18X19610   2.198   1.021   5.201 -1.2599 -3.5092 -0.3465
  172SAPS  H18Y19611   2.243   0.932   5.055  1.0022  1.1263 -1.2643
  172SAPS  H18Z19612   2.327   1.094   5.082 -1.4435  0.4392 -0.4726
  173SAPS     N19613   1.880   0.490   2.446  0.2612  0.6766 -0.2365
  173SAPS   HN119614   1.958   0.543   2.490 -0.3321 -0.5842  2.5745
  173SAPS   HN219615   1.925   0.405   2.406  3.6813  1.5538  1.3969
  173SAPS   HN319616   1.834   0.545   2.371  1.4361 -1.3891 -2.6219
  173SAPS   C1219617   1.762   0.475   2.538  0.0490 -0.1649 -0.2960
  173SAPS  H12A19618   1.802   0.432   2.629 -1.0851  0.7168  0.6390
  173SAPS   C1319619   1.720   0.623   2.572 -0.4902  0.5438 -0.3576
  173SAPS  O13A19620   1.805   0.716   2.543 -0.1024  0.3235 -0.5861
  173SAPS  O13B19621   1.622   0.640   2.640 -0.4987  0.4559  0.3172
  173SAPS   C1119622   1.654   0.397   2.459 -0.3444  0.5987 -0.0551
  173SAPS  H11A19623   1.634   0.445   2.361  1.5302  1.2191 -0.1777
  173SAPS  H11B19624   1.551   0.408   2.499 -0.7640  1.6871 -1.3638
  173SAPS     P19625   1.652   0.134   2.508  0.2846 -0.1753  0.5189
  173SAPS   O1319626   1.507   0.126   2.490  0.3098 -0.2591  0.3478
  173SAPS   O1419627   1.729   0.018   2.455 -0.3282  0.2783  0.6565
  173SAPS   O1219628   1.705   0.262   2.434  0.1607 -0.2867  0.0962
  173SAPS   O1119629   1.682   0.153   2.651 -0.2742  0.5300 -0.7807
  173SAPS    C119630   1.821   0.141   2.702 -0.2018  0.1350 -0.0426
  173SAPS    HA19631   1.889   0.135   2.615 -1.5090  0.5580 -1.1471
  173SAPS    HB19632   1.846   0.226   2.769  1.0024 -2.0574  2.4757
  173SAPS    C219633   1.832   0.011   2.794  0.4876 -0.4298  0.2403
  173SAPS    HS19634   1.779  -0.067   2.735  1.5260  0.6060 -2.2047
  173SAPS   O2119635   1.757   0.019   2.913 -0.1604  0.3716 -0.0784
  173SAPS   C2119636   1.761  -0.068   3.003 -0.7136  0.0300  0.1167
  173SAPS   O2219637   1.806  -0.183   2.996  0.5706  0.0762 -0.3121
  173SAPS   C2219638   1.709  -0.007   3.130  0.3639  0.1216  0.2229
  173SAPS   H2R19639   1.714   0.103   3.113  0.0497 -0.0808 -1.2840
  173SAPS   H2S19640   1.605  -0.041   3.151  0.2431  1.4692  2.0760
  173SAPS    C319641   1.983  -0.018   2.810  0.6600 -0.5720  0.1923
  173SAPS    HX19642   2.018   0.003   2.706 -1.2460 -0.6952 -0.5258
  173SAPS    HY19643   1.985  -0.126   2.835 -1.6115 -0.9131 -0.8222
  173SAPS   O3119644   2.039   0.070   2.909  0.1597  0.0601  0.8849
  173SAPS   C3119645   2.169   0.049   2.907  0.1667 -0.3700 -0.0918
  173SAPS   O3219646   2.237  -0.015   2.826 -0.4205  0.0935  0.5744
  173SAPS   C3219647   2.227   0.118   3.031  0.6022 -0.3852 -0.1612
  173SAPS   H2X19648   2.221   0.226   3.005  3.3305 -0.5309 -1.8538
  173SAPS   H2Y19649   2.336   0.096   3.028  0.7268  0.0484  0.9299
  173SAPS   C2319650   1.795  -0.067   3.251 -0.1211 -0.4747  0.2176
  173SAPS   H3R19651   1.902  -0.068   3.222 -0.4098  0.5960 -0.9674
  173SAPS   H3S19652   1.764  -0.167   3.290  1.4909 -0.1498  2.5418
  173SAPS   C2419653   1.787   0.019   3.379  0.3735 -0.0350 -0.2792
  173SAPS   H4R19654   1.822   0.122   3.359  0.2714 -0.0465 -0.5131
  173SAPS   H4S19655   1.867  -0.020   3.447 -1.1764  0.1949  1.7756
  173SAPS   C2519656   1.655   0.016   3.444  1.1154  0.9565 -0.5352
  173SAPS   H5R19657   1.570  -0.023   3.385  2.0224 -1.7305 -0.2328
  173SAPS   C2619658   1.632   0.053   3.568 -0.4761  0.0733  0.1967
  173SAPS   H6R19659   1.529   0.047   3.607 -1.4777  0.6063 -2.1980
  173SAPS   C2719660   1.733   0.095   3.669  0.0349  0.5350  0.7577
  173SAPS   H7R19661   1.696   0.194   3.706 -1.2180  1.0004 -1.5417
  173SAPS   H7S19662   1.824   0.112   3.608 -2.2115  1.2952 -2.6556
  173SAPS   C2819663   1.756   0.005   3.791  0.3849 -0.2222  0.5861
  173SAPS   H8R19664   1.754  -0.105   3.795 -0.4315 -0.2823 -0.7657
  173SAPS   C2919665   1.766   0.055   3.919  0.0543  0.2684  0.1779
  173SAPS   H9R19666   1.792  -0.011   4.003  4.4290  1.2998 -0.1349
  173SAPS  C21019667   1.787   0.199   3.946  0.3131 -0.5013 -0.6771
  173SAPS  H10R19668   1.687   0.245   3.931  0.3194  0.3469  1.4677
  173SAPS  H10S19669   1.848   0.244   3.865 -2.1904  1.8040 -1.4185
  173SAPS  C21119670   1.865   0.220   4.079 -0.3720 -0.0846  0.7015
  173SAPS  H11R19671   1.959   0.276   4.072 -0.6322  0.1591 -3.4328
  173SAPS  C21219672   1.820   0.196   4.205  0.1379 -0.5042  0.3403
  173SAPS  H12R19673   1.884   0.235   4.286  2.7287 -1.8951 -0.9295
  173SAPS  C21319674   1.688   0.149   4.251  0.2434 -0.1771 -0.3045
  173SAPS  H13R19675   1.694   0.076   4.335 -1.7144 -0.5481 -0.4327
  173SAPS  H13S19676   1.654   0.080   4.171  1.8086 -0.6231 -0.6201
  173SAPS  C21419677   1.592   0.266   4.261 -0.5037 -0.6141  0.1892
  173SAPS  H14R19678   1.517   0.269   4.180 -3.2801 -2.1403  2.5243
  173SAPS  C21519679   1.594   0.370   4.356 -0.4368  0.7673 -0.6477
  173SAPS  H15R19680   1.525   0.456   4.355 -1.5348 -0.0900 -0.7967
  173SAPS  C21619681   1.685   0.366   4.477  0.5770 -0.0944  0.3740
  173SAPS  H16R19682   1.765   0.438   4.450  0.4553 -0.9330 -2.5871
  173SAPS  H16S19683   1.738   0.271   4.500 -1.2814 -1.0540  0.8813
  173SAPS  C21719684   1.615   0.413   4.600  0.6607  0.3031 -0.5323
  173SAPS  H17R19685   1.528   0.345   4.617  2.1638 -1.2668  1.4820
  173SAPS  H17S19686   1.561   0.508   4.581  1.3033  1.5109  2.8798
  173SAPS  C21819687   1.711   0.449   4.717  0.0065  0.6742  0.0684
  173SAPS  H18R19688   1.653   0.500   4.797 -0.9503  1.4002 -1.0603
  173SAPS  H18S19689   1.791   0.523   4.694  1.0270 -0.0679  1.0991
  173SAPS  C21919690   1.778   0.333   4.794 -0.7588  0.0007  0.7135
  173SAPS  H19R19691   1.860   0.300   4.727 -0.3997 -1.1851  1.6880
  173SAPS  H19S19692   1.712   0.245   4.810 -1.2177  0.0710 -0.6790
  173SAPS  C22019693   1.841   0.379   4.925  0.4824  0.1887 -0.2611
  173SAPS  H20R19694   1.904   0.299   4.971  0.1874 -1.1122 -2.0030
  173SAPS  H20S19695   1.756   0.405   4.992  0.8788  1.5177 -0.2566
  173SAPS  H20T19696   1.906   0.469   4.922  1.3623 -0.4691 -2.4403
  173SAPS   C3319697   2.174   0.084   3.171  0.0200 -0.4250 -0.0162
  173SAPS   H3X19698   2.167  -0.026   3.175  0.0469 -0.4474 -0.4859
  173SAPS   H3Y19699   2.067   0.112   3.183 -0.4356 -1.9224 -0.4530
  173SAPS   C3419700   2.258   0.150   3.287 -0.2034  1.0243 -0.1176
  173SAPS   H4X19701   2.250   0.260   3.279 -0.9136  0.9818 -0.1141
  173SAPS   H4Y19702   2.364   0.123   3.266 -0.0842  1.1837  0.2800
  173SAPS   C3519703   2.235   0.098   3.424  0.1175 -0.6933 -0.2589
  173SAPS   H5X19704   2.234  -0.013   3.425  0.3754 -0.7095 -1.2034
  173SAPS   H5Y19705   2.130   0.129   3.445  0.2648  0.1839 -0.7720
  173SAPS   C3619706   2.325   0.161   3.524 -0.1263 -0.0310  0.3582
  173SAPS   H6X19707   2.337   0.269   3.503  2.1733 -0.3512 -0.2503
  173SAPS   H6Y19708   2.426   0.114   3.516 -0.2500 -0.4248  0.9837
  173SAPS   C3719709   2.270   0.167   3.672  0.0575 -0.7194 -0.0207
  173SAPS   H7X19710   2.177   0.227   3.664  1.3882  1.3420 -0.5921
  173SAPS   H7Y19711   2.352   0.224   3.720  0.5876  0.2472 -1.9496
  173SAPS   C3819712   2.236   0.029   3.731 -0.1183  0.4739 -0.2496
  173SAPS   H8X19713   2.316  -0.048   3.718  0.4936  0.9736  0.4344
  173SAPS   H8Y19714   2.142  -0.003   3.682 -1.5716  2.0528  1.3929
  173SAPS   C3919715   2.215   0.025   3.886 -0.1867 -0.4848 -0.1719
  173SAPS   H9X19716   2.194  -0.075   3.929  0.6764  0.3098  2.2636
  173SAPS   H9Y19717   2.122   0.082   3.906 -0.6124 -1.5338  0.9253
  173SAPS  C31019718   2.330   0.080   3.961 -0.0902 -0.2646 -0.4587
  173SAPS  H10X19719   2.310   0.071   4.070  0.5374 -0.5942 -0.3637
  173SAPS  H10Y19720   2.344   0.189   3.945 -0.2993 -0.3105 -0.9579
  173SAPS  C31119721   2.473   0.019   3.951  0.6283  0.1151  0.3900
  173SAPS  H11X19722   2.515   0.054   3.855 -1.0143 -0.5609 -0.6138
  173SAPS  H11Y19723   2.468  -0.092   3.947  2.1110  0.0451 -0.0646
  173SAPS  C31219724   2.553   0.057   4.079  0.0308 -0.9962 -0.3442
  173SAPS  H12X19725   2.648  -0.001   4.078  0.3309 -0.5005 -0.9300
  173SAPS  H12Y19726   2.505   0.032   4.176  2.7236 -0.1030  1.3517
  173SAPS  C31319727   2.586   0.207   4.090  1.3734  0.5478  0.1138
  173SAPS  H13X19728   2.491   0.263   4.102 -0.8590 -2.8339 -0.2686
  173SAPS  H13Y19729   2.624   0.236   3.990 -0.1335  0.2530 -0.5807
  173SAPS  C31419730   2.686   0.255   4.199 -0.4187 -0.8177 -0.0617
  173SAPS  H14X19731   2.700   0.364   4.182 -1.3786 -1.1081 -3.2226
  173SAPS  H14Y19732   2.781   0.200   4.184  0.2623  0.2055  0.3638
  173SAPS  C31519733   2.631   0.243   4.339  0.0027  0.4615 -0.3481
  173SAPS  H15X19734   2.609   0.138   4.368  1.0078  0.5898  0.9645
  173SAPS  H15Y19735   2.535   0.298   4.341  0.3617  1.0856  0.5334
  173SAPS  C31619736   2.724   0.305   4.448  0.3323  0.3135  0.3673
  173SAPS  H16X19737   2.749   0.412   4.432  0.1557  0.3447  0.2914
  173SAPS  H16Y19738   2.817   0.245   4.434  2.3564  3.3789 -0.2071
  173SAPS  C31719739   2.660   0.290   4.583  0.3053  0.6031 -0.4867
  173SAPS  H17X19740   2.563   0.344   4.593 -0.0854 -0.4763  2.5847
  173SAPS  H17Y19741   2.714   0.346   4.663 -0.6523  0.6493  0.1390
  173SAPS  C31819742   2.630   0.146   4.624 -0.5494  0.1266  0.8880
  173SAPS  H18X19743   2.566   0.150   4.715 -0.1434 -1.9809  1.3257
  173SAPS  H18Y19744   2.723   0.089   4.647 -1.6106 -1.6764  0.9423
  173SAPS  H18Z19745   2.575   0.085   4.549  3.2534 -0.3663 -1.7757
  174SAPS     N19746   4.124   6.366   2.392 -0.5096 -0.3279  1.0010
  174SAPS   HN119747   4.174   6.324   2.311 -0.1603 -0.2197  1.1572
  174SAPS   HN219748   4.154   6.309   2.474 -0.2682 -0.4746  0.8125
  174SAPS   HN319749   4.023   6.343   2.382 -0.1616 -1.4966 -0.1128
  174SAPS   C1219750   4.157   6.516   2.408  0.1353 -0.6077 -0.0612
  174SAPS  H12A19751   4.264   6.530   2.406 -0.0442  0.8664 -0.1030
  174SAPS   C1319752   4.100   6.608   2.300  0.6909 -0.1936 -0.2198
  174SAPS  O13A19753   4.023   6.570   2.206 -0.4685 -0.1066 -0.1836
  174SAPS  O13B19754   4.128   6.729   2.316 -0.2800 -0.5942 -0.2954
  174SAPS   C1119755   4.118   6.557   2.552  0.4413 -0.0910 -0.2295
  174SAPS  H11A19756   4.009   6.542   2.564  0.0348  0.4384 -2.6117
  174SAPS  H11B19757   4.143   6.664   2.571  1.0762 -0.6357  2.3579
  174SAPS     P19758   4.141   6.381   2.750  0.0703 -0.2094  0.4261
  174SAPS   O1319759   4.096   6.259   2.671 -0.6872 -0.2026  0.3951
  174SAPS   O1419760   4.250   6.367   2.854 -0.1552 -0.4288 -0.2311
  174SAPS   O1219761   4.195   6.485   2.644  0.3807  0.5009  0.0921
  174SAPS   O1119762   4.023   6.463   2.810 -0.2755 -0.6486  0.1694
  174SAPS    C119763   4.043   6.600   2.856  0.9783  0.2397 -0.0614
  174SAPS    HA19764   4.148   6.632   2.873  0.7128  1.4241 -0.5483
  174SAPS    HB19765   3.985   6.662   2.784 -0.6084 -0.1019  0.8843
  174SAPS    C219766   3.969   6.610   2.995  0.3093 -0.9156 -0.1457
  174SAPS    HS19767   3.973   6.716   3.027 -2.3282  0.1036 -2.7351
  174SAPS   O2119768   4.031   6.526   3.094  0.2313 -0.3451 -0.1660
  174SAPS   C2119769   4.145   6.563   3.148 -0.4994 -0.9627  0.3967
  174SAPS   O2219770   4.197   6.671   3.122 -0.1077  0.0921 -0.2761
  174SAPS   C2219771   4.174   6.472   3.271 -0.2138  0.2914 -0.0955
  174SAPS   H2R19772   4.084   6.409   3.289  0.1285 -0.8925 -2.2636
  174SAPS   H2S19773   4.267   6.416   3.250  0.6692  0.5946  2.5521
  174SAPS    C319774   3.817   6.577   2.980 -0.1161 -0.1317 -0.3014
  174SAPS    HX19775   3.812   6.476   2.933  1.5884  0.4769 -1.8894
  174SAPS    HY19776   3.782   6.654   2.908 -0.6879  0.5894  0.7181
  174SAPS   O3119777   3.742   6.586   3.108  0.4665 -0.0665 -0.0356
  174SAPS   C3119778   3.650   6.499   3.128  0.4580 -0.1010  0.5279
  174SAPS   O3219779   3.609   6.427   3.036  0.4386 -0.7661 -0.0316
  174SAPS   C3219780   3.601   6.518   3.272 -0.0117  0.0697 -0.3135
  174SAPS   H2X19781   3.537   6.609   3.265 -0.4575 -0.3707 -2.8180
  174SAPS   H2Y19782   3.687   6.545   3.337  0.3961  0.0936 -0.8637
  174SAPS   C2319783   4.193   6.567   3.390 -0.0957 -0.1786  0.0135
  174SAPS   H3R19784   4.095   6.614   3.411 -0.4529 -0.9551  0.1003
  174SAPS   H3S19785   4.266   6.649   3.378 -1.9271  1.1483 -3.4467
  174SAPS   C2419786   4.234   6.493   3.522 -0.1597  0.1201  0.4241
  174SAPS   H4R19787   4.157   6.413   3.528 -1.3559  1.2882  1.0560
  174SAPS   H4S19788   4.222   6.571   3.600  0.4986  0.6391  0.0191
  174SAPS   C2519789   4.370   6.426   3.528 -0.1205  0.3647 -0.5796
  174SAPS   H5R19790   4.381   6.358   3.442  0.0537  1.5661 -1.5302
  174SAPS   C2619791   4.469   6.432   3.622 -0.2659  0.5788  0.1415
  174SAPS   H6R19792   4.546   6.354   3.618 -1.3317 -0.4947 -0.4057
  174SAPS   C2719793   4.462   6.520   3.740  0.4249 -0.0526  0.0615
  174SAPS   H7R19794   4.406   6.609   3.702  1.7547  0.2658 -1.2302
  174SAPS   H7S19795   4.566   6.557   3.750  0.6404 -0.8031  0.6415
  174SAPS   C2819796   4.386   6.475   3.861 -0.3163  1.0504  0.1006
  174SAPS   H8R19797   4.289   6.431   3.832  0.4412 -0.1762 -0.6584
  174SAPS   C2919798   4.423   6.468   3.988 -1.0940  0.0178  0.0274
  174SAPS   H9R19799   4.346   6.428   4.056 -0.9898  0.2163  0.2671
  174SAPS  C21019800   4.557   6.511   4.046  0.9403 -0.3711 -0.6111
  174SAPS  H10R19801   4.624   6.540   3.963  0.8470 -2.6377 -1.5655
  174SAPS  H10S19802   4.598   6.422   4.098  0.0581  0.1290  1.0147
  174SAPS  C21119803   4.538   6.618   4.146 -0.2057 -0.2787 -0.2403
  174SAPS  H11R19804   4.504   6.712   4.100  1.5463 -0.4768 -2.1069
  174SAPS  C21219805   4.566   6.609   4.281  0.1653  0.8940 -0.1469
  174SAPS  H12R19806   4.549   6.696   4.345  0.0177  0.0700  0.9793
  174SAPS  C21319807   4.613   6.484   4.345 -0.6643 -0.1118  0.3210
  174SAPS  H13R19808   4.715   6.460   4.308  0.1755  3.7196 -0.3005
  174SAPS  H13S19809   4.541   6.409   4.306 -1.3901  1.1453 -0.8208
  174SAPS  C21419810   4.612   6.486   4.490  0.2628 -0.6910 -1.1460
  174SAPS  H14R19811   4.704   6.532   4.530 -0.9296  1.0466 -0.2395
  174SAPS  C21519812   4.507   6.464   4.577  0.1130 -0.0413  0.0967
  174SAPS  H15R19813   4.526   6.458   4.685 -1.4767  0.3944  0.4396
  174SAPS  C21619814   4.363   6.440   4.536  0.5798 -0.3382 -0.0513
  174SAPS  H16R19815   4.343   6.341   4.489 -0.3183 -0.3699  0.3900
  174SAPS  H16S19816   4.344   6.505   4.447  0.8201 -1.1138 -0.6854
  174SAPS  C21719817   4.256   6.455   4.648 -0.6865 -0.1896  0.5295
  174SAPS  H17R19818   4.171   6.516   4.611  3.3225  4.4228 -2.2757
  174SAPS  H17S19819   4.289   6.521   4.731 -0.6717 -1.0539  1.2339
  174SAPS  C21819820   4.221   6.316   4.713 -0.8031 -0.5671  0.3974
  174SAPS  H18R19821   4.315   6.276   4.755 -0.5737 -2.1406 -1.5013
  174SAPS  H18S19822   4.197   6.234   4.642 -1.3279 -0.3938  0.3677
  174SAPS  C21919823   4.108   6.326   4.819  0.4856 -0.1295 -0.6881
  174SAPS  H19R19824   4.088   6.228   4.868 -0.8782 -1.2992 -3.3565
  174SAPS  H19S19825   4.012   6.347   4.766  0.3623  1.7250  0.1770
  174SAPS  C22019826   4.128   6.439   4.924  0.2588 -0.1069 -0.2105
  174SAPS  H20R19827   4.224   6.419   4.977 -1.0328 -0.8246  1.9882
  174SAPS  H20S19828   4.058   6.434   5.010  1.6490 -4.2522  0.9184
  174SAPS  H20T19829   4.134   6.541   4.882 -0.3220  0.0028 -0.0380
  174SAPS   C3319830   3.502   6.417   3.333  0.2981 -0.3089  0.8397
  174SAPS   H3X19831   3.548   6.317   3.348 -1.1352 -1.1067  0.1340
  174SAPS   H3Y19832   3.412   6.409   3.268  0.7011  0.6751  0.1487
  174SAPS   C3419833   3.440   6.469   3.462 -0.5828 -0.2831 -0.4726
  174SAPS   H4X19834   3.371   6.554   3.444 -0.3992 -0.2493 -1.0674
  174SAPS   H4Y19835   3.528   6.512   3.514  0.1924 -0.1176 -1.8789
  174SAPS   C3519836   3.362   6.370   3.549 -0.3988 -0.2022  0.7899
  174SAPS   H5X19837   3.424   6.278   3.551 -0.1405 -0.1301 -1.3693
  174SAPS   H5Y19838   3.272   6.342   3.491  1.7100  0.6286 -3.2824
  174SAPS   C3619839   3.337   6.426   3.694 -0.0700  0.1561  0.4079
  174SAPS   H6X19840   3.249   6.493   3.690  0.6348  1.0740 -0.5833
  174SAPS   H6Y19841   3.421   6.487   3.734  0.4561 -1.1417  1.3313
  174SAPS   C3719842   3.315   6.310   3.790  0.0868  0.0488  0.3904
  174SAPS   H7X19843   3.397   6.243   3.825 -0.1353 -0.3201  0.2031
  174SAPS   H7Y19844   3.238   6.239   3.753 -0.3209 -0.3001  1.8375
  174SAPS   C3819845   3.277   6.360   3.929 -0.3189 -0.4358  0.1440
  174SAPS   H8X19846   3.215   6.450   3.907  0.5279 -0.1836 -1.2945
  174SAPS   H8Y19847   3.362   6.391   3.994 -0.3972  0.5703 -0.2078
  174SAPS   C3919848   3.185   6.265   4.009 -0.6982 -0.3418  0.0468
  174SAPS   H9X19849   3.243   6.178   4.045  0.3012  0.2965  0.0026
  174SAPS   H9Y19850   3.103   6.230   3.943  0.8236 -2.1641 -0.9690
  174SAPS  C31019851   3.115   6.340   4.125  0.0619 -0.3321  0.6672
  174SAPS  H10X19852   3.057   6.418   4.073 -0.7974 -2.5639 -1.9312
  174SAPS  H10Y19853   3.186   6.397   4.189 -0.7700  0.4188  0.9449
  174SAPS  C31119854   3.008   6.259   4.194 -0.5310 -1.3579  0.4310
  174SAPS  H11X19855   2.958   6.185   4.128  0.0144 -1.5777  0.2553
  174SAPS  H11Y19856   2.935   6.335   4.228 -1.4287 -1.0699 -2.0055
  174SAPS  C31219857   3.050   6.175   4.319  0.8559 -0.2784  0.5221
  174SAPS  H12X19858   3.128   6.101   4.290  2.2124  0.6000  1.7393
  174SAPS  H12Y19859   2.958   6.121   4.349  0.7897  0.6628  2.1573
  174SAPS  C31319860   3.101   6.262   4.430 -0.1590 -0.6451  0.4289
  174SAPS  H13X19861   3.033   6.349   4.444 -0.5642 -0.9890  0.6107
  174SAPS  H13Y19862   3.191   6.311   4.386 -0.4874  0.2214  0.6981
  174SAPS  C31419863   3.128   6.177   4.547  0.8415 -0.1037 -0.7577
  174SAPS  H14X19864   3.180   6.230   4.629 -3.0026 -1.6637  3.0756
  174SAPS  H14Y19865   3.201   6.099   4.519  2.8581  1.8850 -1.3056
  174SAPS  C31519866   3.012   6.104   4.625  0.2517  0.1187  0.2601
  174SAPS  H15X19867   2.959   6.041   4.551  0.3635  1.0679 -0.6450
  174SAPS  H15Y19868   2.938   6.180   4.659  0.8263  1.6500 -1.7233
  174SAPS  C31619869   3.065   6.021   4.747  0.4861  0.2987  0.1710
  174SAPS  H16X19870   2.980   5.975   4.801  1.4524 -1.9940 -0.1562
  174SAPS  H16Y19871   3.120   6.089   4.815  3.0651 -1.4763  0.0151
  174SAPS  C31719872   3.152   5.904   4.719  0.2219  0.1338  0.3465
  174SAPS  H17X19873   3.258   5.932   4.704  0.7210 -2.0731 -0.6449
  174SAPS  H17Y19874   3.115   5.848   4.630 -1.0294  0.1917  0.8096
  174SAPS  C31819875   3.145   5.803   4.834 -0.5728 -0.6522 -0.6903
  174SAPS  H18X19876   3.193   5.846   4.925 -0.2475  1.3496 -1.7402
  174SAPS  H18Y19877   3.210   5.715   4.815  0.7674 -0.4999  2.4828
  174SAPS  H18Z19878   3.040   5.777   4.858 -0.0526 -0.9755  1.4382
  175SAPS     N19879   5.560   3.713   2.715  0.4264 -0.0084  0.0518
  175SAPS   HN119880   5.550   3.689   2.614  1.1591 -2.4366  0.5000
  175SAPS   HN219881   5.474   3.763   2.745 -0.1831 -1.4999  0.8830
  175SAPS   HN319882   5.647   3.764   2.743  1.5861 -3.3220  3.0906
  175SAPS   C1219883   5.561   3.576   2.781 -0.0207  0.4939 -0.1201
  175SAPS  H12A19884   5.542   3.594   2.886 -2.6124 -1.8243 -0.0685
  175SAPS   C1319885   5.460   3.469   2.734  0.2515  0.0611 -0.1754
  175SAPS  O13A19886   5.377   3.488   2.644 -0.5728 -0.3552  0.4056
  175SAPS  O13B19887   5.466   3.363   2.800 -0.4555  0.5545 -0.3021
  175SAPS   C1119888   5.704   3.513   2.766 -0.4575  0.3707  0.4698
  175SAPS  H11A19889   5.721   3.492   2.658  0.1806 -0.0614  0.6471
  175SAPS  H11B19890   5.700   3.412   2.812 -0.9893 -0.2657 -0.9446
  175SAPS     P19891   5.934   3.542   2.882 -0.0695  0.0661 -0.2455
  175SAPS   O1319892   5.958   3.402   2.839  0.0167  0.2803 -0.1317
  175SAPS   O1419893   6.044   3.633   2.846 -0.4539 -0.4226  0.6765
  175SAPS   O1219894   5.802   3.597   2.821  0.2354 -0.0955  0.0626
  175SAPS   O1119895   5.912   3.554   3.039  0.1049 -0.0612 -0.0193
  175SAPS    C119896   5.791   3.590   3.108  0.2231  0.3548  0.7709
  175SAPS    HA19897   5.809   3.676   3.176 -1.7859  0.6150  1.0377
  175SAPS    HB19898   5.703   3.609   3.043 -0.3871  1.2728  1.8314
  175SAPS    C219899   5.735   3.476   3.197 -0.4449 -1.0205 -0.0744
  175SAPS    HS19900   5.646   3.511   3.255 -1.5652 -2.2141 -1.0167
  175SAPS   O2119901   5.834   3.423   3.293 -0.1210 -0.1634 -0.3680
  175SAPS   C2119902   5.836   3.499   3.406 -0.1668  0.5056  1.2075
  175SAPS   O2219903   5.775   3.602   3.420 -0.1552 -0.1809  0.0044
  175SAPS   C2219904   5.914   3.428   3.507 -1.0649 -0.2501 -0.2731
  175SAPS   H2R19905   5.937   3.326   3.470 -0.1276 -0.3133  0.4695
  175SAPS   H2S19906   6.007   3.485   3.524 -0.8596 -0.9677  1.1524
  175SAPS    C319907   5.669   3.367   3.111 -0.2750 -0.3018  0.1726
  175SAPS    HX19908   5.736   3.342   3.026 -0.2543  0.5525 -0.0694
  175SAPS    HY19909   5.580   3.404   3.057 -0.9780 -1.6419  0.3707
  175SAPS   O3119910   5.630   3.255   3.194  0.1867  0.0818 -0.2756
  175SAPS   C3119911   5.699   3.138   3.170 -0.1286 -0.8465 -0.2580
  175SAPS   O3219912   5.763   3.128   3.069  0.6811 -0.4098 -0.5114
  175SAPS   C3219913   5.672   3.030   3.270 -0.7528  0.4560 -0.1112
  175SAPS   H2X19914   5.664   2.931   3.219 -1.8858  0.0136  0.8950
  175SAPS   H2Y19915   5.575   3.046   3.320 -0.4981  0.2022  0.4794
  175SAPS   C2319916   5.831   3.398   3.632  0.1408 -0.6550 -0.0444
  175SAPS   H3R19917   5.728   3.368   3.605 -1.4686  3.1439  1.2598
  175SAPS   H3S19918   5.830   3.490   3.694  0.8124 -1.0190  0.5278
  175SAPS   C2419919   5.885   3.293   3.725  0.4046  0.4473 -0.5818
  175SAPS   H4R19920   5.905   3.199   3.670 -1.2784 -0.3169  0.0259
  175SAPS   H4S19921   5.806   3.263   3.797 -0.1665 -0.2693 -1.4855
  175SAPS   C2519922   6.001   3.338   3.810 -0.0116 -0.4739  0.8608
  175SAPS   H5R19923   5.976   3.436   3.853 -1.1397 -0.2421 -0.2556
  175SAPS   C2619924   6.124   3.285   3.815 -0.2454  0.3927  0.4519
  175SAPS   H6R19925   6.191   3.328   3.891 -0.5864  1.2809  0.2565
  175SAPS   C2719926   6.184   3.170   3.732  0.5339  0.1335  0.6703
  175SAPS   H7R19927   6.290   3.160   3.765  0.0522  1.5824  2.8900
  175SAPS   H7S19928   6.196   3.200   3.625  0.9299 -1.7574  0.1443
  175SAPS   C2819929   6.114   3.033   3.730  0.2361  0.3019 -0.3736
  175SAPS   H8R19930   6.108   2.996   3.627 -0.8419 -1.7583  0.3798
  175SAPS   C2919931   6.070   2.955   3.827  0.1468  0.2281 -0.2733
  175SAPS   H9R19932   6.027   2.855   3.807  2.4989 -0.8243 -0.4981
  175SAPS  C21019933   6.083   2.990   3.970 -0.1859 -0.8921 -0.1022
  175SAPS  H10R19934   6.004   3.050   4.020 -0.6485 -1.0381 -0.6475
  175SAPS  H10S19935   6.168   3.059   3.988 -0.8593  0.0869 -0.5816
  175SAPS  C21119936   6.100   2.853   4.044 -0.2176 -0.1927  0.2754
  175SAPS  H11R19937   6.028   2.772   4.025  0.1381 -0.7959  1.3959
  175SAPS  C21219938   6.208   2.818   4.119  0.3003  0.3793 -0.5344
  175SAPS  H12R19939   6.214   2.723   4.176 -1.5909  1.2876  1.3185
  175SAPS  C21319940   6.297   2.915   4.181 -0.1132  0.0897 -0.3929
  175SAPS  H13R19941   6.239   2.984   4.246 -1.3255  0.8132 -2.1427
  175SAPS  H13S19942   6.326   2.989   4.103  1.1646 -0.3962 -0.4037
  175SAPS  C21419943   6.427   2.871   4.236  0.2305 -0.1403  0.2126
  175SAPS  H14R19944   6.493   2.807   4.175 -0.4259  0.1159 -0.8001
  175SAPS  C21519945   6.481   2.922   4.352  0.5447  0.0496  0.4889
  175SAPS  H15R19946   6.583   2.895   4.382  0.0604 -2.0766  0.3978
  175SAPS  C21619947   6.406   3.018   4.443  0.1754 -0.2922  0.0837
  175SAPS  H16R19948   6.328   2.974   4.509 -0.7226 -0.4095 -1.0041
  175SAPS  H16S19949   6.349   3.090   4.381  0.4262  0.1582  0.3703
  175SAPS  C21719950   6.506   3.090   4.528 -0.5060 -0.3077  0.0087
  175SAPS  H17R19951   6.590   3.125   4.464 -1.0238  0.7690 -0.1019
  175SAPS  H17S19952   6.527   3.025   4.616 -2.4670 -0.3729  0.4706
  175SAPS  C21819953   6.443   3.221   4.583 -0.6988  1.0431 -0.3898
  175SAPS  H18R19954   6.356   3.184   4.642 -0.6074 -0.2207 -1.0190
  175SAPS  H18S19955   6.421   3.282   4.492  2.6546 -0.8669 -2.6658
  175SAPS  C21919956   6.538   3.295   4.674  0.1194 -0.2925 -0.0647
  175SAPS  H19R19957   6.522   3.404   4.657  1.1888 -0.0525  0.4029
  175SAPS  H19S19958   6.644   3.281   4.646 -0.2535  0.8327 -2.2287
  175SAPS  C22019959   6.521   3.255   4.819  0.1266 -0.1010 -0.5182
  175SAPS  H20R19960   6.538   3.146   4.830 -1.1758 -0.2157  0.6174
  175SAPS  H20S19961   6.415   3.272   4.848  0.5885  0.1572  1.1360
  175SAPS  H20T19962   6.593   3.303   4.889  0.6386 -2.1703  0.4436
  175SAPS   C3319963   5.775   3.033   3.389  0.2609 -0.3419  0.1384
  175SAPS   H3X19964   5.767   3.133   3.436  0.3460 -0.8996  1.3811
  175SAPS   H3Y19965   5.882   3.038   3.360  0.4162  1.1216  0.8532
  175SAPS   C3419966   5.749   2.918   3.489 -0.1834 -0.3774 -0.6949
  175SAPS   H4X19967   5.650   2.943   3.533 -1.0305  0.2380 -2.8492
  175SAPS   H4Y19968   5.826   2.934   3.568  0.3665 -0.2769 -1.2485
  175SAPS   C3519969   5.744   2.775   3.440 -0.8638 -0.2084 -0.3195
  175SAPS   H5X19970   5.840   2.742   3.395 -0.5687 -0.3878  0.4280
  175SAPS   H5Y19971   5.666   2.786   3.362 -1.0716  0.1110 -0.0703
  175SAPS   C3619972   5.693   2.684   3.547 -0.1385 -0.2367  0.1109
  175SAPS   H6X19973   5.607   2.733   3.596  0.7918  0.5415  0.9820
  175SAPS   H6Y19974   5.768   2.679   3.628 -2.3995  2.8019  2.6122
  175SAPS   C3719975   5.636   2.545   3.510  0.0246 -0.0581 -0.0254
  175SAPS   H7X19976   5.710   2.474   3.468 -0.4935  0.7071 -2.3774
  175SAPS   H7Y19977   5.545   2.556   3.447 -0.5675 -1.3763  0.5682
  175SAPS   C3819978   5.564   2.478   3.631 -0.1798 -0.6414 -0.3048
  175SAPS   H8X19979   5.506   2.393   3.589 -0.3177 -0.1904 -1.0429
  175SAPS   H8Y19980   5.488   2.550   3.668  2.8339  2.5845  0.1021
  175SAPS   C3919981   5.649   2.424   3.749 -0.4229 -0.0799  0.3833
  175SAPS   H9X19982   5.695   2.508   3.806  1.9237 -0.1202 -1.3192
  175SAPS   H9Y19983   5.727   2.356   3.709  2.0787  2.2615  0.8875
  175SAPS  C31019984   5.561   2.348   3.846  0.4055  0.0982  0.0563
  175SAPS  H10X19985   5.623   2.285   3.913 -0.1877  0.7116  1.2258
  175SAPS  H10Y19986   5.494   2.288   3.780  1.8282 -0.0916 -1.2673
  175SAPS  C31119987   5.481   2.431   3.945 -0.1693  0.2854  0.1676
  175SAPS  H11X19988   5.426   2.513   3.894 -1.7390 -0.2940  0.8765
  175SAPS  H11Y19989   5.549   2.480   4.018 -0.0679 -1.3442  1.2012
  175SAPS  C31219990   5.380   2.344   4.029 -0.3670  0.5021  0.1861
  175SAPS  H12X19991   5.441   2.268   4.083  1.0855  1.5145  0.0311
  175SAPS  H12Y19992   5.310   2.288   3.963 -1.4998 -0.2934  1.9868
  175SAPS  C31319993   5.299   2.436   4.126  0.4182 -0.0291 -0.7021
  175SAPS  H13X19994   5.210   2.473   4.071  1.0393  2.0319 -0.3872
  175SAPS  H13Y19995   5.371   2.514   4.158  1.9754 -1.3470 -0.8568
  175SAPS  C31419996   5.241   2.362   4.250 -0.1518 -0.5156  0.2845
  175SAPS  H14X19997   5.321   2.294   4.285  0.8498  0.5288  0.0882
  175SAPS  H14Y19998   5.160   2.294   4.215 -0.5312 -0.4984  1.1166
  175SAPS  C31519999   5.181   2.461   4.343  0.1659 -0.7177 -0.5895
  175SAPS  H15X20000   5.117   2.534   4.289  1.1682 -0.6393 -1.6984
  175SAPS  H15Y20001   5.258   2.527   4.388 -1.5252  0.6161  0.4961
  175SAPS  C31620002   5.108   2.407   4.461 -0.1889 -0.0711  0.8377
  175SAPS  H16X20003   5.184   2.340   4.507 -0.2511 -0.4947  0.3350
  175SAPS  H16Y20004   5.032   2.328   4.442 -0.4634  0.5411 -0.7276
  175SAPS  C31720005   5.037   2.511   4.547 -0.2734 -0.3647  0.0643
  175SAPS  H17X20006   5.114   2.587   4.572  0.7770 -1.5202  0.4269
  175SAPS  H17Y20007   5.011   2.452   4.638  1.4104 -2.0385 -0.4774
  175SAPS  C31820008   4.919   2.583   4.477  0.8136 -0.5211  0.0962
  175SAPS  H18X20009   4.947   2.633   4.382  2.5353 -0.2276  0.7215
  175SAPS  H18Y20010   4.870   2.659   4.543 -0.3600 -0.6121 -0.6543
  175SAPS  H18Z20011   4.838   2.510   4.459 -1.1571  1.5860 -0.1450
  176SAPS     N20012   4.119   5.001   2.935 -0.1848 -0.0293  0.6147
  176SAPS   HN120013   4.211   5.021   2.979  0.6950 -2.6828  0.1726
  176SAPS   HN220014   4.055   5.083   2.940  0.4454  0.6095 -1.0054
  176SAPS   HN320015   4.071   4.930   2.993 -1.6288  0.5229  0.1552
  176SAPS   C1220016   4.150   4.959   2.796  0.0881 -0.2003  0.4016
  176SAPS  H12A20017   4.065   4.913   2.748 -0.3005  3.1362 -2.6132
  176SAPS   C1320018   4.195   5.070   2.689  0.6355  0.8108 -0.1197
  176SAPS  O13A20019   4.195   5.188   2.728 -0.0154  0.0239  0.0483
  176SAPS  O13B20020   4.217   5.041   2.568 -0.2649 -0.1383  0.4715
  176SAPS   C1120021   4.258   4.850   2.803  0.3239  0.4925  0.0378
  176SAPS  H11A20022   4.253   4.788   2.710 -0.0610  1.5725 -0.6888
  176SAPS  H11B20023   4.233   4.775   2.880  0.8747 -0.9783 -1.1737
  176SAPS     P20024   4.460   4.926   2.968 -0.3243  0.2802  0.5167
  176SAPS   O1320025   4.601   4.950   2.943 -0.5938 -0.2196 -0.2479
  176SAPS   O1420026   4.394   5.038   3.029  0.2325 -0.1626 -0.4975
  176SAPS   O1220027   4.389   4.907   2.829  0.4792 -0.1594  0.1882
  176SAPS   O1120028   4.444   4.790   3.050  0.1989 -0.0628  0.1881
  176SAPS    C120029   4.348   4.781   3.159  0.2874  0.3231 -0.6509
  176SAPS    HA20030   4.247   4.816   3.126  0.2877  2.0725  1.0413
  176SAPS    HB20031   4.341   4.674   3.187  0.2110  0.8136  1.3545
  176SAPS    C220032   4.398   4.853   3.287 -0.8875 -0.4270 -0.4625
  176SAPS    HS20033   4.410   4.962   3.267 -1.8159  0.2516  2.2880
  176SAPS   O2120034   4.522   4.792   3.337  0.2851 -0.7193 -0.3700
  176SAPS   C2120035   4.598   4.870   3.417 -0.4333  0.5767  0.7590
  176SAPS   O2220036   4.581   4.985   3.447 -0.0757  0.1283  0.2377
  176SAPS   C2220037   4.706   4.777   3.467 -0.1862  0.1373  0.1511
  176SAPS   H2R20038   4.755   4.833   3.549 -1.1387  0.8426  0.2576
  176SAPS   H2S20039   4.660   4.689   3.516  0.4465 -0.5558 -0.4832
  176SAPS    C320040   4.290   4.844   3.402  0.6553  0.4734  0.1675
  176SAPS    HX20041   4.269   4.737   3.424 -0.5915  0.3747 -1.2619
  176SAPS    HY20042   4.195   4.889   3.364 -0.0140  0.5873  1.9013
  176SAPS   O3120043   4.324   4.901   3.526  0.0168 -0.1029  0.6260
  176SAPS   C3120044   4.312   5.024   3.541  0.3633  0.4651  0.2133
  176SAPS   O3220045   4.261   5.108   3.469 -0.2693 -0.0859 -0.1459
  176SAPS   C3220046   4.376   5.056   3.678  0.1428  0.4616 -0.0002
  176SAPS   H2X20047   4.484   5.030   3.682 -0.1384 -0.9592 -0.8660
  176SAPS   H2Y20048   4.332   4.991   3.757  0.1640  1.9404  1.2947
  176SAPS   C2320049   4.793   4.727   3.357  0.2222 -0.0611 -0.6490
  176SAPS   H3R20050   4.804   4.811   3.285 -1.7900  0.7973 -0.0393
  176SAPS   H3S20051   4.743   4.635   3.317 -0.8758 -0.6792  1.9509
  176SAPS   C2420052   4.928   4.664   3.398  0.0095  0.6311  0.2865
  176SAPS   H4R20053   4.987   4.662   3.304  0.5768 -1.0963  0.6511
  176SAPS   H4S20054   4.901   4.568   3.446 -1.3986 -1.0816 -3.5511
  176SAPS   C2520055   5.017   4.750   3.484  0.5224  0.0646  0.0472
  176SAPS   H5R20056   5.073   4.823   3.423 -3.1534  2.4103 -0.8663
  176SAPS   C2620057   5.022   4.753   3.617  0.4521  0.5570  0.6105
  176SAPS   H6R20058   5.099   4.815   3.665 -0.8912  1.0864  2.1905
  176SAPS   C2720059   4.937   4.666   3.711 -0.0482  0.0244  0.3939
  176SAPS   H7R20060   4.855   4.615   3.656  0.4069 -0.9196  0.5804
  176SAPS   H7S20061   4.883   4.735   3.780  1.1319  0.9973  0.3829
  176SAPS   C2820062   5.017   4.564   3.787 -0.1716 -0.1296  0.5508
  176SAPS   H8R20063   4.983   4.460   3.784 -0.9739  0.1050  1.2433
  176SAPS   C2920064   5.122   4.589   3.866 -0.2804 -0.2136 -0.4255
  176SAPS   H9R20065   5.166   4.505   3.922 -0.7768  0.1871  0.5994
  176SAPS  C21020066   5.187   4.715   3.910  0.2837  0.2898 -0.4506
  176SAPS  H10R20067   5.123   4.800   3.879 -0.1279 -0.1409 -0.7948
  176SAPS  H10S20068   5.279   4.723   3.848  0.2105 -2.2823 -1.0186
  176SAPS  C21120069   5.211   4.715   4.057 -0.1052 -0.1418 -0.7064
  176SAPS  H11R20070   5.125   4.753   4.114  0.1540 -0.6240  0.0389
  176SAPS  C21220071   5.332   4.700   4.118  0.8875 -0.1415 -0.4358
  176SAPS  H12R20072   5.335   4.715   4.227 -2.2953 -0.0665 -0.2730
  176SAPS  C21320073   5.473   4.680   4.058  1.0542  0.7852 -0.1277
  176SAPS  H13R20074   5.513   4.783   4.055 -1.0672  1.6503 -1.1060
  176SAPS  H13S20075   5.468   4.647   3.952  1.9540  0.1550  0.0181
  176SAPS  C21420076   5.546   4.564   4.133  0.5097  0.1243 -0.1894
  176SAPS  H14R20077   5.481   4.476   4.146  1.1188 -0.2840  0.1240
  176SAPS  C21520078   5.668   4.571   4.197  0.7077 -0.1651  0.1450
  176SAPS  H15R20079   5.700   4.481   4.253  1.2800 -0.1675 -0.1781
  176SAPS  C21620080   5.770   4.676   4.167  0.0133 -0.9841 -0.2631
  176SAPS  H16R20081   5.719   4.755   4.108 -1.0601  0.0382  1.9256
  176SAPS  H16S20082   5.846   4.627   4.102 -1.8348 -1.8112 -1.8799
  176SAPS  C21720083   5.837   4.748   4.287  0.5480  0.0165  0.1909
  176SAPS  H17R20084   5.898   4.840   4.272 -0.8692  0.9589  0.0145
  176SAPS  H17S20085   5.910   4.683   4.340  0.1277  0.8681  1.8740
  176SAPS  C21820086   5.739   4.769   4.411  0.6066 -0.5777 -0.3302
  176SAPS  H18R20087   5.788   4.818   4.497 -2.1517  1.1778  0.3577
  176SAPS  H18S20088   5.705   4.668   4.441  0.6593 -0.4242  0.2568
  176SAPS  C21920089   5.627   4.865   4.375  0.8010 -0.3536  0.0971
  176SAPS  H19R20090   5.575   4.840   4.281  1.2966 -1.6410  0.1440
  176SAPS  H19S20091   5.673   4.966   4.368 -0.3418  0.2397  0.7557
  176SAPS  C22020092   5.521   4.863   4.491  0.1508  0.1583 -0.4551
  176SAPS  H20R20093   5.472   4.763   4.494  0.1149  0.1997  0.8730
  176SAPS  H20S20094   5.437   4.933   4.473 -0.7496 -0.1214  2.2025
  176SAPS  H20T20095   5.564   4.895   4.588 -0.0862  0.1515 -0.3466
  176SAPS   C3320096   4.359   5.208   3.725  0.2463  1.5067  1.1793
  176SAPS   H3X20097   4.260   5.245   3.689 -0.7055 -2.1501 -0.4959
  176SAPS   H3Y20098   4.438   5.273   3.682  1.0621 -0.6082 -0.6911
  176SAPS   C3420099   4.354   5.218   3.878 -0.1996 -0.1999  0.2489
  176SAPS   H4X20100   4.263   5.168   3.919 -0.4153  0.8468  1.0799
  176SAPS   H4Y20101   4.341   5.327   3.893  0.8518  0.2459 -1.6541
  176SAPS   C3520102   4.470   5.162   3.953  0.7179  0.0115  0.2390
  176SAPS   H5X20103   4.572   5.186   3.915  1.3533  0.6372  2.2012
  176SAPS   H5Y20104   4.454   5.053   3.945 -3.3173  0.4968 -0.4616
  176SAPS   C3620105   4.468   5.210   4.098  0.2136 -0.3414 -0.8049
  176SAPS   H6X20106   4.364   5.208   4.138 -0.1808  1.4400 -1.6188
  176SAPS   H6Y20107   4.505   5.314   4.116  1.1644 -1.2067  3.0953
  176SAPS   C3720108   4.556   5.127   4.185  0.5346  0.0398 -0.0929
  176SAPS   H7X20109   4.663   5.144   4.160  1.1005  0.2163  2.2368
  176SAPS   H7Y20110   4.530   5.021   4.165  0.4119  0.5522 -3.0976
  176SAPS   C3820111   4.528   5.146   4.333 -0.2062  0.3337 -0.3509
  176SAPS   H8X20112   4.428   5.113   4.369  0.0993  1.8899  2.2111
  176SAPS   H8Y20113   4.523   5.253   4.363 -1.5406 -0.0438  0.9057
  176SAPS   C3920114   4.642   5.091   4.422 -0.2040 -0.2789  0.3344
  176SAPS   H9X20115   4.734   5.125   4.370  0.2933 -0.5355  1.0255
  176SAPS   H9Y20116   4.646   4.980   4.424  2.8697 -0.2444  2.2499
  176SAPS  C31020117   4.639   5.144   4.562 -0.1562 -0.4035 -1.0041
  176SAPS  H10X20118   4.576   5.074   4.620  2.5696 -2.2941 -0.1295
  176SAPS  H10Y20119   4.599   5.248   4.561 -0.6843 -0.6100 -1.8645
  176SAPS  C31120120   4.781   5.136   4.630 -0.0179  0.5437  0.1008
  176SAPS  H11X20121   4.765   5.170   4.734 -0.1180  0.5428  0.0853
  176SAPS  H11Y20122   4.853   5.201   4.576  1.8258 -2.1797 -0.9744
  176SAPS  C31220123   4.837   4.990   4.622 -0.4704  0.0327 -0.0621
  176SAPS  H12X20124   4.876   4.967   4.520 -1.9091  0.1408 -0.6530
  176SAPS  H12Y20125   4.764   4.909   4.646  0.7725 -0.2938  3.0508
  176SAPS  C31320126   4.955   4.967   4.719  0.5810  0.4375  0.5278
  176SAPS  H13X20127   4.920   4.989   4.822  1.2325 -1.5763  1.2391
  176SAPS  H13Y20128   5.037   5.036   4.691  1.0720 -0.9586 -1.7584
  176SAPS  C31420129   5.014   4.825   4.713  0.6391 -0.0134  0.2340
  176SAPS  H14X20130   5.049   4.789   4.613 -0.4922 -1.5696  0.3554
  176SAPS  H14Y20131   4.931   4.753   4.731 -1.2806  1.7506 -1.1237
  176SAPS  C31520132   5.122   4.795   4.817 -0.4224 -1.3454  0.0131
  176SAPS  H15X20133   5.092   4.836   4.916  3.3026 -2.3643  1.7372
  176SAPS  H15Y20134   5.211   4.851   4.783 -0.7414 -0.5672  0.4188
  176SAPS  C31620135   5.158   4.649   4.833  0.8254  0.5612 -0.0271
  176SAPS  H16X20136   5.251   4.630   4.890  0.3826  0.7556  0.7657
  176SAPS  H16Y20137   5.181   4.611   4.731 -0.2686 -2.2542  0.6709
  176SAPS  C31720138   5.043   4.563   4.895  0.3505  0.0797 -0.3194
  176SAPS  H17X20139   4.958   4.564   4.824  1.1609 -0.7969 -1.3289
  176SAPS  H17Y20140   5.014   4.595   4.998  1.2808  1.5213 -0.4863
  176SAPS  C31820141   5.086   4.417   4.908  0.0845 -0.3538  0.3560
  176SAPS  H18X20142   5.088   4.372   4.806 -2.0273 -3.1193  1.4117
  176SAPS  H18Y20143   5.016   4.361   4.974 -0.2428 -0.6940 -0.2711
  176SAPS  H18Z20144   5.186   4.402   4.955  0.2100 -1.5218 -0.2427
  177SAPS     N20145   6.421   5.686   2.558 -0.3159  0.0830 -0.2341
  177SAPS   HN120146   6.464   5.774   2.594 -1.3296  0.7189 -0.5477
  177SAPS   HN220147   6.326   5.708   2.522 -0.5606  1.5882  1.2050
  177SAPS   HN320148   6.415   5.617   2.636 -1.7401  1.0490  0.5613
  177SAPS   C1220149   6.515   5.650   2.454  0.7587 -0.1499 -0.5778
  177SAPS  H12A20150   6.476   5.571   2.392  2.1461  0.2830 -2.0824
  177SAPS   C1320151   6.557   5.748   2.344 -0.1586  0.7947  0.8399
  177SAPS  O13A20152   6.509   5.863   2.347  0.4773 -0.1356 -0.2330
  177SAPS  O13B20153   6.638   5.705   2.253  0.6725  0.2812  0.0504
  177SAPS   C1120154   6.648   5.581   2.512  0.4610  0.2569  0.5962
  177SAPS  H11A20155   6.720   5.646   2.567  3.2779 -0.7582 -1.6263
  177SAPS  H11B20156   6.705   5.556   2.420  1.4466 -1.3010  1.5842
  177SAPS     P20157   6.699   5.394   2.690  0.4449 -0.2707  0.1572
  177SAPS   O1320158   6.653   5.252   2.699  0.3142 -0.3802  0.4078
  177SAPS   O1420159   6.843   5.426   2.674  0.1410 -0.7824  0.2657
  177SAPS   O1220160   6.606   5.468   2.591 -0.2700  1.0497  0.4378
  177SAPS   O1120161   6.645   5.452   2.826 -0.5512  0.1643 -0.1999
  177SAPS    C120162   6.528   5.399   2.886 -0.3377 -0.0477  0.2468
  177SAPS    HA20163   6.467   5.489   2.910 -1.0441 -0.8659  1.6761
  177SAPS    HB20164   6.469   5.333   2.818  0.2808 -1.7311  1.2745
  177SAPS    C220165   6.548   5.335   3.025  0.2332 -0.0814 -0.1261
  177SAPS    HS20166   6.461   5.274   3.057  0.3639 -0.4241 -0.4102
  177SAPS   O2120167   6.567   5.437   3.119 -0.5999  0.5791 -0.0600
  177SAPS   C2120168   6.460   5.503   3.164  0.6416  0.9169 -0.1220
  177SAPS   O2220169   6.344   5.471   3.132 -0.5845  1.0812  0.1595
  177SAPS   C2220170   6.503   5.613   3.258  0.4630  0.0668  1.1320
  177SAPS   H2R20171   6.556   5.688   3.195  2.4310 -2.3512 -0.2845
  177SAPS   H2S20172   6.408   5.651   3.300 -0.5416 -2.7201  1.6028
  177SAPS    C320173   6.687   5.256   3.032  1.0265 -0.0625 -0.5488
  177SAPS    HX20174   6.765   5.334   3.043  1.3374 -0.4508  0.0354
  177SAPS    HY20175   6.701   5.201   2.937 -0.0253  0.6175 -1.1262
  177SAPS   O3120176   6.689   5.182   3.157  0.6497  0.0534 -0.2990
  177SAPS   C3120177   6.670   5.053   3.144  0.4261  0.3679  0.3997
  177SAPS   O3220178   6.647   4.988   3.037 -0.5413 -0.5935 -0.9551
  177SAPS   C3220179   6.698   4.997   3.288  0.1536 -0.2691  0.3908
  177SAPS   H2X20180   6.623   5.041   3.358 -0.6528  2.8005 -2.1508
  177SAPS   H2Y20181   6.801   5.021   3.321 -0.3214  0.8937  1.1241
  177SAPS   C2320182   6.604   5.586   3.365 -0.8235 -0.5770 -0.3974
  177SAPS   H3R20183   6.681   5.520   3.320 -0.7687 -1.3746  0.8480
  177SAPS   H3S20184   6.538   5.533   3.436 -0.0734 -1.3504 -0.2689
  177SAPS   C2420185   6.675   5.721   3.420 -0.0132  0.8200  0.1350
  177SAPS   H4R20186   6.737   5.774   3.344  0.2629  0.7376  0.2998
  177SAPS   H4S20187   6.755   5.683   3.488 -0.2282 -2.6519 -1.3143
  177SAPS   C2520188   6.583   5.812   3.493  0.0408 -0.6823 -0.7059
  177SAPS   H5R20189   6.518   5.871   3.427 -0.2222 -1.6519 -1.3336
  177SAPS   C2620190   6.564   5.816   3.626  0.3102 -0.6228 -0.5854
  177SAPS   H6R20191   6.488   5.886   3.663 -0.2065 -2.1425  1.3633
  177SAPS   C2720192   6.637   5.739   3.727  0.7075 -0.6475 -0.4257
  177SAPS   H7R20193   6.632   5.630   3.705 -0.6534 -0.3709 -1.6243
  177SAPS   H7S20194   6.570   5.752   3.815  0.6914 -2.2220 -0.1785
  177SAPS   C2820195   6.776   5.787   3.759  0.2982  0.4473 -0.9051
  177SAPS   H8R20196   6.842   5.821   3.678  2.2402  0.2123  0.5188
  177SAPS   C2920197   6.829   5.813   3.883 -0.0486  0.1002 -0.3181
  177SAPS   H9R20198   6.938   5.824   3.887  0.6778 -4.9563  0.6440
  177SAPS  C21020199   6.759   5.788   4.015 -0.9482 -0.6044 -0.5183
  177SAPS  H10R20200   6.831   5.727   4.074  0.4091  0.2862 -1.1889
  177SAPS  H10S20201   6.661   5.736   4.005 -0.9528 -1.2724  2.2526
  177SAPS  C21120202   6.738   5.918   4.094 -1.0691  0.0094 -0.1585
  177SAPS  H11R20203   6.669   5.985   4.040 -0.7842  0.4899  0.0671
  177SAPS  C21220204   6.802   5.972   4.205 -0.0888  0.0650  0.7327
  177SAPS  H12R20205   6.764   6.070   4.236  2.6912  2.0693 -1.6775
  177SAPS  C21320206   6.906   5.906   4.300  0.2623 -0.2696  0.5945
  177SAPS  H13R20207   7.004   5.952   4.276 -0.3342  1.8308  1.9299
  177SAPS  H13S20208   6.915   5.797   4.281 -1.4091 -0.6880  1.9499
  177SAPS  C21420209   6.866   5.928   4.446 -0.1052  0.1147 -0.5044
  177SAPS  H14R20210   6.774   5.874   4.474  0.4237 -1.1136 -1.0325
  177SAPS  C21520211   6.918   6.011   4.535 -0.2114  0.1106  0.3553
  177SAPS  H15R20212   6.866   6.032   4.629 -2.0601  0.4343 -0.7066
  177SAPS  C21620213   7.040   6.103   4.520 -0.3967 -0.0377 -0.0484
  177SAPS  H16R20214   7.114   6.049   4.456 -0.9717 -2.4255  1.1813
  177SAPS  H16S20215   7.087   6.124   4.618 -2.2589  1.2173  0.6219
  177SAPS  C21720216   7.001   6.249   4.464  0.3500  0.3273  0.2870
  177SAPS  H17R20217   6.910   6.290   4.512 -1.1704  0.2066 -2.3357
  177SAPS  H17S20218   6.979   6.239   4.356  0.0640  2.5453  0.1136
  177SAPS  C21820219   7.122   6.340   4.481 -0.0730  0.2222 -0.3465
  177SAPS  H18R20220   7.208   6.275   4.457 -0.4572  0.0298 -1.2488
  177SAPS  H18S20221   7.138   6.360   4.589  0.9602 -1.2618 -0.2043
  177SAPS  C21920222   7.104   6.474   4.418  0.5247 -0.5710  0.1580
  177SAPS  H19R20223   7.025   6.524   4.477  1.9803 -0.3994  2.0885
  177SAPS  H19S20224   7.058   6.463   4.318  0.9114 -1.8706  0.0988
  177SAPS  C22020225   7.223   6.569   4.423  0.8043  0.3732 -0.1678
  177SAPS  H20R20226   7.204   6.668   4.375  2.1667  0.7580  0.0202
  177SAPS  H20S20227   7.297   6.512   4.362 -1.1073 -1.5863 -0.7847
  177SAPS  H20T20228   7.267   6.600   4.520 -0.3667  0.9101  0.2041
  177SAPS   C3320229   6.654   4.848   3.276 -0.1447  0.5567 -0.1041
  177SAPS   H3X20230   6.748   4.790   3.264 -1.7190 -2.1257 -0.3309
  177SAPS   H3Y20231   6.591   4.808   3.194  1.3040 -1.9425 -0.1119
  177SAPS   C3420232   6.590   4.810   3.411 -0.3261 -0.1637  0.3258
  177SAPS   H4X20233   6.485   4.846   3.404 -0.4165 -0.3771  0.5829
  177SAPS   H4Y20234   6.630   4.860   3.502  1.1811  1.7494 -1.2790
  177SAPS   C3520235   6.591   4.662   3.440 -0.0570 -0.2580  0.3146
  177SAPS   H5X20236   6.691   4.622   3.468  2.2289  2.9613 -2.4640
  177SAPS   H5Y20237   6.561   4.617   3.344 -2.2969  2.7623 -0.5667
  177SAPS   C3620238   6.476   4.632   3.536 -0.9010  0.2700  0.3933
  177SAPS   H6X20239   6.383   4.689   3.515 -1.4798 -0.2248  1.5430
  177SAPS   H6Y20240   6.497   4.655   3.642 -0.2061  2.4590 -0.1691
  177SAPS   C3720241   6.447   4.479   3.548 -0.2778 -0.3050  0.3945
  177SAPS   H7X20242   6.404   4.450   3.449 -1.7138  3.1394 -0.1464
  177SAPS   H7Y20243   6.365   4.456   3.618 -0.3214 -0.1618  0.3915
  177SAPS   C3820244   6.568   4.401   3.592  0.3081 -0.3981 -0.0409
  177SAPS   H8X20245   6.619   4.451   3.678 -0.2968  1.3654 -0.6704
  177SAPS   H8Y20246   6.648   4.396   3.515 -0.0035 -0.5639 -0.3565
  177SAPS   C3920247   6.538   4.253   3.622  0.0189 -0.6386  0.1166
  177SAPS   H9X20248   6.625   4.184   3.625 -0.3169 -1.0693  0.0981
  177SAPS   H9Y20249   6.476   4.224   3.534 -0.4609  0.6783  0.0018
  177SAPS  C31020250   6.451   4.229   3.744  0.0576 -0.0343 -0.1478
  177SAPS  H10X20251   6.353   4.281   3.734  0.1974 -0.1689 -2.7804
  177SAPS  H10Y20252   6.509   4.268   3.831  0.6857 -1.3889  0.0558
  177SAPS  C31120253   6.407   4.082   3.773 -0.6160 -0.0790 -0.5102
  177SAPS  H11X20254   6.502   4.028   3.790 -0.4930  0.7497  1.7612
  177SAPS  H11Y20255   6.370   4.044   3.675 -0.7031  0.7940 -0.8207
  177SAPS  C31220256   6.326   4.050   3.901  0.1756 -0.0736 -0.2168
  177SAPS  H12X20257   6.320   3.940   3.905 -1.2120 -0.0007  0.4961
  177SAPS  H12Y20258   6.227   4.099   3.884  0.3203  0.3180  0.0351
  177SAPS  C31320259   6.391   4.110   4.029  0.3483  0.8996  0.6114
  177SAPS  H13X20260   6.395   4.220   4.014  1.0131  0.6700 -1.1225
  177SAPS  H13Y20261   6.492   4.065   4.018 -0.8242 -1.2081 -3.9580
  177SAPS  C31420262   6.342   4.056   4.172 -0.6447  0.0982 -0.1006
  177SAPS  H14X20263   6.341   3.945   4.174 -1.1263  0.1081  1.0803
  177SAPS  H14Y20264   6.244   4.105   4.190 -1.4511 -0.2611 -3.0823
  177SAPS  C31520265   6.442   4.099   4.285 -0.1698 -0.0115  0.7066
  177SAPS  H15X20266   6.454   4.209   4.273 -1.4732 -0.0226 -1.1322
  177SAPS  H15Y20267   6.540   4.050   4.269  0.9728  2.5849 -0.8481
  177SAPS  C31620268   6.391   4.080   4.424 -0.0709 -0.1972  0.4510
  177SAPS  H16X20269   6.322   3.993   4.425  0.2869 -0.5703 -2.0042
  177SAPS  H16Y20270   6.329   4.169   4.451 -1.0697 -0.2865 -1.4273
  177SAPS  C31720271   6.502   4.065   4.526  0.8226 -0.5678  0.6864
  177SAPS  H17X20272   6.567   4.154   4.510 -0.6235  0.4088  0.0806
  177SAPS  H17Y20273   6.557   3.974   4.494 -1.1668 -1.2109 -1.1022
  177SAPS  C31820274   6.455   4.067   4.677  0.4366 -0.0893 -0.1988
  177SAPS  H18X20275   6.550   4.041   4.729  1.2011 -0.0494 -1.5062
  177SAPS  H18Y20276   6.380   3.988   4.701  0.0205  0.8296  1.6665
  177SAPS  H18Z20277   6.420   4.165   4.714 -0.0661 -0.8330  1.3754
  178SAPS     N20278   1.377   0.719   2.549 -0.0312  0.2119 -0.2687
  178SAPS   HN120279   1.466   0.691   2.597 -1.2591 -0.8947  1.4892
  178SAPS   HN220280   1.384   0.780   2.466  0.1650  0.0370 -0.3842
  178SAPS   HN320281   1.310   0.756   2.619 -0.8893 -0.5269 -0.6869
  178SAPS   C1220282   1.298   0.599   2.510  0.1611 -0.4927 -0.0048
  178SAPS  H12A20283   1.191   0.612   2.510  0.1369 -0.4859  1.5324
  178SAPS   C1320284   1.332   0.532   2.367  0.5134 -0.3244  0.1118
  178SAPS  O13A20285   1.384   0.601   2.280  0.1710 -0.1744  0.6804
  178SAPS  O13B20286   1.257   0.437   2.329  0.0740  0.0445 -0.7583
  178SAPS   C1120287   1.307   0.491   2.621  0.4194  0.8076 -0.3179
  178SAPS  H11A20288   1.413   0.463   2.636  0.4078  1.5026  1.2647
  178SAPS  H11B20289   1.239   0.408   2.593  0.4333  1.3595 -2.0821
  178SAPS     P20290   1.203   0.460   2.867  0.3911  0.1389 -0.1022
  178SAPS   O1320291   1.115   0.543   2.946 -0.4939 -0.1467  0.0088
  178SAPS   O1420292   1.156   0.328   2.827 -0.1661  0.4590 -0.2468
  178SAPS   O1220293   1.249   0.548   2.737  0.9279 -0.7023 -0.1168
  178SAPS   O1120294   1.338   0.445   2.946  0.4473 -0.4416  0.4488
  178SAPS    C120295   1.420   0.332   2.935 -0.6431  0.3462  0.3310
  178SAPS    HA20296   1.375   0.248   2.993  0.8558 -1.4249 -0.9457
  178SAPS    HB20297   1.423   0.298   2.829 -1.5637 -1.3371  0.8060
  178SAPS    C220298   1.564   0.351   2.989  0.0876 -0.1438  0.3080
  178SAPS    HS20299   1.609   0.250   3.000  1.4692  0.3129 -0.8253
  178SAPS   O2120300   1.564   0.435   3.109  0.3136  0.9382  0.9070
  178SAPS   C2120301   1.527   0.378   3.218 -0.0018 -0.4288 -0.1499
  178SAPS   O2220302   1.509   0.259   3.231  0.4493  0.6089  0.5012
  178SAPS   C2220303   1.526   0.465   3.339 -0.6622  0.5609 -0.0187
  178SAPS   H2R20304   1.619   0.525   3.343  0.4507 -0.8318 -2.6528
  178SAPS   H2S20305   1.437   0.530   3.322 -0.6248  0.6179  0.0016
  178SAPS    C320306   1.667   0.420   2.889  0.6162  0.0602 -0.0251
  178SAPS    HX20307   1.643   0.527   2.876  1.1346  0.2486  0.5356
  178SAPS    HY20308   1.647   0.388   2.784 -1.4015  1.6310 -0.1679
  178SAPS   O3120309   1.804   0.392   2.924 -0.0038 -0.2635 -0.2136
  178SAPS   C3120310   1.856   0.479   3.005 -0.2382 -0.0374 -0.4795
  178SAPS   O3220311   1.811   0.591   3.029  0.0505 -0.6436 -0.0068
  178SAPS   C3220312   1.995   0.434   3.067  0.0993  0.3063 -0.3377
  178SAPS   H2X20313   2.079   0.498   3.035 -0.3770  0.4393 -1.3635
  178SAPS   H2Y20314   2.012   0.330   3.032 -0.3513  0.0424  0.2147
  178SAPS   C2320315   1.510   0.387   3.469  0.9556  0.2844  0.2690
  178SAPS   H3R20316   1.588   0.308   3.460 -0.0405 -0.8151  1.0277
  178SAPS   H3S20317   1.417   0.330   3.488 -0.0348  1.7422 -0.0738
  178SAPS   C2420318   1.544   0.468   3.591 -0.5977 -0.0438  0.1722
  178SAPS   H4R20319   1.635   0.530   3.575 -0.3520 -0.2951  0.5540
  178SAPS   H4S20320   1.565   0.411   3.684 -1.1306  0.6478  0.7297
  178SAPS   C2520321   1.432   0.550   3.640 -0.1913 -0.2022 -0.9730
  178SAPS   H5R20322   1.347   0.554   3.571 -1.0824  0.3377  0.1037
  178SAPS   C2620323   1.436   0.624   3.755  0.1473 -0.6949 -0.6389
  178SAPS   H6R20324   1.344   0.679   3.779 -0.5564 -2.2176  0.3508
  178SAPS   C2720325   1.543   0.621   3.857  0.0520 -0.7738 -0.1389
  178SAPS   H7R20326   1.553   0.720   3.906  3.5530 -0.1265 -1.8201
  178SAPS   H7S20327   1.642   0.606   3.808 -0.7740  1.7780 -2.8464
  178SAPS   C2820328   1.512   0.513   3.961  0.1365 -0.5291  0.2798
  178SAPS   H8R20329   1.582   0.429   3.954  0.7890  0.0869 -0.6679
  178SAPS   C2920330   1.426   0.519   4.063  0.2244 -0.1908  0.1710
  178SAPS   H9R20331   1.410   0.425   4.119 -1.0349  0.1674  0.4424
  178SAPS  C21020332   1.333   0.630   4.107  0.3274  0.3537  0.5458
  178SAPS  H10R20333   1.231   0.590   4.117  0.3242  0.3098  0.3420
  178SAPS  H10S20334   1.330   0.708   4.028  1.4073  0.3084  0.4368
  178SAPS  C21120335   1.375   0.670   4.245  0.0337  0.1220 -0.1110
  178SAPS  H11R20336   1.481   0.700   4.257 -0.0385 -0.6794  3.7688
  178SAPS  C21220337   1.299   0.666   4.360  0.7598 -0.1572  0.2321
  178SAPS  H12R20338   1.334   0.700   4.459 -0.2581  0.5421  0.3654
  178SAPS  C21320339   1.164   0.612   4.373  0.3790 -0.6019  0.4280
  178SAPS  H13R20340   1.104   0.656   4.291  0.0682 -1.0055  0.4362
  178SAPS  H13S20341   1.110   0.647   4.463  0.2269 -0.5206  0.3052
  178SAPS  C21420342   1.149   0.467   4.368  0.9530  0.3433  0.0726
  178SAPS  H14R20343   1.238   0.403   4.380 -0.1764 -1.2187  0.3970
  178SAPS  C21520344   1.030   0.400   4.358 -0.1710 -1.0215  0.0111
  178SAPS  H15R20345   1.037   0.292   4.335  3.0690 -0.5407 -1.7782
  178SAPS  C21620346   0.889   0.461   4.341 -0.0182 -0.2089  0.3046
  178SAPS  H16R20347   0.819   0.395   4.286 -2.0905 -0.3251  2.9041
  178SAPS  H16S20348   0.905   0.547   4.272  1.6082 -0.4204  0.3804
  178SAPS  C21720349   0.823   0.512   4.466  0.0572  0.1238 -0.0131
  178SAPS  H17R20350   0.750   0.591   4.438  0.8226  0.6581 -0.5610
  178SAPS  H17S20351   0.892   0.572   4.528  0.1489 -0.5748  0.5763
  178SAPS  C21820352   0.767   0.402   4.556  0.3753  0.1343 -0.7575
  178SAPS  H18R20353   0.840   0.339   4.612 -1.5072 -0.6973  0.8568
  178SAPS  H18S20354   0.707   0.336   4.490  1.1995  0.2587 -1.6705
  178SAPS  C21920355   0.675   0.458   4.675 -0.1933  0.4816 -0.4110
  178SAPS  H19R20356   0.583   0.505   4.634 -0.8297 -0.1828  0.2161
  178SAPS  H19S20357   0.739   0.534   4.726  0.4067  0.1042 -0.5879
  178SAPS  C22020358   0.624   0.343   4.774  0.7458  0.1525 -0.2216
  178SAPS  H20R20359   0.544   0.390   4.834  1.4949  0.3939  0.6192
  178SAPS  H20S20360   0.697   0.301   4.847  1.6917  1.6434 -0.2718
  178SAPS  H20T20361   0.577   0.262   4.713 -1.8453  1.6804 -0.4039
  178SAPS   C3320362   1.981   0.424   3.217 -0.3520 -0.3283  0.4671
  178SAPS   H3X20363   2.044   0.340   3.253  1.2431  0.5242 -0.1900
  178SAPS   H3Y20364   1.881   0.388   3.247  0.2131 -1.3353  1.1775
  178SAPS   C3420365   2.011   0.555   3.288  0.7052  0.6020  0.1537
  178SAPS   H4X20366   1.964   0.643   3.239  0.3850  2.0739  2.8914
  178SAPS   H4Y20367   2.121   0.575   3.292  0.3811  3.2312 -1.2951
  178SAPS   C3520368   1.954   0.553   3.433  0.7498 -0.1410  0.3058
  178SAPS   H5X20369   1.843   0.562   3.438  0.8349  0.4449  1.4633
  178SAPS   H5Y20370   1.998   0.642   3.484  0.1072  0.3329  0.0418
  178SAPS   C3620371   2.003   0.430   3.507 -0.3508 -0.0638 -0.0370
  178SAPS   H6X20372   2.114   0.424   3.518 -0.5770 -0.3636  3.1573
  178SAPS   H6Y20373   1.966   0.344   3.448  0.2369  0.4538 -1.1750
  178SAPS   C3720374   1.952   0.425   3.646 -0.7331  0.6582 -1.3204
  178SAPS   H7X20375   1.999   0.339   3.699 -0.7488  0.1629 -2.0911
  178SAPS   H7Y20376   1.841   0.419   3.648 -0.6700 -0.9807 -0.9322
  178SAPS   C3820377   1.978   0.544   3.736 -0.3912  0.4157 -1.1041
  178SAPS   H8X20378   1.929   0.638   3.704  0.1400  0.9225 -0.4550
  178SAPS   H8Y20379   2.087   0.563   3.732  0.3462 -2.8953 -0.0472
  178SAPS   C3920380   1.931   0.518   3.883 -0.2720 -0.3471 -1.0517
  178SAPS   H9X20381   1.985   0.432   3.929  0.4004 -1.5650 -3.8806
  178SAPS   H9Y20382   1.822   0.496   3.884 -0.0734 -1.4468 -1.7678
  178SAPS  C31020383   1.941   0.646   3.966 -0.1045 -0.0245 -0.3401
  178SAPS  H10X20384   1.887   0.727   3.912 -0.3901 -0.2206 -0.3550
  178SAPS  H10Y20385   2.044   0.685   3.973  0.6567 -2.0848  1.2099
  178SAPS  C31120386   1.884   0.627   4.111 -0.4246 -0.1135 -0.0179
  178SAPS  H11X20387   1.914   0.537   4.168 -1.5753 -0.7306 -0.3648
  178SAPS  H11Y20388   1.777   0.607   4.087 -0.9088  1.3084  0.7974
  178SAPS  C31220389   1.911   0.752   4.199 -0.1632  0.2548 -0.1735
  178SAPS  H12X20390   1.877   0.845   4.147  0.9369  0.1826 -1.0552
  178SAPS  H12Y20391   2.021   0.767   4.202  0.0219 -0.8158 -0.9436
  178SAPS  C31320392   1.848   0.745   4.344  0.2066 -0.0287 -0.7501
  178SAPS  H13X20393   1.890   0.653   4.390 -0.8668 -0.9318 -1.5324
  178SAPS  H13Y20394   1.741   0.717   4.333  0.5444 -1.4640 -0.6397
  178SAPS  C31420395   1.848   0.868   4.435  0.0412 -0.2213  0.3047
  178SAPS  H14X20396   1.768   0.934   4.396 -0.4684 -1.7159 -1.3252
  178SAPS  H14Y20397   1.947   0.916   4.425 -0.2759  0.7326  1.6063
  178SAPS  C31520398   1.820   0.856   4.577 -0.1951  0.9070 -1.2432
  178SAPS  H15X20399   1.725   0.799   4.585  0.0328  0.5662 -0.9089
  178SAPS  H15Y20400   1.810   0.957   4.622  2.1138  0.3663  0.7350
  178SAPS  C31620401   1.932   0.783   4.657 -0.2004 -0.2665  0.0034
  178SAPS  H16X20402   2.027   0.838   4.642 -1.3572  2.0655  0.8601
  178SAPS  H16Y20403   1.931   0.680   4.614 -1.4774 -0.0696 -0.4633
  178SAPS  C31720404   1.906   0.787   4.807  0.5171 -0.2928 -0.2995
  178SAPS  H17X20405   1.824   0.714   4.827  2.0014 -1.6268  1.1984
  178SAPS  H17Y20406   1.877   0.887   4.847  1.1038  0.0963 -0.8479
  178SAPS  C31820407   2.025   0.738   4.882 -0.1307 -0.2103  0.1661
  178SAPS  H18X20408   2.028   0.771   4.988  2.1589  0.5494 -0.0770
  178SAPS  H18Y20409   2.113   0.789   4.837 -0.0454 -0.0202  0.5495
  178SAPS  H18Z20410   2.040   0.629   4.873  1.4672 -0.1503  1.7931
  179SAPS     N20411   6.545   6.327   2.529 -0.1777  0.2998  0.1100
  179SAPS   HN120412   6.613   6.315   2.606 -0.4041  3.0174  0.8330
  179SAPS   HN220413   6.509   6.231   2.511  0.5555  0.1128 -0.3812
  179SAPS   HN320414   6.570   6.360   2.433 -3.8427  3.8440  0.0785
  179SAPS   C1220415   6.427   6.412   2.580  0.2401 -0.7934  0.1025
  179SAPS  H12A20416   6.480   6.494   2.625  0.1727  1.0669 -2.9377
  179SAPS   C1320417   6.326   6.455   2.470 -0.0348 -0.0841  0.1713
  179SAPS  O13A20418   6.332   6.414   2.348 -0.4128 -0.1478  0.5364
  179SAPS  O13B20419   6.232   6.528   2.504  0.3775 -0.4851  0.2216
  179SAPS   C1120420   6.343   6.331   2.692 -0.0319 -0.1532 -0.0716
  179SAPS  H11A20421   6.311   6.237   2.641  2.1600 -0.8410 -0.2897
  179SAPS  H11B20422   6.261   6.390   2.738 -1.6264 -2.4720  0.2614
  179SAPS     P20423   6.379   6.181   2.893  0.0999 -0.0540  0.6686
  179SAPS   O1320424   6.409   6.046   2.835  0.2096  0.1491 -0.2604
  179SAPS   O1420425   6.430   6.203   3.034  0.6295 -0.8833  0.8318
  179SAPS   O1220426   6.434   6.300   2.804  0.2527 -0.0905 -0.2143
  179SAPS   O1120427   6.221   6.190   2.895 -0.4966 -0.1280 -0.2583
  179SAPS    C120428   6.140   6.138   2.998  0.4899 -0.2416 -0.8694
  179SAPS    HA20429   6.151   6.027   2.993  1.2824 -0.2028 -0.2612
  179SAPS    HB20430   6.176   6.174   3.097  1.8747  3.6911 -2.6029
  179SAPS    C220431   5.993   6.179   2.980  0.2393 -0.2212 -0.5310
  179SAPS    HS20432   5.968   6.154   2.875 -1.0962 -2.3195  0.2135
  179SAPS   O2120433   5.987   6.318   3.015  0.5141  0.5907  0.4083
  179SAPS   C2120434   5.888   6.385   2.952 -0.2589 -0.2271 -1.0309
  179SAPS   O2220435   5.803   6.333   2.884  0.1372  0.2131 -0.0589
  179SAPS   C2220436   5.883   6.529   3.000  0.4916 -0.3053 -0.5798
  179SAPS   H2R20437   5.974   6.583   2.965 -0.6908  3.1573  1.2185
  179SAPS   H2S20438   5.789   6.576   2.965  0.4023 -0.1680 -0.1687
  179SAPS    C320439   5.902   6.095   3.072  0.4154 -0.5433  0.2155
  179SAPS    HX20440   5.925   5.990   3.046 -1.5385 -1.4953  2.0521
  179SAPS    HY20441   5.798   6.126   3.048  0.9809  0.9175 -0.4907
  179SAPS   O3120442   5.946   6.121   3.204  0.1401  0.4476 -0.5966
  179SAPS   C3120443   5.862   6.198   3.287  0.5261 -0.1116  0.3544
  179SAPS   O3220444   5.746   6.225   3.262  0.0662  0.5888 -0.4262
  179SAPS   C3220445   5.933   6.253   3.410 -0.9661 -0.4604 -0.1439
  179SAPS   H2X20446   5.898   6.199   3.501  0.3385 -0.3988  0.4328
  179SAPS   H2Y20447   5.905   6.359   3.425  0.6711 -0.4201  3.7789
  179SAPS   C2320448   5.874   6.539   3.155 -0.3265  0.0448 -0.5512
  179SAPS   H3R20449   5.957   6.483   3.202  0.0684  1.1421  0.0702
  179SAPS   H3S20450   5.787   6.483   3.196  0.8012 -0.9520  0.5469
  179SAPS   C2420451   5.851   6.684   3.196  0.2549 -0.0075  0.2092
  179SAPS   H4R20452   5.799   6.674   3.294 -1.9640 -0.2956 -0.9218
  179SAPS   H4S20453   5.781   6.742   3.132 -0.3299 -0.0126  0.8258
  179SAPS   C2520454   5.980   6.770   3.216  0.6623  0.1154 -0.2181
  179SAPS   H5R20455   6.031   6.798   3.122  1.4791  1.5184  0.5975
  179SAPS   C2620456   6.033   6.791   3.339 -0.1051 -0.9584  1.0062
  179SAPS   H6R20457   6.122   6.855   3.341 -0.0694 -0.8861 -0.7652
  179SAPS   C2720458   5.975   6.727   3.460 -0.0077 -0.7605 -0.1077
  179SAPS   H7R20459   5.943   6.624   3.433 -0.0367 -0.7921  0.0476
  179SAPS   H7S20460   5.876   6.775   3.478 -0.1895 -1.2698  0.2501
  179SAPS   C2820461   6.076   6.729   3.578 -0.3621 -0.4374  0.4429
  179SAPS   H8R20462   6.165   6.793   3.564  0.2695 -1.3018  0.3899
  179SAPS   C2920463   6.062   6.663   3.692 -0.2552 -0.1057  0.4824
  179SAPS   H9R20464   6.146   6.673   3.763 -0.7784  0.7060  1.0096
  179SAPS  C21020465   5.952   6.580   3.753  0.0288 -0.1989 -0.4667
  179SAPS  H10R20466   5.966   6.471   3.739 -2.0156 -0.3516 -1.7865
  179SAPS  H10S20467   5.855   6.599   3.700  0.8016  1.4753 -1.3808
  179SAPS  C21120468   5.932   6.630   3.893 -1.3035 -0.7530  1.1002
  179SAPS  H11R20469   5.872   6.721   3.905 -3.4562 -1.4689 -2.5517
  179SAPS  C21220470   5.979   6.575   4.004  0.1248 -0.1924 -0.0697
  179SAPS  H12R20471   5.963   6.610   4.107  1.3495 -1.3184  0.5421
  179SAPS  C21320472   6.068   6.449   4.007 -0.1561  0.0597  0.3180
  179SAPS  H13R20473   6.148   6.453   4.084  0.1600 -0.1639  0.0080
  179SAPS  H13S20474   6.124   6.444   3.911  0.9037 -0.9771  0.9659
  179SAPS  C21420475   5.990   6.324   4.020 -0.7807 -0.8050 -0.7372
  179SAPS  H14R20476   5.970   6.266   3.929 -1.6623 -0.9600 -0.4535
  179SAPS  C21520477   5.934   6.276   4.131 -0.4254  0.4453 -1.2966
  179SAPS  H15R20478   5.885   6.178   4.122 -2.7197  1.4303 -0.2833
  179SAPS  C21620479   5.945   6.335   4.269  0.5302 -0.1544 -0.0156
  179SAPS  H16R20480   5.849   6.372   4.312 -0.3737 -0.1838 -1.9277
  179SAPS  H16S20481   6.015   6.421   4.258 -1.0035  1.1908  0.3432
  179SAPS  C21720482   6.014   6.234   4.354  0.9082 -0.3293  0.1205
  179SAPS  H17R20483   6.109   6.207   4.304  0.9209 -2.0740  1.0148
  179SAPS  H17S20484   5.960   6.140   4.375  3.3434 -1.7290  0.5060
  179SAPS  C21820485   6.033   6.287   4.494  0.1768  0.9465  0.0506
  179SAPS  H18R20486   5.937   6.285   4.549  1.0132 -0.7452  1.5623
  179SAPS  H18S20487   6.079   6.388   4.498 -0.2500  1.1324  3.0962
  179SAPS  C21920488   6.140   6.207   4.579  0.5710  0.0253 -0.6168
  179SAPS  H19R20489   6.161   6.271   4.668 -1.2196  0.8816 -0.7640
  179SAPS  H19S20490   6.230   6.194   4.514  1.1572 -0.8371  0.3441
  179SAPS  C22020491   6.096   6.068   4.627  0.2580 -0.0803 -0.3954
  179SAPS  H20R20492   6.063   5.992   4.554  0.6058 -0.7293  0.1069
  179SAPS  H20S20493   6.012   6.074   4.699  1.2529  2.3392  0.6789
  179SAPS  H20T20494   6.182   6.028   4.686 -0.5119  0.5950  1.2432
  179SAPS   C3320495   6.090   6.240   3.393 -0.1555  0.0540 -0.0767
  179SAPS   H3X20496   6.128   6.298   3.307  0.4362 -1.8753 -1.1811
  179SAPS   H3Y20497   6.120   6.136   3.366  2.7743  0.7663  0.1340
  179SAPS   C3420498   6.171   6.275   3.521 -0.0092  0.5088 -0.3013
  179SAPS   H4X20499   6.151   6.203   3.603  0.6709  1.3151  0.5872
  179SAPS   H4Y20500   6.130   6.372   3.554 -0.9283  0.6214 -1.6848
  179SAPS   C3520501   6.322   6.281   3.500  1.0355 -0.0055 -0.3102
  179SAPS   H5X20502   6.334   6.370   3.434  1.5117  0.5266  0.4846
  179SAPS   H5Y20503   6.354   6.188   3.449  1.7996 -0.6408  1.2878
  179SAPS   C3620504   6.399   6.325   3.622  0.8679 -0.5742  0.0392
  179SAPS   H6X20505   6.336   6.397   3.679  2.8675  1.0560  0.2963
  179SAPS   H6Y20506   6.488   6.373   3.576  0.1526  0.2622 -0.5031
  179SAPS   C3720507   6.441   6.198   3.699  0.3972  0.3659  0.1597
  179SAPS   H7X20508   6.488   6.124   3.631  2.8672  2.5052 -0.6144
  179SAPS   H7Y20509   6.350   6.167   3.754  0.4209  0.9423  0.5221
  179SAPS   C3820510   6.541   6.207   3.810  0.4445 -0.0771 -0.1292
  179SAPS   H8X20511   6.644   6.202   3.770  1.5191 -1.1746  2.5527
  179SAPS   H8Y20512   6.537   6.121   3.880  1.7542  0.2208  0.3464
  179SAPS   C3920513   6.526   6.328   3.904 -0.1175 -0.6699 -0.0217
  179SAPS   H9X20514   6.422   6.353   3.933  0.0463  0.6039 -0.4475
  179SAPS   H9Y20515   6.555   6.424   3.856 -2.3681  0.9886  1.6808
  179SAPS  C31020516   6.617   6.305   4.027 -0.1822  0.2353 -0.7826
  179SAPS  H10X20517   6.714   6.277   3.981  0.7229 -0.3785  1.3474
  179SAPS  H10Y20518   6.582   6.212   4.076  1.3449 -0.5372 -1.0854
  179SAPS  C31120519   6.646   6.409   4.132 -0.0905 -0.8681 -0.3227
  179SAPS  H11X20520   6.710   6.491   4.091  0.9959 -0.4493  2.0317
  179SAPS  H11Y20521   6.701   6.360   4.215 -1.6238  0.8199  1.8057
  179SAPS  C31220522   6.519   6.469   4.186  0.3425 -0.5466 -0.2276
  179SAPS  H12X20523   6.451   6.383   4.176  1.6240 -1.4290 -1.7633
  179SAPS  H12Y20524   6.473   6.546   4.121 -1.3766 -1.2643  0.1031
  179SAPS  C31320525   6.526   6.523   4.333  0.2523 -0.1934 -0.3948
  179SAPS  H13X20526   6.608   6.596   4.349  1.1582 -1.3290  0.3469
  179SAPS  H13Y20527   6.555   6.437   4.396 -2.2490 -1.1471 -0.4164
  179SAPS  C31420528   6.382   6.561   4.382  0.1890  0.2992 -0.0266
  179SAPS  H14X20529   6.314   6.484   4.340  1.0563 -1.3322  1.4302
  179SAPS  H14Y20530   6.356   6.659   4.337 -2.5453 -0.8312 -1.1226
  179SAPS  C31520531   6.361   6.560   4.537 -0.1663  0.1630  0.1571
  179SAPS  H15X20532   6.402   6.467   4.582  2.2708 -0.2645 -2.6009
  179SAPS  H15Y20533   6.254   6.562   4.567 -0.7946  2.2766 -1.9339
  179SAPS  C31620534   6.440   6.675   4.601  0.0485 -0.2865  0.0186
  179SAPS  H16X20535   6.423   6.775   4.557  1.9790 -0.2680 -0.7702
  179SAPS  H16Y20536   6.548   6.655   4.584  0.8212  1.4763  2.3540
  179SAPS  C31720537   6.417   6.685   4.749 -0.8748 -0.2567 -0.3456
  179SAPS  H17X20538   6.442   6.595   4.809  1.0147  0.7717  0.4734
  179SAPS  H17Y20539   6.308   6.695   4.771 -0.7937 -0.1877  0.0181
  179SAPS  C31820540   6.486   6.809   4.813 -0.0226  0.0338  0.0118
  179SAPS  H18X20541   6.433   6.902   4.787 -1.6235 -0.6561  0.6694
  179SAPS  H18Y20542   6.594   6.810   4.789 -0.0710 -2.6368 -0.7053
  179SAPS  H18Z20543   6.483   6.791   4.923 -2.9362 -1.1551 -0.1577
  180SAPS     N20544   2.048   3.994   2.461  0.6431  0.1918 -0.2759
  180SAPS   HN120545   2.115   4.048   2.403  1.3804  0.7599  1.0597
  180SAPS   HN220546   2.076   4.010   2.560 -0.8643  2.9448 -0.1907
  180SAPS   HN320547   2.045   3.893   2.436 -0.9574 -0.0196  0.6243
  180SAPS   C1220548   1.902   4.056   2.449  0.6946  0.0464  0.0845
  180SAPS  H12A20549   1.915   4.162   2.435 -0.8983  0.3147  0.5029
  180SAPS   C1320550   1.812   4.007   2.326  0.3004 -0.5095 -0.2438
  180SAPS  O13A20551   1.872   3.939   2.235  0.4807 -0.0814  0.0609
  180SAPS  O13B20552   1.705   4.066   2.303  0.2316 -0.0535  0.7106
  180SAPS   C1120553   1.828   4.054   2.582 -0.2121 -0.3632 -0.1149
  180SAPS  H11A20554   1.806   3.947   2.600  0.1196 -0.4362 -0.1490
  180SAPS  H11B20555   1.726   4.098   2.575 -0.3540 -0.8623 -1.4003
  180SAPS     P20556   1.923   4.260   2.726 -0.3952  0.3075  0.0783
  180SAPS   O1320557   2.047   4.303   2.662  0.6981  0.2484 -0.0329
  180SAPS   O1420558   1.796   4.330   2.680 -0.5771 -0.1041 -0.6580
  180SAPS   O1220559   1.914   4.108   2.683  0.2243  0.4994 -0.0035
  180SAPS   O1120560   1.939   4.259   2.881 -0.1935  0.3400  0.3540
  180SAPS    C120561   2.025   4.160   2.942  0.0798  0.2301  0.1245
  180SAPS    HA20562   2.103   4.123   2.872 -0.8001 -1.2673 -0.0954
  180SAPS    HB20563   2.079   4.197   3.032  0.4460 -0.0936  0.0419
  180SAPS    C220564   1.938   4.042   3.004  0.4936  0.4753 -0.1922
  180SAPS    HS20565   1.865   3.998   2.933 -1.0185 -0.0855  1.6529
  180SAPS   O2120566   1.876   4.082   3.127 -0.3981 -0.4212  0.0993
  180SAPS   C2120567   1.751   4.113   3.119 -0.2250  1.0480  0.8917
  180SAPS   O2220568   1.683   4.126   3.014 -0.0328 -0.3856  0.3438
  180SAPS   C2220569   1.690   4.132   3.259  1.2549 -0.3555 -0.7043
  180SAPS   H2R20570   1.742   4.209   3.321  0.5367 -1.0879  0.8432
  180SAPS   H2S20571   1.585   4.167   3.253  1.1032 -0.1601  2.0694
  180SAPS    C320572   2.047   3.935   3.037  0.2394 -0.2490 -0.1641
  180SAPS    HX20573   2.124   3.988   3.097  0.0681  0.5566 -0.6429
  180SAPS    HY20574   2.092   3.888   2.947  2.1486 -0.1416  0.6841
  180SAPS   O3120575   2.001   3.826   3.120  0.0498  0.2881 -0.0619
  180SAPS   C3120576   1.907   3.749   3.060  0.5182 -0.1162  0.3842
  180SAPS   O3220577   1.892   3.747   2.937 -0.1161  0.7198 -0.2092
  180SAPS   C3220578   1.833   3.664   3.161 -0.1411 -0.3852 -0.1531
  180SAPS   H2X20579   1.833   3.715   3.259 -2.5683  1.2269 -0.8939
  180SAPS   H2Y20580   1.895   3.573   3.179 -0.5327 -0.2828  1.9115
  180SAPS   C2320581   1.700   4.007   3.347  0.2841  0.3679  0.1769
  180SAPS   H3R20582   1.808   3.981   3.353  0.3668  0.5514 -0.4377
  180SAPS   H3S20583   1.649   3.920   3.300  0.1644  0.0542  0.8767
  180SAPS   C2420584   1.635   4.018   3.483  0.1888  0.1769 -0.4787
  180SAPS   H4R20585   1.524   4.026   3.488  0.0501 -1.1653 -0.8737
  180SAPS   H4S20586   1.659   4.122   3.511  1.2776 -0.2881  0.3713
  180SAPS   C2520587   1.682   3.913   3.587 -0.1548  0.3622  0.5775
  180SAPS   H5R20588   1.740   3.828   3.548  0.7204  0.8464  0.7995
  180SAPS   C2620589   1.624   3.903   3.711 -0.1538 -0.2415 -0.9652
  180SAPS   H6R20590   1.653   3.811   3.764  1.5228  0.6101 -0.3267
  180SAPS   C2720591   1.524   3.997   3.764  0.2373 -0.4499 -1.1279
  180SAPS   H7R20592   1.429   3.939   3.766 -0.0727  0.0399  1.5436
  180SAPS   H7S20593   1.506   4.085   3.699  0.1844 -2.5119 -4.0968
  180SAPS   C2820594   1.559   4.036   3.907 -0.0697 -0.3130 -0.3096
  180SAPS   H8R20595   1.615   4.131   3.908 -0.1822 -0.2091 -1.6601
  180SAPS   C2920596   1.555   3.953   4.011  1.1850  0.0920 -0.5063
  180SAPS   H9R20597   1.589   3.981   4.111 -2.4419  0.1347  0.8510
  180SAPS  C21020598   1.510   3.807   4.022 -0.0406  0.5957 -0.3773
  180SAPS  H10R20599   1.458   3.774   3.930 -3.4960  2.4697  0.7127
  180SAPS  H10S20600   1.431   3.804   4.100  0.7676  0.3198  0.4531
  180SAPS  C21120601   1.617   3.704   4.049 -0.9889 -0.3333 -0.5130
  180SAPS  H11R20602   1.693   3.709   3.969  0.6525  1.8541  1.0790
  180SAPS  C21220603   1.640   3.640   4.165 -0.4015  0.0818  0.3054
  180SAPS  H12R20604   1.730   3.576   4.162 -0.5874 -0.1438 -0.7871
  180SAPS  C21320605   1.545   3.638   4.282 -0.0744  0.3547  0.2107
  180SAPS  H13R20606   1.537   3.532   4.315  2.3777 -0.5833 -1.8774
  180SAPS  H13S20607   1.438   3.654   4.255 -0.5977 -0.2754  1.7803
  180SAPS  C21420608   1.595   3.721   4.396  0.3925 -0.1107  0.5539
  180SAPS  H14R20609   1.689   3.776   4.377 -0.1980  0.9874  0.7093
  180SAPS  C21520610   1.525   3.735   4.505 -0.1318  0.2601  0.1138
  180SAPS  H15R20611   1.563   3.804   4.582 -1.3781  1.5319 -0.3783
  180SAPS  C21620612   1.389   3.668   4.534  0.0429  0.0958  0.4576
  180SAPS  H16R20613   1.388   3.615   4.632  0.2348 -0.1251  0.3405
  180SAPS  H16S20614   1.358   3.604   4.449  1.9576  1.0627 -1.0601
  180SAPS  C21720615   1.276   3.770   4.559 -0.7508  1.0844  0.0534
  180SAPS  H17R20616   1.180   3.717   4.544  0.3573 -1.4747  1.4224
  180SAPS  H17S20617   1.273   3.858   4.491  0.9847  1.9799  1.0405
  180SAPS  C21820618   1.266   3.814   4.708 -0.5610  0.0312  0.0634
  180SAPS  H18R20619   1.276   3.723   4.770  1.2360 -0.4145 -0.8092
  180SAPS  H18S20620   1.163   3.852   4.725 -0.6454  0.1583 -0.6727
  180SAPS  C21920621   1.365   3.928   4.746  0.6530 -0.2902  0.9215
  180SAPS  H19R20622   1.340   4.017   4.685  0.0404 -2.2827 -1.9060
  180SAPS  H19S20623   1.468   3.891   4.726 -0.2488 -2.5837  0.1530
  180SAPS  C22020624   1.359   3.948   4.896  0.2817 -0.2214 -0.2103
  180SAPS  H20R20625   1.399   4.050   4.910 -2.4736  0.9768 -0.4951
  180SAPS  H20S20626   1.256   3.940   4.936 -0.1005 -0.9137 -1.3024
  180SAPS  H20T20627   1.423   3.877   4.954 -0.6354 -0.5292  0.4454
  180SAPS   C3320628   1.682   3.634   3.128 -0.0684 -0.2002  0.0484
  180SAPS   H3X20629   1.665   3.581   3.032 -0.0822  0.2931 -0.2252
  180SAPS   H3Y20630   1.628   3.731   3.120  0.4441  0.1391  0.5550
  180SAPS   C3420631   1.616   3.545   3.234  0.2468 -0.0155 -0.1714
  180SAPS   H4X20632   1.684   3.458   3.247 -1.1865 -1.0272  0.7461
  180SAPS   H4Y20633   1.512   3.517   3.205  0.1643 -1.0596  1.0328
  180SAPS   C3520634   1.598   3.596   3.379 -0.2885  0.0198  0.0949
  180SAPS   H5X20635   1.529   3.682   3.366 -0.1883  0.1567  0.4465
  180SAPS   H5Y20636   1.698   3.632   3.411  0.9544 -3.1007  0.0206
  180SAPS   C3620637   1.530   3.492   3.468  0.3468 -0.7517 -0.0991
  180SAPS   H6X20638   1.598   3.405   3.482  2.3703  1.0697  2.1246
  180SAPS   H6Y20639   1.435   3.457   3.421 -0.1006  2.3681 -1.7745
  180SAPS   C3720640   1.511   3.544   3.613  0.0595  0.0322 -0.4342
  180SAPS   H7X20641   1.483   3.651   3.620 -1.3589 -0.3207 -0.3464
  180SAPS   H7Y20642   1.605   3.531   3.670 -1.4218 -0.0194  2.1479
  180SAPS   C3820643   1.415   3.449   3.691 -0.7535 -0.0835  0.2093
  180SAPS   H8X20644   1.448   3.345   3.668  3.1593  1.1438 -0.4328
  180SAPS   H8Y20645   1.321   3.466   3.634  0.0207  1.6321 -0.6107
  180SAPS   C3920646   1.406   3.461   3.842 -0.0432 -0.0678 -0.6402
  180SAPS   H9X20647   1.373   3.564   3.868  1.3808  0.4841 -0.9287
  180SAPS   H9Y20648   1.512   3.462   3.877 -0.2187 -0.1280 -0.1079
  180SAPS  C31020649   1.318   3.357   3.915  0.1940 -0.5803 -0.1077
  180SAPS  H10X20650   1.350   3.252   3.903 -1.2527 -0.9786 -0.6289
  180SAPS  H10Y20651   1.214   3.375   3.881 -0.0423  0.3272  1.0077
  180SAPS  C31120652   1.309   3.381   4.071  0.0116 -0.2576 -0.1075
  180SAPS  H11X20653   1.278   3.488   4.073 -2.0764 -0.8219  2.0483
  180SAPS  H11Y20654   1.410   3.371   4.116  0.1315  1.4269  0.0555
  180SAPS  C31220655   1.199   3.295   4.136 -0.9978  0.2680  0.2154
  180SAPS  H12X20656   1.228   3.190   4.113 -0.3470  0.1547  1.4799
  180SAPS  H12Y20657   1.102   3.325   4.090 -2.1377 -1.6546  1.2412
  180SAPS  C31320658   1.188   3.308   4.281 -0.0904 -0.7909 -0.7098
  180SAPS  H13X20659   1.195   3.416   4.306  1.0065 -0.8175 -0.8734
  180SAPS  H13Y20660   1.270   3.253   4.332  0.0013 -0.3477 -0.3732
  180SAPS  C31420661   1.056   3.254   4.335  0.1288  0.3872  0.0187
  180SAPS  H14X20662   1.043   3.148   4.304  0.3211 -0.1942  1.8414
  180SAPS  H14Y20663   0.988   3.318   4.275  1.4004  1.1650 -0.6340
  180SAPS  C31520664   1.047   3.267   4.482 -0.2627  0.0134 -0.1798
  180SAPS  H15X20665   1.113   3.352   4.510  1.4399 -1.3046  0.0064
  180SAPS  H15Y20666   1.101   3.179   4.524 -0.5940 -0.2200 -0.2397
  180SAPS  C31620667   0.907   3.284   4.540 -0.3589 -0.4578 -0.6713
  180SAPS  H16X20668   0.846   3.196   4.510 -0.3521 -0.5080 -0.5359
  180SAPS  H16Y20669   0.863   3.371   4.486  0.4007 -0.1458 -0.8165
  180SAPS  C31720670   0.901   3.291   4.695 -0.5421 -0.8100  0.9386
  180SAPS  H17X20671   0.803   3.335   4.724  1.1816  3.7642  0.6748
  180SAPS  H17Y20672   0.975   3.362   4.737 -1.1654  0.2998  0.2206
  180SAPS  C31820673   0.934   3.167   4.772  0.0131  0.0472 -0.2449
  180SAPS  H18X20674   1.011   3.099   4.730 -2.4588 -2.0335 -1.7289
  180SAPS  H18Y20675   0.840   3.107   4.769  0.4409 -0.6848  0.6050
  180SAPS  H18Z20676   0.949   3.201   4.877  0.2683 -2.5890  0.6535
  181POPC     N20677   0.179   5.777   6.858 -0.8737 -0.8368 -0.0068
  181POPC   C1220678   0.227   5.632   6.844 -0.7619  0.2287  0.7960
  181POPC  H12A20679   0.147   5.565   6.872 -1.5770  1.0480  0.4805
  181POPC  H12B20680   0.305   5.615   6.916 -2.4221  0.2577  2.6952
  181POPC   C1320681   0.137   5.794   7.001  0.0829  1.1965  0.5543
  181POPC  H13A20682   0.054   5.738   7.041 -0.3977  0.3599 -1.4871
  181POPC  H13B20683   0.219   5.780   7.071  0.3145 -0.4884  0.0050
  181POPC  H13C20684   0.116   5.896   7.026 -0.5305  1.0467  0.6583
  181POPC   C1420685   0.293   5.869   6.847  0.0782 -0.6382 -0.2025
  181POPC  H14A20686   0.271   5.974   6.841  0.8916 -0.4463 -0.0125
  181POPC  H14B20687   0.364   5.849   6.926 -1.3036 -1.0188  0.9687
  181POPC  H14C20688   0.349   5.850   6.756  4.2338 -0.4724  2.0812
  181POPC   C1520689   0.067   5.808   6.758  1.3635  1.0206 -0.7489
  181POPC  H15A20690   0.043   5.912   6.771  2.5095  1.3588 -1.2479
  181POPC  H15B20691  -0.015   5.741   6.784  1.1155  2.6414  3.5263
  181POPC  H15C20692   0.115   5.798   6.662  0.6752 -0.1807 -0.9929
  181POPC   C1120693   0.271   5.575   6.707  0.2664  0.3789 -0.1157
  181POPC  H11A20694   0.184   5.579   6.638  0.7348 -0.3843 -0.7725
  181POPC  H11B20695   0.292   5.466   6.715  0.3553  0.3604 -0.5870
  181POPC     P20696   0.521   5.602   6.717 -0.0946 -0.2686 -0.5456
  181POPC   O1320697   0.513   5.485   6.810 -0.0710  0.2947  0.0182
  181POPC   O1420698   0.594   5.725   6.772  0.0817 -0.2820  0.6793
  181POPC   O1220699   0.381   5.642   6.651  0.5030  0.2601  0.1242
  181POPC   O1120700   0.605   5.549   6.595 -0.0565 -0.4550  0.4104
  181POPC    C120701   0.553   5.459   6.498 -0.3847 -0.4334  0.8108
  181POPC    HA20702   0.443   5.460   6.482 -0.4333 -0.1666  1.1368
  181POPC    HB20703   0.576   5.356   6.532  0.9673 -0.0452  1.1337
  181POPC    C220704   0.633   5.483   6.366  0.3067 -0.9229 -0.6712
  181POPC    HS20705   0.583   5.425   6.286  0.3362 -0.4492 -1.0370
  181POPC   O2120706   0.768   5.447   6.396 -0.3870  0.3187 -0.1092
  181POPC   C2120707   0.793   5.317   6.369  0.0481 -0.6537  0.0991
  181POPC   O2220708   0.714   5.231   6.335 -0.2890  0.0366 -0.2117
  181POPC   C2220709   0.942   5.298   6.373  0.2603  0.0616  0.5391
  181POPC   H2R20710   0.975   5.195   6.349 -0.0822 -0.1518  0.9654
  181POPC   H2S20711   0.977   5.325   6.475  0.6717  1.9556 -0.0567
  181POPC    C320712   0.623   5.630   6.319 -0.6077 -0.8894 -0.5695
  181POPC    HX20713   0.680   5.699   6.385 -1.5199 -0.7130  0.0570
  181POPC    HY20714   0.516   5.656   6.333 -0.1283  1.4324 -0.8339
  181POPC   O3120715   0.658   5.637   6.178 -0.1983 -0.5613  0.1633
  181POPC   C3120716   0.760   5.715   6.152 -0.7453 -0.1728  0.3171
  181POPC   O3220717   0.812   5.797   6.227  0.3985  0.1056 -0.1455
  181POPC   C3220718   0.795   5.688   6.007  0.3686 -0.3214  0.7329
  181POPC   H2X20719   0.781   5.579   5.995 -3.1288  0.1140 -0.4167
  181POPC   H2Y20720   0.896   5.727   5.983 -0.4454  0.5877 -1.4882
  181POPC   C2320721   1.032   5.388   6.273  0.1863 -0.3269  0.2863
  181POPC   H3R20722   1.140   5.361   6.267  0.2445 -0.2496  0.9355
  181POPC   H3S20723   1.022   5.495   6.300 -1.7184 -0.4597  0.2430
  181POPC   C2420724   0.985   5.379   6.126  0.2917 -0.0593 -0.6751
  181POPC   H4R20725   1.037   5.459   6.069  2.0511 -0.9337 -0.3702
  181POPC   H4S20726   0.876   5.399   6.116  0.0514 -0.7449  0.3881
  181POPC   C2520727   1.021   5.244   6.054 -0.4111  0.5828 -0.9886
  181POPC   H5R20728   0.979   5.161   6.116 -1.9325  2.7337  1.0628
  181POPC   H5S20729   1.131   5.253   6.051 -0.5172  4.1572  0.2061
  181POPC   C2620730   0.946   5.240   5.913  0.0461 -0.3045  0.6924
  181POPC   H6R20731   0.838   5.217   5.930  0.7489 -3.3059  1.7835
  181POPC   H6S20732   0.983   5.154   5.853  2.8679  0.3195  1.3947
  181POPC   C2720733   0.966   5.363   5.825 -0.2244 -0.3822  0.3285
  181POPC   H7R20734   1.060   5.420   5.846 -1.0022  0.6236  1.2304
  181POPC   H7S20735   0.895   5.436   5.869 -1.2339 -1.4952  0.5586
  181POPC   C2820736   0.908   5.345   5.685 -0.5259  0.9656  0.3793
  181POPC   H8R20737   0.890   5.440   5.629  0.5378  0.1327 -1.4520
  181POPC   H8S20738   0.804   5.305   5.692  0.0463 -0.2959  2.2612
  181POPC   C2920739   0.998   5.252   5.604  0.1586 -0.1594  0.4899
  181POPC   H9120740   1.100   5.290   5.588 -0.2580  0.6020 -0.4442
  181POPC  C21020741   0.954   5.149   5.525 -0.0850  0.2175  0.0318
  181POPC  H10120742   1.030   5.083   5.481  0.3950  0.3796  0.5967
  181POPC  C21120743   0.815   5.100   5.535 -0.2892  0.1680  0.3655
  181POPC  H11R20744   0.762   5.161   5.458  1.8842  1.2810 -0.3182
  181POPC  H11S20745   0.768   5.117   5.634  0.2559  1.9253  0.3482
  181POPC  C21220746   0.810   4.955   5.488  0.0808  0.3106  0.0006
  181POPC  H12R20747   0.858   4.883   5.557  0.8167  2.2990  1.6419
  181POPC  H12S20748   0.855   4.943   5.387 -2.4080 -1.1477 -1.0565
  181POPC  C21320749   0.662   4.906   5.471  0.1007  0.0871 -1.1177
  181POPC  H13R20750   0.588   4.984   5.443  0.1641  0.3439 -0.5793
  181POPC  H13S20751   0.632   4.881   5.574 -0.1107  0.0766 -1.1808
  181POPC  C21420752   0.633   4.793   5.369 -0.0593  1.0824  0.0706
  181POPC  H14R20753   0.654   4.694   5.415 -1.3146  0.8780  0.2579
  181POPC  H14S20754   0.687   4.808   5.273 -0.8840  0.0899 -0.5687
  181POPC  C21520755   0.483   4.784   5.345 -0.2129  0.1225 -0.5773
  181POPC  H15R20756   0.466   4.867   5.272 -1.5006 -0.7367 -1.3022
  181POPC  H15S20757   0.428   4.810   5.438  2.0633  2.2412  0.2853
  181POPC  C21620758   0.430   4.656   5.282 -0.0655  0.0790 -0.0316
  181POPC  H16R20759   0.321   4.673   5.266 -0.4551 -3.3937 -2.0377
  181POPC  H16S20760   0.446   4.570   5.350  2.2408  1.4808  1.3289
  181POPC  C21720761   0.481   4.614   5.141  0.0164 -0.4330  0.1471
  181POPC  H17R20762   0.591   4.600   5.136  0.0287 -0.3273  0.1220
  181POPC  H17S20763   0.459   4.699   5.072  0.3404  0.9533  1.6856
  181POPC  C21820764   0.407   4.494   5.079  0.0275  0.0196  0.4368
  181POPC  H18R20765   0.297   4.494   5.093  0.0818 -0.3918  0.9011
  181POPC  H18S20766   0.442   4.394   5.112  0.5066 -0.2101 -0.7364
  181POPC  H18T20767   0.431   4.485   4.971  0.0146  0.4471  0.3938
  181POPC   C3320768   0.707   5.766   5.908  0.0826 -0.6783 -0.6584
  181POPC   H3X20769   0.598   5.760   5.928  0.2189 -0.5427  0.1431
  181POPC   H3Y20770   0.714   5.706   5.815  1.5584 -0.5190 -0.6803
  181POPC   C3420771   0.732   5.920   5.878  0.2693  0.6279  0.8046
  181POPC   H4X20772   0.836   5.947   5.906  1.2804 -1.4003 -0.7243
  181POPC   H4Y20773   0.674   5.992   5.939 -3.1450 -0.6874 -0.6341
  181POPC   C3520774   0.708   5.943   5.723 -0.3630  0.0300 -0.1492
  181POPC   H5X20775   0.767   5.868   5.666  1.6133  2.2406 -1.1978
  181POPC   H5Y20776   0.763   6.038   5.708 -1.3469  1.0705  2.3495
  181POPC   C3620777   0.562   5.939   5.681 -0.6006  0.5409  0.8835
  181POPC   H6X20778   0.495   6.001   5.745 -0.3316  0.3148  1.3928
  181POPC   H6Y20779   0.531   5.832   5.678 -1.7083  0.8798 -1.0517
  181POPC   C3720780   0.536   5.989   5.537 -0.7046 -0.7063  0.1938
  181POPC   H7X20781   0.624   5.951   5.480 -0.2128  1.9336 -0.9309
  181POPC   H7Y20782   0.534   6.099   5.520  2.3933 -0.5317  0.3818
  181POPC   C3820783   0.413   5.927   5.478  0.2584  0.1695  0.3954
  181POPC   H8X20784   0.329   5.938   5.549  0.0256 -2.5300  0.6491
  181POPC   H8Y20785   0.427   5.817   5.479 -1.9404 -0.1674 -0.4408
  181POPC   C3920786   0.381   5.954   5.329 -0.1640 -0.0012 -0.3355
  181POPC   H9X20787   0.305   5.880   5.297 -0.0941 -0.7694  1.1476
  181POPC   H9Y20788   0.475   5.926   5.277  1.7535  0.3571  2.6819
  181POPC  C31020789   0.340   6.096   5.287  0.2230 -0.9235  0.0105
  181POPC  H10X20790   0.408   6.163   5.344  0.8564 -3.5559  2.6249
  181POPC  H10Y20791   0.232   6.118   5.299  0.5176  2.7254 -2.6128
  181POPC  C31120792   0.372   6.122   5.134 -0.6707  0.3170 -0.3997
  181POPC  H11X20793   0.302   6.055   5.080 -0.4241 -1.2479  1.1424
  181POPC  H11Y20794   0.472   6.090   5.099 -1.2493 -1.1186 -0.8155
  181POPC  C31220795   0.354   6.266   5.085  0.2748 -0.0617 -0.0364
  181POPC  H12X20796   0.247   6.293   5.092  0.4789  1.0649 -1.0105
  181POPC  H12Y20797   0.391   6.283   4.982 -1.4785  1.0532 -0.5084
  181POPC  C31320798   0.430   6.375   5.160  0.4147  0.0725  0.0121
  181POPC  H13X20799   0.410   6.387   5.269  0.9160  1.0887  0.0043
  181POPC  H13Y20800   0.414   6.471   5.108  0.1377  1.3306  2.2920
  181POPC  C31420801   0.584   6.345   5.163 -0.8696 -0.0838  0.4994
  181POPC  H14X20802   0.617   6.326   5.058 -3.8434  0.6947 -0.6878
  181POPC  H14Y20803   0.607   6.259   5.229  0.2120  1.1993  1.8517
  181POPC  C31520804   0.664   6.468   5.218 -0.0660 -0.0013  0.2586
  181POPC  H15X20805   0.597   6.502   5.300 -1.5821  0.6382 -1.1755
  181POPC  H15Y20806   0.659   6.546   5.139 -1.1412 -0.5071 -0.1967
  181POPC  C31620807   0.808   6.437   5.257  0.4925  0.2154 -0.5743
  181POPC  H16X20808   0.870   6.529   5.252 -2.4547  2.3317 -0.6430
  181POPC  H16Y20809   0.852   6.367   5.183  1.2417  0.3493 -0.2653
  181POPC  H16Z20810   0.823   6.386   5.354 -0.1221  0.3719 -0.3921
  182POPC     N20811   5.459   2.981   7.481  0.3525 -0.9956  0.2948
  182POPC   C1220812   5.466   3.128   7.530 -0.3766 -0.9473 -0.2254
  182POPC  H12A20813   5.521   3.135   7.622  0.1187 -2.3692 -0.3778
  182POPC  H12B20814   5.368   3.160   7.563  1.0024  1.3697  2.0047
  182POPC   C1320815   5.593   2.909   7.495 -0.4480 -0.0504 -0.3184
  182POPC  H13A20816   5.640   2.921   7.592  1.7752 -0.6665 -1.2410
  182POPC  H13B20817   5.577   2.803   7.482 -2.2085  0.3555 -1.7302
  182POPC  H13C20818   5.663   2.942   7.419 -0.1964  0.2546  0.0420
  182POPC   C1420819   5.361   2.904   7.560  0.4070 -0.0416  0.1412
  182POPC  H14A20820   5.258   2.937   7.546  0.4479  0.1832  0.3607
  182POPC  H14B20821   5.364   2.799   7.539 -1.5686 -0.0136 -0.4965
  182POPC  H14C20822   5.375   2.914   7.666 -0.9196 -0.8666  0.4220
  182POPC   C1520823   5.426   2.970   7.334 -0.4317  0.2003 -0.2456
  182POPC  H15A20824   5.327   3.003   7.311 -0.6310  1.5035  2.1228
  182POPC  H15B20825   5.441   2.866   7.309 -1.1237  0.3375 -1.2582
  182POPC  H15C20826   5.497   3.029   7.277  1.2890 -0.5185  1.0414
  182POPC   C1120827   5.526   3.243   7.435  0.1391 -0.5126  0.1167
  182POPC  H11A20828   5.506   3.337   7.490  3.4341  0.8308 -0.6968
  182POPC  H11B20829   5.469   3.232   7.341  2.0293 -2.5447 -0.8918
  182POPC     P20830   5.741   3.258   7.294 -0.5671 -0.2155  0.1027
  182POPC   O1320831   5.878   3.201   7.304  0.0272  0.0526 -0.1608
  182POPC   O1420832   5.730   3.404   7.281  0.3101 -0.2141 -0.4805
  182POPC   O1220833   5.668   3.221   7.425 -0.4119 -0.0971 -0.0494
  182POPC   O1120834   5.655   3.179   7.187 -0.4563  0.1447  0.4336
  182POPC    C120835   5.721   3.107   7.082 -0.2488  0.8711  0.0966
  182POPC    HA20836   5.720   2.999   7.107 -2.2220  0.5545 -1.0793
  182POPC    HB20837   5.824   3.141   7.058 -0.2218  0.8572  0.1940
  182POPC    C220838   5.645   3.131   6.950  0.3199  0.5164  0.5395
  182POPC    HS20839   5.705   3.082   6.869 -0.8805  1.0248 -0.6905
  182POPC   O2120840   5.636   3.269   6.911 -0.0698 -0.1805  0.1462
  182POPC   C2120841   5.746   3.325   6.861 -0.2671  0.1316 -0.0584
  182POPC   O2220842   5.855   3.270   6.841  0.2515 -0.0860  0.6858
  182POPC   C2220843   5.712   3.471   6.820  0.2892  0.2506 -0.0226
  182POPC   H2R20844   5.765   3.536   6.892  1.4932 -1.0233  0.2955
  182POPC   H2S20845   5.603   3.487   6.832  0.0684 -1.8511  1.5121
  182POPC    C320846   5.504   3.068   6.955  0.4453  0.0543 -0.1867
  182POPC    HX20847   5.451   3.111   7.042  1.4837  0.9287  0.0423
  182POPC    HY20848   5.513   2.960   6.980  0.9414 -0.0009 -0.5728
  182POPC   O3120849   5.423   3.077   6.834 -0.0469 -0.0022  0.1164
  182POPC   C3120850   5.338   3.176   6.825  0.0279 -0.2669  0.3464
  182POPC   O3220851   5.325   3.266   6.907  0.1461 -0.0197 -0.2558
  182POPC   C3220852   5.261   3.164   6.691 -0.6594 -0.6730  0.6702
  182POPC   H2X20853   5.196   3.075   6.703 -2.0656 -0.5390 -3.9554
  182POPC   H2Y20854   5.325   3.167   6.600 -0.6898 -1.1879  0.6278
  182POPC   C2320855   5.764   3.489   6.675 -0.4145 -0.6845  0.0560
  182POPC   H3R20856   5.867   3.448   6.666 -0.8659 -1.8209 -0.1160
  182POPC   H3S20857   5.772   3.596   6.645  1.3515 -0.4161  1.3247
  182POPC   C2420858   5.676   3.425   6.573 -0.6717 -0.4874  0.2420
  182POPC   H4R20859   5.686   3.315   6.583 -1.6986 -0.4349  2.2954
  182POPC   H4S20860   5.719   3.456   6.475 -1.3387 -0.0803  0.0763
  182POPC   C2520861   5.530   3.444   6.581  0.0628 -0.0406 -0.2617
  182POPC   H5R20862   5.504   3.552   6.574  0.6341  0.3283  2.3261
  182POPC   H5S20863   5.488   3.398   6.674 -0.2237 -0.8119 -0.7629
  182POPC   C2620864   5.444   3.398   6.465 -0.0346  0.2807 -0.3779
  182POPC   H6R20865   5.343   3.441   6.482 -0.5495 -1.2018  0.5018
  182POPC   H6S20866   5.432   3.287   6.467  0.4788  0.2243  0.5930
  182POPC   C2720867   5.492   3.453   6.331 -0.2384  1.5851 -0.1302
  182POPC   H7R20868   5.593   3.419   6.297 -1.0057  0.5039 -1.4604
  182POPC   H7S20869   5.502   3.563   6.333  0.5076  1.5199  0.0519
  182POPC   C2820870   5.392   3.433   6.219  0.3751  0.3403 -0.6464
  182POPC   H8R20871   5.301   3.489   6.249  1.7616  0.4608  3.9453
  182POPC   H8S20872   5.367   3.327   6.240  0.1586  0.7807  1.5162
  182POPC   C2920873   5.449   3.466   6.083  0.0534  0.3590 -0.3385
  182POPC   H9120874   5.535   3.403   6.055 -0.9102 -0.0997 -2.4754
  182POPC  C21020875   5.399   3.550   5.991 -0.0781 -0.3441  1.0322
  182POPC  H10120876   5.443   3.549   5.890  0.6466 -0.1240  1.3364
  182POPC  C21120877   5.277   3.628   6.013  0.1867 -0.0265 -0.4895
  182POPC  H11R20878   5.303   3.735   6.001 -0.0334 -0.2707 -4.1140
  182POPC  H11S20879   5.225   3.606   6.109  1.2430 -2.1661 -0.3545
  182POPC  C21220880   5.181   3.592   5.903  0.1998 -0.1683 -0.2244
  182POPC  H12R20881   5.082   3.632   5.934  0.7215  0.2151  1.0444
  182POPC  H12S20882   5.175   3.482   5.893 -0.1627 -0.2783  1.0069
  182POPC  C21320883   5.202   3.644   5.766 -0.0005  0.0034  0.3357
  182POPC  H13R20884   5.288   3.602   5.709 -0.6179 -0.9203  0.0583
  182POPC  H13S20885   5.206   3.755   5.766  0.6414 -0.0105  1.1774
  182POPC  C21420886   5.079   3.614   5.681 -0.4109  0.6969  0.8258
  182POPC  H14R20887   4.987   3.643   5.735 -0.6515 -2.6617  2.4459
  182POPC  H14S20888   5.060   3.505   5.667  2.2328  0.0016  1.9645
  182POPC  C21520889   5.088   3.696   5.552 -0.4997  0.0888  0.1091
  182POPC  H15R20890   5.177   3.653   5.501 -0.8177 -1.2545  0.6454
  182POPC  H15S20891   5.131   3.795   5.578  1.9774 -0.8035 -0.3132
  182POPC  C21620892   4.961   3.690   5.475 -0.6297  0.0695 -0.8157
  182POPC  H16R20893   4.883   3.731   5.543  0.2765 -0.3648  0.5164
  182POPC  H16S20894   4.936   3.586   5.445 -0.8397 -0.1639  0.1508
  182POPC  C21720895   4.950   3.773   5.343  0.1482  0.3122 -0.1408
  182POPC  H17R20896   4.955   3.882   5.362 -0.8669  0.7536 -2.1665
  182POPC  H17S20897   4.853   3.748   5.296 -0.0464  3.3272 -1.5726
  182POPC  C21820898   5.062   3.732   5.249  0.1924  0.4070  0.1686
  182POPC  H18R20899   5.165   3.746   5.289  0.0773 -0.2948  0.7346
  182POPC  H18S20900   5.050   3.785   5.152 -0.0143 -4.2893 -2.6788
  182POPC  H18T20901   5.066   3.623   5.228  1.7893  0.6640 -1.0811
  182POPC   C3320902   5.166   3.282   6.674 -1.1217  0.9004 -0.2717
  182POPC   H3X20903   5.207   3.384   6.691  2.5034 -0.1708 -1.6638
  182POPC   H3Y20904   5.084   3.256   6.745  0.6832 -0.0167  1.5766
  182POPC   C3420905   5.095   3.277   6.538 -0.6008 -0.8937  0.3158
  182POPC   H4X20906   5.058   3.178   6.503  0.8786 -1.0230 -0.9332
  182POPC   H4Y20907   5.161   3.313   6.456 -0.1715 -1.7996  0.2488
  182POPC   C3520908   4.962   3.358   6.536 -0.2952 -0.1443  0.1731
  182POPC   H5X20909   4.990   3.445   6.599 -1.4029 -0.2363  0.8174
  182POPC   H5Y20910   4.881   3.296   6.580 -0.7351  0.3122  0.0172
  182POPC   C3620911   4.939   3.423   6.399  0.4253  0.1222  0.5404
  182POPC   H6X20912   5.031   3.467   6.354 -0.3119 -0.2518 -1.4181
  182POPC   H6Y20913   4.865   3.505   6.414 -0.7834 -0.9169  0.3764
  182POPC   C3720914   4.876   3.324   6.293  0.2588 -0.0305 -0.7366
  182POPC   H7X20915   4.769   3.301   6.310 -0.0924  2.2518  0.4996
  182POPC   H7Y20916   4.937   3.233   6.312  1.3145  0.9178  0.6147
  182POPC   C3820917   4.899   3.374   6.144  0.0241 -0.1887  0.3134
  182POPC   H8X20918   4.997   3.338   6.105 -0.5847 -0.9493 -0.5733
  182POPC   H8Y20919   4.901   3.485   6.145 -1.5762 -0.1322  1.0244
  182POPC   C3920920   4.797   3.311   6.037 -0.0008  0.2581 -0.2121
  182POPC   H9X20921   4.695   3.338   6.071  0.3946  0.0015  1.2704
  182POPC   H9Y20922   4.800   3.200   6.037 -1.1635  0.1794 -2.0523
  182POPC  C31020923   4.815   3.359   5.893 -0.1526 -0.2195 -0.0256
  182POPC  H10X20924   4.884   3.289   5.841  0.6677 -0.2511  1.0729
  182POPC  H10Y20925   4.861   3.460   5.900  0.1826 -0.1825 -2.0787
  182POPC  C31120926   4.692   3.382   5.816  0.1873  0.3888  0.3532
  182POPC  H11X20927   4.642   3.473   5.854 -0.4318  0.8308 -1.4401
  182POPC  H11Y20928   4.631   3.291   5.830 -0.8810  0.8918 -0.9261
  182POPC  C31220929   4.720   3.402   5.666 -0.0739 -0.7728 -0.7424
  182POPC  H12X20930   4.780   3.318   5.626 -0.3426 -2.6123  2.3756
  182POPC  H12Y20931   4.781   3.495   5.661  2.1599 -1.4792  4.9273
  182POPC  C31320932   4.589   3.422   5.590  0.5641 -0.0187  0.0647
  182POPC  H13X20933   4.522   3.494   5.641 -0.5781 -1.0573  0.0832
  182POPC  H13Y20934   4.538   3.325   5.573  1.8462 -0.5509 -0.9289
  182POPC  C31420935   4.629   3.490   5.459 -0.1162 -0.6338 -0.6325
  182POPC  H14X20936   4.677   3.426   5.383 -0.4897 -0.3046 -1.1533
  182POPC  H14Y20937   4.689   3.579   5.487 -0.7131 -0.5151  0.3292
  182POPC  C31520938   4.511   3.552   5.392 -0.3057 -0.4268 -0.0251
  182POPC  H15X20939   4.555   3.612   5.310  1.0468  1.9515  2.3017
  182POPC  H15Y20940   4.459   3.622   5.461 -1.6768 -1.0651 -0.3567
  182POPC  C31620941   4.406   3.450   5.335 -0.0214 -0.5495 -0.3122
  182POPC  H16X20942   4.361   3.400   5.423 -2.8156  0.0511 -1.2881
  182POPC  H16Y20943   4.458   3.382   5.264  1.6532 -0.7643  1.0424
  182POPC  H16Z20944   4.318   3.507   5.298  0.5928 -0.7164 -2.1289
  183POPC     N20945   1.915   2.772   7.420 -0.1105 -0.0221 -0.3592
  183POPC   C1220946   2.043   2.852   7.424 -0.5697 -0.0515  0.5153
  183POPC  H12A20947   2.121   2.794   7.470  2.5260  1.2975 -2.5445
  183POPC  H12B20948   2.036   2.944   7.482 -0.4862  1.0334 -1.1259
  183POPC   C1320949   1.888   2.712   7.544  0.5850  0.2842 -0.9875
  183POPC  H13A20950   1.909   2.780   7.625  4.6335  1.1727 -2.5441
  183POPC  H13B20951   1.788   2.677   7.564  1.0326 -0.4762 -0.0110
  183POPC  H13C20952   1.954   2.628   7.561  0.2574  0.6796  2.9376
  183POPC   C1420953   1.797   2.859   7.389  0.1708 -0.9008 -0.6722
  183POPC  H14A20954   1.699   2.812   7.395 -1.1152  1.4816 -1.5399
  183POPC  H14B20955   1.784   2.934   7.465  1.8471  0.4707 -1.6686
  183POPC  H14C20956   1.815   2.912   7.296 -0.5262 -0.8949 -0.8139
  183POPC   C1520957   1.926   2.657   7.327 -0.0339  0.0294  0.0418
  183POPC  H15A20958   1.949   2.697   7.230 -1.7153  1.6039  0.2520
  183POPC  H15B20959   1.831   2.605   7.324 -1.0193  1.7993 -2.5484
  183POPC  H15C20960   2.002   2.589   7.363  2.2001  1.1277 -2.2952
  183POPC   C1120961   2.116   2.900   7.294 -0.2816 -0.4020  0.4042
  183POPC  H11A20962   2.093   2.828   7.213 -2.6984  0.4176  0.2832
  183POPC  H11B20963   2.222   2.923   7.321 -1.1479  1.2401  2.6930
  183POPC     P20964   2.068   3.155   7.321 -0.1195 -0.2299 -0.3245
  183POPC   O1320965   2.070   3.139   7.472  0.5773  0.2435  0.3436
  183POPC   O1420966   1.956   3.238   7.284 -0.0609 -0.4507  0.5459
  183POPC   O1220967   2.048   3.018   7.248 -0.1208 -0.1555  0.5582
  183POPC   O1120968   2.218   3.214   7.291 -0.5941  0.0996  0.0579
  183POPC    C120969   2.227   3.326   7.203  0.0247  0.3563  0.0800
  183POPC    HA20970   2.326   3.376   7.213 -0.6113  1.3313  2.0460
  183POPC    HB20971   2.151   3.402   7.232 -1.1325  0.9140 -3.7584
  183POPC    C220972   2.217   3.287   7.051 -0.3755  0.0186  0.1519
  183POPC    HS20973   2.115   3.247   7.032 -0.7980  1.0329  0.2143
  183POPC   O2120974   2.326   3.198   7.016 -0.6571  0.2704  0.0821
  183POPC   C2120975   2.306   3.105   6.929 -0.1682  0.3596 -0.0776
  183POPC   O2220976   2.201   3.090   6.869  0.1632  0.9818  0.3871
  183POPC   C2220977   2.419   2.999   6.932  0.5826 -0.0758 -0.2232
  183POPC   H2R20978   2.372   2.900   6.916 -2.2220  1.3486 -1.4499
  183POPC   H2S20979   2.480   3.006   7.025  3.1676  3.9566 -1.9560
  183POPC    C320980   2.240   3.412   6.959  0.5886  0.0432 -0.0104
  183POPC    HX20981   2.340   3.452   6.984  0.3263  2.9222 -2.9366
  183POPC    HY20982   2.165   3.490   6.986  0.9517  0.3443  0.1371
  183POPC   O3120983   2.233   3.376   6.817 -0.2495  0.4034 -0.3834
  183POPC   C3120984   2.136   3.416   6.752 -0.4690  0.0323  0.1428
  183POPC   O3220985   2.035   3.470   6.791  0.0070  0.5073 -0.0237
  183POPC   C3220986   2.166   3.391   6.598  0.6350 -0.2787 -0.0017
  183POPC   H2X20987   2.269   3.423   6.571 -0.2832  2.8160 -0.1468
  183POPC   H2Y20988   2.097   3.457   6.541 -0.5161 -3.4544 -2.5930
  183POPC   C2320989   2.498   3.011   6.799 -0.6017 -0.3685 -0.2800
  183POPC   H3R20990   2.435   3.020   6.708  0.1637  0.3772 -0.7533
  183POPC   H3S20991   2.560   2.920   6.787 -1.0417 -0.6490 -0.4441
  183POPC   C2420992   2.598   3.131   6.809 -0.0237 -0.1726 -0.1999
  183POPC   H4R20993   2.639   3.142   6.912 -0.5168 -2.2571  0.2732
  183POPC   H4S20994   2.543   3.226   6.791 -2.5096 -1.2962  0.9940
  183POPC   C2520995   2.710   3.113   6.703 -0.1028 -0.0162  0.4631
  183POPC   H5R20996   2.766   3.017   6.709 -0.5946 -0.4978 -1.8345
  183POPC   H5S20997   2.786   3.193   6.718  0.2124 -0.5133  1.6172
  183POPC   C2620998   2.665   3.120   6.551  0.3400 -0.2421  1.5574
  183POPC   H6R20999   2.589   3.200   6.533  1.6963  0.9208  0.8303
  183POPC   H6S21000   2.620   3.023   6.522  1.3483  0.1738 -1.7672
  183POPC   C2721001   2.777   3.144   6.453 -0.8975  0.4739 -0.7587
  183POPC   H7R21002   2.853   3.063   6.461 -1.3671 -0.0333 -1.3046
  183POPC   H7S21003   2.834   3.234   6.483 -0.3048 -0.7957  2.2754
  183POPC   C2821004   2.739   3.147   6.306 -0.4485 -0.4607 -0.4919
  183POPC   H8R21005   2.648   3.211   6.312 -1.2659 -1.7040  3.4616
  183POPC   H8S21006   2.692   3.054   6.267 -1.0299 -0.4813  0.2256
  183POPC   C2921007   2.851   3.200   6.223 -0.2534  1.1294 -0.0929
  183POPC   H9121008   2.911   3.272   6.280 -0.1774  0.3597  0.8158
  183POPC  C21021009   2.892   3.160   6.103  0.0230  0.1404 -0.2867
  183POPC  H10121010   2.979   3.199   6.049 -0.3378  1.5313  0.1029
  183POPC  C21121011   2.815   3.073   6.006  0.4367 -0.7706  0.2005
  183POPC  H11R21012   2.712   3.055   6.041  0.1509 -0.9760 -0.7145
  183POPC  H11S21013   2.856   2.969   6.011 -0.1196 -1.0085 -0.1434
  183POPC  C21221014   2.812   3.127   5.859  0.2292  0.2817  0.4733
  183POPC  H12R21015   2.911   3.111   5.812 -0.1333 -0.9393  0.0659
  183POPC  H12S21016   2.800   3.237   5.855  2.6530  0.5785 -0.7491
  183POPC  C21321017   2.699   3.063   5.767 -0.5982 -0.4606 -0.1183
  183POPC  H13R21018   2.604   3.077   5.823  0.5770  2.0592  1.4747
  183POPC  H13S21019   2.726   2.955   5.764 -1.5240 -0.6698 -2.2788
  183POPC  C21421020   2.705   3.106   5.618 -0.0907 -0.6585 -0.7778
  183POPC  H14R21021   2.621   3.061   5.561 -1.4807  2.1633 -1.1491
  183POPC  H14S21022   2.805   3.077   5.580  0.1923 -2.8509  1.4013
  183POPC  C21521023   2.691   3.263   5.596  0.4857  0.0584 -0.1043
  183POPC  H15R21024   2.785   3.319   5.614  1.2142 -1.1238 -0.1335
  183POPC  H15S21025   2.624   3.310   5.672  1.0136  0.2205  0.2666
  183POPC  C21621026   2.625   3.296   5.462 -0.6661  0.3368  0.0326
  183POPC  H16R21027   2.533   3.234   5.454  0.2934 -1.5731  2.6256
  183POPC  H16S21028   2.694   3.277   5.376 -2.1270  0.8036 -1.2986
  183POPC  C21721029   2.575   3.439   5.442 -0.6969  0.0769  0.0952
  183POPC  H17R21030   2.650   3.505   5.491 -1.4156  0.3332  0.8726
  183POPC  H17S21031   2.480   3.464   5.494 -0.9714  2.6059 -1.4267
  183POPC  C21821032   2.550   3.485   5.293  0.6545  0.0167 -0.5514
  183POPC  H18R21033   2.637   3.462   5.228  0.5468  0.8510 -1.0055
  183POPC  H18S21034   2.528   3.594   5.293 -1.2176 -0.3173 -1.0862
  183POPC  H18T21035   2.462   3.437   5.245  1.0202 -0.2926 -0.9168
  183POPC   C3321036   2.152   3.247   6.539 -0.0603 -0.2123 -0.2146
  183POPC   H3X21037   2.078   3.192   6.601  0.3364  1.4110  1.8587
  183POPC   H3Y21038   2.250   3.199   6.555 -0.8935 -1.2305  2.3254
  183POPC   C3421039   2.127   3.244   6.386 -0.8742  0.0338 -0.3427
  183POPC   H4X21040   2.026   3.275   6.355 -1.9321 -2.5261  0.3030
  183POPC   H4Y21041   2.134   3.139   6.353  1.7256  0.1416 -0.3917
  183POPC   C3521042   2.250   3.304   6.306  0.8870  0.6629  0.5009
  183POPC   H5X21043   2.345   3.284   6.358  1.9852  2.7621 -0.5778
  183POPC   H5Y21044   2.222   3.408   6.281 -0.8839 -0.1557 -1.2361
  183POPC   C3621045   2.273   3.244   6.171 -0.1515 -0.1965 -0.1980
  183POPC   H6X21046   2.187   3.278   6.110 -1.0162 -0.7908  0.6712
  183POPC   H6Y21047   2.304   3.138   6.183  0.1368 -0.0390  0.5007
  183POPC   C3721048   2.396   3.315   6.106  0.1803 -0.1630 -0.3840
  183POPC   H7X21049   2.484   3.295   6.170 -0.8103 -2.6104  0.3263
  183POPC   H7Y21050   2.377   3.425   6.110 -1.6359 -0.4239 -0.9053
  183POPC   C3821051   2.428   3.266   5.962  0.4978 -0.0490 -0.2836
  183POPC   H8X21052   2.474   3.165   5.970  1.4654  0.0324 -3.5180
  183POPC   H8Y21053   2.483   3.343   5.904 -1.4885  1.6698 -0.0149
  183POPC   C3921054   2.295   3.246   5.881 -0.0685 -0.0122  0.4405
  183POPC   H9X21055   2.222   3.329   5.895  0.4587  0.1707  2.3750
  183POPC   H9Y21056   2.250   3.151   5.918 -0.3681 -0.1761 -0.3204
  183POPC  C31021057   2.319   3.232   5.735  0.3833 -0.0321  0.5103
  183POPC  H10X21058   2.389   3.147   5.717 -0.0441  0.0237 -1.6089
  183POPC  H10Y21059   2.360   3.324   5.688  0.7720 -0.3277  0.2589
  183POPC  C31121060   2.191   3.201   5.646 -0.0276 -0.0297  0.1339
  183POPC  H11X21061   2.113   3.271   5.683  0.9859 -0.0978  2.6170
  183POPC  H11Y21062   2.154   3.099   5.670 -0.9217  0.0838 -0.6709
  183POPC  C31221063   2.218   3.199   5.496 -0.6976  0.3506  0.3481
  183POPC  H12X21064   2.269   3.296   5.477 -2.4645  1.0755 -1.1487
  183POPC  H12Y21065   2.128   3.212   5.431 -0.0904 -2.3942 -1.2087
  183POPC  C31321066   2.298   3.074   5.438 -0.0227  0.2412  0.1308
  183POPC  H13X21067   2.248   2.975   5.451 -0.4084 -0.1723 -3.3709
  183POPC  H13Y21068   2.398   3.075   5.486 -1.4517 -2.1142  3.5953
  183POPC  C31421069   2.318   3.085   5.284 -0.4103 -0.6036  0.1686
  183POPC  H14X21070   2.401   3.018   5.254  1.3096  0.9314  1.2765
  183POPC  H14Y21071   2.349   3.186   5.249  1.4376 -2.0819 -2.9469
  183POPC  C31521072   2.193   3.051   5.206  0.5551 -0.3537 -0.2072
  183POPC  H15X21073   2.214   3.080   5.101  1.1244 -1.3262 -0.3775
  183POPC  H15Y21074   2.099   3.102   5.237  0.9083 -0.5614  1.2449
  183POPC  C31621075   2.155   2.901   5.203  0.6661 -0.4660  0.2417
  183POPC  H16X21076   2.088   2.870   5.120  0.8713  0.5117 -0.3044
  183POPC  H16Y21077   2.120   2.866   5.302 -0.7622 -1.2541 -0.5058
  183POPC  H16Z21078   2.254   2.856   5.183  1.6098  0.9983  1.4484
  184POPC     N21079   0.869   2.754   7.247  0.3436  0.1207  0.1294
  184POPC   C1221080   0.875   2.651   7.359 -0.1164  0.4275 -0.0484
  184POPC  H12A21081   0.781   2.652   7.411  0.4665  0.6156  1.0236
  184POPC  H12B21082   0.940   2.688   7.436 -3.2501  1.9354  2.0727
  184POPC   C1321083   1.003   2.810   7.225 -0.8504 -0.4135 -0.6429
  184POPC  H13A21084   1.068   2.726   7.202  0.1184  0.1261  0.0364
  184POPC  H13B21085   1.012   2.879   7.142 -0.3944 -1.1875 -1.2535
  184POPC  H13C21086   1.053   2.845   7.314 -0.8404 -0.5245 -0.6041
  184POPC   C1421087   0.828   2.682   7.117  0.0207  0.1864 -0.2150
  184POPC  H14A21088   0.837   2.750   7.034  0.2322 -0.7001 -0.9342
  184POPC  H14B21089   0.898   2.601   7.100  0.5214  0.6420 -0.3780
  184POPC  H14C21090   0.729   2.640   7.107 -0.8406  2.3265 -1.3645
  184POPC   C1521091   0.772   2.868   7.278  0.0188 -0.0200  0.2439
  184POPC  H15A21092   0.674   2.826   7.261 -0.0766  1.0205 -2.1601
  184POPC  H15B21093   0.771   2.945   7.203 -1.4676 -0.4297 -0.1958
  184POPC  H15C21094   0.788   2.913   7.375  0.3020  2.2947 -0.8077
  184POPC   C1121095   0.903   2.502   7.317 -0.0572  1.2113  0.2676
  184POPC  H11A21096   0.814   2.481   7.254 -0.1856  1.2214  0.4458
  184POPC  H11B21097   0.907   2.438   7.407  2.0471 -0.4802 -0.9201
  184POPC     P21098   1.120   2.362   7.226  0.2142  0.0976 -0.0512
  184POPC   O1321099   1.053   2.240   7.283 -0.6675  0.1189  0.6564
  184POPC   O1421100   1.262   2.382   7.264 -0.1454 -0.4577  0.1228
  184POPC   O1221101   1.033   2.493   7.262  0.1696  0.3423 -0.0133
  184POPC   O1121102   1.101   2.363   7.070 -0.2022  0.2808 -0.6070
  184POPC    C121103   1.104   2.487   7.002 -0.7139 -0.5862 -0.2065
  184POPC    HA21104   1.159   2.564   7.060  0.1143  0.6357 -2.4898
  184POPC    HB21105   1.006   2.535   6.983  0.3003  0.8967 -2.0946
  184POPC    C221106   1.176   2.471   6.868  0.3479  0.0456 -0.3061
  184POPC    HS21107   1.149   2.552   6.797  2.0513  0.2376 -0.7738
  184POPC   O2121108   1.140   2.359   6.797  0.1916  0.9241  0.0731
  184POPC   C2121109   1.010   2.343   6.759 -0.5232  0.0729 -0.1205
  184POPC   O2221110   0.925   2.432   6.759 -0.4357 -0.3395  0.2825
  184POPC   C2221111   0.988   2.207   6.681  0.6417 -0.5501 -0.7098
  184POPC   H2R21112   0.931   2.145   6.754  0.0576 -0.1703 -0.8406
  184POPC   H2S21113   1.083   2.152   6.661  0.2911 -1.4381 -0.0111
  184POPC    C321114   1.328   2.477   6.875 -0.4969  0.0991  0.5680
  184POPC    HX21115   1.350   2.387   6.937 -0.9596 -0.0586  0.5111
  184POPC    HY21116   1.356   2.574   6.922  0.2229  0.9893 -1.5866
  184POPC   O3121117   1.385   2.475   6.738 -0.0040  0.3553 -0.3733
  184POPC   C3121118   1.417   2.359   6.686 -0.5161  0.0508  0.3716
  184POPC   O3221119   1.431   2.255   6.747  0.1359  0.5887 -1.0295
  184POPC   C3221120   1.437   2.374   6.535 -0.3830 -0.1743  0.4139
  184POPC   H2X21121   1.546   2.395   6.536 -0.1985 -1.0731  0.1352
  184POPC   H2Y21122   1.378   2.459   6.495  0.7115  0.1388 -0.5845
  184POPC   C2321123   0.907   2.225   6.547  1.1572 -0.3441 -0.1219
  184POPC   H3R21124   0.809   2.276   6.552  2.1596  1.7765 -1.1300
  184POPC   H3S21125   0.898   2.122   6.507 -1.4430 -0.4442  0.5187
  184POPC   C2421126   0.984   2.309   6.438  0.1327 -0.4280 -0.2458
  184POPC   H4R21127   1.083   2.259   6.431  0.6059  0.0060  2.3875
  184POPC   H4S21128   1.005   2.413   6.470  1.3562 -0.6948 -0.1395
  184POPC   C2521129   0.900   2.295   6.313  0.1122 -0.6417  0.2082
  184POPC   H5R21130   0.797   2.335   6.324  1.4473  3.2503  0.3491
  184POPC   H5S21131   0.895   2.186   6.295 -0.9278 -0.5543 -0.1055
  184POPC   C2621132   0.950   2.371   6.186 -0.0561  0.3579  0.1149
  184POPC   H6R21133   0.934   2.480   6.195  1.6059  0.9509 -2.9838
  184POPC   H6S21134   0.883   2.336   6.104  0.4816 -0.5426  0.0471
  184POPC   C2721135   1.101   2.345   6.150  0.0944 -0.2147 -0.1761
  184POPC   H7R21136   1.130   2.245   6.188  2.4060  0.3773 -0.2634
  184POPC   H7S21137   1.165   2.421   6.201 -0.9529 -0.4567  1.5596
  184POPC   C2821138   1.126   2.346   6.004 -0.3577 -0.3322 -0.8864
  184POPC   H8R21139   1.236   2.350   5.990 -0.1514  1.6027  0.8483
  184POPC   H8S21140   1.096   2.449   5.975  0.7112  0.2166 -0.1325
  184POPC   C2921141   1.057   2.237   5.920 -0.2303 -0.0534 -0.4380
  184POPC   H9121142   0.984   2.192   5.988  0.3105 -0.3632 -0.0608
  184POPC  C21021143   1.069   2.218   5.786  0.2664 -0.2038 -0.2055
  184POPC  H10121144   1.005   2.139   5.744 -1.3300  1.1376 -0.4203
  184POPC  C21121145   1.162   2.290   5.687  0.1600  0.5397  0.2988
  184POPC  H11R21146   1.267   2.288   5.722  0.4546  2.4065 -0.3916
  184POPC  H11S21147   1.136   2.397   5.695 -2.8438 -0.1909  2.3146
  184POPC  C21221148   1.154   2.235   5.536 -0.0709  0.1540  0.2660
  184POPC  H12R21149   1.049   2.261   5.512  0.2417  0.8585 -0.4143
  184POPC  H12S21150   1.180   2.127   5.534  0.9233  0.3506  1.3765
  184POPC  C21321151   1.249   2.304   5.443 -0.0827  0.3010  0.5363
  184POPC  H13R21152   1.265   2.225   5.366 -1.2814  1.1249 -0.5989
  184POPC  H13S21153   1.345   2.325   5.494  0.8684 -0.4825 -0.8899
  184POPC  C21421154   1.201   2.440   5.391 -0.1768  0.5916 -0.0603
  184POPC  H14R21155   1.220   2.521   5.465  1.3811  0.4656 -0.3024
  184POPC  H14S21156   1.092   2.419   5.386 -0.3648  0.8207  2.0367
  184POPC  C21521157   1.263   2.480   5.249  0.0328 -0.3387  0.0540
  184POPC  H15R21158   1.318   2.393   5.208 -0.7369 -0.0472 -1.6908
  184POPC  H15S21159   1.320   2.575   5.262 -1.3752  0.5192  0.1653
  184POPC  C21621160   1.153   2.508   5.147  0.3153 -0.0683 -0.1349
  184POPC  H16R21161   1.086   2.580   5.199  1.7372  2.0051 -1.0168
  184POPC  H16S21162   1.090   2.419   5.129 -2.6117  1.3675  2.0386
  184POPC  C21721163   1.196   2.567   5.014  0.2271 -0.0740  0.7693
  184POPC  H17R21164   1.258   2.660   5.014 -1.6625  1.2369  0.5298
  184POPC  H17S21165   1.104   2.583   4.954  0.6253  0.4718  0.2945
  184POPC  C21821166   1.264   2.463   4.933 -0.2153 -0.9683  0.2102
  184POPC  H18R21167   1.205   2.369   4.930 -0.4205 -0.8775  1.0514
  184POPC  H18S21168   1.361   2.430   4.976 -0.4498 -0.4333  1.1870
  184POPC  H18T21169   1.293   2.504   4.834 -2.0963 -0.0718 -0.0065
  184POPC   C3321170   1.427   2.247   6.451  0.2518 -0.8051  0.3488
  184POPC   H3X21171   1.425   2.278   6.344  0.0424 -1.4519  0.1553
  184POPC   H3Y21172   1.324   2.205   6.463  0.1539 -1.6102 -2.5665
  184POPC   C3421173   1.527   2.141   6.457 -0.6937  0.7897  0.1480
  184POPC   H4X21174   1.556   2.128   6.563  0.7027 -0.5270 -0.3555
  184POPC   H4Y21175   1.621   2.174   6.407 -0.9720  1.9009  0.3289
  184POPC   C3521176   1.469   2.005   6.410  0.0521 -0.1394 -0.0505
  184POPC   H5X21177   1.375   1.990   6.468 -0.2295 -1.4845 -0.8075
  184POPC   H5Y21178   1.537   1.924   6.443  0.6342  1.0157  1.7315
  184POPC   C3621179   1.436   1.988   6.258  0.2610  0.2110  0.8100
  184POPC   H6X21180   1.373   2.076   6.233  0.7588  0.2633 -0.3470
  184POPC   H6Y21181   1.373   1.899   6.237 -2.8850  2.4423  0.1524
  184POPC   C3721182   1.559   1.983   6.170 -0.1532 -0.6855  0.5727
  184POPC   H7X21183   1.605   1.882   6.169 -0.6815 -0.9729 -1.8142
  184POPC   H7Y21184   1.623   2.068   6.202 -1.6542  0.1087  1.5449
  184POPC   C3821185   1.522   2.008   6.019  0.1596  0.1057  0.2822
  184POPC   H8X21186   1.617   1.996   5.963 -1.2341 -1.5897 -1.9009
  184POPC   H8Y21187   1.477   2.109   6.025  1.7383  0.7483  2.8719
  184POPC   C3921188   1.438   1.906   5.948 -0.7454  0.1906  0.9890
  184POPC   H9X21189   1.335   1.890   5.986 -0.1530 -1.3510  2.0722
  184POPC   H9Y21190   1.492   1.811   5.971 -0.1692  0.2745  0.0240
  184POPC  C31021191   1.431   1.926   5.795  1.1026 -0.2564  0.0912
  184POPC  H10X21192   1.524   1.978   5.762 -0.3225  1.2801 -1.7250
  184POPC  H10Y21193   1.363   2.012   5.775 -0.6309 -2.2364 -3.4115
  184POPC  C31121194   1.386   1.806   5.721  0.6226  0.1598  0.2931
  184POPC  H11X21195   1.283   1.785   5.755  0.1845  0.3416 -0.8740
  184POPC  H11Y21196   1.446   1.716   5.744  0.7022  0.1964  0.2294
  184POPC  C31221197   1.405   1.818   5.566  0.6592  0.5677  0.2240
  184POPC  H12X21198   1.336   1.896   5.526  0.7424  0.3951 -0.2598
  184POPC  H12Y21199   1.379   1.724   5.513  3.1542  0.6625 -1.2751
  184POPC  C31321200   1.552   1.836   5.528 -0.9627  0.2134  0.3850
  184POPC  H13X21201   1.628   1.769   5.572  0.4318  2.4691  1.6304
  184POPC  H13Y21202   1.589   1.938   5.555 -1.7340  1.2999 -2.3033
  184POPC  C31421203   1.571   1.818   5.374  0.3716 -0.6757  0.3779
  184POPC  H14X21204   1.542   1.713   5.353 -0.8658 -1.0543  3.3666
  184POPC  H14Y21205   1.680   1.825   5.354  0.0982 -0.2351 -1.0726
  184POPC  C31521206   1.490   1.912   5.282 -0.2622  0.1231  0.5874
  184POPC  H15X21207   1.385   1.876   5.288  0.4354 -2.4455 -1.0258
  184POPC  H15Y21208   1.526   1.886   5.180 -1.0178 -0.5901  0.4949
  184POPC  C31621209   1.494   2.064   5.313 -0.1710  0.1084  0.7456
  184POPC  H16X21210   1.448   2.072   5.414  0.1903  0.1823  0.9067
  184POPC  H16Y21211   1.449   2.141   5.247  2.7820  1.7110  0.3880
  184POPC  H16Z21212   1.600   2.098   5.311  0.5275 -1.9413 -1.2888
  185POPC     N21213   5.420   2.041   2.328 -0.1409  0.4169  0.4472
  185POPC   C1221214   5.352   2.023   2.462 -0.1636 -0.2236 -0.3636
  185POPC  H12A21215   5.305   1.926   2.462 -0.0009 -0.3080  0.2021
  185POPC  H12B21216   5.281   2.103   2.478 -1.8062 -1.6126 -0.4786
  185POPC   C1321217   5.319   2.060   2.218  0.2827 -0.1155 -0.3745
  185POPC  H13A21218   5.286   1.962   2.185  0.3403  1.1559 -4.8561
  185POPC  H13B21219   5.248   2.135   2.247  2.7707  2.4420 -0.5355
  185POPC  H13C21220   5.370   2.103   2.133 -0.8978  2.9965  0.3605
  185POPC   C1421221   5.509   2.158   2.320 -0.6442 -0.5961 -0.4394
  185POPC  H14A21222   5.586   2.158   2.244 -0.3975 -0.4978 -0.1911
  185POPC  H14B21223   5.460   2.254   2.320 -1.2949 -0.8509 -3.0108
  185POPC  H14C21224   5.575   2.154   2.405 -2.1657 -0.0568  0.8118
  185POPC   C1521225   5.500   1.911   2.303 -0.5232  0.2301 -0.0783
  185POPC  H15A21226   5.582   1.914   2.373 -0.6898  2.4997  0.0905
  185POPC  H15B21227   5.550   1.904   2.207  1.1676  1.0371  0.7100
  185POPC  H15C21228   5.435   1.825   2.319 -2.2406  0.7943 -3.1017
  185POPC   C1121229   5.447   2.041   2.590  0.0516 -0.0853  0.5490
  185POPC  H11A21230   5.393   2.029   2.687  2.5679 -0.0174  2.0664
  185POPC  H11B21231   5.487   2.144   2.587  0.0179 -0.0944 -0.1818
  185POPC     P21232   5.548   1.809   2.657 -0.0041  0.2034 -0.4278
  185POPC   O1321233   5.684   1.757   2.678  0.1694  0.7099 -0.0323
  185POPC   O1421234   5.452   1.718   2.594  0.2809  0.2617  0.1037
  185POPC   O1221235   5.554   1.948   2.585 -0.4752 -0.2742 -0.0713
  185POPC   O1121236   5.495   1.846   2.801  0.6199 -0.2276  0.3416
  185POPC    C121237   5.581   1.937   2.875  0.4612  0.4468 -0.9139
  185POPC    HA21238   5.511   2.016   2.908 -2.4718 -1.7651 -1.4792
  185POPC    HB21239   5.654   2.001   2.820  2.0768  0.7294  1.3803
  185POPC    C221240   5.663   1.876   2.983 -0.1646  0.3664  0.4887
  185POPC    HS21241   5.725   1.797   2.937 -0.8441  1.4075 -2.4495
  185POPC   O2121242   5.573   1.835   3.083  0.3814 -0.5163  0.4319
  185POPC   C2121243   5.558   1.702   3.105  0.2253 -0.2642 -0.7084
  185POPC   O2221244   5.598   1.616   3.024  0.1838 -0.2384  0.1564
  185POPC   C2221245   5.495   1.675   3.241 -0.5052  0.1362 -1.4657
  185POPC   H2R21246   5.394   1.633   3.219 -1.0483  0.7636 -0.2282
  185POPC   H2S21247   5.484   1.771   3.295 -1.4650 -0.5894 -0.3040
  185POPC    C321248   5.780   1.974   3.034 -0.0007  0.4053 -0.5978
  185POPC    HX21249   5.723   2.061   3.074  0.4936  0.3319  0.2970
  185POPC    HY21250   5.850   2.006   2.954  1.6976 -1.1319  0.1964
  185POPC   O3121251   5.845   1.923   3.155  0.3996  0.2537 -0.5235
  185POPC   C3121252   5.927   1.824   3.139 -0.1939  0.0856  0.1405
  185POPC   O3221253   5.969   1.780   3.034  0.5782 -0.0857  0.4506
  185POPC   C3221254   5.966   1.761   3.278 -0.1714 -0.3816  0.1406
  185POPC   H2X21255   6.056   1.697   3.263  1.0232  0.7119  2.2563
  185POPC   H2Y21256   5.883   1.698   3.319 -0.4890 -0.5609 -0.7455
  185POPC   C2321257   5.573   1.573   3.323 -0.1599 -0.4189  0.1126
  185POPC   H3R21258   5.683   1.592   3.328  0.1982 -1.6828 -1.6712
  185POPC   H3S21259   5.574   1.472   3.277  1.1062  0.5081 -2.0467
  185POPC   C2421260   5.499   1.558   3.459 -0.7791 -0.0420 -0.2879
  185POPC   H4R21261   5.417   1.484   3.447 -0.9814  0.1866 -0.3414
  185POPC   H4S21262   5.458   1.656   3.495  0.1898 -0.5127  2.3438
  185POPC   C2521263   5.591   1.522   3.581  0.1440 -0.6087 -0.3902
  185POPC   H5R21264   5.651   1.612   3.604 -1.1960  0.0524  0.6637
  185POPC   H5S21265   5.657   1.435   3.559 -0.2235 -0.8398 -0.5911
  185POPC   C2621266   5.516   1.512   3.714  0.1874  0.3440  0.0768
  185POPC   H6R21267   5.432   1.441   3.701 -0.1604  1.2068 -3.1118
  185POPC   H6S21268   5.474   1.613   3.731  1.4058  1.3622 -2.4797
  185POPC   C2721269   5.603   1.465   3.834 -0.3476  0.3208  1.3534
  185POPC   H7R21270   5.696   1.525   3.836  0.3988 -0.7511 -0.0907
  185POPC   H7S21271   5.626   1.359   3.814 -0.4459  0.1327  2.1680
  185POPC   C2821272   5.522   1.458   3.963 -0.5852 -0.6962  0.0986
  185POPC   H8R21273   5.452   1.372   3.969 -0.3204 -0.8173  1.9724
  185POPC   H8S21274   5.464   1.552   3.976  1.6139  0.9521 -1.2766
  185POPC   C2921275   5.624   1.457   4.072 -0.2048 -0.1861 -0.5993
  185POPC   H9121276   5.718   1.404   4.051 -0.6293 -1.5232  0.7592
  185POPC  C21021277   5.609   1.510   4.193  0.5988 -0.1963 -0.4397
  185POPC  H10121278   5.686   1.494   4.271 -0.2760 -0.1296  0.4550
  185POPC  C21121279   5.494   1.595   4.257 -0.4878  1.1146  1.0084
  185POPC  H11R21280   5.430   1.646   4.182 -0.8852  0.2945  0.7802
  185POPC  H11S21281   5.539   1.680   4.314 -1.9870  1.9642  0.9727
  185POPC  C21221282   5.393   1.529   4.356  0.6741  1.0664 -0.3547
  185POPC  H12R21283   5.332   1.451   4.306 -2.5428  3.5581 -0.6564
  185POPC  H12S21284   5.318   1.604   4.389  1.6812  1.3809  1.3773
  185POPC  C21321285   5.468   1.466   4.471 -0.0192 -0.8245 -0.0101
  185POPC  H13R21286   5.425   1.486   4.572  1.8664  3.5309  0.1769
  185POPC  H13S21287   5.569   1.504   4.494 -0.1470  0.0783 -0.8796
  185POPC  C21421288   5.488   1.317   4.442 -0.1842 -0.0708  0.2751
  185POPC  H14R21289   5.542   1.302   4.347 -1.9869 -0.1434 -0.7891
  185POPC  H14S21290   5.389   1.265   4.441 -0.9092  1.2140  1.2206
  185POPC  C21521291   5.561   1.243   4.557  0.4543  0.0905 -0.1481
  185POPC  H15R21292   5.667   1.274   4.558  0.4645  0.1020  1.3015
  185POPC  H15S21293   5.568   1.135   4.532  2.3144  0.3167 -0.7097
  185POPC  C21621294   5.498   1.254   4.704 -0.5216  0.4291 -0.1700
  185POPC  H16R21295   5.395   1.212   4.698  0.2472 -2.1403  2.3694
  185POPC  H16S21296   5.491   1.360   4.739  1.1811  1.3909 -2.5014
  185POPC  C21721297   5.571   1.170   4.803  0.0034 -0.0735 -1.9300
  185POPC  H17R21298   5.674   1.210   4.797 -0.6137  1.7499 -1.1127
  185POPC  H17S21299   5.567   1.066   4.764  0.2455 -0.9625  0.2956
  185POPC  C21821300   5.528   1.159   4.948  0.0240 -1.0907  0.5923
  185POPC  H18R21301   5.595   1.082   4.992 -0.1885 -0.9681  1.1363
  185POPC  H18S21302   5.427   1.112   4.954 -0.4523 -0.4326 -1.4604
  185POPC  H18T21303   5.529   1.255   5.003 -1.6084 -0.7786  0.1284
  185POPC   C3321304   5.996   1.868   3.387  0.1639  0.3369  0.1427
  185POPC   H3X21305   5.924   1.952   3.388 -2.8182 -2.0691  0.6439
  185POPC   H3Y21306   6.098   1.908   3.367 -0.3081  0.9082 -1.2292
  185POPC   C3421307   6.006   1.808   3.527 -0.6052 -0.4219  0.4701
  185POPC   H4X21308   5.903   1.777   3.552 -0.5121 -0.2210  1.1490
  185POPC   H4Y21309   6.019   1.885   3.607 -0.9984 -2.3986  2.5535
  185POPC   C3521310   6.108   1.694   3.551  0.3862 -0.0614  0.5858
  185POPC   H5X21311   6.211   1.735   3.556 -0.7996  3.3336  0.4414
  185POPC   H5Y21312   6.112   1.627   3.463  0.2803  0.0001  0.5326
  185POPC   C3621313   6.070   1.607   3.675  0.2597  0.1908 -0.4432
  185POPC   H6X21314   6.138   1.520   3.670 -0.7124 -0.6168  0.0956
  185POPC   H6Y21315   5.965   1.573   3.659  0.3011 -0.1810  0.0742
  185POPC   C3721316   6.088   1.675   3.811  0.2507 -0.6023  0.1630
  185POPC   H7X21317   6.001   1.744   3.815  1.0353  0.3920  0.5344
  185POPC   H7Y21318   6.182   1.734   3.810 -0.5144  0.7303  1.8916
  185POPC   C3821319   6.093   1.571   3.922 -0.0930 -0.1940  0.2906
  185POPC   H8X21320   6.195   1.527   3.921 -0.1466 -0.3145  0.1525
  185POPC   H8Y21321   6.015   1.493   3.914  0.6241 -0.9641  0.6750
  185POPC   C3921322   6.056   1.632   4.056  0.0594 -0.0315  0.1523
  185POPC   H9X21323   5.963   1.691   4.040 -0.5622 -0.3599  2.2649
  185POPC   H9Y21324   6.141   1.700   4.082 -0.9332  1.5743 -0.6526
  185POPC  C31021325   6.031   1.523   4.160  0.0420  0.0457  0.2146
  185POPC  H10X21326   6.116   1.460   4.192  0.5562 -0.0242 -1.2159
  185POPC  H10Y21327   5.952   1.454   4.122  0.4084 -1.0818  1.4147
  185POPC  C31121328   5.975   1.582   4.288  0.2056  0.0766  0.0551
  185POPC  H11X21329   5.956   1.501   4.362 -0.2052 -0.0086 -0.1402
  185POPC  H11Y21330   5.884   1.644   4.273  1.1553  1.3892 -0.5073
  185POPC  C31221331   6.074   1.665   4.367 -0.4678  0.0712 -0.1995
  185POPC  H12X21332   6.110   1.753   4.309  0.9028  1.2125  2.2549
  185POPC  H12Y21333   6.160   1.598   4.388  0.4898  1.8006  1.7401
  185POPC  C31321334   6.013   1.721   4.498  0.5989  0.2536  0.1754
  185POPC  H13X21335   5.925   1.781   4.465  1.0069  2.1372  2.2862
  185POPC  H13Y21336   6.077   1.802   4.540 -1.2239  2.2924 -0.7729
  185POPC  C31421337   5.961   1.618   4.601 -0.0313  0.3082 -0.7566
  185POPC  H14X21338   5.989   1.658   4.701  1.9387 -0.0996 -1.1093
  185POPC  H14Y21339   6.026   1.528   4.587  0.0798  0.4584 -1.2284
  185POPC  C31521340   5.811   1.588   4.595 -0.6453  0.1611  0.0825
  185POPC  H15X21341   5.790   1.494   4.651  0.6043 -1.3259 -1.8373
  185POPC  H15Y21342   5.795   1.562   4.488 -2.1932  0.0864  0.3043
  185POPC  C31621343   5.721   1.700   4.645  0.4903  0.0348  0.5222
  185POPC  H16X21344   5.725   1.799   4.594 -2.8086  1.1291  2.1144
  185POPC  H16Y21345   5.741   1.720   4.752  1.6588  0.4805  0.2332
  185POPC  H16Z21346   5.618   1.659   4.635  0.1969  0.6149  1.1018
  186POPC     N21347   1.211   3.293   2.542  0.2429 -0.0560 -0.1584
  186POPC   C1221348   1.073   3.333   2.586  0.3171 -0.1894  0.0168
  186POPC  H12A21349   1.028   3.244   2.626 -0.5939  1.0337  1.8270
  186POPC  H12B21350   1.014   3.371   2.504  1.9023  0.7630 -0.7446
  186POPC   C1321351   1.282   3.408   2.476 -0.0279 -0.1680  0.3609
  186POPC  H13A21352   1.375   3.384   2.426 -0.2689 -0.0391 -0.1500
  186POPC  H13B21353   1.217   3.458   2.406 -0.9421  1.3419  2.1999
  186POPC  H13C21354   1.298   3.489   2.547 -2.9090 -0.5834  1.6160
  186POPC   C1421355   1.297   3.249   2.654  0.3425  0.0435 -0.4622
  186POPC  H14A21356   1.383   3.201   2.609 -0.9829 -2.0011 -0.9498
  186POPC  H14B21357   1.308   3.329   2.726 -0.8419 -0.4685  0.3189
  186POPC  H14C21358   1.243   3.173   2.708 -1.8928  0.8188 -1.4533
  186POPC   C1521359   1.212   3.173   2.447 -0.3220 -0.7052  0.6358
  186POPC  H15A21360   1.313   3.147   2.418 -0.5256 -1.0885  0.2611
  186POPC  H15B21361   1.151   3.204   2.364  2.1641  1.5513 -0.5231
  186POPC  H15C21362   1.170   3.085   2.493 -0.4447 -1.6018 -1.0829
  186POPC   C1121363   1.053   3.428   2.706  0.6337 -0.2787  0.6224
  186POPC  H11A21364   1.127   3.406   2.785 -0.2054 -3.2228  0.7216
  186POPC  H11B21365   0.952   3.412   2.750 -0.1546 -2.3970 -1.6907
  186POPC     P21366   0.949   3.634   2.588  0.2971  0.4326  0.0037
  186POPC   O1321367   0.895   3.544   2.486 -0.2813  0.0536 -0.6086
  186POPC   O1421368   0.999   3.764   2.537 -0.2683 -0.0621  0.8025
  186POPC   O1221369   1.064   3.556   2.664 -0.4440  0.0228 -0.3375
  186POPC   O1121370   0.843   3.650   2.703  0.4982  0.4274  0.3347
  186POPC    C121371   0.858   3.732   2.817 -0.2601 -0.1991 -0.0621
  186POPC    HA21372   0.755   3.769   2.835 -0.2487  0.0794 -0.5679
  186POPC    HB21373   0.918   3.823   2.793  0.1324 -0.8524 -1.6923
  186POPC    C221374   0.922   3.660   2.936 -0.7627 -0.5113  0.1901
  186POPC    HS21375   1.013   3.617   2.890 -0.4573  1.7891 -1.5007
  186POPC   O2121376   0.837   3.558   2.994  0.0999  0.7449  0.1589
  186POPC   C2121377   0.903   3.446   3.034  0.6126 -0.4582  0.1669
  186POPC   O2221378   1.022   3.429   3.041  0.0982 -0.4464  0.1439
  186POPC   C2221379   0.798   3.340   3.067  0.3574  1.2121  0.4149
  186POPC   H2R21380   0.729   3.330   2.981 -0.5112  1.2192  1.0956
  186POPC   H2S21381   0.733   3.376   3.149 -0.1207  0.4155  0.3905
  186POPC    C321382   0.966   3.756   3.051 -0.9650 -0.0891  0.4160
  186POPC    HX21383   0.882   3.823   3.078 -1.0006  0.7041 -1.5447
  186POPC    HY21384   1.045   3.816   3.001  1.6674 -2.6206  1.2169
  186POPC   O3121385   1.004   3.687   3.172  0.4706  0.4047 -0.1985
  186POPC   C3121386   1.126   3.697   3.213 -0.1755  0.0778  0.0861
  186POPC   O3221387   1.218   3.765   3.173 -0.3865  0.5066  0.2209
  186POPC   C3221388   1.146   3.605   3.332 -1.0712  0.1079  0.0214
  186POPC   H2X21389   1.241   3.632   3.381 -0.7646  0.3099 -0.6745
  186POPC   H2Y21390   1.166   3.500   3.300 -2.2319 -0.0578 -0.2255
  186POPC   C2321391   0.862   3.203   3.100 -0.0049  0.0035 -0.5506
  186POPC   H3R21392   0.935   3.172   3.022 -0.0984  3.5108 -2.2228
  186POPC   H3S21393   0.767   3.146   3.089 -0.7362  1.6060 -3.3889
  186POPC   C2421394   0.909   3.186   3.249  1.2691 -0.4401  0.1256
  186POPC   H4R21395   0.842   3.246   3.314 -1.5919 -0.7764 -2.3048
  186POPC   H4S21396   1.011   3.231   3.256  0.4197  1.3342  2.0067
  186POPC   C2521397   0.906   3.047   3.305 -0.7473  0.5443  0.5883
  186POPC   H5R21398   0.948   2.965   3.243  0.6165  0.2099  1.8894
  186POPC   H5S21399   0.800   3.015   3.310 -0.6912  0.1782 -0.3550
  186POPC   C2621400   0.948   3.021   3.448  0.2717  0.0446  0.1353
  186POPC   H6R21401   0.902   2.924   3.476  1.0109  0.1853  1.9761
  186POPC   H6S21402   0.919   3.095   3.526  1.2874  0.9662 -0.3196
  186POPC   C2721403   1.098   3.016   3.466  0.3758  0.6948  0.2731
  186POPC   H7R21404   1.142   3.103   3.412 -0.5842  2.3095  1.9871
  186POPC   H7S21405   1.132   2.932   3.401 -0.8975 -0.2530  0.7885
  186POPC   C2821406   1.143   2.991   3.607  0.3377  0.2569 -0.8833
  186POPC   H8R21407   1.252   3.011   3.604  0.0415  2.0986 -0.5145
  186POPC   H8S21408   1.144   2.881   3.622  0.1474  0.4461  0.7043
  186POPC   C2921409   1.084   3.085   3.711 -0.5331  0.3265 -0.1620
  186POPC   H9121410   1.131   3.185   3.710  4.2486 -1.6638 -0.3561
  186POPC  C21021411   1.014   3.054   3.821  0.6611 -0.6000  0.0731
  186POPC  H10121412   0.982   3.133   3.890  0.7441 -1.1714  0.7811
  186POPC  C21121413   0.964   2.917   3.864  0.3597 -0.8944  0.3808
  186POPC  H11R21414   0.980   2.835   3.791  0.9868  0.3519 -0.9260
  186POPC  H11S21415   0.854   2.921   3.881  0.4898 -0.4113  1.1251
  186POPC  C21221416   1.021   2.870   3.997 -0.6613  0.6065 -0.0265
  186POPC  H12R21417   1.129   2.855   3.976 -0.6549 -1.2216  1.0612
  186POPC  H12S21418   0.994   2.765   4.022  1.5637  0.5603  2.6776
  186POPC  C21321419   0.987   2.954   4.127  0.0096  0.5019  0.2140
  186POPC  H13R21420   0.877   2.970   4.121 -0.2073 -0.4750  1.1679
  186POPC  H13S21421   1.058   3.039   4.130  1.4421 -0.6915  1.9588
  186POPC  C21421422   1.003   2.888   4.265 -0.0407  0.6251  0.4733
  186POPC  H14R21423   0.939   2.798   4.257 -0.1895  0.8056 -0.4050
  186POPC  H14S21424   0.946   2.949   4.339 -0.1219  0.6990  0.3498
  186POPC  C21521425   1.145   2.850   4.303  1.0625 -0.2512  0.1139
  186POPC  H15R21426   1.207   2.942   4.310  1.1062 -0.3908  2.0482
  186POPC  H15S21427   1.182   2.776   4.229  1.4494 -0.3258  0.3798
  186POPC  C21621428   1.158   2.778   4.443 -0.5156 -0.3509 -0.0719
  186POPC  H16R21429   1.259   2.731   4.436 -1.1219 -1.5037 -2.2302
  186POPC  H16S21430   1.075   2.706   4.458 -1.2250  0.3159 -0.7053
  186POPC  C21721431   1.147   2.877   4.567  0.0205 -0.6968 -0.4848
  186POPC  H17R21432   1.057   2.938   4.546 -0.3996 -1.4756 -1.0233
  186POPC  H17S21433   1.240   2.936   4.576 -0.0468 -0.8257  1.5538
  186POPC  C21821434   1.134   2.812   4.702 -0.1580 -0.2818 -0.2892
  186POPC  H18R21435   1.118   2.888   4.781 -0.5359 -0.3564 -0.2916
  186POPC  H18S21436   1.048   2.742   4.704 -0.8128  0.4890 -0.9068
  186POPC  H18T21437   1.226   2.756   4.730 -0.4979 -0.6355  0.1338
  186POPC   C3321438   1.023   3.619   3.428 -0.5341  0.0062  0.4826
  186POPC   H3X21439   0.933   3.566   3.389  1.3528 -3.1766  0.0690
  186POPC   H3Y21440   0.999   3.723   3.458  0.0472  1.2427 -2.8945
  186POPC   C3421441   1.040   3.536   3.557 -0.1481 -0.4311 -0.3012
  186POPC   H4X21442   1.113   3.585   3.626 -1.9165 -0.1210  1.4281
  186POPC   H4Y21443   1.085   3.444   3.514  3.5901  2.0329 -2.2543
  186POPC   C3521444   0.907   3.522   3.633 -0.8104 -0.0331 -0.2612
  186POPC   H5X21445   0.847   3.451   3.572  0.7729 -1.9112  0.2468
  186POPC   H5Y21446   0.862   3.623   3.639  0.1619  0.3754  0.3585
  186POPC   C3621447   0.934   3.461   3.775  0.4144  0.3762 -1.2011
  186POPC   H6X21448   0.986   3.534   3.841  0.3344 -0.9688  0.4001
  186POPC   H6Y21449   0.994   3.368   3.789 -2.3593 -1.0202  2.9110
  186POPC   C3721450   0.804   3.399   3.834  0.2048  0.1201  0.2503
  186POPC   H7X21451   0.780   3.305   3.779 -1.0281 -1.0118  2.5774
  186POPC   H7Y21452   0.721   3.470   3.818 -0.2398 -0.2973  0.6621
  186POPC   C3821453   0.807   3.366   3.982 -0.4480 -0.5019  0.0660
  186POPC   H8X21454   0.836   3.456   4.040  0.2186 -1.3849  1.1536
  186POPC   H8Y21455   0.885   3.287   3.989  1.6836  1.3521 -1.3361
  186POPC   C3921456   0.674   3.318   4.047  0.6454  0.3444  0.3883
  186POPC   H9X21457   0.624   3.252   3.973  0.0585  1.2541 -0.0434
  186POPC   H9Y21458   0.609   3.405   4.071  1.1827  0.4945  1.3176
  186POPC  C31021459   0.699   3.239   4.180  0.0270 -1.0563  0.0291
  186POPC  H10X21460   0.751   3.301   4.257  3.2107 -1.1783 -1.8673
  186POPC  H10Y21461   0.775   3.161   4.159  2.7959  1.5998 -0.3966
  186POPC  C31121462   0.570   3.178   4.226 -0.0362 -0.7145 -0.3806
  186POPC  H11X21463   0.525   3.128   4.138  1.0805 -0.6949 -0.9859
  186POPC  H11Y21464   0.510   3.262   4.267  1.9468  0.0176  1.2205
  186POPC  C31221465   0.603   3.086   4.343 -0.1137  0.0322  0.0685
  186POPC  H12X21466   0.644   3.149   4.425  1.9924 -0.5923 -0.4669
  186POPC  H12Y21467   0.678   3.008   4.316  0.6924  0.1194  1.9109
  186POPC  C31321468   0.475   3.019   4.391  0.1715 -0.1417 -0.4616
  186POPC  H13X21469   0.440   2.950   4.311  0.2822 -0.3806 -0.3046
  186POPC  H13Y21470   0.395   3.094   4.408  2.2341  1.5762  2.4140
  186POPC  C31421471   0.487   2.952   4.528  0.1851  0.5828 -0.3075
  186POPC  H14X21472   0.524   3.023   4.606  0.0746  0.2279  0.0708
  186POPC  H14Y21473   0.573   2.882   4.520  1.3936  2.0636 -0.7403
  186POPC  C31521474   0.360   2.879   4.579 -1.0889  0.7320  0.3761
  186POPC  H15X21475   0.338   2.796   4.509  1.5985 -1.2217  1.6561
  186POPC  H15Y21476   0.277   2.952   4.572 -1.9906 -0.2355  0.7415
  186POPC  C31621477   0.365   2.813   4.723 -0.4010  0.2157  0.4436
  186POPC  H16X21478   0.400   2.708   4.713  1.3908  0.9012 -1.2689
  186POPC  H16Y21479   0.261   2.824   4.762  0.0800  1.8524  1.3526
  186POPC  H16Z21480   0.439   2.862   4.789  0.8442 -0.8518 -0.0973
  187POPC     N21481   2.868   1.369   2.691  0.5331  0.6827  0.0728
  187POPC   C1221482   2.939   1.238   2.730  0.4354 -0.3312 -0.6144
  187POPC  H12A21483   3.036   1.230   2.684  0.0328 -0.9607 -1.3857
  187POPC  H12B21484   2.883   1.157   2.685  0.6134 -0.5784 -0.3990
  187POPC   C1321485   2.853   1.369   2.544  0.4096 -0.3911  0.3214
  187POPC  H13A21486   2.943   1.396   2.492 -0.9137 -0.8678 -2.4236
  187POPC  H13B21487   2.809   1.278   2.506  0.8654 -0.2711 -0.5080
  187POPC  H13C21488   2.787   1.451   2.519  1.0604  0.4182  1.1729
  187POPC   C1421489   2.736   1.382   2.761 -0.1288 -0.0424  0.1841
  187POPC  H14A21490   2.685   1.474   2.737  1.8697  0.1652 -4.2564
  187POPC  H14B21491   2.672   1.301   2.730  1.1697  0.2043 -3.7893
  187POPC  H14C21492   2.723   1.378   2.868 -1.1341  0.0572  0.0682
  187POPC   C1521493   2.953   1.485   2.746  0.3373 -0.3821 -0.0163
  187POPC  H15A21494   2.882   1.567   2.752  1.2860  0.4823 -0.4640
  187POPC  H15B21495   3.036   1.514   2.684 -2.0324  3.3018 -1.8329
  187POPC  H15C21496   2.994   1.460   2.843 -1.1633 -1.1010  0.4786
  187POPC   C1121497   2.953   1.205   2.887  0.3214 -0.4988  0.5196
  187POPC  H11A21498   3.001   1.105   2.902  0.5968 -0.5871 -0.8402
  187POPC  H11B21499   2.853   1.180   2.928 -1.1897 -0.0302 -2.6458
  187POPC     P21500   3.163   1.297   3.009 -0.3960 -0.2461  0.0201
  187POPC   O1321501   3.210   1.423   3.067  0.4752  0.2520 -0.4035
  187POPC   O1421502   3.228   1.255   2.881 -0.5054 -0.3179 -0.1288
  187POPC   O1221503   3.010   1.309   2.974  0.4504 -0.2408  0.2004
  187POPC   O1121504   3.169   1.179   3.107  0.4449 -0.1679  0.0508
  187POPC    C121505   3.096   1.193   3.232 -0.3712  0.0513  0.5645
  187POPC    HA21506   3.001   1.135   3.227 -0.5439  0.3369  0.5027
  187POPC    HB21507   3.065   1.299   3.246 -1.8400 -0.4038  1.0035
  187POPC    C221508   3.168   1.122   3.346  0.3307  1.0639 -0.1199
  187POPC    HS21509   3.266   1.170   3.367 -0.3099  2.2028  0.3731
  187POPC   O2121510   3.190   0.984   3.313 -0.0011  0.0247 -0.1146
  187POPC   C2121511   3.281   0.922   3.387  0.8023  0.9846 -0.4113
  187POPC   O2221512   3.357   0.969   3.473  0.0504  0.0748 -0.2338
  187POPC   C2221513   3.276   0.776   3.344  0.0009  0.6458 -0.1409
  187POPC   H2R21514   3.347   0.714   3.402 -2.1315 -0.7840  1.1012
  187POPC   H2S21515   3.307   0.777   3.238  0.3911 -1.1727 -0.0738
  187POPC    C321516   3.079   1.139   3.478 -0.0330  0.0648  0.4712
  187POPC    HX21517   2.977   1.110   3.448 -0.7946  1.8433  1.1699
  187POPC    HY21518   3.065   1.247   3.501 -2.6155  0.3910 -2.1031
  187POPC   O3121519   3.122   1.071   3.597  0.2960  0.0410  0.4334
  187POPC   C3121520   3.208   1.137   3.667 -0.0639 -0.0697 -0.3981
  187POPC   O3221521   3.259   1.246   3.643  0.8640  0.0293  0.2359
  187POPC   C3221522   3.236   1.070   3.795 -0.2573  0.3608  0.6606
  187POPC   H2X21523   3.347   1.061   3.797 -0.3997 -3.4760 -0.1507
  187POPC   H2Y21524   3.207   0.962   3.793  0.6428  0.1061  0.8915
  187POPC   C2321525   3.137   0.704   3.355  0.6353  0.5284 -0.1592
  187POPC   H3R21526   3.150   0.625   3.278  2.8857  0.6553  0.0101
  187POPC   H3S21527   3.048   0.760   3.319 -0.0981 -0.1726  0.5112
  187POPC   C2421528   3.098   0.652   3.500 -0.2045  0.5781 -0.1129
  187POPC   H4R21529   2.991   0.623   3.506 -0.3739  1.5057  2.6076
  187POPC   H4S21530   3.113   0.736   3.571  1.1897 -0.4302  0.8383
  187POPC   C2521531   3.188   0.546   3.556 -0.2111 -0.3248  0.7834
  187POPC   H5R21532   3.286   0.599   3.564 -0.6266  0.4709  0.7048
  187POPC   H5S21533   3.213   0.467   3.482  3.1946 -0.7634  2.2017
  187POPC   C2621534   3.141   0.493   3.688 -0.4768  0.9015 -0.0971
  187POPC   H6R21535   3.046   0.437   3.674 -0.1149  0.4852 -0.9795
  187POPC   H6S21536   3.109   0.578   3.753  1.6972  1.1223  0.7491
  187POPC   C2721537   3.242   0.398   3.763  0.2415  0.1081  0.3060
  187POPC   H7R21538   3.340   0.445   3.784  1.1015 -2.6661  3.4035
  187POPC   H7S21539   3.257   0.319   3.687  2.7172  1.4442 -0.7317
  187POPC   C2821540   3.191   0.349   3.894  1.0264  0.1121 -0.5525
  187POPC   H8R21541   3.088   0.307   3.891  0.5706  1.0884  0.5875
  187POPC   H8S21542   3.185   0.435   3.963 -0.1517  0.3511 -0.9347
  187POPC   C2921543   3.289   0.241   3.948  0.2786  0.3022 -0.1384
  187POPC   H9121544   3.313   0.166   3.872 -0.5527  0.7143 -0.8112
  187POPC  C21021545   3.339   0.218   4.075  0.5159 -1.2795  1.1111
  187POPC  H10121546   3.409   0.132   4.077  3.3622  0.9059  1.8959
  187POPC  C21121547   3.325   0.300   4.207  0.2144 -0.4779 -0.2057
  187POPC  H11R21548   3.248   0.380   4.198  1.3791  0.5955 -1.0069
  187POPC  H11S21549   3.428   0.326   4.241  0.8741 -4.2495  1.1762
  187POPC  C21221550   3.269   0.217   4.324  0.0983 -0.1066 -0.2238
  187POPC  H12R21551   3.276   0.279   4.416 -0.1827 -2.0106  1.1594
  187POPC  H12S21552   3.333   0.128   4.340 -3.1997 -2.2824  2.4040
  187POPC  C21321553   3.127   0.169   4.303  0.1722 -0.4321 -0.5779
  187POPC  H13R21554   3.102   0.132   4.202  0.5150  1.2432 -1.3145
  187POPC  H13S21555   3.066   0.256   4.338  0.1128 -0.1973 -1.2516
  187POPC  C21421556   3.095   0.050   4.392 -0.5346  0.6603  0.7817
  187POPC  H14R21557   3.145  -0.044   4.362  1.5183  1.8217  0.3814
  187POPC  H14S21558   2.985   0.042   4.381 -0.2905  0.1480 -1.9065
  187POPC  C21521559   3.112   0.078   4.539  0.1554 -0.7818  0.2741
  187POPC  H15R21560   3.083   0.181   4.567  0.0055 -1.1319  1.4602
  187POPC  H15S21561   3.222   0.066   4.553  0.4010 -1.7035 -2.0940
  187POPC  C21621562   3.032  -0.020   4.634  0.1858 -0.9513 -0.4129
  187POPC  H16R21563   3.073  -0.124   4.633 -0.6049 -1.3271  1.7244
  187POPC  H16S21564   2.925  -0.017   4.602 -0.2687  3.0615  0.9864
  187POPC  C21721565   3.037   0.036   4.785  0.3359  0.1601 -0.5583
  187POPC  H17R21566   2.969  -0.018   4.854  2.0689  0.0027  1.1308
  187POPC  H17S21567   3.002   0.141   4.775 -2.0059 -0.7236 -2.6016
  187POPC  C21821568   3.178   0.029   4.857  0.4090  0.4550  0.8001
  187POPC  H18R21569   3.175   0.045   4.967  1.2073  0.0168  0.8907
  187POPC  H18S21570   3.238   0.107   4.805 -0.7432 -0.7539 -2.6360
  187POPC  H18T21571   3.228  -0.068   4.834  1.8032  0.8527  2.0528
  187POPC   C3321572   3.198   1.136   3.922 -0.5213 -0.6339 -0.1579
  187POPC   H3X21573   3.088   1.136   3.930 -0.8056 -1.0491 -3.1279
  187POPC   H3Y21574   3.229   1.243   3.930 -0.8933 -0.4087 -1.4890
  187POPC   C3421575   3.256   1.064   4.043 -0.0683  0.9062  1.0320
  187POPC   H4X21576   3.344   1.117   4.085  1.9242 -0.4659 -1.1495
  187POPC   H4Y21577   3.291   0.962   4.014  1.1045  1.3353  0.8685
  187POPC   C3521578   3.154   1.046   4.160 -0.2617 -0.2479 -0.1081
  187POPC   H5X21579   3.073   0.994   4.105  0.2732 -1.0436 -0.1606
  187POPC   H5Y21580   3.129   1.147   4.198 -1.6646 -1.5128  2.5881
  187POPC   C3621581   3.218   0.959   4.272 -0.3337  0.1491  0.5394
  187POPC   H6X21582   3.323   0.994   4.272 -0.5936  1.6266 -3.8749
  187POPC   H6Y21583   3.227   0.852   4.244  0.1898 -0.0006  1.2514
  187POPC   C3721584   3.134   0.978   4.399 -0.3547 -0.3290  0.6673
  187POPC   H7X21585   3.075   0.884   4.396  0.8056 -1.0536 -1.4114
  187POPC   H7Y21586   3.062   1.063   4.391  0.3769  0.2586  0.1624
  187POPC   C3821587   3.216   0.979   4.524 -0.2932 -0.0707 -0.8361
  187POPC   H8X21588   3.292   1.060   4.511 -0.9438  0.8342  0.6988
  187POPC   H8Y21589   3.279   0.889   4.543  1.6260  1.5567  1.0869
  187POPC   C3921590   3.124   1.013   4.646 -0.4342 -0.8479  0.3024
  187POPC   H9X21591   3.074   1.108   4.620  0.8714 -0.0557  0.6070
  187POPC   H9Y21592   3.193   1.039   4.729 -2.3082  0.2868  1.5897
  187POPC  C31021593   3.024   0.907   4.686  0.7662  0.7262 -0.6067
  187POPC  H10X21594   3.071   0.813   4.721 -1.3401  0.7469  2.6263
  187POPC  H10Y21595   2.967   0.878   4.594 -0.4290  1.2472 -0.0571
  187POPC  C31121596   2.928   0.929   4.807  0.2765 -0.1788 -0.2115
  187POPC  H11X21597   2.856   0.844   4.804 -1.5280  1.2972 -1.7124
  187POPC  H11Y21598   2.872   1.022   4.783  1.3886  0.1818 -1.4741
  187POPC  C31221599   3.002   0.930   4.945 -0.2574 -0.2312  0.4115
  187POPC  H12X21600   3.083   1.006   4.942 -0.7107  0.2752  0.7425
  187POPC  H12Y21601   3.045   0.827   4.945  2.1234  0.6616 -1.4041
  187POPC  C31321602   2.915   0.981   5.057 -0.3588  0.7520 -0.0092
  187POPC  H13X21603   2.893   1.090   5.052 -2.0010  0.3776 -2.4571
  187POPC  H13Y21604   2.985   0.981   5.144  0.9549  3.0887 -0.9507
  187POPC  C31421605   2.787   0.911   5.081  0.0434  0.2882 -0.0205
  187POPC  H14X21606   2.721   0.925   4.993  0.6062 -0.8391 -0.6496
  187POPC  H14Y21607   2.731   0.959   5.163 -0.8151  0.7420 -0.8567
  187POPC  C31521608   2.800   0.765   5.126  0.2839 -0.4218  0.2260
  187POPC  H15X21609   2.849   0.696   5.053 -1.8173 -1.8182  0.0587
  187POPC  H15Y21610   2.698   0.724   5.139 -0.2645  0.8729  0.1244
  187POPC  C31621611   2.881   0.736   5.253  0.0492 -0.9194  0.2196
  187POPC  H16X21612   2.830   0.791   5.335  1.6700  2.1668 -0.6555
  187POPC  H16Y21613   2.986   0.772   5.243 -0.8979  2.2142  0.2427
  187POPC  H16Z21614   2.876   0.627   5.273 -1.5050 -1.0766 -0.8479
  188POPC     N21615   0.167   1.185   2.384 -0.2502 -0.4378  0.5315
  188POPC   C1221616   0.125   1.045   2.352 -0.2662  0.0127 -0.1588
  188POPC  H12A21617   0.183   0.975   2.411  0.0782  0.9719  0.6708
  188POPC  H12B21618   0.153   1.025   2.250 -1.1314 -2.1782 -0.0080
  188POPC   C1321619   0.130   1.211   2.527  0.4254 -0.2881 -0.0909
  188POPC  H13A21620   0.174   1.143   2.598  0.0889  0.0187  0.4151
  188POPC  H13B21621   0.129   1.315   2.555 -1.8948  0.0791 -1.2958
  188POPC  H13C21622   0.024   1.187   2.528  0.2611  0.1229 -2.2585
  188POPC   C1421623   0.316   1.203   2.369 -0.2261  0.0978  0.6653
  188POPC  H14A21624   0.351   1.181   2.269  0.0699 -0.7940  0.9568
  188POPC  H14B21625   0.331   1.307   2.393 -1.3001  0.2271  0.8246
  188POPC  H14C21626   0.371   1.141   2.438 -0.4858 -2.5062 -1.2669
  188POPC   C1521627   0.095   1.289   2.301  0.5076 -0.2885  0.2088
  188POPC  H15A21628   0.112   1.389   2.337  0.3506  0.3767 -1.4890
  188POPC  H15B21629  -0.012   1.284   2.311  0.5065 -1.6518 -0.1954
  188POPC  H15C21630   0.119   1.263   2.199  1.4127 -0.2792  0.4090
  188POPC   C1121631  -0.026   1.014   2.369  0.7026  0.4890 -0.2643
  188POPC  H11A21632  -0.085   1.103   2.338  0.2644  0.2339 -0.1628
  188POPC  H11B21633  -0.055   1.013   2.476 -1.6448 -0.9425 -0.8309
  188POPC     P21634  -0.187   0.813   2.359 -0.0625 -0.0889  0.1262
  188POPC   O1321635  -0.219   0.706   2.264  0.1937 -0.4128  0.2983
  188POPC   O1421636  -0.288   0.921   2.395  0.0270  0.6537  0.0019
  188POPC   O1221637  -0.063   0.891   2.301  0.1208 -0.3319 -0.1262
  188POPC   O1121638  -0.129   0.750   2.489  0.4147  1.1760  0.1077
  188POPC    C121639  -0.008   0.677   2.493 -0.1095  0.7663 -0.5540
  188POPC    HA21640   0.079   0.712   2.433  1.3814 -0.6081  0.7025
  188POPC    HB21641  -0.027   0.578   2.446  0.2204 -0.0515  0.9563
  188POPC    C221642   0.040   0.632   2.635  0.5752 -0.2531 -0.0567
  188POPC    HS21643  -0.032   0.556   2.670 -1.5454  0.5395 -2.4430
  188POPC   O2121644   0.037   0.749   2.723  0.0063  0.4132 -0.2137
  188POPC   C2121645  -0.082   0.800   2.761  0.4349  0.3698  0.4384
  188POPC   O2221646  -0.185   0.731   2.765  0.8855 -0.2019 -0.1245
  188POPC   C2221647  -0.059   0.950   2.789 -0.0319  0.1684  1.0153
  188POPC   H2R21648  -0.155   1.003   2.804 -1.2794 -1.8001  0.4110
  188POPC   H2S21649  -0.013   0.980   2.693  1.0120 -1.5632  0.9130
  188POPC    C321650   0.185   0.576   2.637  0.2050  0.5086 -0.3464
  188POPC    HX21651   0.244   0.657   2.589  1.8299  1.1982  2.5699
  188POPC    HY21652   0.192   0.482   2.579  0.4663 -1.4864  2.6950
  188POPC   O3121653   0.224   0.548   2.768 -0.3668  0.0595  0.3054
  188POPC   C3121654   0.298   0.635   2.833  0.3251 -0.5464 -0.1233
  188POPC   O3221655   0.354   0.735   2.783  0.2104  0.2877 -0.1718
  188POPC   C3221656   0.302   0.591   2.977 -0.3012 -0.4504 -0.7560
  188POPC   H2X21657   0.213   0.529   2.998 -0.9944  0.7484 -0.0513
  188POPC   H2Y21658   0.320   0.668   3.055 -3.1597  1.1702 -1.5360
  188POPC   C2321659   0.042   0.974   2.906  0.3394 -0.9007 -0.0353
  188POPC   H3R21660   0.072   1.080   2.889 -0.4287 -0.8175 -0.8991
  188POPC   H3S21661   0.130   0.909   2.888  0.0126 -1.0782 -1.0385
  188POPC   C2421662  -0.031   0.970   3.045 -0.3516 -0.4039  0.2770
  188POPC   H4R21663  -0.106   0.890   3.060  0.9240 -1.4587  1.3838
  188POPC   H4S21664  -0.077   1.070   3.058  0.8369 -0.1159  2.9619
  188POPC   C2521665   0.073   0.956   3.164 -0.6010  0.0224  0.0449
  188POPC   H5R21666   0.136   1.048   3.163 -1.7004  0.8071 -1.9756
  188POPC   H5S21667   0.136   0.875   3.121 -0.9030 -0.1078 -0.1556
  188POPC   C2621668   0.004   0.915   3.295  0.3384  0.1172  0.4524
  188POPC   H6R21669  -0.053   0.821   3.278  3.0417 -1.0549 -3.3522
  188POPC   H6S21670  -0.075   0.985   3.331 -0.5070  0.8258 -2.4839
  188POPC   C2721671   0.102   0.867   3.400  0.3758  0.2182 -0.3305
  188POPC   H7R21672   0.188   0.812   3.355 -0.0578 -0.2928 -0.5576
  188POPC   H7S21673   0.048   0.791   3.461  0.1644  2.0632  1.8814
  188POPC   C2821674   0.157   0.980   3.487 -0.0090 -0.1678 -0.0015
  188POPC   H8R21675   0.157   1.070   3.422  0.5032 -0.8239 -0.9404
  188POPC   H8S21676   0.264   0.964   3.513  0.8377  1.5370 -2.1104
  188POPC   C2921677   0.072   1.003   3.613 -0.5991 -0.2610  0.0975
  188POPC   H9121678  -0.019   1.058   3.584 -0.5442  0.0670  0.5287
  188POPC  C21021679   0.108   0.993   3.743  0.0630 -0.4043  0.0914
  188POPC  H10121680   0.023   1.003   3.811  1.0334  1.2303  1.1190
  188POPC  C21121681   0.227   0.941   3.812  0.3433  0.3099  0.4568
  188POPC  H11R21682   0.263   1.032   3.865 -0.7712  0.8565  0.3004
  188POPC  H11S21683   0.297   0.894   3.741 -0.5541 -2.1950  1.1117
  188POPC  C21221684   0.206   0.837   3.922  0.0618 -0.3551 -0.3279
  188POPC  H12R21685   0.280   0.755   3.908 -1.1285 -1.2132 -1.8884
  188POPC  H12S21686   0.109   0.785   3.907  0.3153 -0.5945 -1.2317
  188POPC  C21321687   0.208   0.911   4.052  0.6702  0.0980 -0.1181
  188POPC  H13R21688   0.293   0.981   4.068  1.7147 -1.5744  2.3144
  188POPC  H13S21689   0.223   0.836   4.132  1.2429 -2.2591 -2.2972
  188POPC  C21421690   0.075   0.980   4.072 -0.1565  0.3777  0.2920
  188POPC  H14R21691  -0.014   0.920   4.045 -1.0818  2.1721 -0.7763
  188POPC  H14S21692   0.058   1.065   4.002 -0.9688 -0.7225 -0.9025
  188POPC  C21521693   0.045   1.030   4.215 -0.5374  0.3143  1.1162
  188POPC  H15R21694  -0.044   1.096   4.212 -0.4305  0.4292 -1.1499
  188POPC  H15S21695   0.123   1.105   4.240  2.1855 -1.6137 -0.9746
  188POPC  C21621696   0.038   0.920   4.316  0.3077 -0.3817 -0.1540
  188POPC  H16R21697   0.129   0.856   4.312 -0.7216 -1.8409 -2.5176
  188POPC  H16S21698  -0.047   0.855   4.286  1.0199 -0.6175 -1.7962
  188POPC  C21721699  -0.003   0.979   4.459 -0.8642 -0.0786  0.1454
  188POPC  H17R21700  -0.101   1.032   4.453  0.8762  3.2836 -1.3842
  188POPC  H17S21701   0.078   1.052   4.480  0.3024 -1.6806  1.4690
  188POPC  C21821702  -0.006   0.876   4.567  0.2142  0.3093  0.3258
  188POPC  H18R21703  -0.051   0.917   4.660 -3.9273  0.4558 -1.5468
  188POPC  H18S21704   0.099   0.839   4.571 -0.0491 -0.3953  1.1595
  188POPC  H18T21705  -0.071   0.792   4.536  1.0994  0.2035 -1.3310
  188POPC   C3321706   0.414   0.482   2.993  0.4179  0.1907  0.4484
  188POPC   H3X21707   0.455   0.490   3.096  1.7215 -1.4409  0.1017
  188POPC   H3Y21708   0.498   0.497   2.921 -0.0787 -1.1983 -0.4538
  188POPC   C3421709   0.365   0.340   2.976 -0.4185  0.1904 -0.6120
  188POPC   H4X21710   0.339   0.324   2.870 -2.4286 -0.2633 -0.0908
  188POPC   H4Y21711   0.272   0.314   3.031 -1.4112 -0.0820 -2.3376
  188POPC   C3521712   0.480   0.235   3.009 -0.0652  0.0560 -1.3409
  188POPC   H5X21713   0.577   0.279   2.976  0.2992 -1.0485 -1.7997
  188POPC   H5Y21714   0.453   0.143   2.951  0.6598  0.5776 -2.5527
  188POPC   C3621715   0.474   0.217   3.162  0.3068 -0.2642  0.6452
  188POPC   H6X21716   0.374   0.195   3.205 -1.3213 -1.3049 -3.2406
  188POPC   H6Y21717   0.505   0.314   3.207 -1.6618  1.2046 -0.9827
  188POPC   C3721718   0.575   0.112   3.205  0.5897 -0.0101 -1.0607
  188POPC   H7X21719   0.664   0.144   3.148  1.7589 -0.5520  0.4180
  188POPC   H7Y21720   0.552   0.007   3.176  0.2737 -0.4876  0.7556
  188POPC   C3821721   0.599   0.113   3.351 -0.0506 -1.1153 -0.0948
  188POPC   H8X21722   0.642   0.209   3.386 -1.5187 -1.0363  1.6840
  188POPC   H8Y21723   0.682   0.041   3.369 -0.5446 -1.9955 -1.1786
  188POPC   C3921724   0.488   0.072   3.445  0.4231 -0.2605 -0.4063
  188POPC   H9X21725   0.463  -0.033   3.418  1.8255 -0.9971  0.9303
  188POPC   H9Y21726   0.405   0.145   3.443  1.7234  1.3428  0.7752
  188POPC  C31021727   0.546   0.064   3.587 -0.9305  0.2214 -0.0402
  188POPC  H10X21728   0.613   0.150   3.607  0.5088 -0.8602 -0.0075
  188POPC  H10Y21729   0.616  -0.022   3.595  0.7417  1.2775 -2.1536
  188POPC  C31121730   0.437   0.069   3.685 -0.2063  0.2864 -0.2034
  188POPC  H11X21731   0.384  -0.024   3.657 -0.2045 -0.1048  1.0106
  188POPC  H11Y21732   0.369   0.154   3.665  1.8674  1.8006 -1.2311
  188POPC  C31221733   0.487   0.076   3.827  0.4097  0.0596 -0.0538
  188POPC  H12X21734   0.545   0.167   3.853 -0.6014  0.5511  0.5332
  188POPC  H12Y21735   0.548  -0.015   3.844  0.0686 -0.1527  0.0521
  188POPC  C31321736   0.373   0.078   3.921  0.4536  0.0461 -0.4144
  188POPC  H13X21737   0.320  -0.019   3.905 -0.1027  0.5659 -1.9220
  188POPC  H13Y21738   0.310   0.168   3.904  1.4545  1.0848  1.1010
  188POPC  C31421739   0.422   0.107   4.065 -0.0075  0.3836 -0.1094
  188POPC  H14X21740   0.472   0.204   4.084 -0.4095  0.8303 -1.2555
  188POPC  H14Y21741   0.493   0.023   4.082 -0.6988 -0.6066 -1.7978
  188POPC  C31521742   0.297   0.110   4.152 -0.0945  0.2065  0.7197
  188POPC  H15X21743   0.232   0.023   4.128  0.9335 -0.4514  0.2668
  188POPC  H15Y21744   0.238   0.199   4.122 -0.7416 -0.5984 -0.4426
  188POPC  C31621745   0.304   0.129   4.314 -0.4214  0.0400  0.4854
  188POPC  H16X21746   0.344   0.229   4.340  1.1544 -0.6398  0.7292
  188POPC  H16Y21747   0.367   0.045   4.350  0.4215  0.7304  0.6481
  188POPC  H16Z21748   0.200   0.122   4.353 -0.7102 -1.0844 -0.4355
  189SAPI   C1221749   4.273   4.026   7.472  0.6075  0.5319 -0.2414
  189SAPI    H221750   4.192   4.071   7.410  1.1639  0.4230 -1.0700
  189SAPI    O221751   4.284   4.111   7.588 -0.2168  0.2755  0.0237
  189SAPI   HO221752   4.245   4.198   7.576  3.7127  1.9505 -2.6159
  189SAPI   C1321753   4.242   3.883   7.510  0.1139  0.5169  0.5531
  189SAPI    H321754   4.227   3.840   7.409 -1.6872  0.8674  0.6378
  189SAPI    O321755   4.119   3.874   7.570 -0.1298 -0.0835  0.0711
  189SAPI   HO321756   4.054   3.831   7.514 -0.5294  0.7638 -0.1351
  189SAPI   C1421757   4.357   3.823   7.587 -0.2435 -0.0217 -0.6634
  189SAPI    H421758   4.353   3.877   7.684 -1.6458  1.0452 -1.2774
  189SAPI    O421759   4.346   3.685   7.619  0.5015  0.3863 -0.0488
  189SAPI   HO421760   4.327   3.639   7.537 -0.1003  0.6691 -0.0699
  189SAPI   C1521761   4.494   3.857   7.531  0.1900 -0.6365 -0.4512
  189SAPI    H521762   4.496   3.804   7.433  0.5635  1.9805 -1.9551
  189SAPI    O521763   4.607   3.809   7.615  0.1473 -0.4559 -0.1363
  189SAPI   HO521764   4.607   3.713   7.619  0.2202 -0.4298  3.0663
  189SAPI   C1621765   4.521   3.997   7.473  0.1289  0.4591 -0.5972
  189SAPI    H621766   4.537   4.057   7.565 -1.8086 -1.3998  1.0659
  189SAPI    O621767   4.638   4.002   7.389 -0.1152 -0.3233  0.0891
  189SAPI   HO621768   4.619   4.038   7.301 -1.3019 -0.4358  0.2804
  189SAPI   C1121769   4.398   4.039   7.395 -0.6648  0.4931  0.0553
  189SAPI    H121770   4.391   3.972   7.307 -0.8118 -0.2053  0.5956
  189SAPI     P21771   4.439   4.220   7.202 -0.2475  0.3293  0.2182
  189SAPI   O1321772   4.333   4.156   7.119  0.2366  0.3030  0.0829
  189SAPI   O1421773   4.583   4.182   7.179  0.3878 -0.0618 -0.7679
  189SAPI   O1221774   4.410   4.181   7.359  0.0215 -0.4606  0.2439
  189SAPI   O1121775   4.419   4.382   7.204  0.0618 -0.2712  0.3145
  189SAPI    C121776   4.455   4.462   7.093  0.0517  0.3449  0.3982
  189SAPI    HA21777   4.516   4.544   7.137 -0.6807  0.7504  0.6611
  189SAPI    HB21778   4.514   4.408   7.016 -0.8031  0.7854 -0.5873
  189SAPI    C221779   4.328   4.527   7.020 -0.4989 -0.0900  0.2512
  189SAPI    HS21780   4.278   4.570   7.109  0.5323 -0.9132  1.2659
  189SAPI   O2121781   4.259   4.420   6.946 -0.5593  0.0263  0.4464
  189SAPI   C2121782   4.145   4.377   6.986  0.0124 -0.1691  0.2156
  189SAPI   O2221783   4.083   4.420   7.082 -0.0256 -0.0934 -0.1037
  189SAPI   C2221784   4.107   4.265   6.896 -0.4829  0.5643 -0.3928
  189SAPI   H2R21785   4.087   4.317   6.800 -0.0786  2.2398  0.3929
  189SAPI   H2S21786   4.196   4.200   6.879 -0.2159  1.2998 -1.9413
  189SAPI    C321787   4.365   4.647   6.928  1.0885  0.0119  0.5959
  189SAPI    HX21788   4.438   4.702   6.991  1.1666 -0.3536  0.8273
  189SAPI    HY21789   4.272   4.705   6.911  1.0596 -0.2626 -0.2250
  189SAPI   O3121790   4.428   4.623   6.802  0.3808  0.0386  0.2174
  189SAPI   C3121791   4.558   4.595   6.800 -0.4659 -0.1140 -0.0738
  189SAPI   O3221792   4.631   4.579   6.898  0.1138 -0.0585  0.3302
  189SAPI   C3221793   4.600   4.593   6.656  0.1925  0.0888 -0.6279
  189SAPI   H2X21794   4.560   4.681   6.602  0.5440 -0.1199 -1.2391
  189SAPI   H2Y21795   4.553   4.507   6.603 -0.4328 -0.1369  0.2801
  189SAPI   C2321796   3.984   4.185   6.928 -0.7258 -0.4241  0.3932
  189SAPI   H3R21797   3.893   4.248   6.940 -0.0779  0.7778 -0.7446
  189SAPI   H3S21798   3.997   4.141   7.029  0.5714 -1.2446 -0.1058
  189SAPI   C2421799   3.940   4.075   6.821  0.0276  0.1498  0.5477
  189SAPI   H4R21800   3.901   4.147   6.746  0.6238  2.0184  1.9700
  189SAPI   H4S21801   3.849   4.023   6.857 -0.6873  1.6639  1.0184
  189SAPI   C2521802   4.034   3.971   6.780 -0.1256 -0.3562  0.9149
  189SAPI   H5R21803   4.058   3.888   6.848  0.1664 -0.5613  0.5716
  189SAPI   C2621804   4.079   3.955   6.650 -0.2258  0.2925 -0.5459
  189SAPI   H6R21805   4.141   3.865   6.639 -0.1221  0.2092  0.6148
  189SAPI   C2721806   4.053   4.044   6.531 -0.9639 -0.9819  0.8581
  189SAPI   H7R21807   4.014   4.145   6.557  0.2400 -0.4478  0.6633
  189SAPI   H7S21808   3.987   4.000   6.453  0.7101  1.6979 -2.2930
  189SAPI   C2821809   4.192   4.070   6.466  0.0366 -0.1771 -0.0740
  189SAPI   H8R21810   4.257   4.131   6.531 -0.1134  1.4558 -1.4100
  189SAPI   C2921811   4.231   4.017   6.345  0.6436 -0.5797  0.0782
  189SAPI   H9R21812   4.326   4.047   6.298 -0.2769  1.3214 -0.6860
  189SAPI  C21021813   4.143   3.930   6.258 -0.6822 -0.1058  0.4675
  189SAPI  H10R21814   4.199   3.915   6.163  1.9970  0.9150  1.7853
  189SAPI  H10S21815   4.044   3.976   6.237 -1.0755 -1.1789 -0.0810
  189SAPI  C21121816   4.114   3.794   6.306  0.1344  0.1356 -0.0522
  189SAPI  H11R21817   4.144   3.777   6.411  0.1837 -1.6329 -0.3349
  189SAPI  C21221818   4.049   3.690   6.247 -0.6873 -0.4632 -0.6603
  189SAPI  H12R21819   4.039   3.596   6.304 -0.9268  1.2635  2.3307
  189SAPI  C21321820   4.000   3.688   6.104 -0.1866  0.0322  0.7025
  189SAPI  H13R21821   3.968   3.791   6.075 -0.3472 -0.8011 -2.3703
  189SAPI  H13S21822   3.918   3.614   6.092 -0.3636  0.2484  0.5685
  189SAPI  C21421823   4.109   3.651   6.001  0.1442 -0.1520  0.1634
  189SAPI  H14R21824   4.172   3.563   6.018  1.3956  0.6479 -0.2295
  189SAPI  C21521825   4.148   3.737   5.899  0.7574 -0.0647  0.0291
  189SAPI  H15R21826   4.224   3.701   5.828  1.2099  0.3917  0.2732
  189SAPI  C21621827   4.086   3.870   5.860  0.1640  0.1017 -0.0048
  189SAPI  H16R21828   4.121   3.947   5.933  0.3588  0.8417 -0.8702
  189SAPI  H16S21829   3.977   3.854   5.866 -0.0455  0.8581 -1.4260
  189SAPI  C21721830   4.121   3.927   5.724  0.1705 -0.0465 -0.0945
  189SAPI  H17R21831   4.232   3.938   5.718  0.3573 -1.4646  0.2384
  189SAPI  H17S21832   4.082   4.030   5.727  0.8052  0.1853  0.8674
  189SAPI  C21821833   4.063   3.846   5.608 -1.1078  0.3731  0.4221
  189SAPI  H18R21834   3.963   3.819   5.646 -0.3103 -1.2366  1.5000
  189SAPI  H18S21835   4.133   3.762   5.590 -0.1391  0.9329  1.4007
  189SAPI  C21921836   4.059   3.931   5.474  0.1840  0.5950 -0.1484
  189SAPI  H19R21837   4.142   4.003   5.485  0.6601  0.3092 -1.6673
  189SAPI  H19S21838   3.967   3.993   5.476 -0.3972 -0.2510  0.1156
  189SAPI  C22021839   4.065   3.860   5.344  0.1852  0.2175 -0.0653
  189SAPI  H20R21840   4.139   3.778   5.354  0.1607  0.1539 -0.3952
  189SAPI  H20S21841   4.101   3.928   5.264  0.2420  0.9591  0.5815
  189SAPI  H20T21842   3.965   3.823   5.314  0.4587  1.0481 -2.1614
  189SAPI   C3321843   4.753   4.595   6.632  0.3350  0.2224  0.1635
  189SAPI   H3X21844   4.811   4.521   6.691 -0.3408 -0.5328 -0.0976
  189SAPI   H3Y21845   4.803   4.693   6.648  0.4217  0.3040 -0.5749
  189SAPI   C3421846   4.789   4.558   6.485 -0.6944  0.2054 -0.4864
  189SAPI   H4X21847   4.767   4.450   6.474 -1.8814  0.4137 -0.2856
  189SAPI   H4Y21848   4.900   4.563   6.478 -0.7513  0.7826 -1.2440
  189SAPI   C3521849   4.731   4.653   6.374 -0.6597  0.0981  0.1702
  189SAPI   H5X21850   4.736   4.758   6.411  4.0976  0.1922 -0.1165
  189SAPI   H5Y21851   4.624   4.622   6.370 -0.8823  0.9216 -0.7771
  189SAPI   C3621852   4.806   4.637   6.240  0.3180  0.4460 -0.5634
  189SAPI   H6X21853   4.810   4.528   6.221 -1.5329  0.3194 -0.3659
  189SAPI   H6Y21854   4.905   4.676   6.272  0.9709 -1.2921 -0.3692
  189SAPI   C3721855   4.745   4.714   6.122 -0.6889 -0.6792 -0.2790
  189SAPI   H7X21856   4.748   4.824   6.135 -0.6310 -0.9297  2.4905
  189SAPI   H7Y21857   4.645   4.667   6.106 -0.5527 -0.2595 -2.7060
  189SAPI   C3821858   4.819   4.696   5.989  0.5374 -0.7225  0.3414
  189SAPI   H8X21859   4.853   4.590   5.989 -1.8122 -1.5366  0.8730
  189SAPI   H8Y21860   4.900   4.771   5.982  1.3126 -1.4358  1.3027
  189SAPI   C3921861   4.721   4.717   5.872  0.3697 -0.3673  0.0250
  189SAPI   H9X21862   4.656   4.807   5.874 -0.3197 -0.8431  3.2558
  189SAPI   H9Y21863   4.649   4.633   5.861 -1.2275  0.5252  2.7793
  189SAPI  C31021864   4.808   4.723   5.746 -0.5831 -0.2499  1.2381
  189SAPI  H10X21865   4.862   4.627   5.731  2.5729  1.5621 -0.1682
  189SAPI  H10Y21866   4.885   4.800   5.771  0.0579 -0.4643 -0.0212
  189SAPI  C31121867   4.727   4.758   5.618  0.3497  0.3012  0.4882
  189SAPI  H11X21868   4.654   4.840   5.635  1.1741  1.6105 -1.9306
  189SAPI  H11Y21869   4.676   4.661   5.597  0.3407 -0.0276  1.8816
  189SAPI  C31221870   4.804   4.782   5.486  0.7522 -0.0011 -0.5913
  189SAPI  H12X21871   4.746   4.743   5.400  1.3674 -1.3487 -0.4239
  189SAPI  H12Y21872   4.898   4.723   5.481  0.8977  0.3280 -1.9916
  189SAPI  C31321873   4.835   4.927   5.467 -0.9472 -0.5195  0.6708
  189SAPI  H13X21874   4.891   4.960   5.557 -0.1056  0.2347 -0.1211
  189SAPI  H13Y21875   4.741   4.984   5.454 -1.2236 -0.9276  0.8525
  189SAPI  C31421876   4.916   4.961   5.330 -0.5044 -0.2445  0.2640
  189SAPI  H14X21877   4.917   5.071   5.315 -0.0465 -0.0977  1.2622
  189SAPI  H14Y21878   4.861   4.927   5.240  1.6106 -0.0338 -1.1758
  189SAPI  C31521879   5.050   4.886   5.314 -0.2829 -0.4381  0.7640
  189SAPI  H15X21880   5.061   4.779   5.342  1.2074 -1.6350 -3.6112
  189SAPI  H15Y21881   5.119   4.948   5.375  0.1560 -0.5955  0.4360
  189SAPI  C31621882   5.102   4.901   5.172 -0.4501 -0.5737  0.3247
  189SAPI  H16X21883   5.030   4.944   5.099  1.9670  1.3460 -1.1046
  189SAPI  H16Y21884   5.122   4.797   5.138 -0.3298 -0.5944  0.4576
  189SAPI  C31721885   5.222   4.998   5.169 -0.2113  0.1402 -0.7744
  189SAPI  H17X21886   5.273   4.995   5.071  0.7365  0.5961 -0.3130
  189SAPI  H17Y21887   5.296   4.971   5.247 -2.4332  1.7077  2.0960
  189SAPI  C31821888   5.183   5.147   5.190  0.7190 -0.4991  0.0100
  189SAPI  H18X21889   5.250   5.206   5.257 -0.8360 -0.0898  1.2639
  189SAPI  H18Y21890   5.084   5.161   5.239  1.7809 -0.5122  2.2792
  189SAPI  H18Z21891   5.195   5.200   5.093  0.9304 -1.1036 -0.2931
  190SAPI   C1221892   0.725   3.051   6.986  0.3521 -0.2116  0.3398
  190SAPI    H221893   0.761   2.947   6.997 -0.1589 -0.8366 -2.9936
  190SAPI    O221894   0.679   3.107   7.110 -0.5249 -0.5903 -0.4986
  190SAPI   HO221895   0.585   3.095   7.120 -1.0198  2.5680 -0.3604
  190SAPI   C1321896   0.847   3.121   6.939 -0.2549  0.0671  0.3350
  190SAPI    H321897   0.867   3.097   6.833 -1.1673  1.2923 -0.1477
  190SAPI    O321898   0.957   3.086   7.025 -0.3863 -0.2855 -0.1588
  190SAPI   HO321899   0.965   3.131   7.110 -3.2275  0.4204 -0.1762
  190SAPI   C1421900   0.826   3.273   6.940 -0.3942 -0.9764  0.5879
  190SAPI    H421901   0.795   3.308   7.041 -0.8128 -1.2101  0.5436
  190SAPI    O421902   0.941   3.348   6.897 -0.3267  0.2617  0.1690
  190SAPI   HO421903   0.939   3.430   6.948 -1.4316  1.4049 -1.6004
  190SAPI   C1521904   0.710   3.311   6.855 -0.1974  0.3690  0.3054
  190SAPI    H521905   0.753   3.313   6.752 -0.2464  0.4634  0.2865
  190SAPI    O521906   0.670   3.439   6.882  0.3369 -0.0218  0.6737
  190SAPI   HO521907   0.647   3.492   6.805  0.6308 -3.5795 -2.1340
  190SAPI   C1621908   0.591   3.216   6.860 -0.1369  0.8875 -0.2170
  190SAPI    H621909   0.534   3.247   6.950  0.5417 -0.5977  0.7509
  190SAPI    O621910   0.505   3.231   6.746 -0.0985 -0.0959 -0.1184
  190SAPI   HO621911   0.414   3.250   6.769  0.1655  3.3984 -1.2944
  190SAPI   C1121912   0.621   3.066   6.880  0.5033 -0.1156  0.1744
  190SAPI    H121913   0.664   3.035   6.783 -1.4929  1.2341 -1.2166
  190SAPI     P21914   0.467   2.839   6.884  0.0588  0.1975 -0.3183
  190SAPI   O1321915   0.397   2.784   7.009 -0.5763  0.1135  0.1537
  190SAPI   O1421916   0.592   2.760   6.849 -0.3356 -0.0151  0.2549
  190SAPI   O1221917   0.504   2.998   6.910 -0.1643 -0.2587  0.3986
  190SAPI   O1121918   0.363   2.853   6.772  0.0281 -0.0472  0.8355
  190SAPI    C121919   0.245   2.928   6.788  0.4712  0.1769 -0.1656
  190SAPI    HA21920   0.262   2.998   6.872  2.0013  0.4105 -0.6397
  190SAPI    HB21921   0.228   2.982   6.692 -1.8779  0.3580  0.2915
  190SAPI    C221922   0.120   2.843   6.840  0.5372  0.0633 -0.2183
  190SAPI    HS21923   0.137   2.815   6.946 -0.8709 -1.6287 -0.3911
  190SAPI   O2121924   0.102   2.729   6.761  0.0801 -0.0802  0.3852
  190SAPI   C2121925   0.001   2.654   6.795  0.6177 -0.2863 -0.1153
  190SAPI   O2221926  -0.068   2.667   6.894  0.4307 -0.6130 -0.0858
  190SAPI   C2221927  -0.017   2.543   6.698  0.2168  0.6574 -0.2860
  190SAPI   H2R21928   0.009   2.445   6.743  1.2660 -0.2462 -2.7255
  190SAPI   H2S21929  -0.127   2.530   6.689  0.3550 -2.3334  1.2408
  190SAPI    C321930  -0.006   2.942   6.845 -0.6520 -0.0094  0.4342
  190SAPI    HX21931   0.020   3.019   6.921 -1.3517  2.0361 -1.3207
  190SAPI    HY21932  -0.092   2.885   6.886 -0.7654 -0.4583 -0.4055
  190SAPI   O3121933  -0.010   3.004   6.716 -0.4577  0.1860  0.2493
  190SAPI   C3121934  -0.100   2.949   6.643  0.0201 -0.0743  0.3747
  190SAPI   O3221935  -0.180   2.858   6.669 -0.3704 -0.3486 -0.2951
  190SAPI   C3221936  -0.076   3.007   6.508  0.5293  0.0586  0.1711
  190SAPI   H2X21937   0.031   2.987   6.487  0.5661 -1.3318  1.4594
  190SAPI   H2Y21938  -0.092   3.115   6.523  1.1007  0.0561  0.8644
  190SAPI   C2321939   0.057   2.544   6.568  0.0678 -0.2615  0.3506
  190SAPI   H3R21940   0.165   2.525   6.587  0.0632 -1.1148 -0.3814
  190SAPI   H3S21941   0.040   2.648   6.534 -1.0621  0.8635  3.9739
  190SAPI   C2421942   0.016   2.460   6.451  0.0320  0.4101 -0.3365
  190SAPI   H4R21943   0.086   2.486   6.369  0.7490  0.9136  0.4248
  190SAPI   H4S21944  -0.082   2.494   6.410  0.7604  2.3772 -0.5395
  190SAPI   C2521945   0.023   2.311   6.467  0.2032  0.6870 -0.0761
  190SAPI   H5R21946   0.120   2.263   6.487 -0.1499  0.0531  0.1642
  190SAPI   C2621947  -0.082   2.227   6.457 -0.1786  0.3858 -0.9657
  190SAPI   H6R21948  -0.066   2.122   6.488 -3.1614  0.7630  2.5685
  190SAPI   C2721949  -0.228   2.249   6.418  0.5964  0.4239  0.2739
  190SAPI   H7R21950  -0.281   2.310   6.494 -0.7422  0.5573 -0.7289
  190SAPI   H7S21951  -0.283   2.154   6.434 -2.7333  2.6568  3.8311
  190SAPI   C2821952  -0.246   2.315   6.285  0.6719  0.4772 -0.0247
  190SAPI   H8R21953  -0.159   2.377   6.259  2.0824 -1.2172  0.5011
  190SAPI   C2921954  -0.358   2.316   6.202  0.4639  0.1507  0.2094
  190SAPI   H9R21955  -0.365   2.378   6.111 -2.6080  0.5422  0.5954
  190SAPI  C21021956  -0.495   2.245   6.238  0.2969 -0.0407  0.5375
  190SAPI  H10R21957  -0.578   2.317   6.223  0.9324  0.8498  1.1893
  190SAPI  H10S21958  -0.499   2.205   6.341 -1.6817 -0.0583  0.4928
  190SAPI  C21121959  -0.505   2.133   6.138  0.2345  0.1546 -0.0899
  190SAPI  H11R21960  -0.543   2.177   6.045 -2.4127 -0.7217  0.4914
  190SAPI  C21221961  -0.485   2.005   6.144  0.0121 -0.4982 -0.3516
  190SAPI  H12R21962  -0.505   1.942   6.056 -1.4787 -0.5033 -0.0388
  190SAPI  C21321963  -0.446   1.928   6.271 -0.8859 -0.3252  0.3865
  190SAPI  H13R21964  -0.515   1.841   6.281 -0.7924 -0.3499  0.8564
  190SAPI  H13S21965  -0.481   1.988   6.357  0.4518  1.8855 -0.5345
  190SAPI  C21421966  -0.294   1.895   6.283 -0.8774  0.5416 -1.2275
  190SAPI  H14R21967  -0.229   1.979   6.311 -0.8965  0.2628 -0.2983
  190SAPI  C21521968  -0.242   1.771   6.270  0.8162  0.3509  0.9086
  190SAPI  H15R21969  -0.135   1.752   6.287  0.8813  1.0877  1.3787
  190SAPI  C21621970  -0.318   1.649   6.222 -0.3770 -0.4502  0.4398
  190SAPI  H16R21971  -0.420   1.684   6.198 -0.5471 -0.8904  0.5140
  190SAPI  H16S21972  -0.325   1.580   6.309  2.1056 -0.7156  0.4989
  190SAPI  C21721973  -0.236   1.577   6.106  0.1763  0.3456  0.4114
  190SAPI  H17R21974  -0.271   1.479   6.069 -0.4741  0.4548  0.7169
  190SAPI  H17S21975  -0.136   1.559   6.153  0.0484  0.4539  0.7324
  190SAPI  C21821976  -0.216   1.660   5.979 -0.6311 -0.4171  0.0236
  190SAPI  H18R21977  -0.135   1.733   6.000 -1.2461  0.9837 -2.1198
  190SAPI  H18S21978  -0.298   1.722   5.938  0.6386 -0.2652 -2.4339
  190SAPI  C21921979  -0.175   1.582   5.864 -0.1166  0.7608  0.0858
  190SAPI  H19R21980  -0.236   1.489   5.861 -1.7364  1.7866  0.2508
  190SAPI  H19S21981  -0.071   1.549   5.885 -0.3625  2.0314  4.0146
  190SAPI  C22021982  -0.175   1.660   5.735 -0.5191  0.5618  0.3110
  190SAPI  H20R21983  -0.278   1.677   5.697 -1.1233  0.5863  1.8593
  190SAPI  H20S21984  -0.130   1.602   5.652  1.0298 -0.6123  1.9037
  190SAPI  H20T21985  -0.121   1.757   5.742  1.2600 -0.1865 -1.7733
  190SAPI   C3321986  -0.168   2.947   6.400  0.5452 -0.4932  0.8303
  190SAPI   H3X21987  -0.228   3.024   6.346 -0.3427 -1.2265  0.7639
  190SAPI   H3Y21988  -0.244   2.882   6.448  1.7333 -0.8343  2.2910
  190SAPI   C3421989  -0.090   2.868   6.297  0.2355  0.0939  0.2626
  190SAPI   H4X21990  -0.054   2.775   6.346  0.9667  0.7128  0.9369
  190SAPI   H4Y21991   0.003   2.922   6.267  0.3135  0.8327  1.7554
  190SAPI   C3521992  -0.180   2.827   6.180  0.5366 -0.2116  0.8325
  190SAPI   H5X21993  -0.211   2.918   6.125 -1.1480 -0.0605  1.9775
  190SAPI   H5Y21994  -0.262   2.763   6.219  0.7251 -2.5357 -2.1477
  190SAPI   C3621995  -0.112   2.725   6.080 -0.0020 -0.0300  0.3815
  190SAPI   H6X21996  -0.059   2.647   6.138  0.5070 -1.1361 -1.4834
  190SAPI   H6Y21997  -0.035   2.772   6.015  1.4357  1.6829  3.1675
  190SAPI   C3721998  -0.227   2.659   6.004  0.4970 -0.1239 -0.8328
  190SAPI   H7X21999  -0.305   2.733   5.975 -0.8390 -0.6830  1.1612
  190SAPI   H7Y22000  -0.264   2.575   6.065  3.4430 -1.5984 -0.8867
  190SAPI   C3822001  -0.181   2.580   5.879 -0.1063 -0.7700  0.3646
  190SAPI   H8X22002  -0.278   2.565   5.827 -0.4375  2.2804 -0.0489
  190SAPI   H8Y22003  -0.146   2.475   5.894 -1.8283 -1.5012 -0.4297
  190SAPI   C3922004  -0.110   2.657   5.763  0.2992  0.1295 -0.4283
  190SAPI   H9X22005  -0.001   2.673   5.778  0.2595  2.4781 -2.1272
  190SAPI   H9Y22006  -0.158   2.757   5.772  0.2743  0.0994 -0.2040
  190SAPI  C31022007  -0.134   2.618   5.614  0.0058  0.0840  0.2605
  190SAPI  H10X22008  -0.078   2.527   5.584 -1.3814 -1.5611  2.3480
  190SAPI  H10Y22009  -0.087   2.699   5.555  1.2708 -1.4606 -0.9449
  190SAPI  C31122010  -0.279   2.610   5.565 -0.0047 -0.6558 -0.1984
  190SAPI  H11X22011  -0.332   2.666   5.645  3.4369 -0.1166  1.9445
  190SAPI  H11Y22012  -0.315   2.505   5.572 -1.8002 -0.0814 -0.4328
  190SAPI  C31222013  -0.298   2.683   5.430  0.5779  0.1934  1.2549
  190SAPI  H12X22014  -0.295   2.792   5.453  1.5032  0.8162 -1.3706
  190SAPI  H12Y22015  -0.407   2.678   5.407  0.0786  1.1100  3.2054
  190SAPI  C31322016  -0.205   2.647   5.313 -0.0266 -0.3521 -0.0785
  190SAPI  H13X22017  -0.199   2.536   5.301 -1.6370 -0.7435  2.0478
  190SAPI  H13Y22018  -0.106   2.680   5.351  0.0785 -0.3330 -0.3748
  190SAPI  C31422019  -0.234   2.716   5.183  0.0491  0.4816  0.1083
  190SAPI  H14X22020  -0.145   2.724   5.117 -0.3076  0.3658 -0.3984
  190SAPI  H14Y22021  -0.256   2.822   5.204 -1.7867  0.2463 -0.4386
  190SAPI  C31522022  -0.368   2.664   5.113 -0.0304 -1.0213  0.0686
  190SAPI  H15X22023  -0.449   2.656   5.189 -2.4527  0.3488 -2.2235
  190SAPI  H15Y22024  -0.351   2.560   5.078 -1.0699 -0.6328 -1.6803
  190SAPI  C31622025  -0.407   2.744   4.990 -0.1341  0.7906  0.4201
  190SAPI  H16X22026  -0.350   2.708   4.902 -1.4926  0.5881 -0.4075
  190SAPI  H16Y22027  -0.375   2.850   4.994  3.3008 -0.1311  0.4103
  190SAPI  C31722028  -0.562   2.720   4.952 -0.6847 -0.3118 -0.3559
  190SAPI  H17X22029  -0.623   2.715   5.044  0.2770  2.3545  0.4985
  190SAPI  H17Y22030  -0.575   2.616   4.915  0.3980 -1.4865  2.3231
  190SAPI  C31822031  -0.615   2.819   4.843  0.2746  0.2108 -0.2894
  190SAPI  H18X22032  -0.594   2.926   4.868 -0.3693 -0.1824  2.2007
  190SAPI  H18Y22033  -0.725   2.817   4.833  0.3577 -1.7957 -1.2281
  190SAPI  H18Z22034  -0.562   2.807   4.746  1.0692  2.0745 -0.1421
  191SAPI   C1222035   3.371   4.307   2.501  0.2122  0.4243 -0.2377
  191SAPI    H222036   3.430   4.227   2.550 -0.8169 -1.4519 -1.9278
  191SAPI    O222037   3.421   4.431   2.540  0.3081 -0.1835 -0.1956
  191SAPI   HO222038   3.398   4.443   2.633 -1.8004  0.2629 -0.7233
  191SAPI   C1322039   3.383   4.300   2.350 -0.0956 -0.6327  0.1397
  191SAPI    H322040   3.347   4.199   2.323 -2.0084 -0.1590  0.7573
  191SAPI    O322041   3.514   4.305   2.296 -0.6004  0.0615 -0.1415
  191SAPI   HO322042   3.538   4.213   2.281 -0.4562  0.1814 -0.6880
  191SAPI   C1422043   3.295   4.405   2.289  0.8558 -0.2578  0.1853
  191SAPI    H422044   3.346   4.502   2.307  2.0197 -0.7192 -0.4898
  191SAPI    O422045   3.278   4.391   2.150  0.0071  0.4775 -0.0175
  191SAPI   HO422046   3.359   4.419   2.108  0.9783  0.9536  2.0069
  191SAPI   C1522047   3.162   4.438   2.352 -0.1297  1.1007 -0.3489
  191SAPI    H522048   3.098   4.364   2.299  0.3141  0.6316 -0.2382
  191SAPI    O522049   3.113   4.569   2.325  0.5859 -0.2071 -0.1924
  191SAPI   HO522050   3.036   4.563   2.268  0.1638  1.5190  0.1663
  191SAPI   C1622051   3.139   4.393   2.494  0.1088 -0.5190 -0.5081
  191SAPI    H622052   3.157   4.483   2.557  0.2432  0.9828 -2.5607
  191SAPI    O622053   3.001   4.358   2.521  0.3063  0.5209  0.1341
  191SAPI   HO622054   2.990   4.264   2.501 -1.7641  0.1025  2.6763
  191SAPI   C1122055   3.233   4.281   2.543  0.1347  0.5130  0.1077
  191SAPI    H122056   3.203   4.189   2.489 -1.1949  1.0201 -0.0567
  191SAPI     P22057   3.228   4.109   2.748 -0.3172 -0.1236  0.0437
  191SAPI   O1322058   3.312   4.014   2.669  0.5166  0.3496 -0.4854
  191SAPI   O1422059   3.088   4.064   2.783 -0.0953 -0.6492  0.1415
  191SAPI   O1222060   3.219   4.261   2.683  0.5034  0.3500 -0.6985
  191SAPI   O1122061   3.303   4.144   2.881 -0.6002  0.2637 -0.4693
  191SAPI    C122062   3.369   4.039   2.957 -0.2378  0.7152  0.5846
  191SAPI    HA22063   3.444   3.977   2.903  0.3669  0.8352  1.2760
  191SAPI    HB22064   3.416   4.097   3.039 -2.7762  1.2218  1.7779
  191SAPI    C222065   3.266   3.947   3.035  0.0359 -0.2525 -0.2556
  191SAPI    HS22066   3.215   3.882   2.961  0.2697  1.0456 -1.6228
  191SAPI   O2122067   3.166   4.028   3.098  0.2117  0.1162 -0.1112
  191SAPI   C2122068   3.071   3.960   3.167 -0.5810 -0.6105  0.1736
  191SAPI   O2222069   3.073   3.842   3.191 -0.9324 -0.2753 -0.2372
  191SAPI   C2222070   2.983   4.070   3.219  0.1386 -0.3275  0.4596
  191SAPI   H2R22071   3.050   4.147   3.263 -0.5271 -0.2490  1.3687
  191SAPI   H2S22072   2.934   4.117   3.130 -1.5940 -0.6585  1.1930
  191SAPI    C322073   3.360   3.875   3.137 -0.2903  0.3263  0.3019
  191SAPI    HX22074   3.457   3.839   3.097  0.6092 -0.4582  2.9614
  191SAPI    HY22075   3.311   3.782   3.174  1.5180  0.3138  2.9253
  191SAPI   O3122076   3.392   3.959   3.252  0.1825  0.0128  0.4325
  191SAPI   C3122077   3.490   3.922   3.331 -0.4296  0.1621  1.2792
  191SAPI   O3222078   3.574   3.829   3.304  0.1365 -0.1167  0.1079
  191SAPI   C3222079   3.483   4.004   3.455  0.7818 -0.0383  0.3814
  191SAPI   H2X22080   3.497   4.113   3.434 -1.1384  0.4215  1.2753
  191SAPI   H2Y22081   3.569   3.968   3.515  0.8528 -1.6198 -0.6232
  191SAPI   C2322082   2.874   4.018   3.314 -0.7631 -0.0000  0.2065
  191SAPI   H3R22083   2.922   3.959   3.396  0.6606  1.4173  0.4417
  191SAPI   H3S22084   2.802   3.963   3.250 -0.4632  3.5536 -3.6307
  191SAPI   C2422085   2.791   4.136   3.377  1.3448 -0.1259  0.2056
  191SAPI   H4R22086   2.701   4.083   3.415  2.6414 -1.3215  1.8325
  191SAPI   H4S22087   2.759   4.207   3.299  0.6794 -0.0732  0.5178
  191SAPI   C2522088   2.860   4.217   3.478  0.0810  0.1137 -0.0497
  191SAPI   H5R22089   2.956   4.262   3.448 -1.1249  1.7983 -1.5672
  191SAPI   C2622090   2.819   4.239   3.599 -0.4952  0.1996 -0.8993
  191SAPI   H6R22091   2.889   4.303   3.656  2.7752 -1.1080 -3.1210
  191SAPI   C2722092   2.702   4.160   3.666 -0.7832 -0.2692 -0.2607
  191SAPI   H7R22093   2.628   4.135   3.588  0.8349 -1.4897 -1.4540
  191SAPI   H7S22094   2.651   4.224   3.742  2.2215  0.6542  1.1449
  191SAPI   C2822095   2.752   4.045   3.742  0.1263 -0.5556  0.5036
  191SAPI   H8R22096   2.797   3.970   3.675  0.5097 -1.0274  1.2708
  191SAPI   C2922097   2.741   4.027   3.874  0.2531 -0.0549 -0.4368
  191SAPI   H9R22098   2.778   3.932   3.916  1.3396  0.3557 -0.4266
  191SAPI  C21022099   2.674   4.117   3.974 -0.4516 -0.1281 -0.0615
  191SAPI  H10R22100   2.566   4.095   3.960  0.2045 -1.5127 -4.2485
  191SAPI  H10S22101   2.691   4.224   3.947  0.3907  0.5825  2.8673
  191SAPI  C21122102   2.717   4.097   4.118 -0.2169 -0.1253  0.7837
  191SAPI  H11R22103   2.787   4.176   4.148 -2.4833  3.2671 -2.0590
  191SAPI  C21222104   2.679   3.997   4.203  0.3942 -0.2380  0.0206
  191SAPI  H12R22105   2.719   4.004   4.305  1.8644  1.3592 -0.6101
  191SAPI  C21322106   2.579   3.893   4.174  0.8285  0.2489 -0.0350
  191SAPI  H13R22107   2.606   3.796   4.221 -1.4425 -2.2165 -3.3746
  191SAPI  H13S22108   2.578   3.870   4.065  0.3498  1.7595 -0.3842
  191SAPI  C21422109   2.439   3.925   4.214  0.1466 -0.4195 -0.0326
  191SAPI  H14R22110   2.371   3.952   4.132 -3.0214 -2.8792  1.5573
  191SAPI  C21522111   2.384   3.908   4.332  0.2173 -0.8559 -0.2893
  191SAPI  H15R22112   2.277   3.932   4.341 -0.2987 -2.5162 -1.4460
  191SAPI  C21622113   2.453   3.862   4.457  0.0292 -0.2041 -0.2250
  191SAPI  H16R22114   2.405   3.912   4.544  2.2029  2.4410 -0.4232
  191SAPI  H16S22115   2.558   3.897   4.456 -0.5248  1.7693  2.1309
  191SAPI  C21722116   2.453   3.713   4.484  0.0843  0.0786 -0.9864
  191SAPI  H17R22117   2.508   3.662   4.403  2.0124 -0.2953  0.4905
  191SAPI  H17S22118   2.351   3.669   4.479 -0.7155  1.7296 -0.0287
  191SAPI  C21822119   2.520   3.674   4.613 -0.2209  0.5367  0.8927
  191SAPI  H18R22120   2.470   3.730   4.696  0.5085  3.4335 -0.5060
  191SAPI  H18S22121   2.626   3.706   4.613  0.0397 -0.3176  0.6814
  191SAPI  C21922122   2.513   3.525   4.651 -0.2328 -0.0233 -0.5347
  191SAPI  H19R22123   2.409   3.486   4.655  0.4187 -1.8550 -0.3892
  191SAPI  H19S22124   2.521   3.523   4.762 -1.1713  1.6760 -0.3985
  191SAPI  C22022125   2.599   3.427   4.574 -0.0622  0.6308  0.4307
  191SAPI  H20R22126   2.557   3.328   4.603  0.0002  0.6188  0.4781
  191SAPI  H20S22127   2.708   3.441   4.589  0.0795 -0.2799  0.3307
  191SAPI  H20T22128   2.585   3.445   4.465  1.5685  2.0084  0.4197
  191SAPI   C3322129   3.347   3.978   3.528  0.4899 -0.5431 -0.6054
  191SAPI   H3X22130   3.339   3.868   3.540 -1.7135 -0.4230 -0.4602
  191SAPI   H3Y22131   3.261   4.013   3.466 -0.0822 -1.2934 -0.2459
  191SAPI   C3422132   3.335   4.055   3.658 -0.6896 -0.2790 -0.5160
  191SAPI   H4X22133   3.226   4.074   3.674 -0.1957  2.0753  0.4023
  191SAPI   H4Y22134   3.379   4.155   3.642 -1.0147  0.1427  1.0180
  191SAPI   C3522135   3.379   3.984   3.792 -0.3408  0.0372 -0.2702
  191SAPI   H5X22136   3.489   3.974   3.787 -0.2538  1.4911 -2.1553
  191SAPI   H5Y22137   3.340   3.880   3.802 -0.4917  0.1223  0.0329
  191SAPI   C3622138   3.337   4.067   3.915  0.6439  0.2901 -0.4675
  191SAPI   H6X22139   3.227   4.081   3.917  0.4412 -1.0397 -1.4557
  191SAPI   H6Y22140   3.392   4.164   3.912  0.4184  0.4181 -0.5131
  191SAPI   C3722141   3.390   3.989   4.036  0.1530  0.0191  0.4449
  191SAPI   H7X22142   3.465   3.910   4.013  1.2528  0.0690  3.4335
  191SAPI   H7Y22143   3.304   3.948   4.093 -1.9271  3.1115 -0.2423
  191SAPI   C3822144   3.464   4.086   4.131  0.1815 -0.1785  0.5604
  191SAPI   H8X22145   3.389   4.158   4.168  0.9315  1.0563 -0.2736
  191SAPI   H8Y22146   3.535   4.150   4.074  1.7561 -1.2784  1.2070
  191SAPI   C3922147   3.525   4.019   4.257 -0.0827 -0.8461  0.9520
  191SAPI   H9X22148   3.624   3.971   4.238  0.9798  1.4657  0.1877
  191SAPI   H9Y22149   3.455   3.943   4.298  0.2080  0.2913  3.8411
  191SAPI  C31022150   3.558   4.129   4.358 -0.2801 -0.4509 -0.3290
  191SAPI  H10X22151   3.473   4.200   4.355  0.3702  0.3027 -1.5494
  191SAPI  H10Y22152   3.647   4.177   4.313  0.2400 -1.3955 -0.3471
  191SAPI  C31122153   3.582   4.082   4.501  0.0960  1.0394  0.0293
  191SAPI  H11X22154   3.639   4.162   4.554 -0.3035  0.7864  0.8635
  191SAPI  H11Y22155   3.658   4.002   4.496 -2.6121 -2.1351  3.5261
  191SAPI  C31222156   3.454   4.032   4.574  0.2891 -0.2017 -0.3558
  191SAPI  H12X22157   3.407   3.965   4.499  2.4374 -1.9727 -0.2326
  191SAPI  H12Y22158   3.397   4.126   4.585  0.1564 -0.1055 -1.7267
  191SAPI  C31322159   3.477   3.956   4.711  0.2442  0.3043  0.4154
  191SAPI  H13X22160   3.541   4.010   4.784 -0.0399  1.3675 -0.0931
  191SAPI  H13Y22161   3.539   3.868   4.685  0.3329  0.1413  1.1579
  191SAPI  C31422162   3.348   3.929   4.772  0.4904 -0.0064 -0.2906
  191SAPI  H14X22163   3.285   3.868   4.704  0.7019 -0.5711  0.0184
  191SAPI  H14Y22164   3.305   4.032   4.769  1.2533  0.3209 -0.1384
  191SAPI  C31522165   3.338   3.886   4.916 -0.2396  0.5298 -0.0002
  191SAPI  H15X22166   3.400   3.794   4.923  1.5143  1.7659  2.2619
  191SAPI  H15Y22167   3.231   3.872   4.945 -0.3475  3.2626  1.2061
  191SAPI  C31622168   3.398   3.973   5.027 -0.1162 -0.5430 -0.1758
  191SAPI  H16X22169   3.372   4.075   4.992 -0.5833 -1.5015 -2.8547
  191SAPI  H16Y22170   3.508   3.957   5.031  0.1827  1.3538 -0.0091
  191SAPI  C31722171   3.345   3.938   5.167  0.0923 -0.3845  0.8290
  191SAPI  H17X22172   3.353   3.828   5.180  2.7512 -0.8743 -3.3202
  191SAPI  H17Y22173   3.236   3.961   5.161 -0.0264 -1.2274 -0.6677
  191SAPI  C31822174   3.425   4.010   5.275  0.1817  0.0775 -0.9066
  191SAPI  H18X22175   3.532   3.982   5.280  0.3301  0.6343 -0.9570
  191SAPI  H18Y22176   3.375   4.000   5.374  1.5871 -0.6538 -0.2419
  191SAPI  H18Z22177   3.412   4.118   5.255  0.7034  0.4359  0.5952
  192SAPI   C1222178   4.825   1.420   2.691  0.2559 -0.2452 -0.7540
  192SAPI    H222179   4.795   1.508   2.753  1.0742 -0.4322 -0.0688
  192SAPI    O222180   4.937   1.455   2.614  0.6665 -0.2336 -0.2752
  192SAPI   HO222181   4.933   1.416   2.526 -0.4832 -0.3745 -0.1737
  192SAPI   C1322182   4.846   1.301   2.774 -0.5651 -0.3286 -0.1045
  192SAPI    H322183   4.748   1.291   2.826  0.1778  3.3046  2.3826
  192SAPI    O322184   4.944   1.316   2.880  0.5150 -0.2353 -0.7558
  192SAPI   HO322185   4.926   1.246   2.944  1.3158 -0.4464 -0.7432
  192SAPI   C1422186   4.876   1.174   2.694 -0.6418 -1.2383 -0.5422
  192SAPI    H422187   4.982   1.186   2.664 -1.1425  2.3120 -1.2635
  192SAPI    O422188   4.880   1.062   2.786  0.3142  0.2732 -0.2611
  192SAPI   HO422189   4.795   1.018   2.793 -0.3631  1.6554  0.7080
  192SAPI   C1522190   4.799   1.153   2.565  0.4707  0.4727  0.1728
  192SAPI    H522191   4.713   1.093   2.602  0.3297  1.5050  1.6225
  192SAPI    O522192   4.867   1.074   2.470 -0.0996  0.5573  0.4200
  192SAPI   HO522193   4.932   1.122   2.417 -2.5632  1.7455 -1.7122
  192SAPI   C1622194   4.741   1.282   2.502  0.1621  0.0529 -0.3569
  192SAPI    H622195   4.818   1.327   2.436 -0.1915 -0.7106 -1.3257
  192SAPI    O622196   4.636   1.238   2.415  0.7014  0.3973  0.0406
  192SAPI   HO622197   4.554   1.244   2.464  0.9776 -0.7638  0.6907
  192SAPI   C1122198   4.709   1.396   2.596 -0.0166 -0.4399  0.1835
  192SAPI    H122199   4.621   1.365   2.656 -0.3811 -0.2558 -0.2560
  192SAPI     P22200   4.546   1.595   2.524  0.3941  0.0889  0.2837
  192SAPI   O1322201   4.428   1.500   2.509 -0.6426 -0.4986  0.6939
  192SAPI   O1422202   4.554   1.718   2.442  0.2241  0.9498 -0.1472
  192SAPI   O1222203   4.684   1.510   2.518  0.0559 -0.0435  0.8569
  192SAPI   O1122204   4.554   1.641   2.677 -0.6846  0.0967  0.1615
  192SAPI    C122205   4.642   1.742   2.721 -0.3865  0.8641  0.7527
  192SAPI    HA22206   4.739   1.688   2.726 -2.3850 -3.1306  0.7582
  192SAPI    HB22207   4.643   1.827   2.649  0.3308  0.8195  0.7037
  192SAPI    C222208   4.610   1.800   2.859  0.2874 -0.1151 -0.6422
  192SAPI    HS22209   4.707   1.818   2.911 -1.6700  1.8109  2.7339
  192SAPI   O2122210   4.530   1.710   2.938  0.6118  0.0112  0.1371
  192SAPI   C2122211   4.610   1.616   2.989  0.3258  0.3260  0.3174
  192SAPI   O2222212   4.730   1.603   2.978  0.1859 -0.0156 -0.0886
  192SAPI   C2222213   4.537   1.523   3.078  0.3882 -0.2941  0.0773
  192SAPI   H2R22214   4.428   1.543   3.082  0.6772  1.2745  1.0152
  192SAPI   H2S22215   4.559   1.422   3.038  0.0540 -0.0659 -0.7222
  192SAPI    C322216   4.538   1.939   2.849  0.1270  0.9573  0.5636
  192SAPI    HX22217   4.438   1.918   2.805  1.2561 -1.7428 -0.9405
  192SAPI    HY22218   4.593   2.001   2.775  0.2635 -0.4601 -0.5610
  192SAPI   O3122219   4.532   2.001   2.977 -0.0929 -0.1670  0.6139
  192SAPI   C3122220   4.419   1.999   3.039 -0.3307 -0.1513 -0.3525
  192SAPI   O3222221   4.320   1.940   2.996  0.7339 -0.0925  0.1268
  192SAPI   C3222222   4.421   2.080   3.168  0.5208 -0.2809 -0.8664
  192SAPI   H2X22223   4.431   2.190   3.159 -0.2607 -0.0115  1.0626
  192SAPI   H2Y22224   4.500   2.030   3.229  1.7176  0.4010 -1.7902
  192SAPI   C2322225   4.597   1.523   3.226 -0.4028  0.6594  0.7298
  192SAPI   H3R22226   4.708   1.517   3.218 -0.3842  0.7811  0.8921
  192SAPI   H3S22227   4.564   1.425   3.266  0.9546  0.0660  0.4467
  192SAPI   C2422228   4.526   1.629   3.310  0.5776  0.2775  0.0145
  192SAPI   H4R22229   4.537   1.576   3.408  1.1604  1.2367  0.4837
  192SAPI   H4S22230   4.418   1.623   3.284  0.7177 -0.2528 -0.4606
  192SAPI   C2522231   4.601   1.761   3.309 -0.3696 -0.6136 -0.0941
  192SAPI   H5R22232   4.626   1.799   3.209 -1.7162 -0.2875 -0.3183
  192SAPI   C2622233   4.664   1.817   3.412  0.1165 -0.0897  1.0292
  192SAPI   H6R22234   4.723   1.906   3.388 -0.9567  0.0767 -1.2611
  192SAPI   C2722235   4.673   1.758   3.555  0.1754  0.2981  0.3010
  192SAPI   H7R22236   4.756   1.799   3.617 -2.0237  1.6975  2.4823
  192SAPI   H7S22237   4.698   1.653   3.530 -0.3142  0.1366  0.4922
  192SAPI   C2822238   4.537   1.770   3.615 -0.1876  0.7288 -0.2735
  192SAPI   H8R22239   4.466   1.691   3.587  0.0497  0.4417 -0.0683
  192SAPI   C2922240   4.494   1.866   3.698 -0.4770 -0.2389 -0.5835
  192SAPI   H9R22241   4.397   1.861   3.749 -0.6728 -0.2849 -0.9546
  192SAPI  C21022242   4.580   1.988   3.740 -0.4418  0.3890 -0.0005
  192SAPI  H10R22243   4.579   2.065   3.660 -0.8033 -0.1236 -0.4918
  192SAPI  H10S22244   4.687   1.959   3.746  0.2536  2.6875 -0.4027
  192SAPI  C21122245   4.527   2.053   3.865  0.0837 -0.7271  0.1031
  192SAPI  H11R22246   4.463   2.139   3.840  0.1742 -1.0008 -1.1629
  192SAPI  C21222247   4.552   2.026   3.994 -0.4218 -0.9432  0.0763
  192SAPI  H12R22248   4.506   2.089   4.071 -1.0024  1.1356 -1.8577
  192SAPI  C21322249   4.654   1.928   4.049 -0.4473  0.4509  0.5175
  192SAPI  H13R22250   4.736   1.990   4.091 -0.0977  0.9057 -0.7935
  192SAPI  H13S22251   4.695   1.869   3.963  0.3915  0.2804  1.0175
  192SAPI  C21422252   4.583   1.845   4.156  0.2954 -1.1159  0.3307
  192SAPI  H14R22253   4.523   1.766   4.109  1.3952 -1.5379 -0.4108
  192SAPI  C21522254   4.582   1.872   4.287 -0.7279  0.0651 -0.3405
  192SAPI  H15R22255   4.527   1.801   4.351 -0.9452 -1.3074 -1.9560
  192SAPI  C21622256   4.652   1.990   4.356  0.3061 -0.2227  0.1001
  192SAPI  H16R22257   4.579   2.054   4.412  1.3597  0.8135  0.3385
  192SAPI  H16S22258   4.690   2.061   4.279 -2.4371  0.2069 -0.9883
  192SAPI  C21722259   4.779   1.970   4.441 -0.0728 -0.2867  0.3050
  192SAPI  H17R22260   4.859   1.934   4.373  0.8325  1.4492  0.3900
  192SAPI  H17S22261   4.769   1.886   4.513 -2.0428 -1.0629 -0.7912
  192SAPI  C21822262   4.825   2.093   4.515  0.5806  0.0467  0.2968
  192SAPI  H18R22263   4.810   2.174   4.441 -3.0319 -1.5572 -0.9497
  192SAPI  H18S22264   4.932   2.087   4.543  0.6156  0.2216  0.1976
  192SAPI  C21922265   4.738   2.138   4.628 -0.7525 -0.3180 -0.0037
  192SAPI  H19R22266   4.731   2.064   4.711 -0.5073 -0.9844 -0.5677
  192SAPI  H19S22267   4.632   2.133   4.595 -1.1148 -2.6335  1.2375
  192SAPI  C22022268   4.772   2.269   4.700  0.0615  0.2051 -0.2858
  192SAPI  H20R22269   4.831   2.319   4.620 -1.9545  3.6375  0.1822
  192SAPI  H20S22270   4.837   2.246   4.786  0.3702  0.6783 -0.3883
  192SAPI  H20T22271   4.683   2.333   4.717  0.3130 -0.0780  2.4649
  192SAPI   C3322272   4.285   2.064   3.230  0.6108  0.8863 -0.6811
  192SAPI   H3X22273   4.199   2.072   3.160  0.9612 -2.3499 -1.6811
  192SAPI   H3Y22274   4.263   2.136   3.311  2.1763 -0.9928  1.5604
  192SAPI   C3422275   4.260   1.924   3.298 -0.5298  0.4635  0.0909
  192SAPI   H4X22276   4.336   1.918   3.378 -0.8394  1.2560  0.4588
  192SAPI   H4Y22277   4.285   1.842   3.228  1.6877 -0.1989  1.5694
  192SAPI   C3522278   4.118   1.915   3.355  0.2324 -0.4317 -0.0341
  192SAPI   H5X22279   4.059   1.937   3.264 -1.1959  1.2337  1.2308
  192SAPI   H5Y22280   4.089   2.003   3.416 -1.0832 -0.4383 -0.6207
  192SAPI   C3622281   4.076   1.785   3.430  0.7127  0.6019 -0.8806
  192SAPI   H6X22282   4.061   1.709   3.350  0.3731  1.9853 -2.1727
  192SAPI   H6Y22283   3.981   1.785   3.487  1.4257 -0.5044  0.3718
  192SAPI   C3722284   4.183   1.721   3.522  0.4094  0.0663  0.2588
  192SAPI   H7X22285   4.175   1.781   3.615 -0.1697  0.7238 -0.2008
  192SAPI   H7Y22286   4.284   1.741   3.481 -0.1636  2.4663 -0.1856
  192SAPI   C3822287   4.158   1.574   3.551  0.4947  0.6762 -0.1577
  192SAPI   H8X22288   4.185   1.500   3.472 -2.7802  0.5354 -1.3121
  192SAPI   H8Y22289   4.051   1.551   3.569  0.4148 -2.8100 -3.6387
  192SAPI   C3922290   4.237   1.526   3.676  1.2161  0.0178 -0.4520
  192SAPI   H9X22291   4.341   1.563   3.671  1.8055 -1.6961 -1.6014
  192SAPI   H9Y22292   4.240   1.415   3.675 -0.0662 -0.1938  3.2340
  192SAPI  C31022293   4.178   1.586   3.814  0.4823  0.1972  0.2989
  192SAPI  H10X22294   4.073   1.552   3.812  0.6951 -0.6797  2.1720
  192SAPI  H10Y22295   4.164   1.696   3.821  0.7236  0.6675 -3.7685
  192SAPI  C31122296   4.242   1.512   3.933  0.3197 -0.7179 -0.0593
  192SAPI  H11X22297   4.348   1.545   3.944 -0.6296  2.1868  1.2853
  192SAPI  H11Y22298   4.235   1.403   3.910 -1.0134 -0.4885 -0.7972
  192SAPI  C31222299   4.179   1.557   4.065 -0.9683  0.9045  0.2849
  192SAPI  H12X22300   4.085   1.499   4.057  1.5289 -3.6544  0.5986
  192SAPI  H12Y22301   4.183   1.668   4.069  2.4080  0.9095  0.1879
  192SAPI  C31322302   4.255   1.505   4.191 -0.4312  0.1957  0.3225
  192SAPI  H13X22303   4.352   1.558   4.203  1.4416 -2.8843 -0.0949
  192SAPI  H13Y22304   4.276   1.396   4.182 -1.7909 -0.4333  3.4459
  192SAPI  C31422305   4.157   1.506   4.305 -0.2563 -0.4153 -0.7668
  192SAPI  H14X22306   4.071   1.440   4.284  1.1113 -2.1262 -1.1645
  192SAPI  H14Y22307   4.125   1.613   4.312 -0.2085 -0.4909  1.0711
  192SAPI  C31522308   4.221   1.473   4.436 -0.3407  0.2986  0.2486
  192SAPI  H15X22309   4.310   1.536   4.457 -1.1959  1.5256  0.3072
  192SAPI  H15Y22310   4.262   1.370   4.426 -1.4722 -0.2620  1.2213
  192SAPI  C31622311   4.118   1.507   4.542  0.0567 -0.4395 -0.8333
  192SAPI  H16X22312   4.046   1.427   4.514  0.7509 -0.3862 -2.9790
  192SAPI  H16Y22313   4.065   1.601   4.516  2.2549  1.0982 -0.0439
  192SAPI  C31722314   4.161   1.504   4.688 -0.0383 -0.2684 -0.5303
  192SAPI  H17X22315   4.068   1.476   4.741 -0.3427 -2.1651 -1.9839
  192SAPI  H17Y22316   4.203   1.604   4.710 -1.7197  0.7951 -1.8839
  192SAPI  C31822317   4.262   1.393   4.709 -0.4142 -0.0177 -0.7315
  192SAPI  H18X22318   4.339   1.396   4.629 -2.1281  0.1973 -2.4477
  192SAPI  H18Y22319   4.210   1.296   4.693 -0.4563  0.4561 -4.3698
  192SAPI  H18Z22320   4.301   1.403   4.813 -3.1749  0.6515  0.3231
  193SOD    SOD22321   2.990   0.287   8.403 -0.2762 -0.2621 -0.1721
  194SOD    SOD22322   6.351   0.072   2.653  0.1008  0.0317  0.4454
  195SOD    SOD22323   4.699   3.484   1.205 -0.5256 -0.0603  0.2035
  196SOD    SOD22324   2.295   6.830   1.960 -0.1119  0.1066  0.1868
  197SOD    SOD22325   1.408   3.593   7.917 -0.4834  0.1129 -0.4034
  198SOD    SOD22326   0.376   0.296   1.370  0.0361  0.0056 -0.1523
  199SOD    SOD22327   4.499   2.098   7.224 -0.2051  0.0657 -0.0312
  200SOD    SOD22328   4.527   4.212   0.163  0.3907  0.3104  0.6103
  201SOD    SOD22329   3.945   3.778   8.390 -0.9491  0.4521  0.3975
  202SOD    SOD22330   5.106   1.471   2.796 -0.0461  0.2092 -0.3750
  203SOD    SOD22331   0.677   1.072   0.214  0.1361  0.0331 -0.4179
  204SOD    SOD22332   4.401   5.264   3.069  0.0463  0.0292  0.5009
  205SOD    SOD22333   5.293   3.480   6.999  0.5725  0.1086 -0.2565
  206SOD    SOD22334   4.372   6.908   0.809  0.0649 -0.8312 -0.7661
  207SOD    SOD22335   4.086   2.721   8.432  0.6043 -0.5296 -0.4292
  208SOD    SOD22336   6.518   4.668   1.579 -0.2900  0.1851 -0.0841
  209SOD    SOD22337   5.973   6.099   8.087 -0.2531 -0.3591 -0.2837
  210SOD    SOD22338   3.204   1.284   0.254  0.0741  0.0575 -0.0323
  211SOD    SOD22339   4.356   0.966   7.904 -0.2553  0.6520  0.1247
  212SOD    SOD22340   1.946   3.224   2.454 -0.3057 -0.0219  0.1706
  213SOD    SOD22341   6.082   6.804   2.212 -0.4743 -0.7511  0.0251
  214SOD    SOD22342   6.376   6.756   8.380 -0.4048  0.2056 -0.1361
  215SOD    SOD22343   2.059   0.311   7.173 -0.2463 -0.1923 -0.3631
  216SOD    SOD22344   6.036   1.692   6.740 -0.0783  0.0556  0.2974
  217SOD    SOD22345   3.250   2.007   0.097 -0.3153  0.3340 -0.1148
  218SOD    SOD22346   1.259   5.551   7.752 -0.2960  1.1355  0.0560
  219SOD    SOD22347   6.259   3.431   7.402  0.0063  0.3656  0.0138
  220SOD    SOD22348   0.265   6.919   7.034 -0.1446 -0.2033  0.0413
  221SOD    SOD22349   1.341   1.393   0.324 -0.0827 -0.3321 -0.2871
  222SOD    SOD22350   0.891   0.477   7.469  0.3375 -0.2299 -0.1696
  223SOD    SOD22351   1.768   3.915   1.056 -0.2605  0.0289  0.1933
  224SOD    SOD22352   1.727   4.684   2.616  0.0664  0.4808  0.8368
  225SOD    SOD22353   2.833   2.809   8.330  0.0424  0.1437 -0.2803
  226SOD    SOD22354   6.204   6.178   6.966 -0.4855 -0.1470 -0.0644
  227SOD    SOD22355   6.828   3.178   8.542 -0.5246  0.3002  0.0419
  228SOD    SOD22356   1.757   0.118   1.985 -1.2239  0.2601  0.2694
  229SOD    SOD22357   5.161   6.020   3.059 -0.2557  0.0096  0.2443
  230CLA    CLA22358   0.504   4.073   8.552  0.1491  0.2926  0.2051
  231CLA    CLA22359   0.029   6.835   8.206 -0.6365  0.0310  0.1769
  232CLA    CLA22360   1.721   3.662   0.246  0.1786 -0.2691  0.4154
  233CLA    CLA22361   5.626   2.142   7.134 -0.0145  0.1620  0.1290
  234CLA    CLA22362   5.895   5.854   7.656 -0.3047  0.7147  0.1535
  235CLA    CLA22363   3.271   6.105   0.266 -0.0557  0.4246  0.1954
  236CLA    CLA22364   6.857   2.805   0.588  0.3894 -0.1480 -0.5024
  237CLA    CLA22365   5.215   6.421   0.090 -0.2984  0.3305  0.1130
  238CLA    CLA22366   4.277   3.329   1.385  0.0962  0.0044  0.4686
  239CLA    CLA22367   2.435   5.636   0.115  0.2284 -0.1794 -0.0990
  240CLA    CLA22368   6.914   0.691   1.124  0.3817 -0.5032  0.1170
  241CLA    CLA22369   6.321   4.231   8.086 -0.1494 -0.1005 -0.0499
  242CLA    CLA22370   1.495   3.976   0.609  0.1981  0.2747  0.0473
  243CLA    CLA22371   0.767   4.945   7.492  0.1388 -0.2994 -0.2486
  244CLA    CLA22372   0.828   0.526   1.273 -0.0776  0.4760  0.5493
  245CLA    CLA22373   5.415   4.408   1.385  0.4894  0.1246  0.1499
  246CLA    CLA22374   0.842   5.746   0.372  0.3691  0.2554  0.0074
  247TIP3   OH222375   5.008   5.333   0.879  0.5427 -0.2906  0.4383
  247TIP3    H122376   4.999   5.281   0.959 -1.2364 -2.7173 -1.1722
  247TIP3    H222377   4.927   5.316   0.831  2.5476 -1.0296 -3.0191
  248TIP3   OH222378   5.506   0.727   7.145 -0.0199  0.4393  0.3691
  248TIP3    H122379   5.438   0.765   7.091 -1.6601 -2.7958 -0.0762
  248TIP3    H222380   5.563   0.679   7.084 -0.2950 -0.9837  1.1702
  249TIP3   OH222381   1.850   6.878   8.399 -0.9068 -0.2553  0.4254
  249TIP3    H122382   1.900   6.917   8.327 -2.5256 -1.8705 -1.6955
  249TIP3    H222383   1.887   6.918   8.478  0.8664  1.7072 -1.2706
  250TIP3   OH222384   6.028   6.313   0.312  0.5446  0.3649  0.2786
  250TIP3    H122385   6.018   6.336   0.219 -2.3512 -0.7372  0.2149
  250TIP3    H222386   6.091   6.376   0.345 -0.3778  2.5789 -1.8435
  251TIP3   OH222387   6.537   3.497   0.568  0.5150 -0.2238 -0.0134
  251TIP3    H122388   6.474   3.567   0.585  0.5729 -0.0652 -0.4341
  251TIP3    H222389   6.483   3.422   0.544  0.5214  0.4640 -2.3780
  252TIP3   OH222390   4.606   4.413   2.477 -0.1093  0.2258 -0.4058
  252TIP3    H122391   4.609   4.319   2.463 -1.3355  0.3136 -1.4751
  252TIP3    H222392   4.514   4.436   2.466  0.1336  1.5134  0.0792
  253TIP3   OH222393   5.702   1.820   8.004  0.3954  0.5007 -0.1897
  253TIP3    H122394   5.745   1.897   8.041 -1.1053  1.7108 -0.8339
  253TIP3    H222395   5.627   1.804   8.062 -1.8156  2.2396 -2.3346
  254TIP3   OH222396   0.835   1.523   0.958 -0.2941 -0.5631  0.6147
  254TIP3    H122397   0.927   1.522   0.933 -0.0639 -1.4484  1.4688
  254TIP3    H222398   0.793   1.576   0.890  0.6822 -0.9719 -0.3390
  255TIP3   OH222399   0.094   3.708   7.770 -0.0478 -0.0571 -0.1414
  255TIP3    H122400   0.098   3.798   7.738  0.3878  0.3391  0.9965
  255TIP3    H222401   0.122   3.655   7.695  2.2326  0.9374 -0.0942
  256TIP3   OH222402   4.347   1.544   2.818 -0.4101  0.1857  0.3289
  256TIP3    H122403   4.303   1.591   2.888  0.0188 -1.1445  1.5399
  256TIP3    H222404   4.408   1.608   2.781  0.5348  0.4831  2.2698
  257TIP3   OH222405   0.531   5.712   7.887 -0.3698 -0.1077 -0.3442
  257TIP3    H122406   0.510   5.790   7.835  2.0018  0.6613 -0.2365
  257TIP3    H222407   0.458   5.652   7.870 -1.1700  1.2820 -2.1457
  258TIP3   OH222408   5.765   0.454   1.519  0.2841  0.0175  0.1551
  258TIP3    H122409   5.692   0.512   1.497  1.0648  0.6880 -0.7270
  258TIP3    H222410   5.814   0.502   1.585 -0.2386 -0.5901  1.0204
  259TIP3   OH222411   6.889   5.399   7.011 -0.4484  0.2504 -0.4561
  259TIP3    H122412   6.931   5.326   6.965 -1.1472 -0.3553 -0.1411
  259TIP3    H222413   6.850   5.452   6.941 -0.3898  0.0373 -0.6501
  260TIP3   OH222414   6.216   3.544   1.026 -0.1418 -0.1083 -0.3050
  260TIP3    H122415   6.132   3.504   1.002  0.2380 -0.1222 -1.6926
  260TIP3    H222416   6.279   3.503   0.967  0.6624  0.6867 -0.0119
  261TIP3   OH222417   3.465   1.556   1.307 -0.4187  0.1065 -0.0294
  261TIP3    H122418   3.396   1.516   1.359 -0.1280 -2.1421 -1.2315
  261TIP3    H222419   3.546   1.532   1.351 -0.2852  0.7820  0.1128
  262TIP3   OH222420   2.792   6.600   0.431  0.3290  0.0401  0.4083
  262TIP3    H122421   2.846   6.567   0.359 -2.1899 -1.3632 -0.9562
  262TIP3    H222422   2.707   6.619   0.391 -1.1069 -0.5660  2.9537
  263TIP3   OH222423   1.675   3.838   2.097 -0.2971  0.2211 -0.4248
  263TIP3    H122424   1.606   3.799   2.152 -2.6334  0.2022 -3.1238
  263TIP3    H222425   1.744   3.862   2.159 -1.4309 -2.4341  2.1316
  264TIP3   OH222426   1.537   1.603   0.758  0.5671 -0.0250 -0.2418
  264TIP3    H122427   1.473   1.636   0.695  1.2757 -0.2447 -1.0812
  264TIP3    H222428   1.487   1.540   0.811 -0.6377  1.8527  0.9746
  265TIP3   OH222429   5.816   0.663   0.097 -0.0843 -0.1451  0.3998
  265TIP3    H122430   5.738   0.719   0.098 -1.5081 -1.9621 -1.3570
  265TIP3    H222431   5.783   0.574   0.087  2.2032 -0.8029 -3.3223
  266TIP3   OH222432   2.327   5.269   8.274  0.1193  0.3460 -0.1617
  266TIP3    H122433   2.308   5.177   8.254  2.7225 -0.6684  1.4742
  266TIP3    H222434   2.260   5.293   8.338  1.2507 -1.5687  1.9166
  267TIP3   OH222435   5.733   2.647   1.332 -0.0231  0.7539  0.4086
  267TIP3    H122436   5.757   2.682   1.418  0.5239  1.0001  0.1566
  267TIP3    H222437   5.814   2.649   1.281 -0.2360  0.1681  0.0317
  268TIP3   OH222438   5.968   2.959   1.499  0.3282  0.1478 -0.1499
  268TIP3    H122439   6.049   3.009   1.495  1.4662 -1.6443 -0.6328
  268TIP3    H222440   5.959   2.919   1.413 -0.2957 -0.8278  0.3435
  269TIP3   OH222441   5.909   5.086   1.881 -0.1027 -0.0229  0.3788
  269TIP3    H122442   5.899   5.124   1.794 -0.7894 -0.0291  0.4501
  269TIP3    H222443   6.003   5.079   1.894  0.0150 -1.3768 -0.9645
  270TIP3   OH222444   5.668   1.785   8.505  0.1126 -0.2839 -0.2312
  270TIP3    H122445   5.611   1.856   8.475  0.1656  0.5675  1.5448
  270TIP3    H222446   5.757   1.815   8.483  0.1333  0.2153  0.4892
  271TIP3   OH222447   6.516   2.106   7.505 -0.6226  0.3879 -0.6474
  271TIP3    H122448   6.562   2.182   7.538  0.1546  0.2220 -1.3102
  271TIP3    H222449   6.522   2.114   7.410  0.1556 -0.9050 -0.7200
  272TIP3   OH222450   5.547   1.422   7.944 -0.4330  0.7520  0.2810
  272TIP3    H122451   5.531   1.341   7.896  2.4739  0.7918 -0.9674
  272TIP3    H222452   5.547   1.490   7.876  0.4043  1.3083  0.8249
  273TIP3   OH222453   5.252   3.772   8.120 -0.0424 -0.0733  0.2274
  273TIP3    H122454   5.283   3.836   8.184  3.9359 -2.6842  1.2751
  273TIP3    H222455   5.301   3.792   8.041  0.0815 -0.8534  0.0972
  274TIP3   OH222456   4.307   0.711   0.907 -0.3481  0.0114  0.1806
  274TIP3    H122457   4.318   0.806   0.902  1.5357 -0.2330 -0.9456
  274TIP3    H222458   4.390   0.678   0.939 -0.7478 -1.3257 -0.0808
  275TIP3   OH222459   4.724   6.117   3.155 -0.1995 -0.2381  0.3343
  275TIP3    H122460   4.679   6.039   3.186 -1.9243  0.2285 -0.8742
  275TIP3    H222461   4.673   6.190   3.189  1.0314  0.3893  0.9285
  276TIP3   OH222462   2.583   6.606   2.211  0.5908  0.1698  0.2137
  276TIP3    H122463   2.629   6.580   2.131 -0.6833 -1.4679 -0.0644
  276TIP3    H222464   2.652   6.632   2.272  1.8132 -1.1846 -0.5174
  277TIP3   OH222465   5.067   2.350   2.236 -0.4476 -0.5424  0.1354
  277TIP3    H122466   5.039   2.259   2.246 -0.5486 -0.4399  0.8209
  277TIP3    H222467   4.989   2.401   2.254 -0.1694 -0.2975  0.6812
  278TIP3   OH222468   0.878   0.559   1.786  0.1341 -0.2054  0.2817
  278TIP3    H122469   0.793   0.525   1.757  0.0699 -0.2829  0.5632
  278TIP3    H222470   0.859   0.649   1.813 -0.1254 -0.6394  1.6126
  279TIP3   OH222471   6.553   1.374   7.060  0.2721  1.0960 -0.3472
  279TIP3    H122472   6.590   1.293   7.025  0.6609 -0.4448  3.2075
  279TIP3    H222473   6.628   1.433   7.068  0.4487  0.9127 -0.6292
  280TIP3   OH222474   4.294   3.709   8.531  0.6024  0.1066  0.0864
  280TIP3    H122475   4.201   3.686   8.538  0.8258 -0.7292  0.4681
  280TIP3    H222476   4.308   3.772   8.602  0.5318 -0.5004  0.6547
  281TIP3   OH222477   2.589   3.570   0.585  0.0083 -0.3673  0.3243
  281TIP3    H122478   2.656   3.633   0.560 -1.3340  0.9288 -0.1729
  281TIP3    H222479   2.568   3.591   0.676 -1.1691  0.6351 -0.1521
  282TIP3   OH222480   2.134   1.656   7.664 -0.2836 -0.0424  0.1792
  282TIP3    H122481   2.172   1.575   7.631  1.0811  0.3277  0.7749
  282TIP3    H222482   2.161   1.660   7.756  1.2931  1.9841 -0.2980
  283TIP3   OH222483   5.390   4.619   8.231 -0.5381  0.4678  0.1820
  283TIP3    H122484   5.308   4.588   8.192 -0.1147 -0.4099 -0.0302
  283TIP3    H222485   5.400   4.566   8.311 -1.8973  2.8944  2.0975
  284TIP3   OH222486   5.057   0.392   0.769  0.0535  0.3125  0.0489
  284TIP3    H122487   5.129   0.452   0.749  0.2801  0.1645  0.4108
  284TIP3    H222488   5.027   0.362   0.683  0.9429 -0.2328 -0.0914
  285TIP3   OH222489   1.972   3.511   1.551  0.9171  0.4158 -0.3984
  285TIP3    H122490   1.997   3.556   1.631  0.7756  1.1543 -0.7630
  285TIP3    H222491   1.958   3.581   1.487 -1.6924  0.0592 -0.3206
  286TIP3   OH222492   6.676   5.203   1.496  0.2018  0.0857 -0.1507
  286TIP3    H122493   6.616   5.187   1.568  0.7302  2.0608  0.8181
  286TIP3    H222494   6.763   5.193   1.535  0.5607 -2.0224 -1.3574
  287TIP3   OH222495   1.106   1.115   1.277  0.3411  0.3493 -0.0350
  287TIP3    H122496   1.068   1.065   1.349 -0.9205 -0.0149 -0.9293
  287TIP3    H222497   1.036   1.173   1.248  0.8287  0.4978 -0.9570
  288TIP3   OH222498   0.061   4.439   0.890 -0.2037 -0.5522  0.1080
  288TIP3    H122499   0.132   4.385   0.857  0.0443  1.1627 -2.3544
  288TIP3    H222500   0.067   4.521   0.841 -3.0884  0.1501  0.7356
  289TIP3   OH222501   6.407   4.703   7.763  0.5356 -0.5468  0.0533
  289TIP3    H122502   6.316   4.686   7.739  0.2387 -1.9548  1.9393
  289TIP3    H222503   6.437   4.622   7.804  1.8565  0.6674  1.6568
  290TIP3   OH222504   1.608   6.679   7.407  0.0408  0.5464 -0.1299
  290TIP3    H122505   1.656   6.750   7.449  1.1205 -0.2495  0.0149
  290TIP3    H222506   1.574   6.716   7.326 -0.5221  1.5865  0.5583
  291TIP3   OH222507   1.927   1.187   0.310  0.1424 -0.0119 -0.5736
  291TIP3    H122508   1.875   1.198   0.230 -0.1032  2.7721 -0.1052
  291TIP3    H222509   1.963   1.273   0.327  0.1067 -0.5059  2.4206
  292TIP3   OH222510   5.625   4.180   0.920 -0.1441  0.2420  0.0730
  292TIP3    H122511   5.620   4.243   0.991  2.6159  0.6767 -0.0331
  292TIP3    H222512   5.647   4.232   0.843  2.7526 -0.7707  0.0822
  293TIP3   OH222513   1.158   3.983   8.311  0.3450  1.3310 -0.3110
  293TIP3    H122514   1.137   4.029   8.392  1.8554  1.8525 -0.1829
  293TIP3    H222515   1.111   4.032   8.243 -1.8200  0.2413  0.3132
  294TIP3   OH222516   5.996   4.482   0.633  0.1687 -0.1760 -0.4806
  294TIP3    H122517   6.088   4.501   0.611  0.4974 -0.7440  0.3570
  294TIP3    H222518   5.948   4.559   0.603  1.1208  0.8367  0.5205
  295TIP3   OH222519   2.339   0.286   1.447 -0.2995 -0.2624  0.3703
  295TIP3    H122520   2.343   0.283   1.351 -1.0083  1.5667  0.2305
  295TIP3    H222521   2.248   0.310   1.466  0.1564  0.6941  1.4378
  296TIP3   OH222522   0.751   6.065   6.263  0.2947  0.1172  0.2245
  296TIP3    H122523   0.781   5.975   6.247 -0.9061 -0.0460 -1.2600
  296TIP3    H222524   0.675   6.055   6.321  2.1609  0.4596  2.9536
  297TIP3   OH222525   4.336   0.917   0.475  0.1630  0.2290  0.1850
  297TIP3    H122526   4.422   0.899   0.513 -0.9353 -1.0062  2.2805
  297TIP3    H222527   4.287   0.957   0.546 -1.1213  0.5382 -0.8563
  298TIP3   OH222528   1.876   2.342   2.328 -0.4096  0.5836  0.3707
  298TIP3    H122529   1.823   2.319   2.252 -2.3284 -1.0407  2.0601
  298TIP3    H222530   1.947   2.395   2.293  0.6154 -2.5662 -3.0193
  299TIP3   OH222531   6.194   0.101   1.498  0.2839  0.2446  0.5001
  299TIP3    H122532   6.205   0.196   1.492  0.5064  0.2479  0.9402
  299TIP3    H222533   6.104   0.086   1.471  0.0652  0.6411  0.9905
  300TIP3   OH222534   5.040   5.763   2.010 -0.4057 -0.0569 -0.0360
  300TIP3    H122535   5.072   5.825   2.076 -0.5331  1.2749 -1.1783
  300TIP3    H222536   5.084   5.681   2.031 -2.0720 -0.3444  3.0432
  301TIP3   OH222537   0.725   0.768   0.762  0.2525  0.0014 -0.5755
  301TIP3    H122538   0.682   0.716   0.830  2.7430 -0.1688  0.9874
  301TIP3    H222539   0.754   0.847   0.808  2.1391 -0.2004 -1.3542
  302TIP3   OH222540   0.040   2.082   7.998  0.0997  0.1373 -0.3793
  302TIP3    H122541   0.124   2.081   7.952 -0.1143  0.9815 -0.8078
  302TIP3    H222542  -0.019   2.129   7.939 -0.4495  0.3223  0.3047
  303TIP3   OH222543   2.226   3.014   7.875 -0.2372  0.0567  0.2424
  303TIP3    H122544   2.216   2.948   7.945 -1.0552 -0.2145 -0.1080
  303TIP3    H222545   2.310   2.993   7.834  0.1324  0.0598  0.9748
  304TIP3   OH222546   1.050   0.771   0.511  0.1318 -0.3210  0.1597
  304TIP3    H122547   0.955   0.766   0.504  0.1432 -0.1150 -0.2192
  304TIP3    H222548   1.069   0.754   0.603 -0.2275 -0.9625  0.1241
  305TIP3   OH222549   4.834   1.989   1.084 -0.1500 -0.2906 -0.1656
  305TIP3    H122550   4.928   1.997   1.068  0.1734  1.2635  2.0362
  305TIP3    H222551   4.817   1.895   1.082  1.2129 -0.5516 -1.6347
  306TIP3   OH222552   2.369   1.766   7.316  0.3381  0.3531 -0.0432
  306TIP3    H122553   2.421   1.706   7.370  1.2104 -0.3564 -1.6127
  306TIP3    H222554   2.422   1.845   7.311 -0.2897  0.8692  1.0795
  307TIP3   OH222555   6.365   1.078   0.080 -0.3490 -0.1456  0.6094
  307TIP3    H122556   6.399   0.996   0.045 -0.0806  0.1273  0.2313
  307TIP3    H222557   6.379   1.142   0.011 -0.2287  0.2997  1.0388
  308TIP3   OH222558   5.293   3.356   0.742 -0.0007  0.0439 -0.6089
  308TIP3    H122559   5.273   3.305   0.821 -1.2255  1.5465  0.1005
  308TIP3    H222560   5.209   3.364   0.697  0.4218  0.3917 -1.3505
  309TIP3   OH222561   3.978   6.287   1.694 -1.3431 -0.1718 -0.0079
  309TIP3    H122562   4.051   6.315   1.750 -0.8519  0.6575 -1.0425
  309TIP3    H222563   3.970   6.193   1.711 -0.3926 -0.1692  0.5227
  310TIP3   OH222564   0.022   0.680   1.441  0.4166 -0.1638 -0.4070
  310TIP3    H122565  -0.015   0.669   1.354  2.5142  0.0392 -1.3904
  310TIP3    H222566   0.059   0.769   1.441  0.0814  0.0028  0.8442
  311TIP3   OH222567   0.522   5.612   7.419  0.5764  0.6794  0.0739
  311TIP3    H122568   0.454   5.628   7.485 -0.4202  0.2541 -0.8274
  311TIP3    H222569   0.573   5.693   7.417 -1.6406  2.1114 -1.2467
  312TIP3   OH222570   0.795   1.177   6.342 -0.1179 -0.2757 -0.3059
  312TIP3    H122571   0.729   1.218   6.397 -0.0021 -0.9106  0.3198
  312TIP3    H222572   0.866   1.241   6.337 -0.3075 -0.0482 -0.0622
  313TIP3   OH222573   5.562   6.588   1.766 -0.3776  0.2402 -0.1935
  313TIP3    H122574   5.545   6.523   1.699  1.8080 -1.0796  0.4325
  313TIP3    H222575   5.546   6.543   1.849  3.3524 -0.4282  0.3481
  314TIP3   OH222576   0.438   3.706   6.794  0.0296 -0.1073 -0.2599
  314TIP3    H122577   0.511   3.665   6.748  1.7218  0.8188  1.4637
  314TIP3    H222578   0.417   3.783   6.742  0.9940  0.1811 -0.2398
  315TIP3   OH222579   6.127   0.370   8.515 -0.6413 -0.4202 -0.4900
  315TIP3    H122580   6.077   0.451   8.520 -1.2003 -0.7008 -1.3458
  315TIP3    H222581   6.145   0.359   8.422 -1.4018 -1.7810 -0.4891
  316TIP3   OH222582   4.801   0.411   8.116 -0.2328  0.2515  0.0967
  316TIP3    H122583   4.721   0.400   8.065 -0.9662 -0.0869  1.2865
  316TIP3    H222584   4.773   0.404   8.207  0.9017  1.6581  0.6031
  317TIP3   OH222585   0.464   0.036   1.883 -0.4758 -0.2654  0.3304
  317TIP3    H122586   0.489  -0.055   1.900  1.6497  0.3350  0.6023
  317TIP3    H222587   0.374   0.042   1.917 -0.4483 -2.0958  0.8481
  318TIP3   OH222588   3.139   4.418   1.385 -0.0619 -0.5884  0.2052
  318TIP3    H122589   3.166   4.435   1.295 -1.5973 -1.7253 -0.5163
  318TIP3    H222590   3.216   4.377   1.425  0.6332 -0.0942 -0.5889
  319TIP3   OH222591   2.089   4.829   1.653  0.6160  0.3888 -0.2006
  319TIP3    H122592   2.158   4.783   1.701  1.5078 -1.1952 -2.7706
  319TIP3    H222593   2.014   4.771   1.657  0.6449  0.3237 -0.5480
  320TIP3   OH222594   0.532   6.882   1.216 -0.3592 -0.2995 -0.3077
  320TIP3    H122595   0.452   6.846   1.252  0.2256 -0.8987  0.4233
  320TIP3    H222596   0.596   6.876   1.287  0.2036  0.6272 -0.7130
  321TIP3   OH222597   1.843   4.314   0.092  0.0686  0.2251 -0.1739
  321TIP3    H122598   1.764   4.269   0.063  0.2693 -1.8624  2.1780
  321TIP3    H222599   1.847   4.298   0.186  1.7321  2.8539  0.3300
  322TIP3   OH222600   5.198   4.861   1.339 -0.6153  0.2386 -0.0007
  322TIP3    H122601   5.111   4.894   1.363 -0.5778 -0.0217  0.5056
  322TIP3    H222602   5.229   4.816   1.417 -0.4717 -0.5938 -0.5178
  323TIP3   OH222603   5.037   2.281   7.481 -0.0039 -0.1118 -0.6279
  323TIP3    H122604   5.094   2.209   7.508 -1.0280  0.1961  2.7051
  323TIP3    H222605   4.952   2.240   7.466 -0.7787  0.3659  1.9831
  324TIP3   OH222606   2.646   0.876   0.647  0.3572 -0.1178  0.5840
  324TIP3    H122607   2.677   0.819   0.576 -0.5000 -0.4663  0.4874
  324TIP3    H222608   2.591   0.941   0.604  0.2168 -0.0410  0.8775
  325TIP3   OH222609   1.704   2.204   1.244 -0.3341 -0.3011  0.1438
  325TIP3    H122610   1.742   2.136   1.299  0.3938  0.9804  1.2817
  325TIP3    H222611   1.736   2.185   1.156  0.4921 -0.9594  0.5750
  326TIP3   OH222612   0.358   1.738   7.508 -0.4231  0.0633  0.1551
  326TIP3    H122613   0.309   1.751   7.427  0.2053  0.2194 -0.2075
  326TIP3    H222614   0.299   1.688   7.564 -0.0745 -2.0349 -1.2172
  327TIP3   OH222615   6.431   0.392   2.405  0.1451 -0.2453  0.4181
  327TIP3    H122616   6.525   0.407   2.395 -0.0273  0.2044 -0.5775
  327TIP3    H222617   6.390   0.453   2.344 -0.8371  0.2502  1.5239
  328TIP3   OH222618   1.024   3.605   0.625  0.7363  0.3646  0.0724
  328TIP3    H122619   0.961   3.668   0.661  0.5241  1.0362 -1.4276
  328TIP3    H222620   1.102   3.657   0.606  0.6627  0.1267 -0.9073
  329TIP3   OH222621   0.294   0.524   2.300 -0.2887  0.1125 -0.3077
  329TIP3    H122622   0.372   0.516   2.355 -1.1329  0.6806  1.0003
  329TIP3    H222623   0.254   0.607   2.326 -2.6502 -1.2889  0.8349
  330TIP3   OH222624   0.393   5.676   0.192 -0.3423  0.1944 -0.3321
  330TIP3    H122625   0.379   5.768   0.170  0.0066  0.2858 -0.1857
  330TIP3    H222626   0.313   5.632   0.163 -0.4549  0.5212 -0.5284
  331TIP3   OH222627   5.942   1.006   1.010  0.0254 -0.0069 -0.5823
  331TIP3    H122628   5.969   0.999   1.102 -1.7623 -0.8643 -0.0868
  331TIP3    H222629   5.970   0.924   0.971 -1.3626 -0.7103 -0.1715
  332TIP3   OH222630   0.414   4.928   7.700 -0.8287  0.1031  0.3223
  332TIP3    H122631   0.372   5.009   7.671  0.5274  0.2432 -1.4446
  332TIP3    H222632   0.489   4.957   7.752 -0.0953  0.0383 -0.6632
  333TIP3   OH222633   5.204   3.005   2.043  0.1190 -0.0535 -0.2514
  333TIP3    H122634   5.296   3.011   2.018  0.2095 -1.0708 -0.2050
  333TIP3    H222635   5.202   3.037   2.133  0.7483 -1.6693  0.3812
  334TIP3   OH222636   4.138   4.503   1.349  0.0729 -0.7175  0.1578
  334TIP3    H122637   4.221   4.547   1.367  0.9000 -1.5159 -1.5244
  334TIP3    H222638   4.123   4.517   1.256 -2.5887  0.8695  0.7243
  335TIP3   OH222639   6.868   6.023   1.780  0.5449  0.4777 -0.1066
  335TIP3    H122640   6.898   5.974   1.704  0.1471 -0.6237  0.4239
  335TIP3    H222641   6.931   6.002   1.849 -1.2882 -1.8453  1.0156
  336TIP3   OH222642   0.506   5.117   1.199 -0.7266 -0.0292 -0.3368
  336TIP3    H122643   0.566   5.103   1.273 -2.2331  0.2238  0.9958
  336TIP3    H222644   0.481   5.029   1.172 -2.0970 -0.1570  1.1615
  337TIP3   OH222645   6.678   5.992   0.144 -0.1499  0.4012  0.1784
  337TIP3    H122646   6.674   5.899   0.166  2.0974  0.4997  1.2945
  337TIP3    H222647   6.651   5.996   0.052  1.3257 -1.6210 -0.4357
  338TIP3   OH222648   2.155   0.932   0.791 -0.7215  0.2103 -0.1711
  338TIP3    H122649   2.189   0.990   0.860 -0.9293  1.6054 -1.2058
  338TIP3    H222650   2.067   0.965   0.774 -0.4608  0.2459 -1.5142
  339TIP3   OH222651   0.983   6.642   1.813 -0.3171  0.4592  0.3454
  339TIP3    H122652   0.952   6.665   1.901  0.4568 -0.3872  0.8490
  339TIP3    H222653   0.974   6.723   1.763 -0.9380  0.9057  1.1503
  340TIP3   OH222654   1.171   6.865   8.026  0.1859  0.2387  0.0450
  340TIP3    H122655   1.166   6.774   8.054 -0.2797  0.3912  0.4669
  340TIP3    H222656   1.264   6.885   8.026  0.2527 -0.0667  0.5074
  341TIP3   OH222657   0.290   5.415   2.653  0.1713  0.5958  0.0878
  341TIP3    H122658   0.237   5.426   2.732 -0.8512  0.3868 -0.5498
  341TIP3    H222659   0.354   5.348   2.676 -0.3571  0.2633  0.6236
  342TIP3   OH222660   0.283   3.515   1.590 -0.0800 -0.2935  0.7271
  342TIP3    H122661   0.307   3.573   1.517 -0.3813 -0.8324  0.1998
  342TIP3    H222662   0.257   3.575   1.659 -1.2400  0.1955 -0.1061
  343TIP3   OH222663   6.137   1.098   8.302 -0.8149  0.1831 -0.3838
  343TIP3    H122664   6.136   1.156   8.377 -0.6427 -0.2036 -0.0782
  343TIP3    H222665   6.195   1.140   8.239  3.2980 -1.8751  1.6303
  344TIP3   OH222666   4.071   1.198   1.930 -0.1500  0.1797 -0.4196
  344TIP3    H122667   4.047   1.122   1.877 -1.3114 -0.3157  0.7337
  344TIP3    H222668   4.060   1.273   1.872 -1.3221 -0.3526 -0.9201
  345TIP3   OH222669   3.619   1.390   6.977  0.2128  0.4822 -0.0744
  345TIP3    H122670   3.596   1.297   6.974  0.8465  0.2846  0.9331
  345TIP3    H222671   3.580   1.422   7.059  2.6812  0.3407  1.2502
  346TIP3   OH222672   2.722   6.326   6.950 -0.1474  0.3140 -0.1212
  346TIP3    H122673   2.660   6.394   6.976  0.2696 -0.1696  2.4742
  346TIP3    H222674   2.795   6.336   7.012  0.0836 -2.2505  0.1232
  347TIP3   OH222675   1.400   4.173   1.447  0.1913  0.5794 -0.0092
  347TIP3    H122676   1.328   4.179   1.385  0.6268  3.5605 -0.3639
  347TIP3    H222677   1.357   4.175   1.533 -0.2428 -0.5738 -0.1725
  348TIP3   OH222678   5.698   0.636   0.948  0.2873 -0.2901 -0.7374
  348TIP3    H122679   5.784   0.649   0.988 -0.2760  1.4738  0.0142
  348TIP3    H222680   5.711   0.655   0.856  0.2636  2.6831 -0.2459
  349TIP3   OH222681   5.826   2.411   7.937  0.1756  0.4333  0.1776
  349TIP3    H122682   5.889   2.351   7.898  0.2788  0.5209  0.2082
  349TIP3    H222683   5.839   2.400   8.032 -0.4086 -0.1377  0.2026
  350TIP3   OH222684   0.990   2.915   7.555  0.2394 -0.5145  0.2844
  350TIP3    H122685   0.992   2.901   7.650 -0.0682  1.9911  0.7378
  350TIP3    H222686   0.918   2.977   7.542 -0.5065 -1.7268 -1.7634
  351TIP3   OH222687   0.599   5.015   2.194 -0.3618  0.5111 -0.4777
  351TIP3    H122688   0.528   5.079   2.200 -2.0491 -1.2652 -0.3542
  351TIP3    H222689   0.587   4.974   2.108  0.6784  0.3536 -0.5593
  352TIP3   OH222690   6.503   5.140   1.696 -0.2851  0.2624  0.1962
  352TIP3    H122691   6.455   5.218   1.725  0.0113 -0.2412  2.1908
  352TIP3    H222692   6.498   5.080   1.770  0.9787 -0.9399 -0.6436
  353TIP3   OH222693   2.835   0.380   8.554 -0.3038 -0.3387  0.0262
  353TIP3    H122694   2.846   0.385   8.649 -0.2910  0.6593 -0.0127
  353TIP3    H222695   2.752   0.426   8.537  0.7614  1.4202 -0.6259
  354TIP3   OH222696   2.259   5.850   7.754 -0.3119 -0.4177 -0.3483
  354TIP3    H122697   2.317   5.783   7.790 -1.2879 -1.4035 -0.5308
  354TIP3    H222698   2.209   5.882   7.829  0.5887  0.5724 -0.1587
  355TIP3   OH222699   0.291   2.034   8.228  0.4622 -0.3042  0.2583
  355TIP3    H122700   0.372   2.010   8.182  1.1438 -0.6499  1.6014
  355TIP3    H222701   0.226   1.971   8.198  1.0955 -1.0030  0.3460
  356TIP3   OH222702   3.921   5.822   6.953  0.3604 -0.7821 -0.5921
  356TIP3    H122703   3.909   5.728   6.970 -0.7341 -0.8140 -1.4138
  356TIP3    H222704   3.974   5.825   6.874 -1.7496 -0.7868 -2.0838
  357TIP3   OH222705   5.845   2.455   2.637  0.1884 -0.1673 -0.6520
  357TIP3    H122706   5.827   2.457   2.543 -0.6494  0.9971 -0.4941
  357TIP3    H222707   5.789   2.386   2.672 -1.7287  1.3266 -0.6210
  358TIP3   OH222708   0.113   0.761   7.539  0.6332  0.1962 -0.2980
  358TIP3    H122709   0.151   0.673   7.541  2.1055  0.8162  1.4053
  358TIP3    H222710   0.047   0.759   7.608  0.2343  0.2826 -0.6682
  359TIP3   OH222711   3.229   5.591   1.506  0.0814  1.2290 -0.6013
  359TIP3    H122712   3.209   5.497   1.507 -0.2197  1.2848  0.6508
  359TIP3    H222713   3.313   5.597   1.553  0.3113  1.5477 -1.0509
  360TIP3   OH222714   4.278   5.233   7.361  0.7121  0.1662  0.2879
  360TIP3    H122715   4.347   5.181   7.321  2.3777  1.0404  1.8424
  360TIP3    H222716   4.261   5.304   7.299  0.9534 -0.2550 -0.2601
  361TIP3   OH222717   6.425   0.445   6.732 -0.5186  0.5146 -0.0569
  361TIP3    H122718   6.430   0.510   6.803 -0.4272 -0.5673  0.9667
  361TIP3    H222719   6.332   0.424   6.726 -0.2418 -1.5071  1.7763
  362TIP3   OH222720   4.447   0.249   8.572  0.2499  0.3935  0.0974
  362TIP3    H122721   4.453   0.211   8.660 -1.3520 -4.0082 -1.4017
  362TIP3    H222722   4.367   0.302   8.575  0.7279  1.0822  1.4992
  363TIP3   OH222723   4.062   5.925   1.064  0.2624 -0.1105 -0.6929
  363TIP3    H122724   4.121   5.921   0.989  0.6110 -0.4746 -0.4016
  363TIP3    H222725   4.097   5.861   1.127 -1.4798 -1.7261 -1.2597
  364TIP3   OH222726   1.520   6.870   2.759 -0.0001  0.0891 -0.1821
  364TIP3    H122727   1.597   6.927   2.765 -0.1030  0.4076 -1.4372
  364TIP3    H222728   1.456   6.922   2.709 -0.0210 -1.1715 -1.5548
  365TIP3   OH222729   0.233   4.872   2.019  0.4051  0.2241  0.4003
  365TIP3    H122730   0.187   4.814   1.959  0.5749 -0.7390  1.1718
  365TIP3    H222731   0.165   4.906   2.078  0.4023  0.2998  0.3538
  366TIP3   OH222732   2.137   0.689   1.725  0.0621  0.2831 -0.2243
  366TIP3    H122733   2.175   0.768   1.763 -1.2970  0.9783 -0.2724
  366TIP3    H222734   2.084   0.720   1.652 -0.5093 -0.6722 -0.2269
  367TIP3   OH222735   1.562   2.360   0.352 -0.0559 -0.3776 -0.6709
  367TIP3    H122736   1.524   2.278   0.323 -0.6707  0.2735 -1.7876
  367TIP3    H222737   1.500   2.427   0.321  1.9473  0.7211 -2.5270
  368TIP3   OH222738   5.648   1.727   2.088 -0.2086 -0.0920  0.1120
  368TIP3    H122739   5.713   1.671   2.130  0.4578  0.8685  0.3832
  368TIP3    H222740   5.623   1.679   2.009  1.6749  0.0210 -0.6111
  369TIP3   OH222741   1.623   5.608   0.486 -0.0097 -0.2086 -0.3836
  369TIP3    H122742   1.587   5.549   0.553  1.7594 -0.1588  0.6543
  369TIP3    H222743   1.667   5.677   0.535  0.7500  0.2106 -1.6039
  370TIP3   OH222744   5.218   3.462   7.688 -0.4170 -0.3681  0.1113
  370TIP3    H122745   5.258   3.534   7.640 -0.5107  1.1005  2.1035
  370TIP3    H222746   5.130   3.454   7.650 -0.5089  0.7835  0.0323
  371TIP3   OH222747   1.702   2.106   0.989  0.3088 -0.0765 -0.0084
  371TIP3    H122748   1.708   2.011   0.982  2.5609  0.1102 -1.4043
  371TIP3    H222749   1.640   2.131   0.920 -0.0643 -0.5000  0.1689
  372TIP3   OH222750   2.403   4.058   7.910  0.1313  0.2813  0.2914
  372TIP3    H122751   2.453   3.983   7.942 -1.7196 -1.9424 -1.5862
  372TIP3    H222752   2.315   4.046   7.947 -0.1450  1.6810  0.1543
  373TIP3   OH222753   1.142   4.829   1.456  0.4081 -0.0916 -0.0969
  373TIP3    H122754   1.229   4.870   1.455  1.0187 -1.1773  2.2314
  373TIP3    H222755   1.159   4.737   1.434 -0.6754  0.3230 -3.1402
  374TIP3   OH222756   4.341   1.583   7.869 -0.4824 -0.2003  0.1456
  374TIP3    H122757   4.371   1.494   7.891  2.5956  0.5748 -0.4500
  374TIP3    H222758   4.306   1.575   7.781 -1.4538 -1.0092  0.5723
  375TIP3   OH222759   4.789   3.911   2.784  0.1472 -0.0510  0.2116
  375TIP3    H122760   4.746   3.995   2.764 -0.2437 -0.3396 -0.1693
  375TIP3    H222761   4.750   3.884   2.867 -1.5425 -1.0355 -0.8372
  376TIP3   OH222762   2.904   1.498   8.017 -0.4029  0.2176  0.5773
  376TIP3    H122763   2.851   1.535   7.946 -2.1330 -1.5441  0.8555
  376TIP3    H222764   2.862   1.414   8.036  0.9006 -0.0062  2.7129
  377TIP3   OH222765   5.049   4.120   0.210 -0.1903  0.3253 -0.0551
  377TIP3    H122766   4.995   4.153   0.138 -0.2335  0.0543 -0.1481
  377TIP3    H222767   5.063   4.197   0.266 -0.0006  0.5813 -0.4472
  378TIP3   OH222768   2.370   3.480   8.332 -0.2140  0.5971  0.2961
  378TIP3    H122769   2.295   3.440   8.289  0.4673  0.4719 -0.8122
  378TIP3    H222770   2.380   3.432   8.414 -0.5947 -0.1891 -0.1159
  379TIP3   OH222771   1.570   5.036   6.983  0.1099  0.8359  0.0580
  379TIP3    H122772   1.585   5.115   7.034  1.3055  1.2923 -0.9711
  379TIP3    H222773   1.584   4.964   7.045  0.9561  1.3907  0.5197
  380TIP3   OH222774   5.388   0.730   0.565 -0.0226 -0.3483  0.0111
  380TIP3    H122775   5.428   0.814   0.541  1.7103 -1.5554 -1.5827
  380TIP3    H222776   5.296   0.751   0.581  0.3140  1.8012 -0.6022
  381TIP3   OH222777   1.209   0.767   7.742 -0.2880 -0.4772 -0.0686
  381TIP3    H122778   1.260   0.686   7.731  0.3848 -0.0505 -0.1421
  381TIP3    H222779   1.223   0.791   7.834 -1.5320 -1.1246  0.3157
  382TIP3   OH222780   0.145   4.073   1.531  0.3635  0.8801 -0.0605
  382TIP3    H122781   0.227   4.024   1.523 -0.1670 -0.0352 -0.0853
  382TIP3    H222782   0.105   4.068   1.444 -0.2307  0.3725  0.2356
  383TIP3   OH222783   1.802   0.159   7.949  0.1128 -0.2536  0.4946
  383TIP3    H122784   1.855   0.237   7.930  0.6980 -0.6849  0.3427
  383TIP3    H222785   1.814   0.102   7.873 -0.5326 -0.3871  0.4815
  384TIP3   OH222786   4.520   0.644   0.314 -0.3485 -0.1909 -0.0314
  384TIP3    H122787   4.440   0.600   0.342 -0.0068  0.0850  1.4848
  384TIP3    H222788   4.507   0.661   0.221 -1.1671 -2.0198 -0.2993
  385TIP3   OH222789   2.754   2.805   0.626 -0.7681  0.2587  0.1771
  385TIP3    H122790   2.676   2.835   0.672  0.2075  1.4998  1.1146
  385TIP3    H222791   2.754   2.710   0.636 -2.3650  0.1953 -0.2244
  386TIP3   OH222792   0.331   4.521   0.553 -0.7060  0.2106 -0.2738
  386TIP3    H122793   0.257   4.582   0.554  0.6672  2.0526  2.4434
  386TIP3    H222794   0.313   4.459   0.623  0.6773  1.3034  1.1392
  387TIP3   OH222795   3.489   3.831   0.043 -0.1006 -0.7092  0.2879
  387TIP3    H122796   3.472   3.750   0.091  0.3702 -1.8613 -1.3634
  387TIP3    H222797   3.422   3.892   0.072 -2.1512 -2.5501 -0.2992
  388TIP3   OH222798   3.256   1.560   3.571 -0.3955  0.5373 -0.3189
  388TIP3    H122799   3.320   1.489   3.565 -1.4646 -0.4946  0.1854
  388TIP3    H222800   3.206   1.555   3.489  1.2309  2.4663 -1.5416
  389TIP3   OH222801   5.509   5.929   0.075 -0.2995  0.1630  0.2103
  389TIP3    H122802   5.592   5.960   0.112  0.3144 -2.1148  0.8703
  389TIP3    H222803   5.534   5.871   0.003 -1.3624  0.2986 -0.2890
  390TIP3   OH222804   5.983   2.217   2.467  0.0461  0.1954  0.2564
  390TIP3    H122805   5.913   2.186   2.525  0.7429 -1.2123  0.4003
  390TIP3    H222806   6.060   2.166   2.493  1.0440  1.4525 -0.1457
  391TIP3   OH222807   6.911   4.554   7.579  0.1648 -0.3513 -0.7432
  391TIP3    H122808   6.972   4.513   7.640 -0.2497 -0.9175 -0.7110
  391TIP3    H222809   6.946   4.532   7.492  0.2806 -0.2556 -0.7215
  392TIP3   OH222810   5.426   4.017   6.866  0.4856 -0.3200 -0.0872
  392TIP3    H122811   5.466   4.093   6.907 -0.1161  0.0967 -0.2696
  392TIP3    H222812   5.348   4.051   6.822  0.6891 -0.8896 -0.9089
  393TIP3   OH222813   3.115   0.539   7.529 -0.3135 -0.1078  0.4894
  393TIP3    H122814   3.192   0.570   7.480  1.6922 -1.6413  2.4623
  393TIP3    H222815   3.088   0.459   7.484 -1.7291  1.1459 -1.0297
  394TIP3   OH222816   2.590   1.583   1.132  0.4747  0.0527 -0.6067
  394TIP3    H122817   2.523   1.574   1.200  1.3668  0.7521  0.4072
  394TIP3    H222818   2.558   1.655   1.077 -0.1424 -0.3585 -0.7852
  395TIP3   OH222819   5.722   4.992   7.209  0.2425 -0.0262 -0.1804
  395TIP3    H122820   5.681   4.982   7.123  0.4275 -1.8413 -0.1055
  395TIP3    H222821   5.807   5.032   7.192  0.5982 -1.0695 -0.9613
  396TIP3   OH222822   5.958   1.523   0.371 -0.0602 -0.4776 -0.4420
  396TIP3    H122823   5.865   1.539   0.355 -0.4354 -2.0383 -0.0153
  396TIP3    H222824   5.967   1.528   0.467  0.4225  0.2517 -0.5179
  397TIP3   OH222825   3.371   2.514   1.043 -0.1407  0.4562 -0.0815
  397TIP3    H122826   3.445   2.464   1.078  0.2793  1.5429  0.6570
  397TIP3    H222827   3.411   2.582   0.989 -0.7545 -0.6202 -1.9699
  398TIP3   OH222828   0.992   6.186   8.527 -0.5347  0.6810  0.0522
  398TIP3    H122829   0.934   6.158   8.597  0.9047 -1.5790  0.4374
  398TIP3    H222830   1.024   6.272   8.556 -0.9623  0.3603  1.5512
  399TIP3   OH222831   3.171   3.842   0.018  0.4694 -0.0465 -0.0869
  399TIP3    H122832   3.183   3.751  -0.010 -0.6906 -0.6770  1.3066
  399TIP3    H222833   3.136   3.886  -0.059 -3.6732 -1.9640  0.4295
  400TIP3   OH222834   6.102   5.500   8.181  0.0478 -0.4380 -0.3876
  400TIP3    H122835   6.017   5.477   8.219 -0.9014  1.1105 -1.4401
  400TIP3    H222836   6.159   5.515   8.256 -0.8078 -0.7908  0.3526
  401TIP3   OH222837   2.332   6.822   7.573 -0.3574 -0.3356 -0.2901
  401TIP3    H122838   2.338   6.913   7.543 -0.4438  0.6126  2.3097
  401TIP3    H222839   2.392   6.774   7.517  3.7837  2.2545  1.4787
  402TIP3   OH222840   5.281   4.302   8.039  0.2164 -0.6839 -0.2396
  402TIP3    H122841   5.375   4.310   8.056  0.4615  1.0696 -2.0138
  402TIP3    H222842   5.250   4.239   8.104  2.3391 -0.1864  1.3802
  403TIP3   OH222843   4.541   5.669   1.264  0.1302 -0.3375 -0.4975
  403TIP3    H122844   4.548   5.657   1.359  0.9460  0.1412 -0.4860
  403TIP3    H222845   4.631   5.673   1.234 -0.0278  2.3789 -0.8988
  404TIP3   OH222846   3.526   1.790   2.045 -0.0394 -0.1955  0.3684
  404TIP3    H122847   3.604   1.841   2.025  0.1706 -1.4477 -2.5298
  404TIP3    H222848   3.463   1.854   2.078  1.9435  0.9337  2.2014
  405TIP3   OH222849   0.126   6.074   0.285 -0.0545 -0.0699 -0.1093
  405TIP3    H122850   0.203   6.031   0.322 -0.9810 -1.1624  0.6086
  405TIP3    H222851   0.097   6.135   0.353  0.2536  0.4448 -0.4355
  406TIP3   OH222852   0.212   1.590   0.306  0.0380  0.2632 -0.1406
  406TIP3    H122853   0.204   1.546   0.221 -2.3535 -1.7467  0.9938
  406TIP3    H222854   0.128   1.634   0.319  0.9219  1.8219  0.5801
  407TIP3   OH222855   0.161   3.854   0.394  0.6298 -0.1434 -0.4420
  407TIP3    H122856   0.236   3.820   0.443 -0.6049 -0.5080  1.3199
  407TIP3    H222857   0.198   3.891   0.314  2.4215 -2.2375 -0.6409
  408TIP3   OH222858   1.001   5.995   0.298  0.1387 -0.0848 -0.1127
  408TIP3    H122859   0.947   5.922   0.328  2.5794 -1.8498  0.3098
  408TIP3    H222860   1.066   5.954   0.240  0.9569  1.9201 -0.6794
  409TIP3   OH222861   3.211   1.045   2.710 -0.0164  0.1455  0.8365
  409TIP3    H122862   3.225   1.112   2.777 -0.6356 -1.0092  2.1712
  409TIP3    H222863   3.161   0.976   2.754  2.3348 -2.1936  0.1599
  410TIP3   OH222864   6.338   2.711   3.153  0.0489  0.4164  0.1786
  410TIP3    H122865   6.384   2.661   3.085 -0.5245  0.5186 -0.2879
  410TIP3    H222866   6.403   2.775   3.182  0.8374 -0.6501  0.8697
  411TIP3   OH222867   3.748   6.443   2.695  0.0771 -0.6485 -0.4456
  411TIP3    H122868   3.720   6.353   2.707  2.2266 -1.3412 -0.0806
  411TIP3    H222869   3.836   6.445   2.733 -0.4497  1.9582  0.8641
  412TIP3   OH222870   2.605   4.902   0.736  0.3849  0.2813 -0.4131
  412TIP3    H122871   2.561   4.938   0.813  1.0398  0.8245 -0.2795
  412TIP3    H222872   2.580   4.962   0.665  0.9152  0.6043 -0.3321
  413TIP3   OH222873   3.649   2.497   2.075 -0.1164 -0.1862 -0.0941
  413TIP3    H122874   3.567   2.538   2.101 -0.3191 -1.4107  1.3285
  413TIP3    H222875   3.641   2.486   1.980 -0.6961  1.5823 -0.2818
  414TIP3   OH222876   4.466   4.512   2.723  0.4792 -0.2763  0.3854
  414TIP3    H122877   4.370   4.517   2.722  0.4307 -0.1819 -2.0314
  414TIP3    H222878   4.485   4.422   2.748 -0.1698 -0.0223  1.9176
  415TIP3   OH222879   6.323   6.276   7.159 -0.0345 -0.7690 -0.3871
  415TIP3    H122880   6.405   6.323   7.176  0.1520 -1.4022  0.5862
  415TIP3    H222881   6.284   6.264   7.246 -1.9007  0.7921 -0.9478
  416TIP3   OH222882   2.441   4.620   2.212  0.0506  0.1839  0.4539
  416TIP3    H122883   2.497   4.610   2.135  0.3683  2.5349  0.3091
  416TIP3    H222884   2.352   4.618   2.177  0.2087  1.9556 -0.1174
  417TIP3   OH222885   4.676   4.698   7.903 -0.1474  0.1167  0.7560
  417TIP3    H122886   4.724   4.655   7.974  4.1856  2.1805 -0.5728
  417TIP3    H222887   4.695   4.791   7.914 -2.8679  0.9645 -0.7795
  418TIP3   OH222888   2.395   4.179   0.935 -0.2121  0.5852  0.8187
  418TIP3    H122889   2.445   4.123   0.995  0.4977  0.3323  0.0151
  418TIP3    H222890   2.326   4.122   0.901 -0.6469  0.7426  1.4211
  419TIP3   OH222891   4.662   0.881   7.521  0.2812 -0.2624 -0.2111
  419TIP3    H122892   4.645   0.955   7.462  2.3024 -0.1263 -0.7056
  419TIP3    H222893   4.648   0.803   7.467 -0.5919 -0.2266 -0.0529
  420TIP3   OH222894   0.052   5.139   8.117  0.4205 -0.1025 -0.2107
  420TIP3    H122895   0.116   5.089   8.066  0.2989 -0.2039 -0.2630
  420TIP3    H222896  -0.014   5.075   8.143  1.3186 -0.4067  1.4822
  421TIP3   OH222897   5.456   5.606   7.590 -0.3314  0.0516  0.0215
  421TIP3    H122898   5.429   5.515   7.573  0.5786 -0.0596 -0.9860
  421TIP3    H222899   5.404   5.658   7.528  0.4522  0.0071 -0.7055
  422TIP3   OH222900   6.525   4.695   0.558  0.3854 -0.0270  0.4138
  422TIP3    H122901   6.572   4.626   0.606 -0.3242  0.0350  1.2178
  422TIP3    H222902   6.592   4.761   0.540  1.1052 -0.9590 -0.4596
  423TIP3   OH222903   6.166   6.138   7.385 -0.1032 -0.6210  0.5551
  423TIP3    H122904   6.223   6.077   7.432 -1.2188 -1.6863  0.5604
  423TIP3    H222905   6.137   6.089   7.308  0.4097  0.5421 -0.4141
  424TIP3   OH222906   5.595   1.296   1.667 -0.3869 -0.1919 -0.2948
  424TIP3    H122907   5.522   1.358   1.662 -0.2424  0.0740  0.7400
  424TIP3    H222908   5.617   1.278   1.576 -1.6273 -0.1388 -0.6217
  425TIP3   OH222909   6.199   3.829   7.347  0.0041 -0.1693  0.1314
  425TIP3    H122910   6.211   3.816   7.253  0.0989  0.2409  0.0834
  425TIP3    H222911   6.271   3.887   7.373 -1.5488  1.9695 -0.0648
  426TIP3   OH222912   4.373   5.044   8.206  0.0642  0.1831  0.2667
  426TIP3    H122913   4.388   5.137   8.221  0.7120 -0.1903  2.2534
  426TIP3    H222914   4.460   5.005   8.207 -0.2376 -0.5174  0.0279
  427TIP3   OH222915   1.124   3.127   8.451 -0.6586  0.2828  0.4787
  427TIP3    H122916   1.192   3.185   8.485 -0.0197  0.0623 -0.3743
  427TIP3    H222917   1.049   3.183   8.437  0.1250  1.0337 -0.8632
  428TIP3   OH222918   0.749   2.723   1.795 -0.4806  0.3247 -0.2026
  428TIP3    H122919   0.766   2.629   1.794 -0.2071  0.3588  0.4554
  428TIP3    H222920   0.665   2.732   1.839 -0.5446  0.3852 -0.3359
  429TIP3   OH222921   5.864   0.548   8.073  0.0729  0.0337  0.2917
  429TIP3    H122922   5.769   0.563   8.077 -0.2257 -1.6022 -0.2436
  429TIP3    H222923   5.900   0.635   8.054 -1.2605  0.7974  1.0376
  430TIP3   OH222924   2.250   5.054   7.530 -0.2806 -0.4356  0.3605
  430TIP3    H122925   2.269   5.146   7.545 -1.2439 -0.3508  1.1877
  430TIP3    H222926   2.248   5.045   7.435 -0.9280  0.5672  0.2668
  431TIP3   OH222927   6.460   4.527   3.117  0.0219 -0.3299 -0.2126
  431TIP3    H122928   6.374   4.562   3.139  0.3062  0.5126 -0.4015
  431TIP3    H222929   6.486   4.574   3.038  1.2205  0.4144  0.5903
  432TIP3   OH222930   5.737   0.971   0.773  0.4248  0.5805  0.3730
  432TIP3    H122931   5.830   0.968   0.796 -0.1519 -0.9980  2.7895
  432TIP3    H222932   5.717   0.881   0.746 -0.5153  0.7844  0.3844
  433TIP3   OH222933   0.030   0.179   0.545 -0.3298  0.0578  0.4896
  433TIP3    H122934  -0.065   0.172   0.556 -0.6132  2.2303 -0.1825
  433TIP3    H222935   0.057   0.248   0.605  0.2723  1.7797 -1.6293
  434TIP3   OH222936   6.313   1.981   8.080  0.1735 -0.1847  0.4320
  434TIP3    H122937   6.235   2.002   8.131  0.1343 -1.9903  1.2080
  434TIP3    H222938   6.302   1.889   8.057  2.0830 -0.4907  0.5886
  435TIP3   OH222939   1.027   1.123   8.233 -0.0934  0.1014 -0.5736
  435TIP3    H122940   1.049   1.156   8.147  1.8067 -0.9749 -0.5512
  435TIP3    H222941   1.108   1.129   8.283 -0.4289 -1.7903  0.2959
  436TIP3   OH222942   6.563   1.092   7.042 -0.3360  0.0799 -0.2535
  436TIP3    H122943   6.498   1.035   7.083 -0.1197  0.2749  0.3764
  436TIP3    H222944   6.641   1.037   7.034 -0.6278 -0.2202 -1.2067
  437TIP3   OH222945   1.634   5.235   1.594  0.8729  0.1755 -0.3765
  437TIP3    H122946   1.557   5.280   1.558  1.0828  1.7681  1.0560
  437TIP3    H222947   1.709   5.286   1.564  1.1876  0.2219  0.4474
  438TIP3   OH222948   0.051   1.612   1.263  0.4152 -0.4995 -0.8004
  438TIP3    H122949   0.044   1.676   1.193 -0.4119  0.3428  0.0264
  438TIP3    H222950  -0.032   1.619   1.311  0.4225 -1.9818 -0.5180
  439TIP3   OH222951   1.597   5.426   6.843 -0.2041 -0.1726 -0.1668
  439TIP3    H122952   1.608   5.500   6.902 -0.1622  0.2671 -0.7139
  439TIP3    H222953   1.520   5.380   6.876 -0.4551  0.3296 -0.0398
  440TIP3   OH222954   2.271   1.742   3.009 -0.2996 -0.0229 -0.0849
  440TIP3    H122955   2.234   1.733   2.921  0.4808 -0.3841 -0.3861
  440TIP3    H222956   2.365   1.733   2.996 -0.2478 -1.1419  0.9241
  441TIP3   OH222957   4.720   5.358   1.164 -0.3799  0.5686 -0.4675
  441TIP3    H122958   4.712   5.418   1.090  0.7803  0.2461 -0.8919
  441TIP3    H222959   4.713   5.413   1.241  0.9033  1.3242 -0.8459
  442TIP3   OH222960   4.745   2.201   2.831  0.0696  0.3832 -0.7133
  442TIP3    H122961   4.673   2.191   2.768  0.8808 -1.2493 -1.4390
  442TIP3    H222962   4.817   2.152   2.793  2.3602  3.7224 -1.0870
  443TIP3   OH222963   6.467   2.925   2.501  0.4537  0.2722  0.6554
  443TIP3    H122964   6.474   2.912   2.595  2.8405  3.1515  1.0279
  443TIP3    H222965   6.520   3.003   2.483 -0.4946  0.2835 -2.9860
  444TIP3   OH222966   1.585   4.111   7.930 -0.5900  0.4696  0.2651
  444TIP3    H122967   1.655   4.116   7.866  0.7813 -1.6523  1.4873
  444TIP3    H222968   1.505   4.105   7.878  0.1196  2.3428 -1.1653
  445TIP3   OH222969   6.239   2.688   0.126  0.3051  0.2114 -0.0927
  445TIP3    H122970   6.246   2.762   0.186 -0.9611  1.1064 -1.0007
  445TIP3    H222971   6.150   2.655   0.138  0.8817 -1.2609  0.3772
  446TIP3   OH222972   1.221   0.728   3.360 -0.2486 -0.1592 -0.1404
  446TIP3    H122973   1.300   0.749   3.409  0.8716 -1.2449 -1.4304
  446TIP3    H222974   1.153   0.783   3.400  1.7860  3.3714 -1.1452
  447TIP3   OH222975   5.759   4.312   0.644  0.6483 -0.1953 -0.3719
  447TIP3    H122976   5.749   4.249   0.573  0.1579 -0.3779 -0.1471
  447TIP3    H222977   5.839   4.359   0.623  0.9667 -0.8271 -0.5942
  448TIP3   OH222978   2.998   3.357   3.109  0.0316 -0.2571 -0.0710
  448TIP3    H122979   3.010   3.445   3.144 -2.6544 -0.6391  2.2087
  448TIP3    H222980   3.085   3.318   3.109  1.2373  2.2537 -0.8657
  449TIP3   OH222981   4.999   5.265   2.020  0.3675 -0.1288  0.1492
  449TIP3    H122982   4.963   5.218   1.944  0.0056  1.2922 -0.5882
  449TIP3    H222983   5.065   5.205   2.056 -0.3022 -1.3248 -0.5643
  450TIP3   OH222984   6.741   0.550   7.673 -0.0061  0.1444 -0.6774
  450TIP3    H122985   6.825   0.554   7.718 -0.6436  1.5815  0.4831
  450TIP3    H222986   6.681   0.599   7.730 -1.8474 -1.5751 -1.0312
  451TIP3   OH222987   3.282   1.403   2.395  0.3533  0.2472  0.2559
  451TIP3    H122988   3.254   1.312   2.400  0.0831  0.2265 -1.2351
  451TIP3    H222989   3.273   1.436   2.484 -0.8944 -0.7897  0.5399
  452TIP3   OH222990   6.482   6.383   1.508 -0.3443  0.0362  0.1119
  452TIP3    H122991   6.419   6.369   1.438  0.0538  1.3688 -0.5398
  452TIP3    H222992   6.567   6.387   1.464 -0.1300  1.2645  0.6175
  453TIP3   OH222993   4.340   1.695   8.411 -0.3292  0.7653  0.3335
  453TIP3    H122994   4.435   1.707   8.408 -0.1051 -0.5707  1.2611
  453TIP3    H222995   4.322   1.670   8.502 -1.4456  0.0329 -0.0695
  454TIP3   OH222996   3.144   3.522   0.544 -0.6628 -0.6654 -0.0637
  454TIP3    H122997   3.050   3.535   0.549 -0.6023 -0.4558  0.5979
  454TIP3    H222998   3.177   3.601   0.502 -0.8057 -0.8689 -0.5721
  455TIP3   OH222999   0.780   6.630   2.014 -0.0970  0.4518 -0.4231
  455TIP3    H123000   0.776   6.724   2.035 -0.5562  0.4626 -0.5480
  455TIP3    H223001   0.712   6.618   1.947  0.2216  0.1014 -0.6851
  456TIP3   OH223002   4.709   2.392   1.743 -0.0798  0.3862 -0.0461
  456TIP3    H123003   4.728   2.465   1.683 -0.3640  0.2706 -0.2779
  456TIP3    H223004   4.727   2.428   1.830  0.7644  0.4165 -0.2256
  457TIP3   OH223005   4.671   3.299   1.072  0.3053  0.0754  0.1773
  457TIP3    H123006   4.638   3.272   0.986  1.7599  0.1436 -0.4218
  457TIP3    H223007   4.680   3.218   1.121 -1.4967  0.1233  0.6488
  458TIP3   OH223008   6.585   5.407   7.240 -0.2442 -0.0711 -0.0056
  458TIP3    H123009   6.550   5.365   7.161  0.3694 -1.1680  0.2928
  458TIP3    H223010   6.635   5.338   7.284  1.9991  1.3070 -0.2298
  459TIP3   OH223011   5.881   5.297   7.508 -0.3261  0.0414 -0.2675
  459TIP3    H123012   5.878   5.390   7.531 -0.5893 -0.2565  0.9745
  459TIP3    H223013   5.813   5.257   7.562 -0.3654 -0.8488 -0.9492
  460TIP3   OH223014   4.120   2.005   2.588 -0.0823  0.1878  0.8598
  460TIP3    H123015   4.211   2.018   2.563  1.1307 -1.4595  3.9294
  460TIP3    H223016   4.084   1.948   2.519  1.6511 -0.3449  0.3412
  461TIP3   OH223017   0.623   0.875   8.309 -0.0449 -0.1098 -0.1458
  461TIP3    H123018   0.672   0.940   8.258 -1.3676 -0.0807 -1.4328
  461TIP3    H223019   0.662   0.791   8.285  0.3608  0.0327  0.0041
  462TIP3   OH223020   3.307   6.365   2.446 -0.0103  0.3883 -0.4190
  462TIP3    H123021   3.381   6.388   2.389  0.4527 -0.6103 -0.2334
  462TIP3    H223022   3.318   6.421   2.523 -0.8531  2.0323 -1.4303
  463TIP3   OH223023   0.328   1.786   1.419 -1.1113 -0.4969  0.6563
  463TIP3    H123024   0.421   1.776   1.400 -1.2893 -1.2297  0.1129
  463TIP3    H223025   0.293   1.833   1.343 -0.7849  1.9820  1.9419
  464TIP3   OH223026   0.577   6.734   0.571  0.6138 -0.0155  0.5639
  464TIP3    H123027   0.571   6.826   0.595  0.9727  0.5314 -1.2661
  464TIP3    H223028   0.526   6.727   0.490  0.9001 -1.3442  0.4717
  465TIP3   OH223029   4.363   0.384   3.141  0.1603  0.1678 -0.0071
  465TIP3    H123030   4.379   0.478   3.144  1.4655 -0.0577  0.6972
  465TIP3    H223031   4.450   0.344   3.142 -0.3777 -1.0872  1.2598
  466TIP3   OH223032   3.938   2.579   8.312 -0.0670  0.2708 -0.2267
  466TIP3    H123033   3.855   2.626   8.307 -0.1166  0.1851 -0.2117
  466TIP3    H223034   3.959   2.558   8.221 -0.4162 -0.3230 -0.1797
  467TIP3   OH223035   3.049   6.324   1.183  0.0379 -0.1241 -0.4054
  467TIP3    H123036   2.967   6.354   1.142 -0.2278 -0.0915  0.1427
  467TIP3    H223037   3.118   6.372   1.137 -0.1711 -0.9115 -1.5810
  468TIP3   OH223038   2.327   4.077   0.518 -0.1388  0.1632 -0.2010
  468TIP3    H123039   2.302   4.054   0.608 -1.3379  3.1058  0.3653
  468TIP3    H223040   2.247   4.063   0.467  0.5277 -1.4573 -0.8625
  469TIP3   OH223041   0.547   0.239   6.510  0.3550  0.8502  0.1410
  469TIP3    H123042   0.590   0.154   6.519  1.0138  1.0573 -0.8977
  469TIP3    H223043   0.487   0.228   6.436 -1.1681  0.6703  1.3459
  470TIP3   OH223044   3.732   3.935   7.246 -0.2421  0.1997 -0.5443
  470TIP3    H123045   3.708   4.022   7.213  0.7576  0.5480 -0.3887
  470TIP3    H223046   3.662   3.913   7.307 -0.3152  1.0710 -0.2899
  471TIP3   OH223047   2.189   5.369   8.472 -0.3554 -0.3381 -0.2306
  471TIP3    H123048   2.192   5.394   8.565 -1.1169 -1.5495  0.1351
  471TIP3    H223049   2.097   5.375   8.449 -0.2263 -0.4843 -0.7844
  472TIP3   OH223050   0.231   4.097   0.573  0.1948 -0.0391  0.0259
  472TIP3    H123051   0.202   4.036   0.505 -0.3955  0.5656 -0.2646
  472TIP3    H223052   0.311   4.056   0.608 -1.2476 -2.0404  1.2325
  473TIP3   OH223053   3.580   2.066   8.170  0.2031  0.2859 -0.2570
  473TIP3    H123054   3.522   2.025   8.106  0.0306  0.1806 -0.0338
  473TIP3    H223055   3.522   2.097   8.239  0.5882 -1.8803  1.1109
  474TIP3   OH223056   2.666   0.076   0.418  0.1138  0.7746 -0.4610
  474TIP3    H123057   2.716   0.029   0.351  0.5037 -0.6730  0.7904
  474TIP3    H223058   2.614   0.140   0.370 -0.6202 -1.0947 -2.2688
  475TIP3   OH223059   6.029   2.456   8.195 -0.5511  0.5190  0.4958
  475TIP3    H123060   6.063   2.526   8.250  1.5019  0.5374 -0.6962
  475TIP3    H223061   6.018   2.382   8.255  2.4856  0.2612  0.8956
  476TIP3   OH223062   0.173   3.395   7.342 -0.3950 -0.2300 -0.1267
  476TIP3    H123063   0.190   3.304   7.366 -0.0360 -0.5201 -1.3970
  476TIP3    H223064   0.191   3.398   7.248 -3.5975  0.3585 -0.8376
  477TIP3   OH223065   2.120   5.133   0.497 -0.2508 -0.2903 -0.2077
  477TIP3    H123066   2.126   5.042   0.526  0.8065 -0.6080 -1.3431
  477TIP3    H223067   2.179   5.139   0.422  0.7466  1.6665  0.6508
  478TIP3   OH223068   6.785   5.411   7.637 -0.1222 -0.0001  0.0443
  478TIP3    H123069   6.769   5.358   7.559  1.7121  0.8056 -0.9307
  478TIP3    H223070   6.712   5.390   7.695 -2.0511  0.0150 -2.2121
  479TIP3   OH223071   4.578   6.116   0.575 -0.1295 -0.7383  0.1799
  479TIP3    H123072   4.541   6.083   0.657  2.2299 -1.4048  1.0773
  479TIP3    H223073   4.642   6.049   0.549 -0.3960 -0.2594 -1.9161
  480TIP3   OH223074   5.697   4.038   0.118  0.2016  0.0080  0.6726
  480TIP3    H123075   5.689   4.108   0.052  1.9532 -0.1727  0.2133
  480TIP3    H223076   5.791   4.029   0.131 -0.0382 -1.5893  1.4818
  481TIP3   OH223077   5.455   3.455   0.982  0.3164  0.0260 -0.0213
  481TIP3    H123078   5.443   3.417   1.069  2.4360  0.8139  0.6652
  481TIP3    H223079   5.408   3.395   0.924 -3.5631  0.9348  1.8323
  482TIP3   OH223080   2.883   2.874   0.109  0.2295 -0.4543  0.6613
  482TIP3    H123081   2.891   2.852   0.016  0.9582  1.9650  0.0939
  482TIP3    H223082   2.826   2.950   0.111 -0.4443 -0.9616  2.3093
  483TIP3   OH223083   2.670   1.175   0.843 -0.2295  0.7380  0.6860
  483TIP3    H123084   2.602   1.234   0.810 -1.1755 -0.2501  0.8197
  483TIP3    H223085   2.622   1.109   0.893  0.8169 -0.0688  0.6478
  484TIP3   OH223086   1.880   4.736   2.414  0.6950 -0.6647  0.3016
  484TIP3    H123087   1.898   4.682   2.338 -0.1768 -0.6430  0.0715
  484TIP3    H223088   1.864   4.824   2.379  0.7418 -0.5540  0.5498
  485TIP3   OH223089   0.059   3.624   0.506 -0.0992  0.3351  0.1405
  485TIP3    H123090   0.075   3.705   0.458  1.4689  0.5330  0.9461
  485TIP3    H223091  -0.028   3.636   0.545 -0.0055  1.5011  0.0099
  486TIP3   OH223092   3.894   0.466   0.965 -0.4457 -0.2478 -0.2729
  486TIP3    H123093   3.972   0.492   1.015 -1.3167 -1.5333  1.8767
  486TIP3    H223094   3.836   0.425   1.030 -1.5367 -2.3024 -2.3950
  487TIP3   OH223095   0.846   3.911   7.499  0.3308 -0.6092  0.2598
  487TIP3    H123096   0.815   3.941   7.414  0.6343 -0.8193  0.0712
  487TIP3    H223097   0.790   3.956   7.563 -1.0607 -1.7700 -0.0926
  488TIP3   OH223098   4.578   3.463   0.109 -0.2513 -0.5213  0.1304
  488TIP3    H123099   4.514   3.480   0.178 -0.6150  1.0356 -0.5439
  488TIP3    H223100   4.611   3.550   0.086  0.4208 -1.0915 -1.1273
  489TIP3   OH223101   3.400   2.716   8.480  0.1757 -0.1201 -0.4404
  489TIP3    H123102   3.406   2.773   8.557 -0.9606  1.2571 -1.3031
  489TIP3    H223103   3.457   2.643   8.500 -0.2669  0.0590  1.8169
  490TIP3   OH223104   5.639   6.235   0.793  0.2611 -0.3909 -0.4895
  490TIP3    H123105   5.667   6.144   0.790 -0.9182 -0.7608 -1.0076
  490TIP3    H223106   5.646   6.265   0.702  0.2606 -0.0867 -0.3906
  491TIP3   OH223107   2.674   6.532   0.120 -0.2580 -0.0781  0.0462
  491TIP3    H123108   2.628   6.590   0.180 -0.7337 -1.3652  0.9638
  491TIP3    H223109   2.609   6.510   0.053  0.0008  0.6143 -0.4546
  492TIP3   OH223110   4.507   5.454   2.422 -0.2285  0.2911 -0.1649
  492TIP3    H123111   4.445   5.503   2.476  1.5769  1.3992  1.0327
  492TIP3    H223112   4.459   5.376   2.395 -2.0555  0.9827  0.8662
  493TIP3   OH223113   0.170   3.932   7.639  0.1221 -0.8466 -0.4297
  493TIP3    H123114   0.226   3.896   7.570  1.3267 -1.9312  1.0501
  493TIP3    H223115   0.170   4.026   7.623  1.8485 -0.8889 -0.8639
  494TIP3   OH223116   4.324   2.148   1.325  0.3372 -0.3105  0.3338
  494TIP3    H123117   4.420   2.149   1.331  0.3865 -0.7890 -0.2701
  494TIP3    H223118   4.304   2.217   1.261  0.2644 -0.0798  0.6042
  495TIP3   OH223119   2.046   0.609   2.750 -0.1256  0.1588  0.1487
  495TIP3    H123120   2.113   0.660   2.795 -1.1219 -0.3096  2.2739
  495TIP3    H223121   2.058   0.631   2.657  0.3805  3.1495  0.8208
  496TIP3   OH223122   6.259   4.768   2.210  0.3796 -0.4287  0.3899
  496TIP3    H123123   6.180   4.804   2.250 -0.7657  1.0490 -2.7891
  496TIP3    H223124   6.262   4.677   2.237 -1.2670 -0.0058  2.1794
  497TIP3   OH223125   4.510   6.149   0.080  0.1298 -0.2320  0.1340
  497TIP3    H123126   4.439   6.206   0.110  0.4785  0.7020 -0.7748
  497TIP3    H223127   4.503   6.149  -0.015  1.0873 -0.4714  0.0507
  498TIP3   OH223128   4.570   6.298   3.275  0.5494  0.2351 -0.4130
  498TIP3    H123129   4.598   6.388   3.258  2.1736 -0.4772 -1.7616
  498TIP3    H223130   4.486   6.290   3.229 -0.4992  1.5220  1.1617
  499TIP3   OH223131   2.258   3.639   8.044  0.2632  0.3019 -0.2067
  499TIP3    H123132   2.199   3.655   8.118  0.4569 -0.2634  0.0736
  499TIP3    H223133   2.209   3.582   7.985  0.0842  0.8062 -0.5501
  500TIP3   OH223134   5.323   0.026   1.484 -0.2119 -0.2299 -0.1068
  500TIP3    H123135   5.245   0.003   1.534  0.2918  0.5091  1.0420
  500TIP3    H223136   5.289   0.054   1.399 -1.0247 -2.0966 -0.4379
  501TIP3   OH223137   6.734   4.389   8.125  0.1600 -0.2191  0.3085
  501TIP3    H123138   6.695   4.442   8.056  1.3576  1.5685  0.9102
  501TIP3    H223139   6.714   4.298   8.101 -1.2576  0.4484 -1.2215
  502TIP3   OH223140   3.246   0.834   1.168 -0.2458 -0.0067 -0.0578
  502TIP3    H123141   3.290   0.898   1.223  0.1568 -0.0357 -0.3454
  502TIP3    H223142   3.236   0.757   1.225 -0.3649  0.1669  0.1585
  503TIP3   OH223143   0.512   6.569   2.181  0.2228  0.0766 -0.1211
  503TIP3    H123144   0.434   6.617   2.208  1.2729  0.6215  2.1881
  503TIP3    H223145   0.510   6.488   2.233  0.7871 -0.2734 -0.6247
  504TIP3   OH223146   3.546   1.542   7.525 -0.1020  0.3674 -0.0088
  504TIP3    H123147   3.591   1.494   7.594  0.6646  1.0942  0.0111
  504TIP3    H223148   3.574   1.632   7.535  1.1752  0.2845 -2.1283
  505TIP3   OH223149   0.056   5.144   1.565 -0.0666 -0.0266 -0.0706
  505TIP3    H123150   0.103   5.077   1.614 -2.4101 -1.5989  0.1851
  505TIP3    H223151   0.064   5.223   1.617  3.2204  0.1480 -0.6341
  506TIP3   OH223152   5.284   4.910   2.257  0.2825 -0.0750 -0.1174
  506TIP3    H123153   5.196   4.915   2.294  0.3692 -0.2896  0.1169
  506TIP3    H223154   5.327   4.991   2.287  0.3785 -0.2847  0.3245
  507TIP3   OH223155   0.061   1.649   6.831  0.0989  0.3200 -0.1875
  507TIP3    H123156   0.147   1.683   6.805 -0.2548 -1.2407 -3.9056
  507TIP3    H223157   0.080   1.565   6.873  0.4589  0.6562  0.3290
  508TIP3   OH223158   0.018   6.850   7.320  0.0581 -0.4959 -0.1963
  508TIP3    H123159   0.007   6.762   7.356  1.5491 -1.1684 -1.2781
  508TIP3    H223160  -0.035   6.851   7.241  0.4910 -0.6361 -0.4945
  509TIP3   OH223161   2.345   3.827   0.723 -0.5408 -0.2416 -0.2126
  509TIP3    H123162   2.416   3.891   0.713 -1.7251  1.5526  2.0702
  509TIP3    H223163   2.350   3.800   0.814 -2.5787 -0.3225 -0.0872
  510TIP3   OH223164   3.835   4.689   8.205  0.1823 -0.3240 -0.0474
  510TIP3    H123165   3.881   4.623   8.257  1.4791  0.3349 -0.3095
  510TIP3    H223166   3.847   4.771   8.254  0.1059  0.0237 -0.5978
  511TIP3   OH223167   1.329   6.432   0.373  0.3325  0.1253  0.4683
  511TIP3    H123168   1.348   6.365   0.308  0.7439  1.6805 -1.0969
  511TIP3    H223169   1.265   6.392   0.432  2.4483 -2.5153  1.1585
  512TIP3   OH223170   0.142   6.347   1.515  0.3638 -0.5913 -0.6552
  512TIP3    H123171   0.223   6.300   1.495  1.1121 -0.3603  1.5793
  512TIP3    H223172   0.135   6.343   1.610  0.6770  3.9979 -0.2027
  513TIP3   OH223173   5.484   2.530   2.217  0.1683  0.2266 -0.1894
  513TIP3    H123174   5.446   2.617   2.203  0.5276  0.1196 -2.1347
  513TIP3    H223175   5.421   2.470   2.176 -0.0320 -0.4369  1.0505
  514TIP3   OH223176   6.594   3.021   1.152 -0.9353 -0.0097  0.4397
  514TIP3    H123177   6.522   3.048   1.095 -0.4907  2.0687  0.7680
  514TIP3    H223178   6.553   3.010   1.238 -1.0030  0.4286  0.4660
  515TIP3   OH223179   1.642   5.977   1.838  0.0617  0.1423 -0.2618
  515TIP3    H123180   1.599   6.051   1.880 -0.9223  0.3068 -1.4762
  515TIP3    H223181   1.668   5.920   1.910  3.3307  2.8519  0.9835
  516TIP3   OH223182   4.191   6.147   7.169  0.0824 -0.6564 -0.2985
  516TIP3    H123183   4.240   6.191   7.099 -2.4137  1.8239 -0.6834
  516TIP3    H223184   4.109   6.120   7.128 -1.3213  0.6026  1.5247
  517TIP3   OH223185   6.419   2.767   0.397 -0.1826 -0.8564 -0.2367
  517TIP3    H123186   6.361   2.760   0.473  0.8698 -1.1985  0.5574
  517TIP3    H223187   6.435   2.677   0.370  0.6589 -0.8142  0.0919
  518TIP3   OH223188   3.085   4.051   0.485  0.1949 -0.5021 -0.6415
  518TIP3    H123189   3.069   4.139   0.451  0.1254 -0.4481 -0.4694
  518TIP3    H223190   3.165   4.060   0.537 -1.0233 -0.0294  1.2622
  519TIP3   OH223191   2.484   6.234   7.976  0.3087  0.2291 -0.5274
  519TIP3    H123192   2.529   6.160   8.016 -0.3514  0.3378  0.4321
  519TIP3    H223193   2.443   6.197   7.898 -0.6328 -0.5986  0.3343
  520TIP3   OH223194   6.692   2.534   0.904  0.0064 -0.7444  0.3336
  520TIP3    H123195   6.655   2.564   0.987  2.8651 -0.4804  1.6221
  520TIP3    H223196   6.644   2.454   0.884 -0.4289 -1.1010  2.5361
  521TIP3   OH223197   1.496   5.714   0.783  0.4867  0.0483 -0.5912
  521TIP3    H123198   1.523   5.659   0.856  0.2548  0.6292 -0.0549
  521TIP3    H223199   1.422   5.667   0.744 -0.4436  0.4776  0.5543
  522TIP3   OH223200   3.757   1.377   7.336 -0.2418  0.1990  0.1979
  522TIP3    H123201   3.682   1.378   7.396 -2.3830  1.7699 -2.2588
  522TIP3    H223202   3.727   1.325   7.262  2.6029 -2.3406  0.6577
  523TIP3   OH223203   2.158   0.285   1.741  0.0767 -0.4384 -0.7601
  523TIP3    H123204   2.160   0.346   1.814  1.1555 -1.6155  0.2422
  523TIP3    H223205   2.116   0.334   1.670 -2.3875  0.3006  1.0310
  524TIP3   OH223206   5.080   6.923   0.263 -1.0227  0.6784 -0.4897
  524TIP3    H123207   5.078   6.833   0.232 -1.2885  0.1288  1.0729
  524TIP3    H223208   4.989   6.951   0.262 -1.1441  0.3621  0.5836
  525TIP3   OH223209   5.050   0.848   6.861  0.1872  0.6423 -0.3356
  525TIP3    H123210   4.995   0.901   6.918 -0.7703 -0.4515 -0.2114
  525TIP3    H223211   5.133   0.895   6.858  0.8499 -0.0352  3.2431
  526TIP3   OH223212   3.606   6.030   0.854  0.2035 -0.0119 -0.4335
  526TIP3    H123213   3.659   6.017   0.933 -1.2129  2.8480  1.1566
  526TIP3    H223214   3.560   5.947   0.841  3.4342 -1.8929 -0.7141
  527TIP3   OH223215   2.035   6.322   0.992 -0.1351 -0.2093  0.3661
  527TIP3    H123216   2.071   6.305   0.905  2.2646 -0.4902  1.3332
  527TIP3    H223217   2.004   6.413   0.987  0.5537 -0.0022 -0.6104
  528TIP3   OH223218   5.295   1.332   0.284  0.3364  0.0490 -0.2309
  528TIP3    H123219   5.306   1.337   0.189 -1.5992 -0.1697 -0.4965
  528TIP3    H223220   5.251   1.249   0.299  2.0964 -0.7034  1.0533
  529TIP3   OH223221   2.159   2.214   8.001  0.0386  0.2381 -0.3507
  529TIP3    H123222   2.209   2.146   8.047 -1.8278 -0.4856  0.7270
  529TIP3    H223223   2.159   2.288   8.061  0.8038  0.6894 -0.8845
  530TIP3   OH223224   1.826   0.698   0.693  0.2848  0.1192  0.0126
  530TIP3    H123225   1.817   0.702   0.598 -0.6077  0.1171  0.0848
  530TIP3    H223226   1.900   0.640   0.708  0.9346  0.7491 -0.6911
  531TIP3   OH223227   6.411   5.262   0.049 -0.5218 -0.4417 -0.2958
  531TIP3    H123228   6.320   5.257   0.076 -0.4992 -0.9340 -0.2999
  531TIP3    H223229   6.407   5.286  -0.044 -0.6527 -0.5341 -0.3149
  532TIP3   OH223230   6.773   6.911   7.583 -0.1421 -0.3664 -0.3747
  532TIP3    H123231   6.783   6.896   7.489 -0.7579  0.0972 -0.5214
  532TIP3    H223232   6.852   6.958   7.608 -0.0143 -0.4145 -0.6819
  533TIP3   OH223233   1.216   3.535   8.384 -0.2606 -0.0824 -0.2348
  533TIP3    H123234   1.238   3.481   8.308  0.9212  1.6454 -1.2042
  533TIP3    H223235   1.291   3.526   8.442  1.0104  2.0905 -1.3871
  534TIP3   OH223236   3.420   1.575   7.978  0.4361 -0.5560  0.2076
  534TIP3    H123237   3.457   1.642   7.920  0.5488 -0.1067  0.7855
  534TIP3    H223238   3.496   1.530   8.015  0.3568 -1.0783 -0.2671
  535TIP3   OH223239   6.236   3.722   2.527 -0.2297  0.2841  0.4579
  535TIP3    H123240   6.257   3.812   2.504  0.7801  0.4662  1.9300
  535TIP3    H223241   6.250   3.718   2.622  0.7755 -1.6570  0.2823
  536TIP3   OH223242   5.710   3.639   2.188  0.2963 -1.0677 -0.0162
  536TIP3    H123243   5.768   3.578   2.233  1.4015  0.0866  0.1780
  536TIP3    H223244   5.748   3.647   2.100 -1.0784 -2.2789 -0.7602
  537TIP3   OH223245   4.484   3.349   8.346  0.8149  0.1371  0.0016
  537TIP3    H123246   4.394   3.368   8.371  0.5657  0.7882 -1.2943
  537TIP3    H223247   4.508   3.272   8.398  0.0644  0.8883  1.5231
  538TIP3   OH223248   4.913   4.063   1.951  0.1820  0.1250  0.2581
  538TIP3    H123249   4.991   4.038   2.000 -0.1193  0.0816  0.7209
  538TIP3    H223250   4.939   4.057   1.859  0.8990  0.6766  0.4153
  539TIP3   OH223251   4.822   6.410   8.223 -0.4087  0.1855 -0.5415
  539TIP3    H123252   4.761   6.454   8.283 -0.5596 -1.0949  0.2977
  539TIP3    H223253   4.864   6.343   8.278  0.5023 -0.0723 -1.5348
  540TIP3   OH223254   6.902   3.572   1.491 -0.0578 -0.4304 -0.0213
  540TIP3    H123255   6.990   3.562   1.454 -0.0421 -0.8569  0.1164
  540TIP3    H223256   6.844   3.569   1.415  0.2216  3.8881 -0.6156
  541TIP3   OH223257   5.872   1.293   8.410  0.4515 -0.3913  0.1224
  541TIP3    H123258   5.958   1.298   8.451  1.1428  0.7239 -1.3606
  541TIP3    H223259   5.811   1.312   8.481  1.6105  1.7231  0.6420
  542TIP3   OH223260   4.300   5.403   2.070 -0.4290 -0.1507  0.5147
  542TIP3    H123261   4.379   5.456   2.080 -0.6765  0.1990  0.6408
  542TIP3    H223262   4.331   5.312   2.074  0.1549 -0.0366 -0.8488
  543TIP3   OH223263   2.587   4.494   7.187  0.1366 -0.1986 -0.1268
  543TIP3    H123264   2.579   4.478   7.093  3.5477  0.0959 -0.5747
  543TIP3    H223265   2.526   4.566   7.205 -1.9049 -1.4338 -1.6684
  544TIP3   OH223266   1.031   2.178   0.997 -0.9279  0.3075  0.4508
  544TIP3    H123267   1.067   2.228   1.070 -0.7121 -0.5518  0.9403
  544TIP3    H223268   0.955   2.228   0.969 -0.5471  1.0617  0.7382
  545TIP3   OH223269   0.093   3.131   8.389  0.6087 -0.5326 -0.7296
  545TIP3    H123270   0.164   3.195   8.388 -0.0752  0.2813  0.4329
  545TIP3    H223271   0.079   3.110   8.297  2.1954 -0.5428 -0.9930
  546TIP3   OH223272   6.095   1.312   7.382 -0.1778 -0.0826 -0.0445
  546TIP3    H123273   6.052   1.397   7.370 -0.9196  0.0399  2.8287
  546TIP3    H223274   6.185   1.326   7.352 -0.4505  1.5180 -0.1748
  547TIP3   OH223275   2.369   4.960   7.828  0.2192 -0.3482 -0.0551
  547TIP3    H123276   2.298   5.009   7.786  0.6904  0.2692 -0.1390
  547TIP3    H223277   2.449   4.996   7.790  0.5473 -2.6560 -1.7467
  548TIP3   OH223278   1.932   5.535   0.608 -0.1984 -0.5194  0.4130
  548TIP3    H123279   1.981   5.457   0.637  0.3085 -0.2707  0.2293
  548TIP3    H223280   1.999   5.592   0.570 -0.8100 -0.7301 -1.0208
  549TIP3   OH223281   1.298   2.836   0.049  0.3777  0.1433  0.9530
  549TIP3    H123282   1.380   2.882   0.067 -0.4614  1.2408  2.1960
  549TIP3    H223283   1.279   2.788   0.131 -0.6349  0.5945  1.0032
  550TIP3   OH223284   3.076   4.854   8.052 -0.4927  0.1981  0.2349
  550TIP3    H123285   3.018   4.806   7.993 -1.0592 -1.5135  2.0666
  550TIP3    H223286   3.022   4.874   8.128  0.6065  1.0130  0.8389
  551TIP3   OH223287   3.800   0.987   2.148 -0.1783  0.4591 -0.6475
  551TIP3    H123288   3.793   0.996   2.243  0.1870  0.3806 -0.6120
  551TIP3    H223289   3.720   1.026   2.114 -0.0712  0.9541 -0.3315
  552TIP3   OH223290   4.134   3.893   7.854  0.0827  0.0213 -0.0820
  552TIP3    H123291   4.121   3.889   7.760  0.6076 -0.0838 -0.1513
  552TIP3    H223292   4.221   3.931   7.865  0.5722 -1.1830  0.3392
  553TIP3   OH223293   5.522   6.428   1.995 -0.1218  0.1778  0.6337
  553TIP3    H123294   5.452   6.378   1.953 -0.2885  0.8522  0.0909
  553TIP3    H223295   5.602   6.381   1.973 -0.2739  0.1645  0.1037
  554TIP3   OH223296   0.171   0.232   2.602  0.3266 -0.2577  0.3172
  554TIP3    H123297   0.105   0.245   2.671 -1.7598  2.7114 -1.9617
  554TIP3    H223298   0.122   0.195   2.529  1.7612 -0.3615 -0.6275
  555TIP3   OH223299   0.776   4.173   0.571  1.0780 -0.0459  0.2723
  555TIP3    H123300   0.775   4.215   0.485  1.3364 -1.7306 -0.6033
  555TIP3    H223301   0.786   4.245   0.633 -0.3233  1.3347 -1.0154
  556TIP3   OH223302   2.129   3.687   7.290 -0.0606  0.1500 -0.2242
  556TIP3    H123303   2.214   3.710   7.327  0.0576 -1.3009  0.4568
  556TIP3    H223304   2.089   3.630   7.355 -1.2894  0.2772 -0.8378
  557TIP3   OH223305   2.198   0.923   2.721  0.5708 -0.1102 -0.3546
  557TIP3    H123306   2.179   1.015   2.740  0.0349 -0.1304 -0.7807
  557TIP3    H223307   2.184   0.878   2.804  0.2466  0.1068 -0.2901
  558TIP3   OH223308   1.855   5.416   1.498  0.1937  0.1845  0.6092
  558TIP3    H123309   1.813   5.422   1.412 -0.0851  0.6841  0.7747
  558TIP3    H223310   1.948   5.433   1.481  0.3816 -1.1824  0.2033
  559TIP3   OH223311   4.089   0.713   7.203 -0.2732 -0.2299  0.1154
  559TIP3    H123312   4.117   0.802   7.222  1.8084 -0.8012 -0.0384
  559TIP3    H223313   4.030   0.722   7.127  0.7856  0.9170 -0.5955
  560TIP3   OH223314   6.812   3.105   1.327  0.3074 -0.2696  0.0104
  560TIP3    H123315   6.809   3.040   1.398 -0.3403  1.6233  1.8225
  560TIP3    H223316   6.750   3.073   1.262 -0.1276 -1.3625  0.9392
  561TIP3   OH223317   5.208   3.813   1.183  0.1344  0.5185  0.3001
  561TIP3    H123318   5.303   3.825   1.173 -0.2186  1.5855 -2.6294
  561TIP3    H223319   5.170   3.886   1.135 -2.1887 -1.2800 -0.7438
  562TIP3   OH223320   0.781   0.349   8.290 -0.1471  0.0262 -0.0115
  562TIP3    H123321   0.738   0.287   8.348 -1.2144 -0.0633 -0.8638
  562TIP3    H223322   0.823   0.295   8.223  2.4273  0.0368  1.4753
  563TIP3   OH223323   1.278   2.578   7.772 -0.0514 -0.2186 -0.4980
  563TIP3    H123324   1.351   2.525   7.742  0.9886  1.8900 -1.9548
  563TIP3    H223325   1.231   2.602   7.693 -0.9884  0.2975  0.1942
  564TIP3   OH223326   0.358   5.809   1.548 -0.1597  0.2224  0.7846
  564TIP3    H123327   0.417   5.812   1.473 -0.1271 -1.8921  0.6721
  564TIP3    H223328   0.395   5.874   1.609  1.4519 -0.0292  0.1381
  565TIP3   OH223329   3.775   2.433   2.315  0.7085 -0.0238  0.3585
  565TIP3    H123330   3.770   2.513   2.368  2.2743  1.3319 -1.3974
  565TIP3    H223331   3.715   2.449   2.242  4.1065  1.5757 -2.3478
  566TIP3   OH223332   6.829   2.620   1.341 -0.2163 -0.1591 -0.5322
  566TIP3    H123333   6.786   2.535   1.331 -1.3671  0.5745 -2.3979
  566TIP3    H223334   6.875   2.634   1.258  1.3200  0.3499  0.3616
  567TIP3   OH223335   6.817   4.532   2.672 -0.5794 -0.4136 -0.1996
  567TIP3    H123336   6.849   4.584   2.597  0.1679  1.5406  1.3780
  567TIP3    H223337   6.724   4.554   2.677 -0.0243  1.9572  1.2321
  568TIP3   OH223338   0.186   6.147   7.697  0.0545  0.4256 -0.2856
  568TIP3    H123339   0.138   6.230   7.690  3.0015  2.2523 -0.4966
  568TIP3    H223340   0.163   6.099   7.618 -0.9014  1.5156 -0.6979
  569TIP3   OH223341   1.765   6.470   1.265  0.2237  0.0343  0.4466
  569TIP3    H123342   1.695   6.473   1.199  1.5771  0.4341 -1.0457
  569TIP3    H223343   1.776   6.376   1.283  0.1497 -0.1288 -0.2835
  570TIP3   OH223344   5.902   3.157   2.715  0.2132 -0.1455 -0.1794
  570TIP3    H123345   5.920   3.234   2.769  1.0108 -0.0349 -0.5894
  570TIP3    H223346   5.848   3.189   2.643  1.6635  0.3218 -1.0957
  571TIP3   OH223347   3.578   6.735   0.204 -0.2021 -0.0823 -0.3797
  571TIP3    H123348   3.668   6.741   0.174 -0.2493  0.7609 -0.3829
  571TIP3    H223349   3.582   6.681   0.283  0.4136  0.5381  0.0227
  572TIP3   OH223350   6.494   6.057   2.525 -0.0018  0.0609 -0.3519
  572TIP3    H123351   6.495   5.985   2.463 -1.8751  0.2222 -0.6265
  572TIP3    H223352   6.524   6.018   2.607  0.4000 -0.6742 -0.8391
  573TIP3   OH223353   4.668   4.318   0.023 -0.0238 -0.6572  0.1566
  573TIP3    H123354   4.732   4.260  -0.019 -0.4893 -0.5446 -0.7297
  573TIP3    H223355   4.717   4.398   0.040 -0.1111 -0.2854 -1.2379
  574TIP3   OH223356   5.345   2.684   8.069 -0.3960  0.3145  0.2369
  574TIP3    H123357   5.424   2.731   8.046 -1.4971  2.1042 -0.0476
  574TIP3    H223358   5.280   2.713   8.005 -1.0776 -1.8235 -0.1279
  575TIP3   OH223359   0.720   1.328   1.871 -0.4754 -0.7628 -0.8313
  575TIP3    H123360   0.740   1.308   1.779  1.0239  1.2631 -1.0206
  575TIP3    H223361   0.627   1.351   1.871 -1.0219 -2.7797 -1.4163
  576TIP3   OH223362   2.835   2.892   7.799 -0.2347  0.2201  0.7944
  576TIP3    H123363   2.918   2.861   7.835  0.5995  2.2869  0.7641
  576TIP3    H223364   2.860   2.943   7.722 -1.5570  0.6433  0.6212
  577TIP3   OH223365   1.523   1.766   7.789 -0.7084  0.4563  0.5660
  577TIP3    H123366   1.434   1.774   7.753 -0.6059  0.5331  0.3288
  577TIP3    H223367   1.550   1.856   7.805 -0.0991  0.5304 -0.7741
  578TIP3   OH223368   1.444   1.606   0.331  0.1136 -0.2825 -0.0135
  578TIP3    H123369   1.469   1.652   0.411  0.2745  0.2553 -0.3733
  578TIP3    H223370   1.471   1.663   0.260 -1.7120  0.1266 -0.4307
  579TIP3   OH223371   2.306   4.698   0.449  0.0482 -0.1891  0.2394
  579TIP3    H123372   2.299   4.703   0.354  0.5261 -2.4185  0.0467
  579TIP3    H223373   2.285   4.607   0.470 -0.0418  0.2671  2.2690
  580TIP3   OH223374   2.622   4.945   7.230  0.2023 -1.2117 -0.0295
  580TIP3    H123375   2.571   4.934   7.311 -1.9019  1.1965 -0.8930
  580TIP3    H223376   2.707   4.977   7.259 -0.4095 -0.6807  1.2536
  581TIP3   OH223377   6.172   3.053   2.802  0.0219  0.4284 -0.0762
  581TIP3    H123378   6.245   3.114   2.792  0.6898 -0.0518  1.4737
  581TIP3    H223379   6.093   3.105   2.786  0.6795  1.0274 -1.4459
  582TIP3   OH223380   3.786   4.951   8.336  0.1347  0.2147  0.0217
  582TIP3    H123381   3.730   4.944   8.414 -3.3670 -1.3476 -2.3636
  582TIP3    H223382   3.754   5.030   8.292  0.5715 -0.0827 -0.8458
  583TIP3   OH223383   6.662   6.672   0.449 -0.5946  1.0984 -0.1948
  583TIP3    H123384   6.646   6.719   0.531 -0.4175  0.3365  0.2844
  583TIP3    H223385   6.653   6.580   0.472 -0.4294  0.8697 -1.0147
  584TIP3   OH223386   0.391   5.895   7.730  0.2341 -0.2773 -0.1215
  584TIP3    H123387   0.361   5.829   7.667 -1.5666  1.0854 -0.7448
  584TIP3    H223388   0.314   5.948   7.748  1.1641  0.4683  1.9014
  585TIP3   OH223389   0.299   0.570   6.397  0.2210 -0.0100 -0.4195
  585TIP3    H123390   0.378   0.619   6.373 -1.2685  2.5146 -0.5760
  585TIP3    H223391   0.330   0.481   6.412  2.9778  0.7178 -1.1048
  586TIP3   OH223392   3.709   3.550   0.039  0.3918 -0.2795 -0.1484
  586TIP3    H123393   3.742   3.480  -0.017 -0.9355  0.0124 -1.3714
  586TIP3    H223394   3.744   3.630  -0.000  0.3619 -0.1451  0.0970
  587TIP3   OH223395   1.218   3.489   1.881  0.5074  0.1480  0.0991
  587TIP3    H123396   1.154   3.552   1.847  2.3900  1.8865 -0.4364
  587TIP3    H223397   1.182   3.403   1.859 -0.9210  1.0949 -1.4986
  588TIP3   OH223398   3.654   2.286   7.364 -0.4440  0.1390  0.3962
  588TIP3    H123399   3.731   2.269   7.310 -1.0880  0.1412 -0.5418
  588TIP3    H223400   3.589   2.222   7.334 -0.7616  0.0275  1.2927
  589TIP3   OH223401   2.534   0.247   8.140  0.0834 -0.0062  0.6149
  589TIP3    H123402   2.443   0.278   8.149  0.1663  0.5178 -0.2073
  589TIP3    H223403   2.528   0.152   8.151 -0.6453 -0.0349  0.0596
  590TIP3   OH223404   2.156   2.554   2.445  1.0137  0.5752 -0.1443
  590TIP3    H123405   2.075   2.549   2.495  0.3974 -0.0499 -1.1802
  590TIP3    H223406   2.211   2.616   2.494  0.5187 -0.1775  1.3976
  591TIP3   OH223407   5.971   5.554   6.742 -0.0150 -0.0268  0.1749
  591TIP3    H123408   6.001   5.642   6.718 -0.3031 -0.1361 -0.6397
  591TIP3    H223409   5.878   5.565   6.760 -0.0228 -0.1360  0.1998
  592TIP3   OH223410   5.340   6.839   8.584 -0.2122  0.2663 -0.3613
  592TIP3    H123411   5.326   6.805   8.672 -0.5557 -0.6980 -0.7808
  592TIP3    H223412   5.356   6.762   8.530  1.3494  0.9219 -0.9158
  593TIP3   OH223413   6.878   3.553   8.002  0.5785 -0.0616  0.1789
  593TIP3    H123414   6.913   3.615   8.067  1.3540  1.2733 -1.4501
  593TIP3    H223415   6.939   3.558   7.928 -2.0478  1.0448 -2.0750
  594TIP3   OH223416   6.430   1.531   1.614 -0.6898  0.1244 -0.0338
  594TIP3    H123417   6.396   1.445   1.635 -0.6230  0.4210  1.4355
  594TIP3    H223418   6.396   1.551   1.527  0.3839 -1.9201 -0.9754
  595TIP3   OH223419   2.755   5.709   0.110 -0.3184  0.4744  0.1210
  595TIP3    H123420   2.775   5.765   0.035 -0.0883 -1.0798 -1.0179
  595TIP3    H223421   2.661   5.691   0.102 -0.1870 -0.1218 -0.0993
  596TIP3   OH223422   6.649   6.818   1.280 -0.2002  0.2934 -0.1773
  596TIP3    H123423   6.563   6.822   1.236  0.5743 -0.7819 -1.9030
  596TIP3    H223424   6.708   6.786   1.212  1.4692  0.4490  1.1598
  597TIP3   OH223425   0.270   2.771   7.602  0.1876 -0.1093  0.5210
  597TIP3    H123426   0.352   2.770   7.651 -0.3061  1.1716  1.4369
  597TIP3    H223427   0.211   2.826   7.654 -0.7333  0.3615 -0.9307
  598TIP3   OH223428   5.328   0.483   8.351 -0.3412  0.3260  0.4519
  598TIP3    H123429   5.291   0.442   8.429 -0.9841  0.8532  0.4382
  598TIP3    H223430   5.417   0.449   8.345 -1.0803 -1.6476  0.0228
  599TIP3   OH223431   0.463   0.105   7.046 -0.4988 -0.0359  0.2883
  599TIP3    H123432   0.494   0.172   6.986 -1.5483 -0.0570 -0.2789
  599TIP3    H223433   0.538   0.045   7.054 -0.3234 -0.0156 -0.9598
  600TIP3   OH223434   0.654   5.463   7.706  0.1437 -0.0499  0.3005
  600TIP3    H123435   0.660   5.370   7.683 -1.1633 -0.7452  2.4957
  600TIP3    H223436   0.567   5.473   7.743  0.2622  2.0801  0.0883
  601TIP3   OH223437   2.128   5.671   0.120 -0.0571 -0.2876 -0.1444
  601TIP3    H123438   2.222   5.657   0.105  0.2687  1.1951  0.2952
  601TIP3    H223439   2.110   5.755   0.078 -1.7138 -1.5708 -2.1713
  602TIP3   OH223440   2.851   2.140   1.286  0.2359 -0.7760  0.7419
  602TIP3    H123441   2.897   2.124   1.203  0.3053  0.0477  0.6121
  602TIP3    H223442   2.760   2.118   1.267  0.1680 -0.1329  0.3014
  603TIP3   OH223443   4.167   3.552   0.228  0.1325 -0.3327  0.5425
  603TIP3    H123444   4.154   3.550   0.322  0.4254 -0.5566  0.5780
  603TIP3    H223445   4.259   3.576   0.217 -0.1885  0.9069  0.2974
  604TIP3   OH223446   2.031   4.567   8.130 -0.7066 -0.4608  0.6031
  604TIP3    H123447   2.103   4.512   8.098  0.0326  0.8841 -0.1509
  604TIP3    H223448   2.058   4.656   8.107 -3.0596  0.0245 -0.5574
  605TIP3   OH223449   2.924   6.801   7.956  0.1294  0.4754 -0.1889
  605TIP3    H123450   2.830   6.801   7.972  0.0709 -0.7144 -0.4710
  605TIP3    H223451   2.936   6.745   7.880  1.1819 -0.5162  0.6653
  606TIP3   OH223452   6.655   4.346   7.577 -0.3600 -0.1711  0.4478
  606TIP3    H123453   6.581   4.403   7.556  0.6807  1.5624  1.2203
  606TIP3    H223454   6.732   4.397   7.550  0.5756 -2.2012 -0.9917
  607TIP3   OH223455   6.337   1.519   6.476  0.1740 -0.6619 -0.0684
  607TIP3    H123456   6.417   1.519   6.530  0.2471  0.1315 -0.1623
  607TIP3    H223457   6.311   1.428   6.473 -0.3220 -0.6539  2.0450
  608TIP3   OH223458   4.662   0.347   0.662 -0.3193  0.1561 -0.0473
  608TIP3    H123459   4.664   0.393   0.747 -0.1656  1.3095 -0.6573
  608TIP3    H223460   4.693   0.412   0.599 -0.0242 -0.8236 -0.9386
  609TIP3   OH223461   0.285   6.558   6.861 -0.5600  0.8031  0.0732
  609TIP3    H123462   0.281   6.478   6.809 -2.1707  1.3233 -0.6689
  609TIP3    H223463   0.317   6.624   6.799  1.2901  0.6812  0.8198
  610TIP3   OH223464   2.854   4.176   1.585 -0.3422  0.0300 -0.1942
  610TIP3    H123465   2.801   4.254   1.599 -0.3905  0.0361 -0.4087
  610TIP3    H223466   2.891   4.188   1.497  0.5018  0.3138  0.1909
  611TIP3   OH223467   1.428   3.739   0.411 -0.2522 -0.1246 -0.1559
  611TIP3    H123468   1.478   3.790   0.475 -0.9591 -0.5970  0.7983
  611TIP3    H223469   1.494   3.704   0.351  0.2500  1.8653 -0.8239
  612TIP3   OH223470   0.830   3.427   0.290  0.1677 -0.0045  0.7774
  612TIP3    H123471   0.803   3.511   0.327  1.8481  1.4088 -0.9913
  612TIP3    H223472   0.923   3.421   0.312  0.5872 -0.3290 -0.9947
  613TIP3   OH223473   6.372   1.547   1.003  1.2096  0.3377 -0.3110
  613TIP3    H123474   6.325   1.577   1.081 -0.3762 -2.2535 -0.1448
  613TIP3    H223475   6.384   1.626   0.951  0.1847  1.7646  1.4649
  614TIP3   OH223476   0.002   2.137   8.275 -0.0589 -0.3763 -0.1533
  614TIP3    H123477  -0.091   2.154   8.263  0.1584  0.9844 -0.0469
  614TIP3    H223478   0.031   2.101   8.191 -0.1535  1.7299 -1.1504
  615TIP3   OH223479   1.880   5.571   6.886  0.0669 -0.3022  0.3519
  615TIP3    H123480   1.795   5.615   6.892 -0.4216 -1.3824  2.9245
  615TIP3    H223481   1.870   5.508   6.814 -0.1866  1.6953 -1.4522
  616TIP3   OH223482   6.865   2.284   2.764 -0.0012 -0.3970 -0.0544
  616TIP3    H123483   6.950   2.324   2.741 -0.8970  2.0658  0.6107
  616TIP3    H223484   6.868   2.198   2.722  1.1777  1.1716 -3.6717
  617TIP3   OH223485   2.760   4.274   8.296 -0.3909 -0.1660 -0.1191
  617TIP3    H123486   2.721   4.226   8.223 -0.8694 -0.1344  0.1178
  617TIP3    H223487   2.781   4.360   8.258 -1.6568  0.2388  0.0628
  618TIP3   OH223488   3.136   4.434   7.645  0.2827 -0.2109  0.3749
  618TIP3    H123489   3.078   4.398   7.578 -0.2960 -0.8893  1.2193
  618TIP3    H223490   3.219   4.388   7.632 -0.6027 -2.3914  1.7990
  619TIP3   OH223491   4.475   1.409   1.962 -0.4121 -0.5848  0.0852
  619TIP3    H123492   4.545   1.345   1.959  0.2850  0.1081  1.0861
  619TIP3    H223493   4.404   1.366   2.009 -0.0963 -0.7680  0.3956
  620TIP3   OH223494   5.935   6.139   7.604 -0.0136 -0.2814  0.2397
  620TIP3    H123495   5.937   6.044   7.619 -0.2699 -0.3038  0.1323
  620TIP3    H223496   5.967   6.150   7.515  2.1089 -0.1031  0.9524
  621TIP3   OH223497   1.337   3.260   8.551 -0.1819 -0.0892  0.1188
  621TIP3    H123498   1.314   3.342   8.596 -1.5083 -0.5793  0.3981
  621TIP3    H223499   1.405   3.222   8.605  1.3835  1.4053 -0.6968
  622TIP3   OH223500   6.417   4.384   7.822 -0.1534  0.4622  0.0098
  622TIP3    H123501   6.415   4.343   7.736 -0.9180  0.6056 -0.0416
  622TIP3    H223502   6.403   4.312   7.883  0.2596  0.3805  0.0098
  623TIP3   OH223503   6.540   5.244   8.177 -0.3767 -0.3002 -0.6483
  623TIP3    H123504   6.566   5.306   8.109 -1.1762 -0.2182 -0.8809
  623TIP3    H223505   6.611   5.179   8.178  0.0765  0.1887 -0.9361
  624TIP3   OH223506   5.648   3.068   8.219 -0.5298  0.3938 -0.5631
  624TIP3    H123507   5.592   3.061   8.141 -0.8164  0.5262 -0.3704
  624TIP3    H223508   5.590   3.047   8.292 -0.3632  0.6791 -0.3473
  625TIP3   OH223509   3.571   4.697   8.323  0.0146  0.3725 -0.1257
  625TIP3    H123510   3.664   4.712   8.303 -0.2691 -1.6907 -3.9101
  625TIP3    H223511   3.573   4.644   8.403  2.2494 -0.8766 -0.8973
  626TIP3   OH223512   1.258   0.186   2.441  0.5306  0.2541 -0.1263
  626TIP3    H123513   1.259   0.274   2.402  2.3576  0.2648 -0.1407
  626TIP3    H223514   1.350   0.159   2.442  0.3576 -0.5250  2.4577
  627TIP3   OH223515   2.944   6.588   2.219  0.1630 -0.7604  0.1203
  627TIP3    H123516   2.867   6.628   2.257 -0.5477 -1.3820 -0.6181
  627TIP3    H223517   2.936   6.495   2.240 -0.4990 -1.1986 -1.8926
  628TIP3   OH223518   4.005   2.302   2.298  0.3310  0.0252  0.2498
  628TIP3    H123519   3.998   2.270   2.208  1.1579 -1.5375  0.7058
  628TIP3    H223520   3.929   2.360   2.309  0.6842  0.9508 -1.7090
  629TIP3   OH223521   0.727   3.404   8.269  0.1847  0.5984  0.2665
  629TIP3    H123522   0.715   3.497   8.288 -1.3817 -0.0256  2.7380
  629TIP3    H223523   0.639   3.368   8.270  0.7025 -0.8429 -1.3789
  630TIP3   OH223524   5.567   0.618   0.357 -0.1958  0.0843 -0.4337
  630TIP3    H123525   5.510   0.676   0.407 -2.2693 -1.8256 -0.4524
  630TIP3    H223526   5.656   0.651   0.374 -0.9330  0.6065  3.0397
  631TIP3   OH223527   2.132   6.129   7.884  0.3089 -0.9772  0.2594
  631TIP3    H123528   2.131   6.181   7.965  1.5025  2.1236 -1.5449
  631TIP3    H223529   2.216   6.151   7.843 -1.2042 -0.5739 -2.8929
  632TIP3   OH223530   6.023   4.287   1.792 -0.5368  0.2777 -0.2722
  632TIP3    H123531   6.057   4.320   1.876  0.3022  0.3156 -0.6091
  632TIP3    H223532   6.015   4.366   1.738 -2.0759  0.3923  0.0907
  633TIP3   OH223533   0.388   0.514   1.042 -0.3155 -0.4270 -0.1104
  633TIP3    H123534   0.356   0.593   1.085 -1.2800 -0.5815 -0.5224
  633TIP3    H223535   0.472   0.540   1.003 -0.5653  0.3556 -0.1405
  634TIP3   OH223536   3.953   4.112   2.027 -0.1938  0.0810  0.0944
  634TIP3    H123537   3.906   4.029   2.035  1.1292 -0.6820  0.4060
  634TIP3    H223538   4.025   4.093   1.967  0.6657  0.7287  0.8754
  635TIP3   OH223539   2.182   1.343   0.957  0.4847 -0.1750 -0.3275
  635TIP3    H123540   2.087   1.331   0.954  0.5319 -0.3973 -2.6990
  635TIP3    H223541   2.194   1.438   0.964  0.1114 -0.1881  0.6301
  636TIP3   OH223542   3.370   3.845   1.505 -0.0094 -0.0796 -0.4852
  636TIP3    H123543   3.461   3.855   1.531 -0.0232  0.2476 -0.5671
  636TIP3    H223544   3.327   3.806   1.582 -0.1900  1.4797  0.2406
  637TIP3   OH223545   6.460   0.630   6.943  0.7501 -0.5731 -0.2474
  637TIP3    H123546   6.386   0.681   6.975  2.0609  0.8636  0.6618
  637TIP3    H223547   6.492   0.582   7.020  1.9479  0.3814 -0.1112
  638TIP3   OH223548   1.548   4.259   6.715 -0.5661 -0.3563  0.1659
  638TIP3    H123549   1.485   4.313   6.668 -0.8912 -1.9477 -1.3451
  638TIP3    H223550   1.630   4.270   6.667 -0.5392 -0.8683  0.0848
  639TIP3   OH223551   1.277   1.122   6.890  0.0680 -0.1334 -0.2574
  639TIP3    H123552   1.204   1.069   6.858 -0.0483 -0.7181  0.9008
  639TIP3    H223553   1.250   1.149   6.978  1.1036 -0.0805  0.0566
  640TIP3   OH223554   3.373   0.176   0.667  0.0633 -0.1628 -0.0445
  640TIP3    H123555   3.447   0.137   0.714  0.6412 -1.1266 -1.6676
  640TIP3    H223556   3.385   0.147   0.577 -1.7718  0.4789 -0.5240
  641TIP3   OH223557   5.536   4.056   7.774 -0.4161 -0.1199 -0.3414
  641TIP3    H123558   5.553   4.149   7.763 -0.1832  0.0411  1.1190
  641TIP3    H223559   5.595   4.013   7.713  0.4467  0.6636 -0.0813
  642TIP3   OH223560   2.117   5.248   8.030  0.0797 -0.2184 -0.4372
  642TIP3    H123561   2.068   5.172   8.060 -0.1871  0.1352  0.0302
  642TIP3    H223562   2.169   5.276   8.106 -1.5162  1.4149  0.1206
  643TIP3   OH223563   6.638   5.937   1.121  0.2970 -0.5169  0.1902
  643TIP3    H123564   6.563   5.970   1.170  0.4167  1.9843 -1.1557
  643TIP3    H223565   6.711   5.992   1.149  1.0701 -1.1649 -0.4862
  644TIP3   OH223566   6.665   5.511   0.437 -0.1546 -1.0844 -0.0980
  644TIP3    H123567   6.602   5.439   0.444 -0.4356 -1.5226 -4.1767
  644TIP3    H223568   6.728   5.481   0.372  0.9636  1.5456 -0.3703
  645TIP3   OH223569   5.514   1.393   0.883  0.0935  0.3030  0.0790
  645TIP3    H123570   5.521   1.301   0.857  0.3553  0.1534  0.6540
  645TIP3    H223571   5.524   1.391   0.978  0.7461  0.9947  0.0286
  646TIP3   OH223572   6.072   2.241   0.094  0.3581 -0.0580  0.0246
  646TIP3    H123573   6.153   2.280   0.127 -1.0128  2.8254  0.3335
  646TIP3    H223574   6.006   2.265   0.159 -1.0210 -1.0159 -0.9697
  647TIP3   OH223575   2.209   4.062   1.128  0.0947 -0.2594 -0.2675
  647TIP3    H123576   2.228   4.017   1.210 -2.6413 -0.6023  0.3039
  647TIP3    H223577   2.239   4.152   1.142  0.8395 -0.6332  0.6099
  648TIP3   OH223578   2.123   5.754   1.276  0.1138 -0.2616  0.1055
  648TIP3    H123579   2.127   5.847   1.297  1.1028  0.0434 -1.2237
  648TIP3    H223580   2.074   5.750   1.193  0.8497 -0.8036 -0.3219
  649TIP3   OH223581   3.172   3.255   8.198 -0.3792 -0.4966 -0.6782
  649TIP3    H123582   3.238   3.271   8.131 -0.5918 -0.2593 -0.8329
  649TIP3    H223583   3.166   3.159   8.204  0.7776 -0.5369  0.1369
  650TIP3   OH223584   0.521   6.652   0.014  0.2842  0.7060 -0.0970
  650TIP3    H123585   0.470   6.638  -0.066 -0.4771  0.2266  0.4481
  650TIP3    H223586   0.575   6.728  -0.004 -3.2658  3.6615  0.4894
  651TIP3   OH223587   2.595   5.108   6.996 -0.4680  0.1414 -0.2310
  651TIP3    H123588   2.588   5.046   7.069  0.6352 -0.1564 -0.3649
  651TIP3    H223589   2.686   5.137   6.998 -0.5252  0.4140 -1.2744
  652TIP3   OH223590   0.563   4.262   1.363 -0.3205 -0.0902 -0.1717
  652TIP3    H123591   0.484   4.252   1.311 -0.5722 -0.3935  0.2636
  652TIP3    H223592   0.635   4.261   1.300 -0.6109 -0.6105 -0.4914
  653TIP3   OH223593   4.115   6.515   8.009 -0.5581 -0.2237 -0.2117
  653TIP3    H123594   4.140   6.522   8.101  0.2464  0.6260 -0.4835
  653TIP3    H223595   4.124   6.603   7.974 -1.5634 -0.3938 -0.9397
  654TIP3   OH223596   1.229   1.925   2.438  0.7692  0.0845  0.0136
  654TIP3    H123597   1.310   1.958   2.478 -0.1493  0.1833  1.9109
  654TIP3    H223598   1.221   1.836   2.472 -0.3145  0.3540  0.4858
  655TIP3   OH223599   2.145   6.544   0.676 -0.1806  0.1452 -0.2412
  655TIP3    H123600   2.168   6.615   0.616  2.9829 -0.0682  0.5818
  655TIP3    H223601   2.207   6.474   0.656  0.3846 -0.2762  2.6094
  656TIP3   OH223602   4.720   1.006   0.426  0.0219 -0.5212  0.2500
  656TIP3    H123603   4.698   0.990   0.334  1.0311 -0.1037 -0.0762
  656TIP3    H223604   4.814   0.989   0.432 -0.1632 -1.3163  1.3908
  657TIP3   OH223605   5.937   0.871   1.259 -0.2654 -0.3530 -0.0907
  657TIP3    H123606   5.923   0.805   1.192 -0.4318 -0.2566 -0.1519
  657TIP3    H223607   5.874   0.849   1.329  0.1300 -0.6439  0.1777
  658TIP3   OH223608   5.443   4.933   1.196 -0.7396 -0.0817 -0.1042
  658TIP3    H123609   5.423   4.956   1.286 -1.0467 -1.4100  0.1886
  658TIP3    H223610   5.363   4.893   1.163 -1.1654  1.7549 -1.4800
  659TIP3   OH223611   4.820   0.706   0.240 -0.2700  0.0458  0.3333
  659TIP3    H123612   4.902   0.681   0.283  0.1316  1.3632  0.3832
  659TIP3    H223613   4.752   0.679   0.301  0.1810 -0.1774  0.7429
  660TIP3   OH223614   2.930   0.308   7.390  0.5021  0.1098 -0.0745
  660TIP3    H123615   2.893   0.364   7.321  1.9329 -0.9397 -1.7637
  660TIP3    H223616   2.961   0.230   7.344  1.0100 -0.8858  1.8596
  661TIP3   OH223617   2.944   0.914   0.309 -0.8001 -0.4582  0.2550
  661TIP3    H123618   2.869   0.973   0.307 -2.3752 -2.2891  1.6450
  661TIP3    H223619   2.925   0.848   0.243  0.4122 -0.0706 -0.5170
  662TIP3   OH223620   0.518   5.371   7.219  0.1188 -0.2200 -0.0614
  662TIP3    H123621   0.608   5.343   7.232  0.5300 -0.6313 -3.1036
  662TIP3    H223622   0.505   5.442   7.282  2.6452  0.0317  0.2593
  663TIP3   OH223623   5.028   6.047   2.892  0.1399  0.3619  0.1707
  663TIP3    H123624   4.991   6.128   2.857 -0.2617  0.4199  0.7075
  663TIP3    H223625   4.954   5.987   2.895 -0.0487  0.6256  1.7099
  664TIP3   OH223626   6.402   3.398   7.599  0.0462  0.1744 -0.1637
  664TIP3    H123627   6.469   3.460   7.625 -1.0683  0.2083  3.0855
  664TIP3    H223628   6.434   3.313   7.632  0.3482 -0.5795 -2.2569
  665TIP3   OH223629   3.886   1.672   2.051  0.2144  0.0819 -0.4885
  665TIP3    H123630   3.809   1.626   2.083 -0.7798 -0.1897 -3.0562
  665TIP3    H223631   3.861   1.765   2.052  0.2027  0.0784 -0.4553
  666TIP3   OH223632   3.570   0.650   3.339  0.2692  0.4673 -0.2404
  666TIP3    H123633   3.604   0.646   3.428  0.0758  0.7705 -0.1522
  666TIP3    H223634   3.617   0.722   3.298 -0.0755  0.7201 -0.1965
  667TIP3   OH223635   6.372   6.904   2.879  0.1115  0.2316  0.2361
  667TIP3    H123636   6.430   6.855   2.937 -2.6435 -3.2927  0.3840
  667TIP3    H223637   6.319   6.958   2.937  2.8710  3.3863  0.1079
  668TIP3   OH223638   4.903   3.268   0.420 -0.6575 -0.0203 -0.0223
  668TIP3    H123639   4.897   3.174   0.434 -0.9046 -0.1017 -0.6881
  668TIP3    H223640   4.853   3.285   0.341 -2.2197  0.9346  1.1083
  669TIP3   OH223641   2.094   3.829   6.554 -0.3759 -0.2007 -0.2460
  669TIP3    H123642   2.065   3.880   6.479 -0.6130  1.3844  0.8715
  669TIP3    H223643   2.024   3.837   6.618  0.8413  0.5225  1.0578
  670TIP3   OH223644   3.854   1.807   3.112  0.2549  0.3425  0.2211
  670TIP3    H123645   3.782   1.744   3.108  0.4068  0.1140  0.8570
  670TIP3    H223646   3.833   1.863   3.187  1.5635 -0.8071  1.5276
  671TIP3   OH223647   0.109   6.876   7.899  0.8055 -0.0808 -0.1951
  671TIP3    H123648   0.089   6.857   7.991 -0.1230  1.4210 -0.0629
  671TIP3    H223649   0.173   6.809   7.875  0.5403 -0.9377  1.3343
  672TIP3   OH223650   4.786   4.377   7.302 -0.1218  0.0699 -0.4944
  672TIP3    H123651   4.744   4.298   7.268 -0.7368  0.4115 -0.5421
  672TIP3    H223652   4.813   4.353   7.391 -0.6990 -0.0543 -0.3494
  673TIP3   OH223653   1.853   6.143   1.989  0.6707  0.6742 -0.1174
  673TIP3    H123654   1.844   6.078   2.059 -1.5554  1.8291  0.7890
  673TIP3    H223655   1.763   6.158   1.960  1.3400  1.8994 -1.6787
  674TIP3   OH223656   2.146   4.121   0.807  0.4601 -0.7116  0.3962
  674TIP3    H123657   2.093   4.051   0.847  0.2598 -0.3357  0.7908
  674TIP3    H223658   2.090   4.158   0.740 -0.0503  0.1438  1.2716
  675TIP3   OH223659   4.959   5.190   0.541 -0.1640 -0.4172  0.1679
  675TIP3    H123660   4.965   5.131   0.466  0.3138  0.1104 -0.2145
  675TIP3    H223661   5.024   5.157   0.603  1.4559  0.7725 -0.8110
  676TIP3   OH223662   5.884   6.801   1.859  0.5423  0.0291  0.3363
  676TIP3    H123663   5.821   6.861   1.898  1.2516  1.1501 -0.2009
  676TIP3    H223664   5.837   6.764   1.783 -0.5913 -1.6471  1.7751
  677TIP3   OH223665   4.205   3.914   7.086  0.4422 -0.0618 -0.2010
  677TIP3    H123666   4.241   4.001   7.100  1.2524 -0.5128  0.6212
  677TIP3    H223667   4.126   3.911   7.140 -1.0080  0.9781 -2.1164
  678TIP3   OH223668   0.011   2.611   0.813  0.4737  0.0054  0.5443
  678TIP3    H123669  -0.066   2.600   0.869  0.2374 -0.7781  0.0819
  678TIP3    H223670  -0.015   2.677   0.749  0.2107 -0.2122  0.4282
  679TIP3   OH223671   2.684   3.894   7.590 -0.1367  0.4272 -0.3248
  679TIP3    H123672   2.595   3.930   7.586  0.0966  1.1488  0.7315
  679TIP3    H223673   2.737   3.958   7.541 -0.0537  0.4492 -0.2049
  680TIP3   OH223674   0.756   6.894   2.017 -0.8087 -0.3677 -0.0469
  680TIP3    H123675   0.733   6.878   2.109 -1.0224  0.5708  0.0725
  680TIP3    H223676   0.741   6.988   2.005  1.1037 -0.0935 -0.5070
  681TIP3   OH223677   3.018   3.636   8.287  0.1700 -0.2537 -0.4109
  681TIP3    H123678   3.104   3.595   8.273  0.7690  0.9743 -0.4911
  681TIP3    H223679   2.956   3.575   8.248  1.0927 -0.7135 -1.2147
  682TIP3   OH223680   6.188   0.359   7.956 -0.5684  0.4600 -0.5836
  682TIP3    H123681   6.183   0.269   7.923 -1.9232  1.0052 -1.9511
  682TIP3    H223682   6.282   0.373   7.972 -0.2491 -0.9317 -1.0854
  683TIP3   OH223683   5.416   5.259   1.867  0.2044 -0.3141 -0.0454
  683TIP3    H123684   5.379   5.347   1.861 -0.3840 -0.4241  1.5885
  683TIP3    H223685   5.388   5.226   1.952  1.5293 -1.5875 -0.0551
  684TIP3   OH223686   1.177   0.445   8.312  0.1053  0.4274 -0.2588
  684TIP3    H123687   1.243   0.377   8.316  1.2473  1.4311 -1.1713
  684TIP3    H223688   1.118   0.426   8.385 -0.5837 -2.4658 -1.4426
  685TIP3   OH223689   1.110   6.409   7.202 -0.0282 -0.4998 -0.0750
  685TIP3    H123690   1.150   6.408   7.115 -1.6638  1.7915 -0.9621
  685TIP3    H223691   1.028   6.360   7.191  0.3368 -1.2681  0.5341
  686TIP3   OH223692   3.841   4.464   1.065  0.3260  0.5199 -0.7926
  686TIP3    H123693   3.838   4.524   0.992 -0.5812  2.8677  1.0488
  686TIP3    H223694   3.928   4.474   1.102  1.2469 -1.5999 -2.1679
  687TIP3   OH223695   4.820   6.261   7.692 -0.2254 -0.0122  0.4546
  687TIP3    H123696   4.742   6.210   7.673 -1.2504  1.7864 -0.4281
  687TIP3    H223697   4.809   6.291   7.782 -0.2528 -0.2668  0.5351
  688TIP3   OH223698   0.861   6.145   7.839  0.9779  0.3803 -0.1090
  688TIP3    H123699   0.944   6.134   7.793  1.1684 -1.0116  0.5217
  688TIP3    H223700   0.886   6.153   7.932  0.4149  0.0936  0.0728
  689TIP3   OH223701   3.297   6.540   0.674  0.0604  0.1060 -0.1142
  689TIP3    H123702   3.291   6.496   0.589 -0.4889  0.5407 -0.3073
  689TIP3    H223703   3.208   6.568   0.693  0.0622 -0.5180  0.9012
  690TIP3   OH223704   5.565   4.331   3.118 -0.4723  0.4059  0.8491
  690TIP3    H123705   5.660   4.343   3.124 -0.3774 -0.1591  0.5971
  690TIP3    H223706   5.554   4.236   3.113 -1.0719  0.4567  1.1745
  691TIP3   OH223707   5.737   3.760   1.120 -0.2421  0.0926  0.3556
  691TIP3    H123708   5.731   3.837   1.063 -0.5873  0.1455  0.4615
  691TIP3    H223709   5.781   3.694   1.066  1.4468  0.8154  0.7579
  692TIP3   OH223710   2.988   0.825   8.143  0.0666 -0.0784  0.2210
  692TIP3    H123711   3.070   0.856   8.105  0.1005  0.6816  0.8801
  692TIP3    H223712   2.949   0.903   8.182 -0.7327 -0.5295  0.3446
  693TIP3   OH223713   4.126   3.448   8.134 -0.1203  0.4862  0.8862
  693TIP3    H123714   4.166   3.391   8.069 -0.3747  1.1540  0.1229
  693TIP3    H223715   4.173   3.531   8.126 -1.0999  1.0263  0.5426
  694TIP3   OH223716   2.509   1.884   6.677  0.2873 -0.0339 -0.4090
  694TIP3    H123717   2.466   1.916   6.756 -0.0289  0.0860 -0.6263
  694TIP3    H223718   2.468   1.800   6.659  0.1033  0.1017 -0.6418
  695TIP3   OH223719   4.977   3.221   0.807 -0.3483  0.5956  0.9745
  695TIP3    H123720   4.900   3.184   0.850 -0.1897 -0.0353  0.7289
  695TIP3    H223721   5.052   3.184   0.855 -0.1542 -0.5290 -0.1333
  696TIP3   OH223722   2.110   3.595   8.570  0.3443  0.0414  0.0466
  696TIP3    H123723   2.180   3.656   8.547 -0.6155  1.2274  0.1937
  696TIP3    H223724   2.133   3.564   8.658  0.9289  0.0316 -0.1031
  697TIP3   OH223725   1.191   6.593   1.024  0.2142 -0.6799 -0.3681
  697TIP3    H123726   1.262   6.609   1.086  0.8700  2.8198 -1.7852
  697TIP3    H223727   1.234   6.556   0.947  0.0443 -1.1258 -0.2536
  698TIP3   OH223728   5.502   5.711   2.041  0.5358  0.0260  0.1218
  698TIP3    H123729   5.592   5.679   2.043  0.5586  0.0746 -0.1751
  698TIP3    H223730   5.504   5.791   2.093  0.4156 -0.6050  1.1313
  699TIP3   OH223731   5.201   4.564   0.630 -0.6584  0.0484  0.5834
  699TIP3    H123732   5.198   4.572   0.726  0.4251  0.7180  0.5864
  699TIP3    H223733   5.266   4.496   0.613  1.5851  2.0747  0.3386
  700TIP3   OH223734   3.191   3.591   0.960 -0.7254  0.3275 -0.0868
  700TIP3    H123735   3.138   3.649   1.015  0.1879  1.7110 -0.5810
  700TIP3    H223736   3.133   3.564   0.890 -0.6550  2.3580 -0.9977
  701TIP3   OH223737   2.973   6.147   3.073  0.2331  0.1488 -0.5554
  701TIP3    H123738   3.047   6.116   3.021  1.0824 -0.2511  0.8254
  701TIP3    H223739   2.994   6.238   3.095  0.2422  0.0903 -0.3111
  702TIP3   OH223740   3.630   0.385   1.076 -0.2292  0.2201  0.2534
  702TIP3    H123741   3.648   0.463   1.129 -1.6138  0.2953  0.6576
  702TIP3    H223742   3.536   0.369   1.088 -0.1276 -1.0498 -0.4544
  703TIP3   OH223743   4.472   2.373   0.494  0.8252  0.0052 -0.3708
  703TIP3    H123744   4.494   2.413   0.578 -0.4088  2.8779 -1.2915
  703TIP3    H223745   4.379   2.352   0.500  0.3784  1.5293 -1.4404
  704TIP3   OH223746   0.796   6.138   8.333  0.6420 -1.0082  0.0636
  704TIP3    H123747   0.726   6.140   8.399 -0.6096 -0.6629 -1.2188
  704TIP3    H223748   0.877   6.143   8.384 -0.2937  0.3608  1.5342
  705TIP3   OH223749   3.099   5.404   2.035 -0.1893  0.3225 -0.8349
  705TIP3    H123750   3.032   5.446   1.981  1.1016  1.1849 -1.8066
  705TIP3    H223751   3.166   5.377   1.974  1.9641  2.5119  0.3761
  706TIP3   OH223752   4.856   3.394   7.966  0.2120 -0.0685 -0.0981
  706TIP3    H123753   4.831   3.480   7.935  0.6997  0.3964  0.7515
  706TIP3    H223754   4.845   3.399   8.061  2.1548 -0.2761  0.1791
  707TIP3   OH223755   1.663   4.499   7.593  0.4380 -0.7200 -0.4025
  707TIP3    H123756   1.700   4.523   7.678 -0.1230  0.7192 -0.5349
  707TIP3    H223757   1.697   4.566   7.533 -1.9583  0.3819 -0.6176
  708TIP3   OH223758   1.826   3.280   7.578 -0.4121 -0.2560 -0.1450
  708TIP3    H123759   1.763   3.264   7.508  0.3445  0.0627 -0.9249
  708TIP3    H223760   1.903   3.229   7.553  0.1950  0.5667 -0.0303
  709TIP3   OH223761   1.085   3.789   7.734  0.3955 -0.3791  0.6734
  709TIP3    H123762   1.050   3.812   7.821 -0.4734 -0.3414  0.3231
  709TIP3    H223763   1.012   3.804   7.674  0.1387 -2.9207  0.2520
  710TIP3   OH223764   3.327   5.847   1.358 -0.2974  0.1393 -0.3140
  710TIP3    H123765   3.295   5.764   1.393 -1.5001  1.0646  0.8766
  710TIP3    H223766   3.248   5.899   1.343  0.4356  1.1215 -0.9417
  711TIP3   OH223767   1.866   0.044   0.074  0.1492  0.3032 -0.0141
  711TIP3    H123768   1.921   0.113   0.111 -0.1234  0.6387 -0.2300
  711TIP3    H223769   1.866  -0.025   0.140 -0.2385  0.8497  0.5719
  712TIP3   OH223770   6.125   0.114   7.239 -0.2062 -0.6461 -0.0199
  712TIP3    H123771   6.100   0.065   7.318 -2.7716  0.7174  0.1168
  712TIP3    H223772   6.121   0.206   7.266 -1.7110 -0.1162 -1.8466
  713TIP3   OH223773   4.181   2.948   0.961  0.4949  0.4830  0.1814
  713TIP3    H123774   4.225   3.026   0.926  0.1284  1.2918  1.4518
  713TIP3    H223775   4.208   2.877   0.903  2.1897  1.2553 -0.0303
  714TIP3   OH223776   0.821   1.818   6.922  0.0824  0.0034  0.0102
  714TIP3    H123777   0.737   1.862   6.915  0.8634  1.3965 -1.3297
  714TIP3    H223778   0.847   1.830   7.014  0.5465  3.0183 -0.4086
  715TIP3   OH223779   1.185   4.389   0.138 -0.3474 -0.0536 -0.3863
  715TIP3    H123780   1.241   4.370   0.213 -1.0030  2.5002  0.8993
  715TIP3    H223781   1.243   4.386   0.063  0.2138 -3.3147  0.0393
  716TIP3   OH223782   6.217   0.830   1.646 -0.1368 -0.5364 -0.0867
  716TIP3    H123783   6.291   0.831   1.705 -0.0695 -1.4212 -0.1476
  716TIP3    H223784   6.146   0.870   1.695  0.1736 -0.3994  0.2490
  717TIP3   OH223785   3.720   1.267   0.282 -0.1255  0.6870  0.1477
  717TIP3    H123786   3.716   1.185   0.330 -3.4528 -0.0911 -1.2034
  717TIP3    H223787   3.785   1.251   0.213 -1.5626 -1.3499 -0.8369
  718TIP3   OH223788   1.404   6.913   0.490  0.4596  0.0301  0.2263
  718TIP3    H123789   1.349   6.903   0.413  0.8823  1.1210 -0.2285
  718TIP3    H223790   1.344   6.902   0.564 -0.3440  1.0842 -0.2584
  719TIP3   OH223791   4.365   2.422   8.159 -0.1532  0.0476 -0.1609
  719TIP3    H123792   4.454   2.440   8.128  0.3034 -2.3814 -0.4646
  719TIP3    H223793   4.376   2.351   8.221 -1.9268 -0.4832 -0.4239
  720TIP3   OH223794   4.723   6.389   0.233  0.2797 -0.1424 -0.0694
  720TIP3    H123795   4.812   6.382   0.267  0.3157  0.6706  0.0207
  720TIP3    H223796   4.706   6.303   0.194  0.9737 -0.4190  0.2124
  721TIP3   OH223797   1.277   1.091   7.973  0.1177 -0.0613 -0.5325
  721TIP3    H123798   1.212   1.158   7.950  1.4856  1.1741 -1.0565
  721TIP3    H223799   1.355   1.117   7.923  1.0279 -1.4523  0.1117
  722TIP3   OH223800   1.720   4.620   7.868 -0.0906  0.1723  0.2434
  722TIP3    H123801   1.813   4.617   7.845 -0.0369 -0.0509  0.4832
  722TIP3    H223802   1.718   4.596   7.961 -0.5300 -1.4542 -0.1433
  723TIP3   OH223803   3.193   1.568   0.584 -0.2149  0.2988 -0.2770
  723TIP3    H123804   3.228   1.639   0.530  0.3657  0.4647  0.2925
  723TIP3    H223805   3.263   1.551   0.648 -0.9094  0.1715  0.4633
  724TIP3   OH223806   1.749   0.391   0.610  0.0762 -0.1467  0.8065
  724TIP3    H123807   1.744   0.408   0.704 -0.4002  0.4640  0.6794
  724TIP3    H223808   1.780   0.300   0.603 -0.8935 -0.5544  1.5687
  725TIP3   OH223809   4.073   1.286   7.879 -0.3658  0.5238  0.0255
  725TIP3    H123810   4.154   1.296   7.828 -0.4186  0.6046 -0.0424
  725TIP3    H223811   4.012   1.243   7.819  0.6434 -2.6433  1.0886
  726TIP3   OH223812   6.307   3.648   2.210 -0.7063  0.2574  0.4279
  726TIP3    H123813   6.323   3.740   2.231 -1.0603  0.3721  0.1945
  726TIP3    H223814   6.226   3.648   2.160 -0.1886 -0.0740 -0.4418
  727TIP3   OH223815   4.859   2.492   0.591  0.3040 -0.2505 -0.2141
  727TIP3    H123816   4.825   2.450   0.670 -0.1590  0.2454 -0.1395
  727TIP3    H223817   4.796   2.562   0.572 -1.2534 -2.1577 -2.7147
  728TIP3   OH223818   6.830   4.955   0.229 -0.2099  0.1610  0.3386
  728TIP3    H123819   6.745   4.997   0.241 -0.0735  1.1569 -1.7587
  728TIP3    H223820   6.880   4.980   0.307 -0.8940  2.0318  0.2300
  729TIP3   OH223821   2.867   4.848   0.811  0.2839 -0.0716 -0.0895
  729TIP3    H123822   2.774   4.847   0.788 -0.0650 -2.5694  1.0451
  729TIP3    H223823   2.891   4.755   0.817  2.4679  0.4916  1.1321
  730TIP3   OH223824   6.071   2.119   7.751 -0.0559  0.0493 -0.0932
  730TIP3    H123825   6.153   2.114   7.702 -0.5701 -0.9038 -0.9104
  730TIP3    H223826   6.004   2.102   7.685 -0.7618 -1.3321  0.9489
  731TIP3   OH223827   1.437   6.201   1.593  0.7026 -0.1065 -0.4701
  731TIP3    H123828   1.527   6.179   1.615  0.7603  1.5354  1.1103
  731TIP3    H223829   1.386   6.176   1.670  0.1293  0.9253 -0.4905
  732TIP3   OH223830   3.971   5.053   2.054  0.0286 -0.0575  1.2141
  732TIP3    H123831   4.062   5.035   2.078  0.8746  1.6065 -0.4242
  732TIP3    H223832   3.972   5.057   1.959 -1.3368  1.8231  1.2156
  733TIP3   OH223833   1.054   3.895   2.146  0.0448  0.7457  0.7991
  733TIP3    H123834   1.127   3.881   2.207 -0.1094  0.4538  0.9187
  733TIP3    H223835   0.986   3.835   2.177  0.0555  0.4117  0.1843
  734TIP3   OH223836   2.596   3.944   0.804  0.4539 -0.2830  0.3758
  734TIP3    H123837   2.654   3.929   0.729 -1.3857  0.4865 -1.3028
  734TIP3    H223838   2.640   4.013   0.855  1.2081 -0.0126 -0.6147
  735TIP3   OH223839   1.854   4.270   0.388  0.6258 -0.1004 -0.1472
  735TIP3    H123840   1.793   4.198   0.372  1.4781 -0.9918  0.4941
  735TIP3    H223841   1.800   4.349   0.382 -0.6572 -0.8679  0.7244
  736TIP3   OH223842   3.170   3.654   1.976  0.1285 -0.5182  0.3555
  736TIP3    H123843   3.183   3.691   2.063 -0.8928 -0.0949  0.3329
  736TIP3    H223844   3.229   3.578   1.974 -0.0199 -0.6804  1.5017
  737TIP3   OH223845   5.542   5.586   7.008 -0.4763 -0.5417  0.6025
  737TIP3    H123846   5.548   5.625   6.921 -1.0797  1.1554  1.2735
  737TIP3    H223847   5.618   5.529   7.014 -0.9947 -1.5573 -1.4109
  738TIP3   OH223848   3.721   3.211   1.517  0.0630 -0.2702 -0.2779
  738TIP3    H123849   3.809   3.195   1.548 -0.0710 -0.9118 -0.2254
  738TIP3    H223850   3.666   3.150   1.566 -0.7344  1.6327  1.3696
  739TIP3   OH223851   3.182   0.124   2.975 -0.1772  0.2267 -0.3199
  739TIP3    H123852   3.222   0.042   2.946 -0.1420  0.0892  0.1177
  739TIP3    H223853   3.253   0.172   3.018  0.0814  0.9625 -1.5141
  740TIP3   OH223854   5.680   3.914   7.556 -0.1537  0.6139  0.0199
  740TIP3    H123855   5.673   3.839   7.614 -0.3132  1.9615  1.8345
  740TIP3    H223856   5.731   3.883   7.481  0.0103 -1.1958  0.8477
  741TIP3   OH223857   5.989   2.452   7.331  0.1716 -0.5509 -0.5345
  741TIP3    H123858   5.989   2.406   7.247 -0.1375 -2.3699  0.4093
  741TIP3    H223859   5.923   2.407   7.383  0.2338  0.6500  0.6399
  742TIP3   OH223860   6.244   4.580   0.551 -0.3875 -0.1973 -0.1936
  742TIP3    H123861   6.323   4.629   0.575 -0.8642  0.3152  0.3586
  742TIP3    H223862   6.277   4.500   0.511  0.5057  1.8194 -3.9924
  743TIP3   OH223863   3.571   3.518   0.323  0.0625 -0.1921  0.2174
  743TIP3    H123864   3.647   3.530   0.266  0.4084  0.5636  0.8236
  743TIP3    H223865   3.501   3.567   0.281 -0.3194 -1.4930 -0.7343
  744TIP3   OH223866   0.653   0.482   7.116 -0.3711  0.1279  0.0304
  744TIP3    H123867   0.684   0.406   7.066  0.3890  0.5331 -0.1354
  744TIP3    H223868   0.672   0.556   7.059  0.3364  0.5807  0.8278
  745TIP3   OH223869   5.284   4.679   3.347  0.3811  0.1992 -0.6559
  745TIP3    H123870   5.209   4.705   3.294 -1.8831 -2.5410  0.9177
  745TIP3    H223871   5.346   4.641   3.283  0.1015  1.7030 -1.8798
  746TIP3   OH223872   5.658   2.291   2.781 -0.1902  0.0216  0.4482
  746TIP3    H123873   5.693   2.324   2.864  1.3653  0.3382 -0.2944
  746TIP3    H223874   5.575   2.338   2.769 -0.1274  0.4264  1.5105
  747TIP3   OH223875   0.342   3.703   1.368  0.3141  0.2761  0.0225
  747TIP3    H123876   0.400   3.777   1.383  0.1624  0.3908  0.0487
  747TIP3    H223877   0.256   3.742   1.351 -0.0476  0.0749  1.2550
  748TIP3   OH223878   2.262   1.113   8.011  0.5218  0.0287  0.3307
  748TIP3    H123879   2.276   1.175   8.082  4.7597 -0.8411  0.5375
  748TIP3    H223880   2.269   1.167   7.931 -2.6686  0.7360  0.3817
  749TIP3   OH223881   5.715   5.028   8.473  0.3051 -0.0146 -0.1201
  749TIP3    H123882   5.662   4.951   8.452 -3.0631  1.7786  1.0564
  749TIP3    H223883   5.758   5.050   8.391 -1.8114 -0.8733 -1.5539
  750TIP3   OH223884   6.854   4.909   6.749  0.1467  0.3727  0.0384
  750TIP3    H123885   6.780   4.888   6.691 -0.8434 -1.6100  1.8871
  750TIP3    H223886   6.918   4.840   6.730 -0.2382 -0.3625  1.3542
  751TIP3   OH223887   5.103   1.730   1.083 -0.0982  0.6299 -0.4448
  751TIP3    H123888   5.099   1.669   1.157 -1.2002 -1.2175 -1.9314
  751TIP3    H223889   5.197   1.742   1.066  0.1422  0.2042  0.5519
  752TIP3   OH223890   3.053   2.322   1.702  0.1051  0.0361  0.2493
  752TIP3    H123891   2.973   2.355   1.745 -0.1466  0.4499 -0.5202
  752TIP3    H223892   3.050   2.228   1.715  0.4721  0.2159  1.8863
  753TIP3   OH223893   5.103   2.154   0.876  0.2890  0.3391 -0.2268
  753TIP3    H123894   5.172   2.181   0.816  0.7214 -2.2511 -1.0451
  753TIP3    H223895   5.099   2.059   0.865 -2.1329  0.2106  1.2019
  754TIP3   OH223896   3.485   1.649   3.386  0.2637  0.0619 -0.3368
  754TIP3    H123897   3.455   1.569   3.430  1.4500 -0.6562 -0.7651
  754TIP3    H223898   3.406   1.686   3.347 -0.6946  0.3436  1.7576
  755TIP3   OH223899   5.302   6.703   1.243  0.0748  0.0760  0.2550
  755TIP3    H123900   5.264   6.788   1.264 -1.4663 -0.5884  0.2801
  755TIP3    H223901   5.336   6.714   1.154 -0.7729  0.5234 -0.0284
  756TIP3   OH223902   0.292   0.607   7.992  0.1186 -0.5276 -0.5342
  756TIP3    H123903   0.334   0.652   8.064  3.3831 -2.8987 -0.7510
  756TIP3    H223904   0.341   0.634   7.914  0.3386 -2.2419 -1.0271
  757TIP3   OH223905   6.683   1.687   0.539 -0.0462 -0.3677  0.5673
  757TIP3    H123906   6.642   1.716   0.621  0.1477  0.3411  0.4202
  757TIP3    H223907   6.702   1.594   0.553 -2.0019 -0.8161  0.5166
  758TIP3   OH223908   4.691   6.552   2.010  0.1067 -0.2237 -0.0331
  758TIP3    H123909   4.677   6.574   2.102  0.2222  0.4503 -0.1729
  758TIP3    H223910   4.732   6.465   2.012 -1.0351 -0.7873  0.5049
  759TIP3   OH223911   6.744   6.109   0.630 -0.7117 -0.0231  0.5622
  759TIP3    H123912   6.832   6.078   0.652 -1.2168 -1.5521  0.6003
  759TIP3    H223913   6.730   6.078   0.540 -1.0870  0.5020  0.4349
  760TIP3   OH223914   2.299   2.517   1.002 -0.0864  0.6085 -0.1824
  760TIP3    H123915   2.281   2.590   0.943 -1.0156  1.6013  1.2565
  760TIP3    H223916   2.262   2.544   1.086 -0.2766 -1.4416  0.4566
  761TIP3   OH223917   6.381   1.280   1.695  0.1199  0.8803 -0.1565
  761TIP3    H123918   6.341   1.239   1.618  2.1886 -0.3964 -0.6344
  761TIP3    H223919   6.352   1.226   1.769 -1.4053  1.7662 -0.0719
  762TIP3   OH223920   0.887   4.857   6.590 -0.3311 -0.1428  0.0751
  762TIP3    H123921   0.800   4.895   6.588 -0.6743 -0.8738  0.7710
  762TIP3    H223922   0.943   4.928   6.621 -0.9463 -0.1422  1.2455
  763TIP3   OH223923   5.343   1.053   2.701  0.2440 -0.0149 -0.5178
  763TIP3    H123924   5.270   0.993   2.689 -1.2065  1.9757 -2.5249
  763TIP3    H223925   5.394   1.016   2.773 -2.0456 -2.1321  0.1235
  764TIP3   OH223926   6.242   1.776   6.669 -0.3591  0.0642  0.5749
  764TIP3    H123927   6.275   1.734   6.590 -1.1578  0.0740  0.2300
  764TIP3    H223928   6.315   1.773   6.730  0.9991  1.8784 -0.8283
  765TIP3   OH223929   1.787   2.188   6.856 -0.0704  0.6731 -0.1281
  765TIP3    H123930   1.860   2.157   6.909  0.1268  0.1766 -0.6765
  765TIP3    H223931   1.823   2.257   6.801 -0.2038  0.9792  0.1653
  766TIP3   OH223932   0.897   4.399   7.831  0.2151 -0.4449 -0.5170
  766TIP3    H123933   0.897   4.368   7.921  0.5902 -1.0638 -0.7204
  766TIP3    H223934   0.809   4.434   7.817  0.5045  0.7043  0.4290
  767TIP3   OH223935   6.052   0.278   7.636  0.0543  0.2813  0.5712
  767TIP3    H123936   6.078   0.203   7.689 -2.9083 -0.3434  1.3391
  767TIP3    H223937   5.994   0.328   7.693 -0.3416  1.5824 -0.9106
  768TIP3   OH223938   5.772   3.299   8.304  0.3480  0.1765 -0.2265
  768TIP3    H123939   5.690   3.328   8.344  0.1797 -0.3614 -0.1751
  768TIP3    H223940   5.750   3.216   8.261  0.6760  0.4291 -0.8971
  769TIP3   OH223941   6.639   6.261   7.139  0.2372  0.0011  0.1582
  769TIP3    H123942   6.720   6.310   7.127  1.6436 -2.1777  0.0323
  769TIP3    H223943   6.628   6.255   7.234  0.7847 -0.5084  0.1947
  770TIP3   OH223944   4.459   5.314   8.161 -0.1415 -0.2989 -0.1638
  770TIP3    H123945   4.390   5.350   8.106  1.1970 -1.1630 -2.5302
  770TIP3    H223946   4.540   5.351   8.126  0.7284  0.2057  2.1481
  771TIP3   OH223947   6.551   6.013   1.862 -0.3817  0.1263  0.0350
  771TIP3    H123948   6.488   5.946   1.887 -0.0987 -0.2762 -0.3199
  771TIP3    H223949   6.617   5.966   1.810  0.9701  0.2762  1.5524
  772TIP3   OH223950   2.741   1.328   3.085 -0.1245  0.1940 -0.2368
  772TIP3    H123951   2.831   1.345   3.057 -0.5936  1.8691 -0.8290
  772TIP3    H223952   2.737   1.362   3.174 -0.6266  1.7591 -0.8390
  773TIP3   OH223953   5.934   6.494   7.834 -0.1798 -0.2288 -0.2238
  773TIP3    H123954   5.850   6.541   7.840 -1.7805 -2.6136 -1.9866
  773TIP3    H223955   5.983   6.542   7.768 -0.2763  0.9702  0.5411
  774TIP3   OH223956   3.676   6.528   2.093  0.2670  0.4589 -0.0820
  774TIP3    H123957   3.602   6.586   2.075 -0.8305 -0.2169  1.9873
  774TIP3    H223958   3.737   6.545   2.021 -1.6199  1.4682 -1.5410
  775TIP3   OH223959   6.202   0.364   8.240 -0.0925  0.1050  0.4771
  775TIP3    H123960   6.247   0.281   8.256  0.2488  0.2210  0.1161
  775TIP3    H223961   6.194   0.369   8.144  2.4780  1.8505  0.2685
  776TIP3   OH223962   0.781   4.625   6.707  0.4290  0.0803 -0.1815
  776TIP3    H123963   0.694   4.633   6.667  0.2673 -0.7729 -0.0152
  776TIP3    H223964   0.833   4.693   6.665 -0.7555  1.7612  0.9228
  777TIP3   OH223965   5.894   3.605   1.529  0.0840  0.1507 -0.2244
  777TIP3    H123966   5.978   3.642   1.556  0.0872 -0.1349  0.1574
  777TIP3    H223967   5.830   3.648   1.586  0.0208  0.0134 -0.1941
  778TIP3   OH223968   4.272   2.307   2.963  0.0977 -0.0494 -0.0108
  778TIP3    H123969   4.307   2.356   3.038  2.1393 -1.2368 -0.0941
  778TIP3    H223970   4.184   2.281   2.990  0.5258  0.1340  1.7153
  779TIP3   OH223971   1.092   2.092   2.267 -0.3806 -0.2352  0.1313
  779TIP3    H123972   1.134   2.034   2.331  0.3261 -0.2883 -0.3751
  779TIP3    H223973   1.164   2.138   2.225 -0.9106  0.6916  0.2112
  780TIP3   OH223974   3.749   2.894   0.707  0.2806  0.3189 -0.2113
  780TIP3    H123975   3.692   2.970   0.717  1.9498  1.5661  0.0933
  780TIP3    H223976   3.742   2.849   0.792  0.1515  0.7455  0.0089
  781TIP3   OH223977   4.033   0.702   0.021 -0.4620 -0.0483 -0.4857
  781TIP3    H123978   4.049   0.633   0.085  1.3139  0.5426 -0.2370
  781TIP3    H223979   3.985   0.769   0.070  1.4213  0.6821  0.4908
  782TIP3   OH223980   5.348   1.237   0.571  0.1311  0.0905  0.0561
  782TIP3    H123981   5.343   1.287   0.490  0.8489 -0.0417 -0.0748
  782TIP3    H223982   5.427   1.183   0.562  0.9910  1.0555  1.3871
  783TIP3   OH223983   5.273   4.742   7.546 -0.5711  0.1712 -0.2573
  783TIP3    H123984   5.230   4.802   7.486  2.1333  0.3399 -2.2329
  783TIP3    H223985   5.218   4.664   7.546 -2.7662  1.6314  0.3086
  784TIP3   OH223986   5.035   0.957   2.112 -0.7806 -0.1153  0.0346
  784TIP3    H123987   5.118   0.919   2.085 -0.4994  0.5888 -0.1202
  784TIP3    H223988   5.049   0.986   2.202 -0.3904  1.3088 -0.4697
  785TIP3   OH223989   5.008   1.074   0.517 -0.1520 -0.0606 -0.1622
  785TIP3    H123990   5.076   1.081   0.450 -0.8660  1.1633 -0.7898
  785TIP3    H223991   4.967   1.160   0.519  0.0069  0.0251  2.0507
  786TIP3   OH223992   4.336   3.192   0.862  0.0449 -0.1598  0.5201
  786TIP3    H123993   4.335   3.285   0.886  1.7482 -0.4064  1.6803
  786TIP3    H223994   4.428   3.168   0.863 -0.1597 -1.3586 -1.9671
  787TIP3   OH223995   2.241   6.047   6.775  0.3838  0.0581 -0.2924
  787TIP3    H123996   2.182   5.973   6.766 -0.1019  0.4492 -0.3753
  787TIP3    H223997   2.320   6.010   6.814 -0.1718 -0.3602  0.4845
  788TIP3   OH223998   3.831   3.853   0.825  0.3001  0.3342 -0.1037
  788TIP3    H123999   3.921   3.820   0.831  1.0691  2.1444 -1.0865
  788TIP3    H224000   3.837   3.930   0.769 -1.8823  0.5024 -0.1888
  789TIP3   OH224001   0.465   6.760   8.004  0.4566 -0.2056 -0.2944
  789TIP3    H124002   0.458   6.817   7.927 -0.1084  1.1463  0.7175
  789TIP3    H224003   0.497   6.677   7.969 -1.9435 -0.3895 -2.3405
  790TIP3   OH224004   4.036   6.723   0.500 -0.1004  0.1970  0.3096
  790TIP3    H124005   4.018   6.740   0.407  1.5016 -0.7481 -0.2173
  790TIP3    H224006   4.006   6.633   0.513 -0.9864  0.5653  0.9277
  791TIP3   OH224007   1.668   3.221   7.354 -0.2862  0.4199  0.6990
  791TIP3    H124008   1.657   3.168   7.275  0.0466 -0.2580  1.0959
  791TIP3    H224009   1.654   3.159   7.426  1.2366  0.5927  1.1818
  792TIP3   OH224010   1.523   1.296   0.725 -0.7869  1.0257  0.4731
  792TIP3    H124011   1.588   1.274   0.791 -0.0597 -1.8780 -1.0479
  792TIP3    H224012   1.574   1.310   0.645 -1.8955  0.0204 -0.4463
  793TIP3   OH224013   5.599   2.517   0.633 -0.1916 -0.5426  0.2672
  793TIP3    H124014   5.506   2.504   0.654 -0.6440  1.1414 -0.4886
  793TIP3    H224015   5.617   2.607   0.661  0.7062 -0.2031 -1.2667
  794TIP3   OH224016   5.900   2.902   8.318  0.0580 -0.2118  0.7519
  794TIP3    H124017   5.860   2.845   8.253  0.4880  0.2820  0.0406
  794TIP3    H224018   5.992   2.874   8.320  0.5620  1.2170 -0.4929
  795TIP3   OH224019   6.140   4.839   0.503 -0.2722 -0.5426 -0.6817
  795TIP3    H124020   6.172   4.750   0.517 -0.9849 -0.9993 -1.8484
  795TIP3    H224021   6.046   4.830   0.491 -0.5153  0.5065  0.2509
  796TIP3   OH224022   5.923   3.560   7.204  0.1982 -0.0332 -0.2115
  796TIP3    H124023   5.841   3.514   7.219  0.4723  0.1227  2.1905
  796TIP3    H224024   5.988   3.491   7.192  0.2743 -0.2687  1.4007
  797TIP3   OH224025   2.817   4.642   7.248  0.7267 -0.1392 -0.2806
  797TIP3    H124026   2.744   4.594   7.208  0.5655  1.7634 -2.4836
  797TIP3    H224027   2.892   4.583   7.241 -0.0671 -1.1730 -0.2303
  798TIP3   OH224028   4.857   4.779   0.761 -0.2230 -0.0365 -0.0140
  798TIP3    H124029   4.787   4.839   0.786  0.1271  0.4277 -0.1215
  798TIP3    H224030   4.852   4.776   0.665  1.0010  1.3903 -0.1671
  799TIP3   OH224031   1.797   5.075   0.457  0.1874 -0.2052  0.8025
  799TIP3    H124032   1.821   5.042   0.544  0.7652  0.3614  0.8773
  799TIP3    H224033   1.870   5.133   0.434 -1.2663  1.9082  1.1812
  800TIP3   OH224034   2.203   1.194   8.503 -0.5503 -0.1848  0.1774
  800TIP3    H124035   2.240   1.156   8.583 -0.5075 -1.4751 -0.4242
  800TIP3    H224036   2.276   1.197   8.442 -0.1785  2.2954  0.6208
  801TIP3   OH224037   5.138   2.298   1.469 -0.1991 -0.0639  0.8228
  801TIP3    H124038   5.133   2.359   1.542 -1.1618 -0.1744  0.8527
  801TIP3    H224039   5.098   2.344   1.396  1.0354  0.1652  0.2704
  802TIP3   OH224040   2.678   4.316   0.014  0.3909 -0.6456 -0.0126
  802TIP3    H124041   2.677   4.322  -0.082  0.8914  0.7926  0.0479
  802TIP3    H224042   2.613   4.248   0.034 -0.5282 -0.2086 -1.3228
  803TIP3   OH224043   1.439   4.496   1.145  0.0100  0.4433 -0.5478
  803TIP3    H124044   1.470   4.584   1.124  0.0733  0.6068  0.2231
  803TIP3    H224045   1.346   4.497   1.123  0.2498  0.3398 -1.6489
  804TIP3   OH224046   5.268   6.173   7.890  0.5099  0.3173  0.0844
  804TIP3    H124047   5.252   6.260   7.853 -0.4817 -0.2780 -0.9764
  804TIP3    H224048   5.200   6.163   7.957  1.1604  0.6725  0.8200
  805TIP3   OH224049   5.931   6.121   6.715  0.4695 -0.2367 -0.4215
  805TIP3    H124050   6.004   6.149   6.660  2.6209 -1.4777  1.5840
  805TIP3    H224051   5.896   6.202   6.752 -0.4125  0.5289 -2.7338
  806TIP3   OH224052   6.309   6.027   1.146 -0.4172  0.0518  0.1316
  806TIP3    H124053   6.374   6.092   1.118 -2.4496  1.6763 -1.0602
  806TIP3    H224054   6.333   6.008   1.237  2.8676 -0.9590 -0.7737
  807TIP3   OH224055   3.046   5.475   7.961 -0.2913  0.0497 -0.5418
  807TIP3    H124056   3.098   5.459   7.883 -0.6307 -0.5355 -0.6566
  807TIP3    H224057   2.956   5.483   7.929 -0.2377  1.4302 -0.3881
  808TIP3   OH224058   4.637   2.482   0.253 -0.2176 -0.1297 -0.1988
  808TIP3    H124059   4.591   2.403   0.280  1.1949 -1.0730 -0.4512
  808TIP3    H224060   4.567   2.546   0.238 -1.2899 -0.5011  2.5113
  809TIP3   OH224061   0.820   3.183   8.417 -0.2267 -0.0745  0.4041
  809TIP3    H124062   0.763   3.241   8.368  2.5812  1.6737 -0.9863
  809TIP3    H224063   0.807   3.208   8.509 -0.7027  1.1742  0.0061
  810TIP3   OH224064   0.334   4.134   6.989 -0.1891 -0.6528 -0.0640
  810TIP3    H124065   0.311   4.214   7.036  0.3055  0.9080 -2.3045
  810TIP3    H224066   0.251   4.103   6.953 -0.0010  0.5753 -1.6523
  811TIP3   OH224067   6.639   5.747   8.109 -0.1605 -0.1962 -0.3176
  811TIP3    H124068   6.560   5.753   8.161 -0.1965 -2.9962  0.0841
  811TIP3    H224069   6.710   5.771   8.169 -0.5920  1.8514 -0.5528
  812TIP3   OH224070   6.146   2.326   1.954  0.1723  0.2125 -0.2483
  812TIP3    H124071   6.051   2.328   1.943  0.1963  1.9309 -0.4947
  812TIP3    H224072   6.167   2.235   1.974 -1.1519 -0.9334 -3.5237
  813TIP3   OH224073   1.296   5.534   8.250 -0.5079  0.4142 -0.6772
  813TIP3    H124074   1.297   5.472   8.177 -2.7403 -2.8690  1.7893
  813TIP3    H224075   1.386   5.537   8.280 -0.2252 -1.2625 -1.2341
  814TIP3   OH224076   3.195   3.968   1.147  0.2916  0.1631  0.4385
  814TIP3    H124077   3.270   3.937   1.097  0.8154 -2.0493  2.4411
  814TIP3    H224078   3.124   3.910   1.122  0.2809 -0.2550  1.4032
  815TIP3   OH224079   5.612   1.241   2.721  0.0458  0.1130 -0.2021
  815TIP3    H124080   5.565   1.323   2.739 -2.5536 -1.2486 -0.2142
  815TIP3    H224081   5.679   1.237   2.789 -1.0434  1.3479  1.0302
  816TIP3   OH224082   1.702   1.763   1.860  0.6140  0.1984 -0.0585
  816TIP3    H124083   1.612   1.775   1.829  1.0789 -0.5667 -1.7960
  816TIP3    H224084   1.710   1.669   1.874  1.3786  0.1623 -0.7080
  817TIP3   OH224085   2.484   0.038   2.045 -0.2081 -0.0798  0.7044
  817TIP3    H124086   2.558   0.057   1.987 -0.4582  0.0216  0.4192
  817TIP3    H224087   2.437   0.121   2.053  0.7571  0.3494  2.4052
  818TIP3   OH224088   5.806   5.577   7.571  0.2082  0.3944  0.0005
  818TIP3    H124089   5.773   5.600   7.485 -1.2921 -0.2224  0.3798
  818TIP3    H224090   5.842   5.659   7.606  1.2500  0.5440 -1.3591
  819TIP3   OH224091   3.043   4.939   1.363  0.3886 -0.0894 -0.2105
  819TIP3    H124092   2.972   4.961   1.303  0.0486 -0.6027  0.0054
  819TIP3    H224093   3.120   4.981   1.324 -0.1159  0.8964 -0.1763
  820TIP3   OH224094   6.725   0.167   0.795 -0.2389 -0.5915  0.5444
  820TIP3    H124095   6.694   0.227   0.726 -0.6679 -0.9025  0.4602
  820TIP3    H224096   6.775   0.100   0.748  2.1628  0.8809  0.8486
  821TIP3   OH224097   0.285   0.404   1.802 -0.1194  0.1783 -0.1425
  821TIP3    H124098   0.280   0.391   1.897  2.6317  1.7557  0.3216
  821TIP3    H224099   0.234   0.483   1.786  0.5125  0.6672  0.2372
  822TIP3   OH224100   3.838   4.855   1.212 -0.0481  0.2038 -0.0921
  822TIP3    H124101   3.813   4.912   1.285  0.2476 -1.3263  1.2843
  822TIP3    H224102   3.926   4.883   1.189 -0.3160  0.9991 -0.1714
  823TIP3   OH224103   5.236   5.673   7.072  0.0531  0.3897 -0.1905
  823TIP3    H124104   5.158   5.725   7.094 -0.5194 -0.5848  0.1596
  823TIP3    H224105   5.305   5.709   7.127 -0.2088  1.0935 -0.3085
  824TIP3   OH224106   6.582   5.528   2.064  0.1260  0.0919 -0.4571
  824TIP3    H124107   6.610   5.579   2.140  0.3557 -0.7942  0.0698
  824TIP3    H224108   6.489   5.550   2.054 -0.6993 -1.9277  1.8900
  825TIP3   OH224109   5.773   1.368   2.017 -0.3878 -0.6975 -0.3221
  825TIP3    H124110   5.719   1.302   2.060 -1.2161 -0.1549 -0.4994
  825TIP3    H224111   5.797   1.428   2.088  2.0307 -2.2163  0.2407
  826TIP3   OH224112   4.957   4.824   6.859  0.1010  0.0011  0.1152
  826TIP3    H124113   5.013   4.900   6.870 -0.8185  0.7134  0.0112
  826TIP3    H224114   4.894   4.850   6.792  0.8683 -1.5081 -1.2403
  827TIP3   OH224115   3.840   2.506   0.826 -0.1892 -0.1070 -0.7193
  827TIP3    H124116   3.836   2.491   0.732 -0.1718 -1.0980 -0.5734
  827TIP3    H224117   3.775   2.446   0.863  0.3029 -0.2490 -0.0469
  828TIP3   OH224118   2.626   2.536   8.245 -0.2099 -0.5553 -0.1639
  828TIP3    H124119   2.593   2.492   8.167  0.4191 -0.7944 -0.2952
  828TIP3    H224120   2.691   2.476   8.281 -1.1052 -0.8526  1.0308
  829TIP3   OH224121   6.435   0.493   8.055 -0.6924  0.0690  0.0193
  829TIP3    H124122   6.483   0.514   8.135 -1.0706  1.5161 -0.1103
  829TIP3    H224123   6.500   0.449   7.999  0.3697  1.5332  0.0493
  830TIP3   OH224124   6.737   6.239   7.807 -0.1847  0.3021  0.4002
  830TIP3    H124125   6.781   6.205   7.886  0.2151  2.6701  1.2917
  830TIP3    H224126   6.735   6.334   7.820  2.7964  1.2575 -3.8549
  831TIP3   OH224127   5.751   2.113   2.587  0.1924  0.0825 -0.0730
  831TIP3    H124128   5.674   2.063   2.560 -0.0065  0.4608 -0.2171
  831TIP3    H224129   5.721   2.163   2.663 -0.5937  2.4493 -1.8161
  832TIP3   OH224130   0.735   3.622   0.449 -0.2399 -0.1517 -0.3941
  832TIP3    H124131   0.676   3.603   0.522  0.8392 -0.4715  0.4258
  832TIP3    H224132   0.810   3.667   0.490 -0.0604  0.5648 -1.4527
  833TIP3   OH224133   3.933   4.534   0.719  0.1213 -0.1571 -0.5080
  833TIP3    H124134   3.843   4.526   0.749  0.3735 -1.2034  0.0475
  833TIP3    H224135   3.965   4.615   0.758 -0.4668  0.0419 -0.4312
  834TIP3   OH224136   3.556   5.092   0.278  0.3059 -1.1563 -0.1269
  834TIP3    H124137   3.488   5.154   0.251 -0.1482 -0.8442  1.6006
  834TIP3    H224138   3.519   5.006   0.259 -0.2557 -0.9678  0.0870
  835TIP3   OH224139   0.154   3.439   8.418 -0.3500  0.1954  0.1079
  835TIP3    H124140   0.092   3.392   8.473 -0.5256 -0.9366 -1.0319
  835TIP3    H224141   0.141   3.531   8.441  0.0704 -0.2685  2.4449
  836TIP3   OH224142   0.121   1.685   0.691  0.3506 -0.2445  0.1721
  836TIP3    H124143   0.125   1.729   0.776 -1.6841  0.7836 -0.1977
  836TIP3    H224144   0.115   1.756   0.628 -0.3357 -1.0044 -0.6522
  837TIP3   OH224145   0.317   5.810   6.452  0.1202 -0.2936  0.3109
  837TIP3    H124146   0.234   5.847   6.481  0.0182 -1.9018  2.2539
  837TIP3    H224147   0.349   5.760   6.527  2.3531 -0.5643 -0.7384
  838TIP3   OH224148   5.615   6.628   8.514  0.5076  0.0306 -0.1704
  838TIP3    H124149   5.692   6.683   8.526  0.2244  0.3739  0.0662
  838TIP3    H224150   5.651   6.544   8.483  1.0467 -0.1227  0.8316
  839TIP3   OH224151   1.405   5.349   1.023  0.1929  0.0565 -0.7772
  839TIP3    H124152   1.474   5.319   1.083 -0.7265  1.3530  1.0435
  839TIP3    H224153   1.336   5.283   1.032  0.3574 -0.1414 -0.9738
  840TIP3   OH224154   6.646   1.056   8.247  0.6859  0.1530 -0.1843
  840TIP3    H124155   6.606   1.098   8.171 -0.7498 -1.4700 -0.3911
  840TIP3    H224156   6.693   0.981   8.211  3.5349  1.6579  0.1307
  841TIP3   OH224157   6.583   5.846   0.842 -0.5811  0.4448 -0.4023
  841TIP3    H124158   6.520   5.897   0.792 -0.4480  0.5507 -0.4631
  841TIP3    H224159   6.593   5.894   0.924 -0.2208  0.6886 -0.5849
  842TIP3   OH224160   5.263   0.281   7.587  0.0834  0.6099 -0.4957
  842TIP3    H124161   5.295   0.307   7.673  0.8493 -1.9234  0.0499
  842TIP3    H224162   5.340   0.246   7.542 -0.5644  0.7547 -1.7858
  843TIP3   OH224163   0.202   5.110   1.231  0.0844 -0.4107  0.7749
  843TIP3    H124164   0.268   5.172   1.261 -0.1714  1.1046 -1.5750
  843TIP3    H224165   0.122   5.135   1.277  0.0763  0.7764  0.1316
  844TIP3   OH224166   5.549   6.701   8.193 -0.8954 -0.1318  0.0943
  844TIP3    H124167   5.610   6.658   8.254 -1.2330  0.2400  0.7080
  844TIP3    H224168   5.556   6.794   8.214 -0.8354  0.0283 -0.6109
  845TIP3   OH224169   2.129   6.925   8.039 -0.5912  0.1190 -0.0583
  845TIP3    H124170   2.165   6.874   7.967 -1.6917 -1.5018  0.4937
  845TIP3    H224171   2.162   7.014   8.024  1.1749 -0.6763 -1.1841
  846TIP3   OH224172   3.935   5.973   1.793 -0.2346 -0.2435  0.1529
  846TIP3    H124173   4.013   5.980   1.848  0.8427  1.0669 -1.4187
  846TIP3    H224174   3.968   5.939   1.709 -1.3906  0.0650 -0.4431
  847TIP3   OH224175   1.404   0.333   7.278  0.0413 -0.1096  0.1756
  847TIP3    H124176   1.389   0.291   7.193 -0.7775 -1.9797  1.1891
  847TIP3    H224177   1.472   0.399   7.261 -0.4571 -0.0948 -2.0059
  848TIP3   OH224178   6.061   4.935   7.831 -0.1696 -0.0526 -0.1905
  848TIP3    H124179   6.070   4.871   7.902 -1.1936 -0.3009 -0.2716
  848TIP3    H224180   6.134   4.996   7.844 -1.2553  0.8843  2.1113
  849TIP3   OH224181   4.294   1.252   2.056  0.6385 -0.2811 -0.3109
  849TIP3    H124182   4.214   1.222   2.014 -0.8761  1.7203  0.9480
  849TIP3    H224183   4.328   1.174   2.101 -0.4036 -1.2444 -1.1270
  850TIP3   OH224184   2.199   0.978   1.825  0.4938 -0.0971 -0.3098
  850TIP3    H124185   2.137   1.030   1.774 -2.2673  0.5658  3.2448
  850TIP3    H224186   2.253   1.043   1.870  0.2865 -0.4671  0.4877
  851TIP3   OH224187   0.956   2.980   0.804  0.2599 -0.2991 -0.2872
  851TIP3    H124188   1.010   3.010   0.730  0.0989  0.0129 -0.2820
  851TIP3    H224189   1.018   2.936   0.862  0.5890  0.4021 -0.0911
  852TIP3   OH224190   1.593   3.919   0.158  0.0843 -0.1542  0.4283
  852TIP3    H124191   1.636   3.841   0.192 -0.6774 -1.1430 -0.7668
  852TIP3    H224192   1.534   3.885   0.089 -0.4871  1.4376  0.1000
  853TIP3   OH224193   2.787   3.689   7.397 -0.1262  0.1104  0.0135
  853TIP3    H124194   2.834   3.737   7.328  2.1705  1.0314  2.0411
  853TIP3    H224195   2.747   3.758   7.450  2.6838 -0.0264  2.6002
  854TIP3   OH224196   2.315   5.199   0.213 -0.0777  0.6690 -0.2724
  854TIP3    H124197   2.393   5.246   0.243  0.5860 -0.4667 -0.1591
  854TIP3    H224198   2.249   5.267   0.201  0.6965  1.5619  0.3871
  855TIP3   OH224199   4.783   6.887   7.279 -0.2730 -0.0200 -0.4507
  855TIP3    H124200   4.699   6.932   7.289  0.5677  1.2215  1.7453
  855TIP3    H224201   4.828   6.934   7.209 -0.5590  0.7161 -0.1431
  856TIP3   OH224202   0.785   1.484   2.357 -0.2788 -0.1765 -0.0264
  856TIP3    H124203   0.828   1.461   2.275  2.9648  0.6388  1.2532
  856TIP3    H224204   0.791   1.580   2.361 -1.6143 -0.1041  0.5629
  857TIP3   OH224205   3.786   5.764   0.359  0.5892 -0.2025  0.2323
  857TIP3    H124206   3.868   5.736   0.319  0.2743 -0.8484  0.0104
  857TIP3    H224207   3.723   5.762   0.286  0.5055  0.8859  0.2616
  858TIP3   OH224208   6.278   2.310   8.124 -0.2952  0.4500 -0.2288
  858TIP3    H124209   6.294   2.225   8.082 -0.0185 -0.5445  1.7791
  858TIP3    H224210   6.195   2.339   8.087  0.0863 -0.2232 -1.6683
  859TIP3   OH224211   5.682   2.445   2.380 -0.0226 -0.4610  0.4058
  859TIP3    H124212   5.763   2.458   2.330  0.9229  0.4311  2.0961
  859TIP3    H224213   5.613   2.470   2.318  1.1453  1.4402 -0.2463
  860TIP3   OH224214   6.699   3.972   1.728  0.2894 -0.0024  0.0466
  860TIP3    H124215   6.760   3.917   1.680  0.5460  0.0928  0.2617
  860TIP3    H224216   6.689   4.051   1.675 -0.8279 -0.6542 -0.7473
  861TIP3   OH224217   5.295   6.359   1.689 -0.8669  0.2236 -0.1662
  861TIP3    H124218   5.236   6.375   1.615 -0.0081  2.5831 -0.4256
  861TIP3    H224219   5.383   6.370   1.653 -0.4006  0.3250  0.9628
  862TIP3   OH224220   0.301   0.961   7.301  0.2167 -0.2304 -0.0557
  862TIP3    H124221   0.211   0.930   7.286  0.4771 -0.8009 -0.4667
  862TIP3    H224222   0.296   1.011   7.382 -0.6905  0.6444 -0.6213
  863TIP3   OH224223   4.967   2.284   1.719  0.3431 -0.2004  0.2335
  863TIP3    H124224   4.875   2.308   1.724  0.9162  2.6465 -0.8342
  863TIP3    H224225   4.967   2.193   1.689 -2.1012 -0.0179 -0.4884
  864TIP3   OH224226   5.254   2.137   7.575  0.5170  0.4510  0.7083
  864TIP3    H124227   5.317   2.183   7.519  0.8364  0.3924  1.0192
  864TIP3    H224228   5.265   2.177   7.661  1.1304 -0.5226  1.0968
  865TIP3   OH224229   1.014   4.474   0.812 -0.0772  0.3003  0.3610
  865TIP3    H124230   0.977   4.561   0.799 -0.5246  0.1522  0.6387
  865TIP3    H224231   1.031   4.441   0.723  1.5163  1.2637  0.2621
  866TIP3   OH224232   3.385   6.340   2.919 -0.0966 -0.3333 -0.5033
  866TIP3    H124233   3.465   6.341   2.972  0.8995 -0.3974 -1.9440
  866TIP3    H224234   3.409   6.388   2.839 -0.9454 -1.8431 -1.7199
  867TIP3   OH224235   0.749   6.057   0.724  0.4106 -0.0921 -0.5146
  867TIP3    H124236   0.843   6.049   0.737  0.4913  1.8764  0.4287
  867TIP3    H224237   0.715   6.083   0.809 -0.3646  3.5857 -1.7646
  868TIP3   OH224238   0.148   2.683   7.354  0.1400 -0.5715 -0.3949
  868TIP3    H124239   0.191   2.718   7.432 -0.1978 -0.6999 -0.1500
  868TIP3    H224240   0.158   2.752   7.289 -1.7583  0.6310  0.4914
  869TIP3   OH224241   0.373   3.663   0.773  0.0439  0.2436 -0.2961
  869TIP3    H124242   0.292   3.613   0.787 -1.3400  2.2107 -0.8154
  869TIP3    H224243   0.362   3.704   0.687  0.7453  2.0018  0.3981
  870TIP3   OH224244   6.378   0.640   0.815  0.1782 -0.1100  0.2826
  870TIP3    H124245   6.444   0.675   0.756  0.9090  1.7460  2.0841
  870TIP3    H224246   6.424   0.630   0.899 -1.2078 -1.1792  0.9593
  871TIP3   OH224247   1.381   6.112   8.164 -0.1938  0.1279  0.0693
  871TIP3    H124248   1.328   6.155   8.231 -1.9302  0.4302 -1.4165
  871TIP3    H224249   1.329   6.037   8.137  1.1984 -0.8868  0.1456
  872TIP3   OH224250   3.504   1.394   0.692  0.0118 -0.8921 -0.3173
  872TIP3    H124251   3.578   1.424   0.743  0.4991  0.9073 -1.9583
  872TIP3    H224252   3.429   1.401   0.751  0.9460 -1.7268  1.0242
  873TIP3   OH224253   1.279   1.715   8.490 -0.3794 -0.5041  0.3199
  873TIP3    H124254   1.194   1.753   8.466  0.4777  2.0022  1.0250
  873TIP3    H224255   1.342   1.787   8.479  1.4611 -1.9121  1.1255
  874TIP3   OH224256   3.044   4.115   1.317  0.2732  0.2856 -0.1608
  874TIP3    H124257   3.107   4.083   1.252  1.1734  1.2566  0.2244
  874TIP3    H224258   3.096   4.160   1.383 -0.4862 -1.7802  1.9747
  875TIP3   OH224259   0.522   3.684   7.437  0.4278  0.0265  0.3967
  875TIP3    H124260   0.590   3.669   7.371 -0.8801 -4.2207 -0.2964
  875TIP3    H224261   0.545   3.627   7.509 -1.9694 -1.0406  0.4181
  876TIP3   OH224262   3.159   4.601   1.907  0.2113 -0.3708 -0.8099
  876TIP3    H124263   3.237   4.606   1.963 -1.1660 -1.8217  1.3944
  876TIP3    H224264   3.121   4.516   1.927 -2.1463  0.4388 -1.5281
  877TIP3   OH224265   2.150   1.439   7.306 -0.0106  0.5737  0.1451
  877TIP3    H124266   2.232   1.423   7.354  1.2873  0.7088 -1.9036
  877TIP3    H224267   2.154   1.531   7.280 -1.3144  0.8569  0.8508
  878TIP3   OH224268   1.028   5.385   0.172 -0.2083 -0.3609 -0.2351
  878TIP3    H124269   0.948   5.375   0.121  0.4472 -2.3097 -0.9826
  878TIP3    H224270   1.039   5.300   0.216  0.5386  0.4529  1.2528
  879TIP3   OH224271   5.830   1.202   7.364  0.2094  0.1874 -0.3814
  879TIP3    H124272   5.803   1.250   7.285 -0.2942  0.1782 -0.2200
  879TIP3    H224273   5.923   1.222   7.374  0.4699 -0.4263 -1.4116
  880TIP3   OH224274   3.767   1.016   0.999  0.4555 -0.0667  0.0797
  880TIP3    H124275   3.794   1.004   1.090  0.4555  0.6343  0.1770
  880TIP3    H224276   3.757   0.927   0.965  1.8623 -0.3436  0.3372
  881TIP3   OH224277   2.813   1.334   8.398 -0.1218 -0.2398  0.7705
  881TIP3    H124278   2.886   1.347   8.337 -1.9157  1.8525 -1.1785
  881TIP3    H224279   2.745   1.293   8.344 -1.9549  2.1642  1.0906
  882TIP3   OH224280   6.877   5.359   0.148  0.0147  0.6597  0.0031
  882TIP3    H124281   6.878   5.301   0.072 -0.2191 -0.4744  0.8449
  882TIP3    H224282   6.787   5.392   0.151 -1.0147 -2.0047  1.7371
  883TIP3   OH224283   0.263   0.884   7.764 -0.6779 -0.1960 -0.2844
  883TIP3    H124284   0.292   0.800   7.729  0.9303  0.1876  0.0684
  883TIP3    H224285   0.178   0.865   7.804  0.0786 -1.8940  0.6377
  884TIP3   OH224286   1.222   1.639   7.893 -0.3092 -0.2124  0.0473
  884TIP3    H124287   1.291   1.678   7.947 -0.7761  1.0556 -0.2547
  884TIP3    H224288   1.213   1.550   7.928 -1.0643  0.7446  2.5561
  885TIP3   OH224289   1.734   1.671   6.754 -0.0526 -0.5892  0.1330
  885TIP3    H124290   1.786   1.733   6.703 -0.1301 -1.0203 -0.4823
  885TIP3    H224291   1.725   1.712   6.840 -1.5316  1.0610 -0.7514
  886TIP3   OH224292   2.544   5.703   7.135 -0.4587 -0.4553 -0.3057
  886TIP3    H124293   2.618   5.676   7.189 -2.8791 -1.5621  2.7621
  886TIP3    H224294   2.537   5.636   7.067  0.3616 -1.2199  0.3509
  887TIP3   OH224295   1.623   3.986   6.751 -0.4169 -0.5660 -0.2065
  887TIP3    H124296   1.542   3.936   6.763 -0.5449 -0.4937 -0.7385
  887TIP3    H224297   1.593   4.075   6.731 -0.2192 -0.7721 -1.4436
  888TIP3   OH224298   2.211   2.449   0.213  0.0318 -0.1522 -0.6655
  888TIP3    H124299   2.283   2.471   0.271  0.5502 -1.0352 -0.9606
  888TIP3    H224300   2.170   2.534   0.193  0.1204  0.2125  0.6020
  889TIP3   OH224301   5.847   1.919   1.278  0.1243 -0.0934  1.0107
  889TIP3    H124302   5.804   1.886   1.199  0.5246 -0.0330  0.7595
  889TIP3    H224303   5.851   2.014   1.265  2.0907 -0.2404  0.0839
  890TIP3   OH224304   3.786   5.134   1.178 -0.2147  0.3556 -0.2645
  890TIP3    H124305   3.707   5.086   1.203 -0.1146  0.3718  0.0903
  890TIP3    H224306   3.759   5.225   1.176 -0.3735  0.2990 -0.8133
  891TIP3   OH224307   3.335   6.720   0.407  1.0208  0.0557  0.2215
  891TIP3    H124308   3.313   6.697   0.317  0.2020  1.6220 -0.0066
  891TIP3    H224309   3.265   6.682   0.459  0.9371  0.0321  0.0910
  892TIP3   OH224310   4.769   5.472   2.778 -0.2862 -0.4011  0.1806
  892TIP3    H124311   4.777   5.432   2.692  0.6629  0.0802  0.0201
  892TIP3    H224312   4.742   5.562   2.760  2.1361  0.4040  0.1777
  893TIP3   OH224313   3.132   1.017   1.456 -0.1996 -0.2075 -0.0762
  893TIP3    H124314   3.224   0.998   1.438 -0.0276 -1.1403  1.5748
  893TIP3    H224315   3.125   1.112   1.447  0.7389 -0.2063 -0.9654
  894TIP3   OH224316   1.003   1.359   6.359 -0.2242 -0.7799  0.2955
  894TIP3    H124317   1.059   1.382   6.433 -0.4608 -0.9186  0.5191
  894TIP3    H224318   0.991   1.441   6.311  1.2276 -1.0002 -0.4883
  895TIP3   OH224319   4.358   0.332   7.476  0.3366 -0.0998 -0.3096
  895TIP3    H124320   4.285   0.384   7.441 -0.1348 -1.0218 -0.7344
  895TIP3    H224321   4.436   0.373   7.438 -0.1178 -0.5938 -1.8658
  896TIP3   OH224322   6.202   6.648   1.317 -0.2982  0.6447  0.5539
  896TIP3    H124323   6.248   6.690   1.390 -1.2143  0.6275  1.1624
  896TIP3    H224324   6.269   6.633   1.251  0.3137  1.7933  0.8974
  897TIP3   OH224325   4.057   2.889   8.236  0.0823 -0.2553 -0.8852
  897TIP3    H124326   4.002   2.867   8.160 -0.8336 -0.3551 -0.2062
  897TIP3    H224327   4.071   2.983   8.229  0.4848 -0.3505 -1.4836
  898TIP3   OH224328   2.976   3.615   1.595  0.2640  0.0102 -0.0198
  898TIP3    H124329   3.023   3.691   1.562 -0.9459  0.7367 -0.1547
  898TIP3    H224330   3.016   3.540   1.550 -1.9228  0.9751 -4.1577
  899TIP3   OH224331   5.613   6.621   7.343  0.3034 -0.0299 -0.1545
  899TIP3    H124332   5.609   6.705   7.299  2.4685 -0.0211 -0.4671
  899TIP3    H224333   5.632   6.558   7.273 -1.1359 -0.7744  0.0941
  900TIP3   OH224334   0.651   0.601   1.558 -0.0225 -0.7319 -0.0207
  900TIP3    H124335   0.580   0.571   1.500 -0.8118  1.6680 -0.3881
  900TIP3    H224336   0.731   0.573   1.514 -0.6773 -1.1134 -0.9975
  901TIP3   OH224337   6.535   1.360   0.340 -0.1258  0.4541 -0.5020
  901TIP3    H124338   6.606   1.327   0.284  0.6638 -0.9706  1.2404
  901TIP3    H224339   6.580   1.410   0.408 -0.8313  0.0529  0.2743
  902TIP3   OH224340   1.224   2.110   1.341  0.1180 -0.2709 -0.2210
  902TIP3    H124341   1.267   2.100   1.257 -1.6661 -0.5368 -1.1492
  902TIP3    H224342   1.243   2.200   1.367  1.6997 -0.5648 -0.2905
  903TIP3   OH224343   0.393   4.037   2.164 -0.6996 -0.0026  0.1215
  903TIP3    H124344   0.477   3.991   2.156 -1.6448 -1.4592 -2.8638
  903TIP3    H224345   0.343   3.986   2.228  0.3264  0.3979  1.2925
  904TIP3   OH224346   6.208   3.349   1.969 -0.2737  0.1270 -0.4120
  904TIP3    H124347   6.242   3.439   1.968 -0.9857  0.4072 -0.1770
  904TIP3    H224348   6.281   3.297   2.002  0.2363  0.5811 -0.8046
  905TIP3   OH224349   1.065   3.901   0.368 -0.7083  0.2581  0.2613
  905TIP3    H124350   1.092   3.869   0.455  0.8270  1.9014  0.4631
  905TIP3    H224351   1.132   3.867   0.309  0.3028  2.0098  0.3162
  906TIP3   OH224352   0.628   1.902   1.886  0.2030  0.0893  0.0794
  906TIP3    H124353   0.682   1.853   1.948  0.2707 -0.3976 -0.3544
  906TIP3    H224354   0.615   1.842   1.813  0.0435  0.6196 -0.3366
  907TIP3   OH224355   6.242   1.998   8.423 -0.0782  0.4325  0.0928
  907TIP3    H124356   6.317   2.057   8.431 -0.2350  0.5572  0.7775
  907TIP3    H224357   6.280   1.912   8.410  0.2016  0.4536  0.7202
  908TIP3   OH224358   1.661   2.217   0.653 -0.5438 -0.4788  0.6293
  908TIP3    H124359   1.679   2.282   0.585 -2.5589  0.9029  1.3050
  908TIP3    H224360   1.595   2.160   0.615 -1.2771 -0.0303  1.1953
  909TIP3   OH224361   5.414   3.155   1.414  0.6551  0.1706  0.5123
  909TIP3    H124362   5.386   3.234   1.460 -1.9562 -0.1290 -0.3460
  909TIP3    H224363   5.399   3.084   1.478  3.1484  0.2916  1.3404
  910TIP3   OH224364   3.962   4.455   8.290  0.0292 -0.3858  0.4274
  910TIP3    H124365   3.969   4.405   8.208 -0.0802 -0.4284  0.4439
  910TIP3    H224366   4.050   4.489   8.305  0.2813 -1.1711  0.7938
  911TIP3   OH224367   0.082   5.535   2.512  0.1716 -0.4490  0.5214
  911TIP3    H124368   0.150   5.483   2.555  1.2118 -0.4591 -1.0504
  911TIP3    H224369   0.004   5.521   2.565  1.1606 -1.1817  1.8578
  912TIP3   OH224370   1.593   4.625   2.797  0.4320 -0.3906  0.0135
  912TIP3    H124371   1.542   4.544   2.789 -2.0342  1.1459 -0.8537
  912TIP3    H224372   1.617   4.629   2.890 -1.4621 -0.9830  0.5777
  913TIP3   OH224373   3.711   2.165   0.588 -0.1712 -0.0423 -0.0666
  913TIP3    H124374   3.683   2.076   0.565  0.2275 -0.1432 -0.1802
  913TIP3    H224375   3.662   2.186   0.667  1.7102 -1.4403  1.5704
  914TIP3   OH224376   1.089   3.784   0.974  0.3226  0.2120 -0.1515
  914TIP3    H124377   1.134   3.803   1.056 -1.3735 -1.1968  1.1914
  914TIP3    H224378   0.997   3.803   0.993 -0.1091 -0.1443 -1.7487
  915TIP3   OH224379   3.110   6.529   0.346 -0.2126 -0.3586 -0.0532
  915TIP3    H124380   3.081   6.528   0.255  0.4320 -0.1914 -0.2683
  915TIP3    H224381   3.163   6.450   0.356  1.2615  0.5321 -0.3673
  916TIP3   OH224382   2.882   5.749   2.761 -0.1488  0.1461  0.2535
  916TIP3    H124383   2.873   5.693   2.684 -0.9926  1.5833 -0.7476
  916TIP3    H224384   2.957   5.713   2.808 -0.8381 -1.9697 -0.1852
  917TIP3   OH224385   3.869   3.363   2.365 -0.3993 -0.5756  0.1456
  917TIP3    H124386   3.873   3.403   2.452 -1.1686 -0.5711  0.1835
  917TIP3    H224387   3.803   3.295   2.373 -0.8917 -0.1968 -0.5904
  918TIP3   OH224388   0.669   2.702   1.142 -0.3043 -0.0538 -0.1569
  918TIP3    H124389   0.653   2.781   1.090 -2.1928 -1.8081 -2.4462
  918TIP3    H224390   0.712   2.642   1.082  0.2909 -1.1166  1.2759
  919TIP3   OH224391   4.468   5.718   0.892  0.0246  0.0945 -0.0407
  919TIP3    H124392   4.536   5.675   0.943  0.0067 -0.1759 -0.2428
  919TIP3    H224393   4.388   5.708   0.944 -0.2915 -1.4477 -0.7832
  920TIP3   OH224394   5.131   3.182   2.626  0.2052  0.6466 -0.2126
  920TIP3    H124395   5.035   3.188   2.626  0.1625  0.3562 -1.8838
  920TIP3    H224396   5.156   3.203   2.716 -1.4549  0.2442  0.3862
  921TIP3   OH224397   5.086   5.664   8.141  0.8303 -0.0461 -0.7765
  921TIP3    H124398   5.171   5.668   8.099  0.7524  1.5039 -0.8256
  921TIP3    H224399   5.034   5.606   8.085  1.0936  1.0135 -2.1433
  922TIP3   OH224400   1.291   1.484   0.100  0.4365  0.5216 -0.9197
  922TIP3    H124401   1.248   1.454   0.020  0.6977 -1.2421 -0.4535
  922TIP3    H224402   1.289   1.579   0.095 -0.8168  0.4525 -2.3389
  923TIP3   OH224403   0.997   6.347   0.309 -0.3728 -0.5469 -0.0523
  923TIP3    H124404   1.069   6.358   0.247  0.0546 -0.6581  0.4226
  923TIP3    H224405   0.948   6.273   0.275  1.1976 -2.1367  1.0141
  924TIP3   OH224406   0.606   4.493   0.358 -0.2449 -0.4302 -0.3180
  924TIP3    H124407   0.571   4.404   0.348  0.0239 -0.5256 -0.4274
  924TIP3    H224408   0.572   4.541   0.282  2.8781 -1.4972 -2.6354
  925TIP3   OH224409   3.324   3.099   2.386  0.4930 -0.0505  0.1705
  925TIP3    H124410   3.357   3.013   2.358 -0.5927 -0.4999  0.2158
  925TIP3    H224411   3.229   3.094   2.371  0.2316  0.6457  1.4719
  926TIP3   OH224412   6.153   4.718   0.869 -0.8811 -0.0336 -0.2745
  926TIP3    H124413   6.191   4.639   0.830 -0.3418  0.3767 -0.6118
  926TIP3    H224414   6.096   4.686   0.939 -0.0513 -0.6911  0.1252
  927TIP3   OH224415   5.622   6.548   0.844 -0.4719  0.6867 -0.7176
  927TIP3    H124416   5.591   6.560   0.755 -0.3324 -0.5342 -0.9499
  927TIP3    H224417   5.619   6.453   0.858 -1.2932  0.9153  0.8640
  928TIP3   OH224418   2.635   5.506   1.154  0.3275  0.0576  0.3594
  928TIP3    H124419   2.573   5.433   1.157  0.4482 -0.2011 -1.7046
  928TIP3    H224420   2.721   5.464   1.155  0.4176  0.2476  0.4952
  929TIP3   OH224421   4.528   6.356   0.730 -0.0732 -0.3695 -0.4355
  929TIP3    H124422   4.599   6.320   0.783  0.7234  0.0927 -1.1658
  929TIP3    H224423   4.544   6.320   0.642 -1.0933 -0.7423 -0.4769
  930TIP3   OH224424   0.648   3.944   0.583  0.0539 -0.0846  0.1039
  930TIP3    H124425   0.616   3.948   0.493 -0.5741 -0.8952  0.2766
  930TIP3    H224426   0.697   4.025   0.595 -0.4104  0.3354 -0.7549
  931TIP3   OH224427   1.006   0.944   7.406 -0.2199  0.0298  0.1596
  931TIP3    H124428   1.013   0.943   7.502  0.5823  2.5117  0.1972
  931TIP3    H224429   0.949   1.018   7.387  2.8794  2.2829 -1.3050
  932TIP3   OH224430   0.252   0.653   1.624 -0.1525 -0.7980 -0.2278
  932TIP3    H124431   0.176   0.672   1.568 -0.7895 -0.4418  0.7238
  932TIP3    H224432   0.217   0.660   1.713  0.8887 -1.1523  0.2130
  933TIP3   OH224433   2.884   4.176   0.128  0.3282  0.1752 -0.1808
  933TIP3    H124434   2.832   4.237   0.077  0.1775 -0.1179 -0.3777
  933TIP3    H224435   2.909   4.225   0.206 -0.6051  0.1848  0.1244
  934TIP3   OH224436   4.322   4.321   0.084  0.2568  0.1824  0.0093
  934TIP3    H124437   4.229   4.332   0.105  0.0230 -1.0207 -0.3300
  934TIP3    H224438   4.345   4.400   0.035 -0.0463  1.4580  1.8216
  935TIP3   OH224439   1.380   5.568   7.543  0.0223  0.1811  0.3183
  935TIP3    H124440   1.365   5.493   7.486 -0.4675 -0.1366  0.8398
  935TIP3    H224441   1.413   5.637   7.486 -0.0299 -0.2688 -0.2585
  936TIP3   OH224442   6.208   6.921   8.378  0.0325  0.2154 -0.3570
  936TIP3    H124443   6.127   6.928   8.328 -1.1527  0.7264  1.5545
  936TIP3    H224444   6.270   6.979   8.332 -0.8766  0.3715 -1.4259
  937TIP3   OH224445   5.938   3.623   7.898 -0.0643  0.1361 -0.0792
  937TIP3    H124446   5.881   3.699   7.886 -0.3845  0.5656  3.1840
  937TIP3    H224447   6.025   3.654   7.874  0.1134  2.2242  2.7490
  938TIP3   OH224448   4.443   0.434   1.958  0.4936 -0.1443  0.4031
  938TIP3    H124449   4.478   0.479   2.035  2.0612 -1.4734  0.5134
  938TIP3    H224450   4.487   0.477   1.884  0.3169 -0.0322  0.3630
  939TIP3   OH224451   5.391   4.468   8.465 -0.2337  0.2778  0.4593
  939TIP3    H124452   5.484   4.450   8.458 -0.1100  0.6970  0.9379
  939TIP3    H224453   5.356   4.393   8.514 -0.3483 -0.4268 -0.6579
  940TIP3   OH224454   0.411   4.479   1.576  0.3862  0.6373 -0.1731
  940TIP3    H124455   0.466   4.403   1.557  2.3842  2.4851 -2.5447
  940TIP3    H224456   0.322   4.445   1.576  1.2172 -1.7678 -0.6096
  941TIP3   OH224457   5.640   6.273   0.517  0.0112 -0.3262 -0.1948
  941TIP3    H124458   5.685   6.298   0.437  0.3806  0.3353  0.2208
  941TIP3    H224459   5.580   6.203   0.489 -1.3819  1.2787 -1.4689
  942TIP3   OH224460   1.577   2.522   7.499  0.2421 -0.0759 -0.3323
  942TIP3    H124461   1.560   2.470   7.578 -0.2638 -0.3092 -0.5931
  942TIP3    H224462   1.545   2.610   7.521 -3.0059 -0.8735 -1.3942
  943TIP3   OH224463   0.403   0.244   0.594  0.5174 -0.3112  0.6619
  943TIP3    H124464   0.451   0.172   0.634  0.0894 -1.0563 -0.1433
  943TIP3    H224465   0.325   0.203   0.555  1.2968  0.2422 -1.6388
  944TIP3   OH224466   6.149   6.023   0.769 -0.0709 -0.3646 -0.3559
  944TIP3    H124467   6.073   5.992   0.819 -1.1380 -0.2610 -1.8464
  944TIP3    H224468   6.124   6.110   0.739 -0.4148 -1.2759 -2.9219
  945TIP3   OH224469   2.220   1.861   0.559 -0.4473 -0.2233  0.1587
  945TIP3    H124470   2.181   1.912   0.489 -3.0208  0.1197  1.7272
  945TIP3    H224471   2.267   1.925   0.612 -0.7542 -0.0440  0.2149
  946TIP3   OH224472   3.129   3.681   2.267  0.0552 -0.0321  0.1903
  946TIP3    H124473   3.159   3.620   2.334  0.0910  0.4022  0.5743
  946TIP3    H224474   3.060   3.732   2.310 -0.2374 -0.0556 -0.2419
  947TIP3   OH224475   1.221   3.140   0.921 -0.1890  0.2574  0.1449
  947TIP3    H124476   1.249   3.077   0.856 -1.2625  1.6378 -1.7667
  947TIP3    H224477   1.270   3.118   1.000 -0.1962 -2.6164 -0.5697
  948TIP3   OH224478   6.317   5.067   2.603 -0.1786 -0.0029 -0.2796
  948TIP3    H124479   6.281   4.980   2.617  0.0015  0.0987  0.8879
  948TIP3    H224480   6.410   5.060   2.626  0.1371  0.2060 -1.3994
  949TIP3   OH224481   2.201   3.832   1.642  0.6149  0.3055  0.1509
  949TIP3    H124482   2.266   3.884   1.689  0.2568  0.1618  0.8201
  949TIP3    H224483   2.158   3.779   1.710  0.8193 -0.7040 -0.4794
  950TIP3   OH224484   2.781   4.037   8.015 -0.2617  0.4747 -0.0449
  950TIP3    H124485   2.803   3.985   8.092 -0.7973  1.0097  0.4741
  950TIP3    H224486   2.863   4.042   7.965 -0.0386 -0.2801  0.2440
  951TIP3   OH224487   0.254   0.474   6.754 -0.2546  0.0147  0.1971
  951TIP3    H124488   0.286   0.427   6.678 -0.2532  1.8115 -0.9645
  951TIP3    H224489   0.333   0.501   6.802 -0.2149  0.0034  0.1370
  952TIP3   OH224490   4.037   5.331   1.583  0.2073 -0.2660  0.1603
  952TIP3    H124491   4.132   5.341   1.586  0.0632  1.3159 -0.0591
  952TIP3    H224492   4.006   5.372   1.664 -0.5389  2.9404 -1.5997
  953TIP3   OH224493   2.328   5.175   6.985  0.2431  0.3592 -0.5312
  953TIP3    H124494   2.270   5.101   6.999 -0.4474  1.0408  0.3919
  953TIP3    H224495   2.416   5.138   6.988 -0.0563 -0.3234  0.7657
  954TIP3   OH224496   0.745   5.932   8.530 -0.0210  0.0891  0.4761
  954TIP3    H124497   0.767   5.848   8.570  1.2861 -0.1612 -0.7175
  954TIP3    H224498   0.766   5.997   8.597 -0.2466 -0.4725  1.0992
  955TIP3   OH224499   5.914   5.671   2.386 -0.7744 -0.5339 -0.2977
  955TIP3    H124500   5.838   5.676   2.444 -0.6025  1.6735 -0.1585
  955TIP3    H224501   5.911   5.753   2.336  1.9491  0.0386  0.3140
  956TIP3   OH224502   5.842   3.491   2.385 -0.1069  0.0744  0.6341
  956TIP3    H124503   5.847   3.401   2.354  0.2397 -0.0928  1.1594
  956TIP3    H224504   5.753   3.500   2.419 -0.5462  0.3082 -0.5176
  957TIP3   OH224505   0.047   2.841   1.724 -0.0204 -0.1158 -0.3719
  957TIP3    H124506   0.020   2.749   1.716  0.2007 -0.2478  0.3499
  957TIP3    H224507   0.039   2.860   1.817 -0.2967  0.6772 -0.5537
  958TIP3   OH224508   6.421   6.040   0.740  0.6045 -0.0657 -0.0444
  958TIP3    H124509   6.326   6.035   0.733  0.6358 -2.7089  0.2649
  958TIP3    H224510   6.449   6.084   0.660 -0.8277  0.0211 -0.5266
  959TIP3   OH224511   1.583   6.901   8.499  0.7718  0.1280  0.5895
  959TIP3    H124512   1.665   6.900   8.450  1.0946  0.6994  1.0953
  959TIP3    H224513   1.587   6.982   8.551 -0.0281  0.0727  0.7621
  960TIP3   OH224514   4.664   3.688   0.356  0.2230  0.5591 -0.0554
  960TIP3    H124515   4.683   3.749   0.285 -1.5326  0.4078 -0.7178
  960TIP3    H224516   4.747   3.677   0.402  1.1737  1.4186 -1.4944
  961TIP3   OH224517   0.350   6.294   7.877  0.5130  0.2124  1.0345
  961TIP3    H124518   0.393   6.220   7.919  0.3273 -0.3834  0.1986
  961TIP3    H224519   0.273   6.256   7.834  1.8392  0.3621 -1.7019
  962TIP3   OH224520   4.236   5.540   0.617 -0.1927  0.1574 -0.0129
  962TIP3    H124521   4.212   5.514   0.528  1.8153  0.5554 -0.7340
  962TIP3    H224522   4.175   5.609   0.640 -0.5910  0.2020 -1.1749
  963TIP3   OH224523   3.701   4.200   7.166  0.2898 -0.0338 -0.3040
  963TIP3    H124524   3.771   4.261   7.187 -0.3615  0.0353  1.9210
  963TIP3    H224525   3.636   4.253   7.119  1.2489  0.1288 -1.4847
  964TIP3   OH224526   1.464   0.937   0.900 -0.4210 -0.4144  0.5186
  964TIP3    H124527   1.445   0.858   0.950  0.9500 -0.3784  1.1446
  964TIP3    H224528   1.419   1.007   0.948 -1.1916 -0.7151  0.2599
  965TIP3   OH224529   1.139   3.362   0.098 -0.9256 -0.3714  0.2371
  965TIP3    H124530   1.167   3.450   0.124  0.4708 -0.1892 -1.6879
  965TIP3    H224531   1.078   3.376   0.026  0.2731 -0.9551 -0.9395
  966TIP3   OH224532   0.986   5.869   2.227 -0.1005  0.3689  0.2832
  966TIP3    H124533   0.998   5.930   2.154  0.1950 -0.5454 -0.4544
  966TIP3    H224534   0.913   5.905   2.277 -0.9766  0.4944 -1.0282
  967TIP3   OH224535   6.910   2.663   2.135  0.2203 -0.3187  0.0756
  967TIP3    H124536   6.917   2.658   2.230  1.4742  0.7182  0.0645
  967TIP3    H224537   6.979   2.605   2.103  1.7401  1.5199 -0.1435
  968TIP3   OH224538   3.991   0.545   1.349 -0.0389 -0.3058  0.2080
  968TIP3    H124539   4.027   0.558   1.262 -0.5234  0.8833  0.1665
  968TIP3    H224540   3.983   0.450   1.358 -0.2449 -0.4278 -1.1472
  969TIP3   OH224541   0.218   1.349   7.377 -0.1379 -0.4331 -0.2625
  969TIP3    H124542   0.277   1.348   7.453  1.6128 -0.5498 -1.5416
  969TIP3    H224543   0.277   1.350   7.302 -1.8155 -0.9738 -1.6463
  970TIP3   OH224544   2.691   0.987   1.383 -0.5899  1.1633  0.3967
  970TIP3    H124545   2.770   1.010   1.335 -0.2649  0.2710  0.4811
  970TIP3    H224546   2.721   0.927   1.451 -1.3219  0.9101  0.5047
  971TIP3   OH224547   1.832   1.497   8.377 -0.1321 -0.1653  0.0228
  971TIP3    H124548   1.892   1.546   8.432  0.2155  0.0393 -0.5266
  971TIP3    H224549   1.847   1.405   8.401  0.4063 -0.1177 -0.1044
  972TIP3   OH224550   0.763   4.485   0.571  1.0325 -0.1542  0.5202
  972TIP3    H124551   0.833   4.539   0.533  0.3418 -0.6819 -1.6622
  972TIP3    H224552   0.697   4.480   0.502 -2.0895  1.8035  3.0916
  973TIP3   OH224553   0.887   1.368   2.094  0.7028 -0.0307 -0.3604
  973TIP3    H124554   0.968   1.336   2.052  0.1008 -2.7908  0.3686
  973TIP3    H224555   0.819   1.348   2.030  0.1282 -1.6253  0.7137
  974TIP3   OH224556   1.281   3.877   7.553 -0.5756  0.0335  0.2215
  974TIP3    H124557   1.231   3.827   7.617  0.0526 -0.9629 -0.0461
  974TIP3    H224558   1.221   3.890   7.480 -0.9558  0.2554  0.5727
  975TIP3   OH224559   3.131   0.213   1.579  0.9839 -0.2113 -0.2572
  975TIP3    H124560   3.058   0.273   1.588  0.0458 -1.4182  0.5976
  975TIP3    H224561   3.120   0.151   1.652  3.2040 -0.0648  0.2746
  976TIP3   OH224562   4.024   3.132   2.065  0.3329 -1.0042 -0.1422
  976TIP3    H124563   4.012   3.227   2.058 -0.4404 -1.1772 -1.6657
  976TIP3    H224564   3.970   3.106   2.139 -0.1904 -0.3764 -0.2963
  977TIP3   OH224565   5.877   2.960   7.416 -0.7435 -0.0808 -0.5250
  977TIP3    H124566   5.878   2.992   7.506 -0.3377 -1.3883 -0.0461
  977TIP3    H224567   5.876   3.039   7.362  0.6213  0.7487  0.6065
  978TIP3   OH224568   6.723   3.846   1.319 -0.0635  0.2720  0.7996
  978TIP3    H124569   6.776   3.840   1.398 -2.7632 -1.8337  2.6598
  978TIP3    H224570   6.730   3.759   1.279 -2.4408 -0.2954  1.4536
  979TIP3   OH224571   2.582   4.679   0.516  0.3806 -0.2958  0.1673
  979TIP3    H124572   2.495   4.689   0.478  2.0503  0.8773 -3.9444
  979TIP3    H224573   2.588   4.747   0.583 -1.8811 -0.5189  0.6501
  980TIP3   OH224574   1.809   1.152   1.861  0.5005  0.2421 -0.2695
  980TIP3    H124575   1.760   1.080   1.901  1.4599 -0.4566 -0.3164
  980TIP3    H224576   1.891   1.155   1.911  0.6295  1.0521 -0.5238
  981TIP3   OH224577   0.602   0.917   7.246 -0.0202 -0.8808 -0.3461
  981TIP3    H124578   0.552   0.862   7.306 -0.5122 -1.3328 -1.1489
  981TIP3    H224579   0.548   0.995   7.235 -0.0860 -0.9388 -0.4420
  982TIP3   OH224580   0.266   4.111   8.244 -0.0378 -0.2844  0.0357
  982TIP3    H124581   0.350   4.139   8.208 -0.1605 -1.6064 -1.3921
  982TIP3    H224582   0.203   4.176   8.215 -0.0395 -1.0408 -1.7744
  983TIP3   OH224583   2.330   3.825   1.006  0.3164 -0.0069 -0.1401
  983TIP3    H124584   2.385   3.807   1.083 -1.7240 -0.3264  1.3334
  983TIP3    H224585   2.294   3.912   1.022  1.2212  0.6818 -1.6437
  984TIP3   OH224586   4.415   1.061   1.543  0.6487 -0.0969  0.3465
  984TIP3    H124587   4.417   1.019   1.457 -0.0487 -0.7537  0.6425
  984TIP3    H224588   4.392   0.991   1.604 -0.1867  0.6291  0.8886
  985TIP3   OH224589   4.524   2.547   7.737  0.0584 -0.1104 -0.1717
  985TIP3    H124590   4.585   2.513   7.672  0.6545 -0.5581  0.6022
  985TIP3    H224591   4.574   2.615   7.783  0.0871 -0.6768  0.6532
  986TIP3   OH224592   2.613   5.974   2.056 -0.9020  0.5906 -0.3165
  986TIP3    H124593   2.652   6.042   2.112 -0.4290  1.2147 -1.3676
  986TIP3    H224594   2.688   5.923   2.025 -1.2177 -0.1451  0.1151
  987TIP3   OH224595   1.702   1.809   0.955  0.0818  0.1812  0.1408
  987TIP3    H124596   1.692   1.714   0.956  0.1016  0.1802  0.2816
  987TIP3    H224597   1.687   1.834   0.864 -0.0538  0.0565  0.1280
  988TIP3   OH224598   4.331   6.325   6.869 -0.1055 -0.1219 -0.3677
  988TIP3    H124599   4.324   6.229   6.867  1.4441 -0.3358  1.3227
  988TIP3    H224600   4.423   6.342   6.848  0.2084  0.8066  1.5275
  989TIP3   OH224601   3.346   1.098   0.256 -0.3651  0.5212  0.3554
  989TIP3    H124602   3.441   1.102   0.244  0.0850  0.6788  3.2330
  989TIP3    H224603   3.333   1.026   0.317 -2.2535 -0.1768 -0.7704
  990TIP3   OH224604   0.490   2.055   8.459 -0.2495  0.4548 -0.1614
  990TIP3    H124605   0.460   1.969   8.432  1.2387 -0.3869  0.7622
  990TIP3    H224606   0.409   2.106   8.469 -1.2904 -1.3054  0.8550
  991TIP3   OH224607   3.859   4.709   2.386 -0.2354  0.0334 -0.3920
  991TIP3    H124608   3.820   4.792   2.412 -1.7213 -1.2028  1.5924
  991TIP3    H224609   3.789   4.645   2.396  0.4544 -1.3251 -3.1937
  992TIP3   OH224610   0.087   6.898   1.476  0.3567  0.5788  0.0842
  992TIP3    H124611   0.045   6.818   1.506  1.8385 -0.4175 -0.3731
  992TIP3    H224612   0.072   6.961   1.547 -1.0324 -0.0026  0.3469
  993TIP3   OH224613   3.716   3.778   8.444  0.2840 -0.4996  0.0495
  993TIP3    H124614   3.667   3.750   8.367 -0.3253  2.6651 -0.8767
  993TIP3    H224615   3.648   3.798   8.509  0.5281  0.7758 -0.0738
  994TIP3   OH224616   3.077   0.851   0.919 -0.3971  0.1223  0.6219
  994TIP3    H124617   3.014   0.779   0.916  0.6684 -0.8056 -0.0754
  994TIP3    H224618   3.131   0.833   0.996  0.0420  0.0322  0.2934
  995TIP3   OH224619   3.423   6.647   2.009 -0.1581  0.5126  0.3538
  995TIP3    H124620   3.425   6.740   1.988  0.3113  0.2156 -0.9900
  995TIP3    H224621   3.377   6.642   2.094 -1.4487  1.8278 -0.2333
  996TIP3   OH224622   1.676   5.574   1.002  0.6977 -0.2853 -0.1060
  996TIP3    H124623   1.724   5.543   1.079  0.1550 -0.2854  0.2455
  996TIP3    H224624   1.698   5.667   0.997  0.5472 -0.2293  0.2006
  997TIP3   OH224625   3.927   4.174   1.007  0.1209  0.0161 -0.0415
  997TIP3    H124626   3.842   4.171   0.965  0.7331 -0.7202 -1.2648
  997TIP3    H224627   3.912   4.137   1.094 -0.4177 -2.0752 -0.9666
  998TIP3   OH224628   3.844   3.706   0.552 -0.7233 -0.3429  0.0455
  998TIP3    H124629   3.761   3.753   0.554 -0.4259  0.2114 -0.2458
  998TIP3    H224630   3.841   3.648   0.628 -0.9081  0.4949  0.6961
  999TIP3   OH224631   2.006   2.236   7.519 -0.5503 -0.0527  0.1060
  999TIP3    H124632   2.063   2.299   7.475 -3.3004  2.9939  0.4781
  999TIP3    H224633   1.983   2.173   7.452  2.0655 -0.5941 -0.3848
 1000TIP3   OH224634   3.381   6.051   1.544  0.2844  0.0546 -0.3719
 1000TIP3    H124635   3.363   6.125   1.486  1.2959  0.3957 -0.2741
 1000TIP3    H224636   3.381   5.975   1.487 -0.1976  0.2010 -0.5727
 1001TIP3   OH224637   3.617   0.337   8.285 -0.2051  0.4869  0.0336
 1001TIP3    H124638   3.661   0.293   8.357 -2.2763 -1.3836  0.2594
 1001TIP3    H224639   3.526   0.306   8.290 -0.7000  1.2901 -2.6162
 1002TIP3   OH224640   0.968   2.200   1.814 -0.4506 -0.4465  0.1302
 1002TIP3    H124641   0.951   2.152   1.896 -0.0277 -1.3308 -0.2858
 1002TIP3    H224642   0.896   2.175   1.757  1.1419 -2.7815 -1.0178
 1003TIP3   OH224643   4.267   0.609   0.419 -0.3049  0.1774  0.4392
 1003TIP3    H124644   4.243   0.701   0.430  1.0781  0.6186 -0.1596
 1003TIP3    H224645   4.295   0.581   0.506 -1.2121  0.1532  0.7393
 1004TIP3   OH224646   1.587   2.130   0.175 -0.1008  0.0532 -0.8214
 1004TIP3    H124647   1.597   2.204   0.116  0.4518  2.1582  1.7258
 1004TIP3    H224648   1.667   2.130   0.228 -1.1637 -0.7956  0.8782
 1005TIP3   OH224649   0.856   2.594   7.656 -0.3207 -0.2270  0.2716
 1005TIP3    H124650   0.915   2.519   7.654 -1.4213 -1.0826 -0.8947
 1005TIP3    H224651   0.813   2.588   7.742 -0.4447 -0.9569  0.1619
 1006TIP3   OH224652   1.519   4.846   1.697  0.3025  0.0836  0.0721
 1006TIP3    H124653   1.477   4.927   1.667  1.2318  0.3298 -0.5989
 1006TIP3    H224654   1.611   4.856   1.673  0.4431 -1.1515  0.0274
 1007TIP3   OH224655   4.491   1.104   2.212 -0.0551  0.0583 -0.2037
 1007TIP3    H124656   4.538   1.128   2.132 -0.5608  0.0691 -0.5051
 1007TIP3    H224657   4.529   1.159   2.280  1.2323 -0.8264 -0.1841
 1008TIP3   OH224658   1.745   5.673   0.259 -0.3726  0.4492  0.3251
 1008TIP3    H124659   1.694   5.636   0.332  1.2634  1.1266  1.8906
 1008TIP3    H224660   1.757   5.600   0.199 -0.7046 -0.4858  1.3553
 1009TIP3   OH224661   0.403   4.552   0.827 -0.4886  0.1514 -0.1746
 1009TIP3    H124662   0.381   4.643   0.849 -0.8577 -0.1588  0.7609
 1009TIP3    H224663   0.481   4.560   0.771  0.0218  1.0141  0.6192
 1010TIP3   OH224664   5.825   3.813   7.024 -0.0897  0.3048  0.4017
 1010TIP3    H124665   5.852   3.890   7.074 -0.3108  0.5017  0.2173
 1010TIP3    H224666   5.865   3.739   7.070  0.1426  0.5322  0.5639
 1011TIP3   OH224667   5.385   1.973   1.022  0.1628  0.1062 -0.2036
 1011TIP3    H124668   5.422   1.972   1.110  1.7190  2.0599 -0.7580
 1011TIP3    H224669   5.319   2.042   1.023  0.0543  0.0122 -0.5139
 1012TIP3   OH224670   6.561   5.008   2.787 -0.3724 -0.2620  0.4582
 1012TIP3    H124671   6.592   5.087   2.744 -0.1868  1.3131  3.2742
 1012TIP3    H224672   6.606   5.007   2.871 -2.0847 -2.1585  1.4419
 1013TIP3   OH224673   4.030   4.151   3.185 -0.0348 -0.2174 -0.4085
 1013TIP3    H124674   4.038   4.057   3.167 -0.1452  0.1447 -2.6362
 1013TIP3    H224675   4.116   4.187   3.164 -0.5550  0.4252 -1.5634
 1014TIP3   OH224676   5.278   5.900   7.822  0.0425 -0.5799 -0.1491
 1014TIP3    H124677   5.326   5.915   7.741 -0.2368  0.0527 -0.2009
 1014TIP3    H224678   5.278   5.985   7.866  1.4826 -1.2331  1.2334
 1015TIP3   OH224679   1.184   5.179   0.307  0.1323 -0.1621 -0.1002
 1015TIP3    H124680   1.201   5.209   0.396  2.1657  1.5205 -0.9728
 1015TIP3    H224681   1.244   5.106   0.293 -0.2431 -0.4802 -0.0796
 1016TIP3   OH224682   5.798   0.083   8.564 -0.1031 -0.7165 -0.1734
 1016TIP3    H124683   5.813  -0.003   8.525 -0.9339 -1.1372  0.3876
 1016TIP3    H224684   5.880   0.103   8.610  0.5716 -0.5943 -1.4081
 1017TIP3   OH224685   6.094   3.321   1.210 -0.1365 -0.5559 -0.0831
 1017TIP3    H124686   6.035   3.396   1.208  0.2841 -0.1919  0.5815
 1017TIP3    H224687   6.159   3.340   1.142  1.2906  0.8332  1.5637
 1018TIP3   OH224688   1.186   0.833   8.008  0.0698 -0.1725 -0.6766
 1018TIP3    H124689   1.106   0.856   8.055  1.9626  1.2344  2.1061
 1018TIP3    H224690   1.238   0.913   8.007  2.1370 -1.4367 -0.8718
 1019TIP3   OH224691   2.210   3.494   0.232  0.3440  0.0028 -0.2528
 1019TIP3    H124692   2.203   3.399   0.218 -0.7346  0.1058 -0.5527
 1019TIP3    H224693   2.266   3.503   0.309  0.8056 -0.8583 -0.4732
 1020TIP3   OH224694   3.947   4.021   1.673 -0.0804 -0.4288 -0.5425
 1020TIP3    H124695   3.996   4.049   1.596  1.3363  0.1371  0.5373
 1020TIP3    H224696   4.005   4.039   1.747 -1.1983 -1.4363  0.6262
 1021TIP3   OH224697   4.307   5.316   1.612  0.0503 -0.0296 -0.4389
 1021TIP3    H124698   4.331   5.282   1.526  0.4957  0.5513 -0.5527
 1021TIP3    H224699   4.358   5.265   1.674  1.0685  0.7290 -0.6372
 1022TIP3   OH224700   6.635   1.809   2.005 -0.3106  0.2552 -0.2099
 1022TIP3    H124701   6.646   1.768   2.091 -1.8080 -1.5154 -0.8183
 1022TIP3    H224702   6.545   1.843   2.006  0.3902  2.2274 -0.2963
 1023TIP3   OH224703   4.093   0.974   1.758 -0.4405 -0.1038  0.6530
 1023TIP3    H124704   4.117   0.884   1.738  0.1366  0.3071 -0.5754
 1023TIP3    H224705   4.075   1.014   1.673 -0.7046  0.9426  1.1804
 1024TIP3   OH224706   1.302   0.205   8.202 -0.0233  0.2260  0.8040
 1024TIP3    H124707   1.285   0.242   8.115  0.0666 -0.7189  0.3731
 1024TIP3    H224708   1.223   0.154   8.222  0.2757 -0.1948  0.9285
 1025TIP3   OH224709   1.001   6.824   7.790  0.1083  0.1180  0.6922
 1025TIP3    H124710   1.045   6.886   7.732 -1.8515  2.1847  1.2367
 1025TIP3    H224711   1.057   6.821   7.868  2.0094 -1.5663 -0.6465
 1026TIP3   OH224712   5.512   1.035   1.820 -0.0545 -0.6338 -0.4497
 1026TIP3    H124713   5.559   0.971   1.874  1.2583  0.1858 -0.5994
 1026TIP3    H224714   5.575   1.063   1.755  0.1585  2.4461  0.9227
 1027TIP3   OH224715   3.584   5.654   0.159  0.0071  0.2860  0.2909
 1027TIP3    H124716   3.548   5.724   0.104 -1.9935 -0.6864  0.2904
 1027TIP3    H224717   3.510   5.598   0.178  1.2385 -0.9415  1.6946
 1028TIP3   OH224718   0.982   4.369   2.459  0.2301 -0.0605  0.3438
 1028TIP3    H124719   0.965   4.415   2.377  0.0030  1.1794  1.0601
 1028TIP3    H224720   1.045   4.301   2.436  0.3018  0.3810 -0.8191
 1029TIP3   OH224721   5.395   3.063   8.351 -0.6030 -0.4145 -1.1196
 1029TIP3    H124722   5.343   3.138   8.323 -0.3055 -0.0604 -0.7303
 1029TIP3    H224723   5.336   2.988   8.342 -1.2043 -0.0040 -0.5955
 1030TIP3   OH224724   4.021   3.259   1.758 -0.2100  0.0802  0.0000
 1030TIP3    H124725   4.106   3.264   1.801 -0.2561 -0.3468  0.1479
 1030TIP3    H224726   4.041   3.248   1.665 -0.1059  0.4544 -0.0206
 1031TIP3   OH224727   4.986   4.706   1.162  0.0379  0.0325 -0.2474
 1031TIP3    H124728   4.925   4.739   1.227 -1.0717 -0.3416 -1.0716
 1031TIP3    H224729   5.054   4.774   1.157  1.1294 -0.7492  2.5434
 1032TIP3   OH224730   1.929   2.105   8.569  0.0676 -0.5904  0.6991
 1032TIP3    H124731   1.929   2.151   8.485 -0.0113 -0.8630  0.5480
 1032TIP3    H224732   2.015   2.124   8.606  0.9305 -2.1399 -0.3834
 1033TIP3   OH224733   5.178   4.446   1.572  0.3775 -0.2048 -0.2389
 1033TIP3    H124734   5.198   4.379   1.637 -0.5993 -1.5013 -1.2028
 1033TIP3    H224735   5.251   4.440   1.509  0.2138 -0.4910 -0.4060
 1034TIP3   OH224736   2.002   2.669   8.311  0.5877 -0.7219 -0.6746
 1034TIP3    H124737   1.922   2.631   8.275 -1.3654  2.0717  0.3459
 1034TIP3    H224738   1.974   2.754   8.346  3.7991 -0.1535  0.8312
 1035TIP3   OH224739   1.355   6.890   7.744  0.1380  0.0036  0.4868
 1035TIP3    H124740   1.313   6.809   7.770  2.4231 -0.9909  1.2492
 1035TIP3    H224741   1.439   6.891   7.790  0.6050  2.3330 -0.2534
 1036TIP3   OH224742   6.678   0.797   6.840 -0.4337 -0.2145  0.8173
 1036TIP3    H124743   6.606   0.752   6.884 -1.2422 -0.0128 -0.2466
 1036TIP3    H224744   6.635   0.853   6.775  0.7048 -0.6331 -0.3502
 1037TIP3   OH224745   0.782   3.127   8.022  0.0218 -0.0027  0.1371
 1037TIP3    H124746   0.792   3.217   7.991  0.9076 -0.2758 -0.4074
 1037TIP3    H224747   0.872   3.094   8.031 -0.1734 -1.9928 -3.2026
 1038TIP3   OH224748   3.041   2.559   2.328 -0.0345  0.4388 -0.4320
 1038TIP3    H124749   3.011   2.626   2.266 -1.3801  2.0785  1.7951
 1038TIP3    H224750   2.961   2.530   2.372  0.9604  0.5400  1.5921
 1039TIP3   OH224751   3.875   5.559   1.368  0.1203 -0.1563  0.2325
 1039TIP3    H124752   3.916   5.509   1.297 -0.7007  1.1963 -1.2732
 1039TIP3    H224753   3.859   5.495   1.437  2.2498 -1.2495 -0.2112
 1040TIP3   OH224754   6.019   2.150   1.423 -0.4971 -0.6814 -0.1376
 1040TIP3    H124755   5.928   2.178   1.418  0.1155  2.5884  2.8905
 1040TIP3    H224756   6.031   2.121   1.514  1.7862  0.5688  0.0467
 1041TIP3   OH224757   3.724   4.450   8.421 -0.5678 -0.7165  0.2129
 1041TIP3    H124758   3.811   4.434   8.384 -0.4650  2.1707 -1.0056
 1041TIP3    H224759   3.741   4.502   8.500 -1.1824  2.1554 -1.4239
 1042TIP3   OH224760   5.278   5.974   0.265 -0.0565  0.2708  0.0839
 1042TIP3    H124761   5.278   5.889   0.307  0.5596  0.2702  0.1014
 1042TIP3    H224762   5.344   5.966   0.195  1.5393  1.3287  1.3825
 1043TIP3   OH224763   4.115   5.741   1.369  0.1113  1.0992  0.0565
 1043TIP3    H124764   4.194   5.689   1.361  0.7868  2.1394 -0.2101
 1043TIP3    H224765   4.044   5.676   1.373  0.9344  0.1682 -0.0133
 1044TIP3   OH224766   4.987   0.658   8.494 -0.1138  0.4464 -0.0764
 1044TIP3    H124767   4.929   0.725   8.529  1.0599  0.8121  1.2578
 1044TIP3    H224768   5.062   0.706   8.458  0.1870 -0.0811 -0.1788
 1045TIP3   OH224769   4.242   4.489   2.165  0.1921 -0.0066  0.5322
 1045TIP3    H124770   4.235   4.430   2.090  1.7749  0.3928  0.0231
 1045TIP3    H224771   4.335   4.488   2.188 -0.3989 -1.1515  3.3697
 1046TIP3   OH224772   1.759   4.529   8.136  0.8247 -0.2081  0.8637
 1046TIP3    H124773   1.853   4.542   8.135  1.1059 -1.7345 -1.3890
 1046TIP3    H224774   1.748   4.434   8.142 -0.5667 -0.0720  0.8789
 1047TIP3   OH224775   3.379   5.377   8.026 -0.7731  0.2589  0.6174
 1047TIP3    H124776   3.340   5.463   8.037 -0.9831  0.3748 -0.8124
 1047TIP3    H224777   3.351   5.348   7.939  1.0474 -0.3136  0.1585
 1048TIP3   OH224778   4.326   2.052   2.395  0.2460 -0.2529 -0.3889
 1048TIP3    H124779   4.339   1.964   2.358 -0.8309  0.1194 -1.7463
 1048TIP3    H224780   4.299   2.105   2.320 -0.5193  0.9141  0.6885
 1049TIP3   OH224781   3.002   3.387   2.381  0.3388  0.4184 -0.0555
 1049TIP3    H124782   2.952   3.437   2.317  2.3349 -0.5125 -2.5052
 1049TIP3    H224783   3.084   3.436   2.391  0.3030  0.2259  1.3699
 1050TIP3   OH224784   3.010   6.317   0.795 -0.0801 -0.4690 -0.4813
 1050TIP3    H124785   3.021   6.412   0.802  0.8777 -0.4953 -1.4669
 1050TIP3    H224786   2.944   6.306   0.727  0.0374 -0.5164 -0.5876
 1051TIP3   OH224787   5.842   3.233   2.232  0.7161 -0.2694 -0.4249
 1051TIP3    H124788   5.863   3.289   2.157  0.2056 -0.2195 -0.5306
 1051TIP3    H224789   5.899   3.156   2.219  0.8139 -0.1511 -0.7286
 1052TIP3   OH224790   1.197   2.681   8.267 -0.1684  0.2170 -0.6145
 1052TIP3    H124791   1.229   2.671   8.177  0.9778  1.8008 -0.4245
 1052TIP3    H224792   1.228   2.768   8.294 -1.2142  0.1216  1.0255
 1053TIP3   OH224793   0.422   0.025   2.338 -0.0890 -0.6245 -0.0042
 1053TIP3    H124794   0.441   0.093   2.273 -1.3636  0.7435  0.9571
 1053TIP3    H224795   0.427   0.072   2.422 -2.0437 -1.4480  0.6211
 1054TIP3   OH224796   4.328   1.624   1.278  0.0461 -0.5776 -0.1845
 1054TIP3    H124797   4.315   1.694   1.342  0.3241 -0.8702  0.1968
 1054TIP3    H224798   4.285   1.548   1.316  0.8468 -0.9486  0.0158
 1055TIP3   OH224799   6.532   0.206   6.658 -0.2383 -0.3875 -0.1985
 1055TIP3    H124800   6.507   0.289   6.700 -2.7609 -2.1016  2.0352
 1055TIP3    H224801   6.494   0.211   6.570 -2.0423  0.1133  0.5733
 1056TIP3   OH224802   5.919   2.869   0.629 -0.2731 -0.2472 -0.1514
 1056TIP3    H124803   5.951   2.780   0.610 -1.4366 -0.7627  0.2144
 1056TIP3    H224804   5.898   2.867   0.722 -1.5812 -0.0086 -0.4262
 1057TIP3   OH224805   2.974   5.592   1.394  0.2699 -0.1812 -0.4806
 1057TIP3    H124806   2.966   5.503   1.427  0.6006 -0.1252 -0.2369
 1057TIP3    H224807   3.064   5.617   1.415  0.7334 -0.3885 -2.0449
 1058TIP3   OH224808   5.248   6.663   2.402  0.0562 -0.0942  0.0195
 1058TIP3    H124809   5.204   6.678   2.319  1.0489 -0.0535 -0.5125
 1058TIP3    H224810   5.240   6.569   2.417 -2.1424  0.2024  1.0600
 1059TIP3   OH224811   1.311   6.917   2.967 -0.3654  0.2258 -0.2524
 1059TIP3    H124812   1.273   6.959   2.889  1.0362  0.9796 -0.5568
 1059TIP3    H224813   1.395   6.883   2.937  0.7548  1.5670  1.1823
 1060TIP3   OH224814   4.745   0.958   2.166 -0.0328  0.7605  0.3216
 1060TIP3    H124815   4.839   0.973   2.152  0.2440 -0.3508  0.8859
 1060TIP3    H224816   4.718   0.905   2.092 -1.0431  3.9107 -1.7479
 1061TIP3   OH224817   1.104   6.410   1.334  0.0262  0.2083  0.2322
 1061TIP3    H124818   1.194   6.438   1.320  0.4237 -0.9179  0.4396
 1061TIP3    H224819   1.097   6.395   1.428 -0.2280 -0.1873  0.1540
 1062TIP3   OH224820   1.099   1.097   1.580 -0.2787 -0.2122  0.6735
 1062TIP3    H124821   1.026   1.054   1.625 -0.4699 -1.9068 -1.1191
 1062TIP3    H224822   1.073   1.189   1.573 -2.3039 -0.7835  0.0376
 1063TIP3   OH224823   1.843   4.736   7.161  0.1001  0.8300  0.0531
 1063TIP3    H124824   1.921   4.779   7.198  1.3829 -0.6685 -0.8028
 1063TIP3    H224825   1.878   4.669   7.103 -1.8339 -0.7681  0.6394
 1064TIP3   OH224826   1.691   5.082   0.852 -1.2485 -0.1181  0.5358
 1064TIP3    H124827   1.786   5.072   0.845 -1.3581 -0.6560 -0.4300
 1064TIP3    H224828   1.675   5.174   0.831 -1.0284 -0.3030 -0.4963
 1065TIP3   OH224829   0.472   6.922   8.547  0.1155 -0.0536 -0.5970
 1065TIP3    H124830   0.511   6.922   8.459  0.9691 -1.0867 -0.2325
 1065TIP3    H224831   0.380   6.899   8.532 -0.4198  2.3252 -1.4550
 1066TIP3   OH224832   5.361   6.570   8.458 -0.3945  0.2463  1.0506
 1066TIP3    H124833   5.328   6.515   8.529  0.6559 -1.3257  0.3712
 1066TIP3    H224834   5.450   6.594   8.484 -1.0686  2.3368  1.6836
 1067TIP3   OH224835   4.085   4.983   0.642 -0.4508  0.2415  0.2280
 1067TIP3    H124836   4.050   5.053   0.587  1.5395  0.4581 -0.8758
 1067TIP3    H224837   4.136   5.027   0.709 -1.1025 -0.1028  0.9668
 1068TIP3   OH224838   0.311   2.521   0.241 -0.4558 -0.2217  0.2095
 1068TIP3    H124839   0.244   2.478   0.187 -2.2985  2.2673  0.3384
 1068TIP3    H224840   0.372   2.559   0.178  0.9564 -2.4613  0.0911
 1069TIP3   OH224841   5.506   4.951   0.081  0.2493  0.5310 -0.0776
 1069TIP3    H124842   5.489   4.913  -0.005 -0.0873 -1.0962  0.6619
 1069TIP3    H224843   5.587   5.001   0.070  0.4339 -0.0050 -1.2400
 1070TIP3   OH224844   4.954   6.475   8.521  0.4496  0.2545  0.3320
 1070TIP3    H124845   4.883   6.411   8.532 -0.5847  1.2331 -0.3796
 1070TIP3    H224846   5.025   6.442   8.576 -0.9184 -0.2147  1.8913
 1071TIP3   OH224847   6.381   0.889   7.806  0.2715  0.2700  0.0229
 1071TIP3    H124848   6.449   0.904   7.740  0.7403 -3.5181 -0.5888
 1071TIP3    H224849   6.314   0.954   7.786  2.4418  2.2813 -1.1722
 1072TIP3   OH224850   0.324   5.012   1.739 -0.0966 -0.1974  0.3895
 1072TIP3    H124851   0.377   4.991   1.663 -3.0056 -0.5737 -1.6951
 1072TIP3    H224852   0.290   4.928   1.769 -1.7088  0.2170 -0.1326
 1073TIP3   OH224853   3.241   0.490   2.288 -0.2619 -0.1451 -0.3361
 1073TIP3    H124854   3.317   0.446   2.325  0.1104  0.0492 -0.8630
 1073TIP3    H224855   3.207   0.544   2.359 -0.7178 -1.2490  0.3196
 1074TIP3   OH224856   6.351   2.517   0.842 -0.7362  0.0366  0.1822
 1074TIP3    H124857   6.379   2.596   0.888 -0.6662  0.5970 -0.7907
 1074TIP3    H224858   6.428   2.491   0.790 -0.2880 -1.4777  1.5110
 1075TIP3   OH224859   2.914   5.036   8.219  0.0623  0.6650 -0.0264
 1075TIP3    H124860   2.927   5.105   8.283  0.1221  1.1209 -0.5183
 1075TIP3    H224861   2.837   5.064   8.169 -0.4317 -0.0488  0.3230
 1076TIP3   OH224862   1.581   6.722   2.326  0.1355  0.2021 -0.2193
 1076TIP3    H124863   1.598   6.805   2.370 -0.5240  1.2663 -1.8915
 1076TIP3    H224864   1.582   6.657   2.397  0.6697  1.6085  1.1232
 1077TIP3   OH224865   6.773   4.273   7.300 -0.0708 -0.1911  0.0347
 1077TIP3    H124866   6.846   4.321   7.337  1.1211 -0.9003 -1.2850
 1077TIP3    H224867   6.799   4.181   7.306 -1.7420 -0.6228  1.3363
 1078TIP3   OH224868   5.879   6.113   7.320  0.0607 -0.5993  0.4179
 1078TIP3    H124869   5.829   6.051   7.267  1.2947  0.8844 -2.7124
 1078TIP3    H224870   5.813   6.167   7.363 -1.1006 -0.1258 -1.8150
 1079TIP3   OH224871   4.616   2.533   8.062 -0.3753 -0.2038  0.0265
 1079TIP3    H124872   4.631   2.617   8.019  0.8523  0.0863  0.9811
 1079TIP3    H224873   4.640   2.468   7.996  0.8431  0.2288  0.0229
 1080TIP3   OH224874   0.657   1.303   2.835 -0.0178  0.4505 -0.4695
 1080TIP3    H124875   0.684   1.211   2.828  1.3160  0.7242  0.5213
 1080TIP3    H224876   0.703   1.347   2.764  1.4487  0.7382  0.5898
 1081TIP3   OH224877   6.598   3.094   7.571  0.4066 -0.7214 -0.0750
 1081TIP3    H124878   6.565   3.098   7.481 -1.8466  0.9064  0.7482
 1081TIP3    H224879   6.561   3.013   7.606  2.2096 -1.9552 -0.8818
 1082TIP3   OH224880   0.666   1.365   0.820 -0.3393 -0.3345  0.1023
 1082TIP3    H124881   0.643   1.440   0.764 -4.2934  0.2501  2.1053
 1082TIP3    H224882   0.720   1.403   0.889 -2.6741  0.9640  1.3503
 1083TIP3   OH224883   5.710   0.401   2.048 -0.1590  0.3123  0.2616
 1083TIP3    H124884   5.745   0.376   1.963  1.9970  0.4981  1.0251
 1083TIP3    H224885   5.649   0.472   2.030  1.4191  1.4180 -1.0156
 1084TIP3   OH224886   6.480   2.133   7.228  0.7638  0.1546 -0.0350
 1084TIP3    H124887   6.435   2.201   7.176  0.8438 -0.0010 -0.3125
 1084TIP3    H224888   6.466   2.053   7.178  0.2258 -0.1287  0.5589
 1085TIP3   OH224889   4.839   2.252   0.453  0.0681 -0.2250 -0.1813
 1085TIP3    H124890   4.814   2.344   0.462 -0.5761 -0.4699  0.7051
 1085TIP3    H224891   4.926   2.255   0.413 -0.3128  0.7374 -0.9819
 1086TIP3   OH224892   5.715   5.948   0.465  0.3587 -0.1832 -0.1333
 1086TIP3    H124893   5.643   6.002   0.432  0.7210  0.9498  0.8363
 1086TIP3    H224894   5.791   6.005   0.460  0.8487 -0.7721  0.4890
 1087TIP3   OH224895   4.833   6.298   1.975  0.2148  0.5200  0.0452
 1087TIP3    H124896   4.798   6.228   1.920  1.1242 -0.6127  0.8621
 1087TIP3    H224897   4.910   6.329   1.927  0.7103 -0.1196  0.4049
 1088TIP3   OH224898   2.987   0.225   2.096  0.2390 -0.1794  0.5184
 1088TIP3    H124899   2.958   0.274   2.173  1.8392 -1.1996  1.8358
 1088TIP3    H224900   3.021   0.292   2.037 -0.6033  0.5832  0.8689
 1089TIP3   OH224901   3.649   3.883   0.584 -0.1777 -0.3152  0.3227
 1089TIP3    H124902   3.618   3.955   0.639  0.4863  0.0186  0.2677
 1089TIP3    H224903   3.576   3.865   0.524 -0.6439 -0.2254  0.8620
 1090TIP3   OH224904   0.626   5.174   8.294  0.5544  0.6434 -0.3421
 1090TIP3    H124905   0.551   5.117   8.307  0.7284 -0.0824 -2.2449
 1090TIP3    H224906   0.675   5.168   8.377 -2.0387  2.1225  1.4228
 1091TIP3   OH224907   0.832   3.553   1.215  0.6303  0.0933  0.0173
 1091TIP3    H124908   0.793   3.475   1.253  1.7515 -0.1780  0.6561
 1091TIP3    H224909   0.787   3.626   1.258 -0.1461 -0.1897 -0.2987
 1092TIP3   OH224910   1.325   2.156   2.126  0.0947  0.1776  0.5153
 1092TIP3    H124911   1.386   2.104   2.179  0.8405  2.2530  1.8427
 1092TIP3    H224912   1.367   2.161   2.040  0.4457 -0.6269  0.6243
 1093TIP3   OH224913   1.533   4.766   2.496 -0.4337  0.2546  0.0739
 1093TIP3    H124914   1.526   4.742   2.404 -0.9117 -0.3965  0.2766
 1093TIP3    H224915   1.448   4.806   2.517 -0.7520 -0.6360  0.5250
 1094TIP3   OH224916   5.664   5.389   8.134  0.8418 -0.2298 -0.3945
 1094TIP3    H124917   5.622   5.335   8.067 -0.0209 -0.3408  0.2126
 1094TIP3    H224918   5.684   5.472   8.090  0.3014 -0.3090 -0.7955
 1095TIP3   OH224919   5.106   2.944   8.374 -0.4077 -0.0724  0.1383
 1095TIP3    H124920   5.037   2.878   8.380  0.2124 -0.7519 -0.1492
 1095TIP3    H224921   5.089   2.989   8.291 -1.6507  1.0765  0.9785
 1096TIP3   OH224922   1.643   2.882   0.386 -0.6889 -0.3475 -0.1436
 1096TIP3    H124923   1.552   2.904   0.406 -0.3655  0.7428  0.2303
 1096TIP3    H224924   1.688   2.884   0.471  0.1211  1.4293 -0.5601
 1097TIP3   OH224925   2.764   6.443   1.083  0.4059 -0.5045  0.1633
 1097TIP3    H124926   2.799   6.435   0.994  0.6116  0.9674  0.0896
 1097TIP3    H224927   2.684   6.391   1.082  1.9124 -2.9747 -0.0031
 1098TIP3   OH224928   3.821   3.866   8.203 -0.3960  0.1865 -0.0089
 1098TIP3    H124929   3.809   3.804   8.131 -0.7624  1.5017 -1.1123
 1098TIP3    H224930   3.735   3.905   8.217  0.2740  2.1571 -0.9680
 1099TIP3   OH224931   1.615   4.805   0.802 -0.1847 -0.1826 -0.5304
 1099TIP3    H124932   1.675   4.878   0.808 -0.0088 -0.3403 -0.3818
 1099TIP3    H224933   1.584   4.790   0.891 -1.3540  0.6543 -0.7682
 1100TIP3   OH224934   1.269   6.112   1.793  0.0470  0.8682  0.7491
 1100TIP3    H124935   1.181   6.085   1.817  0.2070 -2.1390 -1.4014
 1100TIP3    H224936   1.324   6.082   1.865 -0.3186 -0.8479  0.3665
 1101TIP3   OH224937   1.037   0.795   1.464  0.3713 -0.2086 -0.0262
 1101TIP3    H124938   0.989   0.795   1.382 -1.4102  1.9045  0.9101
 1101TIP3    H224939   0.977   0.836   1.527  2.0818 -0.7350  2.0716
 1102TIP3   OH224940   0.243   3.335   7.706 -0.0615  0.2744  0.2452
 1102TIP3    H124941   0.326   3.360   7.664  0.2417 -2.9195 -1.3439
 1102TIP3    H224942   0.185   3.410   7.690  2.0829  2.0275  0.1961
 1103TIP3   OH224943   2.642   2.247   2.616 -0.1860 -0.0646 -0.4116
 1103TIP3    H124944   2.567   2.192   2.635  0.3041 -1.1525 -1.4824
 1103TIP3    H224945   2.654   2.301   2.694 -1.4809 -0.5490  0.1364
 1104TIP3   OH224946   0.832   3.813   0.735  0.1556  0.0197 -0.2137
 1104TIP3    H124947   0.793   3.868   0.667 -0.4066 -1.0756 -0.8040
 1104TIP3    H224948   0.766   3.810   0.804  0.3577  0.4133 -0.0014
 1105TIP3   OH224949   1.117   5.655   0.223  0.3416 -0.5602 -0.4073
 1105TIP3    H124950   1.049   5.665   0.290 -0.4809 -0.4210 -1.2295
 1105TIP3    H224951   1.124   5.561   0.210  0.0865 -0.5680 -0.5132
 1106TIP3   OH224952   1.368   5.137   7.917  0.4978  0.4490 -0.0940
 1106TIP3    H124953   1.281   5.098   7.913  0.7379 -0.4015  1.8342
 1106TIP3    H224954   1.428   5.062   7.919  1.0634  0.8976  1.7843
 1107TIP3   OH224955   5.861   0.603   7.406  0.6576 -0.6932  0.3506
 1107TIP3    H124956   5.928   0.601   7.338  1.4959  1.2744  1.0317
 1107TIP3    H224957   5.876   0.686   7.451 -2.8862  0.3556 -0.1038
 1108TIP3   OH224958   5.606   4.997   2.889  0.1027 -0.4598 -0.2579
 1108TIP3    H124959   5.663   4.944   2.945 -1.2964 -1.4543  0.2742
 1108TIP3    H224960   5.627   5.088   2.912 -0.4813 -0.8299  1.9803
 1109TIP3   OH224961   2.434   1.997   7.194 -0.1629 -0.6248 -0.0484
 1109TIP3    H124962   2.433   2.092   7.180 -2.3286 -0.6150 -0.1768
 1109TIP3    H224963   2.520   1.969   7.164 -0.0280  1.0962 -1.4447
 1110TIP3   OH224964   6.691   4.823   1.059  0.1113 -0.3632 -0.2701
 1110TIP3    H124965   6.698   4.894   0.995 -1.3548 -0.5601 -0.7055
 1110TIP3    H224966   6.599   4.826   1.087  0.4321 -1.0623  0.9201
 1111TIP3   OH224967   3.115   2.168   0.531  0.2682 -0.2283 -0.2820
 1111TIP3    H124968   3.199   2.205   0.558  0.6247 -1.7957  0.9728
 1111TIP3    H224969   3.089   2.112   0.605 -2.3335  0.8998 -0.2448
 1112TIP3   OH224970   4.379   2.028   1.613 -0.3047 -0.0279 -0.5722
 1112TIP3    H124971   4.466   2.031   1.574 -0.6622 -0.5038 -1.4468
 1112TIP3    H224972   4.391   2.061   1.702  0.6932  0.2763 -0.8075
 1113TIP3   OH224973   6.279   2.587   0.533  0.7706 -0.1957  0.3325
 1113TIP3    H124974   6.186   2.562   0.537  0.7017 -0.0612 -0.4504
 1113TIP3    H224975   6.326   2.504   0.549  0.5249 -0.2717  0.6874
 1114TIP3   OH224976   3.237   3.394   1.909  0.4779  0.4507 -0.0769
 1114TIP3    H124977   3.299   3.393   1.836  0.6248  0.9815  0.0381
 1114TIP3    H224978   3.151   3.385   1.867  0.6788 -1.2236 -0.1682
 1115TIP3   OH224979   0.139   6.464   7.695 -0.0132  0.4565 -0.5002
 1115TIP3    H124980   0.196   6.479   7.770 -0.6853  0.4436  0.0246
 1115TIP3    H224981   0.064   6.521   7.710 -0.3925  0.0742 -0.8964
 1116TIP3   OH224982   4.749   6.288   8.529  0.1370  0.1593 -0.7912
 1116TIP3    H124983   4.684   6.339   8.482  0.0780  2.0778  1.1989
 1116TIP3    H224984   4.705   6.205   8.548 -0.5049  0.1148 -2.3338
 1117TIP3   OH224985   2.087   3.500   7.491  0.0245 -0.1225 -0.3600
 1117TIP3    H124986   2.055   3.415   7.461 -1.5865  0.4138 -0.2510
 1117TIP3    H224987   2.165   3.479   7.543 -0.3795 -1.5359 -0.2740
 1118TIP3   OH224988   3.769   0.446   1.732 -0.1558  0.4728  0.1160
 1118TIP3    H124989   3.712   0.411   1.801  0.3088 -0.0702  0.2293
 1118TIP3    H224990   3.840   0.383   1.725 -0.0482  0.6741 -0.6722
 1119TIP3   OH224991   4.106   0.163   1.956  0.1786 -0.5497 -0.5911
 1119TIP3    H124992   4.150   0.151   2.040 -0.6499 -1.4682 -0.2687
 1119TIP3    H224993   4.163   0.223   1.908  1.1664 -0.7818  0.2458
 1120TIP3   OH224994   3.402   4.559   8.178  0.5467 -0.2667  0.2084
 1120TIP3    H124995   3.322   4.583   8.226  0.3192 -1.0809  0.2640
 1120TIP3    H224996   3.472   4.608   8.221  0.4660 -1.5238  1.9050
 1121TIP3   OH224997   4.297   2.508   7.910 -0.2832 -0.4804  0.1792
 1121TIP3    H124998   4.340   2.505   7.996 -0.1604  0.0654  0.1424
 1121TIP3    H224999   4.369   2.518   7.848 -0.4861  1.2857  0.1774
 1122TIP3   OH225000   2.929   5.247   0.679 -1.0871 -0.3630 -0.1798
 1122TIP3    H125001   2.899   5.325   0.727 -0.2868  0.2525 -0.6605
 1122TIP3    H225002   3.024   5.246   0.691 -1.1398 -1.6311  0.3433
 1123TIP3   OH225003   4.443   0.610   0.054 -0.1543  0.6625 -0.1509
 1123TIP3    H125004   4.415   0.534   0.004 -0.6881  0.0061  1.1084
 1123TIP3    H225005   4.443   0.682  -0.010 -0.7826 -0.1436 -1.0845
 1124TIP3   OH225006   6.855   5.871   8.265 -0.1753 -0.2375  0.6202
 1124TIP3    H125007   6.941   5.912   8.269 -0.2691 -0.1371  2.9566
 1124TIP3    H225008   6.829   5.860   8.356 -1.7759 -2.1197  0.0139
 1125TIP3   OH225009   4.256   3.789   2.966 -0.5183  0.7049 -0.1977
 1125TIP3    H125010   4.340   3.814   2.929  0.1863 -1.3257 -0.1032
 1125TIP3    H225011   4.214   3.736   2.898 -1.2397  0.7908  0.1680
 1126TIP3   OH225012   0.950   2.884   0.472  0.1036  0.2006 -0.8247
 1126TIP3    H125013   0.970   2.967   0.515 -1.1965 -0.6924  1.6681
 1126TIP3    H225014   0.926   2.825   0.543 -0.0083 -2.0397 -2.6173
 1127TIP3   OH225015   1.887   2.144   1.549 -0.2492  0.4241 -0.3842
 1127TIP3    H125016   1.890   2.088   1.472  2.7715  0.1537 -0.1826
 1127TIP3    H225017   1.872   2.083   1.622 -1.3850  0.4746 -0.5563
 1128TIP3   OH225018   5.611   6.033   2.431 -0.0338 -0.1401  0.0216
 1128TIP3    H125019   5.666   6.106   2.459  0.6805 -0.9041  0.6428
 1128TIP3    H225020   5.585   6.056   2.342  2.4596 -0.3933 -0.8636
 1129TIP3   OH225021   2.482   1.949   1.966  0.3293 -0.6458  0.6963
 1129TIP3    H125022   2.480   1.863   1.924 -0.8630 -0.3395  0.0846
 1129TIP3    H225023   2.401   1.952   2.018 -0.1255  0.4674 -0.0510
 1130TIP3   OH225024   4.537   4.367   1.978 -0.1826  0.6026 -0.2365
 1130TIP3    H125025   4.573   4.281   1.999  0.5572  0.4248 -2.1121
 1130TIP3    H225026   4.540   4.414   2.061 -0.0646 -0.9685  0.7005
 1131TIP3   OH225027   0.762   0.557   0.063 -0.2801  0.6142  0.0641
 1131TIP3    H125028   0.803   0.571   0.148 -0.8288 -1.3957  0.7297
 1131TIP3    H225029   0.680   0.607   0.068 -0.2589  0.6025  0.6782
 1132TIP3   OH225030   0.725   4.278   1.157  0.2787 -0.1576  0.6235
 1132TIP3    H125031   0.766   4.236   1.081 -0.7865  0.5002 -0.3529
 1132TIP3    H225032   0.757   4.368   1.155  0.4886 -0.2157  1.1516
 1133TIP3   OH225033   5.973   5.531   0.308 -0.1134  0.7519 -0.2305
 1133TIP3    H125034   5.941   5.458   0.256 -0.5857  0.2174  0.7910
 1133TIP3    H225035   5.911   5.602   0.290 -1.4965 -0.0467  1.1511
 1134TIP3   OH225036   3.426   0.128   1.606  0.5111  0.1051  0.0840
 1134TIP3    H125037   3.331   0.128   1.591  0.2214  1.3881  1.6308
 1134TIP3    H225038   3.449   0.036   1.612 -0.9253 -0.2180  1.1663
 1135TIP3   OH225039   1.931   5.752   1.557  0.5947 -0.1959  0.1911
 1135TIP3    H125040   1.860   5.709   1.606 -0.2223  1.4101  0.4854
 1135TIP3    H225041   1.977   5.680   1.514 -1.2566 -1.2969 -0.0615
 1136TIP3   OH225042   4.239   5.369   2.921 -0.3497  0.0988 -0.2175
 1136TIP3    H125043   4.207   5.353   2.832 -1.5196  0.4370  0.1219
 1136TIP3    H225044   4.202   5.454   2.944 -0.0663  0.0010  0.6120
 1137TIP3   OH225045   0.026   5.010   7.652  0.1570 -0.0287 -0.2335
 1137TIP3    H125046   0.058   4.947   7.716  0.0415  0.8589  0.7108
 1137TIP3    H225047  -0.032   5.067   7.701 -0.6321  0.1299 -1.3264
 1138TIP3   OH225048   1.724   5.391   0.778  0.4300  0.0215  0.0211
 1138TIP3    H125049   1.806   5.430   0.748  0.3014  1.6004  1.5422
 1138TIP3    H225050   1.705   5.436   0.861 -3.7658  2.3758 -1.9056
 1139TIP3   OH225051   5.520   2.883   8.005  0.0194  0.0146  0.0956
 1139TIP3    H125052   5.589   2.915   7.947 -1.1752 -0.6632 -1.7951
 1139TIP3    H225053   5.465   2.960   8.022  0.0566  0.0967 -0.1486
 1140TIP3   OH225054   4.321   4.551   0.444 -0.0535 -0.2760 -0.2980
 1140TIP3    H125055   4.254   4.615   0.419  1.1753  1.6155  0.9200
 1140TIP3    H225056   4.284   4.505   0.519 -0.0174  0.7843  0.3898
 1141TIP3   OH225057   6.174   5.864   0.508 -0.3011  0.4592  0.0385
 1141TIP3    H125058   6.167   5.846   0.602 -0.4852 -0.9326 -0.2124
 1141TIP3    H225059   6.259   5.907   0.498  0.4684 -0.8420  0.6722
 1142TIP3   OH225060   5.845   2.671   7.464  0.4365  0.2571 -0.3258
 1142TIP3    H125061   5.861   2.754   7.419 -0.5166 -0.1162 -1.4022
 1142TIP3    H225062   5.759   2.643   7.433  1.2234 -1.7235 -0.9255
 1143TIP3   OH225063   0.582   4.702   7.582  0.1115  0.3791  0.7318
 1143TIP3    H125064   0.665   4.742   7.556  0.4864  0.0255  1.3639
 1143TIP3    H225065   0.545   4.763   7.646 -0.4718  0.8964 -0.0765
 1144TIP3   OH225066   4.808   5.010   3.117 -0.0091  0.7434 -1.0013
 1144TIP3    H125067   4.860   4.933   3.092 -0.6075 -0.4903  1.2766
 1144TIP3    H225068   4.725   4.999   3.071 -1.1484 -1.5575  1.3203
 1145TIP3   OH225069   6.513   0.636   1.611  0.5467 -0.7075  0.3493
 1145TIP3    H125070   6.559   0.719   1.596 -2.1593  1.0134  0.7594
 1145TIP3    H225071   6.483   0.643   1.702 -0.0192 -2.0070  0.2687
 1146TIP3   OH225072   0.791   6.136   0.137 -0.2380  0.7701  0.2322
 1146TIP3    H125073   0.696   6.141   0.148 -0.1985  0.2640  0.9152
 1146TIP3    H225074   0.824   6.116   0.225  0.1818 -3.0406 -0.6108
 1147TIP3   OH225075   5.629   1.610   0.776 -0.8235  0.7348 -0.2975
 1147TIP3    H125076   5.571   1.537   0.796 -0.4762  0.5787  0.1458
 1147TIP3    H225077   5.715   1.581   0.804  0.0036 -0.0959 -3.3789
 1148TIP3   OH225078   6.366   6.376   7.905  0.4862  0.1238  0.0814
 1148TIP3    H125079   6.382   6.306   7.841  0.4684 -0.8529  1.1239
 1148TIP3    H225080   6.371   6.457   7.853  1.0757 -0.6066 -1.0439
 1149TIP3   OH225081   6.248   2.964   8.563  0.2688 -0.2745 -0.0543
 1149TIP3    H125082   6.193   2.969   8.641 -1.5728  0.4917 -1.3120
 1149TIP3    H225083   6.260   2.871   8.547 -1.1242 -0.4824 -0.0059
 1150TIP3   OH225084   0.033   3.087   8.139  0.0106 -0.9161  0.2094
 1150TIP3    H125085   0.105   3.083   8.076 -0.0014 -0.4229  0.1537
 1150TIP3    H225086  -0.025   3.156   8.104  0.2211 -0.3354  0.9788
 1151TIP3   OH225087   3.587   6.647   0.660 -0.0729 -0.3751  0.2194
 1151TIP3    H125088   3.592   6.604   0.575 -1.4498  0.5466 -0.3570
 1151TIP3    H225089   3.495   6.667   0.672  0.4530  2.0661  0.6362
 1152TIP3   OH225090   4.512   2.999   0.167  0.0325 -0.1738  0.6665
 1152TIP3    H125091   4.483   3.062   0.234  1.2734 -0.1553  1.2220
 1152TIP3    H225092   4.472   2.917   0.194 -0.2931  0.0436  0.8636
 1153TIP3   OH225093   0.875   6.076   8.095 -0.3603 -0.3074  0.2674
 1153TIP3    H125094   0.842   6.113   8.177 -0.5328 -0.1402  0.1264
 1153TIP3    H225095   0.888   5.983   8.113 -1.9916 -0.6172  0.0185
 1154TIP3   OH225096   1.877   4.929   0.646  0.1327  0.2831  0.0836
 1154TIP3    H125097   1.946   4.877   0.604 -0.4472 -0.1213 -0.3706
 1154TIP3    H225098   1.867   4.889   0.733 -0.1024 -0.1740 -0.1535
 1155TIP3   OH225099   5.871   3.142   0.559 -0.4789 -0.0580  0.3147
 1155TIP3    H125100   5.891   3.048   0.567 -1.4321 -0.3320 -0.4173
 1155TIP3    H225101   5.853   3.170   0.649  1.2810 -0.2077  0.7688
 1156TIP3   OH225102   0.516   4.649   8.125  0.1345  0.4311 -0.1390
 1156TIP3    H125103   0.580   4.719   8.136 -2.0783  2.5480  0.0926
 1156TIP3    H225104   0.494   4.622   8.214 -0.8657  1.2790 -0.1102
 1157TIP3   OH225105   5.831   4.826   0.853 -0.1824 -0.1983  0.0256
 1157TIP3    H125106   5.901   4.816   0.917  1.6052  0.3452 -1.7725
 1157TIP3    H225107   5.768   4.884   0.896  0.2108 -1.0649  1.8490
 1158TIP3   OH225108   2.517   3.413   8.073  0.9489 -0.1174 -0.8178
 1158TIP3    H125109   2.461   3.484   8.103 -2.5919 -2.7463 -0.5673
 1158TIP3    H225110   2.549   3.442   7.987 -2.3192  0.9273 -1.8190
 1159TIP3   OH225111   3.336   3.279   2.609  0.2983  0.0461  0.1511
 1159TIP3    H125112   3.417   3.293   2.659  0.1874 -0.0759  0.3681
 1159TIP3    H225113   3.351   3.198   2.560 -0.2728 -0.8702  1.4113
 1160TIP3   OH225114   0.202   6.425   7.357 -0.3861  0.3544  0.5176
 1160TIP3    H125115   0.140   6.358   7.387 -1.1884  1.2499  0.8958
 1160TIP3    H225116   0.282   6.407   7.407 -0.5263 -0.4460  0.4692
 1161TIP3   OH225117   2.413   0.393   0.294 -0.2526  0.1372 -0.2390
 1161TIP3    H125118   2.424   0.302   0.265 -1.1230 -0.1722  0.3915
 1161TIP3    H225119   2.337   0.425   0.245 -0.3219  0.3387  0.0001
 1162TIP3   OH225120   3.755   2.219   1.300 -0.2719  0.6344 -0.1578
 1162TIP3    H125121   3.827   2.213   1.237 -0.2665  0.4821 -0.1380
 1162TIP3    H225122   3.797   2.213   1.386 -0.2921  0.7103 -0.1425
 1163TIP3   OH225123   1.763   4.974   0.055  0.5138 -0.7026 -0.6043
 1163TIP3    H125124   1.818   4.903   0.088 -1.2006 -2.1894 -0.7956
 1163TIP3    H225125   1.825   5.036   0.016  2.3632 -0.3580  2.5175
 1164TIP3   OH225126   4.822   3.753   2.583  0.2915 -0.0042 -0.3272
 1164TIP3    H125127   4.727   3.739   2.580  0.4147 -1.9158  1.9927
 1164TIP3    H225128   4.835   3.813   2.657  0.9963 -1.5927  0.8889
 1165TIP3   OH225129   3.307   4.153   8.214 -0.2171 -0.2932 -0.1676
 1165TIP3    H125130   3.373   4.200   8.266 -0.4235 -0.3243  0.1284
 1165TIP3    H225131   3.307   4.064   8.250 -0.6797 -0.1963  0.0823
 1166TIP3   OH225132   6.690   1.608   7.744  0.4297 -0.3800 -0.3917
 1166TIP3    H125133   6.725   1.692   7.774 -0.5087  0.7901 -2.3825
 1166TIP3    H225134   6.626   1.584   7.811  0.9410  0.3138  0.3659
 1167TIP3   OH225135   5.255   3.623   0.119 -0.0923 -0.2633  0.2888
 1167TIP3    H125136   5.189   3.554   0.127  0.9197 -1.1144  2.0577
 1167TIP3    H225137   5.256   3.645   0.026 -1.2375 -1.8586 -0.1478
 1168TIP3   OH225138   3.645   1.866   0.817  0.0605 -0.6752  0.2394
 1168TIP3    H125139   3.683   1.907   0.895 -0.7641 -0.5793  0.6017
 1168TIP3    H225140   3.713   1.873   0.750  0.8469 -0.9182  0.9972
 1169TIP3   OH225141   2.050   5.296   0.707  0.0732  0.0382  0.0079
 1169TIP3    H125142   2.046   5.242   0.786 -1.1303 -1.2996 -0.9215
 1169TIP3    H225143   2.070   5.234   0.637  2.7237  1.4087 -0.5866
 1170TIP3   OH225144   5.122   2.610   0.593  0.0118 -0.2217  0.1786
 1170TIP3    H125145   5.198   2.557   0.619 -1.1657 -0.7318  2.9176
 1170TIP3    H225146   5.048   2.550   0.595 -0.4673 -0.0026 -3.5302
 1171TIP3   OH225147   3.057   4.082   8.496  0.2243  0.4131 -0.4079
 1171TIP3    H125148   2.986   4.074   8.559 -0.9066 -1.2592 -1.8039
 1171TIP3    H225149   3.060   4.176   8.475  1.6765  1.3094  3.1459
 1172TIP3   OH225150   3.551   2.645   7.488 -0.0109 -0.0709 -0.0772
 1172TIP3    H125151   3.535   2.634   7.582  0.3674 -0.3715 -0.0448
 1172TIP3    H225152   3.578   2.737   7.479  1.3810 -0.4143  0.3265
 1173TIP3   OH225153   6.531   1.151   2.306  0.1522 -0.2662 -0.2468
 1173TIP3    H125154   6.482   1.183   2.382  0.3142  0.9796 -0.6497
 1173TIP3    H225155   6.572   1.070   2.337  0.4802  0.3760  1.1037
 1174TIP3   OH225156   2.520   6.500   7.031  0.0585  0.1845 -0.6100
 1174TIP3    H125157   2.498   6.544   6.949 -0.9509 -1.7081 -1.4246
 1174TIP3    H225158   2.470   6.548   7.097 -1.1661  0.2031 -1.4950
 1175TIP3   OH225159   1.282   1.385   0.539  0.9145  0.1988 -0.4695
 1175TIP3    H125160   1.192   1.409   0.563  0.1575 -0.1400 -2.7442
 1175TIP3    H225161   1.311   1.329   0.611 -0.8647 -0.0520  0.1155
 1176TIP3   OH225162   0.521   0.507   2.469  0.5545 -0.4078 -0.4522
 1176TIP3    H125163   0.562   0.553   2.542 -1.3045  0.2174  0.2606
 1176TIP3    H225164   0.593   0.461   2.426  2.0314  0.8901  0.5113
 1177TIP3   OH225165   1.788   0.512   1.686  0.5170  0.3474  0.2319
 1177TIP3    H125166   1.716   0.482   1.742 -0.6281 -0.1065 -1.3942
 1177TIP3    H225167   1.744   0.558   1.614  1.8426 -0.0043 -0.8406
 1178TIP3   OH225168   4.592   1.385   0.508 -0.0828 -0.4869  0.3582
 1178TIP3    H125169   4.528   1.453   0.486  0.0720 -0.6037 -0.5100
 1178TIP3    H225170   4.583   1.373   0.602  0.1729  1.0169  0.5954
 1179TIP3   OH225171   1.698   6.122   0.212  0.5469 -0.0510 -0.3809
 1179TIP3    H125172   1.742   6.038   0.195  0.3168 -0.3213  0.3329
 1179TIP3    H225173   1.654   6.110   0.296 -0.3661  0.4321 -0.7719
 1180TIP3   OH225174   2.166   1.099   2.206  0.2207  0.1613 -0.1351
 1180TIP3    H125175   2.238   1.094   2.144 -0.6298  2.6449 -1.4618
 1180TIP3    H225176   2.208   1.117   2.290  1.2183 -0.1465 -0.5546
 1181TIP3   OH225177   4.082   2.825   3.415  0.2709  0.3927  0.4778
 1181TIP3    H125178   4.018   2.807   3.484 -0.2799 -1.1346 -0.3861
 1181TIP3    H225179   4.030   2.859   3.342  0.4892 -0.3378 -0.0362
 1182TIP3   OH225180   4.851   5.217   2.280 -0.6168  0.4438  0.0751
 1182TIP3    H125181   4.878   5.146   2.222  0.1563  0.8170 -0.0334
 1182TIP3    H225182   4.804   5.174   2.351 -0.4129 -0.1483 -0.1439
 1183TIP3   OH225183   3.373   1.749   8.196 -0.3346 -0.5187 -0.8508
 1183TIP3    H125184   3.417   1.680   8.147  0.4921 -0.7422  0.1728
 1183TIP3    H225185   3.344   1.812   8.130  0.8927 -0.7266 -1.5976
 1184TIP3   OH225186   3.813   5.515   1.670  0.8768  0.4213  0.1980
 1184TIP3    H125187   3.861   5.593   1.698  1.7384 -0.1466  0.3576
 1184TIP3    H225188   3.780   5.476   1.750  1.2563  0.1215  0.2157
 1185TIP3   OH225189   0.621   3.277   6.505  0.1821  0.6733  0.0048
 1185TIP3    H125190   0.590   3.264   6.595  2.1283  0.3155  0.6685
 1185TIP3    H225191   0.589   3.200   6.457  1.0411 -0.2794  0.9365
 1186TIP3   OH225192   3.319   1.785   1.323 -0.5365 -0.4511  0.2845
 1186TIP3    H125193   3.250   1.732   1.282 -1.8454  0.4634  1.1944
 1186TIP3    H225194   3.396   1.728   1.325 -0.3923 -0.6092 -3.2488
 1187TIP3   OH225195   6.776   2.509   0.586  0.1302  0.3116  0.6641
 1187TIP3    H125196   6.792   2.604   0.585  2.5649  0.0084 -1.0910
 1187TIP3    H225197   6.836   2.476   0.652 -0.7491 -0.0288  1.3026
 1188TIP3   OH225198   1.689   3.484   0.523  0.5113  0.0065 -0.3411
 1188TIP3    H125199   1.659   3.551   0.462 -0.5739 -1.6573 -1.7339
 1188TIP3    H225200   1.780   3.468   0.497  0.4873  0.2793 -0.6003
 1189TIP3   OH225201   0.029   1.331   1.231  0.2730  0.1506 -0.3555
 1189TIP3    H125202   0.032   1.300   1.322 -0.5237 -1.1278 -0.7429
 1189TIP3    H225203   0.067   1.419   1.235  0.4113  0.0541  1.1835
 1190TIP3   OH225204   4.539   3.538   7.759 -0.6765 -0.4758  0.1301
 1190TIP3    H125205   4.456   3.579   7.733  0.5645  1.5290 -0.9649
 1190TIP3    H225206   4.540   3.454   7.713 -1.0923  0.5183 -1.8370
 1191TIP3   OH225207   3.214   0.899   8.003 -0.1114 -0.4085  0.0123
 1191TIP3    H125208   3.295   0.928   8.045  0.3531 -0.1160 -1.0512
 1191TIP3    H225209   3.241   0.824   7.949 -0.6883 -0.7472  0.1779
 1192TIP3   OH225210   4.093   6.796   8.228 -0.4089  0.1998 -0.0988
 1192TIP3    H125211   4.110   6.716   8.277  0.8438 -0.3983 -1.4172
 1192TIP3    H225212   4.100   6.866   8.293  0.8410 -0.5940  0.6731
 1193TIP3   OH225213   4.475   6.007   7.900 -0.3281 -0.0151  0.4359
 1193TIP3    H125214   4.526   5.926   7.900 -0.8360 -0.3550  1.4080
 1193TIP3    H225215   4.517   6.062   7.834  1.5011 -0.1525  1.4117
 1194TIP3   OH225216   6.821   1.354   7.953  0.6662  0.3399  0.4215
 1194TIP3    H125217   6.818   1.352   7.857 -0.7782  0.0658  0.4642
 1194TIP3    H225218   6.915   1.356   7.973  0.9991  1.7064 -1.0140
 1195TIP3   OH225219   2.653   1.515   8.250  0.6275 -0.5795  0.2151
 1195TIP3    H125220   2.728   1.559   8.291  0.3117  0.1869 -0.0035
 1195TIP3    H225221   2.622   1.578   8.184  1.0355 -1.7070 -1.1078
 1196TIP3   OH225222   3.268   0.593   1.334  0.5885  0.0885  0.5373
 1196TIP3    H125223   3.258   0.578   1.428 -0.2162  0.2759  0.4977
 1196TIP3    H225224   3.282   0.506   1.296 -1.6212 -0.3403  0.5671
 1197TIP3   OH225225   4.776   4.605   8.562  0.4032 -0.5598  0.1703
 1197TIP3    H125226   4.697   4.656   8.544 -0.8561 -2.2368  0.6814
 1197TIP3    H225227   4.848   4.661   8.532 -1.0268  0.5081 -1.5041
 1198TIP3   OH225228   2.003   1.446   2.312 -0.3016 -0.9654 -0.1305
 1198TIP3    H125229   2.077   1.399   2.350 -0.0950 -1.2690 -0.8983
 1198TIP3    H225230   2.038   1.532   2.289 -0.7638 -0.2630  1.5953
 1199TIP3   OH225231   3.371   6.119   1.829 -0.3392 -0.4022 -0.7161
 1199TIP3    H125232   3.387   6.128   1.736  1.4484 -2.9590 -0.7636
 1199TIP3    H225233   3.455   6.093   1.866 -1.1531 -0.1143  1.5245
 1200TIP3   OH225234   2.151   0.649   0.754 -0.2653 -0.0671 -0.6147
 1200TIP3    H125235   2.160   0.745   0.751  1.3952 -0.1596  0.1736
 1200TIP3    H225236   2.229   0.620   0.802 -0.9054 -1.7994 -0.5798
 1201TIP3   OH225237   3.152   2.666   1.107  0.0314  0.1933 -0.6325
 1201TIP3    H125238   3.201   2.735   1.151 -1.6158  0.0412  1.6690
 1201TIP3    H225239   3.217   2.598   1.089  0.7895 -0.0605  2.4138
 1202TIP3   OH225240   3.118   0.140   8.552  0.2843  0.0589  0.2529
 1202TIP3    H125241   3.130   0.077   8.480  0.8863  0.1370  0.2751
 1202TIP3    H225242   3.118   0.086   8.631 -1.5126 -0.1486  0.1390
 1203TIP3   OH225243   2.747   5.608   7.307 -0.6491  0.1443  0.2272
 1203TIP3    H125244   2.838   5.634   7.324 -0.8074 -0.3063  1.8433
 1203TIP3    H225245   2.742   5.517   7.334 -1.4653  0.0189 -0.3210
 1204TIP3   OH225246   5.244   2.873   1.051  0.5812  0.1579 -0.0178
 1204TIP3    H125247   5.255   2.782   1.022 -0.1856  0.0208  0.0771
 1204TIP3    H225248   5.302   2.881   1.127 -0.8196 -0.8942  1.2506
 1205TIP3   OH225249   3.534   2.089   1.775 -0.1107  0.0255 -0.3106
 1205TIP3    H125250   3.514   2.171   1.728  1.3801  1.5880  1.5995
 1205TIP3    H225251   3.449   2.059   1.806 -0.7251  0.7224 -1.2399
 1206TIP3   OH225252   1.755   3.665   2.683  0.0731  0.1515  0.1946
 1206TIP3    H125253   1.689   3.708   2.630 -0.2532 -0.2686  0.2570
 1206TIP3    H225254   1.768   3.724   2.757 -1.0476 -0.2853  0.7619
 1207TIP3   OH225255   2.564   2.571   2.975  0.4513 -0.1399  0.0663
 1207TIP3    H125256   2.597   2.638   2.915  1.9982 -2.3988 -1.8264
 1207TIP3    H225257   2.474   2.597   2.994 -0.4474  0.3244 -3.9638
 1208TIP3   OH225258   4.830   6.887   7.746  0.5690  0.5602  0.1293
 1208TIP3    H125259   4.767   6.814   7.746 -1.0654  1.8812  1.8727
 1208TIP3    H225260   4.904   6.856   7.798  1.3189 -0.8992 -1.6842
 1209TIP3   OH225261   5.284   5.522   8.578 -0.4038 -0.0554 -0.1649
 1209TIP3    H125262   5.328   5.457   8.523  0.6602  0.2892  0.2597
 1209TIP3    H225263   5.303   5.606   8.536  0.6522  0.2386  0.8485
 1210TIP3   OH225264   4.122   0.255   2.570  0.0024  0.1415  0.3312
 1210TIP3    H125265   4.205   0.299   2.589 -0.6142  1.1583  0.8023
 1210TIP3    H225266   4.063   0.285   2.639 -0.8809 -0.2121 -0.2476
 1211TIP3   OH225267   5.732   3.068   1.891 -0.0415 -0.2691  0.0703
 1211TIP3    H125268   5.762   2.977   1.881 -2.1583 -1.0834  0.5966
 1211TIP3    H225269   5.811   3.117   1.914  1.3459 -1.7771 -1.2331
 1212TIP3   OH225270   0.575   5.339   8.075  0.3932 -0.4635 -0.6005
 1212TIP3    H125271   0.562   5.285   8.153 -1.3114 -1.2922 -1.3988
 1212TIP3    H225272   0.597   5.425   8.108 -2.0088 -0.3408  0.9071
 1213TIP3   OH225273   2.151   1.298   1.710  0.0486 -0.0645  0.6923
 1213TIP3    H125274   2.076   1.253   1.671  0.2479 -0.2330  0.4984
 1213TIP3    H225275   2.143   1.282   1.804  1.2214 -2.2451  0.4936
 1214TIP3   OH225276   6.220   0.367   1.799 -0.0707  0.5646 -0.0335
 1214TIP3    H125277   6.183   0.280   1.784  3.4863 -1.5140  1.8785
 1214TIP3    H225278   6.302   0.367   1.750  1.1239  1.8787  1.8112
 1215TIP3   OH225279   0.633   1.301   8.445 -0.1966  0.2105 -0.2103
 1215TIP3    H125280   0.696   1.362   8.484  0.7957 -0.8091 -0.1624
 1215TIP3    H225281   0.688   1.237   8.400 -1.2547 -0.0581 -1.1498
 1216TIP3   OH225282   6.003   0.600   8.478 -0.1115 -0.2444  0.0065
 1216TIP3    H125283   6.060   0.672   8.449 -1.4088  0.7964 -0.0459
 1216TIP3    H225284   5.962   0.633   8.558 -2.4352  0.0173 -1.2194
 1217TIP3   OH225285   5.399   0.384   2.095 -0.2889 -0.3090 -0.0667
 1217TIP3    H125286   5.435   0.328   2.164 -1.6957 -0.9866  0.1519
 1217TIP3    H225287   5.435   0.471   2.113  1.2922 -0.9549  0.0605
 1218TIP3   OH225288   0.280   5.622   0.422  0.6637 -0.4476 -0.0231
 1218TIP3    H125289   0.366   5.664   0.418  0.5272 -0.2347 -1.0150
 1218TIP3    H225290   0.261   5.598   0.331  0.5675 -2.3040  0.4361
 1219TIP3   OH225291   6.177   3.065   2.210  0.1106 -0.1186  0.1806
 1219TIP3    H125292   6.232   2.989   2.226  0.4198 -0.3385 -1.6717
 1219TIP3    H225293   6.234   3.128   2.167 -0.6168  0.4007 -0.0568
 1220TIP3   OH225294   3.965   3.859   2.247  0.0845  0.1145  0.6553
 1220TIP3    H125295   3.984   3.784   2.305  0.3744 -0.1311  0.2492
 1220TIP3    H225296   3.875   3.845   2.218  0.4024 -0.5301 -0.0710
 1221TIP3   OH225297   3.847   0.508   8.486  0.2648 -0.2989 -0.2408
 1221TIP3    H125298   3.932   0.546   8.508  0.2976 -1.2119  1.3297
 1221TIP3    H225299   3.864   0.456   8.407  1.6435 -1.9351  1.0409
 1222TIP3   OH225300   4.726   3.882   1.357 -0.5206  0.2946 -0.1946
 1222TIP3    H125301   4.821   3.887   1.344 -0.3375 -0.6936  0.6593
 1222TIP3    H225302   4.698   3.808   1.304 -0.8421  0.6499 -0.5279
 1223TIP3   OH225303   5.931   1.374   1.654  0.1010  0.7385 -0.3614
 1223TIP3    H125304   5.892   1.292   1.687  0.5789  0.8199  0.4453
 1223TIP3    H225305   5.868   1.442   1.678  0.2905  0.7542  0.1129
 1224TIP3   OH225306   6.869   2.993   2.774 -0.2983 -0.4932  0.4842
 1224TIP3    H125307   6.849   2.939   2.698  0.1141  2.9886 -2.3803
 1224TIP3    H225308   6.784   3.027   2.803 -0.3844 -1.2550  1.1396
 1225TIP3   OH225309   5.728   3.549   8.553 -1.2506  0.6904 -0.0118
 1225TIP3    H125310   5.693   3.618   8.497  0.2363  2.8356  1.5781
 1225TIP3    H225311   5.809   3.523   8.509 -1.5183  0.3421 -0.3083
 1226TIP3   OH225312   4.088   0.259   2.297  0.0223  0.1302 -0.0426
 1226TIP3    H125313   4.152   0.188   2.301  0.6287  0.7101  1.0500
 1226TIP3    H225314   4.066   0.277   2.388 -0.3767  1.1160 -0.3165
 1227TIP3   OH225315   4.254   6.325   0.761 -0.5688 -0.0791 -0.3515
 1227TIP3    H125316   4.339   6.353   0.793 -0.9005 -0.2751  0.7280
 1227TIP3    H225317   4.272   6.249   0.706 -0.1290 -0.6190  0.5351
 1228TIP3   OH225318   4.260   0.685   1.415  0.1351 -0.0261  0.5225
 1228TIP3    H125319   4.277   0.595   1.389 -0.7465 -1.2193  3.6575
 1228TIP3    H225320   4.236   0.729   1.333 -0.2514 -2.8074 -0.9860
 1229TIP3   OH225321   6.283   5.285   1.269  0.0310  0.2262  0.4687
 1229TIP3    H125322   6.261   5.363   1.319 -2.6179 -0.5685  0.7321
 1229TIP3    H225323   6.298   5.316   1.180 -0.6769  1.0874  0.6405
 1230TIP3   OH225324   5.928   5.427   2.268 -0.2406 -0.6403  0.2870
 1230TIP3    H125325   5.924   5.513   2.310 -0.3438  0.0751 -1.1223
 1230TIP3    H225326   5.865   5.373   2.316 -1.1390  0.4485  0.3642
 1231TIP3   OH225327   0.183   4.166   7.525 -0.2788 -0.0367  0.1064
 1231TIP3    H125328   0.194   4.247   7.574  1.1210 -0.8033  1.1449
 1231TIP3    H225329   0.244   4.174   7.451 -0.0668 -0.1861  0.2655
 1232TIP3   OH225330   3.103   1.954   8.499  0.0409  0.3513 -0.2202
 1232TIP3    H125331   3.078   2.008   8.424 -2.6442  0.6433  0.7832
 1232TIP3    H225332   3.099   1.864   8.466 -0.3422  0.5192 -0.6425
 1233TIP3   OH225333   4.653   0.645   0.581 -0.2813  0.2992  0.3859
 1233TIP3    H125334   4.604   0.727   0.591  2.0054  2.1308 -2.1186
 1233TIP3    H225335   4.629   0.612   0.495  2.2830  0.9410 -0.6668
 1234TIP3   OH225336   0.378   4.506   8.382  0.3163 -0.6511 -0.2728
 1234TIP3    H125337   0.380   4.596   8.415  0.2503 -0.6488 -0.2737
 1234TIP3    H225338   0.330   4.512   8.299 -0.0380 -0.7476 -0.0779
 1235TIP3   OH225339   0.527   2.377   0.634  0.1749 -0.1335 -0.2062
 1235TIP3    H125340   0.568   2.445   0.579 -0.1466  0.8990  0.7878
 1235TIP3    H225341   0.481   2.426   0.702 -0.0519 -1.3650  0.5573
 1236TIP3   OH225342   2.018   1.479   1.238  0.6405 -0.8176 -0.3322
 1236TIP3    H125343   2.061   1.440   1.161  0.8660  0.2337 -0.7491
 1236TIP3    H225344   1.967   1.552   1.203 -1.8768 -2.2462  0.0776
 1237TIP3   OH225345   2.575   2.088   7.938 -0.0375  0.2613 -0.2426
 1237TIP3    H125346   2.638   2.018   7.956 -0.3991 -0.4362 -1.5410
 1237TIP3    H225347   2.490   2.048   7.955 -0.1788  1.0795  1.1159
 1238TIP3   OH225348   4.080   5.751   3.282  0.1849 -0.2971 -0.4298
 1238TIP3    H125349   4.091   5.656   3.288 -1.2381 -0.5300 -1.1060
 1238TIP3    H225350   4.007   5.770   3.340  1.3995  0.6224  0.8720
 1239TIP3   OH225351   1.965   3.294   0.686 -0.3914 -0.0300 -0.1243
 1239TIP3    H125352   2.009   3.285   0.770  0.8278 -0.9445 -0.8268
 1239TIP3    H225353   1.873   3.277   0.705  0.0019 -1.1316  0.8663
 1240TIP3   OH225354   4.387   4.653   1.324  0.0176 -0.3915 -0.3320
 1240TIP3    H125355   4.413   4.651   1.232 -0.2981  1.0131 -0.4820
 1240TIP3    H225356   4.453   4.601   1.370  0.3964 -0.7707 -1.3001
 1241TIP3   OH225357   3.983   3.720   7.066  0.3162  0.5135  0.1883
 1241TIP3    H125358   4.010   3.811   7.073  1.2788  0.2486  0.0895
 1241TIP3    H225359   3.923   3.706   7.139 -0.7889  1.5319 -0.4810
 1242TIP3   OH225360   4.610   1.034   0.141 -0.2906  0.3207  0.1472
 1242TIP3    H125361   4.538   0.978   0.167 -0.8840  1.6724  1.5859
 1242TIP3    H225362   4.602   1.042   0.046 -0.2858 -1.8140 -0.0743
 1243TIP3   OH225363   2.589   4.246   0.480  0.6575  0.4841  0.5200
 1243TIP3    H125364   2.548   4.317   0.430  1.2793  0.9753  0.7004
 1243TIP3    H225365   2.521   4.178   0.485 -0.1592  1.3003  0.8579
 1244TIP3   OH225366   6.666   5.189   7.383 -0.1723  0.0300 -0.6447
 1244TIP3    H125367   6.672   5.167   7.476 -1.0965  0.8765 -0.3733
 1244TIP3    H225368   6.624   5.113   7.343  0.8042 -0.6060 -0.4923
 1245TIP3   OH225369   1.018   3.488   7.740 -0.1460  0.1379  0.0640
 1245TIP3    H125370   1.003   3.551   7.669 -1.6340  0.0635  0.2967
 1245TIP3    H225371   1.066   3.539   7.806  0.2713  0.5077 -0.5084
 1246TIP3   OH225372   3.221   4.826   2.392  0.1640  0.3209 -0.4641
 1246TIP3    H125373   3.240   4.820   2.485 -1.5820 -0.8356 -0.1484
 1246TIP3    H225374   3.155   4.759   2.376 -0.6250  1.4393 -2.2464
 1247TIP3   OH225375   3.496   4.457   0.235  0.3866  0.1726 -0.2607
 1247TIP3    H125376   3.521   4.375   0.193 -1.4203 -0.4272 -0.2599
 1247TIP3    H225377   3.570   4.515   0.221  1.3922 -1.2201 -0.9227
 1248TIP3   OH225378   0.127   4.064   0.897 -0.0575 -0.5008  0.4006
 1248TIP3    H125379   0.112   3.983   0.849 -2.9453  0.3946 -0.4308
 1248TIP3    H225380   0.174   4.121   0.836 -2.3059  0.0687 -0.9118
 1249TIP3   OH225381   0.521   2.752   1.492 -0.2277 -0.1873 -0.0719
 1249TIP3    H125382   0.469   2.748   1.412 -0.7285 -1.3601  0.2944
 1249TIP3    H225383   0.603   2.707   1.469  0.9290  2.1158 -0.8130
 1250TIP3   OH225384   3.012   1.627   2.263  0.2405 -0.4762  0.6036
 1250TIP3    H125385   3.056   1.685   2.200  0.6752 -0.9245  0.4932
 1250TIP3    H225386   3.012   1.677   2.345 -0.4413  0.1627  0.2269
 1251TIP3   OH225387   1.338   5.375   1.986 -0.4037  0.2525  0.0598
 1251TIP3    H125388   1.384   5.315   1.927 -1.1438  0.4905 -0.7742
 1251TIP3    H225389   1.408   5.425   2.028  0.2515 -1.4512  1.0881
 1252TIP3   OH225390   1.423   1.156   7.473  0.4357  0.4743  0.0929
 1252TIP3    H125391   1.478   1.153   7.396  1.5452 -0.3750  0.8852
 1252TIP3    H225392   1.398   1.064   7.488  2.7994  0.1128  2.4858
 1253TIP3   OH225393   4.673   2.579   1.079  0.1266  0.0138  0.2827
 1253TIP3    H125394   4.629   2.496   1.095 -0.0570 -0.0206 -0.3684
 1253TIP3    H225395   4.704   2.607   1.165  1.0002 -1.1839  0.3782
 1254TIP3   OH225396   0.477   5.251   0.865  0.0531 -0.2892  0.2224
 1254TIP3    H125397   0.427   5.303   0.928  1.0384 -0.9154  1.5614
 1254TIP3    H225398   0.489   5.309   0.790 -1.1984  0.4483  0.5678
 1255TIP3   OH225399   1.332   5.051   1.432  0.2149 -0.1807 -0.1166
 1255TIP3    H125400   1.357   5.056   1.524 -1.4303 -1.8591  0.4813
 1255TIP3    H225401   1.261   5.114   1.423 -0.2852 -0.7145  0.0261
 1256TIP3   OH225402   0.868   4.426   2.715 -0.8340 -1.1610  0.2840
 1256TIP3    H125403   0.911   4.400   2.633 -1.3716 -2.2141  0.3201
 1256TIP3    H225404   0.929   4.488   2.755  0.7471 -2.6698  0.3782
 1257TIP3   OH225405   5.482   0.199   2.273  0.3296 -0.5142 -0.2230
 1257TIP3    H125406   5.456   0.107   2.269 -0.0640 -0.4131 -0.0008
 1257TIP3    H225407   5.574   0.197   2.302  0.7590 -0.8942 -1.5422
 1258TIP3   OH225408   3.651   2.200   8.482  0.5742 -0.7215  0.2312
 1258TIP3    H125409   3.705   2.145   8.426  0.4874  1.8127 -2.5915
 1258TIP3    H225410   3.710   2.267   8.514  0.3173 -1.3778  2.2119
 1259TIP3   OH225411   1.085   4.943   7.148 -0.0435  0.0053  0.1188
 1259TIP3    H125412   1.102   4.898   7.065  1.2121 -0.6119  0.6943
 1259TIP3    H225413   1.102   4.877   7.215 -1.9129  0.2321  0.8769
 1260TIP3   OH225414   3.587   0.874   1.543  0.0146 -0.2626  0.4467
 1260TIP3    H125415   3.608   0.781   1.540 -0.0631 -0.2876  0.6946
 1260TIP3    H225416   3.583   0.896   1.636 -0.9124 -0.2305  0.4124
 1261TIP3   OH225417   2.755   5.713   2.340 -0.2827 -0.1719 -0.2488
 1261TIP3    H125418   2.791   5.659   2.411 -0.8179 -0.5942 -0.2869
 1261TIP3    H225419   2.713   5.787   2.385  0.9585  0.5331 -0.2258
 1262TIP3   OH225420   5.556   3.238   2.243 -0.3472  0.2307 -1.0036
 1262TIP3    H125421   5.650   3.248   2.231 -0.1111 -0.8286 -0.2018
 1262TIP3    H225422   5.543   3.143   2.248 -1.3462  0.3915 -0.2921
 1263TIP3   OH225423   6.608   4.605   2.904 -0.1524  1.1045  0.3525
 1263TIP3    H125424   6.655   4.666   2.847  0.1774 -0.3669 -1.0244
 1263TIP3    H225425   6.676   4.560   2.954 -0.4050  1.9573  1.5104
 1264TIP3   OH225426   6.652   5.166   7.656 -0.0590  0.3633 -0.1551
 1264TIP3    H125427   6.642   5.223   7.732 -1.1535 -0.7968  0.6193
 1264TIP3    H225428   6.629   5.079   7.688  0.4495 -0.3304 -1.5752
 1265TIP3   OH225429   0.752   5.365   6.998 -0.6256  0.3757 -0.1518
 1265TIP3    H125430   0.788   5.445   7.036  3.6283 -2.1020  1.7379
 1265TIP3    H225431   0.728   5.390   6.909 -0.6791  3.9670  0.7025
 1266TIP3   OH225432   5.486   3.415   7.096 -0.5783 -0.1348 -0.4567
 1266TIP3    H125433   5.544   3.347   7.061 -0.6327 -1.3106  1.6014
 1266TIP3    H225434   5.522   3.436   7.182 -1.9917  0.6615 -0.0220
 1267TIP3   OH225435   5.089   1.340   0.073 -0.4227 -0.0267  0.2194
 1267TIP3    H125436   5.092   1.354  -0.022 -0.8862 -0.5378  0.1201
 1267TIP3    H225437   5.062   1.248   0.082  0.5940 -0.2820  0.8392
 1268TIP3   OH225438   6.083   4.142   2.529  0.5520 -0.1014  0.0429
 1268TIP3    H125439   6.153   4.107   2.474  0.8915  1.0351 -0.2821
 1268TIP3    H225440   6.009   4.084   2.512  0.9095 -0.2981 -0.9576
 1269TIP3   OH225441   6.764   5.989   7.961 -0.3935 -0.5030 -0.3061
 1269TIP3    H125442   6.743   5.904   8.001  0.1156 -0.9902 -1.0371
 1269TIP3    H225443   6.789   6.045   8.035  2.0922 -1.8448 -0.0113
 1270TIP3   OH225444   6.825   1.874   7.355  0.2591  0.4151 -0.8194
 1270TIP3    H125445   6.860   1.903   7.439  1.3888 -0.6043 -0.9004
 1270TIP3    H225446   6.766   1.802   7.378 -1.5665  1.8804 -0.7162
 1271TIP3   OH225447   4.156   0.005   7.688 -0.6059  0.6704  0.5545
 1271TIP3    H125448   4.206  -0.011   7.767 -1.0221 -2.1832  0.3699
 1271TIP3    H225449   4.082  -0.055   7.694 -0.1970 -0.3139 -2.3334
 1272TIP3   OH225450   0.223   2.791   6.506 -0.3122 -0.2072  0.0646
 1272TIP3    H125451   0.203   2.805   6.599  0.5780 -0.3162  0.2827
 1272TIP3    H225452   0.270   2.707   6.504 -0.7099 -0.4202 -0.5427
 1273TIP3   OH225453   6.650   6.490   7.946 -0.3265  0.2262  0.1614
 1273TIP3    H125454   6.597   6.461   8.020 -0.7375  0.3834 -0.0750
 1273TIP3    H225455   6.729   6.526   7.986  0.5352 -1.8498  0.4656
 1274TIP3   OH225456   3.898   6.852   7.650 -0.1560  0.0153 -0.6506
 1274TIP3    H125457   3.828   6.786   7.653 -0.5103  0.4077  0.1320
 1274TIP3    H225458   3.860   6.926   7.604 -0.0035 -0.0508 -0.8832
 1275TIP3   OH225459   0.584   0.363   7.761 -0.3614 -0.5232  0.3225
 1275TIP3    H125460   0.627   0.309   7.827  1.5456 -0.5604 -0.8737
 1275TIP3    H225461   0.598   0.317   7.679 -0.8123  0.5842 -0.4042
 1276TIP3   OH225462   5.013   5.999   2.196 -0.3179 -0.5586 -0.0526
 1276TIP3    H125463   5.011   6.029   2.106 -1.6500  1.2770  0.5228
 1276TIP3    H225464   5.099   6.026   2.229 -1.3421  2.6310  0.3531
 1277TIP3   OH225465   4.571   4.011   0.573 -0.0097  0.0926  0.3772
 1277TIP3    H125466   4.532   4.065   0.505  0.5344 -0.4300 -0.3608
 1277TIP3    H225467   4.517   4.028   0.651 -0.0983  1.3702  0.0579
 1278TIP3   OH225468   2.622   2.313   8.073 -0.7044  0.2130 -0.1538
 1278TIP3    H125469   2.569   2.263   8.011 -1.2503 -1.2433  1.3991
 1278TIP3    H225470   2.641   2.251   8.143 -0.3747  1.8802  1.2961
 1279TIP3   OH225471   3.625   5.932   7.891 -0.1525 -0.2554 -0.6061
 1279TIP3    H125472   3.685   5.959   7.960 -0.6566  1.3047 -0.7542
 1279TIP3    H225473   3.586   5.851   7.925  1.2036 -0.7116 -0.0434
 1280TIP3   OH225474   6.869   0.475   0.931 -0.0667 -0.2734  0.2455
 1280TIP3    H125475   6.904   0.512   1.012  0.2054  2.4171 -0.9927
 1280TIP3    H225476   6.777   0.458   0.950  0.0905 -0.0696  1.2489
 1281TIP3   OH225477   4.151   0.094   0.843  0.1870 -0.4471  0.0936
 1281TIP3    H125478   4.098   0.158   0.796  0.1550 -0.1191  0.5711
 1281TIP3    H225479   4.116   0.094   0.932 -0.7749 -2.1963 -0.2470
 1282TIP3   OH225480   1.131   1.541   1.799 -0.4489 -0.5167  0.0522
 1282TIP3    H125481   1.059   1.593   1.764  0.4829  0.2916 -0.6948
 1282TIP3    H225482   1.155   1.584   1.881  1.8532  1.7310 -1.6644
 1283TIP3   OH225483   3.244   4.319   8.498  0.4584 -0.7543  0.2216
 1283TIP3    H125484   3.331   4.291   8.468 -0.0849 -0.2052 -1.9752
 1283TIP3    H225485   3.225   4.398   8.448 -2.1126 -1.9111 -0.8192
 1284TIP3   OH225486   6.532   1.627   8.159  0.0326  0.3157 -0.2908
 1284TIP3    H125487   6.523   1.608   8.066 -1.4284  1.5208 -0.4397
 1284TIP3    H225488   6.586   1.555   8.193 -1.9483 -1.8845 -1.4819
 1285TIP3   OH225489   6.025   2.167   8.420  0.0405 -0.0382 -0.1009
 1285TIP3    H125490   6.055   2.188   8.508  2.6027 -0.7594 -0.7311
 1285TIP3    H225491   6.085   2.098   8.389 -2.3484 -1.6768 -1.4781
 1286TIP3   OH225492   1.186   0.537   0.109  0.4075  0.0471  0.2341
 1286TIP3    H125493   1.256   0.472   0.114 -0.5368 -0.9727  0.6495
 1286TIP3    H225494   1.207   0.599   0.180  0.8579 -0.2712  0.3900
 1287TIP3   OH225495   3.259   0.935   0.434  0.1321 -0.7373  0.0685
 1287TIP3    H125496   3.285   0.852   0.476  0.0186 -1.7587 -1.7798
 1287TIP3    H225497   3.179   0.913   0.386 -0.0569  0.5336 -0.2160
 1288TIP3   OH225498   4.608   0.920   2.429 -0.7012  0.1145 -0.1049
 1288TIP3    H125499   4.642   0.987   2.489  0.1564 -0.3572 -0.0508
 1288TIP3    H225500   4.647   0.942   2.345  0.9268 -1.2603  0.2502
 1289TIP3   OH225501   4.755   5.535   8.349  0.6209 -0.4419  0.3897
 1289TIP3    H125502   4.770   5.483   8.428 -0.1885  0.9642  1.5329
 1289TIP3    H225503   4.740   5.624   8.382  1.6667  0.4787 -1.4518
 1290TIP3   OH225504   0.513   2.661   0.406 -0.0161  0.2190  0.5367
 1290TIP3    H125505   0.434   2.609   0.393 -1.4286  2.1707  0.7434
 1290TIP3    H225506   0.544   2.681   0.318 -0.7740  0.8422  0.3958
 1291TIP3   OH225507   0.017   0.553   0.510 -0.8098  0.6264  0.2906
 1291TIP3    H125508   0.041   0.485   0.572 -2.0484 -0.3606 -0.2627
 1291TIP3    H225509   0.070   0.629   0.535  0.1978 -0.3664  1.2549
 1292TIP3   OH225510   2.535   6.042   1.672 -0.2046  0.2193 -0.6231
 1292TIP3    H125511   2.598   5.979   1.636 -0.0486  0.6190 -1.0524
 1292TIP3    H225512   2.589   6.114   1.705 -0.4161  0.3788 -0.6225
 1293TIP3   OH225513   5.609   3.322   7.803  0.2987 -0.7088  0.5014
 1293TIP3    H125514   5.650   3.396   7.759  1.5786 -0.7575  1.5706
 1293TIP3    H225515   5.653   3.316   7.888 -2.2385 -0.4539  1.9623
 1294TIP3   OH225516   3.448   5.651   8.041 -0.5765  0.3624 -0.7067
 1294TIP3    H125517   3.426   5.721   8.103 -1.1991  0.2882 -0.8279
 1294TIP3    H225518   3.543   5.647   8.041 -0.5682 -0.2134  0.8797
 1295TIP3   OH225519   0.243   6.588   7.920 -0.5790  0.3498 -0.6728
 1295TIP3    H125520   0.326   6.555   7.886 -0.7307  0.5963 -1.2920
 1295TIP3    H225521   0.259   6.600   8.014  0.5859  1.9056 -1.0305
 1296TIP3   OH225522   6.098   2.397   2.832  0.3414  0.2416 -0.5915
 1296TIP3    H125523   6.115   2.442   2.749  1.2268  0.4740 -0.2961
 1296TIP3    H225524   6.097   2.467   2.897  1.1070 -0.0825 -0.2147
 1297TIP3   OH225525   2.120   0.155   7.673  0.0087 -0.7396  0.2193
 1297TIP3    H125526   2.136   0.170   7.766  0.9336 -0.2503 -0.0084
 1297TIP3    H225527   2.207   0.157   7.633 -0.4893  0.5481 -0.8705
 1298TIP3   OH225528   0.783   2.401   0.277  0.4974 -0.0301 -0.6109
 1298TIP3    H125529   0.722   2.350   0.224 -1.0039  0.9460  0.1067
 1298TIP3    H225530   0.742   2.407   0.363  2.6267 -1.1067  0.5528
 1299TIP3   OH225531   5.267   5.481   6.854 -0.7641  0.1019 -0.0392
 1299TIP3    H125532   5.328   5.499   6.783  1.4215  0.0798  1.7070
 1299TIP3    H225533   5.261   5.564   6.902 -2.7953  0.3372 -0.5811
 1300TIP3   OH225534   4.976   3.761   0.071 -0.6313 -0.0801 -0.4877
 1300TIP3    H125535   5.020   3.695   0.018 -0.0235  0.6317 -0.8822
 1300TIP3    H225536   5.015   3.752   0.158  1.8931  1.9296 -1.3081
 1301TIP3   OH225537   4.993   6.192   1.058 -0.7685  0.1565 -0.0529
 1301TIP3    H125538   4.998   6.247   1.136  1.4907  2.2509 -1.5538
 1301TIP3    H225539   5.044   6.115   1.080  0.2639  0.9472  0.3888
 1302TIP3   OH225540   0.095   0.844   8.005 -0.5221  0.2923  0.3951
 1302TIP3    H125541   0.152   0.814   8.077  0.3254  0.7605 -0.0597
 1302TIP3    H225542   0.037   0.908   8.046  0.2557  0.8954  0.5974
 1303TIP3   OH225543   0.919   6.480   7.951 -0.0581  0.1249  0.1453
 1303TIP3    H125544   0.918   6.384   7.948 -0.2607  0.1428 -0.4603
 1303TIP3    H225545   0.931   6.507   7.859  0.8235  0.6681  0.4006
 1304TIP3   OH225546   0.933   5.562   7.316  0.4731 -0.2612  0.2676
 1304TIP3    H125547   0.925   5.589   7.408  0.2266 -1.9130  0.7601
 1304TIP3    H225548   1.019   5.520   7.311  0.1328 -0.9354 -0.0322
 1305TIP3   OH225549   5.408   2.939   2.597  0.1924  0.1131  0.6705
 1305TIP3    H125550   5.476   2.998   2.630 -0.5883  1.2162  0.3588
 1305TIP3    H225551   5.329   2.993   2.594 -0.3717 -0.7350 -0.3703
 1306TIP3   OH225552   5.090   2.037   1.934  0.3712 -0.0957 -0.1493
 1306TIP3    H125553   5.011   2.075   1.896  0.0626 -0.5590  0.0196
 1306TIP3    H225554   5.162   2.078   1.886 -0.0089 -3.0694 -3.6593
 1307TIP3   OH225555   0.658   1.687   7.934  0.3285  0.1960  0.2132
 1307TIP3    H125556   0.752   1.701   7.941  0.6368 -0.7175 -1.4345
 1307TIP3    H225557   0.636   1.716   7.845 -0.3766 -2.2444 -0.4822
 1308TIP3   OH225558   4.784   5.705   0.763  0.2777  0.9569  0.6112
 1308TIP3    H125559   4.866   5.684   0.717  0.3222 -1.4568  1.6712
 1308TIP3    H225560   4.717   5.703   0.694  0.7409  0.2486  0.1738
 1309TIP3   OH225561   5.073   5.563   0.201 -0.1037 -0.2673 -0.7038
 1309TIP3    H125562   5.085   5.504   0.275  4.0382  1.9658  0.7243
 1309TIP3    H225563   5.139   5.536   0.137  1.0282  1.8789 -0.5463
 1310TIP3   OH225564   5.766   4.214   1.910 -0.0260  0.0234 -0.1211
 1310TIP3    H125565   5.726   4.264   1.982  0.2219 -0.7644  0.5824
 1310TIP3    H225566   5.822   4.277   1.865 -2.0041  1.1874 -1.1437
 1311TIP3   OH225567   6.685   5.383   0.822 -0.1185 -0.8569 -0.1405
 1311TIP3    H125568   6.600   5.410   0.787  0.2201 -0.3101 -0.5634
 1311TIP3    H225569   6.727   5.337   0.750 -0.2296 -1.5309  0.2146
 1312TIP3   OH225570   4.895   4.484   1.474  0.0086 -0.0625  0.2541
 1312TIP3    H125571   4.979   4.482   1.520 -0.3253 -0.9024  0.8561
 1312TIP3    H225572   4.901   4.412   1.411  0.0092  0.3376 -0.2105
 1313TIP3   OH225573   6.039   4.933   8.381  0.0590  0.7644 -0.4514
 1313TIP3    H125574   6.124   4.905   8.414 -0.0338  1.4618  0.4086
 1313TIP3    H225575   6.033   4.894   8.294  1.3331  0.8701 -0.6032
 1314TIP3   OH225576   3.421   2.868   0.449 -0.5622 -0.4519  0.2386
 1314TIP3    H125577   3.365   2.930   0.496  0.2699  0.6496 -0.1781
 1314TIP3    H225578   3.392   2.782   0.478 -0.6730  0.1764  2.0722
 1315TIP3   OH225579   4.701   5.627   1.762  0.0058 -0.3810  0.6788
 1315TIP3    H125580   4.791   5.605   1.785  0.7012 -0.0205 -1.4947
 1315TIP3    H225581   4.656   5.542   1.762  1.1193 -1.0361 -1.2222
 1316TIP3   OH225582   0.381   3.351   8.312  0.1223 -0.2411 -0.4146
 1316TIP3    H125583   0.289   3.367   8.330 -0.3380  0.1332 -2.8102
 1316TIP3    H225584   0.418   3.326   8.397 -2.4223 -1.6987  0.3690
 1317TIP3   OH225585   0.993   0.939   7.678  0.5713  0.0571  0.5613
 1317TIP3    H125586   1.069   0.895   7.715  1.7116  0.7198 -0.9100
 1317TIP3    H225587   0.927   0.869   7.670  1.2534 -0.6807  1.1676
 1318TIP3   OH225588   3.504   2.081   0.101 -0.2586  0.3198 -0.4558
 1318TIP3    H125589   3.559   2.122   0.034  1.5373 -0.2978  0.5591
 1318TIP3    H225590   3.510   2.140   0.177  1.0844 -0.9254  0.4844
 1319TIP3   OH225591   0.941   0.102   8.072  0.4102  0.2514 -0.3568
 1319TIP3    H125592   0.886   0.118   7.996  2.7366  2.3501 -1.7510
 1319TIP3    H225593   1.018   0.056   8.037  0.8858 -0.0198  0.9786
 1320TIP3   OH225594   0.594   5.922   6.964 -0.2926  0.1834 -0.0981
 1320TIP3    H125595   0.609   5.853   6.899 -0.2333 -0.5831  0.6983
 1320TIP3    H225596   0.617   6.003   6.919  1.1259 -0.4604 -0.5989
 1321TIP3   OH225597   4.726   3.493   8.225  0.2461 -0.3157  0.0794
 1321TIP3    H125598   4.723   3.587   8.241 -0.9036 -0.3910  0.4078
 1321TIP3    H225599   4.646   3.459   8.266 -0.1008 -1.2344 -1.2645
 1322TIP3   OH225600   4.419   6.174   2.732  0.1002  0.1335  0.3189
 1322TIP3    H125601   4.381   6.233   2.797 -0.5576 -1.1228  1.1156
 1322TIP3    H225602   4.483   6.123   2.780 -0.4179 -0.8348  0.0136
 1323TIP3   OH225603   3.700   6.532   8.536  0.1010 -0.4951 -0.2528
 1323TIP3    H125604   3.636   6.481   8.585 -1.3628  0.7523 -0.7808
 1323TIP3    H225605   3.726   6.475   8.464 -0.6582 -0.9314 -0.1943
 1324TIP3   OH225606   0.780   3.675   8.339  0.5204  0.1354 -0.0500
 1324TIP3    H125607   0.824   3.756   8.315  1.6404 -0.4319  0.0051
 1324TIP3    H225608   0.706   3.702   8.394  2.3960  0.9983  2.2058
 1325TIP3   OH225609   3.659   4.286   0.935 -0.4253  0.0241  0.8179
 1325TIP3    H125610   3.634   4.257   1.023  3.2564 -1.1826  1.6704
 1325TIP3    H225611   3.735   4.343   0.949  0.7584 -0.8272 -1.5536
 1326TIP3   OH225612   3.536   1.718   1.772  0.3012 -0.1366 -0.1835
 1326TIP3    H125613   3.525   1.720   1.867 -0.9047 -0.0568 -0.3178
 1326TIP3    H225614   3.519   1.627   1.747  1.1629 -0.2819 -0.2673
 1327TIP3   OH225615   5.329   3.466   8.039 -0.0976 -0.2515 -0.2783
 1327TIP3    H125616   5.278   3.479   8.120 -0.7162 -0.4661 -0.6294
 1327TIP3    H225617   5.275   3.505   7.971  0.1296 -0.6492 -0.6860
 1328TIP3   OH225618   0.227   0.116   7.267  0.4183  0.1229 -0.3599
 1328TIP3    H125619   0.182   0.200   7.270  0.2253  0.0158 -0.2461
 1328TIP3    H225620   0.167   0.055   7.310  1.0446  0.1587  0.6108
 1329TIP3   OH225621   1.650   0.282   1.844  0.5196 -0.0394  0.1090
 1329TIP3    H125622   1.649   0.279   1.748  0.5691  0.1835  0.1028
 1329TIP3    H225623   1.559   0.297   1.868  0.9500  3.3776 -0.0023
 1330TIP3   OH225624   5.233   3.846   2.532 -0.4929 -0.1540  0.3909
 1330TIP3    H125625   5.271   3.847   2.620  0.3201 -3.2953  0.1808
 1330TIP3    H225626   5.256   3.931   2.496  3.0114 -0.3606  1.7067
 1331TIP3   OH225627   6.158   5.726   2.493  0.1012  0.8056  0.0667
 1331TIP3    H125628   6.133   5.773   2.573 -2.4787  0.3732 -0.3743
 1331TIP3    H225629   6.074   5.709   2.449  1.3583  0.1626 -2.2485
 1332TIP3   OH225630   4.079   1.197   1.189 -0.0743  0.5166 -0.0234
 1332TIP3    H125631   4.049   1.211   1.278 -0.1949  0.3202 -0.0322
 1332TIP3    H225632   4.068   1.281   1.145 -0.3237  0.5260  0.0571
 1333TIP3   OH225633   3.346   1.618   2.232  0.3327  0.0400 -0.0062
 1333TIP3    H125634   3.378   1.700   2.269  1.7626 -0.5216  0.0563
 1333TIP3    H225635   3.318   1.567   2.308 -0.2777  0.3464 -0.0212
 1334TIP3   OH225636   4.133   6.808   7.958 -0.3542 -0.1507 -0.1570
 1334TIP3    H125637   4.112   6.792   8.050  2.6652  0.1968  0.7032
 1334TIP3    H225638   4.076   6.881   7.933 -1.4012 -0.3980  1.3576
 1335TIP3   OH225639   0.380   5.179   2.235  0.1562  0.1194  0.2285
 1335TIP3    H125640   0.367   5.250   2.298  0.3372  0.4781 -0.1362
 1335TIP3    H225641   0.315   5.113   2.260 -1.3623  1.2437 -0.6532
 1336TIP3   OH225642   0.772   3.341   0.057 -0.3275 -0.3976  0.1736
 1336TIP3    H125643   0.836   3.408   0.034  0.6692 -1.9855 -2.0864
 1336TIP3    H225644   0.776   3.335   0.152  0.3224  1.9257  0.3631
 1337TIP3   OH225645   4.286   1.709   0.991  0.3650  0.4375 -0.0158
 1337TIP3    H125646   4.303   1.622   0.957  0.5299  0.6241 -0.4227
 1337TIP3    H225647   4.273   1.697   1.085  0.4517 -0.0128 -0.0618
 1338TIP3   OH225648   3.095   2.151   1.113  0.3803  0.4481 -0.0763
 1338TIP3    H125649   3.150   2.197   1.049 -0.2050  1.1201 -0.0987
 1338TIP3    H225650   3.072   2.218   1.178  1.8131 -0.4411  1.4393
 1339TIP3   OH225651   0.640   6.816   2.246 -0.0554  0.1783 -0.3352
 1339TIP3    H125652   0.581   6.861   2.306 -0.3575 -0.0059 -0.4895
 1339TIP3    H225653   0.592   6.738   2.218  0.5760 -0.4020  0.1573
 1340TIP3   OH225654   1.927   6.194   0.354  0.4379 -0.1201  0.0269
 1340TIP3    H125655   1.876   6.169   0.277  0.4793 -2.4480  0.6687
 1340TIP3    H225656   1.869   6.250   0.404 -0.3179 -0.1727 -0.7626
 1341TIP3   OH225657   1.733   5.399   7.891 -0.2893 -1.3392  0.8469
 1341TIP3    H125658   1.804   5.389   7.827 -0.7676  0.0493  0.0530
 1341TIP3    H225659   1.748   5.329   7.955  0.7514 -2.1840 -0.2706
 1342TIP3   OH225660   1.553   4.710   8.097 -0.3397  0.1525  0.2368
 1342TIP3    H125661   1.504   4.751   8.168  1.1225 -1.2798  2.1622
 1342TIP3    H225662   1.602   4.639   8.138 -0.0095 -1.2509 -2.3494
 1343TIP3   OH225663   6.215   1.962   2.534  0.3534 -0.5731  0.3328
 1343TIP3    H125664   6.231   2.025   2.463 -1.5509  2.6824  2.5424
 1343TIP3    H225665   6.270   1.993   2.606 -0.6867 -1.4137  1.5226
 1344TIP3   OH225666   5.762   1.624   1.684 -0.2150 -0.4314 -0.2975
 1344TIP3    H125667   5.676   1.642   1.722 -0.4209 -0.1438 -0.8915
 1344TIP3    H225668   5.814   1.702   1.706  0.3334 -1.1912  1.2777
 1345TIP3   OH225669   5.568   2.680   0.306 -0.3500  0.0022  0.4201
 1345TIP3    H125670   5.497   2.616   0.301  0.5267 -1.2473  2.4952
 1345TIP3    H225671   5.524   2.764   0.322 -1.3957 -0.6613  1.0910
 1346TIP3   OH225672   6.159   0.432   6.881 -0.7176  0.4978 -0.4485
 1346TIP3    H125673   6.078   0.463   6.921  0.4778  2.0764  0.9380
 1346TIP3    H225674   6.188   0.506   6.826 -0.1221  0.0351 -0.7659
 1347TIP3   OH225675   3.681   5.310   1.406  0.1646  0.1348 -0.0288
 1347TIP3    H125676   3.598   5.264   1.410  0.5533 -0.5510  0.3452
 1347TIP3    H225677   3.726   5.286   1.487  0.2443  1.4535  0.3576
 1348TIP3   OH225678   4.767   4.459   8.309 -0.3358  0.0638 -0.2198
 1348TIP3    H125679   4.692   4.401   8.295  0.1834 -0.5236 -0.6450
 1348TIP3    H225680   4.737   4.523   8.373 -1.5516  0.4886 -1.1811
 1349TIP3   OH225681   0.036   3.480   0.239 -0.4282 -0.4563  0.4283
 1349TIP3    H125682   0.038   3.573   0.214  1.8406 -0.4798  0.3321
 1349TIP3    H225683   0.044   3.480   0.334 -0.1425 -0.5706  0.4034
 1350TIP3   OH225684   0.516   3.294   0.318  0.1883  0.5449  0.2475
 1350TIP3    H125685   0.578   3.323   0.386  0.8361  2.8643 -1.2260
 1350TIP3    H225686   0.475   3.374   0.287  1.2349 -0.1312 -3.3365
 1351TIP3   OH225687   5.542   3.881   0.539  0.2434  0.4289 -0.3588
 1351TIP3    H125688   5.605   3.861   0.469 -0.8210 -0.3270 -1.1339
 1351TIP3    H225689   5.580   3.842   0.617  0.2382 -1.0006 -1.0382
 1352TIP3   OH225690   3.810   3.673   7.287 -0.7205 -0.2034 -0.3349
 1352TIP3    H125691   3.722   3.636   7.278 -1.1207 -0.1797  2.6111
 1352TIP3    H225692   3.794   3.768   7.295 -0.5411 -0.2777  1.0670
 1353TIP3   OH225693   5.015   2.863   1.186  1.0253  0.1176 -0.3311
 1353TIP3    H125694   4.948   2.911   1.138  1.0255  1.3332  0.8454
 1353TIP3    H225695   5.097   2.888   1.143  0.8965 -0.0014 -0.6526
 1354TIP3   OH225696   5.090   5.775   3.018  0.6712  0.7904 -0.2672
 1354TIP3    H125697   4.999   5.801   3.031 -0.0282 -0.0765 -2.8351
 1354TIP3    H225698   5.085   5.681   2.999  2.2225  0.5227  0.4891
 1355TIP3   OH225699   4.189   1.069   8.051 -0.3436 -0.5992 -0.3661
 1355TIP3    H125700   4.185   1.131   8.123 -1.4407 -1.3377  0.2379
 1355TIP3    H225701   4.138   1.110   7.981 -0.6478 -0.5943 -0.1450
 1356TIP3   OH225702   0.844   3.000   0.223  0.3973 -0.5580  0.1796
 1356TIP3    H125703   0.927   2.970   0.187 -0.1809 -0.9571 -0.8796
 1356TIP3    H225704   0.842   2.966   0.312  0.4225 -2.4722 -0.5011
 1357TIP3   OH225705   2.828   1.428   3.325 -0.3936 -0.3500  0.2284
 1357TIP3    H125706   2.785   1.505   3.287  0.7896  0.7912  1.1349
 1357TIP3    H225707   2.905   1.463   3.370  0.7262 -2.1878 -0.1658
 1358TIP3   OH225708   4.747   1.462   8.488  0.4377 -0.4058  0.7790
 1358TIP3    H125709   4.825   1.460   8.432  1.2905  2.6738  1.6441
 1358TIP3    H225710   4.780   1.489   8.574 -1.5493  1.1792  1.1225
 1359TIP3   OH225711   6.067   0.267   2.550  0.3335 -0.0703 -0.0467
 1359TIP3    H125712   6.077   0.188   2.604  0.9797 -0.0590 -0.1474
 1359TIP3    H225713   6.069   0.339   2.612 -0.9139 -0.1458  0.1225
 1360TIP3   OH225714   1.942   0.350   0.135 -0.7072  0.3376 -0.2659
 1360TIP3    H125715   1.857   0.369   0.096 -0.1391  1.2154 -1.1234
 1360TIP3    H225716   2.002   0.412   0.093  0.9833 -2.3295 -2.0758
 1361TIP3   OH225717   0.537   2.965   1.275 -0.1839  0.2967 -0.3051
 1361TIP3    H125718   0.627   2.972   1.306 -0.2051  0.8949 -0.3759
 1361TIP3    H225719   0.486   2.951   1.355 -0.0361 -0.0332 -0.2636
 1362TIP3   OH225720   0.569   3.606   2.660 -0.0362 -0.1179  0.2821
 1362TIP3    H125721   0.538   3.560   2.738 -2.3610 -0.1733 -0.5999
 1362TIP3    H225722   0.663   3.621   2.676 -0.2589 -0.9147  2.6606
 1363TIP3   OH225723   1.569   6.802   7.152  0.2205  0.1581 -0.3761
 1363TIP3    H125724   1.644   6.860   7.149 -1.2562  2.1901 -0.3498
 1363TIP3    H225725   1.563   6.765   7.064  0.4842  1.0577 -0.7856
 1364TIP3   OH225726   4.414   6.861   1.222  0.5869 -0.9760  0.4207
 1364TIP3    H125727   4.334   6.858   1.275  0.3510  1.9082  0.4154
 1364TIP3    H225728   4.470   6.792   1.259 -0.5490 -0.7502  2.7681
 1365TIP3   OH225729   0.542   4.162   6.735  0.3975 -0.2746 -0.7814
 1365TIP3    H125730   0.472   4.103   6.708 -0.0921  0.0055 -0.1367
 1365TIP3    H225731   0.555   4.143   6.828 -1.0355  1.8945 -0.0782
 1366TIP3   OH225732   1.801   0.035   7.172  0.5737  0.4336  0.0422
 1366TIP3    H125733   1.821   0.064   7.261  1.3439 -0.2649  0.1131
 1366TIP3    H225734   1.875   0.065   7.120  0.1002  0.8852 -0.3764
 1367TIP3   OH225735   3.146   5.353   0.203 -0.8030 -0.4064 -0.0178
 1367TIP3    H125736   3.083   5.315   0.141 -1.6289 -0.1482  0.6397
 1367TIP3    H225737   3.114   5.441   0.218  0.0842 -0.0516 -0.1415
 1368TIP3   OH225738   2.763   3.436   7.607 -0.0670 -0.3060  0.0037
 1368TIP3    H125739   2.710   3.480   7.540  0.8311 -0.2221 -0.6713
 1368TIP3    H225740   2.797   3.358   7.563 -1.5564 -1.6657  1.1571
 1369TIP3   OH225741   6.689   6.459   1.236  0.0355  0.2041 -0.0468
 1369TIP3    H125742   6.742   6.384   1.263 -0.6918 -0.5109 -0.5829
 1369TIP3    H225743   6.752   6.530   1.225  0.5236  0.2398  2.3805
 1370TIP3   OH225744   0.174   0.642   1.888  0.2946  0.2157 -0.7444
 1370TIP3    H125745   0.245   0.696   1.925 -0.0027 -0.9137  1.7277
 1370TIP3    H225746   0.098   0.664   1.941 -0.4072 -0.8896 -1.2682
 1371TIP3   OH225747   1.696   5.318   2.124  0.2254  0.3688 -0.1155
 1371TIP3    H125748   1.751   5.319   2.203  0.5974 -2.0960 -0.2624
 1371TIP3    H225749   1.628   5.383   2.142  1.3252  1.1750  1.4351
 1372TIP3   OH225750   3.447   4.815   0.279  0.0374 -0.0238  0.5994
 1372TIP3    H125751   3.372   4.780   0.327 -0.2829 -1.6513 -0.9755
 1372TIP3    H225752   3.522   4.768   0.315 -0.1349 -0.8278 -0.0492
 1373TIP3   OH225753   2.362   5.415   1.369 -0.6185  0.2090 -0.6140
 1373TIP3    H125754   2.435   5.422   1.430 -0.7973  3.1607 -0.5979
 1373TIP3    H225755   2.375   5.330   1.326  0.6105 -1.0763  2.0679
 1374TIP3   OH225756   2.020   2.714   2.115 -0.1075 -0.7095 -0.2581
 1374TIP3    H125757   1.949   2.685   2.171 -0.1099 -2.4721 -1.0998
 1374TIP3    H225758   1.976   2.762   2.044 -0.3943 -1.1557 -0.3864
 1375TIP3   OH225759   2.739   0.265   1.676 -0.1515 -0.0782  0.8331
 1375TIP3    H125760   2.730   0.208   1.753 -1.2163 -0.1540  0.6657
 1375TIP3    H225761   2.760   0.205   1.605  0.6965 -0.0244  1.0325
 1376TIP3   OH225762   1.471   6.486   7.569  0.6143  0.0211  0.1135
 1376TIP3    H125763   1.539   6.420   7.556  2.0979  1.3563  0.7958
 1376TIP3    H225764   1.503   6.562   7.521 -0.8439  0.4141 -0.2829
 1377TIP3   OH225765   0.253   3.834   7.381 -0.4054 -0.2240  0.0427
 1377TIP3    H125766   0.232   3.880   7.299  0.1962  0.2091  0.1265
 1377TIP3    H225767   0.342   3.799   7.366 -0.2559 -0.0616  0.5464
 1378TIP3   OH225768   2.874   4.761   2.253 -0.4049 -0.6703 -0.2946
 1378TIP3    H125769   2.882   4.824   2.182  0.1376  0.4782  0.7714
 1378TIP3    H225770   2.887   4.676   2.210 -1.5236 -0.1232 -1.8115
 1379TIP3   OH225771   5.748   6.474   7.157  0.3251  0.5893 -0.0317
 1379TIP3    H125772   5.775   6.529   7.084  2.1392  0.2568  0.3457
 1379TIP3    H225773   5.745   6.385   7.121  1.0566  0.4469  0.2502
 1380TIP3   OH225774   2.836   1.740   1.200  0.0554  0.4176  0.4360
 1380TIP3    H125775   2.759   1.784   1.165  0.6659  1.3976  0.2906
 1380TIP3    H225776   2.824   1.648   1.176  0.3036  0.9925 -2.0954
 1381TIP3   OH225777   3.211   6.481   1.041 -0.0491  0.0637 -0.3537
 1381TIP3    H125778   3.257   6.556   1.078 -0.9971  0.6427 -0.3246
 1381TIP3    H225779   3.131   6.518   1.003  0.8333 -0.4694 -2.9821
 1382TIP3   OH225780   4.856   4.173   7.465 -0.3719  0.5125  0.1312
 1382TIP3    H125781   4.881   4.156   7.556 -0.6399  2.0976  0.5286
 1382TIP3    H225782   4.774   4.125   7.454 -0.0276 -0.1821  0.5371
 1383TIP3   OH225783   6.216   2.717   1.431  0.1680  0.1375 -0.2798
 1383TIP3    H125784   6.172   2.788   1.477  0.7382 -0.0389  0.5495
 1383TIP3    H225785   6.305   2.716   1.466  0.6852  0.1266 -1.5369
 1384TIP3   OH225786   0.299   5.682   7.578  0.3805 -0.2868 -0.2951
 1384TIP3    H125787   0.280   5.589   7.586  3.8407 -1.1423 -0.3070
 1384TIP3    H225788   0.252   5.709   7.499  1.1864 -2.6912 -1.7207
 1385TIP3   OH225789   2.140   6.895   1.226 -0.3148 -0.2965  0.0639
 1385TIP3    H125790   2.169   6.849   1.148 -1.4558 -1.1052  0.0873
 1385TIP3    H225791   2.193   6.859   1.297  0.1115 -0.1957 -0.2028
 1386TIP3   OH225792   1.174   4.783   6.941 -0.8114  0.2811  0.4848
 1386TIP3    H125793   1.235   4.825   6.881 -0.7394  0.6367  0.8024
 1386TIP3    H225794   1.209   4.694   6.951  0.0529  0.6850  1.1910
 1387TIP3   OH225795   5.609   3.073   0.217  0.0119  0.3297  0.6475
 1387TIP3    H125796   5.695   3.050   0.181  0.4335 -1.3679  2.5207
 1387TIP3    H225797   5.615   3.166   0.238  0.9109  0.5413 -0.4993
 1388TIP3   OH225798   5.281   6.115   2.188 -0.5400 -0.5173 -0.3110
 1388TIP3    H125799   5.301   6.023   2.206  2.1619 -0.0245 -0.2590
 1388TIP3    H225800   5.364   6.161   2.203 -2.1442  2.2055  1.2374
 1389TIP3   OH225801   1.584   4.358   2.848  0.5997 -0.3303 -0.1098
 1389TIP3    H125802   1.618   4.354   2.937 -0.2984 -2.1751  0.2211
 1389TIP3    H225803   1.659   4.338   2.793  0.8738 -0.5919  0.3466
 1390TIP3   OH225804   4.429   1.996   0.449 -0.2363  0.2681 -0.5220
 1390TIP3    H125805   4.427   2.003   0.545 -4.5424  1.7424 -0.5099
 1390TIP3    H225806   4.509   2.041   0.424  0.0672  1.5672  2.3180
 1391TIP3   OH225807   2.431   1.026   1.297  0.4485 -0.1853 -0.0473
 1391TIP3    H125808   2.414   1.119   1.285  0.8737 -0.3122 -1.9287
 1391TIP3    H225809   2.522   1.021   1.326  0.1161  0.0178  1.0674
 1392TIP3   OH225810   0.852   6.893   0.386  0.6441  0.2021 -0.2981
 1392TIP3    H125811   0.929   6.851   0.346  0.3186  0.4443 -1.2121
 1392TIP3    H225812   0.793   6.909   0.312  0.5154  1.7472  0.0979
 1393TIP3   OH225813   4.256   6.542   7.638 -0.2485 -0.2666 -0.2909
 1393TIP3    H125814   4.310   6.560   7.561 -0.9315  0.3314 -0.6437
 1393TIP3    H225815   4.274   6.615   7.697  1.2355 -1.3740  0.6737
 1394TIP3   OH225816   2.940   0.534   0.615  0.2030 -0.4763 -0.2108
 1394TIP3    H125817   3.025   0.534   0.660  0.9272  2.0420 -1.3523
 1394TIP3    H225818   2.919   0.442   0.603  1.1302 -1.2468  3.0051
 1395TIP3   OH225819   5.133   3.507   1.211  0.1199 -0.2252  0.8802
 1395TIP3    H125820   5.167   3.595   1.230  0.9789  0.0264 -1.4989
 1395TIP3    H225821   5.211   3.457   1.185 -0.9032 -0.3793 -2.1683
 1396TIP3   OH225822   5.870   3.771   2.605 -0.4885  0.0087 -0.1267
 1396TIP3    H125823   5.880   3.706   2.675  1.2721 -0.9766 -1.2352
 1396TIP3    H225824   5.957   3.778   2.566 -1.0811  1.6613 -1.2603
 1397TIP3   OH225825   6.635   1.204   1.671  0.1859  0.2995  0.3224
 1397TIP3    H125826   6.551   1.237   1.703  0.1320  1.5517 -0.9769
 1397TIP3    H225827   6.626   1.204   1.576  2.1632  2.0176  0.0608
 1398TIP3   OH225828   0.067   5.975   6.508 -0.0599  0.1881  0.1164
 1398TIP3    H125829   0.070   6.052   6.564 -0.0760 -0.2259  0.6930
 1398TIP3    H225830  -0.006   5.993   6.448  1.1727  1.4895 -1.0660
 1399TIP3   OH225831   5.964   4.002   0.186  0.4271  0.5655 -0.0671
 1399TIP3    H125832   5.962   3.936   0.255 -1.0138 -0.3153 -0.9046
 1399TIP3    H225833   6.044   3.983   0.138 -0.2462 -0.9790 -0.6422
 1400TIP3   OH225834   6.115   6.209   1.619 -0.5193 -0.8633  0.2282
 1400TIP3    H125835   6.074   6.270   1.681  0.3246  1.0839 -1.0282
 1400TIP3    H225836   6.206   6.202   1.649  0.1888  0.9252 -1.2553
 1401TIP3   OH225837   4.801   3.312   0.169  0.0351  0.0448  0.8868
 1401TIP3    H125838   4.816   3.279   0.081 -2.1423 -2.6925  1.3801
 1401TIP3    H225839   4.715   3.354   0.165 -0.2928 -0.5008  1.7634
 1402TIP3   OH225840   0.976   1.279   7.668  0.1214  0.5716  0.1267
 1402TIP3    H125841   1.065   1.303   7.641  0.6152 -1.4783 -0.3084
 1402TIP3    H225842   0.950   1.211   7.605 -0.3254 -1.4127  2.2935
 1403TIP3   OH225843   5.705   0.329   0.790 -0.1650 -0.2271  0.5519
 1403TIP3    H125844   5.678   0.370   0.708 -1.5104 -1.4999  0.3135
 1403TIP3    H225845   5.656   0.375   0.858  0.1747  0.1551  0.5376
 1404TIP3   OH225846   3.708   2.612   7.284 -0.8647 -0.2597 -0.3162
 1404TIP3    H125847   3.633   2.622   7.344  0.9152 -1.9819  2.4177
 1404TIP3    H225848   3.729   2.519   7.287  2.1014  0.3192 -0.0279
 1405TIP3   OH225849   3.997   0.789   1.494  0.4122 -0.0179  0.1524
 1405TIP3    H125850   3.982   0.700   1.461 -0.2242 -0.1712  0.8189
 1405TIP3    H225851   4.084   0.812   1.462  0.2707 -0.5747 -0.6909
 1406TIP3   OH225852   3.638   5.242   7.205 -0.0964 -0.2383  0.8196
 1406TIP3    H125853   3.628   5.160   7.254 -0.8470 -1.0426 -0.5974
 1406TIP3    H225854   3.578   5.233   7.131 -0.4687  1.7610  0.8130
 1407TIP3   OH225855   1.883   6.258   0.723  0.2504 -0.1012  0.5781
 1407TIP3    H125856   1.802   6.216   0.752  0.7123 -0.2831  1.6328
 1407TIP3    H225857   1.858   6.304   0.643 -0.3924 -1.9541 -0.3638
 1408TIP3   OH225858   5.936   4.952   2.128  0.3024  0.0316  0.2149
 1408TIP3    H125859   5.865   4.892   2.149 -0.6174  1.1787  0.4203
 1408TIP3    H225860   5.916   4.982   2.039  0.3870  0.5653  0.3765
 1409TIP3   OH225861   5.222   2.927   3.201  0.1165 -0.4229 -0.5307
 1409TIP3    H125862   5.300   2.951   3.150 -0.5498 -1.3299 -2.0644
 1409TIP3    H225863   5.214   2.833   3.188 -0.7812 -0.4701  0.2873
 1410TIP3   OH225864   4.100   6.584   1.056  0.3351 -0.0147  0.2101
 1410TIP3    H125865   4.015   6.560   1.091  0.3805  0.7936  0.9237
 1410TIP3    H225866   4.163   6.546   1.118  0.4456  0.4756  0.4077
 1411TIP3   OH225867   4.426   3.073   1.271  0.1522  0.1905  0.1250
 1411TIP3    H125868   4.384   3.147   1.314  1.2865  1.3847 -0.7695
 1411TIP3    H225869   4.519   3.092   1.274  0.5211 -1.4345  0.2645
 1412TIP3   OH225870   5.722   1.871   1.506 -0.3910  0.8395 -0.2937
 1412TIP3    H125871   5.762   1.892   1.422 -0.7427  1.6490 -0.2678
 1412TIP3    H225872   5.755   1.784   1.528 -0.2210  0.6669 -1.2183
 1413TIP3   OH225873   6.399   6.327   0.203 -0.0234 -0.2025  0.6256
 1413TIP3    H125874   6.469   6.309   0.265  0.4110  0.9746  0.5008
 1413TIP3    H225875   6.341   6.388   0.249  0.0291  0.2761  0.0685
 1414TIP3   OH225876   1.746   6.321   0.051 -0.0501 -0.5847 -0.1914
 1414TIP3    H125877   1.723   6.240   0.096  1.2642 -0.7605  0.2226
 1414TIP3    H225878   1.838   6.308   0.025  0.4886  1.1200  0.7255
 1415TIP3   OH225879   2.120   2.514   6.806  0.2236 -0.2804 -0.1417
 1415TIP3    H125880   2.069   2.500   6.886  0.1156  1.4202  0.1388
 1415TIP3    H225881   2.174   2.436   6.797 -1.2509 -1.4235  0.4459
 1416TIP3   OH225882   4.949   4.189   7.735 -0.1444  0.2126  0.6190
 1416TIP3    H125883   5.004   4.112   7.722 -1.0635 -0.7136  1.8939
 1416TIP3    H225884   4.864   4.153   7.761 -0.5705  1.6609  1.3226
 1417TIP3   OH225885   1.815   6.870   0.896  0.1423  0.8842 -0.2165
 1417TIP3    H125886   1.754   6.901   0.963 -1.2202 -0.2506 -0.8736
 1417TIP3    H225887   1.765   6.805   0.846  2.4229 -1.5574  0.4019
 1418TIP3   OH225888   4.475   0.095   0.228  0.3574  0.0915  0.1387
 1418TIP3    H125889   4.509   0.131   0.310  0.3051  0.6891 -0.0996
 1418TIP3    H225890   4.450   0.005   0.250 -1.7678  0.9166  1.3767
 1419TIP3   OH225891   3.754   3.115   7.620 -0.0907  0.8227  0.3244
 1419TIP3    H125892   3.758   3.157   7.534  2.0102 -2.8335 -1.6108
 1419TIP3    H225893   3.833   3.145   7.665  1.9297 -1.4949 -1.4274
 1420TIP3   OH225894   5.187   2.070   1.247 -0.1688  0.0374  0.0950
 1420TIP3    H125895   5.208   2.135   1.180  2.7357 -0.6067  0.2334
 1420TIP3    H225896   5.183   2.121   1.328  2.4704  0.1433  0.2662
 1421TIP3   OH225897   1.125   6.799   8.423 -0.5151  0.3016  0.4656
 1421TIP3    H125898   1.190   6.827   8.487  0.1937 -0.0867 -0.0736
 1421TIP3    H225899   1.109   6.877   8.370  0.8388 -0.0532 -0.5107
 1422TIP3   OH225900   1.866   0.566   1.292 -0.1969 -0.7186 -0.2555
 1422TIP3    H125901   1.956   0.592   1.311 -0.3080  0.7232 -1.4277
 1422TIP3    H225902   1.866   0.549   1.197 -1.5399  1.2921 -0.6782
 1423TIP3   OH225903   3.190   6.545   8.199  0.3380 -0.3097 -0.6107
 1423TIP3    H125904   3.278   6.527   8.167  0.1845  0.1655 -1.3354
 1423TIP3    H225905   3.133   6.495   8.141  0.1882 -2.1158  0.9902
 1424TIP3   OH225906   1.531   1.030   8.166 -0.5333  0.0109 -0.1812
 1424TIP3    H125907   1.471   1.036   8.091  0.0558  2.7118 -0.5222
 1424TIP3    H225908   1.618   1.046   8.128 -0.1715  0.9490  1.0005
 1425TIP3   OH225909   5.879   5.400   8.305 -0.1057  0.1295 -0.2195
 1425TIP3    H125910   5.801   5.378   8.255 -0.5857  0.3887  0.4041
 1425TIP3    H225911   5.910   5.317   8.341 -0.4717  0.1172  0.0676
 1426TIP3   OH225912   4.295   1.031   8.497  0.1893 -0.2651 -0.6682
 1426TIP3    H125913   4.351   0.975   8.551 -0.4298 -0.2527 -0.0022
 1426TIP3    H225914   4.302   1.118   8.536 -0.9639 -0.4347 -0.0226
 1427TIP3   OH225915   6.442   2.771   1.584 -0.3247 -0.0462 -0.0675
 1427TIP3    H125916   6.518   2.714   1.575 -0.2903  0.2341 -2.1507
 1427TIP3    H225917   6.431   2.783   1.678  0.8997 -1.8206  0.3408
 1428TIP3   OH225918   1.376   0.024   3.234 -0.9407 -0.2819 -0.3292
 1428TIP3    H125919   1.318   0.049   3.162 -1.2866  0.1006  0.0692
 1428TIP3    H225920   1.440   0.095   3.237 -0.6303 -0.5506 -0.5745
 1429TIP3   OH225921   4.513   3.448   1.822 -0.0624  0.2152  0.3356
 1429TIP3    H125922   4.421   3.444   1.796  0.0852 -1.8206 -0.0073
 1429TIP3    H225923   4.540   3.538   1.799 -1.6587  0.5073 -0.5650
 1430TIP3   OH225924   4.212   3.960   0.634 -0.1308  0.1422  0.3741
 1430TIP3    H125925   4.162   3.897   0.686 -1.4390  0.1935 -0.7363
 1430TIP3    H225926   4.272   4.001   0.695  0.7601 -2.1829  1.1324
 1431TIP3   OH225927   6.182   4.530   1.349  0.0704  0.0744 -0.4431
 1431TIP3    H125928   6.156   4.524   1.258  0.0255 -1.0385 -0.3683
 1431TIP3    H225929   6.197   4.439   1.376 -1.2753  0.2578  1.0489
 1432TIP3   OH225930   3.893   6.082   8.050 -0.1121 -0.2570 -0.0229
 1432TIP3    H125931   3.886   6.173   8.079 -1.9711 -0.1848 -0.5744
 1432TIP3    H225932   3.987   6.069   8.034  0.4307  0.9508  1.9001
 1433TIP3   OH225933   0.703   0.944   1.032 -0.5202  0.8434 -0.0326
 1433TIP3    H125934   0.729   1.013   0.971  2.9412  1.2917  1.6775
 1433TIP3    H225935   0.682   0.991   1.113  0.8918  0.0335  0.8533
 1434TIP3   OH225936   4.231   0.212   1.179 -0.1776 -0.1099  0.5440
 1434TIP3    H125937   4.144   0.221   1.140  0.3044  0.0665 -0.5520
 1434TIP3    H225938   4.239   0.119   1.201 -0.2869 -0.3285 -0.2841
 1435TIP3   OH225939   1.415   2.133   0.599  0.3144  0.4289 -0.4151
 1435TIP3    H125940   1.348   2.151   0.665  0.2639 -0.3489 -0.2493
 1435TIP3    H225941   1.372   2.078   0.534  0.4842  0.8430 -0.8886
 1436TIP3   OH225942   6.459   1.898   1.263  0.0566 -0.7153 -0.2137
 1436TIP3    H125943   6.407   1.917   1.185  0.4056 -0.3937 -0.3719
 1436TIP3    H225944   6.540   1.948   1.251 -0.7448  1.0878  1.3508
 1437TIP3   OH225945   6.533   3.065   8.293  0.5370  0.8759  0.7759
 1437TIP3    H125946   6.467   3.016   8.244  0.5387  0.7456  0.9044
 1437TIP3    H225947   6.565   3.130   8.231  0.2729  0.9523  0.7186
 1438TIP3   OH225948   1.817   3.903   1.853 -0.0967 -0.2668 -0.3354
 1438TIP3    H125949   1.753   3.895   1.924  0.7019  0.1714  0.4608
 1438TIP3    H225950   1.892   3.851   1.883  0.5070  0.4745 -0.5363
 1439TIP3   OH225951   4.837   2.301   1.105 -0.6604 -0.3162 -0.2653
 1439TIP3    H125952   4.741   2.300   1.094 -0.6595  3.0993 -1.9168
 1439TIP3    H225953   4.870   2.259   1.026 -0.9205  4.2961 -3.1633
 1440TIP3   OH225954   1.422   2.891   7.629  0.5161 -0.5696 -0.7028
 1440TIP3    H125955   1.362   2.847   7.570 -0.8889  0.7539 -0.3478
 1440TIP3    H225956   1.462   2.821   7.680 -0.3580 -1.5308 -1.2994
 1441TIP3   OH225957   0.583   3.099   0.132  0.2140  0.6908 -0.0162
 1441TIP3    H125958   0.586   3.144   0.216 -0.5735 -1.0688  1.0087
 1441TIP3    H225959   0.671   3.063   0.120  0.2354  0.6657  0.2227
 1442TIP3   OH225960   5.133   4.313   0.403 -0.5286  0.3475 -0.0699
 1442TIP3    H125961   5.219   4.274   0.386 -1.2004 -1.1055 -0.2589
 1442TIP3    H225962   5.152   4.390   0.457  1.0012  0.8985 -1.3162
 1443TIP3   OH225963   5.365   2.560   1.413  0.1968  0.0857  0.0840
 1443TIP3    H125964   5.455   2.528   1.415 -0.8166 -3.1280  1.5842
 1443TIP3    H225965   5.339   2.564   1.505 -1.5369 -0.2574 -0.3507
 1444TIP3   OH225966   2.459   6.548   1.897  0.8313 -0.2719  0.0661
 1444TIP3    H125967   2.457   6.484   1.968  2.1131 -1.5755 -1.0034
 1444TIP3    H225968   2.536   6.602   1.917 -0.6611  1.4772  1.3585
 1445TIP3   OH225969   1.035   5.197   7.864 -0.0855  0.0220  0.4221
 1445TIP3    H125970   0.942   5.205   7.886 -0.2320  0.9929 -0.4471
 1445TIP3    H225971   1.056   5.106   7.882 -2.3320 -1.4692 -3.2715
 1446TIP3   OH225972   3.645   3.099   0.827 -0.1196  0.5803 -0.1974
 1446TIP3    H125973   3.740   3.110   0.838  0.0088 -0.0094 -0.7121
 1446TIP3    H225974   3.607   3.171   0.878  0.6087  0.9740 -0.2028
 1447TIP3   OH225975   3.998   4.236   8.512  0.0227  0.2388  0.4471
 1447TIP3    H125976   4.014   4.294   8.587  2.1715 -0.1788  0.3596
 1447TIP3    H225977   4.058   4.266   8.444  0.3048 -1.3153 -0.0358
 1448TIP3   OH225978   2.156   1.147   1.245 -0.6163 -0.3240  0.3002
 1448TIP3    H125979   2.246   1.174   1.266 -0.2242 -0.8711 -0.6020
 1448TIP3    H225980   2.150   1.057   1.279 -0.1991 -0.9639 -1.2262
 1449TIP3   OH225981   2.207   2.961   0.655  0.3303 -0.1321  0.1864
 1449TIP3    H125982   2.138   2.954   0.589  0.3952 -1.2686  0.2030
 1449TIP3    H225983   2.223   3.054   0.665  0.0030  0.0740 -1.0854
 1450TIP3   OH225984   6.077   1.797   0.795  0.6773 -0.0703  0.0695
 1450TIP3    H125985   6.119   1.808   0.881  0.4941  3.1634 -0.1341
 1450TIP3    H225986   5.989   1.833   0.807  0.2053 -0.7772 -1.1789
 1451TIP3   OH225987   2.028   0.477   7.617 -0.5241  0.2313 -0.0246
 1451TIP3    H125988   2.033   0.435   7.531 -1.3946  0.5193 -0.2212
 1451TIP3    H225989   2.112   0.523   7.626 -1.4561  2.5729 -1.9802
 1452TIP3   OH225990   2.470   4.043   2.450 -0.2532  0.8576 -0.4324
 1452TIP3    H125991   2.536   4.107   2.476  0.2186  0.5422 -0.8486
 1452TIP3    H225992   2.390   4.073   2.494  0.7892 -0.4943  2.6774
 1453TIP3   OH225993   5.467   3.733   1.061  1.2741  0.1228 -0.4187
 1453TIP3    H125994   5.543   3.737   1.118  1.1324  2.3357 -0.2965
 1453TIP3    H225995   5.480   3.654   1.008  2.5932 -0.6526  0.9969
 1454TIP3   OH225996   5.354   5.736   0.983  0.2989  0.2065  0.0316
 1454TIP3    H125997   5.309   5.757   0.901  2.0073  1.9256 -0.5488
 1454TIP3    H225998   5.329   5.646   1.002 -0.4840 -0.0993 -2.1710
 1455TIP3   OH225999   4.632   6.830   1.922  0.3267  0.2752  0.6861
 1455TIP3    H126000   4.646   6.736   1.927  0.7957  0.3513  0.9400
 1455TIP3    H226001   4.712   6.868   1.958  0.2423  0.7756  0.3642
 1456TIP3   OH226002   3.238   2.985   7.525 -0.2119  0.0092 -0.2441
 1456TIP3    H126003   3.252   3.017   7.436 -1.5373 -1.3615 -0.9858
 1456TIP3    H226004   3.319   3.008   7.571  1.3315 -0.9720 -2.2895
 1457TIP3   OH226005   0.036   0.527   8.141 -0.2383  0.2194 -0.2640
 1457TIP3    H126006   0.114   0.477   8.164 -0.2017  1.1899  1.9889
 1457TIP3    H226007   0.052   0.615   8.177 -2.1368  0.5857 -0.2052
 1458TIP3   OH226008   5.319   6.090   1.428  0.4616 -0.2602 -0.0678
 1458TIP3    H126009   5.412   6.114   1.421  0.2692  0.0891 -3.3020
 1458TIP3    H226010   5.314   6.004   1.384 -0.8523  0.1796 -0.8229
 1459TIP3   OH226011   5.026   2.863   0.771  0.6637 -0.2226 -0.3365
 1459TIP3    H126012   5.082   2.835   0.698  0.7442 -1.5359  0.2136
 1459TIP3    H226013   5.027   2.789   0.832 -0.6295  0.2532  0.2874
 1460TIP3   OH226014   0.125   5.464   2.858  0.0778  0.4497  0.2692
 1460TIP3    H126015   0.116   5.379   2.900 -0.8516  0.0050 -0.7893
 1460TIP3    H226016   0.043   5.477   2.811  0.8805  1.1534 -1.0046
 1461TIP3   OH226017   5.393   3.931   0.853 -0.0730 -0.1581 -0.3910
 1461TIP3    H126018   5.431   3.884   0.928 -2.0082 -0.8856  0.2136
 1461TIP3    H226019   5.433   4.017   0.856  0.6184 -0.4920  0.9028
 1462TIP3   OH226020   3.687   6.059   1.941  0.2123 -0.2315 -0.1600
 1462TIP3    H126021   3.696   6.153   1.926  1.3262 -0.0728  1.3216
 1462TIP3    H226022   3.755   6.019   1.887  0.4068 -0.1033 -0.0115
 1463TIP3   OH226023   1.749   1.905   0.072  0.2696 -0.2915  0.3668
 1463TIP3    H126024   1.794   1.977   0.028 -0.1912 -0.2133  0.0099
 1463TIP3    H226025   1.817   1.862   0.124  1.0293 -0.9022 -1.0793
 1464TIP3   OH226026   5.074   1.162   2.312 -0.1572  0.2963  0.0224
 1464TIP3    H126027   5.102   1.212   2.236  1.6427  0.9036  1.0340
 1464TIP3    H226028   5.151   1.158   2.369 -1.0808 -1.2035  1.2626
 1465TIP3   OH226029   3.658   3.024   1.733  0.4238  0.5347  0.0945
 1465TIP3    H126030   3.613   3.075   1.801  0.9585 -0.2616  1.0829
 1465TIP3    H226031   3.745   3.009   1.770 -0.0995 -2.1740  0.4451
 1466TIP3   OH226032   6.348   1.248   7.224  0.2387  0.2061 -0.0414
 1466TIP3    H126033   6.329   1.169   7.175 -0.7412  1.3438 -1.5918
 1466TIP3    H226034   6.425   1.286   7.181 -1.6922  2.1677 -2.0719
 1467TIP3   OH226035   6.763   3.536   8.487  0.1666  0.0180 -0.5185
 1467TIP3    H126036   6.839   3.594   8.485  1.6385 -1.7736  0.3885
 1467TIP3    H226037   6.702   3.574   8.424  1.0956  2.4428 -0.0686
 1468TIP3   OH226038   2.939   3.384   8.187 -0.1517 -0.0760 -0.6875
 1468TIP3    H126039   3.020   3.332   8.179  0.5311  0.5707  1.2002
 1468TIP3    H226040   2.879   3.326   8.234  0.0297  0.2273 -0.0678
 1469TIP3   OH226041   0.231   3.410   7.990 -0.0082  0.1134 -0.9134
 1469TIP3    H126042   0.292   3.381   8.058 -1.8843  1.0612  1.3072
 1469TIP3    H226043   0.242   3.347   7.919  1.7014 -1.2139  0.4477
 1470TIP3   OH226044   6.012   3.209   3.022  0.0504 -0.5260  0.8821
 1470TIP3    H126045   6.011   3.271   2.949  0.7729 -0.8304  0.6135
 1470TIP3    H226046   5.921   3.208   3.053  0.1563  1.2025  1.3431
 1471TIP3   OH226047   3.553   2.536   0.333 -0.0853  0.3466  0.0386
 1471TIP3    H126048   3.641   2.518   0.299 -0.3892 -2.0824  0.3772
 1471TIP3    H226049   3.567   2.608   0.395  1.6209  0.2471 -0.1581
 1472TIP3   OH226050   4.094   5.470   3.193 -0.3062 -0.3991  0.2198
 1472TIP3    H126051   4.031   5.397   3.192 -2.9075  1.6908  0.6779
 1472TIP3    H226052   4.086   5.509   3.106  1.9313 -1.2319 -0.4394
 1473TIP3   OH226053   2.334   1.603   2.407  0.2704  0.1197 -0.4054
 1473TIP3    H126054   2.322   1.532   2.344  2.8746 -0.2292 -0.6567
 1473TIP3    H226055   2.341   1.558   2.492  1.1644  0.1264 -0.4671
 1474TIP3   OH226056   2.175   1.904   7.473  0.3132  0.4895  0.6271
 1474TIP3    H126057   2.245   1.860   7.425 -0.3833  0.9598 -0.9068
 1474TIP3    H226058   2.118   1.833   7.504 -0.7795  0.2195 -1.7864
 1475TIP3   OH226059   2.817   1.814   2.095 -0.7228  0.1678  0.5145
 1475TIP3    H126060   2.825   1.727   2.056 -1.2732 -0.6402  2.1006
 1475TIP3    H226061   2.722   1.830   2.096 -0.5927  1.0607 -0.3012
 1476TIP3   OH226062   6.358   4.635   2.674  0.7987 -0.1180 -0.2419
 1476TIP3    H126063   6.452   4.647   2.670  0.8173 -0.3506 -0.6088
 1476TIP3    H226064   6.322   4.723   2.664  0.9903  0.1107  0.9927
 1477TIP3   OH226065   2.809   0.132   8.042 -0.4338 -0.2972 -0.3450
 1477TIP3    H126066   2.735   0.172   8.087  0.3197 -1.1558  1.7746
 1477TIP3    H226067   2.774   0.051   8.005 -0.7035 -0.3560  0.0402
 1478TIP3   OH226068   3.239   5.001   0.821  0.6214 -0.0714  0.7893
 1478TIP3    H126069   3.167   4.971   0.876  0.2263 -1.2647 -0.3338
 1478TIP3    H226070   3.222   5.094   0.807 -1.1770 -0.4860 -0.1033
 1479TIP3   OH226071   0.769   5.702   0.075 -0.6920  0.0528  0.6096
 1479TIP3    H126072   0.778   5.707   0.171 -0.3644 -1.3090  0.6705
 1479TIP3    H226073   0.788   5.610   0.054  0.7411  0.6543 -0.9197
 1480TIP3   OH226074   4.354   6.043   1.069 -0.5857  0.7347  0.4735
 1480TIP3    H126075   4.343   5.983   1.142 -3.6885  0.6252  0.0312
 1480TIP3    H226076   4.352   6.130   1.109  0.2191  0.6480  0.7269
 1481TIP3   OH226077   3.081   4.837   0.240  0.7507  0.1133 -0.0363
 1481TIP3    H126078   3.114   4.791   0.317  0.7895  0.2497  0.0300
 1481TIP3    H226079   3.109   4.928   0.253  0.1431  0.2788  0.1434
 1482TIP3   OH226080   3.729   1.033   0.450  0.5871 -0.3296  0.3881
 1482TIP3    H126081   3.676   1.075   0.518 -0.3694 -0.4145 -0.2839
 1482TIP3    H226082   3.763   0.954   0.492 -1.8882 -1.6313  0.1500
 1483TIP3   OH226083   1.735   2.695   1.701  0.1475  0.1764 -0.9227
 1483TIP3    H126084   1.805   2.640   1.736  0.1629  0.7901  0.0404
 1483TIP3    H226085   1.773   2.738   1.625  1.1863  1.2952  0.1776
 1484TIP3   OH226086   3.525   4.918   7.750 -0.1473  0.1102 -0.1044
 1484TIP3    H126087   3.500   4.941   7.839 -0.0255  1.3889 -0.3897
 1484TIP3    H226088   3.613   4.953   7.740  0.5865 -1.6504 -0.1367
 1485TIP3   OH226089   2.986   6.826   1.174 -0.7528  0.2779 -0.6016
 1485TIP3    H126090   3.075   6.814   1.207 -0.1465  1.2554 -1.8370
 1485TIP3    H226091   2.963   6.916   1.195 -2.3354 -0.5607  1.6732
 1486TIP3   OH226092   0.910   4.230   8.061  0.1397 -0.0806 -0.2992
 1486TIP3    H126093   0.945   4.284   8.132 -0.6493  0.0173  0.0308
 1486TIP3    H226094   0.849   4.171   8.105 -1.5481  1.0112 -1.0629
 1487TIP3   OH226095   6.046   2.103   2.780 -0.8263 -0.6583 -0.0319
 1487TIP3    H126096   6.141   2.091   2.775 -0.8474 -2.0735  1.8434
 1487TIP3    H226097   6.034   2.198   2.783  0.6047 -0.4691  0.4619
 1488TIP3   OH226098   3.774   6.304   8.329  0.2757 -0.3130 -0.1787
 1488TIP3    H126099   3.809   6.312   8.240 -0.8960  1.1834 -0.5401
 1488TIP3    H226100   3.690   6.261   8.319 -1.1788  2.3482 -0.1970
 1489TIP3   OH226101   1.175   5.627   1.365  0.5674 -0.6268 -0.0514
 1489TIP3    H126102   1.175   5.721   1.384 -0.3403 -0.3738 -1.2247
 1489TIP3    H226103   1.188   5.621   1.271 -1.8665 -1.5548 -0.3913
 1490TIP3   OH226104   5.570   1.032   2.520 -0.4376 -0.6091  0.6119
 1490TIP3    H126105   5.575   1.092   2.594 -1.4638 -1.7132  1.6198
 1490TIP3    H226106   5.559   0.946   2.560  1.7321 -1.6148 -0.7550
 1491TIP3   OH226107   1.133   0.065   7.617  0.2273  0.1711  0.1984
 1491TIP3    H126108   1.149   0.132   7.550  3.1133 -0.1872  0.4199
 1491TIP3    H226109   1.218   0.052   7.659 -1.0885 -0.9534  2.7193
 1492TIP3   OH226110   6.204   0.254   1.230 -0.4703  0.1164  0.1222
 1492TIP3    H126111   6.184   0.294   1.315 -0.6035 -0.2348  0.2577
 1492TIP3    H226112   6.122   0.260   1.181 -1.0821 -1.7253  0.8373
 1493TIP3   OH226113   5.856   2.936   0.105 -0.6295 -0.0303 -0.4835
 1493TIP3    H126114   5.864   2.894   0.020 -2.1284 -0.9438 -0.2041
 1493TIP3    H226115   5.851   2.863   0.167  0.1244  0.6222  0.3719
 1494TIP3   OH226116   0.275   6.723   7.166  0.2206  0.2012 -0.3908
 1494TIP3    H126117   0.189   6.686   7.146 -0.4554  2.1924 -1.4258
 1494TIP3    H226118   0.336   6.650   7.151 -1.1102 -0.7600 -1.4440
 1495TIP3   OH226119   3.365   4.449   7.929 -0.3100 -0.2399  0.2828
 1495TIP3    H126120   3.368   4.501   8.009 -1.2372 -0.2836  0.3559
 1495TIP3    H226121   3.334   4.511   7.862  1.4007  0.0700 -0.2831
 1496TIP3   OH226122   5.741   1.917   7.687  0.0546  0.3331 -0.3736
 1496TIP3    H126123   5.766   2.009   7.676 -2.0549  0.8599 -1.4113
 1496TIP3    H226124   5.646   1.917   7.673 -0.5149 -1.5459  2.6108
 1497TIP3   OH226125   6.024   5.813   6.679 -0.3626 -0.2360  0.4508
 1497TIP3    H126126   6.102   5.813   6.624 -1.1984  0.6897 -0.7919
 1497TIP3    H226127   6.012   5.904   6.704 -2.1787  0.0199 -1.1086
 1498TIP3   OH226128   0.737   2.445   1.756  0.7688  0.2535  0.2479
 1498TIP3    H126129   0.797   2.421   1.685  0.5669 -0.6967  0.3957
 1498TIP3    H226130   0.688   2.365   1.775 -0.5708  1.0092  0.1179
 1499TIP3   OH226131   6.682   2.349   7.492  0.6417 -0.2536  0.6432
 1499TIP3    H126132   6.760   2.385   7.534  1.9023 -0.2414 -1.5574
 1499TIP3    H226133   6.612   2.412   7.512  1.8897  1.3296  0.2376
 1500TIP3   OH226134   0.044   3.005   0.822 -0.3673 -0.1888  0.3342
 1500TIP3    H126135   0.007   2.958   0.747  0.9533 -0.1130 -0.3970
 1500TIP3    H226136   0.078   3.086   0.785  0.3457 -0.1724  1.0142
 1501TIP3   OH226137   2.757   5.783   1.847  0.4243  0.0165 -0.0941
 1501TIP3    H126138   2.668   5.762   1.818  0.0290  1.1440  0.2730
 1501TIP3    H226139   2.804   5.804   1.766 -0.7592  3.4682 -0.0082
 1502TIP3   OH226140   6.403   4.876   8.192  0.2847 -0.2216 -0.1466
 1502TIP3    H126141   6.445   4.798   8.155  1.4607  0.3265 -0.0321
 1502TIP3    H226142   6.445   4.888   8.277  0.8845  1.1015 -0.5939
 1503TIP3   OH226143   0.870   5.117   2.238  0.8921 -0.0459 -0.5541
 1503TIP3    H126144   0.793   5.068   2.212  0.6244  0.6024 -1.0124
 1503TIP3    H226145   0.837   5.204   2.263  1.1133 -0.6502  2.1282
 1504TIP3   OH226146   4.399   4.229   1.419  0.2926 -0.1225 -0.1431
 1504TIP3    H126147   4.449   4.148   1.421  0.8889  0.2480  0.7927
 1504TIP3    H226148   4.465   4.298   1.418 -0.1649  0.3732  1.3522
 1505TIP3   OH226149   2.997   2.040   1.817  0.6942 -0.1630  0.3007
 1505TIP3    H126150   2.975   2.064   1.907  0.5998 -1.2788  0.5955
 1505TIP3    H226151   2.920   1.991   1.786  1.9010 -2.4901  0.7090
 1506TIP3   OH226152   6.433   2.511   2.213  0.0305 -0.0978  0.1015
 1506TIP3    H126153   6.498   2.535   2.148 -0.5456  0.1451 -0.3927
 1506TIP3    H226154   6.449   2.418   2.230  1.4163  0.2911  1.0494
 1507TIP3   OH226155   0.051   4.695   7.294 -0.3972  0.1406 -0.3274
 1507TIP3    H126156   0.105   4.723   7.220 -0.9564 -1.4957 -1.4222
 1507TIP3    H226157   0.113   4.679   7.365  0.4612 -0.6159 -1.2177
 1508TIP3   OH226158   6.770   0.797   1.829 -0.2202 -0.4578  0.6092
 1508TIP3    H126159   6.818   0.807   1.911  1.2511 -1.1327 -0.1224
 1508TIP3    H226160   6.738   0.706   1.832 -0.0100 -0.5392  0.3537
 1509TIP3   OH226161   6.067   4.740   1.979  0.0482 -0.2858  0.0210
 1509TIP3    H126162   5.986   4.697   2.006 -1.7546  1.8242 -1.6572
 1509TIP3    H226163   6.077   4.813   2.040 -0.5038  0.6439 -0.9419
 1510TIP3   OH226164   0.075   0.403   0.711 -0.1839 -0.2044 -0.5726
 1510TIP3    H126165   0.161   0.435   0.737 -1.4398  0.7183  3.0369
 1510TIP3    H226166   0.019   0.419   0.787 -3.3089 -1.8352 -2.3068
 1511TIP3   OH226167   5.866   5.342   0.101 -0.1321  0.2044 -0.2418
 1511TIP3    H126168   5.800   5.274   0.116  0.0364  0.3926  1.4912
 1511TIP3    H226169   5.831   5.393   0.027 -1.3247 -0.4355 -0.1436
 1512TIP3   OH226170   3.985   3.985   0.175  0.2779  0.3318  0.2466
 1512TIP3    H126171   3.896   3.974   0.143  0.8154 -1.7224 -0.6668
 1512TIP3    H226172   3.982   3.957   0.266  0.4971 -2.6954 -0.5635
 1513TIP3   OH226173   2.251   2.090   0.970 -0.1723  0.5350 -0.3573
 1513TIP3    H126174   2.291   2.138   1.043 -1.0013  0.0007  0.4567
 1513TIP3    H226175   2.163   2.126   0.962  0.0840  0.9546 -1.4472
 1514TIP3   OH226176   6.168   1.295   1.092  0.7129 -1.1200 -0.2184
 1514TIP3    H126177   6.219   1.213   1.090  0.5422 -1.2817  0.9904
 1514TIP3    H226178   6.081   1.268   1.120  0.5379 -0.5700 -0.2228
 1515TIP3   OH226179   0.375   6.083   2.014 -0.1629  0.1038 -0.2693
 1515TIP3    H126180   0.436   6.152   2.040 -1.6410  2.0482 -1.6533
 1515TIP3    H226181   0.332   6.058   2.095  0.5834  0.6225  0.3061
 1516TIP3   OH226182   3.147   5.881   0.914 -0.1857  0.1895 -0.1794
 1516TIP3    H126183   3.068   5.930   0.936 -1.3062 -0.3077 -2.7465
 1516TIP3    H226184   3.161   5.898   0.821  2.3694 -0.2759  0.0622
 1517TIP3   OH226185   4.955   1.565   0.425 -0.1599 -0.7057  0.1417
 1517TIP3    H126186   4.935   1.599   0.338 -1.0216  0.1887  0.6668
 1517TIP3    H226187   5.050   1.565   0.429 -0.1208  0.1393 -0.4619
 1518TIP3   OH226188   1.261   3.335   3.118  0.3541  0.2005 -0.1000
 1518TIP3    H126189   1.182   3.382   3.091 -0.8246 -1.6095  0.0374
 1518TIP3    H226190   1.238   3.243   3.110  2.2841 -0.3754  0.4912
 1519TIP3   OH226191   6.007   4.613   7.953  0.5096 -0.1986  0.6884
 1519TIP3    H126192   5.992   4.519   7.965  0.0907 -0.2706 -0.3360
 1519TIP3    H226193   5.921   4.653   7.965  0.3147 -0.1515 -0.7584
 1520TIP3   OH226194   5.765   6.395   1.911 -0.2744 -0.2377  0.5489
 1520TIP3    H126195   5.836   6.385   1.975  0.3041  0.2366 -0.0017
 1520TIP3    H226196   5.783   6.480   1.870 -0.4095 -0.7226 -0.5239
 1521TIP3   OH226197   2.061   0.569   0.051 -0.2425  0.2483  0.0133
 1521TIP3    H126198   1.977   0.607   0.077 -0.0318  2.8055 -2.5191
 1521TIP3    H226199   2.125   0.637   0.072  1.5031 -1.9664  2.7053
 1522TIP3   OH226200   2.628   3.191   8.204  0.3925 -0.3017 -0.3520
 1522TIP3    H126201   2.624   3.255   8.133  1.3692 -1.8896 -1.9527
 1522TIP3    H226202   2.536   3.174   8.226 -0.0247 -0.6872 -2.1809
 1523TIP3   OH226203   2.321   6.059   2.106 -0.0693  0.1385 -0.2216
 1523TIP3    H126204   2.352   6.132   2.158 -0.4255  0.0712  0.0942
 1523TIP3    H226205   2.376   6.058   2.028  0.3796  0.3210  0.0960
 1524TIP3   OH226206   6.321   1.097   1.231  0.4580 -0.4295  0.6489
 1524TIP3    H126207   6.236   1.054   1.238 -0.2800  0.7319 -0.6506
 1524TIP3    H226208   6.379   1.045   1.286 -0.8852 -1.7643  0.8598
 1525TIP3   OH226209   1.920   6.648   1.739 -0.0308  0.6902 -0.4975
 1525TIP3    H126210   1.876   6.643   1.654  1.0492  0.7304 -1.0771
 1525TIP3    H226211   2.012   6.633   1.719  0.0828 -0.6356  0.8496
 1526TIP3   OH226212   2.121   5.502   2.011  0.4732 -0.1876  0.3081
 1526TIP3    H126213   2.151   5.554   1.936  2.6010 -1.8792 -0.1216
 1526TIP3    H226214   2.140   5.556   2.087  1.9102  0.0398 -0.1712
 1527TIP3   OH226215   3.949   4.092   0.724  0.1218  0.2437 -0.0519
 1527TIP3    H126216   4.032   4.069   0.682  0.5514  1.3305  0.1763
 1527TIP3    H226217   3.967   4.088   0.818 -0.0965  0.4538 -0.0008
 1528TIP3   OH226218   6.531   2.478   8.201 -0.1671  0.4427 -0.8987
 1528TIP3    H126219   6.451   2.456   8.249  0.4719 -0.9400 -0.4059
 1528TIP3    H226220   6.525   2.429   8.119  0.7250 -0.6889 -0.3147
 1529TIP3   OH226221   2.640   3.980   2.126 -0.3534  0.3242  0.2472
 1529TIP3    H126222   2.674   3.911   2.069 -0.2023 -1.0448  1.9374
 1529TIP3    H226223   2.551   3.952   2.147 -0.6074  1.1075  0.2650
 1530TIP3   OH226224   2.587   5.892   8.502  0.0528 -0.0316 -0.3735
 1530TIP3    H126225   2.563   5.835   8.429 -2.1217  0.1451  0.1220
 1530TIP3    H226226   2.547   5.850   8.579  2.8147 -0.5702  0.8910
 1531TIP3   OH226227   1.837   1.569   0.765  0.5611 -0.2682 -0.4478
 1531TIP3    H126228   1.744   1.559   0.744  0.5894  1.8856 -1.8699
 1531TIP3    H226229   1.877   1.488   0.734 -0.6374 -0.6075 -1.1917
 1532TIP3   OH226230   1.899   5.744   2.105 -1.0906  0.6497  0.4147
 1532TIP3    H126231   1.906   5.839   2.101 -2.0211  0.7483  0.8955
 1532TIP3    H226232   1.984   5.715   2.139 -0.3999  1.2089 -0.7629
 1533TIP3   OH226233   1.098   5.475   8.430 -0.6232  0.2798 -0.1887
 1533TIP3    H126234   1.151   5.463   8.509 -1.2339  0.6907  0.2976
 1533TIP3    H226235   1.160   5.502   8.363 -0.1994  0.6328  0.3378
 1534TIP3   OH226236   3.213   5.416   7.757  0.6664  0.5732  0.3600
 1534TIP3    H126237   3.300   5.456   7.749  1.0168 -0.5088 -3.0470
 1534TIP3    H226238   3.163   5.453   7.685 -1.2151 -0.0350  1.2927
 1535TIP3   OH226239   0.672   2.187   1.753  0.4528 -0.1099 -0.4840
 1535TIP3    H126240   0.634   2.194   1.665 -0.4011 -2.6290 -0.4007
 1535TIP3    H226241   0.644   2.101   1.784 -1.2840  1.5906  3.2424
 1536TIP3   OH226242   1.133   3.943   2.676  0.5938  0.6208  0.2947
 1536TIP3    H126243   1.105   3.864   2.629  0.3641  1.1701 -0.5016
 1536TIP3    H226244   1.227   3.931   2.689  0.6771  0.5088 -0.3917
 1537TIP3   OH226245   3.335   3.872   2.246 -0.0166 -0.5083 -0.4365
 1537TIP3    H126246   3.294   3.914   2.321 -0.2029  1.3147 -1.5244
 1537TIP3    H226247   3.307   3.780   2.252  0.3205 -0.5290  1.9318
 1538TIP3   OH226248   6.714   0.056   6.813  0.3017 -0.8260 -0.6622
 1538TIP3    H126249   6.643   0.103   6.769  1.5724  1.2119 -0.6608
 1538TIP3    H226250   6.772   0.028   6.742  0.5165 -0.7017 -0.5378
 1539TIP3   OH226251   1.125   0.574   1.114 -0.2704  0.4518  0.9557
 1539TIP3    H126252   1.133   0.483   1.087 -0.7023  0.3426  1.1958
 1539TIP3    H226253   1.036   0.582   1.148 -0.0019  0.7908  1.5895
 1540TIP3   OH226254   4.774   0.007   0.775 -0.2121 -0.1158  0.0259
 1540TIP3    H126255   4.708  -0.030   0.834  0.5904 -1.1069  0.3276
 1540TIP3    H226256   4.846  -0.056   0.776  0.6630  0.8359 -0.4681
 1541TIP3   OH226257   6.820   0.106   8.449  0.5255 -0.3985 -0.0269
 1541TIP3    H126258   6.890   0.171   8.454  0.2902 -0.1760  0.3789
 1541TIP3    H226259   6.850   0.044   8.382 -0.7854  2.0173 -3.1594
 1542TIP3   OH226260   3.333   2.580   7.248  0.6011 -0.3775 -0.2533
 1542TIP3    H126261   3.427   2.592   7.262  0.7570 -0.9328 -0.7760
 1542TIP3    H226262   3.292   2.629   7.319  1.2588  0.6520 -0.5570
 1543TIP3   OH226263   2.887   6.874   2.092 -0.0789 -0.2529 -0.5204
 1543TIP3    H126264   2.908   6.792   2.137 -0.6213 -0.1175  0.0011
 1543TIP3    H226265   2.964   6.929   2.103  0.7142 -1.0600 -1.7884
 1544TIP3   OH226266   6.482   4.412   1.326 -0.4930 -0.3501  0.1214
 1544TIP3    H126267   6.396   4.390   1.360  0.8495 -2.4059  2.5363
 1544TIP3    H226268   6.512   4.333   1.281  0.9175 -0.3910  1.0816
 1545TIP3   OH226269   3.346   1.169   7.190 -0.3677 -0.3943  0.5834
 1545TIP3    H126270   3.359   1.263   7.203 -1.5520 -0.1312 -0.0510
 1545TIP3    H226271   3.419   1.142   7.134 -0.6468  0.3861 -0.1824
 1546TIP3   OH226272   6.716   6.515   7.649  0.5729 -0.0491  0.4388
 1546TIP3    H126273   6.652   6.495   7.717  0.7309  0.1587  0.6494
 1546TIP3    H226274   6.768   6.587   7.685  0.6721  0.0466  0.1084
 1547TIP3   OH226275   3.647   5.470   0.741 -0.5444  0.0375  0.2446
 1547TIP3    H126276   3.616   5.547   0.692 -0.6219  0.2323  0.5997
 1547TIP3    H226277   3.637   5.494   0.833 -0.2424 -0.2672  0.3590
 1548TIP3   OH226278   2.198   2.937   8.435  0.0531  0.6314  0.4273
 1548TIP3    H126279   2.279   2.927   8.485  0.6034  1.3871 -0.2900
 1548TIP3    H226280   2.129   2.924   8.499  0.6836 -1.8431  0.7336
 1549TIP3   OH226281   1.467   6.155   7.559 -0.0443 -0.2483  0.2454
 1549TIP3    H126282   1.468   6.197   7.645 -0.5245  0.7864 -0.2319
 1549TIP3    H226283   1.491   6.064   7.576  2.5177  0.5053  1.1439
 1550TIP3   OH226284   1.564   3.661   7.616 -0.2842  0.3305 -0.3241
 1550TIP3    H126285   1.469   3.659   7.631 -0.3005  2.1243  0.0342
 1550TIP3    H226286   1.602   3.637   7.701 -0.4306  2.6451  0.4489
 1551TIP3   OH226287   0.676   2.889   7.892 -0.0603 -0.3177  0.0141
 1551TIP3    H126288   0.711   2.969   7.929 -2.3043  0.7891 -0.0452
 1551TIP3    H226289   0.724   2.818   7.935  2.4470  1.0152 -0.4199
 1552TIP3   OH226290   0.296   3.040   0.157  0.1194 -0.1072  0.4199
 1552TIP3    H126291   0.314   2.950   0.130 -0.3057  0.1297 -0.7332
 1552TIP3    H226292   0.382   3.082   0.162  0.1949 -0.0012 -1.2444
 1553TIP3   OH226293   1.609   5.089   0.253 -0.4557 -0.3584  0.3183
 1553TIP3    H126294   1.640   5.055   0.169  0.1561  2.1704 -0.5609
 1553TIP3    H226295   1.685   5.081   0.312 -0.1702 -0.1056 -0.0106
 1554TIP3   OH226296   0.319   1.845   1.694 -0.0500 -0.1500 -0.2754
 1554TIP3    H126297   0.413   1.858   1.680  0.3814 -3.0555 -0.6757
 1554TIP3    H226298   0.286   1.816   1.610 -0.9844 -0.7567  0.2893
 1555TIP3   OH226299   4.821   3.612   7.718  0.4267 -0.4448 -0.5251
 1555TIP3    H126300   4.828   3.628   7.624 -0.9293  0.8294 -0.4464
 1555TIP3    H226301   4.743   3.557   7.727 -0.4701  0.8782 -0.0256
 1556TIP3   OH226302   6.340   2.229   0.811 -0.5745 -0.4289  0.0892
 1556TIP3    H126303   6.299   2.204   0.728  1.6650 -1.8556 -0.6874
 1556TIP3    H226304   6.316   2.321   0.823  0.0606  0.2026 -2.8000
 1557TIP3   OH226305   5.406   6.195   8.428  0.3185 -0.1565 -0.0583
 1557TIP3    H126306   5.496   6.198   8.463 -0.1344 -0.9690  1.2524
 1557TIP3    H226307   5.413   6.136   8.352  1.1501  0.9473 -0.8853
 1558TIP3   OH226308   6.357   5.433   7.860  0.5345  0.0307 -0.2865
 1558TIP3    H126309   6.389   5.503   7.802 -1.2231  0.9909 -0.1698
 1558TIP3    H226310   6.287   5.474   7.910 -1.0921 -2.0058 -0.7669
 1559TIP3   OH226311   5.667   4.349   2.128  0.7052  0.3331 -0.2873
 1559TIP3    H126312   5.708   4.307   2.203 -1.5546 -1.8681 -0.1701
 1559TIP3    H226313   5.616   4.421   2.166 -1.5310 -1.5897  0.5989
 1560TIP3   OH226314   3.618   3.042   2.840 -0.0473 -0.4345 -0.3943
 1560TIP3    H126315   3.534   3.012   2.876  0.5414 -0.0507  1.3662
 1560TIP3    H226316   3.667   2.961   2.825 -0.1490 -0.5846  0.0685
 1561TIP3   OH226317   4.376   3.803   0.917 -0.5097 -0.7061  0.1140
 1561TIP3    H126318   4.446   3.761   0.868 -0.4606 -0.2196 -0.2379
 1561TIP3    H226319   4.322   3.731   0.948 -0.4578 -1.0311 -0.5317
 1562TIP3   OH226320   6.573   1.006   2.986 -0.1546 -0.0247  0.0780
 1562TIP3    H126321   6.611   1.086   2.952 -0.6146  0.1913  0.0740
 1562TIP3    H226322   6.487   1.031   3.019  0.1078 -0.3053  1.0264
 1563TIP3   OH226323   1.985   1.445   0.385 -0.4769 -0.2250 -0.7353
 1563TIP3    H126324   1.911   1.506   0.385 -0.1680  0.3864 -4.3245
 1563TIP3    H226325   2.061   1.501   0.399 -0.4900 -0.4291  0.1571
 1564TIP3   OH226326   6.458   0.370   1.639  0.3148 -0.2972 -0.1601
 1564TIP3    H126327   6.474   0.298   1.578  1.2337 -0.3963  0.1774
 1564TIP3    H226328   6.480   0.449   1.589 -0.7297 -0.2442 -0.5422
 1565TIP3   OH226329   3.969   2.873   8.558  0.3897 -0.4269 -0.0860
 1565TIP3    H126330   3.998   2.964   8.555 -1.4098  0.2016  0.5541
 1565TIP3    H226331   3.902   2.871   8.626  1.1160 -2.4634  0.6441
 1566TIP3   OH226332   2.384   0.585   2.180  0.1003  0.2655  0.6514
 1566TIP3    H126333   2.336   0.623   2.106 -1.4432  1.4227  2.1822
 1566TIP3    H226334   2.384   0.654   2.246 -0.4073 -1.4412  2.5174
 1567TIP3   OH226335   5.822   1.133   0.241 -0.1402  0.4453  0.4749
 1567TIP3    H126336   5.904   1.171   0.272 -2.1263  3.6230  2.4410
 1567TIP3    H226337   5.807   1.172   0.155 -0.8137  2.1323  1.3023
 1568TIP3   OH226338   0.241   4.152   1.978  0.2998 -0.7229  0.2990
 1568TIP3    H126339   0.229   4.246   1.990  0.4623 -0.3538 -1.9500
 1568TIP3    H226340   0.298   4.125   2.050  2.5877  1.4563 -0.5386
 1569TIP3   OH226341   2.995   2.988   1.194 -0.2005 -0.6896 -0.0693
 1569TIP3    H126342   2.958   2.903   1.217  0.2310 -0.7354  0.4856
 1569TIP3    H226343   2.955   3.049   1.256 -0.7430 -0.4352 -0.6664
 1570TIP3   OH226344   4.676   6.250   2.887  0.3101 -0.4686  0.1056
 1570TIP3    H126345   4.766   6.281   2.883 -0.2159  1.2349  0.4281
 1570TIP3    H226346   4.679   6.173   2.944  1.7092 -1.1361 -0.8230
 1571TIP3   OH226347   4.179   3.150   2.979 -0.1768  0.2588 -0.4070
 1571TIP3    H126348   4.225   3.151   2.895 -0.5299  1.8212 -0.6074
 1571TIP3    H226349   4.136   3.065   2.981 -2.7799  1.2965 -3.3216
 1572TIP3   OH226350   3.318   2.927   2.110  0.6906  0.2398 -0.7940
 1572TIP3    H126351   3.278   2.876   2.181  2.1155 -0.5186 -0.5110
 1572TIP3    H226352   3.295   2.879   2.031 -0.0652  0.5473 -0.7751
 1573TIP3   OH226353   5.521   1.614   8.338 -0.7733  0.3766  0.1317
 1573TIP3    H126354   5.518   1.656   8.253  0.6803  0.7126  0.2111
 1573TIP3    H226355   5.567   1.677   8.394  0.9397 -1.0321  0.3977
 1574TIP3   OH226356   1.521   1.814   0.176  0.4341 -0.2426  0.1180
 1574TIP3    H126357   1.606   1.831   0.136  1.0573 -2.5644  0.3149
 1574TIP3    H226358   1.460   1.869   0.127  1.6379 -0.5779 -1.8801
 1575TIP3   OH226359   5.736   2.324   7.399  0.2348  0.0967  0.0892
 1575TIP3    H126360   5.744   2.256   7.332 -0.3955 -0.9874  1.0688
 1575TIP3    H226361   5.682   2.392   7.357  0.4026 -0.2535 -0.7188
 1576TIP3   OH226362   0.693   5.285   1.116 -0.0327 -0.0782  0.1020
 1576TIP3    H126363   0.704   5.334   1.035  0.9013 -2.4547 -1.3331
 1576TIP3    H226364   0.608   5.242   1.108  0.2508 -0.6653  0.1690
 1577TIP3   OH226365   2.277   1.423   1.504 -0.4661 -0.7241 -0.2244
 1577TIP3    H126366   2.235   1.373   1.574  1.7507  0.1762  1.9296
 1577TIP3    H226367   2.278   1.513   1.537 -0.5749 -0.0068 -2.0671
 1578TIP3   OH226368   5.216   4.576   0.184  0.3794  0.2427 -0.3464
 1578TIP3    H126369   5.230   4.668   0.205 -1.7140  0.0733  2.5957
 1578TIP3    H226370   5.268   4.528   0.249 -0.3085 -0.5628 -0.3624
 1579TIP3   OH226371   4.315   4.837   0.280 -0.2779 -0.1123 -0.7571
 1579TIP3    H126372   4.233   4.790   0.295 -0.1561 -0.1985 -0.3373
 1579TIP3    H226373   4.383   4.775   0.306 -0.0575 -0.1911 -1.4943
 1580TIP3   OH226374   1.432   2.134   7.077 -0.2043 -0.0989  0.0840
 1580TIP3    H126375   1.457   2.214   7.031 -0.2652 -0.3829 -0.4399
 1580TIP3    H226376   1.381   2.084   7.014 -1.7116  0.2451  0.9667
 1581TIP3   OH226377   2.282   2.671   2.232 -0.2736 -0.6500  0.4054
 1581TIP3    H126378   2.266   2.605   2.300 -0.6245 -1.2907 -0.2843
 1581TIP3    H226379   2.195   2.688   2.195 -0.0692 -0.3704  0.0569
 1582TIP3   OH226380   2.542   2.593   7.897  0.2758  0.4093  0.1315
 1582TIP3    H126381   2.578   2.630   7.816 -0.2589  0.8539  0.0969
 1582TIP3    H226382   2.476   2.531   7.868  0.2926  0.3484  0.2232
 1583TIP3   OH226383   5.159   6.674   8.309 -0.1055  0.3195 -0.4337
 1583TIP3    H126384   5.189   6.672   8.218  0.8159 -0.1567 -0.1222
 1583TIP3    H226385   5.235   6.649   8.361  0.0334  2.6339  0.6425
 1584TIP3   OH226386   0.286   5.999   8.005 -0.4461  0.0843  0.0973
 1584TIP3    H126387   0.377   5.993   8.036  0.3365 -0.6555 -2.1734
 1584TIP3    H226388   0.254   5.909   8.009  0.2766 -0.3845 -2.7563
 1585TIP3   OH226389   0.975   1.790   1.907 -0.0962  0.1099  0.0822
 1585TIP3    H126390   0.933   1.778   1.822  0.2614  0.5050 -0.1477
 1585TIP3    H226391   0.905   1.774   1.970 -0.4006 -0.0234 -0.2867
 1586TIP3   OH226392   5.370   0.847   0.861  0.2913 -0.2771 -0.6129
 1586TIP3    H126393   5.405   0.798   0.935 -0.2535 -0.7966 -0.6834
 1586TIP3    H226394   5.383   0.789   0.786  4.4060  1.7342 -1.7450
 1587TIP3   OH226395   6.632   3.552   7.648  0.4432 -0.4061 -0.4436
 1587TIP3    H126396   6.674   3.566   7.562 -0.9394 -0.9797 -1.2442
 1587TIP3    H226397   6.674   3.474   7.682  0.3438 -0.7296 -1.0394
 1588TIP3   OH226398   0.829   4.060   7.779  0.0476  0.3210  0.0733
 1588TIP3    H126399   0.900   4.073   7.716 -0.9069  1.0070 -0.9063
 1588TIP3    H226400   0.830   4.140   7.833 -1.4970  1.5252 -1.5470
 1589TIP3   OH226401   0.341   1.412   0.461 -0.1701  0.7657 -0.1812
 1589TIP3    H126402   0.287   1.482   0.426 -1.4728  0.2545  0.7147
 1589TIP3    H226403   0.350   1.433   0.554 -2.1243 -1.1446  0.5098
 1590TIP3   OH226404   0.554   0.003   8.224 -0.3960  0.7016  0.2695
 1590TIP3    H126405   0.642  -0.019   8.192  0.5776  2.0005  1.9128
 1590TIP3    H226406   0.497  -0.061   8.181  1.0731  0.9767 -2.3168
 1591TIP3   OH226407   2.723   5.047   1.551 -0.2919  0.1048 -0.2153
 1591TIP3    H126408   2.729   5.081   1.462  1.8355  0.0625 -0.1269
 1591TIP3    H226409   2.757   4.957   1.545 -1.1638 -0.2919  0.4665
 1592TIP3   OH226410   5.751   4.780   1.638  0.0476  0.3754  0.6205
 1592TIP3    H126411   5.791   4.717   1.579 -0.3853 -0.2478  0.9845
 1592TIP3    H226412   5.658   4.758   1.638  0.2847 -1.0762  3.1871
 1593TIP3   OH226413   1.504   5.021   1.200  0.0961 -0.4052 -0.1339
 1593TIP3    H126414   1.460   5.000   1.282 -1.9907 -1.6800 -1.5031
 1593TIP3    H226415   1.543   5.107   1.216 -0.4791 -0.4844  2.0852
 1594TIP3   OH226416   4.182   1.722   2.968  0.0087  0.3634 -0.1918
 1594TIP3    H126417   4.117   1.739   2.900  0.6458 -0.3847 -1.0244
 1594TIP3    H226418   4.233   1.803   2.973 -1.7960  1.4864  1.4657
 1595TIP3   OH226419   4.341   4.566   0.905 -0.0954 -0.3664 -0.1090
 1595TIP3    H126420   4.423   4.608   0.879 -0.4126 -1.0377 -2.3011
 1595TIP3    H226421   4.287   4.565   0.826 -3.0383  1.7390  1.6135
 1596TIP3   OH226422   5.269   1.361   1.416  0.3550  0.2060  0.0403
 1596TIP3    H126423   5.202   1.293   1.412  0.6549 -0.1212  0.4441
 1596TIP3    H226424   5.351   1.313   1.431  1.0230  0.4123 -2.5953
 1597TIP3   OH226425   2.076   6.695   8.192  0.2225 -0.0766 -0.5804
 1597TIP3    H126426   1.992   6.650   8.178  0.2797 -0.4968  0.3340
 1597TIP3    H226427   2.074   6.768   8.130 -0.8822  0.0062 -0.4784
 1598TIP3   OH226428   1.251   0.608   1.465  0.2053 -0.5161 -0.2643
 1598TIP3    H126429   1.320   0.616   1.530  0.3956  0.3278 -0.5609
 1598TIP3    H226430   1.214   0.696   1.458 -1.0150 -0.9804  0.0114
 1599TIP3   OH226431   1.241   1.953   0.464  0.3628  0.5264  0.2889
 1599TIP3    H126432   1.158   2.000   0.474  1.1745  2.4759 -1.2934
 1599TIP3    H226433   1.273   1.980   0.378  0.7931 -3.2525 -0.9273
 1600TIP3   OH226434   0.766   1.725   2.050 -0.4243  0.3709 -0.2668
 1600TIP3    H126435   0.747   1.740   2.143  0.6051 -0.9354  0.1837
 1600TIP3    H226436   0.708   1.654   2.024  0.2808 -0.2346 -0.2221
 1601TIP3   OH226437   3.178   1.873   2.183  0.2786  0.7803  0.1609
 1601TIP3    H126438   3.254   1.849   2.236  1.3759  4.6572  0.6508
 1601TIP3    H226439   3.126   1.930   2.240 -3.0938 -1.6347 -0.2055
 1602TIP3   OH226440   1.215   4.625   2.462 -0.9825 -0.1071  0.2004
 1602TIP3    H126441   1.273   4.555   2.494  0.2028  0.7797  0.0582
 1602TIP3    H226442   1.208   4.610   2.368  1.2350  1.3003 -0.2549
 1603TIP3   OH226443   0.495   0.181   2.129  0.0396  0.2116  0.1953
 1603TIP3    H126444   0.536   0.264   2.105 -0.7687  0.3134 -0.9466
 1603TIP3    H226445   0.501   0.128   2.050 -0.7294 -0.2802  0.4543
 1604TIP3   OH226446   2.761   3.358   0.988  0.3880  0.2093 -0.0438
 1604TIP3    H126447   2.688   3.420   0.997  0.7451  0.6296 -0.0161
 1604TIP3    H226448   2.744   3.313   0.906  1.0897  1.6324 -1.0071
 1605TIP3   OH226449   4.740   4.599   0.417 -0.2873 -0.0045 -0.1492
 1605TIP3    H126450   4.801   4.667   0.445  1.2932 -0.7548 -1.6008
 1605TIP3    H226451   4.794   4.520   0.409 -1.3716 -0.6396 -1.7243
 1606TIP3   OH226452   0.591   2.055   7.580  0.6607 -0.0942  0.5498
 1606TIP3    H126453   0.577   2.033   7.488 -1.1743 -0.4738  0.8655
 1606TIP3    H226454   0.564   2.147   7.587 -0.5846 -0.4702  0.9470
 1607TIP3   OH226455   3.531   6.463   7.617 -0.2717 -0.7079 -0.5865
 1607TIP3    H126456   3.514   6.444   7.525 -0.0663  0.1502 -0.8116
 1607TIP3    H226457   3.576   6.548   7.616 -0.1216 -0.7662  0.2920
 1608TIP3   OH226458   6.022   6.372   7.375 -0.0802 -0.5152  0.3171
 1608TIP3    H126459   5.975   6.355   7.293  1.7166  0.1925 -0.9029
 1608TIP3    H226460   6.089   6.304   7.380 -1.7208 -2.1271  2.5504
 1609TIP3   OH226461   6.114   3.594   1.789  0.3322  0.3633  0.0128
 1609TIP3    H126462   6.124   3.654   1.715  1.7990 -0.6248 -0.6493
 1609TIP3    H226463   6.202   3.587   1.825  0.5216 -2.3634 -0.7570
 1610TIP3   OH226464   5.154   0.503   1.036  0.6201  0.3667 -0.1222
 1610TIP3    H126465   5.104   0.583   1.053 -1.6525 -0.9249 -0.3828
 1610TIP3    H226466   5.168   0.503   0.941  3.6189  2.0394  0.1752
 1611TIP3   OH226467   0.296   0.511   0.171  0.0941  0.4501 -0.2524
 1611TIP3    H126468   0.307   0.569   0.246 -1.9166  1.8123 -0.9274
 1611TIP3    H226469   0.231   0.446   0.200  1.2577 -0.6270  0.0158
 1612TIP3   OH226470   0.010   0.441   7.493 -0.0373  0.1019 -0.0542
 1612TIP3    H126471  -0.011   0.379   7.423 -2.2979  1.3839 -0.6258
 1612TIP3    H226472  -0.075   0.473   7.522  0.9724  1.3075  1.7296
 1613TIP3   OH226473   4.251   2.580   1.780 -0.2681  0.4986 -0.1549
 1613TIP3    H126474   4.234   2.598   1.688  0.9389  1.1828 -0.2701
 1613TIP3    H226475   4.302   2.655   1.810  1.4981 -0.8391  0.3944
 1614TIP3   OH226476   4.063   0.360   7.206 -0.2742 -0.1962 -0.8719
 1614TIP3    H126477   4.123   0.423   7.248 -0.9990  1.4096 -2.1125
 1614TIP3    H226478   4.046   0.295   7.273  1.8052  0.0188 -0.0406
 1615TIP3   OH226479   0.084   0.006   1.197 -0.2065 -0.6812  0.4117
 1615TIP3    H126480   0.084   0.006   1.293  2.7792 -0.4254  0.5124
 1615TIP3    H226481   0.093   0.098   1.173 -2.2211 -0.6014 -0.2254
 1616TIP3   OH226482   4.847   4.576   8.081 -0.1071 -0.1346  0.3428
 1616TIP3    H126483   4.835   4.505   8.144  2.3417  1.4053  2.8182
 1616TIP3    H226484   4.900   4.538   8.011  0.8903 -0.9151  1.4658
 1617TIP3   OH226485   4.296   0.649   8.212 -0.1434  0.5903  0.0553
 1617TIP3    H126486   4.253   0.572   8.247 -0.0048  1.4130  2.1651
 1617TIP3    H226487   4.267   0.721   8.269  1.2262  1.7636 -0.6665
 1618TIP3   OH226488   0.178   3.714   8.368  0.6904  0.1579 -0.2372
 1618TIP3    H126489   0.167   3.808   8.378 -1.2352  0.2565 -2.5500
 1618TIP3    H226490   0.227   3.704   8.286 -0.5419 -0.8561 -0.8806
 1619TIP3   OH226491   0.359   2.440   8.165  0.1080 -0.5620 -0.1924
 1619TIP3    H126492   0.345   2.501   8.238  0.0644 -0.5736 -0.1913
 1619TIP3    H226493   0.361   2.354   8.206 -1.3392 -0.7003 -0.3778
 1620TIP3   OH226494   2.293   3.238   8.118 -0.0894  0.4591  0.3043
 1620TIP3    H126495   2.317   3.150   8.089  0.3715  0.9587 -0.8762
 1620TIP3    H226496   2.368   3.293   8.096 -1.0590  1.4778 -0.6171
 1621TIP3   OH226497   0.215   2.878   0.463 -0.0820  0.3106  0.6979
 1621TIP3    H126498   0.142   2.889   0.523 -0.1394 -0.1485  0.7137
 1621TIP3    H226499   0.244   2.968   0.443  0.5998  0.4603  2.2162
 1622TIP3   OH226500   2.496   0.483   1.143  0.1743 -0.0932  0.5006
 1622TIP3    H126501   2.506   0.519   1.055  1.1707 -3.4724 -0.9372
 1622TIP3    H226502   2.408   0.445   1.144 -0.3160  1.0090  1.4619
 1623TIP3   OH226503   4.250   0.291   1.765  0.2696  0.2472  0.1934
 1623TIP3    H126504   4.207   0.363   1.719  1.7958  0.0152 -1.7094
 1623TIP3    H226505   4.323   0.332   1.811  0.3522  0.0997  0.1934
 1624TIP3   OH226506   3.472   2.471   0.668  0.0613  0.2928 -0.4186
 1624TIP3    H126507   3.519   2.443   0.747 -0.0176  1.3442  0.0141
 1624TIP3    H226508   3.517   2.551   0.641 -1.7580  1.6068  0.2800
 1625TIP3   OH226509   6.794   6.668   1.535  0.6975 -0.4091 -0.9786
 1625TIP3    H126510   6.715   6.720   1.520  0.8605  0.9751  2.1635
 1625TIP3    H226511   6.820   6.689   1.625  3.2447 -2.7362 -1.0346
 1626TIP3   OH226512   5.013   2.661   2.142 -0.2025  0.2643  0.1017
 1626TIP3    H126513   4.949   2.635   2.208  1.4698  0.8587  2.0848
 1626TIP3    H226514   5.097   2.631   2.178  0.8252  1.0706 -1.5253
 1627TIP3   OH226515   1.038   3.231   1.983 -0.1763  0.9327 -0.0719
 1627TIP3    H126516   1.000   3.143   1.992  0.4593  0.5616 -0.8722
 1627TIP3    H226517   1.099   3.238   2.056  1.3376 -0.1409 -1.1638
 1628TIP3   OH226518   6.436   6.109   8.085  0.1904  0.4509  0.3018
 1628TIP3    H126519   6.454   6.193   8.042 -3.6246  1.1966 -0.2058
 1628TIP3    H226520   6.452   6.127   8.178  0.2142  1.5175  0.1087
 1629TIP3   OH226521   5.578   6.173   1.366 -1.1126 -0.3306  0.4174
 1629TIP3    H126522   5.555   6.253   1.318 -1.8245 -1.3732 -1.0734
 1629TIP3    H226523   5.654   6.138   1.319  0.4267  0.4125  2.2213
 1630TIP3   OH226524   5.876   6.663   0.843  0.0715  0.3906 -0.4224
 1630TIP3    H126525   5.785   6.637   0.826 -0.1038  1.0795 -0.6015
 1630TIP3    H226526   5.868   6.738   0.903  0.5862 -0.4302  0.7069
 1631TIP3   OH226527   2.108   3.424   1.332  0.5810  0.0994  0.3651
 1631TIP3    H126528   2.137   3.502   1.285  2.2780 -0.4510  0.4208
 1631TIP3    H226529   2.031   3.452   1.380 -1.2596  0.7126 -2.6976
 1632TIP3   OH226530   4.971   6.560   1.729 -0.3789 -0.1733 -0.4021
 1632TIP3    H126531   4.914   6.633   1.707 -1.7756 -0.6811  1.3266
 1632TIP3    H226532   4.937   6.486   1.678 -0.9393 -0.3345  0.1881
 1633TIP3   OH226533   5.794   3.354   8.018 -0.2130  0.7114  0.5880
 1633TIP3    H126534   5.823   3.433   7.972 -0.3359 -0.0634 -0.8919
 1633TIP3    H226535   5.793   3.379   8.110  3.7022  1.2663  0.6563
 1634TIP3   OH226536   6.683   1.434   0.614 -0.0171  0.1750  0.9693
 1634TIP3    H126537   6.774   1.448   0.640 -0.3933  1.4651  1.6862
 1634TIP3    H226538   6.640   1.403   0.694 -0.4521  0.7272  0.9521
 1635TIP3   OH226539   4.187   4.421   0.669 -0.4322  0.1903  0.0643
 1635TIP3    H126540   4.097   4.452   0.677 -0.1697  1.0937 -0.2631
 1635TIP3    H226541   4.204   4.372   0.749 -0.4447  2.0891  1.2921
 1636TIP3   OH226542   6.332   6.775   2.580 -0.4719  0.2197  0.6406
 1636TIP3    H126543   6.280   6.695   2.579 -0.3483  0.0639  2.7223
 1636TIP3    H226544   6.421   6.746   2.557 -0.5828 -0.1083  0.6266
 1637TIP3   OH226545   3.208   0.024   2.393 -0.8028 -0.1464  0.8239
 1637TIP3    H126546   3.150   0.097   2.417 -0.0951  0.1914  1.5592
 1637TIP3    H226547   3.230  -0.017   2.477 -0.3068 -0.5258  0.5097
 1638TIP3   OH226548   0.248   3.568   2.293 -0.3064  0.7834  0.2622
 1638TIP3    H126549   0.198   3.546   2.371 -1.4812 -0.1765 -0.7181
 1638TIP3    H226550   0.337   3.585   2.325 -0.1265 -2.0913  1.5768
 1639TIP3   OH226551   2.877   5.208   0.390 -0.5955  0.2562 -0.0513
 1639TIP3    H126552   2.817   5.139   0.363 -0.0129 -0.2206 -0.1536
 1639TIP3    H226553   2.889   5.194   0.484 -1.4209  0.9727  0.1768
 1640TIP3   OH226554   1.826   0.625   7.582  0.0931  0.2165  0.2743
 1640TIP3    H126555   1.794   0.648   7.669 -0.9630  0.3571 -0.1373
 1640TIP3    H226556   1.893   0.559   7.598  0.6280  0.9725  1.2511
 1641TIP3   OH226557   4.454   4.803   1.664 -0.8285 -0.7329  0.7634
 1641TIP3    H126558   4.519   4.748   1.620 -1.3904 -0.9700  0.2285
 1641TIP3    H226559   4.388   4.820   1.598  0.0745  1.8781  0.4379
 1642TIP3   OH226560   0.642   0.593   0.983  0.1065 -0.2428  0.5776
 1642TIP3    H126561   0.686   0.515   0.949  1.1931  0.4959  0.2249
 1642TIP3    H226562   0.663   0.593   1.077  1.7440  0.6256  0.2468
 1643TIP3   OH226563   2.552   4.523   0.127 -0.1960 -0.3871 -0.6052
 1643TIP3    H126564   2.496   4.545   0.053  1.3725  0.0025 -1.7269
 1643TIP3    H226565   2.618   4.464   0.091  0.2929 -0.6208  0.6126
 1644TIP3   OH226566   0.293   1.461   0.075 -0.0104  0.3767  0.2695
 1644TIP3    H126567   0.376   1.454   0.123  0.4551 -3.1297 -0.7545
 1644TIP3    H226568   0.317   1.501  -0.009  0.8014 -0.8692 -0.1323
 1645TIP3   OH226569   0.891   2.789   1.565 -0.2300  0.1499 -0.4548
 1645TIP3    H126570   0.854   2.734   1.496 -2.1477  0.3274  0.3699
 1645TIP3    H226571   0.832   2.777   1.639  1.1034  0.8956  0.7686
 1646TIP3   OH226572   5.900   4.189   1.486  0.0140 -0.2030 -0.2581
 1646TIP3    H126573   5.832   4.254   1.473 -0.3422 -0.6188 -0.4810
 1646TIP3    H226574   5.898   4.172   1.581 -1.1666 -1.2480 -0.4413
 1647TIP3   OH226575   2.065   6.217   1.816  0.0015  0.0126  0.0270
 1647TIP3    H126576   1.992   6.194   1.874 -0.2298 -0.2148 -0.3540
 1647TIP3    H226577   2.104   6.132   1.793  0.8653  0.1647  0.8419
 1648TIP3   OH226578   4.561   5.209   8.558  0.0774  0.2486 -0.1459
 1648TIP3    H126579   4.566   5.300   8.588 -1.4514  0.5683 -0.7286
 1648TIP3    H226580   4.483   5.208   8.502  0.5936 -1.2235 -0.8627
 1649TIP3   OH226581   3.323   5.476   8.385 -0.5375 -0.0148  0.0180
 1649TIP3    H126582   3.258   5.449   8.449 -0.2663 -0.1580  0.2321
 1649TIP3    H226583   3.277   5.541   8.331 -0.8060  0.0060  0.2682
 1650TIP3   OH226584   0.210   2.065   7.196  0.1506  0.0514  0.4098
 1650TIP3    H126585   0.156   2.018   7.132 -0.9714 -1.1821  2.1480
 1650TIP3    H226586   0.284   2.098   7.146 -1.4028  0.4303 -1.7884
 1651TIP3   OH226587   3.082   4.912   2.065 -0.3337  0.4266  0.0884
 1651TIP3    H126588   3.117   4.996   2.097  1.2314 -0.1055 -0.1611
 1651TIP3    H226589   3.134   4.846   2.111 -2.6213 -0.4852  1.5174
 1652TIP3   OH226590   0.179   6.334   8.097  0.4421 -0.2152 -0.0423
 1652TIP3    H126591   0.248   6.352   8.033  0.2453 -2.1698 -0.8767
 1652TIP3    H226592   0.223   6.282   8.165  0.0561 -0.4331  0.0412
 1653TIP3   OH226593   2.073   6.860   1.587 -1.0371  0.2384  0.1262
 1653TIP3    H126594   1.993   6.860   1.535 -0.5081  2.3722 -0.8192
 1653TIP3    H226595   2.135   6.805   1.538 -1.6025 -0.5978  0.3418
 1654TIP3   OH226596   2.321   5.005   8.111  0.1280 -0.2144  0.1673
 1654TIP3    H126597   2.338   5.036   8.022  0.8242 -1.1435 -0.0423
 1654TIP3    H226598   2.381   4.932   8.123 -0.5754 -0.6637  1.1004
 1655TIP3   OH226599   0.839   2.394   1.222 -0.2164  0.2592 -0.1854
 1655TIP3    H126600   0.897   2.326   1.257 -2.0816  0.0143  2.7540
 1655TIP3    H226601   0.751   2.368   1.251 -1.0811  3.6763  0.7385
 1656TIP3   OH226602   4.614   2.897   2.355 -0.3005 -0.0491  0.3513
 1656TIP3    H126603   4.622   2.939   2.441  0.6003  0.9950 -0.2027
 1656TIP3    H226604   4.619   2.970   2.293 -1.9665 -0.6778 -0.5788
 1657TIP3   OH226605   5.543   6.630   2.969 -0.6081  0.3422  0.2573
 1657TIP3    H126606   5.470   6.661   3.021 -0.2341  0.8282  0.4971
 1657TIP3    H226607   5.561   6.542   3.003 -0.7122  0.4440  0.5813
 1658TIP3   OH226608   1.847   1.281   2.476  0.0115 -0.0909  0.2060
 1658TIP3    H126609   1.852   1.323   2.562  1.1210 -2.1228  1.1933
 1658TIP3    H226610   1.892   1.342   2.418  1.5345  0.1832  1.5729
 1659TIP3   OH226611   5.902   6.313   8.027  0.2066 -0.0780  0.0089
 1659TIP3    H126612   5.927   6.365   7.950 -0.0202 -0.7685 -0.5370
 1659TIP3    H226613   5.842   6.370   8.076  0.6670  0.5170 -0.1117
 1660TIP3   OH226614   5.953   3.573   8.379 -0.7622  0.1624 -0.8245
 1660TIP3    H126615   5.985   3.508   8.317 -1.4668 -1.4969  0.4493
 1660TIP3    H226616   6.026   3.633   8.391  0.5906 -1.4140 -0.7436
 1661TIP3   OH226617   5.444   0.326   1.599 -0.2303 -0.1034  0.3873
 1661TIP3    H126618   5.529   0.348   1.560  0.5489 -1.0991  1.4439
 1661TIP3    H226619   5.418   0.244   1.557 -0.9232  0.4486 -0.2846
 1662TIP3   OH226620   1.508   3.995   2.854  0.1597 -0.1344 -0.0789
 1662TIP3    H126621   1.546   4.053   2.920  2.6997 -2.0165  0.2197
 1662TIP3    H226622   1.564   4.007   2.777 -1.6905  0.6868 -1.3714
 1663TIP3   OH226623   1.559   2.783   8.410 -0.4897 -0.0821 -0.0868
 1663TIP3    H126624   1.543   2.839   8.486  1.4634 -1.3219  1.3188
 1663TIP3    H226625   1.488   2.720   8.412  0.2620 -0.9236  1.5555
 1664TIP3   OH226626   4.006   5.697   7.897  0.1688  0.6406 -0.1583
 1664TIP3    H126627   4.096   5.713   7.867  0.3808  0.8578  0.5686
 1664TIP3    H226628   3.971   5.634   7.834  0.8923  0.4225 -0.3591
 1665TIP3   OH226629   0.908   2.661   0.174 -0.0092  0.4200  0.2535
 1665TIP3    H126630   0.817   2.688   0.180 -0.4568 -0.8371 -0.4024
 1665TIP3    H226631   0.913   2.580   0.225 -0.3082 -1.8330 -2.9722
 1666TIP3   OH226632   0.075   0.957   8.520  0.2257 -0.1179 -0.0003
 1666TIP3    H126633   0.166   0.931   8.532  0.3904 -0.2445 -1.3559
 1666TIP3    H226634   0.075   1.052   8.531  0.4684 -0.1475  0.2702
 1667TIP3   OH226635   0.858   3.799   0.068  0.4583  0.5895 -0.0243
 1667TIP3    H126636   0.774   3.753   0.071  0.0729  1.1643 -1.1532
 1667TIP3    H226637   0.848   3.872   0.130  0.5301  0.0385  0.6478
 1668TIP3   OH226638   4.640   0.040   2.317  0.6960 -0.3304  0.3746
 1668TIP3    H126639   4.657   0.028   2.410  2.4336  0.9215  0.2716
 1668TIP3    H226640   4.719   0.007   2.274  0.4882  0.3417 -0.5598
 1669TIP3   OH226641   2.176   4.126   6.559  0.2787  0.3253  0.8025
 1669TIP3    H126642   2.202   4.052   6.612  1.0482  0.0701  0.0860
 1669TIP3    H226643   2.089   4.103   6.526  1.0914 -0.9132 -0.5666
 1670TIP3   OH226644   1.795   3.588   6.817  0.2142 -0.0182 -0.2267
 1670TIP3    H126645   1.831   3.672   6.787 -0.5407  0.3401 -0.1356
 1670TIP3    H226646   1.872   3.534   6.833  0.7318  0.8274  0.2191
 1671TIP3   OH226647   0.583   5.436   0.146  0.4226 -0.2199 -0.0292
 1671TIP3    H126648   0.560   5.526   0.166  1.7139 -0.1551  1.4165
 1671TIP3    H226649   0.644   5.442   0.073 -1.2784 -0.1425 -1.5101
 1672TIP3   OH226650   6.581   0.077   2.674 -0.3094  0.3966  0.2368
 1672TIP3    H126651   6.610   0.158   2.633 -1.0983  0.4705 -0.1915
 1672TIP3    H226652   6.654   0.016   2.661 -0.5254  0.4316 -1.2503
 1673TIP3   OH226653   3.049   4.440   2.846 -0.3808 -0.0732 -0.5002
 1673TIP3    H126654   3.126   4.455   2.791 -0.1880  0.3825 -0.1244
 1673TIP3    H226655   3.086   4.410   2.930 -0.6621 -0.6571 -0.5824
 1674TIP3   OH226656   0.933   3.585   1.816  0.0717 -0.2403  0.0348
 1674TIP3    H126657   0.872   3.658   1.803 -1.5912 -1.5097  0.2735
 1674TIP3    H226658   0.917   3.557   1.905  0.4901 -1.0776 -0.1480
 1675TIP3   OH226659   1.373   1.141   1.603  0.1918  0.2158  0.3528
 1675TIP3    H126660   1.393   1.123   1.511  1.3378  0.8738  0.4558
 1675TIP3    H226661   1.278   1.137   1.608  0.1936 -1.8250 -0.4379
 1676TIP3   OH226662   0.071   6.767   2.337  0.5375 -0.2559  0.4408
 1676TIP3    H126663   0.145   6.764   2.397  0.6086  0.3440  0.3881
 1676TIP3    H226664   0.004   6.714   2.380  0.7448 -0.2022  0.8389
 1677TIP3   OH226665   4.619   0.221   1.285 -0.3369  0.4404 -0.1755
 1677TIP3    H126666   4.625   0.264   1.370  0.3642 -2.3706  1.3579
 1677TIP3    H226667   4.566   0.143   1.302 -0.6446  0.0858 -2.4784
 1678TIP3   OH226668   0.700   0.070   2.469  0.0167 -0.0775 -0.2632
 1678TIP3    H126669   0.792   0.049   2.483  0.1369  0.7658  0.3094
 1678TIP3    H226670   0.655  -0.014   2.476  0.6042 -0.3227  0.7934
 1679TIP3   OH226671   4.341   3.982   3.364 -0.4464 -0.2359 -0.0885
 1679TIP3    H126672   4.351   4.051   3.298  0.6321  0.7761  1.0557
 1679TIP3    H226673   4.428   3.942   3.370 -1.3427 -2.5614 -1.5684
 1680TIP3   OH226674   3.626   2.085   7.892 -0.4141  0.6906 -0.2706
 1680TIP3    H126675   3.582   2.153   7.841  1.3281  2.5548  0.5541
 1680TIP3    H226676   3.719   2.107   7.885  0.5400 -3.0486 -1.9690
 1681TIP3   OH226677   0.510   2.819   1.888 -0.5093 -0.3284 -0.0543
 1681TIP3    H126678   0.437   2.765   1.857 -1.9503  0.7777  1.2920
 1681TIP3    H226679   0.505   2.899   1.835 -1.8742  0.8061  1.6945
 1682TIP3   OH226680   2.481   6.329   8.340 -0.5758 -0.3862  0.1980
 1682TIP3    H126681   2.496   6.305   8.431 -0.4790 -1.7223 -0.1398
 1682TIP3    H226682   2.420   6.262   8.308  0.9331 -1.1465 -1.2390
 1683TIP3   OH226683   3.973   4.970   8.536  0.2829 -0.2522 -0.2358
 1683TIP3    H126684   4.063   4.984   8.508  0.1999  1.4783  0.2198
 1683TIP3    H226685   3.925   4.950   8.456  1.1141 -1.5346 -0.4358
 1684TIP3   OH226686   3.809   2.440   0.273 -1.2040 -0.4719  0.1168
 1684TIP3    H126687   3.834   2.353   0.242  0.8025 -0.0868  0.5042
 1684TIP3    H226688   3.792   2.489   0.192 -0.0549 -0.6086 -0.2324
 1685TIP3   OH226689   2.087   6.579   1.169  0.1827 -0.2321 -0.4225
 1685TIP3    H126690   2.029   6.505   1.188 -0.6422  0.4252 -0.2864
 1685TIP3    H226691   2.054   6.614   1.086  0.6381 -0.0911 -0.5442
 1686TIP3   OH226692   5.030   4.873   7.748  0.4131 -0.0980  0.0185
 1686TIP3    H126693   5.085   4.804   7.785  0.8208 -0.0346 -0.4526
 1686TIP3    H226694   5.016   4.934   7.821  1.5024  0.2079 -0.0016
 1687TIP3   OH226695   4.803   5.198   8.318  0.2698  0.3341 -0.1903
 1687TIP3    H126696   4.794   5.246   8.400  0.7581  0.4459 -0.1973
 1687TIP3    H226697   4.771   5.257   8.251 -1.0396 -0.1095  0.0117
 1688TIP3   OH226698   3.876   6.310   2.397  0.4602  0.0433 -0.8537
 1688TIP3    H126699   3.841   6.287   2.311 -1.3673 -0.3314 -0.0489
 1688TIP3    H226700   3.800   6.309   2.455  1.8196 -0.9795  1.0244
 1689TIP3   OH226701   0.062   5.840   1.555 -0.6015 -0.4242  0.3807
 1689TIP3    H126702   0.153   5.812   1.552 -0.2339  0.8028 -0.4873
 1689TIP3    H226703   0.055   5.909   1.489 -2.2337 -0.6960  0.2214
 1690TIP3   OH226704   1.570   6.241   1.942 -0.0701 -0.0361  0.4218
 1690TIP3    H126705   1.587   6.283   1.858  1.8998 -0.5808  0.4746
 1690TIP3    H226706   1.582   6.310   2.007 -0.5347  0.1486  0.3103
 1691TIP3   OH226707   5.924   5.094   0.340  0.2423  0.1750 -0.6543
 1691TIP3    H126708   6.007   5.046   0.328 -0.1238 -0.3158 -1.2765
 1691TIP3    H226709   5.860   5.042   0.292 -0.7532 -0.3207  1.1175
 1692TIP3   OH226710   4.188   5.194   3.147 -0.0703  0.5039  0.4580
 1692TIP3    H126711   4.208   5.193   3.240  0.7168  0.3553  0.2943
 1692TIP3    H226712   4.100   5.232   3.141  0.0466  0.8990  1.2238
 1693TIP3   OH226713   5.791   6.726   7.521 -0.2338 -0.0924 -0.3958
 1693TIP3    H126714   5.860   6.660   7.531 -0.8196 -0.8293 -1.0633
 1693TIP3    H226715   5.715   6.676   7.491 -1.1312  0.6734  0.5582
 1694TIP3   OH226716   5.061   4.963   2.389  0.3227  0.0298  0.0951
 1694TIP3    H126717   5.014   4.972   2.306  0.6114  1.3826  0.0627
 1694TIP3    H226718   5.028   4.881   2.426 -1.8137  0.7462 -0.0729
 1695TIP3   OH226719   4.641   3.566   7.472  0.5012 -0.0094  0.5117
 1695TIP3    H126720   4.719   3.583   7.419 -0.4790  0.9055 -0.6941
 1695TIP3    H226721   4.594   3.497   7.426 -0.1727  0.5271  0.3832
 1696TIP3   OH226722   2.955   3.156   0.986 -0.4176  0.3644 -0.0830
 1696TIP3    H126723   2.972   3.100   1.062 -0.0686  0.3340 -0.1837
 1696TIP3    H226724   2.893   3.222   1.019  0.1986  0.7149  0.3977
 1697TIP3   OH226725   1.760   6.202   1.363  0.1023  0.2668  0.3864
 1697TIP3    H126726   1.715   6.235   1.440  0.7037  1.6798  0.1654
 1697TIP3    H226727   1.846   6.175   1.395 -0.5544 -1.5930  0.6514
 1698TIP3   OH226728   4.533   3.767   2.578 -0.1696  0.3023 -0.0835
 1698TIP3    H126729   4.517   3.819   2.499 -0.7529 -1.2654 -1.0393
 1698TIP3    H226730   4.458   3.707   2.584  1.1601 -1.4456  0.0985
 1699TIP3   OH226731   2.292   6.774   1.419  0.3325  0.2048  0.1005
 1699TIP3    H126732   2.320   6.685   1.396  0.0546 -0.8217  3.1890
 1699TIP3    H226733   2.372   6.825   1.419  0.6345 -0.2511 -0.8611
 1700TIP3   OH226734   2.893   2.713   8.126 -0.1849 -0.3531 -0.4388
 1700TIP3    H126735   2.963   2.740   8.067 -0.1171 -0.9584 -0.6412
 1700TIP3    H226736   2.850   2.640   8.081 -0.2045 -0.7512  0.2080
 1701TIP3   OH226737   4.694   5.457   1.408  0.0185 -0.1427 -0.2800
 1701TIP3    H126738   4.746   5.378   1.397  2.8478  1.6684 -1.2264
 1701TIP3    H226739   4.701   5.477   1.502  1.6806  0.3890 -0.4810
 1702TIP3   OH226740   2.578   5.161   8.329  0.0737 -0.2272  0.3596
 1702TIP3    H126741   2.566   5.078   8.282 -0.8162  0.1740 -0.1507
 1702TIP3    H226742   2.498   5.209   8.312  0.8394  1.0077  0.1043
 1703TIP3   OH226743   6.915   6.060   7.011  0.1907 -0.0758  0.4008
 1703TIP3    H126744   6.836   6.028   6.967 -0.6886 -0.5811  2.2333
 1703TIP3    H226745   6.959   6.115   6.946 -2.3885  1.3684 -0.2220
 1704TIP3   OH226746   6.659   4.758   2.664  0.1134  0.3698 -0.1917
 1704TIP3    H126747   6.731   4.778   2.603  1.3946 -1.5825  0.5702
 1704TIP3    H226748   6.627   4.843   2.693  2.1941  1.3093 -0.4949
 1705TIP3   OH226749   0.795   2.887   8.441 -0.5971 -0.6378  0.3244
 1705TIP3    H126750   0.759   2.967   8.404 -0.0735  0.1245  1.4023
 1705TIP3    H226751   0.846   2.916   8.517  1.4697 -1.7534 -0.5509
 1706TIP3   OH226752   6.051   2.738   2.341  0.0237  0.0679 -0.7507
 1706TIP3    H126753   6.074   2.752   2.433  0.6086 -0.8832 -0.7321
 1706TIP3    H226754   6.130   2.763   2.293 -0.8741  2.3030 -1.1669
 1707TIP3   OH226755   4.874   3.005   0.966  0.1245  0.1834 -0.1161
 1707TIP3    H126756   4.911   2.955   0.893 -1.2862  0.1456 -0.8320
 1707TIP3    H226757   4.787   2.967   0.980  0.0081  0.8084  0.9711
 1708TIP3   OH226758   5.471   0.279   2.589 -0.2768  0.0036 -0.2874
 1708TIP3    H126759   5.559   0.312   2.605 -0.9485  1.5031  0.5155
 1708TIP3    H226760   5.431   0.274   2.676 -0.7314 -1.4796 -0.5474
 1709TIP3   OH226761   2.073   2.287   2.891 -0.4493  0.0355  0.3112
 1709TIP3    H126762   2.161   2.321   2.873 -1.1086  1.1030 -1.1090
 1709TIP3    H226763   2.085   2.192   2.895  0.9507  0.2209  1.3991
 1710TIP3   OH226764   0.810   1.513   1.478  0.0013 -0.3687  0.2758
 1710TIP3    H126765   0.856   1.431   1.495 -0.9974 -0.4223  3.2766
 1710TIP3    H226766   0.719   1.487   1.464 -0.0300  0.1328 -0.5445
 1711TIP3   OH226767   2.846   5.299   1.267  0.1311  0.1917  0.2456
 1711TIP3    H126768   2.846   5.321   1.174 -3.1750 -2.3670 -0.5659
 1711TIP3    H226769   2.878   5.209   1.270  1.8661  0.8185  1.8688
 1712TIP3   OH226770   3.789   0.148   0.021  0.4357 -0.0438  0.7503
 1712TIP3    H126771   3.812   0.165  -0.071 -1.7223  1.3843  0.4105
 1712TIP3    H226772   3.789   0.052   0.028 -0.4566 -0.2270 -1.0772
 1713TIP3   OH226773   0.137   5.181   0.311 -0.0742  0.5301  0.4743
 1713TIP3    H126774   0.081   5.237   0.258  0.0833 -0.3581 -0.6731
 1713TIP3    H226775   0.191   5.242   0.361  1.8926  1.5668 -2.6067
 1714TIP3   OH226776   0.553   2.406   1.304  0.4095 -0.3338  0.1274
 1714TIP3    H126777   0.592   2.493   1.303 -1.0497  0.3465  0.3736
 1714TIP3    H226778   0.471   2.416   1.353 -1.2900 -1.1480 -2.3178
 1715TIP3   OH226779   2.959   1.633   3.096 -0.1706 -0.6017 -0.6906
 1715TIP3    H126780   3.035   1.612   3.042  0.3222 -1.2642  0.2257
 1715TIP3    H226781   2.985   1.607   3.185 -1.4854 -0.8842 -0.3654
 1716TIP3   OH226782   0.489   1.092   2.038 -0.1136  0.2487 -0.1806
 1716TIP3    H126783   0.501   1.044   1.956 -1.2744  0.9090 -0.7772
 1716TIP3    H226784   0.549   1.051   2.100 -0.7097 -1.6392 -0.7856
 1717TIP3   OH226785   3.444   0.407   0.494 -0.5145  0.5322  0.2101
 1717TIP3    H126786   3.391   0.335   0.462 -0.3551  0.1560  0.7752
 1717TIP3    H226787   3.428   0.409   0.589 -0.4645  1.1932  0.2158
 1718TIP3   OH226788   3.573   5.900   1.672 -0.0978  0.0398 -0.1014
 1718TIP3    H126789   3.519   5.973   1.643 -0.5453 -0.2119  0.1005
 1718TIP3    H226790   3.662   5.927   1.650 -0.2120  0.8450  0.4014
 1719TIP3   OH226791   3.545   5.991   0.336 -0.4797 -0.0835 -0.0934
 1719TIP3    H126792   3.577   5.969   0.249 -1.6911 -0.5095 -0.4428
 1719TIP3    H226793   3.458   6.027   0.322 -0.2402  0.9227  0.8491
 1720TIP3   OH226794   3.323   2.023   8.040  0.6139  0.3370  0.6077
 1720TIP3    H126795   3.275   2.009   7.958  0.9319  0.6085  0.3732
 1720TIP3    H226796   3.316   2.117   8.056  4.2379  1.1025 -1.4389
 1721TIP3   OH226797   2.102   5.911   8.559 -0.3790  0.2030 -0.4221
 1721TIP3    H126798   2.040   5.978   8.530  1.7238  2.4736 -0.0305
 1721TIP3    H226799   2.141   5.879   8.478  1.3045  2.3051 -0.5359
 1722TIP3   OH226800   6.020   2.892   7.950 -0.4496  0.3370 -0.4222
 1722TIP3    H126801   5.949   2.956   7.947 -1.0231 -0.2721 -0.1231
 1722TIP3    H226802   5.976   2.808   7.956  0.2913 -0.1163 -1.1413
 1723TIP3   OH226803   2.071   0.843   2.298  0.3868 -0.0658  0.1496
 1723TIP3    H126804   2.062   0.885   2.212  2.5704 -0.7992 -0.5017
 1723TIP3    H226805   2.052   0.913   2.360 -0.3376  0.7234 -0.9029
 1724TIP3   OH226806   3.012   3.851   1.411 -0.3420 -0.4172 -0.1139
 1724TIP3    H126807   2.959   3.883   1.484 -0.4926  1.0822 -0.8265
 1724TIP3    H226808   3.019   3.927   1.352 -1.8157 -2.0655 -2.5752
 1725TIP3   OH226809   6.250   4.265   1.348 -0.1443  0.3378 -0.1544
 1725TIP3    H126810   6.203   4.201   1.401  1.2161 -2.0854 -1.6623
 1725TIP3    H226811   6.233   4.238   1.258  2.6492  0.3811 -0.7941
 1726TIP3   OH226812   4.695   4.309   0.581  0.4718  0.0384 -0.4184
 1726TIP3    H126813   4.757   4.269   0.643  1.3645  1.8230 -0.1026
 1726TIP3    H226814   4.744   4.314   0.499 -0.8361 -2.6825 -1.4828
 1727TIP3   OH226815   3.347   5.023   0.069 -0.1730  0.3565  0.3250
 1727TIP3    H126816   3.280   5.080   0.029 -1.3479 -0.5488  0.9564
 1727TIP3    H226817   3.305   4.987   0.147  1.0719 -0.2261  0.7552
 1728TIP3   OH226818   3.557   3.598   8.307 -0.6700  0.1879 -0.1354
 1728TIP3    H126819   3.549   3.662   8.237  1.0957  0.1756 -0.4148
 1728TIP3    H226820   3.573   3.515   8.262 -0.1469  0.0723  0.2417
 1729TIP3   OH226821   6.286   2.913   8.136 -0.2599 -0.2624  0.1713
 1729TIP3    H126822   6.340   2.867   8.071  1.5470  1.0750  0.6361
 1729TIP3    H226823   6.204   2.932   8.090  1.0072  0.7267 -1.8077
 1730TIP3   OH226824   3.612   6.406   7.912 -0.2657 -0.0483  0.5281
 1730TIP3    H126825   3.706   6.424   7.920 -0.3992  0.9270  0.0322
 1730TIP3    H226826   3.593   6.418   7.819 -0.6488 -1.4762  0.4023
 1731TIP3   OH226827   4.113   4.968   7.800  0.3230 -0.0590 -0.0332
 1731TIP3    H126828   4.133   4.875   7.783 -0.0782 -0.4350  1.4102
 1731TIP3    H226829   4.158   5.015   7.730  0.3325 -1.3606 -0.9395
 1732TIP3   OH226830   6.712   5.723   0.209  0.0412  0.3359  0.2207
 1732TIP3    H126831   6.655   5.647   0.205  0.0858  0.3296 -0.3600
 1732TIP3    H226832   6.713   5.748   0.302 -0.6577  0.1511  0.2794
 1733TIP3   OH226833   3.955   0.698   7.456  0.0335  0.1898  0.4736
 1733TIP3    H126834   3.877   0.750   7.435  1.0356  1.5651 -0.0032
 1733TIP3    H226835   3.992   0.677   7.370  0.4151 -0.0847  0.7057
 1734TIP3   OH226836   1.525   2.234   1.903 -0.4089 -0.2955  0.3211
 1734TIP3    H126837   1.542   2.316   1.856  0.8774 -1.5766 -1.5996
 1734TIP3    H226838   1.508   2.171   1.833  1.5121 -2.3009  1.5893
 1735TIP3   OH226839   2.490   3.150   2.192  0.2700 -0.1808  0.1456
 1735TIP3    H126840   2.571   3.170   2.240  0.5900  0.0596 -0.4745
 1735TIP3    H226841   2.519   3.096   2.119 -0.2120 -0.5431  0.2183
 1736TIP3   OH226842   2.188   3.810   8.259  0.2142 -0.5796  0.2044
 1736TIP3    H126843   2.169   3.852   8.343  0.2171 -0.5847  0.2075
 1736TIP3    H226844   2.283   3.800   8.258  0.5056  1.6649 -0.8360
 1737TIP3   OH226845   1.761   4.643   0.605  0.1091  0.2233  0.5021
 1737TIP3    H126846   1.716   4.681   0.680 -1.9438 -0.8077 -0.1331
 1737TIP3    H226847   1.727   4.690   0.529  0.2700 -0.4267  0.0142
 1738TIP3   OH226848   0.285   1.098   7.560 -1.0443  0.5559  0.3590
 1738TIP3    H126849   0.310   1.173   7.615  2.5959 -0.7780  0.8031
 1738TIP3    H226850   0.243   1.037   7.621 -0.7778  0.7687  0.7582
 1739TIP3   OH226851   3.104   1.769   1.945  0.0166 -0.4914  0.4857
 1739TIP3    H126852   3.082   1.832   1.877 -0.8313  0.5564  1.6910
 1739TIP3    H226853   3.134   1.822   2.019  3.3147 -1.6896  0.1674
 1740TIP3   OH226854   5.398   3.862   0.301  0.3167 -0.1235 -0.1781
 1740TIP3    H126855   5.434   3.884   0.387 -0.5177  1.4490 -0.1957
 1740TIP3    H226856   5.397   3.766   0.299 -0.0283 -0.2013  1.7332
 1741TIP3   OH226857   2.290   4.481   7.511 -0.1101 -0.9555  0.1876
 1741TIP3    H126858   2.311   4.400   7.559  1.8032  0.0839  1.2674
 1741TIP3    H226859   2.283   4.547   7.580  1.7407  0.4042 -0.8596
 1742TIP3   OH226860   4.744   1.794   0.473  0.0936  0.1626 -0.0005
 1742TIP3    H126861   4.835   1.823   0.459 -0.0930  0.1866 -1.2996
 1742TIP3    H226862   4.751   1.703   0.500  0.5322  0.3641  0.5783
 1743TIP3   OH226863   3.291   3.329   0.686 -0.0086 -0.6520 -0.2839
 1743TIP3    H126864   3.264   3.321   0.777  0.2485 -1.8551 -0.2920
 1743TIP3    H226865   3.236   3.399   0.650 -0.9854 -1.0167  0.4657
 1744TIP3   OH226866   3.392   3.048   0.203  0.2460  0.4871 -0.0873
 1744TIP3    H126867   3.414   2.962   0.240  1.4081  0.7053 -0.2503
 1744TIP3    H226868   3.444   3.110   0.254 -0.0039  1.0287 -0.4877
 1745TIP3   OH226869   3.164   1.293   1.440 -0.2947 -0.2080  0.1538
 1745TIP3    H126870   3.161   1.359   1.372  2.2131 -1.2267 -1.0756
 1745TIP3    H226871   3.200   1.338   1.516 -0.2494  0.2367 -0.1309
 1746TIP3   OH226872   6.837   6.232   8.148 -0.4771 -0.1229  0.3948
 1746TIP3    H126873   6.923   6.269   8.126 -0.5193 -0.3201 -0.1143
 1746TIP3    H226874   6.833   6.238   8.244  1.4516 -3.0055  0.8006
 1747TIP3   OH226875   1.350   6.157   1.175  0.7998  0.4703  0.9341
 1747TIP3    H126876   1.346   6.065   1.147 -0.9253  0.2919  1.6448
 1747TIP3    H226877   1.390   6.203   1.101 -0.1633 -0.5536 -0.2566
 1748TIP3   OH226878   6.793   1.334   2.579  0.4789  0.5850 -0.1014
 1748TIP3    H126879   6.716   1.278   2.587  0.7045  0.2322 -0.3961
 1748TIP3    H226880   6.797   1.381   2.663  1.1273 -0.9014  0.7405
 1749TIP3   OH226881   4.525   5.583   7.844  0.3770  0.6821  0.0733
 1749TIP3    H126882   4.561   5.669   7.822  0.0908  1.0180  0.9005
 1749TIP3    H226883   4.576   5.553   7.918 -0.8923  1.0941  1.1541
 1750TIP3   OH226884   0.202   3.200   0.695 -0.4890  0.3011  0.4164
 1750TIP3    H126885   0.236   3.201   0.606 -1.7315 -0.6698 -0.1056
 1750TIP3    H226886   0.278   3.185   0.750  0.4605  1.9063 -0.3761
 1751TIP3   OH226887   1.260   5.133   1.126  0.1796  0.6816 -0.0744
 1751TIP3    H126888   1.332   5.074   1.149 -1.9687 -1.8867  0.6141
 1751TIP3    H226889   1.231   5.170   1.209  0.8791  1.9836 -0.3889
 1752TIP3   OH226890   6.407   5.259   2.043  0.0748 -0.1561  0.3267
 1752TIP3    H126891   6.413   5.327   2.110 -0.2423 -0.2374  0.4343
 1752TIP3    H226892   6.427   5.177   2.089  0.3185 -0.1572  0.2250
 1753TIP3   OH226893   2.112   5.477   1.415 -0.0557 -0.0734  0.3320
 1753TIP3    H126894   2.095   5.552   1.358 -0.2553 -0.2268  0.1880
 1753TIP3    H226895   2.203   5.454   1.397 -0.4990 -0.9415 -0.9129
 1754TIP3   OH226896   3.765   5.098   7.507 -0.7720  0.4155 -0.3302
 1754TIP3    H126897   3.686   5.069   7.461 -1.3816  0.8249  0.4404
 1754TIP3    H226898   3.831   5.031   7.487 -1.5658 -0.3911 -0.2683
 1755TIP3   OH226899   0.348   0.802   2.389 -0.1475 -0.1606  0.0757
 1755TIP3    H126900   0.400   0.880   2.409 -1.4828  1.7534 -3.0212
 1755TIP3    H226901   0.408   0.745   2.340  0.1549  0.1403  0.0921
 1756TIP3   OH226902   4.232   3.103   8.229 -0.3340 -0.2842 -0.7850
 1756TIP3    H126903   4.216   3.183   8.280 -0.8464  0.6683 -2.3483
 1756TIP3    H226904   4.270   3.042   8.292  0.6318  1.3748  0.3501
 1757TIP3   OH226905   5.454   5.135   2.268 -0.0584  0.4015 -0.4490
 1757TIP3    H126906   5.513   5.060   2.283  1.0914  1.3510 -0.0219
 1757TIP3    H226907   5.493   5.206   2.320 -0.9431  1.3798 -1.0942
 1758TIP3   OH226908   2.315   2.316   1.445 -0.3344 -0.5452  0.3460
 1758TIP3    H126909   2.364   2.241   1.479  0.6905  0.5216  1.3179
 1758TIP3    H226910   2.236   2.320   1.499  0.3658 -0.0145  1.3741
 1759TIP3   OH226911   1.109   0.402   1.772 -0.0406 -0.2187  0.0690
 1759TIP3    H126912   1.086   0.391   1.679 -1.4202 -0.3082  0.4020
 1759TIP3    H226913   1.035   0.448   1.810  0.3517 -0.4994  1.2134
 1760TIP3   OH226914   1.306   1.022   2.159  0.5982 -0.2649  0.1260
 1760TIP3    H126915   1.312   1.106   2.113  0.4526 -0.3007  0.0408
 1760TIP3    H226916   1.317   0.956   2.090 -1.3322 -0.3554 -0.1583
 1761TIP3   OH226917   3.375   0.993   3.119  0.3096 -0.6000  0.5998
 1761TIP3    H126918   3.333   0.915   3.083 -1.4689 -0.3478  1.9266
 1761TIP3    H226919   3.309   1.062   3.110  0.4535 -0.1172  2.6083
 1762TIP3   OH226920   0.234   3.712   0.057 -0.1613  0.1906  0.2121
 1762TIP3    H126921   0.244   3.796   0.101  0.2197  0.0376  0.4266
 1762TIP3    H226922   0.223   3.734  -0.035  2.4475  0.3869 -0.1051
 1763TIP3   OH226923   6.148   0.895   2.117 -0.1824  0.1453  0.3386
 1763TIP3    H126924   6.122   0.937   2.199 -0.4539  0.4769  0.0880
 1763TIP3    H226925   6.242   0.879   2.127 -0.1313  0.5550  0.5581
 1764TIP3   OH226926   5.002   5.349   7.718  0.4036 -0.5414  0.3785
 1764TIP3    H126927   5.046   5.369   7.800 -1.5272 -0.1783  1.3896
 1764TIP3    H226928   5.050   5.274   7.682  2.3970  0.4274  0.8825
 1765TIP3   OH226929   4.216   3.588   0.947  0.3497 -0.1340 -0.0494
 1765TIP3    H126930   4.279   3.546   1.006  1.1715  0.3227 -0.5818
 1765TIP3    H226931   4.132   3.583   0.994  0.9031 -0.1427  0.9725
 1766TIP3   OH226932   4.558   0.340   8.000  0.4908  0.1891 -0.2213
 1766TIP3    H126933   4.489   0.391   7.958 -0.6191 -2.0398 -1.3036
 1766TIP3    H226934   4.589   0.281   7.930  0.6245 -1.6203  1.2819
 1767TIP3   OH226935   3.859   0.020   0.411 -0.0359  0.6339 -0.8082
 1767TIP3    H126936   3.917   0.083   0.455 -1.5773  1.3700  0.2795
 1767TIP3    H226937   3.798  -0.007   0.479 -0.9460 -0.1438 -1.9047
 1768TIP3   OH226938   4.873   3.824   7.465  0.7536  0.3039 -0.2954
 1768TIP3    H126939   4.782   3.837   7.493  1.1934  0.9982  0.9056
 1768TIP3    H226940   4.869   3.829   7.370 -0.6158 -0.7659 -0.3342
 1769TIP3   OH226941   0.395   5.831   7.258  0.4185 -1.0009  0.0395
 1769TIP3    H126942   0.410   5.773   7.184  0.3147  0.6730 -1.3560
 1769TIP3    H226943   0.481   5.844   7.297  1.1093  0.6193 -1.8085
 1770TIP3   OH226944   0.996   0.424   8.512  0.0698  0.3870 -0.6633
 1770TIP3    H126945   0.907   0.437   8.545 -0.1213 -0.3441 -0.8757
 1770TIP3    H226946   1.052   0.472   8.574 -0.3662 -0.1769  0.1788
 1771TIP3   OH226947   6.080   1.794   1.348 -0.1279  0.8807  0.1324
 1771TIP3    H126948   5.997   1.832   1.323 -1.0261 -1.0945 -0.0631
 1771TIP3    H226949   6.070   1.700   1.331  1.3937  0.2991  2.0483
 1772TIP3   OH226950   1.806   6.645   8.147 -0.3586 -0.3749  0.2615
 1772TIP3    H126951   1.794   6.702   8.072  0.0213 -1.5465 -0.7253
 1772TIP3    H226952   1.717   6.627   8.179 -0.6607 -1.2325 -0.9900
 1773TIP3   OH226953   5.417   3.861   7.941 -0.0263 -0.2976 -0.1095
 1773TIP3    H126954   5.454   3.925   7.880 -0.5368  0.5123  0.4100
 1773TIP3    H226955   5.488   3.798   7.956  0.5231  0.2096 -0.5395
 1774TIP3   OH226956   0.605   5.758   2.356 -0.2184  0.3443  0.4505
 1774TIP3    H126957   0.647   5.841   2.330 -0.0288 -0.2785 -1.3759
 1774TIP3    H226958   0.665   5.721   2.421 -0.2476  1.5754  1.2143
 1775TIP3   OH226959   2.645   3.639   2.524  0.6383  0.6032 -0.3368
 1775TIP3    H126960   2.581   3.632   2.453  2.1339 -0.6587 -1.6519
 1775TIP3    H226961   2.616   3.714   2.575 -2.0702 -0.1430 -0.6416
 1776TIP3   OH226962   6.466   6.283   8.542  0.3254 -0.1145 -0.0435
 1776TIP3    H126963   6.550   6.283   8.587  0.3508  0.5971 -0.0738
 1776TIP3    H226964   6.401   6.283   8.612  0.3583 -0.0283 -0.0131
 1777TIP3   OH226965   0.583   0.991   1.814 -0.1959  0.1945 -0.7385
 1777TIP3    H126966   0.611   1.074   1.775 -2.4026  1.7120  0.7005
 1777TIP3    H226967   0.664   0.947   1.837  1.0562  1.5507 -2.2855
 1778TIP3   OH226968   2.774   0.131   7.548  0.0483  0.2763  0.1689
 1778TIP3    H126969   2.694   0.176   7.523 -0.8566 -0.7454  1.1303
 1778TIP3    H226970   2.844   0.192   7.525 -1.1492  2.7133  2.4800
 1779TIP3   OH226971   2.790   3.453   1.283  0.0175 -0.0360  0.5682
 1779TIP3    H126972   2.740   3.503   1.219  1.2410  0.0943 -0.3065
 1779TIP3    H226973   2.881   3.473   1.264  0.4507 -1.0108  1.5219
 1780TIP3   OH226974   6.290   6.432   3.099  0.0267 -0.5236  0.2568
 1780TIP3    H126975   6.244   6.354   3.068 -0.5828  0.1355 -0.5541
 1780TIP3    H226976   6.243   6.505   3.059  1.1181  0.2279  0.2880
 1781TIP3   OH226977   5.328   5.458   0.952 -0.0726  0.0313  1.0546
 1781TIP3    H126978   5.281   5.458   0.869 -1.2073 -0.1202  1.6820
 1781TIP3    H226979   5.374   5.373   0.954  0.0141  0.0675  0.5581
 1782TIP3   OH226980   4.737   3.869   0.738  0.5620  0.0775  0.0505
 1782TIP3    H126981   4.679   3.912   0.676  1.2102 -1.1293 -1.4542
 1782TIP3    H226982   4.825   3.889   0.706  0.9519  0.3229  1.2191
 1783TIP3   OH226983   3.779   1.936   2.084 -0.1458 -0.0433  0.3038
 1783TIP3    H126984   3.868   1.961   2.107 -0.4987 -1.1045  3.3158
 1783TIP3    H226985   3.729   2.017   2.088  0.7552  0.7181 -2.2909
 1784TIP3   OH226986   5.023   6.795   0.707 -0.2423  0.1096 -0.3685
 1784TIP3    H126987   5.067   6.734   0.767 -1.3017 -0.8768 -0.5824
 1784TIP3    H226988   5.005   6.744   0.628 -0.3543  0.9452 -0.9021
 1785TIP3   OH226989   3.776   0.700   0.539  0.3294 -0.0702  0.2514
 1785TIP3    H126990   3.756   0.619   0.586 -2.1762  0.4158  0.1688
 1785TIP3    H226991   3.716   0.700   0.464  1.3387  1.1573 -0.5995
 1786TIP3   OH226992   0.421   1.519   8.403 -0.2222  0.2897  0.0760
 1786TIP3    H126993   0.362   1.484   8.337  0.7183 -1.1801 -0.0251
 1786TIP3    H226994   0.478   1.446   8.425  0.6462  1.2737  1.2029
 1787TIP3   OH226995   1.986   0.303   2.276 -0.2484  0.1024  0.0954
 1787TIP3    H126996   2.081   0.308   2.284 -0.1176  0.2487 -1.2667
 1787TIP3    H226997   1.972   0.243   2.202 -1.1971  0.3168  0.0956
 1788TIP3   OH226998   0.729   1.951   1.553  0.1326 -0.1026 -0.3645
 1788TIP3    H126999   0.685   2.029   1.518 -0.4919  1.1243  2.8055
 1788TIP3    H227000   0.820   1.978   1.563  0.0324  0.0510  0.1841
 1789TIP3   OH227001   4.358   1.205   1.073  0.5417  0.0567 -0.7791
 1789TIP3    H127002   4.341   1.251   0.991  1.5505  0.0449 -1.0124
 1789TIP3    H227003   4.271   1.188   1.110  0.0696  0.0093 -1.8742
 1790TIP3   OH227004   2.580   4.055   1.424  0.1991 -0.3251  0.0206
 1790TIP3    H127005   2.628   4.067   1.342  0.5996 -0.2074  0.2686
 1790TIP3    H227006   2.549   4.143   1.446 -0.8995 -0.5380 -0.5950
 1791TIP3   OH227007   1.259   3.717   1.491  0.1009  0.2609  0.2564
 1791TIP3    H127008   1.205   3.638   1.497  0.6539 -0.5097 -2.9706
 1791TIP3    H227009   1.197   3.788   1.477 -0.2562 -0.4000 -1.8871
 1792TIP3   OH227010   2.858   1.247   0.657  0.2253  0.0010  0.0646
 1792TIP3    H127011   2.936   1.193   0.645 -1.5810 -2.5805 -1.1511
 1792TIP3    H227012   2.815   1.209   0.733  0.0705  1.3347  0.6647
 1793TIP3   OH227013   4.988   1.622   2.903  0.6808 -0.3111 -0.2620
 1793TIP3    H127014   5.022   1.667   2.980 -0.9250  1.0955 -0.3145
 1793TIP3    H227015   4.893   1.628   2.912  0.3851 -2.9334 -0.7596
 1794TIP3   OH227016   4.803   1.193   8.151 -0.1082  0.0420 -0.0268
 1794TIP3    H127017   4.826   1.115   8.201 -0.1366 -0.6615 -1.0813
 1794TIP3    H227018   4.866   1.196   8.080 -0.4813  0.6486 -0.3429
 1795TIP3   OH227019   0.965   3.848   7.975  0.3516  0.1333  0.3238
 1795TIP3    H127020   0.935   3.770   8.021  0.3882 -0.4554 -0.6163
 1795TIP3    H227021   0.888   3.905   7.969 -0.6174 -1.2880 -1.9327
 1796TIP3   OH227022   1.383   4.103   1.739  0.0086  0.2634  0.0556
 1796TIP3    H127023   1.450   4.110   1.807  0.1876  0.8426 -0.1729
 1796TIP3    H227024   1.302   4.133   1.782 -0.0021  0.0477  0.1866
 1797TIP3   OH227025   3.775   6.619   8.140  0.7625  0.4383 -0.2665
 1797TIP3    H127026   3.773   6.684   8.210  3.8605  0.5296 -0.1446
 1797TIP3    H227027   3.751   6.667   8.061 -0.1189  0.9541  0.2994
 1798TIP3   OH227028   0.461   6.714   1.970 -0.0696  0.9024 -0.0756
 1798TIP3    H127029   0.368   6.733   1.982  0.0374  1.0254  0.6303
 1798TIP3    H227030   0.481   6.650   2.038  0.4287  1.1124 -0.0189
 1799TIP3   OH227031   6.579   6.450   2.246  0.3676 -0.1971  0.1044
 1799TIP3    H127032   6.489   6.454   2.278  0.9800 -1.7030  2.3324
 1799TIP3    H227033   6.588   6.360   2.213  1.4926 -0.7172  1.6684
 1800TIP3   OH227034   2.534   0.028   1.157 -0.4775  0.3764 -0.5298
 1800TIP3    H127035   2.486   0.027   1.074  0.5275 -0.4338 -1.1271
 1800TIP3    H227036   2.625   0.013   1.132 -0.1646  0.0736  0.7243
 1801TIP3   OH227037   0.099   4.320   8.396  0.7026  0.2118 -0.1746
 1801TIP3    H127038   0.138   4.276   8.472  0.0882  1.5252  0.9545
 1801TIP3    H227039   0.007   4.296   8.400  1.0694 -1.7717 -2.0373
 1802TIP3   OH227040   5.043   3.891   2.183 -0.1852 -0.6593 -0.4199
 1802TIP3    H127041   5.102   3.823   2.213 -0.4105 -0.7402 -0.1491
 1802TIP3    H227042   4.957   3.865   2.218 -0.0785  0.3383  0.6533
 1803TIP3   OH227043   0.847   5.457   8.550  0.4106 -0.1123 -0.2145
 1803TIP3    H127044   0.836   5.368   8.517 -0.8674  0.7285 -2.3064
 1803TIP3    H227045   0.926   5.489   8.507 -0.1486  0.3328 -0.9400
 1804TIP3   OH227046   5.120   2.309   0.030  0.4549  0.1493 -0.3910
 1804TIP3    H127047   5.190   2.371   0.048  1.0402 -0.9738  1.4566
 1804TIP3    H227048   5.046   2.340   0.082  0.9997 -1.0789  1.1905
 1805TIP3   OH227049   6.487   2.717   1.010  0.1683 -0.2841  0.0289
 1805TIP3    H127050   6.453   2.803   1.036 -0.0114 -0.3055 -0.1289
 1805TIP3    H227051   6.560   2.736   0.952 -0.4949 -0.2308 -0.8113
 1806TIP3   OH227052   2.944   1.648   0.452  0.4582  0.3511 -0.5424
 1806TIP3    H127053   3.001   1.625   0.525  0.4338  0.2103 -0.5678
 1806TIP3    H227054   2.906   1.732   0.477 -1.7683 -1.0000  0.9531
 1807TIP3   OH227055   6.393   5.761   8.282  0.3161  0.2905  0.6905
 1807TIP3    H127056   6.334   5.688   8.303 -1.3409  1.0351 -1.0980
 1807TIP3    H227057   6.418   5.797   8.368 -0.8879 -0.7908  1.5268
 1808TIP3   OH227058   0.724   4.908   1.735  1.2794 -0.4550  0.3627
 1808TIP3    H127059   0.674   4.856   1.672  1.5420 -1.2857  0.8172
 1808TIP3    H227060   0.663   4.926   1.806  2.1337 -3.4567  2.0433
 1809TIP3   OH227061   4.355   5.985   3.016 -0.0056 -0.3444  0.2438
 1809TIP3    H127062   4.433   5.949   2.974 -0.2384 -0.9877  0.3646
 1809TIP3    H227063   4.310   5.910   3.054 -1.7474 -0.2908 -1.5340
 1810TIP3   OH227064   1.144   4.010   0.810 -0.1567 -0.5375 -0.0325
 1810TIP3    H127065   1.142   3.927   0.858 -1.7375 -0.2001  0.5389
 1810TIP3    H227066   1.055   4.045   0.819  0.3148  0.9250 -0.7876
 1811TIP3   OH227067   4.030   3.636   8.585 -0.1770  0.0492  0.1688
 1811TIP3    H127068   3.987   3.552   8.570 -1.8582  1.0913 -1.1483
 1811TIP3    H227069   4.049   3.637   8.678 -2.1113 -0.9005  0.6212
 1812TIP3   OH227070   1.208   5.811   7.355 -0.3549 -0.5736  0.4968
 1812TIP3    H127071   1.263   5.889   7.359 -0.5482 -0.3913 -0.3321
 1812TIP3    H227072   1.265   5.743   7.318 -0.5619 -0.4882  0.0135
 1813TIP3   OH227073   6.644   3.080   1.609 -0.4362  0.2422 -0.1245
 1813TIP3    H127074   6.722   3.136   1.611 -1.1033  1.1931  0.0759
 1813TIP3    H227075   6.678   2.992   1.592  0.9036  0.2166  2.2750
 1814TIP3   OH227076   1.880   1.290   0.675  0.4047  0.0868  0.3885
 1814TIP3    H127077   1.881   1.204   0.718 -0.3219 -0.8799 -1.4065
 1814TIP3    H227078   1.873   1.270   0.582  2.2186  2.0797 -0.2618
 1815TIP3   OH227079   1.306   0.713   7.342 -0.1071  0.5751  0.2188
 1815TIP3    H127080   1.319   0.707   7.248 -0.1583  1.6360  0.1280
 1815TIP3    H227081   1.243   0.784   7.353 -0.9261 -0.2583  1.0026
 1816TIP3   OH227082   4.654   5.133   2.740  0.3232 -0.4235 -0.3440
 1816TIP3    H127083   4.579   5.193   2.741  0.4507 -0.2681  0.0070
 1816TIP3    H227084   4.654   5.092   2.826  1.9460  1.2269  0.5041
 1817TIP3   OH227085   4.098   0.734   1.945  0.0791 -0.1623 -0.3386
 1817TIP3    H127086   4.098   0.807   2.007 -0.7272 -0.5779  0.1675
 1817TIP3    H227087   4.018   0.686   1.965 -0.0487 -0.4666 -1.5251
 1818TIP3   OH227088   2.379   2.587   2.611 -0.4096 -0.8053  0.7501
 1818TIP3    H127089   2.467   2.611   2.583 -1.3104  1.6627 -0.2051
 1818TIP3    H227090   2.348   2.663   2.661 -2.3902 -1.1042  0.0846
 1819TIP3   OH227091   5.320   0.874   1.633 -0.3314 -0.3370  0.1094
 1819TIP3    H127092   5.273   0.790   1.626 -0.6670 -0.1281 -0.1417
 1819TIP3    H227093   5.401   0.852   1.680  0.3453 -1.1097 -1.3593
 1820TIP3   OH227094   3.096   1.727   8.351 -0.1123 -0.0293 -0.2095
 1820TIP3    H127095   3.176   1.724   8.299 -0.0336 -2.0562 -0.0264
 1820TIP3    H227096   3.100   1.649   8.406 -2.3406 -0.3010 -0.3570
 1821TIP3   OH227097   3.890   3.373   8.483 -0.1531 -0.2841  0.4786
 1821TIP3    H127098   3.938   3.346   8.561  0.4306  0.2477  0.3115
 1821TIP3    H227099   3.874   3.291   8.436 -1.4403 -0.7388  1.6565
 1822TIP3   OH227100   6.320   2.363   0.139 -0.2866 -0.4393  0.3445
 1822TIP3    H127101   6.384   2.379   0.069  1.1696 -1.2401  1.4206
 1822TIP3    H227102   6.341   2.430   0.205 -1.5570  0.2224  0.0997
 1823TIP3   OH227103   1.755   3.371   0.249  0.2943  0.1098  0.9086
 1823TIP3    H127104   1.693   3.432   0.211  0.7695 -0.6822 -1.2958
 1823TIP3    H227105   1.819   3.426   0.294 -0.4848  1.0864  0.8363
 1824TIP3   OH227106   5.319   4.063   2.416  0.1088 -0.1654 -0.2950
 1824TIP3    H127107   5.383   4.112   2.364  2.0328 -1.0023  1.1343
 1824TIP3    H227108   5.296   4.123   2.487  0.6990 -0.4736  0.1702
 1825TIP3   OH227109   5.059   3.108   7.610  0.1150 -0.1143  0.4838
 1825TIP3    H127110   5.016   3.062   7.682  0.0757 -0.3777  0.2927
 1825TIP3    H227111   5.020   3.196   7.612 -1.3701 -0.7136 -0.4769
 1826TIP3   OH227112   5.161   1.515   7.461  0.2037  0.6454  0.2697
 1826TIP3    H127113   5.143   1.541   7.371  0.7059  0.0735 -0.0036
 1826TIP3    H227114   5.184   1.423   7.455 -3.0527 -0.3808  1.4020
 1827TIP3   OH227115   4.189   5.817   2.747 -0.0595 -0.6063  0.4259
 1827TIP3    H127116   4.107   5.770   2.734  0.1704 -1.1780  1.0064
 1827TIP3    H227117   4.181   5.855   2.835 -0.3003  0.5633 -0.0840
 1828TIP3   OH227118   2.833   2.964   1.840  0.1250 -0.2154  0.3097
 1828TIP3    H127119   2.926   2.988   1.843  0.2220 -0.4816 -0.3601
 1828TIP3    H227120   2.808   2.975   1.749  0.1376 -2.4548 -0.0272
 1829TIP3   OH227121   6.324   5.833   3.066 -0.0910  0.5580 -1.0163
 1829TIP3    H127122   6.406   5.828   3.017 -0.4181  1.5606 -1.7060
 1829TIP3    H227123   6.351   5.845   3.157  0.5249 -1.0228 -0.9587
 1830TIP3   OH227124   2.548   6.591   8.430  0.4563 -0.1015 -0.0027
 1830TIP3    H127125   2.475   6.651   8.446  0.6707  0.3953 -0.8502
 1830TIP3    H227126   2.509   6.520   8.379  0.2944 -0.4782  0.6383
 1831TIP3   OH227127   1.313   4.604   2.209 -0.3238  0.1820  0.4970
 1831TIP3    H127128   1.342   4.526   2.162  1.1349  0.2936  1.1412
 1831TIP3    H227129   1.377   4.671   2.186 -0.5526  0.6989  1.3200
 1832TIP3   OH227130   0.202   3.689   8.025  0.3556 -0.2657 -0.3449
 1832TIP3    H127131   0.228   3.597   8.021 -1.6399 -0.9749  1.1857
 1832TIP3    H227132   0.175   3.711   7.936  2.3476 -0.6474 -1.0741
 1833TIP3   OH227133   1.011   1.433   6.778  0.2051 -0.1514  0.4012
 1833TIP3    H127134   1.098   1.450   6.740 -0.4337  2.2942 -0.1331
 1833TIP3    H227135   1.025   1.432   6.872  1.0535 -1.5407  0.2932
 1834TIP3   OH227136   2.492   1.312   8.514 -0.0909  0.2327 -0.8617
 1834TIP3    H127137   2.577   1.353   8.529 -0.0234 -0.5814  1.3847
 1834TIP3    H227138   2.433   1.354   8.577 -0.6156 -1.3027 -0.2795
 1835TIP3   OH227139   3.330   3.869   7.913  0.5379  0.7439  0.4118
 1835TIP3    H127140   3.314   3.953   7.869  0.4672  0.3898 -0.2369
 1835TIP3    H227141   3.269   3.870   7.987  0.2229  1.0736  0.1531
 1836TIP3   OH227142   6.388   5.365   1.788 -0.2904 -0.7853  0.0884
 1836TIP3    H127143   6.422   5.369   1.877  1.1091  1.5420 -0.4712
 1836TIP3    H227144   6.315   5.428   1.788 -1.0690 -1.6632 -0.1404
 1837TIP3   OH227145   6.194   2.086   2.103  0.3150 -0.1550  0.1683
 1837TIP3    H127146   6.123   2.028   2.129 -0.9397  0.9758 -0.5958
 1837TIP3    H227147   6.226   2.124   2.184  0.4038 -1.0560  0.5663
 1838TIP3   OH227148   3.217   2.276   8.527  0.0550 -0.6691  0.1255
 1838TIP3    H127149   3.125   2.284   8.501  0.1979  0.7714 -0.0414
 1838TIP3    H227150   3.223   2.324   8.610  0.3181 -2.2345  1.0413
 1839TIP3   OH227151   0.208   0.160   1.717  0.2727 -0.1663  0.1561
 1839TIP3    H127152   0.262   0.238   1.708 -0.5194  0.4863  0.9470
 1839TIP3    H227153   0.119   0.193   1.725 -0.1433 -1.1849 -0.1051
 1840TIP3   OH227154   2.122   0.641   2.471 -0.4908  0.0520  0.8580
 1840TIP3    H127155   2.214   0.649   2.493 -0.2075  1.0710 -0.5356
 1840TIP3    H227156   2.105   0.716   2.413 -1.7009 -1.1805 -0.4487
 1841TIP3   OH227157   1.436   0.921   2.361 -0.3343 -0.2412  0.2447
 1841TIP3    H127158   1.508   0.982   2.379  0.2969 -0.1066 -2.3214
 1841TIP3    H227159   1.386   0.963   2.292  1.4565 -3.4320 -3.3665
 1842TIP3   OH227160   0.672   1.014   2.242  0.6465 -0.0650  0.3435
 1842TIP3    H127161   0.673   1.047   2.332  2.9311  1.2084 -0.0799
 1842TIP3    H227162   0.739   0.945   2.240 -0.0772 -0.7719 -0.1588
 1843TIP3   OH227163   1.601   3.417   2.686  0.4255  0.3746 -0.0566
 1843TIP3    H127164   1.524   3.444   2.736  0.4741 -0.0763  0.2658
 1843TIP3    H227165   1.664   3.488   2.699  0.3708  0.3454  0.3726
 1844TIP3   OH227166   4.976   5.796   0.111 -0.6347  0.0243 -0.0626
 1844TIP3    H127167   4.997   5.786   0.018 -2.2583 -0.9189 -0.3752
 1844TIP3    H227168   5.023   5.725   0.154 -0.3980  0.0616 -0.2549
 1845TIP3   OH227169   4.795   3.299   7.248 -0.2921 -0.4859 -0.2552
 1845TIP3    H127170   4.814   3.266   7.160  1.1892 -2.0936  0.6094
 1845TIP3    H227171   4.855   3.373   7.260  0.1974 -0.8779 -0.2589
 1846TIP3   OH227172   3.006   3.947   1.692 -0.3824 -0.8939  0.6998
 1846TIP3    H127173   2.975   4.034   1.666 -0.0761 -1.5613 -2.3130
 1846TIP3    H227174   3.082   3.964   1.747 -1.4962  0.7001  1.8342
 1847TIP3   OH227175   3.283   0.650   1.604  0.1340  0.3492 -0.2882
 1847TIP3    H127176   3.286   0.586   1.676  0.0581  1.2500  0.5378
 1847TIP3    H227177   3.305   0.733   1.646  0.3385  0.8531 -1.3706
 1848TIP3   OH227178   1.147   4.964   7.959  0.8775  0.1663 -0.4989
 1848TIP3    H127179   1.168   4.907   8.033  0.5705  0.4138 -0.2152
 1848TIP3    H227180   1.082   4.915   7.909  0.3308  0.4163 -0.0491
 1849TIP3   OH227181   2.848   2.243   7.536 -0.2636  0.0780 -0.0179
 1849TIP3    H127182   2.808   2.185   7.601 -1.6774 -0.0679 -0.9672
 1849TIP3    H227183   2.840   2.196   7.453  0.6671  0.6548 -0.4594
 1850TIP3   OH227184   2.178   0.567   1.320  0.1768 -0.4131 -0.2033
 1850TIP3    H127185   2.148   0.508   1.252 -0.6671 -0.6617  0.3645
 1850TIP3    H227186   2.254   0.611   1.283  0.0191 -0.8992 -1.1129
 1851TIP3   OH227187   5.978   1.275   6.628  0.0671 -0.2310  0.5705
 1851TIP3    H127188   5.885   1.254   6.619  0.8317 -4.3648  0.3855
 1851TIP3    H227189   5.990   1.291   6.722 -1.0723  2.5259  0.3392
 1852TIP3   OH227190   4.897   0.942   7.125  0.2022  0.0350 -0.4203
 1852TIP3    H127191   4.984   0.953   7.163 -0.8460  0.4606  2.0525
 1852TIP3    H227192   4.878   0.849   7.134 -0.7752  0.4007  2.0083
 1853TIP3   OH227193   4.631   0.733   6.945 -0.3944  0.3490 -0.4526
 1853TIP3    H127194   4.570   0.796   6.984  0.8944  0.6900  1.1165
 1853TIP3    H227195   4.613   0.651   6.990 -0.3736  0.2054 -0.7045
 1854TIP3   OH227196   5.430   3.976   0.055 -0.0505 -0.1711 -0.1535
 1854TIP3    H127197   5.407   3.927   0.134  1.7061 -0.7071  0.0512
 1854TIP3    H227198   5.518   4.009   0.071 -0.1253  0.7306 -1.4164
 1855TIP3   OH227199   2.020   1.746   0.840 -0.6914  0.1495  0.1154
 1855TIP3    H127200   2.011   1.829   0.793 -1.6730 -0.7446 -1.3537
 1855TIP3    H227201   1.954   1.689   0.801  2.1528 -2.4228 -1.3099
 1856TIP3   OH227202   4.543   5.799   7.367 -0.1081 -0.0817 -0.4834
 1856TIP3    H127203   4.512   5.725   7.315  0.1324 -1.4689  1.2604
 1856TIP3    H227204   4.633   5.813   7.336 -0.6865  0.6301 -1.9756
 1857TIP3   OH227205   2.729   6.747   1.850  0.0233  0.0347 -0.2439
 1857TIP3    H127206   2.766   6.795   1.924  1.4429 -0.8406 -0.3310
 1857TIP3    H227207   2.739   6.806   1.775 -1.8121  1.0959  0.2838
 1858TIP3   OH227208   0.412   5.614   7.094 -0.0182  0.2238 -0.0365
 1858TIP3    H127209   0.329   5.569   7.109  0.2509 -0.0754  0.5716
 1858TIP3    H227210   0.471   5.545   7.063  0.3756  0.1661  0.8277
 1859TIP3   OH227211   3.018   1.760   7.574  0.0858  0.4410 -0.7569
 1859TIP3    H127212   2.996   1.770   7.667  0.4633 -1.8439 -0.3569
 1859TIP3    H227213   3.087   1.825   7.558 -0.6457  1.5177  0.2851
 1860TIP3   OH227214   6.684   0.311   0.550 -0.1818  0.1419  0.1385
 1860TIP3    H127215   6.717   0.399   0.533  0.0942 -0.1075 -0.6698
 1860TIP3    H227216   6.642   0.285   0.468 -0.6884 -0.2978  0.5269
 1861TIP3   OH227217   2.982   3.806   1.063 -0.3825 -0.4711  0.0165
 1861TIP3    H127218   2.946   3.861   0.992 -1.2920 -0.0674  0.7710
 1861TIP3    H227219   2.906   3.781   1.114  0.4663  1.4641  2.4252
 1862TIP3   OH227220   1.989   4.019   6.970  0.2937  0.2288 -0.3242
 1862TIP3    H127221   1.961   4.110   6.972  0.7942  0.3949 -0.6020
 1862TIP3    H227222   2.084   4.023   6.974  0.3614 -0.2443 -1.1910
 1863TIP3   OH227223   3.515   1.162   7.569 -0.0025 -0.4519 -0.1477
 1863TIP3    H127224   3.534   1.216   7.646 -2.6675  0.1650  0.1865
 1863TIP3    H227225   3.436   1.201   7.531  1.2269 -0.6970 -3.2927
 1864TIP3   OH227226   4.089   0.922   2.157  0.3146 -0.1016 -0.5340
 1864TIP3    H127227   3.995   0.942   2.150 -0.2316 -0.5490  3.4639
 1864TIP3    H227228   4.119   0.975   2.230  2.5846 -1.8949 -0.0789
 1865TIP3   OH227229   2.840   4.134   1.109  0.2923  0.4515 -0.1642
 1865TIP3    H127230   2.887   4.083   1.043 -0.2773 -1.4977  0.8497
 1865TIP3    H227231   2.897   4.132   1.186 -0.9233 -1.0671  0.7484
 1866TIP3   OH227232   5.129   4.875   1.965  0.7795 -0.0802 -0.4582
 1866TIP3    H127233   5.074   4.803   1.935 -0.1088  0.0994  0.6603
 1866TIP3    H227234   5.218   4.843   1.955  0.4365 -0.8350 -1.1939
 1867TIP3   OH227235   2.529   3.784   2.737  0.3142  0.5483 -0.0375
 1867TIP3    H127236   2.524   3.821   2.825 -2.0697  0.2387  0.0141
 1867TIP3    H227237   2.440   3.753   2.719  1.1919 -1.1333 -1.8054
 1868TIP3   OH227238   6.226   6.592   8.353 -0.1059  0.7592  0.4784
 1868TIP3    H127239   6.259   6.545   8.277  0.3811  0.9505  0.5707
 1868TIP3    H227240   6.135   6.565   8.360  0.2746 -0.4855  0.7681
 1869TIP3   OH227241   1.567   2.490   7.230  0.4331 -0.1106 -0.1071
 1869TIP3    H127242   1.552   2.518   7.320 -0.8354  2.6896 -1.0441
 1869TIP3    H227243   1.483   2.454   7.202  0.8646 -1.1038 -0.1431
 1870TIP3   OH227244   2.735   5.713   1.321  0.6090  0.3992  0.0146
 1870TIP3    H127245   2.806   5.708   1.258  1.4828  0.7248  0.9572
 1870TIP3    H227246   2.666   5.657   1.284  0.0331  2.5695 -2.5127
 1871TIP3   OH227247   0.532   6.161   8.105  0.4763 -0.5155  0.0516
 1871TIP3    H127248   0.547   6.130   8.015 -2.2253  1.6820 -1.3194
 1871TIP3    H227249   0.598   6.229   8.117  0.3129 -0.2230 -0.6348
 1872TIP3   OH227250   2.255   4.182   1.739 -0.6317  0.0819  0.1931
 1872TIP3    H127251   2.339   4.181   1.785 -0.5678 -1.7689  0.1058
 1872TIP3    H227252   2.208   4.257   1.776  1.0330  1.1833  0.2274
 1873TIP3   OH227253   4.976   4.424   0.106  0.0432  0.1185  0.1058
 1873TIP3    H127254   5.066   4.455   0.122 -0.3014  0.5915  1.2359
 1873TIP3    H227255   4.943   4.481   0.037  1.0007 -0.8418 -1.1939
 1874TIP3   OH227256   5.740   1.222   2.308 -0.3287 -0.2050  0.0799
 1874TIP3    H127257   5.730   1.317   2.319  2.0597  0.4006 -1.9988
 1874TIP3    H227258   5.668   1.185   2.358 -0.6940  2.6467  1.9436
 1875TIP3   OH227259   5.200   3.330   7.156 -0.1822 -0.6596  0.1972
 1875TIP3    H127260   5.224   3.258   7.214  0.3655  0.9187  2.0253
 1875TIP3    H227261   5.108   3.316   7.135 -0.0003 -2.0286  0.2768
 1876TIP3   OH227262   2.263   5.338   7.642 -0.2463  0.3843  0.2552
 1876TIP3    H127263   2.276   5.361   7.733 -0.4693  1.0240  0.1331
 1876TIP3    H227264   2.285   5.417   7.593 -1.9951  0.6971 -0.1128
 1877TIP3   OH227265   1.924   2.408   0.343  0.2380  0.2115  0.1785
 1877TIP3    H127266   1.872   2.431   0.419 -1.4494  0.0843 -0.8855
 1877TIP3    H227267   2.010   2.385   0.378 -0.1198  1.3420  1.9002
 1878TIP3   OH227268   6.489   1.572   2.325  0.5787  0.0734 -0.6258
 1878TIP3    H127269   6.428   1.633   2.367  0.8340 -0.5894  0.7779
 1878TIP3    H227270   6.570   1.622   2.314  0.9354 -0.1128  0.9518
 1879TIP3   OH227271   5.691   3.976   2.121  0.0606  0.4332  0.2012
 1879TIP3    H127272   5.713   3.981   2.028  0.9144 -3.2518  0.0620
 1879TIP3    H227273   5.776   3.983   2.165 -0.1254  0.2096  0.5958
 1880TIP3   OH227274   2.455   2.042   2.748  0.4203  0.2133 -0.1414
 1880TIP3    H127275   2.415   1.956   2.760 -1.4551  0.7518 -1.9300
 1880TIP3    H227276   2.438   2.088   2.831 -0.2612 -0.5089  0.1285
 1881TIP3   OH227277   2.730   0.118   1.913 -0.4216  0.0832 -0.5807
 1881TIP3    H127278   2.764   0.086   1.997 -0.3338  0.0614 -0.6244
 1881TIP3    H227279   2.723   0.213   1.925 -1.3779 -0.0254 -0.2013
 1882TIP3   OH227280   5.424   3.733   1.431 -0.1769  0.1367 -0.0537
 1882TIP3    H127281   5.442   3.677   1.507 -0.2488  0.3546  0.1228
 1882TIP3    H227282   5.369   3.803   1.465  0.9050  0.9949 -0.0026
 1883TIP3   OH227283   4.857   2.161   7.786  0.3951  0.7091 -0.1326
 1883TIP3    H127284   4.926   2.117   7.736 -0.0793  1.4066 -1.4434
 1883TIP3    H227285   4.781   2.103   7.779  0.1066  1.1667 -0.8857
 1884TIP3   OH227286   2.585   1.749   1.587  0.1275  0.0924  0.2034
 1884TIP3    H127287   2.615   1.673   1.539  0.7346  1.6657 -2.0788
 1884TIP3    H227288   2.491   1.735   1.598 -0.1329 -0.1626 -1.9004
 1885TIP3   OH227289   6.494   5.867   7.917 -0.0893  0.5279 -0.4039
 1885TIP3    H127290   6.553   5.821   7.977 -0.0068  1.6829  0.4300
 1885TIP3    H227291   6.477   5.952   7.959 -2.6216  0.1268 -0.4472
 1886TIP3   OH227292   5.750   6.616   2.178  0.0282  0.0071 -0.6375
 1886TIP3    H127293   5.662   6.644   2.151 -0.3455  1.4091  1.7454
 1886TIP3    H227294   5.794   6.697   2.202  0.8338 -0.9490  1.3124
 1887TIP3   OH227295   0.955   3.988   1.903 -0.1084  0.3921  0.0878
 1887TIP3    H127296   0.977   3.966   1.993 -1.6385 -1.1541  0.1310
 1887TIP3    H227297   1.006   4.066   1.884  3.1064 -1.3291  1.0551
 1888TIP3   OH227298   1.191   0.807   6.806  0.3076  0.1325  0.1902
 1888TIP3    H127299   1.121   0.817   6.870  0.2053 -1.0707  0.2850
 1888TIP3    H227300   1.145   0.788   6.724  0.4802  0.5767 -0.0114
 1889TIP3   OH227301   3.557   0.249   1.805 -0.0032  0.3132 -0.8525
 1889TIP3    H127302   3.504   0.325   1.829  0.3439  0.4613 -0.5363
 1889TIP3    H227303   3.511   0.209   1.731 -0.6896  0.2976 -0.4266
 1890TIP3   OH227304   3.537   0.699   2.395  0.3992  0.1244  0.2592
 1890TIP3    H127305   3.495   0.782   2.372 -1.3531 -0.5259  0.9134
 1890TIP3    H227306   3.591   0.719   2.471  2.3982  1.2480 -1.3408
 1891TIP3   OH227307   1.310   2.484   2.040 -0.5994 -0.2631  0.2966
 1891TIP3    H127308   1.387   2.530   2.006 -0.7144  0.5787  1.1366
 1891TIP3    H227309   1.337   2.392   2.046  0.4738  0.0820  0.9509
 1892TIP3   OH227310   0.386   3.463   1.104  0.0573 -0.0294 -0.1065
 1892TIP3    H127311   0.465   3.500   1.142 -0.0032 -0.6920  0.6760
 1892TIP3    H227312   0.366   3.386   1.157 -1.6369  0.6355  0.2947
 1893TIP3   OH227313   5.033   4.432   2.389 -0.2287  0.6148  0.0312
 1893TIP3    H127314   5.001   4.357   2.338  0.7449 -0.9908  1.6195
 1893TIP3    H227315   5.121   4.447   2.356  0.6362 -0.8230  1.5169
 1894TIP3   OH227316   3.633   3.487   0.601  0.4200  0.0565 -0.0595
 1894TIP3    H127317   3.601   3.553   0.662 -3.3885 -1.3101 -0.3081
 1894TIP3    H227318   3.586   3.505   0.519 -0.0716 -2.3295 -0.3894
 1895TIP3   OH227319   5.513   0.961   0.561 -0.0280  0.3698  0.0928
 1895TIP3    H127320   5.604   0.975   0.590  0.3197  0.1726 -0.8819
 1895TIP3    H227321   5.505   1.013   0.482 -1.5248  2.3703  1.4670
 1896TIP3   OH227322   1.435   6.285   7.216 -0.4047 -0.0258 -0.4434
 1896TIP3    H127323   1.415   6.334   7.296  0.5407  0.4347 -0.4719
 1896TIP3    H227324   1.480   6.348   7.160 -0.0672 -0.6477 -0.8860
 1897TIP3   OH227325   1.734   3.195   2.517  0.7555  0.0513 -0.6044
 1897TIP3    H127326   1.700   3.270   2.566 -1.1812 -0.8407 -0.4910
 1897TIP3    H227327   1.686   3.120   2.552  2.8827 -1.3321 -0.4673
 1898TIP3   OH227328   4.071   6.675   0.183 -0.3238 -0.9599  0.2736
 1898TIP3    H127329   4.065   6.580   0.194  0.0819 -1.3835 -2.4364
 1898TIP3    H227330   4.148   6.688   0.128 -1.5260  0.7248 -1.1361
 1899TIP3   OH227331   6.329   6.027   2.213 -0.0949 -0.0732  0.8181
 1899TIP3    H127332   6.402   6.016   2.273  1.2245 -2.4592 -1.0615
 1899TIP3    H227333   6.302   5.938   2.190 -2.0780  0.7446 -0.3415
 1900TIP3   OH227334   6.540   4.972   6.756  0.2602  0.0240 -0.4556
 1900TIP3    H127335   6.474   4.934   6.814 -0.6902 -0.0063 -1.5195
 1900TIP3    H227336   6.593   5.027   6.814 -0.8868  0.2865  0.3950
 1901TIP3   OH227337   3.835   5.832   0.735 -0.2232  0.2691  0.3451
 1901TIP3    H127338   3.869   5.912   0.695  0.7293 -0.4211 -0.2806
 1901TIP3    H227339   3.772   5.862   0.800  0.1892  1.5261  0.1890
 1902TIP3   OH227340   0.114   4.714   6.665 -0.0829 -0.2281 -0.1330
 1902TIP3    H127341   0.209   4.710   6.670 -0.1867 -1.4956  1.8708
 1902TIP3    H227342   0.089   4.640   6.609  0.1037  0.4294 -1.1108
 1903TIP3   OH227343   2.606   6.861   8.214  0.5215  0.1403  0.2042
 1903TIP3    H127344   2.520   6.823   8.196  0.8378 -0.4562 -0.0588
 1903TIP3    H227345   2.668   6.789   8.201  0.9535  0.2358  1.5991
 1904TIP3   OH227346   4.465   5.004   2.530 -0.9273  0.2810  0.0650
 1904TIP3    H127347   4.492   5.006   2.622 -0.2244 -0.4753 -0.1132
 1904TIP3    H227348   4.369   5.001   2.533 -0.9123 -2.5614  0.8912
 1905TIP3   OH227349   4.278   5.529   1.378 -0.1137  0.2576  0.1381
 1905TIP3    H127350   4.345   5.464   1.356 -0.9963 -0.9591  0.9102
 1905TIP3    H227351   4.291   5.546   1.472  0.6487  1.8784 -0.2254
 1906TIP3   OH227352   4.467   5.499   0.402 -0.5534 -0.2674  0.7834
 1906TIP3    H127353   4.445   5.529   0.314 -2.6106 -1.2668  0.9122
 1906TIP3    H227354   4.465   5.578   0.456 -1.0157  0.0897  0.2540
 1907TIP3   OH227355   5.985   5.420   7.803 -0.0621  0.8131  0.1511
 1907TIP3    H127356   5.941   5.503   7.823  0.4704  1.1934 -0.2276
 1907TIP3    H227357   5.932   5.381   7.733 -1.2740  0.0194  1.4466
 1908TIP3   OH227358   4.445   2.707   0.156 -0.2047  0.7894  0.2454
 1908TIP3    H127359   4.374   2.642   0.157 -0.5210  1.1329  1.1606
 1908TIP3    H227360   4.428   2.759   0.077 -1.4782  1.4072  0.8897
 1909TIP3   OH227361   5.976   1.920   2.205  0.2036 -0.0296 -0.1116
 1909TIP3    H127362   5.981   1.901   2.298  0.9383  1.8960  0.2831
 1909TIP3    H227363   5.934   2.005   2.199 -1.4494 -0.8668 -1.6785
 1910TIP3   OH227364   6.289   4.743   0.232  0.0780 -0.0839  0.3615
 1910TIP3    H127365   6.376   4.734   0.191  0.1996 -0.6101  0.7185
 1910TIP3    H227366   6.261   4.653   0.247 -1.0714  0.0426 -0.8554
 1911TIP3   OH227367   1.519   2.029   2.268  0.1193  0.0231 -0.5307
 1911TIP3    H127368   1.515   2.003   2.360  1.8730 -0.2559 -0.5003
 1911TIP3    H227369   1.550   1.951   2.222 -0.9492  0.0902 -1.4053
 1912TIP3   OH227370   2.297   4.699   1.923  0.6091  0.5400 -0.0999
 1912TIP3    H127371   2.224   4.735   1.973 -0.7476 -1.6852 -0.3779
 1912TIP3    H227372   2.364   4.768   1.926 -1.2823  2.4580  0.5586
 1913TIP3   OH227373   2.829   0.746   0.825  1.1032 -0.0673 -0.2417
 1913TIP3    H127374   2.899   0.778   0.767  0.7612  0.7389 -0.2174
 1913TIP3    H227375   2.753   0.799   0.803  0.6728 -0.4915  0.1988
 1914TIP3   OH227376   1.233   0.857   1.661  0.1656 -0.0419 -0.1312
 1914TIP3    H127377   1.219   0.939   1.612 -2.1534  0.4095  1.1463
 1914TIP3    H227378   1.156   0.804   1.640  0.4715 -0.9212  0.9102
 1915TIP3   OH227379   1.269   6.631   6.844  0.0784 -0.6568 -0.3998
 1915TIP3    H127380   1.217   6.686   6.785 -0.9055 -0.9845  0.1469
 1915TIP3    H227381   1.214   6.555   6.861  0.1104 -0.3259  1.3581
 1916TIP3   OH227382   2.208   0.297   8.542  0.5579 -0.0501  0.1445
 1916TIP3    H127383   2.153   0.273   8.468 -0.4162 -1.7289  1.3541
 1916TIP3    H227384   2.157   0.362   8.590  0.2167 -0.6018  0.5324
 1917TIP3   OH227385   3.119   5.197   1.247 -0.3819 -0.5342 -0.4739
 1917TIP3    H127386   3.129   5.290   1.228 -0.1729 -0.6453 -0.9381
 1917TIP3    H227387   3.187   5.155   1.194 -0.6569 -0.9736 -0.4837
 1918TIP3   OH227388   3.075   1.747   2.499 -0.0564 -0.1616  0.4866
 1918TIP3    H127389   3.067   1.800   2.579 -1.6429  1.1822 -0.4864
 1918TIP3    H227390   3.153   1.694   2.513 -1.9129 -2.3236  4.2545
 1919TIP3   OH227391   4.518   6.255   2.044  0.4062 -0.1594 -0.2585
 1919TIP3    H127392   4.516   6.309   1.964  0.2658 -2.0689 -1.6097
 1919TIP3    H227393   4.592   6.196   2.031  1.3625  0.5027  1.7742
 1920TIP3   OH227394   4.107   2.358   1.814 -0.1735 -0.4028 -0.9587
 1920TIP3    H127395   4.168   2.431   1.801 -0.5117  0.3700  1.2470
 1920TIP3    H227396   4.025   2.387   1.775 -0.1939  0.2556 -0.4430
 1921TIP3   OH227397   4.875   2.539   7.271  0.4332  0.0270  0.7783
 1921TIP3    H127398   4.957   2.491   7.285  0.4814  0.3728  1.7974
 1921TIP3    H227399   4.898   2.610   7.212  0.5710 -0.6494  0.0049
 1922TIP3   OH227400   6.260   2.410   1.703 -0.0964  0.1807 -0.2435
 1922TIP3    H127401   6.239   2.376   1.790  1.5410  0.5348  0.3216
 1922TIP3    H227402   6.204   2.487   1.693 -1.2893 -0.6401 -0.0966
 1923TIP3   OH227403   5.546   6.377   1.583 -0.0066  0.4159  0.6140
 1923TIP3    H127404   5.572   6.285   1.578  1.3897  0.7720  0.9761
 1923TIP3    H227405   5.577   6.415   1.501  2.6868  1.3248  1.9595
 1924TIP3   OH227406   5.968   4.272   2.773  0.0939  0.0900  0.1261
 1924TIP3    H127407   5.941   4.259   2.682 -1.8894 -1.2225  0.8420
 1924TIP3    H227408   6.024   4.197   2.792 -2.2370 -1.5249  0.9331
 1925TIP3   OH227409   4.403   0.746   7.974  0.5426  0.3767 -0.4876
 1925TIP3    H127410   4.402   0.712   8.063  1.7217 -0.5029 -0.7922
 1925TIP3    H227411   4.390   0.670   7.918 -0.2503  0.9283 -1.0826
 1926TIP3   OH227412   5.536   0.617   1.484  0.4360  0.2613 -0.4037
 1926TIP3    H127413   5.508   0.642   1.572  1.5384 -3.1994  1.0825
 1926TIP3    H227414   5.457   0.624   1.431 -0.2926  2.2938  0.8192
 1927TIP3   OH227415   2.186   2.254   8.435  0.4546 -0.6610 -0.3755
 1927TIP3    H127416   2.250   2.274   8.366  0.5722 -1.3509 -0.4750
 1927TIP3    H227417   2.125   2.194   8.393  0.3231 -0.8021  0.0201
 1928TIP3   OH227418   3.282   4.876   1.860 -0.2636 -0.0043 -0.2549
 1928TIP3    H127419   3.305   4.835   1.943  1.4714 -0.4545 -0.9222
 1928TIP3    H227420   3.212   4.821   1.825  1.9397 -2.4644 -1.0893
 1929TIP3   OH227421   2.079   2.905   1.023  0.5774  0.5022 -0.2950
 1929TIP3    H127422   2.132   2.976   0.986  0.6366  0.0317 -1.1362
 1929TIP3    H227423   2.091   2.913   1.117  1.3685  1.0008 -0.4285
 1930TIP3   OH227424   6.310   4.993   1.886  0.3902  0.0643  0.7826
 1930TIP3    H127425   6.333   4.907   1.924 -0.2030  0.2542  1.5921
 1930TIP3    H227426   6.263   5.038   1.956 -0.7346  0.4361 -0.1817
 1931TIP3   OH227427   4.221   5.888   2.420 -0.3829 -0.1577 -0.5003
 1931TIP3    H127428   4.171   5.970   2.420 -0.1885 -0.0138 -2.1839
 1931TIP3    H227429   4.157   5.821   2.394  0.2683  0.0655 -2.9394
 1932TIP3   OH227430   4.950   4.684   2.373  0.0749 -0.5555 -0.5750
 1932TIP3    H127431   4.945   4.676   2.278  1.9333 -1.5457 -0.6382
 1932TIP3    H227432   4.960   4.594   2.404 -1.8544 -0.3857  0.7037
 1933TIP3   OH227433   1.496   4.445   1.415  0.4612 -0.1159  0.2791
 1933TIP3    H127434   1.448   4.467   1.335 -2.0178 -0.6260  1.5330
 1933TIP3    H227435   1.451   4.369   1.451  1.4111  0.1615  2.2196
 1934TIP3   OH227436   4.078   1.209   0.382  0.2000 -0.2009  0.2952
 1934TIP3    H127437   4.049   1.126   0.418  1.4603 -1.7123 -1.9779
 1934TIP3    H227438   4.160   1.228   0.428 -1.6484  1.5801  3.1732
 1935TIP3   OH227439   4.417   5.096   0.284  0.1838  0.1273 -0.3050
 1935TIP3    H127440   4.362   5.137   0.351  0.2145 -1.3696  0.6923
 1935TIP3    H227441   4.384   5.006   0.278  0.3965  0.1214 -2.1011
 1936TIP3   OH227442   6.613   2.739   2.325 -0.0180 -0.5301 -0.0246
 1936TIP3    H127443   6.570   2.817   2.360 -1.0552 -0.9051 -0.4183
 1936TIP3    H227444   6.704   2.746   2.354 -0.9543 -1.2541  3.5892
 1937TIP3   OH227445   2.357   3.462   0.464 -0.4081 -0.3764 -0.0188
 1937TIP3    H127446   2.440   3.508   0.479  0.3563 -1.9318  0.6845
 1937TIP3    H227447   2.382   3.370   0.456 -1.6866 -0.5672 -3.0997
 1938TIP3   OH227448   5.852   4.718   0.524  0.0563  0.2937  0.1699
 1938TIP3    H127449   5.773   4.767   0.550  1.0145  1.2431  1.4528
 1938TIP3    H227450   5.850   4.719   0.428 -0.5826  1.8672  0.1616
 1939TIP3   OH227451   1.413   1.539   8.312 -0.1723  0.7396  0.0294
 1939TIP3    H127452   1.355   1.580   8.377  1.9571  0.9177  1.9346
 1939TIP3    H227453   1.484   1.602   8.300  0.6632 -0.3036 -0.7128
 1940TIP3   OH227454   5.407   3.026   0.054 -0.1975  0.4145  0.8268
 1940TIP3    H127455   5.482   3.031   0.114  0.7421  0.5158 -0.3302
 1940TIP3    H227456   5.440   3.059  -0.029 -1.2961 -0.3486  0.0597
 1941TIP3   OH227457   2.680   5.076   8.041  0.4576 -0.3017 -0.0929
 1941TIP3    H127458   2.687   5.028   7.959 -0.1675 -0.9132  0.1987
 1941TIP3    H227459   2.598   5.125   8.033  0.1748 -0.6982  0.3295
 1942TIP3   OH227460   2.275   0.192   0.450  0.6574 -0.0705 -0.0038
 1942TIP3    H127461   2.279   0.152   0.363 -1.6068 -1.6577  0.5218
 1942TIP3    H227462   2.182   0.194   0.471  1.0352  1.6808  1.7960
 1943TIP3   OH227463   0.369   6.809   6.852 -0.1982 -0.5286 -0.1956
 1943TIP3    H127464   0.382   6.831   6.759 -1.4161 -0.8175 -0.4575
 1943TIP3    H227465   0.447   6.760   6.876 -0.2300 -1.1735 -1.3146
 1944TIP3   OH227466   6.122   0.389   0.239  0.1497  0.1505  0.4510
 1944TIP3    H127467   6.146   0.365   0.150 -0.8753 -0.1221  0.2428
 1944TIP3    H227468   6.198   0.364   0.292  0.5098 -0.2653 -0.2550
 1945TIP3   OH227469   3.999   3.573   1.115 -0.5924 -0.2906  0.1730
 1945TIP3    H127470   3.999   3.573   1.211  0.7659 -0.1443  0.1962
 1945TIP3    H227471   3.965   3.659   1.091 -2.6805 -0.9737  0.4628
 1946TIP3   OH227472   3.387   2.694   7.996  0.0808 -0.0959  0.2466
 1946TIP3    H127473   3.429   2.644   8.066 -0.3846  1.0392  1.3740
 1946TIP3    H227474   3.350   2.771   8.040  2.1912  2.1478 -1.6161
 1947TIP3   OH227475   3.769   1.196   1.766  0.5541 -0.1513  0.8599
 1947TIP3    H127476   3.808   1.177   1.852  2.9959  1.4356  0.2084
 1947TIP3    H227477   3.721   1.117   1.743  1.8966 -1.5505  2.5908
 1948TIP3   OH227478   4.357   5.681   0.199  0.2381  0.2949 -0.7250
 1948TIP3    H127479   4.381   5.717   0.114 -1.4027  0.1538 -1.2792
 1948TIP3    H227480   4.355   5.756   0.258 -0.1455  0.6465 -1.1780
 1949TIP3   OH227481   2.198   6.602   1.865  0.0042 -0.2884 -0.3367
 1949TIP3    H127482   2.182   6.534   1.799  1.2040 -0.2609 -0.6707
 1949TIP3    H227483   2.292   6.598   1.881 -0.1084  0.4681  0.5564
 1950TIP3   OH227484   5.345   2.774   8.487  0.3436  0.2031  0.2482
 1950TIP3    H127485   5.338   2.857   8.534  1.2949 -0.0823  0.9073
 1950TIP3    H227486   5.434   2.772   8.453  0.4829 -0.7553  0.6355
 1951TIP3   OH227487   5.916   6.134   0.476  0.0868 -0.7411  0.1335
 1951TIP3    H127488   5.937   6.162   0.565 -1.3205  0.8127  0.0345
 1951TIP3    H227489   5.952   6.202   0.420 -0.7203 -0.6791 -0.3316
 1952TIP3   OH227490   5.672   5.988   7.516  0.2638  0.0332  0.2615
 1952TIP3    H127491   5.753   5.957   7.558  0.2115  0.1588  0.4550
 1952TIP3    H227492   5.686   5.972   7.422  0.9039  0.9574  0.1949
 1953TIP3   OH227493   0.812   6.616   1.565 -0.5046 -0.2102 -0.1101
 1953TIP3    H127494   0.793   6.522   1.554 -1.4598 -0.0520  0.0637
 1953TIP3    H227495   0.853   6.622   1.651  1.9655 -0.7668 -1.1573
 1954TIP3   OH227496   5.450   4.341   2.451 -0.2794 -0.3252 -0.5035
 1954TIP3    H127497   5.429   4.418   2.398 -0.8520 -1.2815 -1.7318
 1954TIP3    H227498   5.367   4.318   2.494  0.3209  0.7972  1.3441
 1955TIP3   OH227499   6.861   5.744   8.566 -0.0373 -0.7058 -0.0454
 1955TIP3    H127500   6.791   5.757   8.630 -0.4279  1.9934 -0.8965
 1955TIP3    H227501   6.921   5.817   8.581  2.3347 -2.6133  0.2420
 1956TIP3   OH227502   5.916   1.990   0.365 -0.3950  0.1079  0.7158
 1956TIP3    H127503   5.962   1.910   0.340 -0.1499  0.5979 -0.4939
 1956TIP3    H227504   5.985   2.056   0.373 -0.8260  0.8267 -1.0273
 1957TIP3   OH227505   5.958   1.793   6.928  0.6170 -0.0226  0.1509
 1957TIP3    H127506   6.046   1.830   6.934  0.5954 -0.0037  0.3336
 1957TIP3    H227507   5.960   1.717   6.986  1.3627 -1.6696 -1.9007
 1958TIP3   OH227508   4.527   1.653   2.047 -0.1260 -0.2703 -0.5871
 1958TIP3    H127509   4.553   1.564   2.026  2.2179 -0.6517  2.9562
 1958TIP3    H227510   4.508   1.652   2.141 -0.9821  2.7691 -0.5933
 1959TIP3   OH227511   3.904   1.919   0.676  0.6095 -0.1685 -0.3927
 1959TIP3    H127512   3.913   2.013   0.656 -1.1691 -0.1806 -1.4330
 1959TIP3    H227513   3.931   1.875   0.595 -0.6277 -0.4478 -0.6759
 1960TIP3   OH227514   1.157   5.482   0.468  0.1576  0.4831  0.2650
 1960TIP3    H127515   1.240   5.529   0.455 -0.6635  2.5069  1.7811
 1960TIP3    H227516   1.183   5.401   0.513  1.5293 -0.1899 -1.6174
 1961TIP3   OH227517   1.276   4.364   2.805 -0.0750  0.4745 -0.6251
 1961TIP3    H127518   1.264   4.436   2.867 -1.3489  0.1252 -0.4358
 1961TIP3    H227519   1.364   4.330   2.824  0.3268  1.6304 -0.3651
 1962TIP3   OH227520   1.976   4.250   0.638  0.1758 -0.1474 -0.5011
 1962TIP3    H127521   1.929   4.323   0.679 -0.5386 -0.9912  0.2053
 1962TIP3    H227522   1.940   4.245   0.550  0.1261  0.2529 -0.5061
 1963TIP3   OH227523   6.572   1.224   8.023  0.4870 -0.2199  0.1566
 1963TIP3    H127524   6.638   1.294   8.024  0.6436 -0.3719  1.0594
 1963TIP3    H227525   6.575   1.190   7.933 -0.5211  1.7959 -0.7216
 1964TIP3   OH227526   1.693   0.385   8.582 -0.5157  0.1949  0.3323
 1964TIP3    H127527   1.716   0.416   8.495  3.3936 -0.6785  0.8695
 1964TIP3    H227528   1.657   0.462   8.626  0.9778  1.6865 -0.9346
 1965TIP3   OH227529   4.403   6.255   1.263 -0.0367 -0.0823 -0.2780
 1965TIP3    H127530   4.496   6.232   1.265  0.5778  2.1437  1.8162
 1965TIP3    H227531   4.359   6.181   1.304  1.0622 -0.3997  0.3931
 1966TIP3   OH227532   3.923   4.684   1.483 -0.3091 -0.5505  0.2591
 1966TIP3    H127533   3.934   4.706   1.391 -1.4904 -1.3758 -0.0952
 1966TIP3    H227534   4.002   4.635   1.505 -1.7448 -3.9818 -1.4839
 1967TIP3   OH227535   2.903   3.614   0.727 -0.5236 -0.4966 -0.5055
 1967TIP3    H127536   2.841   3.665   0.674 -0.3515  0.3853  0.1241
 1967TIP3    H227537   2.973   3.675   0.747  0.0504 -1.2026 -0.3396
 1968TIP3   OH227538   4.506   1.325   8.452  0.7824 -0.2915  0.0751
 1968TIP3    H127539   4.590   1.373   8.450  0.3178  0.5327 -1.0895
 1968TIP3    H227540   4.470   1.344   8.539  1.8097 -0.6892  0.6069
 1969TIP3   OH227541   5.040   5.362   6.844 -0.4342 -0.0328 -0.6573
 1969TIP3    H127542   5.130   5.393   6.834 -0.7770  0.7924 -1.2721
 1969TIP3    H227543   4.989   5.416   6.785 -1.1536 -1.4064 -1.3484
 1970TIP3   OH227544   3.429   1.377   0.325  0.4749 -0.0509  0.0466
 1970TIP3    H127545   3.524   1.373   0.329  0.5302  1.3082  0.9882
 1970TIP3    H227546   3.400   1.375   0.416 -0.4197 -0.7329 -0.2363
 1971TIP3   OH227547   2.849   1.029   2.529 -0.4464 -0.2389 -0.5114
 1971TIP3    H127548   2.881   1.062   2.445  0.2551 -0.3172 -0.2773
 1971TIP3    H227549   2.780   0.967   2.505  1.0622 -1.7348 -1.1297
 1972TIP3   OH227550   0.684   4.350   0.812  0.0414  0.1667  0.8537
 1972TIP3    H127551   0.697   4.411   0.739  0.2947 -0.0585  0.7081
 1972TIP3    H227552   0.707   4.401   0.890  2.4279 -0.3548  0.5772
 1973TIP3   OH227553   0.496   6.653   1.019 -0.1521  0.0403 -0.4083
 1973TIP3    H127554   0.452   6.602   0.950 -0.5534  0.2321 -0.2930
 1973TIP3    H227555   0.425   6.689   1.072  0.1528 -1.1245  0.8566
 1974TIP3   OH227556   5.668   4.851   6.832  0.1856  0.4265  0.0046
 1974TIP3    H127557   5.726   4.923   6.857  0.0813  0.3409  0.4980
 1974TIP3    H227558   5.698   4.826   6.745  0.0493  1.2484 -0.2893
 1975TIP3   OH227559   0.384   5.423   2.403  0.1224  0.0740 -0.1897
 1975TIP3    H127560   0.324   5.413   2.476  0.6509 -0.8885  0.1256
 1975TIP3    H227561   0.469   5.439   2.443  0.3709 -0.2054 -0.5916
 1976TIP3   OH227562   1.168   3.456   1.476 -0.3325 -0.4045 -0.0248
 1976TIP3    H127563   1.125   3.425   1.397  1.4554 -2.1533 -0.3765
 1976TIP3    H227564   1.145   3.392   1.543 -0.7943  0.3698  0.5781
 1977TIP3   OH227565   0.650   6.060   0.387 -0.4056  0.3317  0.3672
 1977TIP3    H127566   0.644   6.054   0.482 -1.7834 -1.9341  0.2192
 1977TIP3    H227567   0.649   5.969   0.357 -0.5722  0.9904 -1.8433
 1978TIP3   OH227568   1.308   5.892   1.091  0.0678 -0.2025  0.0634
 1978TIP3    H127569   1.222   5.917   1.125 -0.1655 -1.9009  0.8065
 1978TIP3    H227570   1.305   5.796   1.087  2.2650 -0.3717  1.0752
 1979TIP3   OH227571   3.496   4.946   8.175 -0.3667 -0.4688 -0.0596
 1979TIP3    H127572   3.447   4.907   8.102  1.6078 -0.1691 -1.6542
 1979TIP3    H227573   3.511   4.874   8.236 -1.6414 -0.8435 -0.1628
 1980TIP3   OH227574   1.857   2.923   1.234 -0.6597 -0.3118 -0.1492
 1980TIP3    H127575   1.926   2.985   1.212 -1.3514  0.9341  1.0289
 1980TIP3    H227576   1.776   2.965   1.204 -1.0089 -1.3575 -0.7415
 1981TIP3   OH227577   4.446   0.008   2.121  0.7263 -0.0664 -0.0132
 1981TIP3    H127578   4.499   0.003   2.200  1.3525 -2.3403 -0.5172
 1981TIP3    H227579   4.492  -0.046   2.057 -0.6426  0.3584 -1.4326
 1982TIP3   OH227580   6.434   5.294   2.375 -0.5407 -0.2995 -0.3484
 1982TIP3    H127581   6.499   5.307   2.443 -0.5371 -1.7465 -0.0377
 1982TIP3    H227582   6.421   5.199   2.372 -0.8679 -0.2368 -2.0564
 1983TIP3   OH227583   6.430   3.161   0.121  0.0567  0.0513  0.1895
 1983TIP3    H127584   6.450   3.089   0.180  3.1206 -0.6848 -1.5700
 1983TIP3    H227585   6.380   3.121   0.050  0.1360  0.0702  0.1241
 1984TIP3   OH227586   5.739   4.892   0.220 -0.3036  0.1800 -0.3525
 1984TIP3    H127587   5.653   4.877   0.181  0.4643 -0.9368 -1.7213
 1984TIP3    H227588   5.782   4.806   0.217  0.3736  0.4135  1.5750
 1985TIP3   OH227589   5.716   0.862   0.262  0.1967 -0.0419  0.2263
 1985TIP3    H127590   5.792   0.892   0.212  0.8363  0.1958  1.3126
 1985TIP3    H227591   5.690   0.937   0.315 -2.5895  0.8319 -2.1358
 1986TIP3   OH227592   4.244   2.155   6.900  0.9974 -0.1264  0.6387
 1986TIP3    H127593   4.323   2.186   6.856  0.2549  0.3967 -0.3622
 1986TIP3    H227594   4.172   2.196   6.853  0.1002 -0.8866  1.2931
 1987TIP3   OH227595   3.931   4.037   2.642  0.6288  0.1796 -0.2864
 1987TIP3    H127596   4.005   4.013   2.586  0.8189  0.4494 -0.1537
 1987TIP3    H227597   3.971   4.055   2.727  0.2459 -1.0861  0.1800
 1988TIP3   OH227598   4.300   2.070   1.890  0.0776 -0.3012  0.0498
 1988TIP3    H127599   4.385   2.112   1.886  0.4202 -0.9598  0.2458
 1988TIP3    H227600   4.243   2.134   1.931  0.0522  0.8237 -1.6182
 1989TIP3   OH227601   0.664   6.569   7.328  0.5291 -0.2701  0.4549
 1989TIP3    H127602   0.584   6.621   7.335 -1.3462 -2.9675  1.0214
 1989TIP3    H227603   0.719   6.600   7.400 -0.8284  0.4164  1.2460
 1990TIP3   OH227604   4.882   5.574   7.631  0.4795  0.5568  0.2837
 1990TIP3    H127605   4.921   5.493   7.664 -1.4969 -1.3556 -1.7054
 1990TIP3    H227606   4.955   5.634   7.622  2.1946 -1.3106  0.9797
 1991TIP3   OH227607   5.137   0.987   0.920 -0.0583 -0.2794  0.0114
 1991TIP3    H127608   5.094   0.980   0.835  1.2498  1.1276 -0.8216
 1991TIP3    H227609   5.213   0.929   0.913 -0.5012 -0.9469  0.6090
 1992TIP3   OH227610   0.182   3.994   2.574  0.4019 -0.3572  0.1271
 1992TIP3    H127611   0.199   3.990   2.668  1.3361  5.0413  0.5107
 1992TIP3    H227612   0.096   4.037   2.567 -0.2135 -1.7551 -1.5543
 1993TIP3   OH227613   2.904   3.320   0.754 -0.7558 -0.1368  0.5677
 1993TIP3    H127614   2.903   3.415   0.737  0.3452 -0.3473 -0.8728
 1993TIP3    H227615   2.964   3.310   0.828  0.7916  0.1510 -0.5885
 1994TIP3   OH227616   0.852   0.377   0.592 -0.5369 -0.5585  0.6938
 1994TIP3    H127617   0.780   0.414   0.644 -1.1884 -0.9988  0.1290
 1994TIP3    H227618   0.808   0.336   0.517  0.2476 -1.5867  0.7854
 1995TIP3   OH227619   0.975   5.436   1.438  0.6819 -0.3647 -0.3680
 1995TIP3    H127620   0.896   5.443   1.385  1.4617  0.3030 -1.4885
 1995TIP3    H227621   1.015   5.523   1.433  0.7715 -0.2756  1.3606
 1996TIP3   OH227622   6.909   2.613   8.319  0.0362  0.5762  0.2534
 1996TIP3    H127623   6.824   2.649   8.295 -0.4852 -0.0957  1.0567
 1996TIP3    H227624   6.926   2.545   8.253  0.1536  0.9938 -0.1529
 1997TIP3   OH227625   6.132   2.718   8.276  0.2679 -0.0835  0.0681
 1997TIP3    H127626   6.190   2.669   8.334 -1.3950 -0.9305  1.0910
 1997TIP3    H227627   6.191   2.767   8.219  1.9936 -1.9590  0.1236
 1998TIP3   OH227628   1.245   0.242   0.651  0.0849  0.1288  0.0866
 1998TIP3    H127629   1.277   0.250   0.561  3.6184 -2.0492  0.9465
 1998TIP3    H227630   1.243   0.148   0.667 -1.5501  0.4227  1.9982
 1999TIP3   OH227631   4.541   3.970   1.575  0.2919 -0.4675  0.1276
 1999TIP3    H127632   4.583   4.048   1.609  1.1600 -0.2744 -1.3130
 1999TIP3    H227633   4.611   3.922   1.530 -0.4508 -1.5336  0.0557
 2000TIP3   OH227634   5.050   2.681   0.291  0.3474 -0.2406 -0.2724
 2000TIP3    H127635   5.105   2.652   0.364 -0.2455 -0.2734  0.1701
 2000TIP3    H227636   5.051   2.776   0.296  0.1292 -0.2464 -0.0798
 2001TIP3   OH227637   5.782   0.127   7.187 -0.0500 -0.1848 -0.1828
 2001TIP3    H127638   5.823   0.112   7.272 -0.4184  0.2067  0.0632
 2001TIP3    H227639   5.718   0.057   7.179 -0.8556  0.4692  0.3949
 2002TIP3   OH227640   3.955   4.473   0.434 -0.1630 -0.2242  0.3051
 2002TIP3    H127641   3.933   4.510   0.520  0.1604 -1.0026  0.7302
 2002TIP3    H227642   3.957   4.378   0.448  0.7864 -0.3127 -0.3531
 2003TIP3   OH227643   6.022   4.434   1.118 -0.4038 -0.0812 -0.1365
 2003TIP3    H127644   5.983   4.359   1.163  1.2869 -1.7180 -1.2424
 2003TIP3    H227645   6.028   4.406   1.026  1.0715  1.0524 -0.4218
 2004TIP3   OH227646   4.379   0.694   3.150  0.0591 -0.7049 -0.2969
 2004TIP3    H127647   4.320   0.767   3.169  0.1106 -0.7701  0.1192
 2004TIP3    H227648   4.412   0.713   3.062 -0.5009 -0.6171 -0.4950
 2005TIP3   OH227649   5.591   4.504   0.760 -0.1157 -0.2209 -0.2566
 2005TIP3    H127650   5.659   4.447   0.724  1.6680  3.2013 -2.9331
 2005TIP3    H227651   5.509   4.460   0.737  1.1376 -2.1543 -1.3426
 2006TIP3   OH227652   3.946   6.846   2.477  0.3445 -0.4363 -0.2699
 2006TIP3    H127653   4.016   6.788   2.446  1.2279  1.6549 -2.4455
 2006TIP3    H227654   3.980   6.883   2.558  0.9293 -0.8948 -0.2971
 2007TIP3   OH227655   6.215   2.243   0.508 -0.0857 -0.2037 -0.1802
 2007TIP3    H127656   6.285   2.268   0.448  0.5742 -1.6312 -0.0322
 2007TIP3    H227657   6.191   2.154   0.482  0.9137 -1.2678  2.2573
 2008TIP3   OH227658   2.401   2.969   2.822  0.1319  0.5799  0.3097
 2008TIP3    H127659   2.422   3.005   2.908  0.0554  2.7634 -0.5118
 2008TIP3    H227660   2.425   3.039   2.760  1.8990 -1.5746 -1.6414
 2009TIP3   OH227661   5.781   0.511   2.300  0.3303  0.7071 -0.3040
 2009TIP3    H127662   5.791   0.604   2.280 -0.2076  0.5399 -1.4111
 2009TIP3    H227663   5.763   0.470   2.215  1.3028 -0.5124  0.0444
 2010TIP3   OH227664   0.468   3.198   7.995  0.5483 -0.3896 -0.5361
 2010TIP3    H127665   0.501   3.120   8.039 -0.6602 -1.2499 -1.1064
 2010TIP3    H227666   0.529   3.267   8.020  1.5519 -1.4735  0.1141
 2011TIP3   OH227667   5.256   4.068   1.679  0.0391 -0.4211  0.1789
 2011TIP3    H127668   5.262   4.015   1.758  1.5102  0.9465  1.0560
 2011TIP3    H227669   5.347   4.076   1.648 -0.5383 -1.2925 -1.9388
 2012TIP3   OH227670   1.005   2.793   8.078  0.9613 -0.1354  0.1527
 2012TIP3    H127671   1.100   2.793   8.093  0.7342  0.3807  1.8134
 2012TIP3    H227672   0.970   2.742   8.150 -0.0151 -0.7073 -0.7012
 2013TIP3   OH227673   4.567   0.548   8.272 -0.2219 -0.1897 -0.3713
 2013TIP3    H127674   4.485   0.529   8.226  0.1207  1.8255 -1.9583
 2013TIP3    H227675   4.580   0.473   8.329 -2.5458 -1.1359 -0.9624
 2014TIP3   OH227676   4.954   1.704   2.443 -0.1228  0.0341  0.3210
 2014TIP3    H127677   4.918   1.635   2.498  0.8576 -0.8008 -0.0650
 2014TIP3    H227678   5.018   1.749   2.498  0.0034 -0.0446  0.2401
 2015TIP3   OH227679   3.190   1.641   2.901 -0.2980  0.1601 -0.3117
 2015TIP3    H127680   3.268   1.668   2.852 -0.6245  1.9864  0.0894
 2015TIP3    H227681   3.222   1.577   2.964  0.7978  0.5483 -0.4499
 2016TIP3   OH227682   0.524   0.888   0.196 -0.3642  0.0555  0.1845
 2016TIP3    H127683   0.520   0.822   0.128 -0.0822  1.3621 -1.1641
 2016TIP3    H227684   0.537   0.839   0.277 -2.6938 -1.7031 -0.3911
 2017TIP3   OH227685   2.447   1.098   8.344  0.1550  0.2548  0.3460
 2017TIP3    H127686   2.502   1.120   8.268 -1.9275  0.8604 -1.0625
 2017TIP3    H227687   2.471   1.163   8.410  1.1655  0.4667 -0.2055
 2018TIP3   OH227688   5.829   0.191   6.748  0.5930  0.3788 -0.2472
 2018TIP3    H127689   5.832   0.229   6.661  0.2681  0.6205 -0.1510
 2018TIP3    H227690   5.765   0.120   6.741  0.9707  0.0421 -0.3463
 2019TIP3   OH227691   2.013   6.267   0.006 -0.4725 -0.7233  0.2476
 2019TIP3    H127692   2.071   6.340  -0.020 -0.7058 -0.9507 -0.9810
 2019TIP3    H227693   2.067   6.213   0.063  0.0975 -0.2304  0.1908
 2020TIP3   OH227694   6.582   2.002   8.048 -0.2499  0.2321 -0.1075
 2020TIP3    H127695   6.492   1.972   8.060  0.4945 -1.6394  1.3244
 2020TIP3    H227696   6.607   2.038   8.133  0.0177  1.8407 -0.8291
 2021TIP3   OH227697   3.182   3.896   2.477 -0.3825 -0.1497  0.1217
 2021TIP3    H127698   3.124   3.827   2.509 -1.9618  1.7405  1.6147
 2021TIP3    H227699   3.231   3.924   2.555  1.9409 -1.0554 -0.9244
 2022TIP3   OH227700   4.351   3.324   7.652  0.3096 -0.4854 -0.5313
 2022TIP3    H127701   4.306   3.240   7.638 -1.9323  0.4271  0.6237
 2022TIP3    H227702   4.365   3.358   7.564 -1.8084 -0.6062 -0.9762
 2023TIP3   OH227703   1.007   0.755   3.028  0.0918  0.0301 -0.6984
 2023TIP3    H127704   0.967   0.802   2.954  2.7790  0.6128 -1.8838
 2023TIP3    H227705   1.030   0.670   2.992 -0.0886 -0.3063 -0.0279
 2024TIP3   OH227706   4.192   0.029   2.208 -0.1384 -0.1599  0.1456
 2024TIP3    H127707   4.169  -0.058   2.241  1.7442 -0.3954  0.9476
 2024TIP3    H227708   4.284   0.023   2.184  0.4135  1.9211  1.4036
 2025TIP3   OH227709   3.295   4.018   0.200  0.4594 -0.0215 -0.3503
 2025TIP3    H127710   3.243   3.968   0.136  0.2699  1.0207 -1.0211
 2025TIP3    H227711   3.264   4.108   0.191 -1.4155 -0.1803  2.9990
 2026TIP3   OH227712   4.374   5.999   8.157 -0.0011 -0.5121 -0.4005
 2026TIP3    H127713   4.309   6.034   8.096  0.6908 -1.1076 -1.5109
 2026TIP3    H227714   4.458   6.020   8.117  0.5466  0.7143  1.2687
 2027TIP3   OH227715   2.744   5.113   2.568  0.8211  0.0614  0.1587
 2027TIP3    H127716   2.778   5.195   2.603  0.2756  0.3993 -0.0741
 2027TIP3    H227717   2.783   5.045   2.622  0.8208  0.5105  0.7353
 2028TIP3   OH227718   1.592   2.465   1.286  0.3021 -0.2218 -0.0834
 2028TIP3    H127719   1.644   2.391   1.252 -0.0789 -0.5517  0.0477
 2028TIP3    H227720   1.596   2.455   1.381  1.1514  0.5516 -0.0213
 2029TIP3   OH227721   1.396   6.650   1.731  0.0700 -0.4103  0.4695
 2029TIP3    H127722   1.462   6.604   1.783 -1.2022 -3.1442 -0.1474
 2029TIP3    H227723   1.427   6.643   1.641  0.7659  1.6539  0.5140
 2030TIP3   OH227724   5.546   1.075   0.333 -0.2507 -0.3140 -0.0773
 2030TIP3    H127725   5.633   1.111   0.318  0.2584 -1.8096 -0.9520
 2030TIP3    H227726   5.510   1.062   0.245 -0.3366 -2.0300  0.1762
 2031TIP3   OH227727   0.683   4.384   8.339  0.7075  0.6190 -0.1530
 2031TIP3    H127728   0.595   4.420   8.329 -0.1555 -1.5515 -1.3165
 2031TIP3    H227729   0.694   4.371   8.433 -0.8067 -0.3095 -0.0721
 2032TIP3   OH227730   4.108   3.642   1.653 -0.1030  0.1194 -0.7074
 2032TIP3    H127731   4.176   3.709   1.661  0.1131 -0.2014  0.3781
 2032TIP3    H227732   4.028   3.685   1.682  0.2810 -0.4300  1.3238
 2033TIP3   OH227733   3.646   0.826   7.262  0.6388 -0.1212  0.2789
 2033TIP3    H127734   3.642   0.822   7.357  1.7865  0.7075  0.3823
 2033TIP3    H227735   3.605   0.745   7.233  1.6790 -1.1341  1.5139
 2034TIP3   OH227736   3.284   1.754   7.269  0.6703  0.0394 -0.0530
 2034TIP3    H127737   3.345   1.727   7.201  1.1278 -1.2835  0.8553
 2034TIP3    H227738   3.217   1.685   7.269  0.6566  0.0500  0.7996
 2035TIP3   OH227739   5.435   6.165   1.932 -0.1429 -0.5372 -0.3028
 2035TIP3    H127740   5.365   6.153   1.996  0.8914  0.6551  1.1233
 2035TIP3    H227741   5.409   6.112   1.857 -2.0245 -0.9655  0.6108
 2036TIP3   OH227742   4.563   4.329   7.555 -0.2970  0.1558  0.4619
 2036TIP3    H127743   4.503   4.296   7.622 -2.1972  1.2860 -0.5985
 2036TIP3    H227744   4.529   4.295   7.473 -1.1626  2.9641 -0.4627
 2037TIP3   OH227745   6.209   6.440   2.115  0.2636 -0.2127 -0.0805
 2037TIP3    H127746   6.197   6.534   2.101 -2.4209 -0.6527 -1.6101
 2037TIP3    H227747   6.269   6.433   2.189  0.1807  2.7012  0.3551
 2038TIP3   OH227748   6.339   0.388   7.593 -0.0303  0.1529 -0.7688
 2038TIP3    H127749   6.260   0.335   7.579 -0.1814 -0.0585  0.7871
 2038TIP3    H227750   6.393   0.336   7.652  1.1717  0.4233 -1.6041
 2039TIP3   OH227751   0.455   4.866   1.069  0.2768 -0.1365  0.3947
 2039TIP3    H127752   0.472   4.859   0.975 -0.5552  1.4195  0.0916
 2039TIP3    H227753   0.368   4.827   1.080  0.9549 -1.6248  0.7898
 2040TIP3   OH227754   6.223   3.615   8.347  0.0415 -0.2864  0.7517
 2040TIP3    H127755   6.285   3.548   8.375 -0.5202 -1.0828  0.1215
 2040TIP3    H227756   6.230   3.617   8.251 -1.0432 -0.5315  0.6525
 2041TIP3   OH227757   0.491   0.594   1.784  0.2648 -0.2509 -0.6746
 2041TIP3    H127758   0.548   0.609   1.709 -0.3768  0.1110 -1.0962
 2041TIP3    H227759   0.421   0.539   1.750  0.2764 -0.5584 -0.2001
 2042TIP3   OH227760   2.189   4.415   1.865 -0.2693 -0.2879 -0.4110
 2042TIP3    H127761   2.126   4.404   1.936 -0.6417 -2.7415 -1.0486
 2042TIP3    H227762   2.231   4.499   1.884 -1.5449 -0.0492  1.7388
 2043TIP3   OH227763   5.262   4.245   2.619  0.1963 -0.2713 -0.3050
 2043TIP3    H127764   5.319   4.277   2.688  1.4824 -0.4056 -1.2664
 2043TIP3    H227765   5.189   4.204   2.665  0.9341 -0.2060  0.9652
 2044TIP3   OH227766   1.438   2.200   7.352  0.2586 -0.1582  0.2300
 2044TIP3    H127767   1.469   2.181   7.263  0.5878  2.1146 -0.1862
 2044TIP3    H227768   1.404   2.289   7.348  0.2912  0.0157  2.4061
 2045TIP3   OH227769   6.104   2.517   2.582  0.1411 -0.3325 -0.2183
 2045TIP3    H127770   6.102   2.487   2.491  0.2949  2.8253 -1.3895
 2045TIP3    H227771   6.011   2.520   2.608  0.1072 -1.4118 -0.1426
 2046TIP3   OH227772   4.771   2.070   0.646 -0.8054 -0.4435 -0.2172
 2046TIP3    H127773   4.788   2.143   0.587 -1.7724  0.6704  0.8313
 2046TIP3    H227774   4.823   1.998   0.610 -0.1871  0.6117 -1.5423
 2047TIP3   OH227775   2.773   2.118   7.295 -0.1577  0.0784 -0.7121
 2047TIP3    H127776   2.747   2.055   7.228 -0.4767 -0.3226 -0.2260
 2047TIP3    H227777   2.738   2.202   7.266 -0.3759 -0.1106 -0.9950
 2048TIP3   OH227778   6.040   1.743   8.456  0.4299 -0.0932 -0.9951
 2048TIP3    H127779   6.039   1.670   8.518  2.8711  0.9472  0.4316
 2048TIP3    H227780   5.992   1.711   8.380 -1.1284 -2.0916  0.6980
 2049TIP3   OH227781   1.931   1.117   8.248 -0.1872 -0.0843  0.8820
 2049TIP3    H127782   2.021   1.116   8.216 -0.6639 -1.3947 -0.4851
 2049TIP3    H227783   1.878   1.135   8.171 -1.3038 -2.2953  1.0779
 2050TIP3   OH227784   6.739   1.728   1.377  0.5113  0.3832  0.3186
 2050TIP3    H127785   6.753   1.673   1.455 -0.5384 -0.7116 -0.2442
 2050TIP3    H227786   6.732   1.817   1.412 -1.1994 -0.2219  1.6423
 2051TIP3   OH227787   1.376   3.387   0.864 -0.3942 -0.6097 -0.3992
 2051TIP3    H127788   1.295   3.345   0.892  0.1561 -1.0801  0.5192
 2051TIP3    H227789   1.347   3.462   0.811 -1.4595  0.0446  1.0503
 2052TIP3   OH227790   2.825   6.920   0.188  0.4991 -0.2610  0.1313
 2052TIP3    H127791   2.798   6.873   0.108  0.4809  0.5803 -0.3739
 2052TIP3    H227792   2.920   6.921   0.184  0.4854  0.2292 -0.1551
 2053TIP3   OH227793   3.882   2.953   1.318  0.5236 -0.5877 -0.2929
 2053TIP3    H127794   3.897   3.038   1.358 -0.8432 -0.7995  0.7349
 2053TIP3    H227795   3.970   2.919   1.298  1.0743  1.2049 -1.0964
 2054TIP3   OH227796   4.554   1.870   0.702 -0.0525 -0.9885 -0.1521
 2054TIP3    H127797   4.594   1.827   0.777 -0.8106 -0.5297  0.5266
 2054TIP3    H227798   4.627   1.885   0.642  0.4679 -1.8665  0.2372
 2055TIP3   OH227799   1.116   0.185   1.949  0.1311  0.1598  0.1161
 2055TIP3    H127800   1.188   0.207   2.008  0.9440 -0.1275 -0.7275
 2055TIP3    H227801   1.125   0.247   1.876  0.5342 -0.8989 -0.7730
 2056TIP3   OH227802   4.878   1.315   0.514 -0.1160 -0.3828 -0.3433
 2056TIP3    H127803   4.918   1.386   0.465 -0.2163  0.7332  1.1219
 2056TIP3    H227804   4.785   1.318   0.489 -0.4992  1.2611  1.0694
 2057TIP3   OH227805   3.861   3.688   7.972 -0.1667 -0.2251 -0.2010
 2057TIP3    H127806   3.954   3.673   7.988  0.0588  1.6095  0.4512
 2057TIP3    H227807   3.853   3.693   7.877  0.6937  1.0130 -0.2378
 2058TIP3   OH227808   5.623   4.661   8.079  0.2281 -0.1077 -0.4441
 2058TIP3    H127809   5.623   4.745   8.034 -2.3033  0.2846  0.1678
 2058TIP3    H227810   5.533   4.648   8.106  0.9177 -2.1587  1.1225
 2059TIP3   OH227811   5.818   6.915   0.955 -0.1625  0.1844  0.7218
 2059TIP3    H127812   5.744   6.973   0.972 -0.2994  0.1030  0.4003
 2059TIP3    H227813   5.879   6.934   1.026 -0.8502 -0.3568  1.4688
 2060TIP3   OH227814   3.176   5.692   8.335  0.3106 -0.0003  0.0071
 2060TIP3    H127815   3.102   5.635   8.314 -0.8548  1.8817 -1.2294
 2060TIP3    H227816   3.167   5.709   8.429  1.5648 -2.9355  0.7954
 2061TIP3   OH227817   3.412   4.643   1.641  0.0901 -0.1252  0.0198
 2061TIP3    H127818   3.329   4.678   1.607 -0.3895 -0.6215  0.6547
 2061TIP3    H227819   3.386   4.590   1.716  1.2146  1.6776  1.7625
 2062TIP3   OH227820   4.225   4.834   7.425  0.2833  0.3575  0.7926
 2062TIP3    H127821   4.293   4.818   7.360  0.7299 -1.9789  1.7261
 2062TIP3    H227822   4.143   4.821   7.377  0.5256  0.9427  0.1961
 2063TIP3   OH227823   0.576   3.840   0.880 -0.5912  0.3115 -0.2712
 2063TIP3    H127824   0.550   3.930   0.862 -0.0371  0.8032  1.2667
 2063TIP3    H227825   0.525   3.788   0.818 -4.3707  1.3099  1.6810
 2064TIP3   OH227826   0.211   1.090   1.218  0.0320  0.4496 -0.0725
 2064TIP3    H127827   0.118   1.082   1.200 -0.2757  0.1364  1.4820
 2064TIP3    H227828   0.254   1.078   1.133 -1.3093  0.1705 -0.7329
 2065TIP3   OH227829   4.646   1.644   8.158  0.4508  0.6408  0.0604
 2065TIP3    H127830   4.633   1.553   8.133  1.6655  0.8053 -1.2939
 2065TIP3    H227831   4.575   1.691   8.114 -0.2029  0.3583  0.7973
 2066TIP3   OH227832   6.800   2.271   1.980  0.2473 -0.3964  0.6762
 2066TIP3    H127833   6.778   2.211   1.909  1.1215 -0.8330  0.7624
 2066TIP3    H227834   6.717   2.286   2.026 -0.4873  0.4680 -0.8449
 2067TIP3   OH227835   3.549   2.685   7.785 -0.6939  0.0451  0.0430
 2067TIP3    H127836   3.492   2.701   7.861  0.2344 -1.6605  1.1559
 2067TIP3    H227837   3.629   2.647   7.822  0.9979  1.8300 -1.5217
 2068TIP3   OH227838   4.816   0.733   7.689 -0.0272 -0.7117  0.4939
 2068TIP3    H127839   4.772   0.809   7.653  3.1642  0.6408 -0.9653
 2068TIP3    H227840   4.760   0.659   7.667 -2.4748  0.9935  0.6084
 2069TIP3   OH227841   2.392   4.299   2.190  0.1819 -0.1563 -0.8632
 2069TIP3    H127842   2.362   4.386   2.163  0.2744 -0.0342 -0.5762
 2069TIP3    H227843   2.479   4.291   2.153  1.3348  1.0017  1.4001
 2070TIP3   OH227844   1.667   4.373   8.438  0.9809  0.3879 -0.0928
 2070TIP3    H127845   1.713   4.380   8.521  0.0447  4.0925  0.2795
 2070TIP3    H227846   1.576   4.396   8.458  0.5955  0.7998 -2.0453
 2071TIP3   OH227847   3.414   1.856   2.374  0.0585 -0.5098  0.0909
 2071TIP3    H127848   3.406   1.871   2.469  1.0192 -1.8338  0.4142
 2071TIP3    H227849   3.495   1.899   2.349 -0.1292 -0.2706 -0.1121
 2072TIP3   OH227850   5.543   6.414   7.820  0.0425  0.4767 -0.1387
 2072TIP3    H127851   5.488   6.356   7.874 -0.7805  1.1825 -0.1950
 2072TIP3    H227852   5.592   6.354   7.763 -2.3298 -0.1243 -1.6747
 2073TIP3   OH227853   6.050   4.358   7.961 -0.5936  0.0353 -0.1886
 2073TIP3    H127854   5.985   4.289   7.949  0.2275 -0.6476 -0.8831
 2073TIP3    H227855   6.110   4.321   8.027 -0.6086  0.4389  0.0532
 2074TIP3   OH227856   1.177   1.723   1.339 -0.1024  0.0962 -0.2117
 2074TIP3    H127857   1.198   1.727   1.246  1.5983 -1.5469  0.0285
 2074TIP3    H227858   1.254   1.682   1.379  0.3931  3.0916  2.3168
 2075TIP3   OH227859   1.738   1.277   1.492  0.4872 -0.4934  0.6510
 2075TIP3    H127860   1.828   1.304   1.507  0.2800  0.5646  0.0982
 2075TIP3    H227861   1.691   1.302   1.571  0.3619  0.5074  0.2730
 2076TIP3   OH227862   4.241   1.450   2.326 -0.3203 -0.3025 -0.0266
 2076TIP3    H127863   4.254   1.356   2.333 -3.6865 -0.9830 -0.7938
 2076TIP3    H227864   4.289   1.488   2.400  1.9156 -2.4567 -0.2664
 2077TIP3   OH227865   3.875   6.573   1.924  0.0259 -0.1066  0.1744
 2077TIP3    H127866   3.955   6.591   1.973 -0.3363 -2.8430  1.9981
 2077TIP3    H227867   3.898   6.591   1.832  2.8569 -1.0475  0.5888
 2078TIP3   OH227868   6.536   3.876   0.259  0.0205 -0.1140  0.1955
 2078TIP3    H127869   6.554   3.911   0.346  1.2839  0.0437 -0.1005
 2078TIP3    H227870   6.602   3.807   0.247 -2.0300 -2.2609  0.5342
 2079TIP3   OH227871   3.104   2.949   0.713  0.2164 -0.2849  0.3215
 2079TIP3    H127872   3.189   2.981   0.744  0.6409 -0.4166 -0.6554
 2079TIP3    H227873   3.086   2.873   0.768  1.8558 -1.6583 -0.9459
 2080TIP3   OH227874   5.165   6.460   1.476  0.0842  0.5359  0.0977
 2080TIP3    H127875   5.211   6.450   1.392  0.9679 -2.0242  0.7880
 2080TIP3    H227876   5.108   6.536   1.463  1.7132  1.5078 -2.0941
 2081TIP3   OH227877   2.952   2.980   7.578 -0.6418  0.8205 -0.4376
 2081TIP3    H127878   2.934   2.902   7.525 -0.7622  1.3820 -1.2566
 2081TIP3    H227879   3.046   2.993   7.570 -0.3063 -0.3184  1.2698
 2082TIP3   OH227880   1.255   5.800   2.270  0.7269  0.4937  0.3176
 2082TIP3    H127881   1.167   5.838   2.266 -0.5778 -2.3674 -2.5749
 2082TIP3    H227882   1.240   5.709   2.295  3.1100  0.3184  1.3341
 2083TIP3   OH227883   4.601   3.796   8.250  0.9553  0.0100 -0.2071
 2083TIP3    H127884   4.633   3.837   8.169  0.8122 -2.6865 -1.7525
 2083TIP3    H227885   4.677   3.797   8.308  1.4504  0.7999 -0.8380
 2084TIP3   OH227886   4.147   2.700   7.185 -0.0069 -0.4697 -0.2450
 2084TIP3    H127887   4.099   2.635   7.133  0.4419 -0.7358 -0.3333
 2084TIP3    H227888   4.228   2.656   7.209  0.2536  0.0231 -0.2129
 2085TIP3   OH227889   3.252   2.779   2.336  0.0649 -0.5166 -0.1460
 2085TIP3    H127890   3.272   2.792   2.429  0.3777 -1.8981 -0.0010
 2085TIP3    H227891   3.188   2.708   2.336  0.5354 -0.9518 -1.0213
 2086TIP3   OH227892   4.719   6.053   7.155 -0.3917 -0.0076  0.1013
 2086TIP3    H127893   4.741   5.967   7.191 -0.2942 -0.0582 -0.0777
 2086TIP3    H227894   4.770   6.115   7.208  0.5931 -0.1586 -0.6348
 2087TIP3   OH227895   6.515   6.352   3.250 -0.2585  0.1903  0.2753
 2087TIP3    H127896   6.545   6.268   3.283  0.8922  0.4615 -0.0459
 2087TIP3    H227897   6.431   6.333   3.208  0.1495 -0.8624 -0.0894
 2088TIP3   OH227898   5.563   3.313   8.572  0.6289  0.0372 -0.3095
 2088TIP3    H127899   5.510   3.306   8.652  0.5976 -1.4679 -0.4406
 2088TIP3    H227900   5.617   3.391   8.586  0.8329 -0.3615  1.3129
 2089TIP3   OH227901   1.862   0.121   7.679 -0.4794 -0.6051 -0.3245
 2089TIP3    H127902   1.839   0.197   7.626  0.0792 -0.6725 -0.6683
 2089TIP3    H227903   1.957   0.119   7.678 -0.4504 -0.5174  0.8049
 2090TIP3   OH227904   3.180   2.012   2.879 -0.2464 -0.2620 -0.1828
 2090TIP3    H127905   3.267   1.994   2.914 -0.4293  0.0858  0.4692
 2090TIP3    H227906   3.160   2.101   2.909 -0.9646 -0.4689 -0.0249
 2091TIP3   OH227907   6.910   1.830   1.093 -0.4491 -0.4350  0.2434
 2091TIP3    H127908   6.865   1.754   1.056  0.0668 -0.8137  0.3801
 2091TIP3    H227909   6.840   1.889   1.118 -0.8664  0.9214 -3.4679
 2092TIP3   OH227910   1.416   4.107   8.465 -0.1340  0.2537 -0.1869
 2092TIP3    H127911   1.433   4.077   8.376  0.5039 -0.7999  0.2801
 2092TIP3    H227912   1.328   4.076   8.486 -1.2965  2.5528 -1.2730
 2093TIP3   OH227913   0.245   2.912   7.193  0.2110 -0.2633  0.0272
 2093TIP3    H127914   0.246   2.995   7.145  1.6819 -0.1871  0.1511
 2093TIP3    H227915   0.290   2.850   7.136 -1.7377 -1.2699 -0.5005
 2094TIP3   OH227916   5.622   0.757   2.591 -0.2943  0.1909 -0.0936
 2094TIP3    H127917   5.529   0.738   2.605 -0.3172  0.5885  0.3156
 2094TIP3    H227918   5.659   0.673   2.565 -0.5590 -0.2471  0.8730
 2095TIP3   OH227919   6.620   2.141   0.598  0.5229  0.6345 -0.2958
 2095TIP3    H127920   6.710   2.148   0.631  1.0348 -0.8651 -1.2867
 2095TIP3    H227921   6.580   2.073   0.650 -0.9210  2.9664  1.8646
 2096TIP3   OH227922   5.923   2.457   7.633  0.1383 -0.3842  0.6957
 2096TIP3    H127923   5.904   2.520   7.564 -0.3957 -1.3615 -0.0755
 2096TIP3    H227924   5.868   2.484   7.707  0.0927  0.1829  0.4568
 2097TIP3   OH227925   5.329   5.092   7.504 -0.2197  0.1200 -0.3741
 2097TIP3    H127926   5.249   5.061   7.461  0.1602 -0.3168 -0.7712
 2097TIP3    H227927   5.386   5.120   7.432 -0.2640  1.0401 -0.0612
 2098TIP3   OH227928   1.320   5.081   1.691  0.0187  0.5999  0.0803
 2098TIP3    H127929   1.339   5.069   1.784  1.4378  0.4641 -0.1977
 2098TIP3    H227930   1.228   5.106   1.688  0.2150  1.6201  1.5952
 2099TIP3   OH227931   5.661   5.956   7.152 -0.1343 -0.4133  0.4272
 2099TIP3    H127932   5.604   5.924   7.221  1.4470 -1.5624  1.2626
 2099TIP3    H227933   5.631   5.910   7.073 -1.3757  0.2408  0.4945
 2100TIP3   OH227934   4.716   1.933   0.020  0.5955  0.1012 -0.4475
 2100TIP3    H127935   4.773   2.006   0.045 -2.5488  3.2748 -1.7124
 2100TIP3    H227936   4.747   1.908  -0.067  1.0249  0.6815 -0.4692
 2101TIP3   OH227937   1.505   3.033   2.526  0.3852 -0.1162  0.0166
 2101TIP3    H127938   1.510   2.956   2.583  5.1429  0.7624  1.2672
 2101TIP3    H227939   1.541   3.003   2.443 -0.8799  0.0394 -0.6086
 2102TIP3   OH227940   1.090   5.899   1.772  0.4431  0.0507 -0.3073
 2102TIP3    H127941   1.168   5.845   1.779  1.8106  1.4963 -2.9814
 2102TIP3    H227942   1.029   5.848   1.719  0.1689 -0.4136  0.4360
 2103TIP3   OH227943   1.213   3.757   2.359 -0.1612 -0.2195  0.2345
 2103TIP3    H127944   1.167   3.769   2.443  1.2675 -0.0440  1.0287
 2103TIP3    H227945   1.179   3.675   2.325 -1.3315  0.0862  0.6029
 2104TIP3   OH227946   2.751   6.794   8.499 -0.1002  0.5338  0.7989
 2104TIP3    H127947   2.793   6.821   8.417 -0.8714  0.7249  0.4585
 2104TIP3    H227948   2.726   6.703   8.484  1.3802 -0.0210  1.4958
 2105TIP3   OH227949   1.483   3.776   0.825 -0.1073 -0.9218 -0.3058
 2105TIP3    H127950   1.488   3.850   0.765 -0.9248 -1.2243 -0.7662
 2105TIP3    H227951   1.488   3.815   0.912 -0.8836 -0.2937 -0.5326
 2106TIP3   OH227952   6.634   4.137   8.149  0.5786  0.5025 -0.0004
 2106TIP3    H127953   6.546   4.174   8.143  0.0981 -0.7242 -0.9545
 2106TIP3    H227954   6.631   4.059   8.094  2.0713  0.0468  0.5189
 2107TIP3   OH227955   2.092   2.061   7.202 -0.1246 -0.1414  0.6333
 2107TIP3    H127956   2.040   2.019   7.270 -1.1660 -2.5230 -1.4649
 2107TIP3    H227957   2.182   2.038   7.222 -0.4986 -1.6173  0.7099
 2108TIP3   OH227958   1.914   5.368   1.076  0.2120  0.2395  0.4252
 2108TIP3    H127959   2.009   5.374   1.087  0.0328  0.8349  1.8873
 2108TIP3    H227960   1.897   5.414   0.993  1.3715 -1.6933 -0.9747
 2109TIP3   OH227961   2.584   5.308   0.383  0.1825  0.4844 -0.5166
 2109TIP3    H127962   2.610   5.344   0.297  0.1444  0.6775 -0.4491
 2109TIP3    H227963   2.514   5.366   0.412  0.0042  0.2491 -0.4815
 2110TIP3   OH227964   3.651   2.832   2.454  0.0606 -0.0370  0.5175
 2110TIP3    H127965   3.644   2.865   2.365  0.5665  0.6740  0.7391
 2110TIP3    H227966   3.568   2.855   2.495  1.3213  3.3618  1.4544
 2111TIP3   OH227967   1.817   1.676   2.270 -0.1770 -0.2516  0.1095
 2111TIP3    H127968   1.740   1.714   2.228  0.0148  0.0327  0.0153
 2111TIP3    H227969   1.824   1.589   2.231 -1.1253 -0.7370  0.9617
 2112TIP3   OH227970   1.167   4.117   2.881  0.6103 -0.1811  0.0794
 2112TIP3    H127971   1.197   4.195   2.835 -0.9714  1.0192  0.9920
 2112TIP3    H227972   1.137   4.058   2.812  3.1080 -0.6421 -0.7179
 2113TIP3   OH227973   3.759   4.874   3.196  0.1807  0.1422 -0.1010
 2113TIP3    H127974   3.821   4.838   3.132  0.1590 -0.6092  0.2877
 2113TIP3    H227975   3.709   4.798   3.226  0.9097  0.3049  1.6039
 2114TIP3   OH227976   4.372   6.219   0.422 -0.2778 -0.0427  0.5076
 2114TIP3    H127977   4.458   6.185   0.445  0.2742  0.1178 -1.1683
 2114TIP3    H227978   4.378   6.237   0.328 -1.4342  2.0769  0.7944
 2115TIP3   OH227979   0.768   6.766   1.319 -0.9580 -0.3687  0.3338
 2115TIP3    H127980   0.825   6.716   1.261 -0.4127  0.7868 -0.1515
 2115TIP3    H227981   0.791   6.736   1.407 -1.0631 -1.3836  0.0317
 2116TIP3   OH227982   1.209   3.814   0.594  0.2104  1.1596  0.0444
 2116TIP3    H127983   1.286   3.854   0.554  2.1826 -2.1997  0.0955
 2116TIP3    H227984   1.201   3.858   0.679  2.2067  1.5105  0.1014
 2117TIP3   OH227985   3.980   1.136   7.643 -0.4572  0.1160  0.0907
 2117TIP3    H127986   4.020   1.183   7.569  0.2662  1.2793  1.1950
 2117TIP3    H227987   3.895   1.108   7.609 -0.3022  0.9648 -1.0710
 2118TIP3   OH227988   2.115   3.376   7.971  0.3439 -0.3603  0.2660
 2118TIP3    H127989   2.173   3.323   8.025  1.6319 -0.2311 -0.9308
 2118TIP3    H227990   2.040   3.395   8.027  0.5296 -2.1962  1.1940
 2119TIP3   OH227991   6.551   6.018   7.050  0.1296 -0.5458  0.2927
 2119TIP3    H127992   6.586   6.103   7.076 -1.4961  0.4972 -0.7716
 2119TIP3    H227993   6.597   5.996   6.969 -0.0578 -0.2708  0.1115
 2120TIP3   OH227994   2.367   5.648   1.210 -0.4356 -0.5352  0.1636
 2120TIP3    H127995   2.273   5.659   1.222 -0.3281 -1.2735  2.1823
 2120TIP3    H227996   2.381   5.554   1.221  0.5308 -0.4329 -0.1384
 2121TIP3   OH227997   4.603   3.066   0.628  0.3299 -0.0226 -0.5992
 2121TIP3    H127998   4.580   3.144   0.577  0.0924  0.5148  0.3026
 2121TIP3    H227999   4.566   2.993   0.579 -0.6606  0.5680 -0.7467
 2122TIP3   OH228000   4.774   4.234   1.621 -0.3419 -0.1276 -0.5072
 2122TIP3    H128001   4.759   4.229   1.527 -1.5067  2.2254 -0.5100
 2122TIP3    H228002   4.862   4.198   1.633  0.0192 -0.0479 -2.5397
 2123TIP3   OH228003   4.463   6.479   1.867  0.2363  0.1277 -0.1541
 2123TIP3    H128004   4.532   6.521   1.917 -0.5739  1.3267  0.0049
 2123TIP3    H228005   4.424   6.551   1.816 -0.3597 -0.6707 -0.8492
 2124TIP3   OH228006   3.853   2.242   7.896  0.4909  0.0500  0.3016
 2124TIP3    H128007   3.881   2.155   7.869  0.8276  0.3203 -0.2580
 2124TIP3    H228008   3.923   2.300   7.865  0.5064  0.4654  1.0996
 2125TIP3   OH228009   2.715   4.415   0.964 -0.3417 -0.2124  0.3468
 2125TIP3    H128010   2.766   4.451   1.036 -0.1669 -0.7050  0.4726
 2125TIP3    H228011   2.680   4.333   0.998 -0.3411 -0.3985 -0.0983
 2126TIP3   OH228012   0.131   4.980   8.566  0.1749  0.0073 -0.0191
 2126TIP3    H128013   0.115   5.033   8.644 -2.2157 -0.3071 -0.1945
 2126TIP3    H228014   0.057   4.918   8.565 -0.5071  0.7282 -3.0924
 2127TIP3   OH228015   0.655   4.719   8.550 -0.1379 -0.1126 -0.2238
 2127TIP3    H128016   0.675   4.783   8.618 -1.1345  1.0492 -0.9693
 2127TIP3    H228017   0.729   4.658   8.550  0.2980  0.3977  1.2611
 2128TIP3   OH228018   1.972   6.855   2.439 -0.0021  0.1620  0.1048
 2128TIP3    H128019   1.945   6.774   2.482 -1.5280 -0.1005 -1.2430
 2128TIP3    H228020   1.895   6.912   2.445  0.3058  0.7006 -0.8617
 2129TIP3   OH228021   4.021   3.441   2.609 -0.4226  0.5664 -0.2995
 2129TIP3    H128022   3.964   3.384   2.661 -0.3376  1.0706  0.3603
 2129TIP3    H228023   4.061   3.383   2.545 -2.0497  0.2804 -1.1046
 2130TIP3   OH228024   5.885   0.197   7.916 -0.3574  0.1882 -0.2772
 2130TIP3    H128025   5.803   0.192   7.867  0.3752  1.1374 -1.6778
 2130TIP3    H228026   5.858   0.211   8.007 -1.8520 -4.3109  0.2402
 2131TIP3   OH228027   0.075   2.968   7.694 -0.2307 -0.3024 -0.4785
 2131TIP3    H128028   0.004   2.905   7.710 -0.8280  0.4357 -0.1734
 2131TIP3    H228029   0.052   3.010   7.611  0.7133 -1.2029 -1.2217
 2132TIP3   OH228030   2.870   6.486   8.378 -0.5859 -0.3108  0.3338
 2132TIP3    H128031   2.879   6.398   8.342 -1.5206  0.3829 -1.7308
 2132TIP3    H228032   2.816   6.533   8.314 -0.5949  1.6026  1.6673
 2133TIP3   OH228033   1.503   0.159   7.462 -0.7207  0.2389  0.3931
 2133TIP3    H128034   1.462   0.209   7.391 -1.1804 -0.3262  0.2534
 2133TIP3    H228035   1.430   0.116   7.506 -0.3917  0.2195  0.9339
 2134TIP3   OH228036   1.542   6.796   1.236 -0.3216 -0.4098 -0.4313
 2134TIP3    H128037   1.537   6.769   1.144 -0.3489 -0.3835 -0.4373
 2134TIP3    H228038   1.632   6.776   1.262 -0.1716  0.0374 -0.6022
 2135TIP3   OH228039   2.335   0.833   8.281  0.0511  0.0980  1.0731
 2135TIP3    H128040   2.269   0.850   8.349  1.0831  0.0676  2.1115
 2135TIP3    H228041   2.389   0.911   8.280  0.3930 -0.1382  0.6749
 2136TIP3   OH228042   6.637   4.232   6.540 -0.4424  0.4547  0.3032
 2136TIP3    H128043   6.691   4.270   6.609 -0.8183  2.7136 -0.5562
 2136TIP3    H228044   6.622   4.142   6.568  0.1737  1.0258  2.7037
 2137TIP3   OH228045   5.425   3.140   8.082 -0.2612  0.0511  0.5405
 2137TIP3    H128046   5.450   3.203   8.149 -1.4370  0.7147  0.3962
 2137TIP3    H228047   5.394   3.194   8.009 -0.5747 -0.6776  0.1172
 2138TIP3   OH228048   1.767   0.594   0.422 -0.0141 -0.0223 -0.0765
 2138TIP3    H128049   1.799   0.538   0.493  0.3308 -0.5266 -0.6160
 2138TIP3    H228050   1.701   0.541   0.377  1.4665 -0.7010 -1.6015
 2139TIP3   OH228051   4.516   2.624   1.920  0.1311  0.5555  0.4174
 2139TIP3    H128052   4.605   2.629   1.886  0.3667 -0.5319  0.8420
 2139TIP3    H228053   4.467   2.688   1.868  0.8508  0.1661 -0.7807
 2140TIP3   OH228054   6.771   4.280   6.795 -0.4457 -0.0076 -0.0037
 2140TIP3    H128055   6.819   4.204   6.763  0.9012  0.8612 -0.1383
 2140TIP3    H228056   6.807   4.298   6.881 -0.3046  0.8347 -0.2213
 2141TIP3   OH228057   1.540   1.448   8.540  0.1753  0.5283  0.3542
 2141TIP3    H128058   1.496   1.462   8.456  0.6935 -0.6341 -0.1266
 2141TIP3    H228059   1.478   1.480   8.605 -0.0440  1.8838 -0.4797
 2142TIP3   OH228060   0.740   3.154   7.410  0.1262 -0.0957 -0.2427
 2142TIP3    H128061   0.653   3.121   7.387  0.5948 -0.9292 -0.8598
 2142TIP3    H228062   0.731   3.183   7.501 -0.7023 -0.5167 -0.1795
 2143TIP3   OH228063   2.225   1.615   0.973 -0.3372 -0.0686 -0.3164
 2143TIP3    H128064   2.152   1.658   0.929  0.7399 -0.5610 -2.6945
 2143TIP3    H228065   2.297   1.678   0.970 -0.3505  0.0735  1.2393
 2144TIP3   OH228066   0.979   3.138   2.250 -0.2679 -0.3283  0.3646
 2144TIP3    H128067   0.932   3.055   2.246 -0.3805 -0.6318  4.1969
 2144TIP3    H228068   0.920   3.197   2.296  0.9551  0.9751  0.3312
 2145TIP3   OH228069   3.185   3.315   0.940  0.0162 -0.6647 -0.0527
 2145TIP3    H128070   3.211   3.365   1.017  0.3198  0.2545 -0.7272
 2145TIP3    H228071   3.126   3.248   0.973 -0.6871  0.3597  0.8422
 2146TIP3   OH228072   0.004   4.132   1.306  0.4170 -0.6230  0.1819
 2146TIP3    H128073   0.051   4.057   1.269  0.8300 -0.0858 -0.3779
 2146TIP3    H228074  -0.022   4.184   1.230  0.0305 -0.2507  0.5656
 2147TIP3   OH228075   1.849   6.600   8.529 -0.2251  0.4245 -0.3809
 2147TIP3    H128076   1.862   6.688   8.496 -3.5790  0.6243 -1.4988
 2147TIP3    H228077   1.801   6.555   8.459 -0.1070 -1.7748  0.8642
 2148TIP3   OH228078   5.102   4.976   1.074  0.3586  0.2214 -0.6019
 2148TIP3    H128079   5.140   4.988   1.161 -0.6872 -0.3503 -0.0475
 2148TIP3    H228080   5.022   5.029   1.076 -0.3909 -0.8744 -0.7176
 2149TIP3   OH228081   0.778   5.992   2.351 -0.6614  0.1855  0.1283
 2149TIP3    H128082   0.757   6.060   2.288 -1.0668  0.8820  0.9936
 2149TIP3    H228083   0.723   6.011   2.427  0.6443  0.0741  1.1488
 2150TIP3   OH228084   0.668   0.580   8.167  0.2951  0.2263 -0.2622
 2150TIP3    H128085   0.588   0.590   8.218 -1.0398  0.1461 -2.1952
 2150TIP3    H228086   0.670   0.488   8.142  1.4011  0.0665  0.3412
 2151TIP3   OH228087   1.657   2.990   1.074 -0.3864 -0.1143 -0.5698
 2151TIP3    H128088   1.699   2.927   1.015  0.2031  0.3823 -0.6926
 2151TIP3    H228089   1.653   3.071   1.023  0.4699  0.4295  0.1877
 2152TIP3   OH228090   0.434   5.916   1.033 -0.3641 -0.4995  0.2604
 2152TIP3    H128091   0.400   5.984   0.974  0.0647 -1.4207 -1.0784
 2152TIP3    H228092   0.397   5.835   0.999  0.8864 -1.1911  0.5189
 2153TIP3   OH228093   1.015   1.249   7.959  0.2294  0.4661  0.1628
 2153TIP3    H128094   1.014   1.230   7.865  0.5898  0.8230  0.0807
 2153TIP3    H228095   0.940   1.307   7.973 -0.5127 -0.5146  0.3066
 2154TIP3   OH228096   3.098   2.575   0.425 -0.1497  0.4880 -0.4187
 2154TIP3    H128097   3.064   2.657   0.390  0.8153  0.2520 -1.9639
 2154TIP3    H228098   3.060   2.570   0.514  2.3353  4.2207  1.0938
 2155TIP3   OH228099   2.322   1.050   0.135 -0.6093 -0.0187 -0.6120
 2155TIP3    H128100   2.407   1.009   0.147 -1.8776 -2.0622  2.6169
 2155TIP3    H228101   2.267   0.982   0.096 -0.7502  1.4781 -3.3128
 2156TIP3   OH228102   1.272   5.604   2.619  0.6022  0.0463  0.7983
 2156TIP3    H128103   1.227   5.611   2.703  0.9634 -1.0006  1.0889
 2156TIP3    H228104   1.326   5.684   2.614  1.6043 -0.5127  2.1857
 2157TIP3   OH228105   5.263   2.252   1.058 -0.0775 -0.1206 -0.1923
 2157TIP3    H128106   5.188   2.236   1.002 -0.5312  3.5710 -0.9371
 2157TIP3    H228107   5.326   2.296   1.000  1.8507 -1.2853  0.9137
 2158TIP3   OH228108   5.423   3.564   0.357  0.0426 -0.4272  0.1762
 2158TIP3    H128109   5.381   3.571   0.272 -1.8674  2.0736  1.2023
 2158TIP3    H228110   5.477   3.485   0.351  0.7311  0.1573 -3.6305
 2159TIP3   OH228111   5.050   2.905   0.075  0.0256  0.0403  0.1475
 2159TIP3    H128112   5.007   2.820   0.076 -0.3226  0.1847 -1.1894
 2159TIP3    H228113   5.057   2.928  -0.017  0.2317  1.4135  0.4784
 2160TIP3   OH228114   2.265   2.853   2.608 -1.1655 -0.3218 -0.0594
 2160TIP3    H128115   2.285   2.891   2.523 -0.5275 -0.7110 -0.0922
 2160TIP3    H228116   2.324   2.899   2.669 -1.1757 -0.4835  0.0736
 2161TIP3   OH228117   3.258   0.772   2.992  0.1270  0.4027 -0.6404
 2161TIP3    H128118   3.255   0.750   2.899  0.2988  0.0393 -0.5612
 2161TIP3    H228119   3.184   0.724   3.030 -1.5091  2.4887 -0.9801
 2162TIP3   OH228120   0.599   0.603   2.725 -0.1661 -0.2840  0.1494
 2162TIP3    H128121   0.524   0.639   2.772 -0.0113 -0.2048  0.3378
 2162TIP3    H228122   0.658   0.678   2.712  1.1565 -0.8198  2.4340
 2163TIP3   OH228123   4.929   0.680   0.658 -0.1358  0.6698 -0.1407
 2163TIP3    H128124   4.959   0.592   0.633 -0.2171 -0.0337  2.0175
 2163TIP3    H228125   4.844   0.689   0.615  0.5582  0.3408 -1.6468
 2164TIP3   OH228126   4.579   5.196   3.214 -0.6057  0.1017  0.6673
 2164TIP3    H128127   4.595   5.102   3.222  1.0997  0.2231 -0.6801
 2164TIP3    H228128   4.635   5.236   3.281  0.9799  0.2516 -0.6642
 2165TIP3   OH228129   3.995   2.056   8.117  0.6898 -0.3130  0.2121
 2165TIP3    H128130   4.058   2.122   8.088 -0.4976  1.1150  0.7912
 2165TIP3    H228131   3.955   2.023   8.036  1.3321 -0.4029 -0.0794
 2166TIP3   OH228132   1.296   4.472   1.801 -0.4434 -0.4369 -0.2486
 2166TIP3    H128133   1.251   4.555   1.787  0.1364  0.3740  2.2101
 2166TIP3    H228134   1.388   4.491   1.780 -0.2477 -0.3070  0.6609
 2167TIP3   OH228135   2.775   2.337   1.472 -0.0729 -0.3053 -0.2823
 2167TIP3    H128136   2.832   2.263   1.452 -0.5106 -0.4571 -1.0237
 2167TIP3    H228137   2.707   2.301   1.529 -0.4055 -0.5350 -0.8135
 2168TIP3   OH228138   6.733   6.110   6.610 -0.1198  0.0882  0.0697
 2168TIP3    H128139   6.786   6.190   6.606  1.7583 -0.8273  2.9511
 2168TIP3    H228140   6.741   6.071   6.523  3.3101  0.4951  0.0576
 2169TIP3   OH228141   6.819   4.541   0.586 -0.1595 -0.0828 -0.2572
 2169TIP3    H128142   6.876   4.611   0.618  0.7270 -1.5113  1.4926
 2169TIP3    H228143   6.879   4.469   0.566 -1.1212 -0.6683 -1.1460
 2170TIP3   OH228144   4.676   1.053   0.847  0.0969 -0.2556 -0.0722
 2170TIP3    H128145   4.768   1.051   0.820  0.0107  0.6728 -0.4532
 2170TIP3    H228146   4.647   1.143   0.829 -0.8898 -0.5412  0.0289
 2171TIP3   OH228147   3.988   6.284   8.559 -0.1516 -0.1015  0.0461
 2171TIP3    H128148   3.941   6.304   8.478 -2.1558 -2.7280  0.4019
 2171TIP3    H228149   4.068   6.240   8.530 -1.0755 -1.4635 -0.5994
 2172TIP3   OH228150   1.219   0.845   8.543  0.4467 -0.0936 -0.1001
 2172TIP3    H128151   1.233   0.751   8.554 -1.1146 -0.2599  0.8267
 2172TIP3    H228152   1.251   0.883   8.625 -0.6299 -0.0376  0.3026
 2173TIP3   OH228153   1.603   2.345   2.878  0.3713  0.0559 -0.6677
 2173TIP3    H128154   1.628   2.342   2.970 -0.5614  1.2707 -0.3498
 2173TIP3    H228155   1.565   2.258   2.861  1.9956 -0.7594 -0.3847
 2174TIP3   OH228156   4.510   0.079   7.181  0.4527  0.3547 -0.3984
 2174TIP3    H128157   4.419   0.085   7.209  0.3717 -0.5175 -0.4360
 2174TIP3    H228158   4.506   0.078   7.085  0.4690 -0.0179 -0.3977
 2175TIP3   OH228159   4.004   2.216   2.034 -0.1971 -0.4248  0.2005
 2175TIP3    H128160   4.056   2.240   1.957 -2.0803  1.7139 -0.5226
 2175TIP3    H228161   3.929   2.169   1.998 -0.2512 -0.8850  0.9051
 2176TIP3   OH228162   4.621   0.338   1.035  0.6986 -0.6128  0.0179
 2176TIP3    H128163   4.602   0.323   1.128 -1.2761 -2.2458 -0.5930
 2176TIP3    H228164   4.709   0.376   1.035  0.9195 -0.9614  2.5279
 2177TIP3   OH228165   1.083   3.495   0.879 -0.0155  0.7438  0.0428
 2177TIP3    H128166   1.107   3.579   0.919 -1.1918  2.0253 -1.7772
 2177TIP3    H228167   1.054   3.518   0.791 -0.8866 -1.5347 -0.3323
 2178TIP3   OH228168   3.237   6.574   2.246 -0.1022 -0.0862  0.1539
 2178TIP3    H128169   3.145   6.597   2.234  0.4187  1.2618 -1.7701
 2178TIP3    H228170   3.236   6.497   2.302 -2.4527 -0.7382 -0.6863
 2179TIP3   OH228171   4.509   6.118   8.390 -0.3172  0.0493  0.1316
 2179TIP3    H128172   4.466   6.093   8.308 -0.0758  0.8082 -0.2405
 2179TIP3    H228173   4.587   6.063   8.395 -0.6200 -0.3803  0.1249
 2180TIP3   OH228174   4.099   2.248   7.521  0.0488  0.7498 -0.1950
 2180TIP3    H128175   4.119   2.258   7.428 -0.1680 -0.5985 -0.4117
 2180TIP3    H228176   4.013   2.286   7.532 -0.4983 -0.2521 -0.8380
 2181TIP3   OH228177   1.367   4.988   0.283  0.0724  0.3295 -0.4979
 2181TIP3    H128178   1.367   4.892   0.287 -0.0333  0.3614  0.9006
 2181TIP3    H228179   1.456   5.010   0.254  0.0787 -0.1933 -0.8887
 2182TIP3   OH228180   0.711   3.692   7.228 -0.1150  0.1869 -0.1658
 2182TIP3    H128181   0.721   3.786   7.218 -1.1331  0.2678 -0.6033
 2182TIP3    H228182   0.800   3.657   7.222  0.1265  0.9712 -1.7621
 2183TIP3   OH228183   1.533   3.517   1.838  0.1886 -0.3677  0.3525
 2183TIP3    H128184   1.453   3.569   1.839  0.2099 -0.3226 -0.0248
 2183TIP3    H228185   1.592   3.566   1.779 -0.3534 -1.6461 -1.3312
 2184TIP3   OH228186   0.965   2.439   2.400  0.5009  0.6366 -0.6521
 2184TIP3    H128187   0.944   2.410   2.489  1.5403  0.3776 -0.4771
 2184TIP3    H228188   0.936   2.531   2.397 -0.0863  0.4696 -0.2474
 2185TIP3   OH228189   1.647   6.466   2.450 -0.4514 -0.4604 -0.1542
 2185TIP3    H128190   1.608   6.471   2.538 -0.8336 -2.2398 -0.1928
 2185TIP3    H228191   1.595   6.400   2.404  1.4274 -1.5727 -0.8091
 2186TIP3   OH228192   6.875   2.595   1.660 -0.2189 -0.0392 -0.3307
 2186TIP3    H128193   6.879   2.517   1.605  0.6358 -1.3456  1.4697
 2186TIP3    H228194   6.790   2.590   1.703 -0.0127 -0.1644  0.0602
 2187TIP3   OH228195   2.187   0.032   2.127 -0.4266 -0.3051  0.0860
 2187TIP3    H128196   2.102   0.062   2.096  0.9168  2.5178 -1.2526
 2187TIP3    H228197   2.193   0.063   2.217 -0.9481 -0.8415  0.3071
 2188TIP3   OH228198   3.530   4.870   1.244  0.3181 -0.3174 -0.0413
 2188TIP3    H128199   3.564   4.821   1.168 -1.4682  0.3312 -1.3258
 2188TIP3    H228200   3.465   4.811   1.283 -0.0979  0.0766 -0.1371
 2189TIP3   OH228201   3.903   0.684   3.423 -0.4454 -0.2207 -0.2564
 2189TIP3    H128202   3.892   0.675   3.518 -0.2958 -1.0537 -0.3120
 2189TIP3    H228203   3.861   0.767   3.402  0.8515  0.7572  0.7700
 2190TIP3   OH228204   0.916   1.624   1.269  0.6567 -0.6379 -0.6931
 2190TIP3    H128205   0.860   1.601   1.342  2.8550  2.8845  2.4681
 2190TIP3    H228206   1.003   1.635   1.307  2.2820  0.0254 -4.1349
 2191TIP3   OH228207   4.269   6.260   7.711  0.4189 -0.2254 -0.0323
 2191TIP3    H128208   4.272   6.252   7.616 -2.8552 -0.8525 -0.1719
 2191TIP3    H228209   4.244   6.350   7.727 -1.4793 -0.7354  0.0836
 2192TIP3   OH228210   3.193   6.446   7.955 -0.0846 -0.3269  0.4152
 2192TIP3    H128211   3.280   6.408   7.944 -0.5140 -0.6490 -3.0097
 2192TIP3    H228212   3.133   6.373   7.942 -0.8595  0.6776 -2.3979
 2193TIP3   OH228213   3.653   5.417   8.025 -0.7020 -0.3863 -0.0252
 2193TIP3    H128214   3.713   5.363   8.075 -0.4889  0.2116  0.3817
 2193TIP3    H228215   3.566   5.387   8.050 -0.5833 -0.8152 -0.1196
 2194TIP3   OH228216   5.612   5.055   6.527  0.1501  0.0268  0.4208
 2194TIP3    H128217   5.682   4.989   6.528 -0.0026 -0.1565 -0.1715
 2194TIP3    H228218   5.533   5.006   6.548  0.2503  0.3111  1.5003
 2195TIP3   OH228219   2.929   4.733   7.854  0.2518 -0.6344  1.1357
 2195TIP3    H128220   2.974   4.736   7.770 -2.2007 -1.7468 -0.3265
 2195TIP3    H228221   2.935   4.642   7.881 -1.7312 -0.9989  0.4879
 2196TIP3   OH228222   6.383   6.153   7.731 -0.1329 -0.1556 -0.7019
 2196TIP3    H128223   6.307   6.098   7.751 -0.5105 -0.1917 -2.1342
 2196TIP3    H228224   6.452   6.090   7.706  0.6264 -0.1713  1.2104
 2197TIP3   OH228225   0.213   5.854   8.327 -0.0963  0.5049 -0.2748
 2197TIP3    H128226   0.308   5.851   8.313 -0.2691  0.5574 -1.5736
 2197TIP3    H228227   0.182   5.768   8.299 -0.6569  1.1909 -1.8829
 2198TIP3   OH228228   1.664   2.613   6.980 -1.0146 -0.2548 -0.0849
 2198TIP3    H128229   1.638   2.552   7.050  1.1850  0.1226  1.1483
 2198TIP3    H228230   1.623   2.696   7.005 -0.3168 -0.1444  0.7495
 2199TIP3   OH228231   0.489   4.358   2.403 -0.0707 -0.2071  0.0335
 2199TIP3    H128232   0.430   4.309   2.460  0.7110  0.5026  1.5063
 2199TIP3    H228233   0.567   4.304   2.397 -0.1192 -0.2410 -0.3114
 2200TIP3   OH228234   2.861   1.006   1.904  0.3748  0.1082 -0.0340
 2200TIP3    H128235   2.816   0.959   1.834 -1.6387  1.2149  0.4252
 2200TIP3    H228236   2.835   0.961   1.984  1.1070  0.0057  0.1497
 2201TIP3   OH228237   5.809   6.192   1.710  0.5814 -0.0735  0.5095
 2201TIP3    H128238   5.857   6.230   1.636 -0.1692  0.6694  0.3986
 2201TIP3    H228239   5.782   6.267   1.763 -3.0710 -0.1656 -0.9932
 2202TIP3   OH228240   4.115   3.193   1.088  0.5635  0.2658  0.0588
 2202TIP3    H128241   4.156   3.107   1.085 -1.0724 -0.5415 -1.5091
 2202TIP3    H228242   4.139   3.228   1.174  1.9444 -1.3882  0.4135
 2203TIP3   OH228243   1.080   2.689   8.559 -0.1236  0.9049  0.3497
 2203TIP3    H128244   1.023   2.715   8.632 -0.9179 -0.1268  0.1110
 2203TIP3    H228245   1.150   2.755   8.559 -1.0234  1.8914  0.9788
 2204TIP3   OH228246   6.295   0.720   2.714 -0.1360 -0.1367 -0.0088
 2204TIP3    H128247   6.288   0.738   2.620 -1.0539 -1.6031 -0.2526
 2204TIP3    H228248   6.320   0.803   2.753  1.1950  0.2789 -1.6595
 2205TIP3   OH228249   0.533   5.891   1.319 -0.0380 -0.4443 -0.1364
 2205TIP3    H128250   0.498   5.905   1.231 -0.2438  0.8082  0.1225
 2205TIP3    H228251   0.600   5.823   1.309  0.6444  0.3941 -1.4281
 2206TIP3   OH228252   3.838   6.163   6.858  0.2202  0.6339  0.5390
 2206TIP3    H128253   3.753   6.208   6.857  0.4411  1.1600 -1.9811
 2206TIP3    H228254   3.896   6.221   6.809  1.8808 -0.0637  1.6146
 2207TIP3   OH228255   1.138   2.356   7.935 -0.0985  0.5621  0.1738
 2207TIP3    H128256   1.136   2.448   7.910  0.5030  0.8809  1.2368
 2207TIP3    H228257   1.169   2.356   8.026 -0.6783 -0.6476  0.3953
 2208TIP3   OH228258   5.850   2.166   2.233  0.0274 -0.3249 -0.2367
 2208TIP3    H128259   5.762   2.136   2.257  0.3427 -1.0146  0.0906
 2208TIP3    H228260   5.892   2.187   2.317  0.8098 -1.8360 -0.1966
 2209TIP3   OH228261   4.619   5.073   1.650  0.2382 -0.5128  0.0221
 2209TIP3    H128262   4.603   4.980   1.665  2.1062 -1.2398 -1.9358
 2209TIP3    H228263   4.604   5.084   1.556  0.0458  1.1964  0.2249
 2210TIP3   OH228264   0.199   0.637   0.832  0.2435 -0.2899  0.2615
 2210TIP3    H128265   0.165   0.599   0.913  2.2592 -1.4250  0.6380
 2210TIP3    H228266   0.221   0.727   0.856 -0.8719 -0.0478  0.4499
 2211TIP3   OH228267   2.334   2.801   1.528 -0.5432 -0.2503 -0.1016
 2211TIP3    H128268   2.281   2.847   1.592 -2.4375 -1.1856 -0.9209
 2211TIP3    H228269   2.368   2.725   1.574  1.0385  0.9161  0.7285
 2212TIP3   OH228270   4.114   4.603   2.467 -0.3021 -0.2907  0.1537
 2212TIP3    H128271   4.032   4.637   2.430 -0.3088  1.6092  1.7856
 2212TIP3    H228272   4.181   4.664   2.437  0.1518 -0.4748  0.7713
 2213TIP3   OH228273   3.756   5.891   1.017 -0.0518 -0.5384  0.1808
 2213TIP3    H128274   3.849   5.871   1.032  0.1362  0.1055 -0.1048
 2213TIP3    H228275   3.715   5.875   1.102  0.1336 -1.8371  0.0469
 2214TIP3   OH228276   3.232   4.115   1.810  0.7904  0.1838  0.3511
 2214TIP3    H128277   3.290   4.056   1.858  0.0313 -0.0935  0.9718
 2214TIP3    H228278   3.286   4.153   1.742  1.6332 -0.2333  0.7726
 2215TIP3   OH228279   0.775   5.473   0.883 -0.6861  0.4617 -0.0123
 2215TIP3    H128280   0.784   5.533   0.957  0.8612  0.0659  0.1591
 2215TIP3    H228281   0.790   5.527   0.806  1.4434  0.2428  0.1716
 2216TIP3   OH228282   4.771   5.460   2.505  0.4695 -0.5903  0.5280
 2216TIP3    H128283   4.681   5.490   2.490 -0.3326 -3.1053 -0.3293
 2216TIP3    H228284   4.816   5.478   2.422 -0.2886 -2.4624 -0.3631
 2217TIP3   OH228285   0.627   4.031   1.519 -0.2064  0.5049  0.3459
 2217TIP3    H128286   0.615   4.112   1.471  1.8574  0.8694  0.3302
 2217TIP3    H228287   0.674   4.057   1.599  3.2366 -0.8823 -1.0082
 2218TIP3   OH228288   3.123   2.063   2.607  0.2916 -0.0437  0.3517
 2218TIP3    H128289   3.155   2.025   2.689  0.0946 -1.4191 -0.1779
 2218TIP3    H228290   3.155   2.153   2.607 -0.8498  0.4430  2.5935
 2219TIP3   OH228291   3.924   6.178   0.874 -0.3745 -0.3928 -0.0869
 2219TIP3    H128292   3.966   6.126   0.943  1.2634  0.7061 -0.1944
 2219TIP3    H228293   3.847   6.216   0.916  0.1788 -0.3555  0.9244
 2220TIP3   OH228294   1.862   5.774   8.285 -0.6868  0.1179 -0.1295
 2220TIP3    H128295   1.946   5.818   8.273 -0.7275  0.1720 -0.2143
 2220TIP3    H228296   1.861   5.707   8.217  0.0095 -0.9742  0.8985
 2221TIP3   OH228297   4.631   1.847   1.862 -0.2473 -0.0211 -0.0167
 2221TIP3    H128298   4.605   1.824   1.951  0.1490  0.2432  0.1692
 2221TIP3    H228299   4.584   1.784   1.806  0.2626 -0.8189  0.4382
 2222TIP3   OH228300   0.942   3.856   1.549  0.3033 -0.3562 -0.0947
 2222TIP3    H128301   0.885   3.806   1.607  1.1453  0.8188  1.8353
 2222TIP3    H228302   0.933   3.946   1.578  2.4672 -0.0206 -0.2979
 2223TIP3   OH228303   2.386   6.118   7.030  0.1211  0.6939 -0.2807
 2223TIP3    H128304   2.383   6.181   7.103 -2.8877  2.0128 -1.3816
 2223TIP3    H228305   2.401   6.033   7.072 -2.1506  1.3051  2.0363
 2224TIP3   OH228306   3.029   5.322   1.489 -0.1865  0.1184  0.0829
 2224TIP3    H128307   3.057   5.263   1.559 -3.3216  1.1033  2.4068
 2224TIP3    H228308   3.019   5.266   1.413  1.4497 -1.3949  0.9022
 2225TIP3   OH228309   5.506   1.330   8.264  0.2867  0.1072  0.1631
 2225TIP3    H128310   5.529   1.411   8.309 -1.3647  0.9846 -0.4836
 2225TIP3    H228311   5.489   1.356   8.174 -3.9935 -0.1292  0.6618
 2226TIP3   OH228312   6.708   6.246   0.077 -0.0848  0.6226  0.9625
 2226TIP3    H128313   6.703   6.158   0.113 -0.9323  0.3609  0.2451
 2226TIP3    H228314   6.767   6.293   0.136  0.7337 -0.5404  1.1081
 2227TIP3   OH228315   2.893   1.055   8.248 -0.1444  0.0485 -0.1827
 2227TIP3    H128316   2.939   1.138   8.261 -2.1690  1.3003 -0.6341
 2227TIP3    H228317   2.875   1.024   8.337 -0.7273  0.9126  0.0214
 2228TIP3   OH228318   5.275   3.978   1.931 -0.3613 -0.2112  0.6460
 2228TIP3    H128319   5.308   4.061   1.965  1.3870  0.3020 -1.9576
 2228TIP3    H228320   5.298   3.913   1.997  0.9052  0.9617  1.4134
 2229TIP3   OH228321   5.075   3.598   7.442  0.3983  0.0153 -0.3806
 2229TIP3    H128322   4.994   3.568   7.400  1.1963 -2.1726 -0.4886
 2229TIP3    H228323   5.061   3.692   7.456 -1.9879 -0.2187 -0.7346
 2230TIP3   OH228324   6.054   2.577   1.688 -0.2343  0.1514 -0.1499
 2230TIP3    H128325   5.983   2.516   1.668 -0.2356  0.1994 -0.2967
 2230TIP3    H228326   6.031   2.656   1.640 -0.1494  0.2113 -0.0907
 2231TIP3   OH228327   0.598   0.363   0.773  0.4029  0.3901 -0.0216
 2231TIP3    H128328   0.599   0.303   0.847  0.7012  0.6037  0.1528
 2231TIP3    H228329   0.536   0.325   0.712  1.1178 -0.4885 -0.2318
 2232TIP3   OH228330   1.546   1.896   1.246  0.5037 -0.2564  0.4222
 2232TIP3    H128331   1.507   1.960   1.187 -3.2593 -1.8442  0.8631
 2232TIP3    H228332   1.565   1.820   1.190 -1.2762 -1.0647  0.8476
 2233TIP3   OH228333   1.485   1.116   8.576  0.0418  0.1448 -0.2767
 2233TIP3    H128334   1.568   1.163   8.589  0.5337 -1.2691  2.4177
 2233TIP3    H228335   1.421   1.165   8.629 -0.1074 -0.4962  0.1517
 2234TIP3   OH228336   4.324   5.307   8.397  0.3139  0.0961  0.8581
 2234TIP3    H128337   4.370   5.334   8.317 -0.7330 -2.6203 -0.8203
 2234TIP3    H228338   4.233   5.328   8.380  0.0625 -0.6292  1.2848
 2235TIP3   OH228339   4.826   2.166   0.104 -0.5750  0.5748  0.5964
 2235TIP3    H128340   4.915   2.154   0.138 -0.6653  0.1511  0.6924
 2235TIP3    H228341   4.804   2.256   0.125  1.1130  1.8610 -2.4291
 2236TIP3   OH228342   0.498   6.065   6.660 -0.1446  0.5600 -0.1806
 2236TIP3    H128343   0.499   5.992   6.597  0.6653 -0.0181  0.4714
 2236TIP3    H228344   0.407   6.095   6.661 -0.1985  0.5050 -1.5317
 2237TIP3   OH228345   3.741   0.774   0.886 -0.0503 -0.1969 -0.7109
 2237TIP3    H128346   3.652   0.748   0.912 -0.3040 -0.5070 -1.8314
 2237TIP3    H228347   3.759   0.721   0.808  0.8934  0.2984 -0.8383
 2238TIP3   OH228348   5.473   3.767   2.118  0.1037  0.4649 -0.5159
 2238TIP3    H128349   5.538   3.697   2.117  0.7381  1.0290 -1.5815
 2238TIP3    H228350   5.524   3.847   2.130 -0.7051  0.6996  1.7594
 2239TIP3   OH228351   5.413   3.070   1.708 -0.3042  0.1956 -0.0974
 2239TIP3    H128352   5.359   2.991   1.701 -1.4512  0.8727  0.8121
 2239TIP3    H228353   5.494   3.048   1.662 -0.4857 -1.6201  0.3805
 2240TIP3   OH228354   2.791   2.488   0.977  0.4297 -0.1863  0.1664
 2240TIP3    H128355   2.817   2.417   0.919  0.5300 -0.0973  0.1024
 2240TIP3    H228356   2.858   2.488   1.046 -0.5612 -1.3317  1.1644
 2241TIP3   OH228357   1.497   1.995   7.491  0.0196 -0.4793  0.2987
 2241TIP3    H128358   1.568   2.037   7.541 -1.0405  1.0631  0.5885
 2241TIP3    H228359   1.453   2.068   7.447 -2.2873 -1.1644  1.3016
 2242TIP3   OH228360   6.190   5.731   7.255  0.7379  0.2981  0.3659
 2242TIP3    H128361   6.192   5.651   7.306 -1.4822 -1.9528 -2.7312
 2242TIP3    H228362   6.283   5.756   7.247  1.5218 -2.0606  1.2488
 2243TIP3   OH228363   6.836   3.834   8.513 -0.3170 -0.5281  0.4467
 2243TIP3    H128364   6.884   3.915   8.498 -1.2128  0.0004  0.3647
 2243TIP3    H228365   6.744   3.858   8.502 -0.6205 -1.4693  0.8084
 2244TIP3   OH228366   0.549   4.843   1.499  0.0596  0.3492  0.0892
 2244TIP3    H128367   0.573   4.869   1.410  0.7259 -1.2794 -0.2486
 2244TIP3    H228368   0.454   4.856   1.503  0.1595  1.3833 -0.5073
 2245TIP3   OH228369   1.049   4.639   2.783  0.0812 -0.7334  0.3512
 2245TIP3    H128370   1.137   4.622   2.751  0.2906 -0.8576  0.9827
 2245TIP3    H228371   1.040   4.735   2.778  0.1409 -0.7439  0.0105
 2246TIP3   OH228372   2.287   5.570   7.489 -0.4811  0.2173  0.2145
 2246TIP3    H128373   2.380   5.588   7.505 -0.3371 -1.6918  2.0063
 2246TIP3    H228374   2.282   5.548   7.396  0.6820  1.2326 -0.1132
 2247TIP3   OH228375   6.281   2.590   8.457  0.1915 -0.3609 -0.5538
 2247TIP3    H128376   6.369   2.552   8.463 -0.3648 -1.5221  1.0550
 2247TIP3    H228377   6.263   2.623   8.545 -0.1532  1.9292 -1.4150
 2248TIP3   OH228378   3.916   5.287   3.286  0.5165 -0.0051  0.4970
 2248TIP3    H128379   3.872   5.214   3.329 -0.3014  1.2413  1.9008
 2248TIP3    H228380   3.847   5.331   3.236  0.6987  0.5568  0.7284
 2249TIP3   OH228381   4.560   1.355   8.179  0.3418  0.1194  0.5459
 2249TIP3    H128382   4.509   1.338   8.258 -2.1981  0.5668 -0.9098
 2249TIP3    H228383   4.626   1.285   8.178  0.0195 -0.2810  2.6888
 2250TIP3   OH228384   1.216   4.717   1.740 -0.0026  0.2727  0.2152
 2250TIP3    H128385   1.133   4.759   1.763  1.0608  1.7289  1.6880
 2250TIP3    H228386   1.259   4.780   1.682  1.5612  1.3237  2.3541
 2251TIP3   OH228387   2.691   5.878   2.900 -0.1471 -0.5011  0.2412
 2251TIP3    H128388   2.616   5.880   2.840  0.6059  1.0220 -0.6937
 2251TIP3    H228389   2.753   5.818   2.859  0.3775  0.5577 -0.5652
 2252TIP3   OH228390   0.886   1.924   1.209  0.1430  0.1198  0.2514
 2252TIP3    H128391   0.868   1.955   1.120 -3.2812 -2.1409 -0.0336
 2252TIP3    H228392   0.892   1.828   1.200  2.0623 -0.0110  2.1833
 2253TIP3   OH228393   5.184   2.563   1.195  0.5679 -1.0794  0.2646
 2253TIP3    H128394   5.260   2.557   1.252  0.1863  1.7068  1.2430
 2253TIP3    H228395   5.219   2.582   1.108  1.0424  1.5907  0.9703
 2254TIP3   OH228396   4.705   3.139   1.278  0.2207  0.0916 -1.0207
 2254TIP3    H128397   4.747   3.069   1.328 -1.3562 -0.7798 -0.8459
 2254TIP3    H228398   4.715   3.217   1.333 -1.6317 -0.8745  0.8288
 2255TIP3   OH228399   4.813   3.967   2.398  0.4696  0.3166 -0.6436
 2255TIP3    H128400   4.792   3.900   2.333  1.5526  0.6927 -1.4090
 2255TIP3    H228401   4.840   3.918   2.475 -3.5630 -0.2261  0.6240
 2256TIP3   OH228402   4.226   4.703   7.757 -0.0663 -0.3825  0.0624
 2256TIP3    H128403   4.299   4.644   7.774  1.2657  1.1159 -0.1961
 2256TIP3    H228404   4.215   4.700   7.662  2.0712  1.9820 -0.3826
 2257TIP3   OH228405   5.466   1.856   0.781  0.2953 -0.3814 -0.2538
 2257TIP3    H128406   5.536   1.795   0.804 -2.1169 -3.5377 -0.6968
 2257TIP3    H228407   5.425   1.879   0.864 -0.2419 -1.2466 -0.2769
 2258TIP3   OH228408   0.153   5.517   7.171  0.1182  0.0744 -0.1120
 2258TIP3    H128409   0.185   5.454   7.235  0.4686  0.7914  0.4377
 2258TIP3    H228410   0.085   5.471   7.122  1.0224 -1.0310 -0.3552
 2259TIP3   OH228411   1.064   6.359   2.064 -0.3144 -0.0262 -0.3692
 2259TIP3    H128412   1.020   6.325   1.986 -1.0664  2.9017 -1.3606
 2259TIP3    H228413   0.997   6.353   2.133 -1.2108  1.3430 -1.0673
 2260TIP3   OH228414   2.286   0.519   1.886  1.0196 -0.2887 -0.2409
 2260TIP3    H128415   2.230   0.569   1.827 -1.2104 -1.4542  0.7653
 2260TIP3    H228416   2.349   0.583   1.919  1.3708  0.7111 -2.6654
 2261TIP3   OH228417   4.789   4.129   7.024  0.2063  0.3041  0.0658
 2261TIP3    H128418   4.759   4.063   6.961  0.1215  0.6997 -0.3177
 2261TIP3    H228419   4.710   4.159   7.068  0.2408  0.1717  0.2175
 2262TIP3   OH228420   0.689   3.136   0.775  0.0067  0.1349 -0.3987
 2262TIP3    H128421   0.780   3.131   0.804  0.0745 -0.8724 -0.7503
 2262TIP3    H228422   0.690   3.198   0.702  0.1668  1.1908  0.4855
 2263TIP3   OH228423   1.924   3.430   1.071 -0.8766  0.2839  0.1088
 2263TIP3    H128424   1.960   3.519   1.082 -2.4350  0.9599 -0.0286
 2263TIP3    H228425   1.881   3.411   1.153  0.9735 -1.1344  0.8228
 2264TIP3   OH228426   5.918   1.071   1.583 -0.6043 -0.1796 -0.4368
 2264TIP3    H128427   5.960   0.988   1.559  2.2526  0.4989  1.6561
 2264TIP3    H228428   5.871   1.053   1.664 -3.2196 -0.5416 -1.9374
 2265TIP3   OH228429   2.677   0.152   8.404 -0.5324  0.0745  0.4847
 2265TIP3    H128430   2.663   0.075   8.349 -0.1082  0.8336 -0.7136
 2265TIP3    H228431   2.597   0.203   8.394 -0.5218  0.1346  0.7097
 2266TIP3   OH228432   0.218   1.809   0.914 -0.3727  0.1868 -0.2420
 2266TIP3    H128433   0.211   1.820   1.008 -0.5524  0.7051 -0.3113
 2266TIP3    H228434   0.308   1.779   0.899 -0.0508  1.0020  0.0176
 2267TIP3   OH228435   5.900   5.185   3.166 -0.5429 -0.1254 -0.3300
 2267TIP3    H128436   5.990   5.193   3.198 -1.5942 -0.7795  3.2953
 2267TIP3    H228437   5.890   5.258   3.104  2.2461  0.3527 -0.3511
 2268TIP3   OH228438   5.915   2.486   2.253  0.0550  0.4755 -0.5290
 2268TIP3    H128439   5.959   2.570   2.248 -0.1746  0.6209 -0.1523
 2268TIP3    H228440   5.978   2.428   2.296  0.2921  0.3999 -0.9753
 2269TIP3   OH228441   2.290   3.206   1.898 -0.3181  0.1160 -0.3353
 2269TIP3    H128442   2.309   3.120   1.936  0.0894  0.3764  0.0574
 2269TIP3    H228443   2.375   3.246   1.882 -0.5006  0.3476 -0.7605
 2270TIP3   OH228444   3.257   3.482   2.408 -0.1678 -0.0629 -0.2958
 2270TIP3    H128445   3.315   3.434   2.349  1.4342 -0.8335  1.8142
 2270TIP3    H228446   3.287   3.459   2.496 -3.4713 -0.2424  0.9275
 2271TIP3   OH228447   3.679   6.147   0.111 -0.3792  0.0361  0.5482
 2271TIP3    H128448   3.639   6.233   0.093 -0.4610  0.5070  2.7480
 2271TIP3    H228449   3.740   6.164   0.182  0.2145 -1.6098  0.4570
 2272TIP3   OH228450   3.848   6.869   7.327  0.6911 -0.1273 -0.3341
 2272TIP3    H128451   3.828   6.921   7.250  1.6123 -0.1135 -0.5687
 2272TIP3    H228452   3.884   6.931   7.390 -2.1068  0.3105  0.9938
 2273TIP3   OH228453   1.444   4.619   0.670 -0.1594 -0.1067  0.1725
 2273TIP3    H128454   1.484   4.694   0.713  0.9994 -1.5761  1.8403
 2273TIP3    H228455   1.451   4.548   0.734 -0.7892 -1.7626 -1.4763
 2274TIP3   OH228456   0.275   4.265   1.332 -0.1932 -0.4473 -0.0298
 2274TIP3    H128457   0.224   4.330   1.283 -0.2726 -0.2274  0.3402
 2274TIP3    H228458   0.245   4.274   1.423  0.3248 -0.4883  0.1503
 2275TIP3   OH228459   0.298   2.416   2.341  0.1082  0.2625 -0.1904
 2275TIP3    H128460   0.365   2.478   2.313  0.3912 -0.1034 -0.3454
 2275TIP3    H228461   0.329   2.383   2.425 -0.9022  1.5966  0.7493
 2276TIP3   OH228462   1.542   0.455   0.384  0.0469 -0.1212 -0.1182
 2276TIP3    H128463   1.585   0.439   0.468  0.8253  2.1851  0.0069
 2276TIP3    H228464   1.466   0.397   0.384 -0.3478  0.2785  2.4814
 2277TIP3   OH228465   2.795   2.525   7.954  0.7671 -0.3146  0.2530
 2277TIP3    H128466   2.758   2.438   7.972 -2.7086  0.6323 -1.4192
 2277TIP3    H228467   2.720   2.584   7.960  2.4663  2.1910 -1.4287
 2278TIP3   OH228468   2.865   3.016   8.049 -0.0652  0.2553  0.0372
 2278TIP3    H128469   2.850   2.965   7.968  0.5797 -0.3796  0.3016
 2278TIP3    H228470   2.777   3.039   8.079 -0.3031  1.0541 -1.1808
 2279TIP3   OH228471   2.295   5.601   7.212 -0.4852  0.5962  0.6175
 2279TIP3    H128472   2.388   5.606   7.187  0.3683 -0.1160  3.2992
 2279TIP3    H228473   2.254   5.550   7.142  1.7872 -1.6733  0.7702
 2280TIP3   OH228474   4.225   1.015   0.749  0.1638  0.0016  0.1183
 2280TIP3    H128475   4.277   0.960   0.808 -1.4663  0.1134  1.7400
 2280TIP3    H228476   4.248   1.104   0.773 -0.9325  0.0567  1.0423
 2281TIP3   OH228477   6.016   6.063   1.941  0.3987 -0.1105  0.1559
 2281TIP3    H128478   5.977   6.102   1.862  2.2438  0.8826 -0.3236
 2281TIP3    H228479   6.009   6.131   2.008  0.5265 -0.2474  0.3108
 2282TIP3   OH228480   6.515   1.121   0.721 -0.2796  0.0532 -0.4284
 2282TIP3    H128481   6.467   1.068   0.784  0.4557 -0.2478 -0.1078
 2282TIP3    H228482   6.535   1.202   0.769 -1.7869  0.8386 -1.0576
 2283TIP3   OH228483   3.003   3.306   1.809 -0.0120  0.4886  0.0967
 2283TIP3    H128484   2.938   3.266   1.867  0.4419  0.9122  0.9230
 2283TIP3    H228485   3.018   3.241   1.741 -0.6893  0.0501  0.3503
 2284TIP3   OH228486   5.348   6.732   7.825  0.2558  0.0759  0.1227
 2284TIP3    H128487   5.348   6.825   7.802  1.8428  0.1794  0.4423
 2284TIP3    H228488   5.413   6.693   7.767 -1.1503 -1.0639 -0.7559
 2285TIP3   OH228489   2.419   5.932   0.221 -0.2890  0.3030 -0.3604
 2285TIP3    H128490   2.414   5.837   0.210 -1.7583  0.1129  1.4393
 2285TIP3    H228491   2.434   5.944   0.315 -0.4229  1.8631 -0.5170
 2286TIP3   OH228492   3.730   2.729   8.205  0.2079 -0.1658 -0.3447
 2286TIP3    H128493   3.670   2.659   8.178  0.7060 -0.6622 -0.1787
 2286TIP3    H228494   3.675   2.791   8.252  0.0661 -1.3446  1.1090
 2287TIP3   OH228495   5.840   5.105   7.858 -0.1032 -0.0173  0.4356
 2287TIP3    H128496   5.882   5.167   7.918  0.1450 -0.0784  0.3238
 2287TIP3    H228497   5.906   5.038   7.842  0.3732  0.7685 -1.0831
 2288TIP3   OH228498   5.550   4.297   7.655  0.5450  0.1810 -0.4689
 2288TIP3    H128499   5.589   4.307   7.568 -0.6210 -2.2914 -1.3575
 2288TIP3    H228500   5.470   4.348   7.652  0.6680  0.3630 -0.7148
 2289TIP3   OH228501   5.146   4.080   0.619 -0.3234 -0.3380 -0.3092
 2289TIP3    H128502   5.201   4.033   0.683 -1.1634 -0.6873  0.1671
 2289TIP3    H228503   5.209   4.120   0.559  0.4468 -1.4516 -0.2827
 2290TIP3   OH228504   6.509   6.530   7.267 -0.2965  0.1169 -1.1719
 2290TIP3    H128505   6.567   6.505   7.196  1.6511 -1.2934  0.7907
 2290TIP3    H228506   6.562   6.522   7.346 -3.3465 -2.1264  0.8931
 2291TIP3   OH228507   2.607   2.219   0.692  0.7544 -0.5710 -0.1027
 2291TIP3    H128508   2.594   2.277   0.767  1.9738 -0.2828 -0.0978
 2291TIP3    H228509   2.700   2.226   0.672  0.5710 -1.1503 -1.2400
 2292TIP3   OH228510   2.408   0.725   1.289 -0.3748 -0.3409 -0.5766
 2292TIP3    H128511   2.405   0.821   1.295 -0.3224 -0.3722 -0.0715
 2292TIP3    H228512   2.483   0.707   1.231  1.2988 -0.1517  1.4222
 2293TIP3   OH228513   0.316   2.668   1.787  0.0113  0.8636 -0.1851
 2293TIP3    H128514   0.325   2.627   1.701 -1.5877 -1.2581  0.5697
 2293TIP3    H228515   0.228   2.707   1.786  0.2154  1.3582  0.2986
 2294TIP3   OH228516   0.400   6.484   1.782  0.2640  0.1696  0.0402
 2294TIP3    H128517   0.322   6.519   1.826 -0.8378  0.4727 -2.0466
 2294TIP3    H228518   0.407   6.534   1.701  1.6030 -1.0481 -0.6474
 2295TIP3   OH228519   0.289   2.102   2.646 -0.2786  0.9165 -0.0629
 2295TIP3    H128520   0.275   2.020   2.600 -0.2416  0.7378  0.2389
 2295TIP3    H228521   0.338   2.077   2.725  1.8080  1.5254 -1.1155
 2296TIP3   OH228522   0.244   2.180   7.446  0.1349 -0.0424  0.2051
 2296TIP3    H128523   0.235   2.271   7.419 -1.2680 -0.2963 -0.2716
 2296TIP3    H228524   0.237   2.130   7.365 -0.3036 -0.6260  0.5925
 2297TIP3   OH228525   1.968   2.879   0.439  0.5205 -0.6374  0.4727
 2297TIP3    H128526   1.939   2.960   0.397  0.8712 -0.3810  0.7170
 2297TIP3    H228527   1.890   2.846   0.483  0.3942 -0.3927  0.4342
 2298TIP3   OH228528   6.426   3.232   2.066 -0.0965  0.7375  0.0852
 2298TIP3    H128529   6.489   3.231   2.138  0.1966  0.2378 -0.1739
 2298TIP3    H228530   6.473   3.196   1.992 -0.1759  1.9024 -0.5591
 2299TIP3   OH228531   3.884   4.090   8.054  0.0421 -0.0748 -0.0299
 2299TIP3    H128532   3.949   4.025   8.027 -0.3350 -0.2443 -0.5434
 2299TIP3    H228533   3.823   4.041   8.110  1.5588  0.5611  2.3003
 2300TIP3   OH228534   3.740   3.469   8.113  0.7793 -0.2253 -0.2395
 2300TIP3    H128535   3.719   3.556   8.080  2.5444  1.1962  2.0387
 2300TIP3    H228536   3.792   3.429   8.044  0.9806  1.0238 -0.8378
 2301TIP3   OH228537   2.088   5.091   8.366  0.1791  0.3090 -0.2976
 2301TIP3    H128538   2.062   5.000   8.381 -0.3963  0.3383 -1.0423
 2301TIP3    H228539   2.105   5.126   8.453 -1.2227 -0.0399  0.1353
 2302TIP3   OH228540   5.761   3.183   1.628  0.2017 -0.4563 -0.7664
 2302TIP3    H128541   5.839   3.233   1.603 -0.7326  0.4831 -1.9462
 2302TIP3    H228542   5.756   3.193   1.723  0.3101  1.3469 -0.9001
 2303TIP3   OH228543   0.825   0.257   7.012 -0.3172  0.2333 -0.6342
 2303TIP3    H128544   0.842   0.302   6.930  0.6803 -0.3176 -0.7429
 2303TIP3    H228545   0.763   0.188   6.989 -1.1751  0.9892 -0.6318
 2304TIP3   OH228546   1.278   1.732   1.080  0.1405 -0.2489  0.3703
 2304TIP3    H128547   1.317   1.803   1.029 -1.1597  0.4788  0.3394
 2304TIP3    H228548   1.222   1.686   1.017 -0.7223  0.0651  0.8884
 2305TIP3   OH228549   5.259   6.368   0.430 -0.1650 -0.0074 -0.0696
 2305TIP3    H128550   5.256   6.391   0.337 -0.4330 -0.7446 -0.2451
 2305TIP3    H228551   5.233   6.276   0.433  1.4133 -0.4619  0.5692
 2306TIP3   OH228552   2.089   5.935   2.143  0.5809  0.0037 -0.4838
 2306TIP3    H128553   2.169   5.983   2.122  1.1075 -0.3118  0.7084
 2306TIP3    H228554   2.062   5.970   2.228 -1.2460  0.9655 -1.4028
 2307TIP3   OH228555   3.986   5.655   0.883  0.1202 -0.0918  0.2162
 2307TIP3    H128556   3.930   5.708   0.825  2.1041  0.9321 -0.8626
 2307TIP3    H228557   4.052   5.717   0.915  1.7421 -1.6452 -0.0316
 2308TIP3   OH228558   3.279   2.659   0.646 -0.1147  0.1878  0.2591
 2308TIP3    H128559   3.188   2.629   0.642 -0.6465  1.8318 -1.1044
 2308TIP3    H228560   3.330   2.578   0.647 -1.5185 -0.8756 -2.4176
 2309TIP3   OH228561   0.962   0.364   7.266 -0.1006  0.3521  0.1928
 2309TIP3    H128562   1.025   0.417   7.217 -0.3339 -0.3433 -0.8952
 2309TIP3    H228563   0.911   0.318   7.198  0.4830 -1.7288  1.0764
 2310TIP3   OH228564   1.525   2.422   8.031  0.7423 -0.6859 -0.5774
 2310TIP3    H128565   1.607   2.468   8.014  0.0053 -0.4231 -3.9817
 2310TIP3    H228566   1.490   2.401   7.945 -2.3957 -1.5438  0.7558
 2311TIP3   OH228567   4.091   3.616   2.788 -0.3263  0.4114 -0.0313
 2311TIP3    H128568   4.001   3.639   2.809 -0.6946 -2.3825  2.0667
 2311TIP3    H228569   4.083   3.551   2.718 -0.1652 -1.2387  1.4141
 2312TIP3   OH228570   0.266   5.085   0.917  0.3633 -0.1055  0.4964
 2312TIP3    H128571   0.245   5.108   1.007 -0.8871  0.2884  0.1271
 2312TIP3    H228572   0.346   5.134   0.897  0.6107 -0.1495  1.3646
 2313TIP3   OH228573   6.164   1.597   8.228  0.2602  0.3990 -0.4064
 2313TIP3    H128574   6.074   1.568   8.243  1.1494 -2.1409  0.5927
 2313TIP3    H228575   6.168   1.617   8.135 -1.1969 -0.0042 -0.5797
 2314TIP3   OH228576   4.391   1.838   7.652 -0.1343  1.2201 -0.3037
 2314TIP3    H128577   4.322   1.897   7.623 -2.7763  0.4287  3.5200
 2314TIP3    H228578   4.355   1.751   7.639  0.0015  0.7912  1.7793
 2315TIP3   OH228579   1.080   4.944   0.779  0.0572 -0.8527  0.1362
 2315TIP3    H128580   1.123   5.029   0.777  2.1048 -1.8430 -0.0785
 2315TIP3    H228581   1.104   4.903   0.696 -4.1008 -0.2389 -1.6538
 2316TIP3   OH228582   2.967   4.201   0.737 -0.3792  0.2033 -0.4643
 2316TIP3    H128583   2.954   4.284   0.784 -0.6321  0.4214 -0.9060
 2316TIP3    H228584   3.034   4.221   0.671 -1.6746  0.5459 -1.7228
 2317TIP3   OH228585   2.694   5.890   2.560  0.3568  0.5304 -0.2821
 2317TIP3    H128586   2.769   5.932   2.603  0.4662  0.7403 -0.6731
 2317TIP3    H228587   2.634   5.868   2.632  1.3071 -0.7008  0.1707
 2318TIP3   OH228588   0.461   5.569   2.198  0.0172  0.0008  0.2033
 2318TIP3    H128589   0.532   5.613   2.246  0.5813 -0.1858 -0.4322
 2318TIP3    H228590   0.414   5.518   2.264  0.4686  0.1466  0.6400
 2319TIP3   OH228591   5.875   0.228   0.505  0.4048 -0.3459  0.0408
 2319TIP3    H128592   5.794   0.274   0.526  0.4621 -0.7266  1.1213
 2319TIP3    H228593   5.874   0.150   0.559  2.1222  0.3137  1.1277
 2320TIP3   OH228594   0.912   4.626   1.929  0.0900  0.1224  0.3414
 2320TIP3    H128595   0.958   4.675   1.861 -1.9943  0.5320 -0.8427
 2320TIP3    H228596   0.904   4.688   2.002  0.5581  0.3566  0.1986
 2321TIP3   OH228597   6.086   3.372   7.950  0.5942 -0.2273 -0.2836
 2321TIP3    H128598   6.135   3.335   8.023 -1.6412 -1.3040  0.7702
 2321TIP3    H228599   5.995   3.372   7.980  0.0743  3.3738 -1.4121
 2322TIP3   OH228600   2.431   4.309   7.850  0.0613 -0.1450 -0.3838
 2322TIP3    H128601   2.414   4.220   7.879 -2.0045  0.9145  2.0057
 2322TIP3    H228602   2.427   4.304   7.754  1.7342 -2.8537 -0.3991
 2323TIP3   OH228603   0.497   4.484   2.040  0.2228 -0.0853 -0.0782
 2323TIP3    H128604   0.568   4.429   2.071  0.6427  0.7889  0.5321
 2323TIP3    H228605   0.538   4.544   1.977  0.0743  0.5308  0.3993
 2324TIP3   OH228606   2.701   4.149   2.613  0.4032  0.4227 -0.1531
 2324TIP3    H128607   2.725   4.071   2.663  1.6117 -0.6873 -2.3751
 2324TIP3    H228608   2.696   4.219   2.679 -0.5424 -1.4453  1.8687
 2325TIP3   OH228609   6.531   2.287   2.028 -0.1985  0.1050 -0.0322
 2325TIP3    H128610   6.514   2.269   1.936  1.2419  0.1539 -0.3393
 2325TIP3    H228611   6.503   2.208   2.074  0.0534 -0.3395 -0.6339
 2326TIP3   OH228612   4.329   6.366   0.176 -0.4931 -0.4016  0.2157
 2326TIP3    H128613   4.243   6.378   0.217 -0.5492 -0.0248 -0.0073
 2326TIP3    H228614   4.335   6.438   0.113  0.5603  0.3754  1.1709
 2327TIP3   OH228615   2.871   4.519   8.123  0.0660  0.1176 -0.7067
 2327TIP3    H128616   2.904   4.558   8.204 -0.6582  0.3205 -0.5037
 2327TIP3    H228617   2.948   4.479   8.083  0.2502 -0.9306  0.6060
 2328TIP3   OH228618   6.077   0.084   2.078  0.1643 -0.1459  0.3693
 2328TIP3    H128619   6.094   0.161   2.133  0.1024  1.1955 -1.3810
 2328TIP3    H228620   6.081   0.118   1.989 -1.0828 -1.9575 -0.4279
 2329TIP3   OH228621   5.874   5.136   8.290 -0.0658 -0.3138  0.0598
 2329TIP3    H128622   5.906   5.143   8.200 -2.0768 -0.5417 -0.7285
 2329TIP3    H228623   5.944   5.091   8.337  1.0296 -0.1919 -1.3812
 2330TIP3   OH228624   0.784   6.341   1.559 -0.1186 -0.9642 -0.6678
 2330TIP3    H128625   0.769   6.273   1.495  0.1776 -1.0506 -0.6435
 2330TIP3    H228626   0.878   6.337   1.579 -0.3435 -1.4954  0.3882
 2331TIP3   OH228627   0.926   2.451   0.963  0.1740 -0.1839  0.3580
 2331TIP3    H128628   0.884   2.439   1.048 -0.2279 -1.3890  0.0079
 2331TIP3    H228629   1.020   2.441   0.981 -0.0090 -2.2756  0.4037
 2332TIP3   OH228630   5.238   0.040   2.618  0.7148 -0.4703 -0.5327
 2332TIP3    H128631   5.256   0.091   2.539 -0.2343 -0.0175 -0.4703
 2332TIP3    H228632   5.150   0.005   2.605  0.0168  0.6513  0.8384
 2333TIP3   OH228633   3.836   1.066   8.419 -0.2147  0.3927  0.7325
 2333TIP3    H128634   3.863   1.001   8.484  0.6250 -0.8638 -0.7880
 2333TIP3    H228635   3.856   1.025   8.335 -2.4547  1.4093 -0.3847
 2334TIP3   OH228636   0.660   3.596   1.476  0.4077 -0.1819  0.1406
 2334TIP3    H128637   0.590   3.535   1.452 -0.2667  1.0326 -1.1588
 2334TIP3    H228638   0.660   3.661   1.406  2.2577  0.3621  0.5793
 2335TIP3   OH228639   4.920   0.798   1.507 -0.2196 -0.2027 -0.1099
 2335TIP3    H128640   4.895   0.783   1.416 -0.6557  0.3767 -0.0891
 2335TIP3    H228641   4.855   0.859   1.541 -0.1141 -0.4779  0.6185
 2336TIP3   OH228642   2.922   6.326   2.307  0.5969  0.2871 -0.2411
 2336TIP3    H128643   2.851   6.276   2.348  2.1651  0.5858  3.1973
 2336TIP3    H228644   2.979   6.259   2.270 -0.1047 -0.1212 -0.5967
 2337TIP3   OH228645   3.323   0.449   1.807  0.7607 -0.5513  0.1692
 2337TIP3    H128646   3.302   0.494   1.888  2.6728  0.4419  0.1819
 2337TIP3    H228647   3.268   0.371   1.807 -1.6813  1.0903  0.7970
 2338TIP3   OH228648   3.007   6.297   1.474 -0.3644 -0.7364 -0.1422
 2338TIP3    H128649   3.093   6.306   1.517 -1.3909  2.0653  1.6278
 2338TIP3    H228650   3.025   6.313   1.381  0.8042  2.8332  0.5228
 2339TIP3   OH228651   4.835   3.184   8.518  0.0665 -0.3008 -0.1034
 2339TIP3    H128652   4.834   3.104   8.571 -2.3330 -0.6536 -0.5507
 2339TIP3    H228653   4.763   3.172   8.456  0.5317  1.6351 -1.0810
 2340TIP3   OH228654   2.978   6.162   0.393  0.3813  0.4033  0.1460
 2340TIP3    H128655   3.066   6.157   0.354  0.8258  0.0560  1.1543
 2340TIP3    H228656   2.922   6.113   0.333  0.9269  0.3871 -0.3616
 2341TIP3   OH228657   6.015   5.324   1.596  0.2590  0.2963 -0.4380
 2341TIP3    H128658   6.024   5.417   1.615 -1.2454  0.1324  1.4588
 2341TIP3    H228659   6.089   5.283   1.641  0.0344  0.4622  0.0959
 2342TIP3   OH228660   5.566   3.611   7.967 -0.2914  0.6052  0.4747
 2342TIP3    H128661   5.645   3.603   8.020  1.0539  1.2585 -1.3301
 2342TIP3    H228662   5.507   3.544   8.001  1.8262 -1.3253  0.5371
 2343TIP3   OH228663   6.572   4.637   8.199  0.8361 -0.1307 -0.2774
 2343TIP3    H128664   6.652   4.652   8.249  1.8079 -2.6140 -0.9584
 2343TIP3    H228665   6.598   4.646   8.108  0.2296 -0.4914 -0.4929
 2344TIP3   OH228666   5.397   5.743   0.378 -0.2392 -0.0584  0.0903
 2344TIP3    H128667   5.476   5.698   0.350  0.7882  0.4119  2.0575
 2344TIP3    H228668   5.366   5.692   0.453 -1.0845  0.5112  0.1483
 2345TIP3   OH228669   6.729   4.875   0.535  0.1187  0.2757 -0.2116
 2345TIP3    H128670   6.816   4.882   0.573  1.3831  0.5595 -2.9425
 2345TIP3    H228671   6.708   4.964   0.507 -0.4849 -0.0228 -0.7255
 2346TIP3   OH228672   3.501   6.013   7.126 -0.1745  0.1582  0.0992
 2346TIP3    H128673   3.521   6.097   7.168 -0.8179  0.3629  0.0004
 2346TIP3    H228674   3.579   5.960   7.142 -0.1375  0.4554  0.9726
 2347TIP3   OH228675   2.675   4.735   0.248  0.1728  0.2022  0.5600
 2347TIP3    H128676   2.695   4.692   0.331 -2.0304 -0.2245  0.9275
 2347TIP3    H228677   2.608   4.679   0.208  0.3255  1.0534 -0.9422
 2348TIP3   OH228678   2.209   6.391   1.671 -0.3886 -0.0432 -0.1994
 2348TIP3    H128679   2.302   6.368   1.673 -0.0270  1.0980 -1.6703
 2348TIP3    H228680   2.168   6.329   1.731  1.0232 -1.9795 -1.1103
 2349TIP3   OH228681   4.304   6.333   8.453 -0.0523 -0.4525 -0.0236
 2349TIP3    H128682   4.301   6.251   8.502  0.1459  0.6472  1.9035
 2349TIP3    H228683   4.397   6.350   8.440 -0.0698 -0.2031  0.1690
 2350TIP3   OH228684   4.736   1.903   7.683  0.2102  0.2692 -0.3753
 2350TIP3    H128685   4.732   1.868   7.595  0.4583  2.3770 -1.2879
 2350TIP3    H228686   4.646   1.894   7.716 -0.1489  0.4735 -1.2631
 2351TIP3   OH228687   1.244   2.641   1.106  0.7476 -0.1026  0.3469
 2351TIP3    H128688   1.329   2.681   1.124  0.6399  0.8157 -1.0466
 2351TIP3    H228689   1.248   2.615   1.015 -0.3526 -0.3309  0.3467
 2352TIP3   OH228690   5.437   1.657   1.615  0.1563 -0.3073  0.2208
 2352TIP3    H128691   5.377   1.616   1.678 -0.0015 -0.7937 -0.2440
 2352TIP3    H228692   5.434   1.601   1.538  0.5622  0.1359 -0.1264
 2353TIP3   OH228693   2.566   3.965   8.474 -0.0960 -0.4993 -0.1182
 2353TIP3    H128694   2.641   3.952   8.417  0.8532  0.7756  0.7647
 2353TIP3    H228695   2.586   3.913   8.552 -1.7453 -2.8649 -1.1605
 2354TIP3   OH228696   6.742   2.408   1.161  0.3463 -0.0582 -0.2898
 2354TIP3    H128697   6.697   2.361   1.091 -1.2714  2.5205 -1.1487
 2354TIP3    H228698   6.812   2.457   1.116 -0.4266  1.2761 -0.0904
 2355TIP3   OH228699   0.710   6.379   8.153 -0.3676 -0.4945 -0.4741
 2355TIP3    H128700   0.765   6.323   8.207 -0.7989 -1.9564 -1.4822
 2355TIP3    H228701   0.734   6.468   8.178 -0.2636 -1.1052  1.7930
 2356TIP3   OH228702   4.957   4.562   7.229  0.3594 -0.4554 -0.2163
 2356TIP3    H128703   4.939   4.588   7.139 -0.5863  0.8785  0.3244
 2356TIP3    H228704   4.902   4.485   7.244 -0.1167 -0.1837 -0.5369
 2357TIP3   OH228705   5.549   0.968   1.521 -0.0930 -0.4421  0.0543
 2357TIP3    H128706   5.465   0.937   1.553 -0.4619 -0.2008 -0.6758
 2357TIP3    H228707   5.530   1.011   1.438  0.4672  1.4016  0.8417
 2358TIP3   OH228708   5.350   2.679   2.487 -0.0762 -0.0927  0.1045
 2358TIP3    H128709   5.326   2.662   2.578 -1.2743  0.9976  0.0232
 2358TIP3    H228710   5.353   2.775   2.481 -1.0423 -0.1245 -1.2505
 2359TIP3   OH228711   3.401   3.132   1.100  0.4526  0.0305 -0.2796
 2359TIP3    H128712   3.435   3.219   1.120  0.7233 -0.1699  0.1364
 2359TIP3    H228713   3.478   3.079   1.080  0.5516 -0.7404  1.8540
 2360TIP3   OH228714   4.669   5.000   0.766 -0.3245  0.2399  0.5067
 2360TIP3    H128715   4.691   5.087   0.798  0.9741  0.4213 -0.7639
 2360TIP3    H228716   4.641   5.014   0.675  0.0260 -0.6704  0.2447
 2361TIP3   OH228717   2.514   2.481   0.548 -0.0391 -0.3266 -0.1375
 2361TIP3    H128718   2.475   2.420   0.610 -2.2749  1.7367  0.6517
 2361TIP3    H228719   2.607   2.479   0.567 -0.3117 -1.9381  1.2282
 2362TIP3   OH228720   6.344   4.264   7.574  0.0239 -0.0117 -0.3497
 2362TIP3    H128721   6.255   4.294   7.594 -0.3295 -1.4278  0.3127
 2362TIP3    H228722   6.350   4.267   7.479 -0.5225  0.6441 -0.3737
 2363TIP3   OH228723   2.191   1.905   8.422  0.3827  0.0411  0.0217
 2363TIP3    H128724   2.153   1.819   8.404 -1.3658  1.0585 -1.5702
 2363TIP3    H228725   2.203   1.907   8.517 -1.0083 -1.3837  0.2659
 2364TIP3   OH228726   4.711   5.739   0.442  0.0840 -0.2544  0.2077
 2364TIP3    H128727   4.750   5.816   0.483  1.2634 -0.2563 -0.8418
 2364TIP3    H228728   4.637   5.717   0.497  0.6342  0.7290  1.3789
 2365TIP3   OH228729   5.795   1.627   7.817 -0.5925  0.2490  0.1870
 2365TIP3    H128730   5.743   1.706   7.835 -0.2208  0.8926 -1.3801
 2365TIP3    H228731   5.855   1.654   7.747  1.1335 -0.7859  1.2045
 2366TIP3   OH228732   4.480   6.013   0.829 -0.7507  0.3047  0.6552
 2366TIP3    H128733   4.424   6.036   0.903  0.9363 -1.9436  2.7886
 2366TIP3    H228734   4.471   5.918   0.821  0.5159  0.2754 -0.8384
 2367TIP3   OH228735   3.393   1.844   0.997  0.0090  0.3498  0.1950
 2367TIP3    H128736   3.416   1.831   1.089 -1.3854  1.6553  0.7770
 2367TIP3    H228737   3.311   1.795   0.985 -0.0842  0.5939 -0.2091
 2368TIP3   OH228738   6.204   0.140   0.769 -0.1618 -0.2437 -0.2083
 2368TIP3    H128739   6.121   0.187   0.772 -0.9443 -1.5540 -0.6680
 2368TIP3    H228740   6.214   0.105   0.858  0.0179  0.0925 -0.0930
 2369TIP3   OH228741   5.572   6.081   3.126  0.6090  0.1683  0.5674
 2369TIP3    H128742   5.590   5.987   3.124  1.8442  0.3761 -1.5754
 2369TIP3    H228743   5.637   6.116   3.187  0.8407 -0.2547  0.5672
 2370TIP3   OH228744   0.951   2.168   1.321  0.1122  0.3492 -0.1355
 2370TIP3    H128745   1.047   2.175   1.326  0.3230 -1.3451 -0.9561
 2370TIP3    H228746   0.936   2.083   1.279 -1.7344  1.2805 -1.4948
 2371TIP3   OH228747   2.959   6.548   0.105 -0.1583 -0.3224 -0.1013
 2371TIP3    H128748   2.864   6.549   0.091 -0.0415  2.0216 -1.2315
 2371TIP3    H228749   2.994   6.511   0.024 -0.0408  1.7638 -1.0834
 2372TIP3   OH228750   5.119   6.504   1.971 -0.0134 -0.1838  0.0201
 2372TIP3    H128751   5.149   6.435   1.912 -0.7410 -0.3796 -0.1424
 2372TIP3    H228752   5.045   6.543   1.925 -0.7306 -0.4771  0.8886
 2373TIP3   OH228753   6.085   0.122   1.800 -0.1607 -0.3309  0.4950
 2373TIP3    H128754   5.995   0.094   1.784  0.0068 -0.7474  0.2712
 2373TIP3    H228755   6.135   0.041   1.806  0.2991 -0.0921  0.0180
 2374TIP3   OH228756   2.382   0.778   1.927 -0.3725  0.5205 -0.3818
 2374TIP3    H128757   2.339   0.862   1.908 -0.8923 -0.2302 -2.7831
 2374TIP3    H228758   2.475   0.800   1.935 -0.5346  1.3717 -0.7236
 2375TIP3   OH228759   3.924   4.342   8.041  0.3426 -0.4633  0.1984
 2375TIP3    H128760   3.922   4.246   8.034  1.2219 -0.4049 -1.2382
 2375TIP3    H228761   3.835   4.367   8.062 -0.0261 -1.5715 -0.0020
 2376TIP3   OH228762   2.662   2.430   7.621 -0.2319  0.3387 -0.4683
 2376TIP3    H128763   2.721   2.386   7.559  0.4031  2.1944 -1.2426
 2376TIP3    H228764   2.602   2.361   7.649  1.8140 -1.4476 -0.2388
 2377TIP3   OH228765   2.166   6.042   7.587 -0.0016 -0.3676 -0.1008
 2377TIP3    H128766   2.234   6.034   7.654 -0.0407 -1.9146 -0.2256
 2377TIP3    H228767   2.185   5.972   7.524 -1.2768 -0.3526 -0.5324
 2378TIP3   OH228768   1.080   5.510   1.973  0.3706 -0.4241  0.0136
 2378TIP3    H128769   1.158   5.460   1.995  1.7439  1.3364 -0.6188
 2378TIP3    H228770   1.063   5.564   2.050 -0.8362 -1.4322  0.5127
 2379TIP3   OH228771   5.755   0.248   2.655  0.4568  0.6455  0.1960
 2379TIP3    H128772   5.702   0.265   2.733 -1.8550 -1.5064 -0.7835
 2379TIP3    H228773   5.792   0.161   2.670 -1.4783 -0.5967 -1.7736
 2380TIP3   OH228774   1.340   0.686   0.976  0.0758  0.3199  0.3606
 2380TIP3    H128775   1.321   0.662   0.885  0.2914  1.6662 -0.0626
 2380TIP3    H228776   1.274   0.639   1.027  0.6946 -1.4212 -0.3508
 2381TIP3   OH228777   1.422   1.308   2.514  0.2121  0.0400 -0.1484
 2381TIP3    H128778   1.459   1.360   2.442  1.2944 -0.1669  0.2365
 2381TIP3    H228779   1.475   1.229   2.516  1.4039  0.8161  2.0074
 2382TIP3   OH228780   5.292   0.527   0.756 -0.1067 -0.2969 -0.2243
 2382TIP3    H128781   5.339   0.528   0.840  1.7143  1.6797 -1.1743
 2382TIP3    H228782   5.351   0.570   0.695 -1.0505 -2.4076 -2.7860
 2383TIP3   OH228783   5.169   5.992   1.669  0.0243 -0.1389 -0.2528
 2383TIP3    H128784   5.212   6.042   1.600 -1.7407  2.4658  0.3877
 2383TIP3    H228785   5.235   5.983   1.737  0.0580  2.7671  0.2327
 2384TIP3   OH228786   5.495   6.531   0.197 -0.3942  0.2121  0.0249
 2384TIP3    H128787   5.440   6.594   0.242 -1.0444 -0.7103  0.5554
 2384TIP3    H228788   5.473   6.541   0.104 -1.0993  0.1932  0.1883
 2385TIP3   OH228789   5.140   0.667   1.625  0.2228  0.0229 -0.1685
 2385TIP3    H128790   5.125   0.665   1.720 -0.3645 -1.6732 -0.2633
 2385TIP3    H228791   5.065   0.714   1.589  0.2788  0.3745  0.1605
 2386TIP3   OH228792   4.424   3.579   0.309 -0.3304  0.1105 -0.1469
 2386TIP3    H128793   4.504   3.629   0.326 -0.1839 -0.2677  0.3192
 2386TIP3    H228794   4.369   3.595   0.386 -0.5596  0.0936 -0.3081
 2387TIP3   OH228795   6.667   0.852   1.588 -0.5623 -0.0587 -0.3667
 2387TIP3    H128796   6.717   0.852   1.670 -0.5020 -0.6146 -0.4045
 2387TIP3    H228797   6.710   0.919   1.535 -1.7358  1.6582  0.7379
 2388TIP3   OH228798   3.170   6.885   2.128  0.3835 -0.1254  0.4497
 2388TIP3    H128799   3.233   6.941   2.084 -0.5843 -0.5140 -1.5591
 2388TIP3    H228800   3.186   6.898   2.222  2.0978  1.2483  0.0021
 2389TIP3   OH228801   5.744   5.332   7.284  0.1621  0.1686  0.1178
 2389TIP3    H128802   5.713   5.422   7.280 -1.8415 -0.4715  0.3223
 2389TIP3    H228803   5.796   5.328   7.365 -0.9164  0.8054  0.8695
 2390TIP3   OH228804   2.610   0.882   2.498 -0.5494  0.6561 -0.3522
 2390TIP3    H128805   2.533   0.926   2.463  0.0819  2.5863  0.5753
 2390TIP3    H228806   2.605   0.894   2.592  0.4632  0.0758 -0.2001
 2391TIP3   OH228807   5.187   2.380   1.815 -0.1385 -0.0329  0.1237
 2391TIP3    H128808   5.256   2.323   1.779  0.5397  1.3410 -0.8470
 2391TIP3    H228809   5.106   2.342   1.783  0.3713  0.2467 -1.6264
 2392TIP3   OH228810   6.440   3.507   8.034 -0.0301 -0.0288  0.7417
 2392TIP3    H128811   6.351   3.541   8.026  0.0986  0.2695  0.5972
 2392TIP3    H228812   6.495   3.573   7.992  0.1933 -0.5152  0.2493
 2393TIP3   OH228813   0.703   3.077   2.081 -0.0196 -0.0466 -0.3033
 2393TIP3    H128814   0.696   3.008   2.147 -1.9896 -0.5726 -0.9880
 2393TIP3    H228815   0.755   3.037   2.011  0.7652 -0.0206  0.2444
 2394TIP3   OH228816   6.623   0.030   7.283  0.0799  0.1044  0.1956
 2394TIP3    H128817   6.552   0.071   7.233 -0.3398  0.3100  0.9545
 2394TIP3    H228818   6.655  -0.040   7.226  0.1625  0.8542 -0.7167
 2395TIP3   OH228819   3.822   1.582   7.905  0.5536  0.0645 -0.2079
 2395TIP3    H128820   3.784   1.626   7.982  1.2844  1.0658 -0.3975
 2395TIP3    H228821   3.912   1.613   7.902  0.7227 -0.4894 -1.0934
 2396TIP3   OH228822   0.280   1.045   0.345 -0.1099 -0.0297 -0.2210
 2396TIP3    H128823   0.325   0.976   0.296  1.0475  0.1960  0.4988
 2396TIP3    H228824   0.189   1.016   0.349  0.0855 -0.8114 -1.1504
 2397TIP3   OH228825   6.659   2.141   8.341  0.1918 -0.2084 -0.0868
 2397TIP3    H128826   6.702   2.135   8.427  1.3169  0.5132 -0.5713
 2397TIP3    H228827   6.567   2.158   8.361  0.5613  0.6561  0.9736
 2398TIP3   OH228828   6.330   6.367   0.882  0.4443  0.0511  0.1319
 2398TIP3    H128829   6.321   6.321   0.798 -1.5715 -0.5590  0.6256
 2398TIP3    H228830   6.270   6.321   0.941  1.0617  1.1091  1.6367
 2399TIP3   OH228831   4.759   0.568   0.846 -0.6453  0.6792  0.2218
 2399TIP3    H128832   4.836   0.560   0.790 -1.5241 -0.6982 -0.8508
 2399TIP3    H228833   4.697   0.620   0.794 -1.6198 -0.9574 -0.3097
 2400TIP3   OH228834   4.778   2.357   2.476 -0.2481 -0.2443 -0.3470
 2400TIP3    H128835   4.790   2.410   2.554 -1.0695  1.0742 -1.0658
 2400TIP3    H228836   4.749   2.272   2.508  3.0731 -1.0248  0.9544
 2401TIP3   OH228837   5.623   0.882   7.338  0.0761  0.3037 -0.0868
 2401TIP3    H128838   5.565   0.873   7.414 -1.9397  3.1636 -1.0814
 2401TIP3    H228839   5.592   0.815   7.277 -0.8864  0.4637  0.1978
 2402TIP3   OH228840   6.407   5.770   1.962 -1.0336 -0.0778 -0.4281
 2402TIP3    H128841   6.373   5.775   2.051 -0.0778  1.3511 -0.1115
 2402TIP3    H228842   6.336   5.803   1.907 -1.9872 -1.8488 -0.3476
 2403TIP3   OH228843   2.905   5.687   8.124 -0.6878 -0.2838  0.3301
 2403TIP3    H128844   2.966   5.635   8.071  0.4404  3.1944 -2.1725
 2403TIP3    H228845   2.819   5.650   8.104 -0.0363 -0.7111 -2.0175
 2404TIP3   OH228846   0.639   0.873   1.533 -0.3113 -0.0943 -0.0768
 2404TIP3    H128847   0.584   0.895   1.458 -0.5486 -0.2911  0.0378
 2404TIP3    H228848   0.643   0.777   1.533  1.1523 -0.0758 -0.8929
 2405TIP3   OH228849   0.807   3.328   2.342  0.0673 -0.4796 -0.1391
 2405TIP3    H128850   0.813   3.401   2.404 -1.7914  0.1547 -0.6522
 2405TIP3    H228851   0.777   3.368   2.261 -0.3505 -1.7289 -0.6162
 2406TIP3   OH228852   1.710   4.603   1.376  0.0566  0.0608 -0.4831
 2406TIP3    H128853   1.643   4.537   1.388 -0.4840  0.3360 -1.8184
 2406TIP3    H228854   1.788   4.554   1.350 -0.5631 -0.0404 -2.3085
 2407TIP3   OH228855   5.764   5.650   8.318 -0.6612  0.2627  0.2901
 2407TIP3    H128856   5.841   5.705   8.337 -0.8224  0.4983  0.2658
 2407TIP3    H228857   5.798   5.561   8.320 -0.2429  0.3949 -0.3447
 2408TIP3   OH228858   2.524   5.738   8.291  0.3089  0.7694 -0.1748
 2408TIP3    H128859   2.588   5.673   8.263 -0.0549  0.7242 -0.9330
 2408TIP3    H228860   2.446   5.687   8.312 -0.0377  0.9522 -0.9472
 2409TIP3   OH228861   6.634   2.848   0.822 -0.2981  0.0254  0.1064
 2409TIP3    H128862   6.675   2.792   0.756 -1.5945  0.1577 -0.8461
 2409TIP3    H228863   6.641   2.937   0.787 -1.0189  0.0935  0.1075
 2410TIP3   OH228864   6.078   1.251   0.314 -0.1666 -0.1323 -0.0255
 2410TIP3    H128865   6.033   1.329   0.349 -1.1447 -0.4235 -0.5954
 2410TIP3    H228866   6.142   1.287   0.252  0.4036  0.2933  0.7991
 2411TIP3   OH228867   1.595   6.900   1.634 -0.5294  0.1179 -0.6317
 2411TIP3    H128868   1.542   6.945   1.569 -1.6118 -0.5535 -0.2378
 2411TIP3    H228869   1.535   6.838   1.675  0.2258  0.2599  0.7405
 2412TIP3   OH228870   2.657   5.361   1.457  0.1202 -0.0228  0.3175
 2412TIP3    H128871   2.689   5.437   1.506  0.5117  1.7087 -2.4214
 2412TIP3    H228872   2.726   5.343   1.393 -0.9436 -1.3049 -0.5140
 2413TIP3   OH228873   5.887   1.552   8.272  0.0096  0.3425  0.3548
 2413TIP3    H128874   5.826   1.503   8.217 -0.5620  0.0176  1.2429
 2413TIP3    H228875   5.884   1.507   8.357  0.3494  1.2237  0.8506
 2414TIP3   OH228876   4.257   6.216   7.452  0.0165  0.0387 -0.0482
 2414TIP3    H128877   4.276   6.150   7.385  0.4922  0.1769 -0.0506
 2414TIP3    H228878   4.319   6.287   7.434  1.4742 -0.7120  1.7032
 2415TIP3   OH228879   0.511   6.111   0.139 -1.0000  0.0472  0.5298
 2415TIP3    H128880   0.468   6.027   0.123 -1.8442  0.2536  1.6034
 2415TIP3    H228881   0.493   6.131   0.231  0.1161  0.8859  0.5901
 2416TIP3   OH228882   5.335   5.578   0.586 -0.1308 -0.1691  0.4833
 2416TIP3    H128883   5.280   5.515   0.632 -0.1534 -1.2070 -0.8956
 2416TIP3    H228884   5.378   5.527   0.518  0.5786  1.1310 -0.0772
 2417TIP3   OH228885   5.905   3.099   1.153  0.6607 -0.6576 -0.3860
 2417TIP3    H128886   5.979   3.157   1.169  1.0220 -1.5230  1.3721
 2417TIP3    H228887   5.833   3.136   1.204  0.7230 -1.3860  0.2577
 2418TIP3   OH228888   3.553   6.408   0.137  0.0629  0.4127 -0.0204
 2418TIP3    H128889   3.588   6.388   0.223 -0.9346 -1.0983  0.0826
 2418TIP3    H228890   3.458   6.396   0.147  0.0190 -0.9086 -1.5691
 2419TIP3   OH228891   3.099   1.293   8.288  0.0068 -0.1427 -0.2950
 2419TIP3    H128892   3.133   1.358   8.226  1.0739 -1.7304 -1.4487
 2419TIP3    H228893   3.177   1.246   8.318 -0.8003 -1.3131  0.0052
 2420TIP3   OH228894   5.520   4.921   2.618 -0.0327  0.2984 -0.3654
 2420TIP3    H128895   5.546   4.956   2.704  0.6508  0.4591 -0.6322
 2420TIP3    H228896   5.599   4.930   2.564 -0.7846  1.2496 -1.3347
 2421TIP3   OH228897   5.439   4.000   1.269 -0.7387 -0.3759 -0.9256
 2421TIP3    H128898   5.458   3.919   1.316  0.0083 -0.1295 -0.7932
 2421TIP3    H228899   5.521   4.049   1.271 -1.0473  0.1764 -1.4216
 2422TIP3   OH228900   0.352   6.212   1.426  0.7433 -0.1799 -0.1165
 2422TIP3    H128901   0.400   6.242   1.503 -0.3335 -1.6013  1.1679
 2422TIP3    H228902   0.384   6.123   1.410  0.2339 -0.2713 -0.6776
 2423TIP3   OH228903   1.251   3.048   7.054 -0.0163  0.1126 -0.0873
 2423TIP3    H128904   1.289   3.071   6.970  0.3443  2.5468  0.6449
 2423TIP3    H228905   1.157   3.062   7.043  0.2082  2.4112  0.3855
 2424TIP3   OH228906   6.305   3.540   7.203  0.0501 -0.4290  0.3280
 2424TIP3    H128907   6.366   3.609   7.176 -0.9353  0.0055 -0.8939
 2424TIP3    H228908   6.275   3.501   7.121 -1.6299 -0.3308  0.8556
 2425TIP3   OH228909   6.076   3.464   0.216  0.0934  0.0340 -0.1736
 2425TIP3    H128910   6.145   3.497   0.273  0.0150  1.7158 -0.9958
 2425TIP3    H228911   6.001   3.520   0.234 -0.6126 -0.8172 -0.3738
 2426TIP3   OH228912   4.001   3.953   7.254  0.3264 -0.4551 -0.0729
 2426TIP3    H128913   3.911   3.931   7.278  0.1911 -0.7215 -0.7944
 2426TIP3    H228914   4.005   4.048   7.264  0.0250 -0.4630  0.1571
 2427TIP3   OH228915   6.182   6.700   0.905  0.1436 -0.7484  0.4530
 2427TIP3    H128916   6.097   6.657   0.900 -0.4525  0.3844  0.5371
 2427TIP3    H228917   6.175   6.759   0.980  0.6651  0.0647 -0.1186
 2428TIP3   OH228918   4.266   4.849   1.477  0.3118  0.6561  0.0640
 2428TIP3    H128919   4.190   4.895   1.441  0.0227  0.2329  0.1202
 2428TIP3    H228920   4.315   4.819   1.400  2.3102  3.8499 -0.0857
 2429TIP3   OH228921   2.332   2.383   2.833 -0.7046  0.3484 -0.2866
 2429TIP3    H128922   2.423   2.367   2.861 -0.1427 -1.4134 -2.7580
 2429TIP3    H228923   2.340   2.438   2.755 -1.7751  0.2303 -0.4929
 2430TIP3   OH228924   4.675   1.888   6.653  0.3816  0.4594 -0.1013
 2430TIP3    H128925   4.598   1.917   6.603  0.1150 -0.4129 -0.2139
 2430TIP3    H228926   4.695   1.801   6.617  1.5194  0.7458 -0.1800
 2431TIP3   OH228927   5.230   6.519   7.982 -0.1467  0.9790  0.3577
 2431TIP3    H128928   5.262   6.454   8.045  0.9766  0.4229 -0.7584
 2431TIP3    H228929   5.304   6.577   7.967  0.3748 -0.1940 -2.0883
 2432TIP3   OH228930   5.539   4.832   8.419 -0.0345  0.7101 -0.2259
 2432TIP3    H128931   5.581   4.757   8.378 -0.9528 -0.7264  1.3479
 2432TIP3    H228932   5.445   4.818   8.405 -0.1791  2.2039 -0.9407
 2433TIP3   OH228933   0.930   1.582   7.872  0.0426 -0.9098  0.1107
 2433TIP3    H128934   0.880   1.580   7.790 -1.7533  0.7229  1.0923
 2433TIP3    H228935   1.022   1.589   7.843 -0.3486 -2.4635 -1.7364
 2434TIP3   OH228936   1.539   4.793   2.206  0.0174 -0.1627 -0.2041
 2434TIP3    H128937   1.626   4.755   2.200 -0.0014 -0.1247 -0.7386
 2434TIP3    H228938   1.516   4.817   2.116  0.3314  1.8134  0.2022
 2435TIP3   OH228939   0.348   4.742   2.227  0.1398  0.0585  0.0069
 2435TIP3    H128940   0.328   4.750   2.134  0.3560  0.1240 -0.0356
 2435TIP3    H228941   0.346   4.832   2.260 -1.3616 -0.0948  0.3738
 2436TIP3   OH228942   6.360   2.294   1.144  0.2980 -1.3636 -0.1553
 2436TIP3    H128943   6.264   2.291   1.141  0.2531 -0.8642  0.5273
 2436TIP3    H228944   6.388   2.221   1.089 -0.4510 -0.5653 -1.6279
 2437TIP3   OH228945   5.749   6.704   0.529  0.5065  0.2105  0.4931
 2437TIP3    H128946   5.661   6.740   0.526  0.7491  0.8126  0.3945
 2437TIP3    H228947   5.746   6.627   0.473  0.1504  0.4612  0.1653
 2438TIP3   OH228948   3.660   4.804   6.999 -0.0976 -1.0030  0.4583
 2438TIP3    H128949   3.710   4.812   7.080 -0.5090 -0.5916  0.6724
 2438TIP3    H228950   3.721   4.763   6.937  0.3690 -0.8808  0.8338
 2439TIP3   OH228951   1.543   0.591   1.874  0.0730 -0.1471 -0.5677
 2439TIP3    H128952   1.541   0.656   1.944 -1.1884  0.7764 -1.4033
 2439TIP3    H228953   1.499   0.634   1.801  1.4538 -1.0328 -1.9849
 2440TIP3   OH228954   4.372   2.814   1.320  0.1215  0.2129  0.0657
 2440TIP3    H128955   4.360   2.784   1.410  0.3999  0.4066  0.1691
 2440TIP3    H228956   4.360   2.909   1.324  1.5919  0.4200  0.1740
 2441TIP3   OH228957   1.298   0.258   0.952  0.2331  0.1954 -0.1341
 2441TIP3    H128958   1.298   0.323   0.881  1.0835  0.0506 -0.2699
 2441TIP3    H228959   1.219   0.279   1.002 -0.0522  0.6912 -0.7630
 2442TIP3   OH228960   2.763   3.306   8.517  0.0798  0.2688 -0.0688
 2442TIP3    H128961   2.688   3.329   8.462  1.2624  2.6988 -0.8089
 2442TIP3    H228962   2.724   3.263   8.594 -1.9455  0.4738 -0.9136
 2443TIP3   OH228963   3.686   0.998   2.775  0.4321  0.2626  0.3966
 2443TIP3    H128964   3.625   0.972   2.707 -1.1477  1.7303  1.1805
 2443TIP3    H228965   3.722   1.082   2.746 -0.1551  0.8374  1.2698
 2444TIP3   OH228966   4.900   3.393   2.131  0.0875  0.0227  0.3743
 2444TIP3    H128967   4.873   3.377   2.222  0.1386 -1.1551  0.1987
 2444TIP3    H228968   4.821   3.376   2.079  0.6078 -1.5519  0.0273
 2445TIP3   OH228969   1.721   3.200   0.519 -0.3670 -0.2713 -0.2724
 2445TIP3    H128970   1.775   3.171   0.445 -0.1496  0.6754 -0.4965
 2445TIP3    H228971   1.694   3.288   0.496 -1.8032 -0.6296 -0.0230
 2446TIP3   OH228972   5.955   6.510   1.445  0.6940  0.2141  0.9356
 2446TIP3    H128973   6.009   6.515   1.524  1.5233 -0.6572  0.4376
 2446TIP3    H228974   6.009   6.551   1.377  0.7124 -0.5886  0.4534
 2447TIP3   OH228975   3.569   2.922   7.519  0.7820 -0.4431  0.2166
 2447TIP3    H128976   3.611   2.982   7.581  1.2105 -1.3329  0.8118
 2447TIP3    H228977   3.578   2.965   7.434  0.5055  0.6336  0.7044
 2448TIP3   OH228978   1.447   4.155   0.865  0.0506 -0.5824  0.2740
 2448TIP3    H128979   1.357   4.126   0.845  0.0909  0.1862 -1.0902
 2448TIP3    H228980   1.499   4.122   0.792  0.3827  1.3994 -0.4446
 2449TIP3   OH228981   2.041   0.488   0.534  0.0618 -0.2501 -0.4586
 2449TIP3    H128982   2.078   0.533   0.610 -0.1013  0.3802 -0.7526
 2449TIP3    H228983   2.015   0.402   0.568 -0.7532  0.3096  0.3924
 2450TIP3   OH228984   3.883   2.544   1.266  0.8087 -0.0995  0.2159
 2450TIP3    H128985   3.943   2.597   1.213  0.1166  0.9984  0.5084
 2450TIP3    H228986   3.875   2.592   1.348  0.6175 -0.9640  0.7081
 2451TIP3   OH228987   3.564   0.601   7.747  0.1575 -0.0967  0.5151
 2451TIP3    H128988   3.627   0.673   7.747 -0.2539  0.5068 -3.6689
 2451TIP3    H228989   3.618   0.522   7.746  0.9287  0.3888 -1.4054
 2452TIP3   OH228990   0.118   5.319   1.757 -0.2463 -0.2685 -0.3798
 2452TIP3    H128991   0.169   5.399   1.749 -1.6992  0.7314 -0.0708
 2452TIP3    H228992   0.146   5.281   1.840 -1.3711  1.3367  0.8141
 2453TIP3   OH228993   0.486   3.860   7.993  0.5972  0.0046  0.1817
 2453TIP3    H128994   0.471   3.863   8.088  1.1718 -0.1879  0.2836
 2453TIP3    H228995   0.409   3.901   7.955  0.1956 -0.2323  0.7211
 2454TIP3   OH228996   1.418   3.841   7.920  0.3271  0.2920 -0.4024
 2454TIP3    H128997   1.329   3.876   7.912  0.3527  0.3582 -0.4000
 2454TIP3    H228998   1.469   3.892   7.857  0.7001  1.3957  0.7560
 2455TIP3   OH228999   0.806   0.200   1.379 -0.2016 -0.1610 -0.1919
 2455TIP3    H129000   0.859   0.280   1.376 -0.6826  0.1567 -0.2852
 2455TIP3    H229001   0.823   0.157   1.295 -1.5022  0.8649 -1.0101
 2456TIP3   OH229002   5.499   2.267   1.955  0.2803 -0.2292  0.8145
 2456TIP3    H129003   5.435   2.310   2.013  0.1485  1.2796 -0.3872
 2456TIP3    H229004   5.560   2.336   1.932  0.3013 -0.7747 -0.8901
 2457TIP3   OH229005   0.306   2.387   2.057  0.0393  0.4580  0.2040
 2457TIP3    H129006   0.304   2.405   2.151  0.4615  2.0735 -0.0690
 2457TIP3    H229007   0.250   2.454   2.018 -1.3042 -1.0633 -0.5972
 2458TIP3   OH229008   1.090   2.597   1.926  0.1844  0.7175  0.4004
 2458TIP3    H129009   1.096   2.685   1.963  2.2696  0.3347  1.1098
 2458TIP3    H229010   1.173   2.555   1.950  0.5207 -0.4779 -2.4026
 2459TIP3   OH229011   0.652   3.478   2.162 -0.1388  0.0914 -0.5510
 2459TIP3    H129012   0.565   3.451   2.134 -0.0005 -1.0555  0.0460
 2459TIP3    H229013   0.637   3.530   2.242 -0.3732  1.4201 -1.4286
 2460TIP3   OH229014   2.420   4.444   0.879 -0.0586 -0.1117  0.0638
 2460TIP3    H129015   2.513   4.453   0.860 -0.4600  0.3779 -1.9324
 2460TIP3    H229016   2.407   4.350   0.892  0.5889 -0.2777 -0.4562
 2461TIP3   OH229017   3.475   0.782   0.290 -0.9559  0.2314  0.1415
 2461TIP3    H129018   3.420   0.787   0.369  0.2490  1.5813  0.9475
 2461TIP3    H229019   3.513   0.695   0.293 -0.0983  0.6262  1.6684
 2462TIP3   OH229020   6.586   1.127   2.620  0.1883  0.3236 -0.1602
 2462TIP3    H129021   6.499   1.152   2.589 -0.9098 -0.5216  1.9898
 2462TIP3    H229022   6.616   1.062   2.558  0.0401  1.7958 -1.8545
 2463TIP3   OH229023   5.030   0.402   8.417  0.3100  0.3923  0.3252
 2463TIP3    H129024   4.983   0.371   8.493 -0.1029  0.6656  0.1844
 2463TIP3    H229025   5.028   0.498   8.424 -3.3475  0.7149 -2.0888
 2464TIP3   OH229026   4.528   1.051   8.053 -0.3706 -0.3279  0.3228
 2464TIP3    H129027   4.604   1.090   8.012 -0.3709 -1.1523 -0.5090
 2464TIP3    H229028   4.562   1.007   8.131  0.1058 -1.1596 -0.3439
 2465TIP3   OH229029   4.406   0.129   8.198 -0.2209 -0.6500  0.4185
 2465TIP3    H129030   4.474   0.108   8.261  0.6966  0.0347 -0.3270
 2465TIP3    H229031   4.445   0.194   8.140 -1.5141 -0.2239 -0.0120
 2466TIP3   OH229032   5.790   6.920   7.722 -0.6061  0.3124 -0.6633
 2466TIP3    H129033   5.767   6.986   7.657  2.0610  0.8301 -1.2036
 2466TIP3    H229034   5.811   6.842   7.671 -0.3764  0.1160 -0.2773
 2467TIP3   OH229035   2.752   0.742   0.142 -0.5958 -0.9482 -0.3093
 2467TIP3    H129036   2.733   0.678   0.074  1.3943 -0.8329 -1.0396
 2467TIP3    H229037   2.768   0.689   0.220 -2.2432 -1.1154 -0.0462
 2468TIP3   OH229038   5.746   6.083   8.174  0.0685  0.9702  0.3329
 2468TIP3    H129039   5.672   6.024   8.160  1.2005 -0.4415  0.0094
 2468TIP3    H229040   5.718   6.166   8.137 -1.0335  0.2298 -0.5643
 2469TIP3   OH229041   1.591   6.492   2.126 -0.1999 -0.0555  0.1708
 2469TIP3    H129042   1.495   6.491   2.123 -0.2132  1.1034 -0.6792
 2469TIP3    H229043   1.612   6.541   2.205 -0.2908 -0.7417  0.6292
 2470TIP3   OH229044   1.479   4.299   0.590  0.6531 -0.0661  0.0090
 2470TIP3    H129045   1.455   4.207   0.576 -0.4678  0.4108 -1.4733
 2470TIP3    H229046   1.442   4.321   0.675  1.4811 -1.1363  0.6780
 2471TIP3   OH229047   3.616   3.627   2.972 -0.0868 -0.2011 -0.2623
 2471TIP3    H129048   3.541   3.592   3.020 -0.0674  1.5803  1.1692
 2471TIP3    H229049   3.577   3.677   2.900 -0.2551  0.0697  0.0143
 2472TIP3   OH229050   4.448   4.241   1.726  0.2308  0.3900  0.2632
 2472TIP3    H129051   4.487   4.321   1.760 -1.0461  1.9139 -1.6697
 2472TIP3    H229052   4.394   4.269   1.652 -1.8278 -2.0007  0.6950
 2473TIP3   OH229053   0.049   6.103   2.017 -0.2449 -0.2139  0.0567
 2473TIP3    H129054   0.101   6.080   2.093 -0.0165  1.1179  0.3195
 2473TIP3    H229055  -0.040   6.074   2.038  0.1325 -1.3895  0.1028
 2474TIP3   OH229056   1.747   4.611   2.069  0.3747  0.0630  0.1132
 2474TIP3    H129057   1.770   4.690   2.020  3.7848 -1.0373 -0.2548
 2474TIP3    H229058   1.687   4.564   2.011  0.3339  1.1403 -0.7621
 2475TIP3   OH229059   2.523   3.180   2.704  0.2626  0.5002  0.0271
 2475TIP3    H129060   2.573   3.253   2.742  1.1026  1.4551 -2.6543
 2475TIP3    H229061   2.483   3.217   2.625 -1.7577 -1.2202  0.1719
 2476TIP3   OH229062   4.070   2.907   1.653 -0.0370  0.1948 -0.0362
 2476TIP3    H129063   4.013   2.982   1.668 -0.0887  0.2304 -0.4147
 2476TIP3    H229064   4.060   2.854   1.732  0.0020  0.5850  0.2317
 2477TIP3   OH229065   2.475   2.762   2.065 -0.1685  0.0889 -0.3516
 2477TIP3    H129066   2.484   2.691   2.002 -0.0196  0.4343 -0.7269
 2477TIP3    H229067   2.408   2.732   2.126  1.3256 -1.2237  0.6840
 2478TIP3   OH229068   0.161   6.251   8.473  0.5496 -0.2048  0.1683
 2478TIP3    H129069   0.213   6.206   8.406  3.7963 -0.1407  2.4585
 2478TIP3    H229070   0.225   6.300   8.524 -2.1897  2.4278  1.3446
 2479TIP3   OH229071   3.733   2.305   8.170  0.3499  0.2931 -0.0801
 2479TIP3    H129072   3.712   2.216   8.197 -0.6075  0.8040  0.9891
 2479TIP3    H229073   3.781   2.295   8.088 -1.4327 -1.1359 -1.0240
 2480TIP3   OH229074   4.248   5.369   0.062 -0.1365 -0.4315  0.4871
 2480TIP3    H129075   4.263   5.345  -0.030 -1.9396 -0.3401  0.1330
 2480TIP3    H229076   4.335   5.372   0.100  0.5551 -2.2004 -0.7881
 2481TIP3   OH229077   4.017   0.770   0.409  0.9131  0.7273  0.1527
 2481TIP3    H129078   3.941   0.738   0.457  3.3602 -2.1891  2.4658
 2481TIP3    H229079   4.053   0.840   0.463  1.0852  0.5988  0.2074
 2482TIP3   OH229080   2.255   6.397   2.075  0.0978 -0.1210  0.1058
 2482TIP3    H129081   2.242   6.470   2.014  1.9703 -0.6828 -1.0333
 2482TIP3    H229082   2.169   6.355   2.080 -0.5175  0.9710 -0.7635
 2483TIP3   OH229083   2.112   3.655   1.112  0.0536  0.4230  0.4004
 2483TIP3    H129084   2.193   3.690   1.073 -0.6866  0.3197 -1.3278
 2483TIP3    H229085   2.066   3.732   1.146  1.3074  0.3797  2.3487
 2484TIP3   OH229086   5.299   0.638   0.245 -0.4546  0.1804  0.5381
 2484TIP3    H129087   5.377   0.611   0.197  0.0220  2.2659  0.0033
 2484TIP3    H229088   5.322   0.624   0.337  0.3517  0.2501  0.3620
 2485TIP3   OH229089   1.529   4.407   0.873 -0.8120 -0.2962 -0.4383
 2485TIP3    H129090   1.510   4.313   0.880 -0.1638 -0.4864 -1.1117
 2485TIP3    H229091   1.500   4.443   0.957 -0.7052 -1.1606 -0.0105
 2486TIP3   OH229092   6.417   2.212   8.427 -0.3998  0.0194  0.1637
 2486TIP3    H129093   6.363   2.216   8.349  0.7398  0.3796 -0.6309
 2486TIP3    H229094   6.395   2.291   8.476 -0.5013  0.2283 -0.2176
 2487TIP3   OH229095   6.049   6.000   1.172  0.4379  0.6379  0.4293
 2487TIP3    H129096   6.145   6.002   1.173  0.5268 -0.4355 -1.7639
 2487TIP3    H229097   6.026   5.951   1.093 -1.9347  0.5610  1.0824
 2488TIP3   OH229098   1.916   5.014   8.123  0.4818  0.3189  0.1590
 2488TIP3    H129099   1.985   4.949   8.135  2.2415  1.9332 -0.6725
 2488TIP3    H229100   1.852   4.993   8.191  0.2615 -3.0872 -0.9203
 2489TIP3   OH229101   5.629   5.462   2.151 -0.6706 -0.1991  0.3173
 2489TIP3    H129102   5.612   5.414   2.069 -0.7097 -0.6544  0.5845
 2489TIP3    H229103   5.715   5.502   2.138 -1.0998  0.5471 -0.3212
 2490TIP3   OH229104   0.701   1.279   7.697  0.3211 -0.4223 -0.3018
 2490TIP3    H129105   0.795   1.289   7.687 -0.0041  1.9856 -1.7649
 2490TIP3    H229106   0.678   1.206   7.639  1.1738 -0.5103 -0.5400
 2491TIP3   OH229107   6.136   5.207   1.027 -0.1986  0.2270 -0.6145
 2491TIP3    H129108   6.067   5.174   1.085 -1.8262  0.1561 -2.4922
 2491TIP3    H229109   6.131   5.150   0.950  1.7085  0.5034 -0.9893
 2492TIP3   OH229110   3.657   1.603   3.168 -0.2353 -0.2156  0.2776
 2492TIP3    H129111   3.635   1.632   3.256 -0.4476 -2.0194  0.8728
 2492TIP3    H229112   3.588   1.540   3.146  1.5942 -2.3253  0.2120
 2493TIP3   OH229113   0.378   6.143   0.628  0.6738 -0.6858 -0.0392
 2493TIP3    H129114   0.442   6.206   0.661 -2.4448  2.9027 -0.2095
 2493TIP3    H229115   0.335   6.108   0.707  0.7127 -0.6862 -0.0183
 2494TIP3   OH229116   2.953   3.451   7.838  0.1575  0.1729  0.3223
 2494TIP3    H129117   2.921   3.448   7.929 -0.5899  1.7150  0.1357
 2494TIP3    H229118   2.874   3.448   7.785  0.6256 -1.6424 -0.3538
 2495TIP3   OH229119   6.135   4.376   7.694 -0.4072 -0.0530  0.3698
 2495TIP3    H129120   6.161   4.404   7.782  1.5722  0.8845 -0.4618
 2495TIP3    H229121   6.062   4.315   7.709  0.9886 -1.2863  2.7792
 2496TIP3   OH229122   2.120   6.522   7.827 -0.0942  0.3856 -0.0651
 2496TIP3    H129123   2.198   6.473   7.800 -1.9199 -2.1689 -0.9903
 2496TIP3    H229124   2.104   6.495   7.917 -1.0632 -0.7521 -0.5535
 2497TIP3   OH229125   3.854   3.603   1.960 -0.3372 -0.3565 -0.1101
 2497TIP3    H129126   3.852   3.638   1.871  1.7533  1.5544  0.5015
 2497TIP3    H229127   3.822   3.674   2.015 -0.4439 -1.0740  0.7934
 2498TIP3   OH229128   4.335   5.192   1.373  0.0556  0.9268 -0.6973
 2498TIP3    H129129   4.250   5.161   1.342  0.9324 -0.1743 -2.1110
 2498TIP3    H229130   4.364   5.254   1.306 -0.0100  1.9792  0.2283
 2499TIP3   OH229131   6.297   2.219   1.490  0.1707 -0.1509  0.3698
 2499TIP3    H129132   6.220   2.236   1.435  1.7896  0.2819 -1.9014
 2499TIP3    H229133   6.291   2.285   1.559 -1.5964 -0.2639  0.3806
 2500TIP3   OH229134   0.313   0.179   6.665 -0.2940 -0.2170 -0.6600
 2500TIP3    H129135   0.383   0.236   6.632  1.1336 -2.2109 -1.2579
 2500TIP3    H229136   0.334   0.092   6.630 -3.6436 -0.7533 -1.7293
 2501TIP3   OH229137   6.172   5.917   8.255 -0.2863  0.7784 -0.0612
 2501TIP3    H129138   6.180   5.973   8.178 -1.3154  0.0854 -0.6984
 2501TIP3    H229139   6.246   5.856   8.248 -0.5278  0.5436 -0.6601
 2502TIP3   OH229140   6.768   4.213   1.563 -0.2168  0.5980 -0.3021
 2502TIP3    H129141   6.685   4.183   1.525 -0.7394  1.8120 -0.1564
 2502TIP3    H229142   6.830   4.210   1.490  0.6511 -3.7737  0.3088
 2503TIP3   OH229143   2.746   6.647   8.144  0.2466 -0.1830  0.2757
 2503TIP3    H129144   2.695   6.566   8.145  1.0342 -0.7241 -0.8823
 2503TIP3    H229145   2.824   6.626   8.092  0.5484  1.2622  0.0948
 2504TIP3   OH229146   5.273   4.428   7.665  0.4194 -0.0455 -0.4456
 2504TIP3    H129147   5.198   4.436   7.606 -0.7395 -0.5768  0.9090
 2504TIP3    H229148   5.260   4.345   7.710  1.0592  0.5356  0.8584
 2505TIP3   OH229149   5.490   1.035   0.063 -0.0138 -0.3590 -0.0836
 2505TIP3    H129150   5.426   0.966   0.044 -0.1388 -0.0407 -0.9033
 2505TIP3    H229151   5.549   1.035  -0.013  0.2551  0.1239  0.1186
 2506TIP3   OH229152   3.826   2.220   0.867  0.6957  0.6514 -0.1883
 2506TIP3    H129153   3.909   2.231   0.820  0.2338 -1.5099 -1.6873
 2506TIP3    H229154   3.849   2.172   0.946  1.0388  1.1744  0.0304
 2507TIP3   OH229155   2.857   6.769   3.119  0.0976 -0.3548  0.1203
 2507TIP3    H129156   2.835   6.847   3.068 -0.2412  1.5384  2.9702
 2507TIP3    H229157   2.940   6.791   3.163  1.3743 -2.6469 -0.9411
 2508TIP3   OH229158   1.053   0.240   1.087  0.1036  0.3345 -0.4580
 2508TIP3    H129159   1.097   0.223   1.170  0.0713 -0.6265 -0.6287
 2508TIP3    H229160   0.973   0.187   1.090  0.0319  0.3946 -1.0481
 2509TIP3   OH229161   6.775   3.418   0.660 -0.6553  0.2305 -0.0077
 2509TIP3    H129162   6.822   3.351   0.610  1.4368  0.2807  1.7514
 2509TIP3    H229163   6.696   3.436   0.608  0.0410 -1.6579 -1.8502
 2510TIP3   OH229164   0.821   3.599   8.069 -0.5810  0.2749  0.4224
 2510TIP3    H129165   0.780   3.513   8.080 -1.6511  0.8151  0.8274
 2510TIP3    H229166   0.853   3.622   8.156 -2.1602  1.1749  0.8058
 2511TIP3   OH229167   0.555   5.165   1.489  0.3555  0.2173 -0.0624
 2511TIP3    H129168   0.535   5.193   1.578 -0.1722 -0.6714  0.1171
 2511TIP3    H229169   0.637   5.209   1.467  0.5113  0.4133  0.8828
 2512TIP3   OH229170   0.495   4.876   1.955  0.1810 -0.5670 -0.8314
 2512TIP3    H129171   0.403   4.900   1.970  0.3858  0.1027 -0.6135
 2512TIP3    H229172   0.495   4.780   1.955 -0.5795 -0.5752 -1.2105
 2513TIP3   OH229173   1.563   0.336   7.817 -0.3737 -0.0375 -0.2032
 2513TIP3    H129174   1.553   0.244   7.841 -0.8376 -0.2143 -1.0429
 2513TIP3    H229175   1.579   0.334   7.722 -0.8940  0.7687 -0.3157
 2514TIP3   OH229176   2.716   5.908   1.525 -0.2770 -0.0414 -0.1214
 2514TIP3    H129177   2.762   5.854   1.461 -0.4527  0.5783 -0.7836
 2514TIP3    H229178   2.744   5.997   1.506 -0.0428  0.1187  0.9155
 2515TIP3   OH229179   6.054   6.853   6.525  0.1963 -0.6568 -0.1591
 2515TIP3    H129180   6.081   6.907   6.600 -1.4017  1.6963 -1.1408
 2515TIP3    H229181   5.964   6.828   6.545 -0.6383  0.9228 -1.6894
 2516TIP3   OH229182   3.192   6.906   1.730  0.7580 -0.6336  0.4043
 2516TIP3    H129183   3.265   6.903   1.791  0.8461 -2.8306  0.2710
 2516TIP3    H229184   3.177   6.815   1.706  0.5319  0.0773 -2.6407
 2517TIP3   OH229185   2.771   2.470   0.588  0.1617 -0.1167 -0.1017
 2517TIP3    H129186   2.850   2.507   0.629  0.4535  2.5222 -2.6803
 2517TIP3    H229187   2.805   2.415   0.517 -0.3466 -1.3060  0.5570
 2518TIP3   OH229188   0.728   4.357   7.413 -0.0957 -0.6086  0.3692
 2518TIP3    H129189   0.701   4.268   7.436 -0.5174 -0.3688  0.8168
 2518TIP3    H229190   0.647   4.404   7.397  0.1719 -0.8832 -2.1732
 2519TIP3   OH229191   0.406   5.602   2.908 -0.0959  0.5522  0.0369
 2519TIP3    H129192   0.320   5.620   2.945 -0.4020  1.3095 -0.9897
 2519TIP3    H229193   0.404   5.509   2.885 -1.7168  1.1425 -2.6084
 2520TIP3   OH229194   5.524   4.036   2.640  0.0533  0.5016 -0.3950
 2520TIP3    H129195   5.477   4.062   2.561 -0.2510 -0.1256 -0.4264
 2520TIP3    H229196   5.490   4.093   2.708 -0.4923  0.3014 -0.4928
 2521TIP3   OH229197   0.575   1.913   1.304 -0.1529 -0.2218  0.1906
 2521TIP3    H129198   0.653   1.920   1.359 -1.1061  0.4684  1.5029
 2521TIP3    H229199   0.580   1.988   1.245 -0.0432  0.0769  0.5745
 2522TIP3   OH229200   5.876   0.278   8.196 -0.1021  0.5018 -0.6011
 2522TIP3    H129201   5.816   0.303   8.266  0.0548 -0.1412 -0.2315
 2522TIP3    H229202   5.915   0.361   8.167  2.1541  0.5406  2.1570
 2523TIP3   OH229203   6.783   2.834   1.061 -0.1312 -0.5662 -0.5954
 2523TIP3    H129204   6.755   2.823   0.970  0.9909  3.9337 -1.7432
 2523TIP3    H229205   6.712   2.884   1.102  0.2864 -0.8184  0.4669
 2524TIP3   OH229206   5.965   4.258   7.444  0.7870 -0.1306 -0.5313
 2524TIP3    H129207   6.009   4.245   7.360 -2.0784 -0.2123 -2.1268
 2524TIP3    H229208   5.939   4.170   7.471 -0.9599  0.1516 -1.1631
 2525TIP3   OH229209   0.370   5.539   1.325 -0.0915 -0.3612 -0.3682
 2525TIP3    H129210   0.392   5.501   1.410 -1.8832  1.0464  0.8215
 2525TIP3    H229211   0.287   5.499   1.301 -0.2048  0.1435 -0.8548
 2526TIP3   OH229212   4.116   3.864   2.519 -0.2562 -0.2645  0.0471
 2526TIP3    H129213   4.081   3.785   2.477  0.1630 -0.1805 -0.4731
 2526TIP3    H229214   4.157   3.832   2.599 -1.4871 -0.3693  0.6575
 2527TIP3   OH229215   2.051   4.175   1.552 -0.2386  1.0965  0.0313
 2527TIP3    H129216   2.007   4.100   1.513  0.0962  0.6486  0.5001
 2527TIP3    H229217   2.113   4.137   1.614 -0.6561  1.7838  0.8890
 2528TIP3   OH229218   2.910   4.524   1.504 -0.0922  0.5895 -0.1376
 2528TIP3    H129219   2.999   4.488   1.509 -0.3258  0.0680  0.5275
 2528TIP3    H229220   2.861   4.460   1.453 -0.4867 -0.0238  0.9681
 2529TIP3   OH229221   0.184   1.778   7.299 -0.1893 -0.2041  0.0050
 2529TIP3    H129222   0.207   1.713   7.232  0.0979  0.9562 -1.0391
 2529TIP3    H229223   0.100   1.812   7.272  0.9876  1.9765 -1.1281
 2530TIP3   OH229224   4.082   6.044   8.338 -0.3203 -0.1260  0.1612
 2530TIP3    H129225   4.027   5.967   8.317  0.2172 -0.5976  0.4630
 2530TIP3    H229226   4.124   6.066   8.255  0.3349 -0.8167  0.2987
 2531TIP3   OH229227   1.216   6.728   1.442 -0.1363  0.1303 -0.1169
 2531TIP3    H129228   1.256   6.687   1.519 -1.7313 -1.7731 -0.2244
 2531TIP3    H229229   1.258   6.685   1.368  0.5338  1.1014 -0.3177
 2532TIP3   OH229230   1.135   4.159   1.210  0.6111 -0.3089  0.0354
 2532TIP3    H129231   1.086   4.198   1.137  0.0814  1.7436  1.3926
 2532TIP3    H229232   1.227   4.169   1.186  0.4334 -0.1887 -0.6053
 2533TIP3   OH229233   5.337   0.960   8.330  0.2372  0.3419 -0.3028
 2533TIP3    H129234   5.403   0.945   8.261 -0.3354 -0.3436 -0.7076
 2533TIP3    H229235   5.381   0.936   8.411  0.1885 -1.0781 -0.6681
 2534TIP3   OH229236   3.371   4.746   2.090 -0.2497  0.3001  1.0287
 2534TIP3    H129237   3.459   4.709   2.077  0.0614  1.3793 -0.1096
 2534TIP3    H229238   3.379   4.798   2.170  0.3948  1.0557  0.4912
 2535TIP3   OH229239   5.733   5.603   7.303 -0.1226  0.2902 -0.3015
 2535TIP3    H129240   5.806   5.655   7.270 -0.3073 -0.0398 -1.2434
 2535TIP3    H229241   5.662   5.666   7.317 -0.3983  0.2810 -1.5898
 2536TIP3   OH229242   0.914   2.080   2.471  0.1835 -0.8692  0.3718
 2536TIP3    H129243   0.974   2.089   2.397 -1.3654  1.5054 -0.7144
 2536TIP3    H229244   0.932   2.156   2.526 -1.6263 -0.2209  0.1280
 2537TIP3   OH229245   3.267   1.118   7.449 -0.3955 -0.0912 -0.1102
 2537TIP3    H129246   3.234   1.201   7.482 -1.1977 -0.4730  0.0813
 2537TIP3    H229247   3.284   1.133   7.356 -1.0177  0.1546 -0.1894
 2538TIP3   OH229248   0.089   6.281   3.084  0.1392  0.0767 -0.5139
 2538TIP3    H129249   0.021   6.219   3.057 -0.3697 -0.1970  1.2574
 2538TIP3    H229250   0.171   6.232   3.075 -0.1907 -0.6262  0.1577
 2539TIP3   OH229251   1.031   4.160   7.166  0.0742  0.0896  0.0331
 2539TIP3    H129252   1.014   4.156   7.072  0.4085  0.3546 -0.0378
 2539TIP3    H229253   1.014   4.251   7.190 -1.7279 -0.3442  0.5613
 2540TIP3   OH229254   2.504   6.179   1.387  0.7929  0.0446  0.4559
 2540TIP3    H129255   2.498   6.136   1.473  1.1012  0.9675  0.9545
 2540TIP3    H229256   2.585   6.229   1.391 -0.5686  2.3835  0.7125
 2541TIP3   OH229257   0.590   6.360   1.971  0.2904 -0.1110 -0.3276
 2541TIP3    H129258   0.525   6.391   1.909  0.4997 -0.2772 -0.6354
 2541TIP3    H229259   0.564   6.398   2.055 -1.1733 -1.5380 -0.0940
 2542TIP3   OH229260   0.501   6.309   2.290 -0.1833  0.1184  0.0091
 2542TIP3    H129261   0.505   6.320   2.385 -0.7475  1.1358 -0.0678
 2542TIP3    H229262   0.585   6.270   2.267  0.1122  0.2085  0.8828
 2543TIP3   OH229263   5.044   5.075   7.166  0.2493  0.1195 -0.6529
 2543TIP3    H129264   5.015   5.063   7.076 -4.3395  0.8430  0.4662
 2543TIP3    H229265   5.057   5.170   7.175 -0.8174  0.2362 -0.2235
 2544TIP3   OH229266   4.861   0.265   2.288  0.0419  0.1208  0.6582
 2544TIP3    H129267   4.768   0.262   2.307  0.0635  0.0690  0.7570
 2544TIP3    H229268   4.903   0.228   2.366 -0.0096 -3.2843 -0.7399
 2545TIP3   OH229269   3.318   0.311   1.389  0.0587 -0.0928  0.0767
 2545TIP3    H129270   3.391   0.350   1.437  0.7996  1.0627 -1.8610
 2545TIP3    H229271   3.266   0.266   1.456  2.1941 -0.4332  1.6057
 2546TIP3   OH229272   3.447   1.382   3.507  0.6984 -0.2406  0.3449
 2546TIP3    H129273   3.465   1.316   3.440  1.1055  0.2775 -0.0661
 2546TIP3    H229274   3.392   1.337   3.571  2.4116 -1.5337  0.9988
 2547TIP3   OH229275   6.781   0.331   8.190 -0.1878  0.0421  0.0304
 2547TIP3    H129276   6.702   0.386   8.187 -0.0821  0.1530 -1.5563
 2547TIP3    H229277   6.854   0.394   8.189 -0.0641 -0.0905  0.3931
 2548TIP3   OH229278   4.289   3.315   2.706  0.3379 -0.3675 -0.3071
 2548TIP3    H129279   4.340   3.244   2.746  0.9450  0.0365 -0.3548
 2548TIP3    H229280   4.227   3.270   2.649  0.3517 -0.8886  0.0733
 2549TIP3   OH229281   1.077   3.449   0.405 -0.2305 -0.5812  0.6724
 2549TIP3    H129282   1.041   3.492   0.483 -1.7247 -2.0152  0.8475
 2549TIP3    H229283   1.138   3.384   0.440  0.2780 -0.1691  0.5507
 2550TIP3   OH229284   4.957   1.839   1.632 -0.6701 -0.2621 -0.3185
 2550TIP3    H129285   5.010   1.903   1.585 -0.4825 -1.2151 -1.4615
 2550TIP3    H229286   5.020   1.782   1.675 -0.8221  0.0381  0.3010
 2551TIP3   OH229287   0.550   3.718   1.152 -0.8635  0.5734  0.3402
 2551TIP3    H129288   0.506   3.718   1.068 -0.9759 -1.7676  0.3185
 2551TIP3    H229289   0.517   3.796   1.197 -2.4384  0.7072 -0.9475
 2552TIP3   OH229290   6.605   3.765   7.383 -0.4832 -0.5470  0.4203
 2552TIP3    H129291   6.670   3.804   7.442  1.5746  0.7855 -2.4958
 2552TIP3    H229292   6.527   3.819   7.395  0.0014 -0.0662  1.5999
 2553TIP3   OH229293   3.345   2.725   1.670  0.1283  0.0260 -0.6703
 2553TIP3    H129294   3.320   2.671   1.595 -0.7077 -1.3094  0.5177
 2553TIP3    H229295   3.441   2.732   1.664  0.4171 -2.5273 -0.3224
 2554TIP3   OH229296   4.854   5.339   0.210 -0.2711  0.4606 -0.2416
 2554TIP3    H129297   4.868   5.428   0.241  0.7166  0.5264 -0.8567
 2554TIP3    H229298   4.776   5.309   0.257  0.5554  0.9297  1.5048
 2555TIP3   OH229299   0.371   0.008   2.702 -0.5987  0.0167 -0.2568
 2555TIP3    H129300   0.442  -0.044   2.739 -0.3005  0.9226  0.5009
 2555TIP3    H229301   0.413   0.091   2.677 -1.4282  0.6856  0.4918
 2556TIP3   OH229302   0.461   0.511   8.330  0.4378  0.5666  0.0168
 2556TIP3    H129303   0.374   0.515   8.370 -0.0627 -0.9051 -0.8639
 2556TIP3    H229304   0.490   0.421   8.344  2.4948  1.3964  1.6082
 2557TIP3   OH229305   1.006   1.595   8.336  0.1610 -0.0549  0.3426
 2557TIP3    H129306   1.019   1.602   8.242  2.0681  0.5078  0.6041
 2557TIP3    H229307   1.037   1.679   8.371 -0.4187 -0.2920  1.4941
 2558TIP3   OH229308   6.291   5.850   0.943  0.1439 -0.2386 -0.0759
 2558TIP3    H129309   6.305   5.937   0.979 -1.3530 -0.0589  0.1374
 2558TIP3    H229310   6.235   5.864   0.867 -0.6246 -1.0418  0.3149
 2559TIP3   OH229311   0.342   3.420   0.142 -0.9500  0.0360  0.2065
 2559TIP3    H129312   0.384   3.348   0.095 -2.6488 -1.5805  1.0320
 2559TIP3    H229313   0.315   3.482   0.073 -0.0722 -0.4414 -0.5819
 2560TIP3   OH229314   3.162   2.500   1.922  0.1181 -0.3550 -0.3789
 2560TIP3    H129315   3.146   2.461   1.836  2.3260 -2.1826 -0.0601
 2560TIP3    H229316   3.105   2.451   1.982 -0.0681 -0.3343 -0.5387
 2561TIP3   OH229317   0.229   2.074   1.807 -0.1821  0.0027  0.0414
 2561TIP3    H129318   0.231   1.991   1.758 -2.3327 -0.4081  0.5267
 2561TIP3    H229319   0.284   2.058   1.883 -0.0392 -0.7549 -0.2096
 2562TIP3   OH229320   1.417   3.787   0.005 -0.2098 -0.6694  0.1214
 2562TIP3    H129321   1.433   3.817  -0.085  0.8707  2.4679  1.2311
 2562TIP3    H229322   1.324   3.765   0.005 -0.4085 -0.0592 -1.6022
 2563TIP3   OH229323   2.381   1.482   0.121 -0.2439  0.0797 -0.0598
 2563TIP3    H129324   2.388   1.573   0.092  1.5798  0.0655  0.2036
 2563TIP3    H229325   2.424   1.481   0.206  0.1955 -1.1043 -0.2736
 2564TIP3   OH229326   2.787   3.215   1.969 -0.5440  0.8053  0.6688
 2564TIP3    H129327   2.782   3.238   2.062 -2.6191  0.4946  0.6795
 2564TIP3    H229328   2.785   3.120   1.967 -0.3421  0.8061  0.3159
 2565TIP3   OH229329   6.891   6.692   7.732  0.1150  0.3002  0.2680
 2565TIP3    H129330   6.934   6.757   7.787 -0.2453  1.0173 -0.2710
 2565TIP3    H229331   6.890   6.732   7.645 -1.5593  0.2783  0.2422
 2566TIP3   OH229332   2.918   6.001   2.099  0.1021  0.0500 -0.0775
 2566TIP3    H129333   2.968   6.003   2.018  0.2578 -1.6878 -0.0595
 2566TIP3    H229334   2.979   6.029   2.167  0.3480  0.2533 -0.3861
 2567TIP3   OH229335   0.156   0.109   0.828 -0.0070  0.2648 -0.4918
 2567TIP3    H129336   0.213   0.113   0.751 -0.3122  0.9931 -0.6951
 2567TIP3    H229337   0.216   0.093   0.901  0.0989 -2.3661 -1.0534
 2568TIP3   OH229338   6.396   4.318   2.484  0.2062 -0.1715  0.0643
 2568TIP3    H129339   6.480   4.363   2.491  0.0735  0.1298 -0.2920
 2568TIP3    H229340   6.407   4.239   2.538 -0.0050  0.9257  1.8031
 2569TIP3   OH229341   5.680   2.127   0.443  0.1284  0.3661 -0.3838
 2569TIP3    H129342   5.745   2.073   0.398  0.3606  0.6843 -0.4290
 2569TIP3    H229343   5.621   2.155   0.373  0.6111  1.0358 -0.5294
 2570TIP3   OH229344   2.215   6.112   0.135 -0.1832  0.5950 -0.0046
 2570TIP3    H129345   2.166   6.035   0.104 -3.2731  2.2219  0.4364
 2570TIP3    H229346   2.297   6.076   0.170 -1.4143 -2.4802  0.0221
 2571TIP3   OH229347   3.528   1.795   7.789  0.2019  0.2890 -0.8065
 2571TIP3    H129348   3.567   1.793   7.702 -3.1326  0.8666 -2.5045
 2571TIP3    H229349   3.513   1.888   7.807  0.7480  0.1671  0.3469
 2572TIP3   OH229350   0.542   6.581   2.480 -0.2946  0.3210 -0.2321
 2572TIP3    H129351   0.628   6.618   2.502  0.1714 -1.9899  2.6041
 2572TIP3    H229352   0.559   6.487   2.469 -2.5727 -0.5164  2.1148
 2573TIP3   OH229353   5.470   6.320   3.012 -0.3874 -0.3336  0.2122
 2573TIP3    H129354   5.513   6.256   3.069  0.0603  1.2140  1.7248
 2573TIP3    H229355   5.511   6.308   2.927 -0.8507 -2.5230  0.2584
 2574TIP3   OH229356   5.188   0.086   0.543 -0.1022 -0.3566  0.3710
 2574TIP3    H129357   5.197  -0.003   0.576  1.3064 -0.9877 -1.5050
 2574TIP3    H229358   5.094   0.098   0.531 -0.2328 -2.3801 -1.2132
 2575TIP3   OH229359   5.404   6.029   8.179  0.1186  0.2101 -0.6744
 2575TIP3    H129360   5.440   6.048   8.092 -0.2502 -0.0392 -0.8823
 2575TIP3    H229361   5.352   5.950   8.167  0.6575 -0.2470 -0.0682
 2576TIP3   OH229362   2.431   1.243   0.744  0.0221 -0.0363 -0.0936
 2576TIP3    H129363   2.397   1.330   0.721  3.9682  1.9293  0.6410
 2576TIP3    H229364   2.395   1.225   0.830  0.7022  1.9040  0.6547
 2577TIP3   OH229365   2.009   4.519   6.430 -0.5092  0.2875  0.1625
 2577TIP3    H129366   2.007   4.510   6.525 -0.2049  0.5991  0.1974
 2577TIP3    H229367   2.088   4.473   6.403  0.6823  2.1771  0.2768
 2578TIP3   OH229368   4.444   6.369   2.276 -0.0177  0.1807  0.1196
 2578TIP3    H129369   4.486   6.455   2.285 -2.5756  1.4495  0.9633
 2578TIP3    H229370   4.472   6.338   2.189 -0.8762  3.0184 -1.2903
 2579TIP3   OH229371   4.671   2.297   7.926 -0.1164  0.7654 -0.2370
 2579TIP3    H129372   4.631   2.218   7.960  0.7999  1.3595  2.4792
 2579TIP3    H229373   4.736   2.266   7.863 -1.0479 -0.5001 -0.6080
 2580TIP3   OH229374   2.020   2.470   0.799 -0.1148  0.0213  0.0660
 2580TIP3    H129375   1.979   2.509   0.876  0.2637  0.0157  0.2760
 2580TIP3    H229376   1.982   2.383   0.793 -0.0775 -0.0122  0.3043
 2581TIP3   OH229377   0.358   0.921   1.652  0.4069 -0.1527 -0.2801
 2581TIP3    H129378   0.322   0.834   1.670 -2.4943  1.2390  1.3135
 2581TIP3    H229379   0.419   0.938   1.725  0.5450 -0.5964 -0.2901
 2582TIP3   OH229380   6.900   3.853   1.536 -0.0050 -0.0533  0.0952
 2582TIP3    H129381   6.939   3.765   1.538 -0.4832 -0.2524  1.2494
 2582TIP3    H229382   6.969   3.912   1.564 -0.6192 -0.4677  2.7243
 2583TIP3   OH229383   5.107   2.921   0.429 -0.6003  0.4470  0.1558
 2583TIP3    H129384   5.149   2.982   0.489  1.0058 -0.4696  0.0185
 2583TIP3    H229385   5.018   2.955   0.418 -0.0641  2.1701  0.8601
 2584TIP3   OH229386   5.557   5.990   2.116 -0.0749 -0.1476 -0.1920
 2584TIP3    H129387   5.626   5.939   2.074 -0.9663  0.5416 -2.6734
 2584TIP3    H229388   5.528   6.051   2.049 -3.2320 -0.5495  0.6362
 2585TIP3   OH229389   3.978   3.855   1.109  0.2033  0.1496  0.5856
 2585TIP3    H129390   3.941   3.929   1.157 -1.0174  0.1945 -0.3687
 2585TIP3    H229391   4.051   3.893   1.060 -1.5549  1.2294 -1.3916
 2586TIP3   OH229392   3.851   6.828   0.160 -0.3459  0.6682 -0.0048
 2586TIP3    H129393   3.933   6.778   0.156 -0.9546 -0.3060 -0.8058
 2586TIP3    H229394   3.845   6.855   0.251 -1.0671 -2.6576  1.0806
 2587TIP3   OH229395   1.414   6.359   1.374  0.2019 -0.4510  0.2013
 2587TIP3    H129396   1.392   6.306   1.298  0.6948  0.7714 -0.8229
 2587TIP3    H229397   1.433   6.295   1.443 -0.3870 -1.5728 -0.6406
 2588TIP3   OH229398   1.149   6.592   8.059  0.1383  0.0484 -0.9975
 2588TIP3    H129399   1.147   6.595   8.155 -0.4297  1.0954 -1.0238
 2588TIP3    H229400   1.079   6.532   8.036 -0.7599  0.9666 -0.7673
 2589TIP3   OH229401   1.668   1.167   0.931  0.2764 -0.3753 -0.0733
 2589TIP3    H129402   1.730   1.163   1.004  0.7259 -2.5422 -0.5133
 2589TIP3    H229403   1.631   1.079   0.926 -0.4775  0.0097 -1.8316
 2590TIP3   OH229404   3.000   1.346   0.940 -0.2325  0.4429  0.2524
 2590TIP3    H129405   3.082   1.365   0.894 -0.2916  1.3283  0.4991
 2590TIP3    H229406   3.000   1.251   0.950  1.3019  0.5110  1.2400
 2591TIP3   OH229407   1.661   3.251   7.807  0.4410 -0.1151 -0.4064
 2591TIP3    H129408   1.703   3.300   7.737  0.7481  1.3436  0.7637
 2591TIP3    H229409   1.722   3.180   7.827  0.6392 -0.1653 -1.1728
 2592TIP3   OH229410   5.679   0.379   7.414 -0.1214  0.0337 -0.3182
 2592TIP3    H129411   5.741   0.438   7.369 -0.6810  0.4796 -0.5134
 2592TIP3    H229412   5.673   0.414   7.503 -0.0583 -0.0411 -0.2841
 2593TIP3   OH229413   0.378   1.494   0.716 -0.2122  0.1069  0.8402
 2593TIP3    H129414   0.285   1.513   0.718 -0.4808 -1.1383  1.2799
 2593TIP3    H229415   0.397   1.460   0.804  0.6796  0.4350  0.7861
 2594TIP3   OH229416   1.879   3.265   2.230 -0.4977  0.0648  0.0845
 2594TIP3    H129417   1.801   3.241   2.179  0.5371 -1.3125 -0.9401
 2594TIP3    H229418   1.948   3.273   2.164  1.0219 -2.3266  1.2387
 2595TIP3   OH229419   5.085   1.280   2.048 -0.1769 -0.2502  0.2424
 2595TIP3    H129420   5.069   1.289   1.954 -0.9123 -1.8192  0.1905
 2595TIP3    H229421   5.121   1.365   2.074 -0.6939  0.4812 -1.2979
 2596TIP3   OH229422   6.538   2.447   8.559  0.0693  0.3244 -0.2143
 2596TIP3    H129423   6.616   2.398   8.533 -0.2962  0.0574 -0.8230
 2596TIP3    H229424   6.569   2.537   8.572  0.2027  0.5566 -1.9583
 2597TIP3   OH229425   6.907   6.887   0.112 -0.0672 -0.2882  0.1251
 2597TIP3    H129426   6.902   6.918   0.022 -1.1349 -1.7631 -0.3678
 2597TIP3    H229427   6.892   6.964   0.166 -0.4415  0.4251 -0.9789
 2598TIP3   OH229428   4.188   5.957   1.901  0.0289 -0.5442 -0.5268
 2598TIP3    H129429   4.200   5.869   1.866 -0.0835 -0.5724 -0.4953
 2598TIP3    H229430   4.226   5.952   1.989  0.6145 -0.3802 -0.7645
 2599TIP3   OH229431   4.421   0.985   0.934  0.3417 -0.0334  0.0585
 2599TIP3    H129432   4.515   0.972   0.928  0.2609 -1.1899  0.9579
 2599TIP3    H229433   4.409   1.050   1.003  0.5261  1.2520 -1.0805
 2600TIP3   OH229434   3.812   1.280   8.240  0.0593 -0.2477 -0.4487
 2600TIP3    H129435   3.817   1.207   8.301  1.2420  0.1448 -0.0475
 2600TIP3    H229436   3.903   1.306   8.227 -0.3436  1.1589 -0.5811
 2601TIP3   OH229437   1.638   0.875   0.343 -0.6145  0.5125  0.2623
 2601TIP3    H129438   1.596   0.850   0.425 -0.7714 -0.4214 -0.0896
 2601TIP3    H229439   1.722   0.828   0.344 -1.1148 -0.4407 -0.6263
 2602TIP3   OH229440   6.101   1.711   2.089 -0.0031  0.4100  0.7420
 2602TIP3    H129441   6.050   1.788   2.113  0.0098  1.2501 -1.5930
 2602TIP3    H229442   6.153   1.740   2.013 -1.0301 -2.2346 -1.1167
 2603TIP3   OH229443   2.280   4.183   2.626  0.4319  0.2311  0.0136
 2603TIP3    H129444   2.324   4.203   2.709  1.9118  0.1428 -0.7136
 2603TIP3    H229445   2.194   4.225   2.634  0.2913 -0.2742  1.8094
 2604TIP3   OH229446   3.675   3.701   2.486  0.3988  0.1223  0.3678
 2604TIP3    H129447   3.622   3.636   2.531 -3.9093  3.3461  0.5839
 2604TIP3    H229448   3.687   3.771   2.550  1.8776  1.0688 -0.8482
 2605TIP3   OH229449   4.133   6.873   6.939 -0.2370 -0.1581  0.7275
 2605TIP3    H129450   4.162   6.948   6.991  0.5035  1.1615 -1.4159
 2605TIP3    H229451   4.203   6.808   6.949  1.5116  1.3179 -1.0039
 2606TIP3   OH229452   5.339   1.448   1.764  0.1544 -0.1138  0.3703
 2606TIP3    H129453   5.261   1.500   1.778  0.1979 -0.1666  0.8288
 2606TIP3    H229454   5.307   1.357   1.759  0.0151 -0.0185 -0.9590
 2607TIP3   OH229455   5.079   1.267   1.770  0.2254 -0.4203 -0.7506
 2607TIP3    H129456   5.030   1.309   1.699  1.5023  0.5148 -1.0986
 2607TIP3    H229457   5.091   1.177   1.740  0.9034  0.0063 -1.8183
 2608TIP3   OH229458   6.188   3.718   1.537 -0.4082  0.5619  0.0332
 2608TIP3    H129459   6.166   3.758   1.453  0.2274 -0.6622 -0.7527
 2608TIP3    H229460   6.271   3.759   1.563 -0.3861  0.6386 -0.1608
 2609TIP3   OH229461   0.878   5.644   1.070  0.5729  0.2136 -0.1401
 2609TIP3    H129462   0.841   5.725   1.036  0.5646  0.5199  0.5758
 2609TIP3    H229463   0.890   5.661   1.164 -0.6511 -1.0682  0.2751
 2610TIP3   OH229464   4.561   1.126   1.903  1.1739 -0.1670  0.1359
 2610TIP3    H129465   4.623   1.054   1.897  0.4769 -0.7474 -0.3262
 2610TIP3    H229466   4.479   1.085   1.929  0.7955  0.4734 -0.0154
 2611TIP3   OH229467   0.660   5.302   2.892  0.1173  0.0967  0.0422
 2611TIP3    H129468   0.721   5.283   2.963 -0.7032 -2.0397  0.2491
 2611TIP3    H229469   0.697   5.379   2.848  1.8332  0.0985  1.3869
 2612TIP3   OH229470   4.740   3.852   0.151  0.2805  0.7508 -0.4278
 2612TIP3    H129471   4.701   3.788   0.091  1.3914 -1.0268  0.6589
 2612TIP3    H229472   4.833   3.849   0.132  0.5041  1.0272  0.5937
 2613TIP3   OH229473   3.183   1.473   8.099  0.5905 -0.2171  0.1587
 2613TIP3    H129474   3.123   1.492   8.027  0.4228  0.7170  0.5360
 2613TIP3    H229475   3.266   1.512   8.071  1.4001 -2.4751 -0.8820
 2614TIP3   OH229476   3.761   0.715   1.713 -0.0037 -0.7300 -0.6169
 2614TIP3    H129477   3.769   0.726   1.807  2.2554 -1.7425 -0.6262
 2614TIP3    H229478   3.753   0.621   1.700  1.2803 -0.7532 -1.4657
 2615TIP3   OH229479   4.472   4.015   1.164 -0.1612 -0.8239  0.7777
 2615TIP3    H129480   4.487   3.935   1.213 -0.5789 -1.5583 -0.2656
 2615TIP3    H229481   4.539   4.016   1.096 -1.4767 -1.4397 -0.5887
 2616TIP3   OH229482   3.882   4.561   2.012 -0.2268  0.3664  0.2727
 2616TIP3    H129483   3.841   4.486   2.055 -1.3251 -0.9820 -2.8491
 2616TIP3    H229484   3.810   4.622   1.995  0.6228  2.1824  2.6074
 2617TIP3   OH229485   2.488   5.264   1.139 -0.1774  0.2542 -0.3544
 2617TIP3    H129486   2.453   5.179   1.167 -1.0943  0.3236 -1.2688
 2617TIP3    H229487   2.509   5.252   1.047  1.5927  0.4305 -0.0041
 2618TIP3   OH229488   4.775   0.599   1.905 -0.7797 -0.1977 -0.2399
 2618TIP3    H129489   4.773   0.563   1.994 -0.0156 -1.7929 -0.8349
 2618TIP3    H229490   4.820   0.533   1.853 -0.4425  1.0875 -1.6645
 2619TIP3   OH229491   0.410   4.194   1.057  0.1868  0.4235 -0.4716
 2619TIP3    H129492   0.350   4.147   1.115 -0.4916 -1.0167 -2.2372
 2619TIP3    H229493   0.407   4.284   1.088 -2.3511  0.2683 -0.0206
 2620TIP3   OH229494   6.416   3.973   7.419  0.8731 -0.0658 -0.0822
 2620TIP3    H129495   6.412   4.065   7.394  1.9903  0.1502  0.4618
 2620TIP3    H229496   6.417   3.974   7.514 -2.6744 -0.8460  0.1000
 2621TIP3   OH229497   2.807   3.291   2.915 -0.2274  0.0256 -0.4226
 2621TIP3    H129498   2.856   3.320   2.992  0.6913  0.5523 -1.1877
 2621TIP3    H229499   2.748   3.364   2.896  1.2906  0.9841 -1.6719
 2622TIP3   OH229500   4.216   4.827   2.351 -0.3178 -0.1783  0.6741
 2622TIP3    H129501   4.170   4.910   2.357 -3.3922 -1.7326  0.7333
 2622TIP3    H229502   4.172   4.780   2.280 -0.1508 -2.5124  1.9904
 2623TIP3   OH229503   4.640   1.538   1.221 -0.3396  0.3119 -0.2748
 2623TIP3    H129504   4.630   1.513   1.129 -0.5637 -2.5516  0.4609
 2623TIP3    H229505   4.551   1.551   1.252 -0.3684 -0.3997 -0.0490
 2624TIP3   OH229506   5.339   5.059   1.691 -0.3671  0.5668  0.3531
 2624TIP3    H129507   5.362   5.133   1.747  0.4888  0.6706 -0.1097
 2624TIP3    H229508   5.346   4.983   1.748  3.3858  0.3180 -0.1847
 2625TIP3   OH229509   5.017   3.463   0.120  0.0831 -0.1637 -0.2660
 2625TIP3    H129510   4.951   3.424   0.176  0.6676 -1.5619 -0.5191
 2625TIP3    H229511   5.008   3.418   0.036 -0.5536  1.6663 -1.2303
 2626TIP3   OH229512   1.393   4.441   2.555  0.3229  0.6651  0.6217
 2626TIP3    H129513   1.488   4.430   2.559  0.2428 -1.1425 -1.2581
 2626TIP3    H229514   1.362   4.409   2.640  1.2604 -0.1242  0.6824
 2627TIP3   OH229515   5.284   4.482   2.828 -0.1120 -0.0077  0.4067
 2627TIP3    H129516   5.246   4.473   2.741 -0.9202  1.3073  0.5849
 2627TIP3    H229517   5.223   4.540   2.874  0.8101  0.1027  1.5239
 2628TIP3   OH229518   4.865   4.367   0.351 -0.2770  0.3578 -0.4574
 2628TIP3    H129519   4.856   4.360   0.256 -1.1642 -3.3683 -0.2704
 2628TIP3    H229520   4.955   4.337   0.368 -0.0800  1.1309 -0.1098
 2629TIP3   OH229521   3.443   5.202   1.518  0.0127  0.3651  0.7484
 2629TIP3    H129522   3.443   5.272   1.583  0.6260 -0.4063  1.6016
 2629TIP3    H229523   3.422   5.123   1.568 -1.1727  0.0008 -0.2816
 2630TIP3   OH229524   2.826   5.001   1.223  0.2047  0.0575 -0.9286
 2630TIP3    H129525   2.787   4.921   1.257 -0.7703  1.0299  0.3437
 2630TIP3    H229526   2.768   5.028   1.152  0.3835 -0.2041 -1.1773
 2631TIP3   OH229527   1.639   3.111   0.771 -0.0198 -0.0262 -0.0854
 2631TIP3    H129528   1.672   3.189   0.816 -1.1142  0.5738 -0.2664
 2631TIP3    H229529   1.651   3.131   0.678  2.0102 -1.1570 -0.1236
 2632TIP3   OH229530   3.044   5.881   1.377 -0.4239 -0.1272  0.2268
 2632TIP3    H129531   3.004   5.800   1.344  0.2980 -0.3744 -0.0573
 2632TIP3    H229532   2.993   5.951   1.335 -0.9437 -0.4311  0.3414
 2633TIP3   OH229533   4.843   6.546   2.427  0.5207 -0.1711 -0.5564
 2633TIP3    H129534   4.879   6.498   2.502  0.6482  0.3954 -0.2475
 2633TIP3    H229535   4.848   6.484   2.354  0.9689 -0.5179 -0.2364
 2634TIP3   OH229536   3.889   0.167   8.342  0.0913 -0.2386  0.0258
 2634TIP3    H129537   3.946   0.187   8.268 -0.3229 -0.1322 -0.2662
 2634TIP3    H229538   3.935   0.097   8.389  0.9333  0.4947  0.3362
 2635TIP3   OH229539   2.125   1.270   1.965 -0.3810  0.2360 -0.6836
 2635TIP3    H129540   2.214   1.257   1.995 -0.0483  1.7682 -0.8885
 2635TIP3    H229541   2.075   1.284   2.046 -0.5576 -1.1381 -0.5345
 2636TIP3   OH229542   1.966   3.413   0.455  0.1732 -0.3061 -0.3903
 2636TIP3    H129543   1.962   3.398   0.550 -1.3313 -0.3228 -0.4335
 2636TIP3    H229544   2.060   3.419   0.436  0.4822  0.5730  1.2324
 2637TIP3   OH229545   5.902   0.708   1.853 -0.0751  0.5181 -0.0256
 2637TIP3    H129546   5.951   0.790   1.863  0.3203  0.3762 -0.6949
 2637TIP3    H229547   5.932   0.652   1.924  1.8178 -0.0813 -1.2162
 2638TIP3   OH229548   1.676   3.581   0.786 -0.4203  0.3613  0.4623
 2638TIP3    H129549   1.672   3.538   0.701  1.9278  0.9843 -0.0249
 2638TIP3    H229550   1.608   3.649   0.782 -0.2815  0.4440 -0.9337
 2639TIP3   OH229551   4.601   3.024   2.596  0.5275 -0.5848  0.5947
 2639TIP3    H129552   4.559   2.982   2.672 -0.8835 -0.5908 -0.1509
 2639TIP3    H229553   4.606   3.117   2.620  2.2589 -0.9015  1.6244
 2640TIP3   OH229554   2.906   5.188   8.446  0.3052 -0.3458 -0.0829
 2640TIP3    H129555   2.895   5.190   8.541 -1.7097 -1.2115 -0.2386
 2640TIP3    H229556   2.885   5.277   8.417  3.3369  0.6423  0.4083
 2641TIP3   OH229557   0.279   0.989   2.687  0.2991 -0.5504 -0.0098
 2641TIP3    H129558   0.362   0.990   2.638 -0.4212 -4.7904 -1.8058
 2641TIP3    H229559   0.270   0.898   2.715 -3.0364  0.1259  1.5348
 2642TIP3   OH229560   4.799   2.013   1.753 -1.4150 -0.2032 -0.0713
 2642TIP3    H129561   4.755   1.955   1.816  0.1276  0.1517  1.4023
 2642TIP3    H229562   4.873   1.961   1.722 -1.0117  0.3657 -0.0583
 2643TIP3   OH229563   2.298   0.549   8.218  0.3716 -0.0654  0.5125
 2643TIP3    H129564   2.302   0.637   8.255 -0.7078  0.5057 -0.6295
 2643TIP3    H229565   2.213   0.515   8.244  0.4036 -0.4075  0.1914
 2644TIP3   OH229566   3.367   1.488   1.043 -0.0790 -0.8927 -0.1241
 2644TIP3    H129567   3.298   1.494   1.108  1.2107 -0.7395  1.2930
 2644TIP3    H229568   3.447   1.510   1.091  0.8991 -0.5617 -1.8127
 2645TIP3   OH229569   4.988   3.672   8.202 -0.2120 -0.0056 -0.0777
 2645TIP3    H129570   5.072   3.708   8.172 -0.3167  1.4996  1.3236
 2645TIP3    H229571   4.929   3.685   8.128  0.9758 -2.0476 -1.5017
 2646TIP3   OH229572   4.269   5.057   7.568 -0.4925 -0.2894  0.5770
 2646TIP3    H129573   4.244   4.977   7.522  0.7076 -0.7357  0.6572
 2646TIP3    H229574   4.281   5.122   7.499  0.1232 -0.6291  0.3544
 2647TIP3   OH229575   6.730   5.125   6.904 -0.7631  0.2884 -0.3557
 2647TIP3    H129576   6.802   5.076   6.863 -1.4834 -1.5335  0.4326
 2647TIP3    H229577   6.752   5.124   6.997 -2.2313 -1.1705  0.0314
 2648TIP3   OH229578   0.526   4.197   8.194 -0.3205  0.1408 -0.1654
 2648TIP3    H129579   0.582   4.257   8.146 -1.1057  0.4504 -0.7295
 2648TIP3    H229580   0.561   4.197   8.283 -0.7467  2.0303  0.0490
 2649TIP3   OH229581   1.512   6.737   0.950  0.0121 -0.0186  0.2022
 2649TIP3    H129582   1.435   6.793   0.942  0.1797  0.2310  0.3231
 2649TIP3    H229583   1.528   6.705   0.861  0.6291  1.0855 -0.0970
 2650TIP3   OH229584   6.823   2.313   1.577 -0.5386  0.3180 -0.0940
 2650TIP3    H129585   6.813   2.263   1.658  1.7562  0.8615  0.5861
 2650TIP3    H229586   6.780   2.259   1.510 -0.9673 -0.9667  1.1688
 2651TIP3   OH229587   4.160   3.332   7.418  0.7863  0.4981 -0.4010
 2651TIP3    H129588   4.163   3.316   7.324 -0.2534  1.2411 -0.5776
 2651TIP3    H229589   4.176   3.246   7.458  1.0017  0.1373 -1.2542
 2652TIP3   OH229590   3.848   5.216   8.078  0.1941 -0.0326  0.0697
 2652TIP3    H129591   3.836   5.258   8.163 -0.6774  1.2356 -0.6449
 2652TIP3    H229592   3.942   5.204   8.070  0.4570  1.7036  0.3452
 2653TIP3   OH229593   1.912   1.868   1.701 -0.4867  0.3753 -0.2689
 2653TIP3    H129594   1.835   1.844   1.753 -0.3406 -0.0921 -0.2598
 2653TIP3    H229595   1.919   1.798   1.636  1.3059 -0.8853  1.1902
 2654TIP3   OH229596   5.347   2.109   1.763  0.2315  0.1207 -0.1010
 2654TIP3    H129597   5.420   2.166   1.785 -0.1105  1.4729 -2.2116
 2654TIP3    H229598   5.386   2.034   1.718  0.2926  2.2172 -3.9454
 2655TIP3   OH229599   0.658   1.210   2.467  0.5436 -0.5950  0.3257
 2655TIP3    H129600   0.598   1.256   2.409  0.2532 -1.9052 -0.4698
 2655TIP3    H229601   0.687   1.276   2.530  1.0577  0.9560 -1.4395
 2656TIP3   OH229602   0.665   2.838   0.847 -0.1151 -0.0981  0.4679
 2656TIP3    H129603   0.718   2.915   0.866  1.0282 -0.6029 -0.4846
 2656TIP3    H229604   0.626   2.856   0.761 -0.3778 -0.2983  0.5439
 2657TIP3   OH229605   3.144   0.348   7.118  0.4077  0.1052  0.2462
 2657TIP3    H129606   3.083   0.417   7.145  0.2704  0.4626 -0.9443
 2657TIP3    H229607   3.098   0.267   7.140  0.5660  0.3676  1.6503
 2658TIP3   OH229608   4.957   2.509   8.414  0.0427 -0.0424 -0.5064
 2658TIP3    H129609   4.895   2.442   8.388  0.0647 -0.0131 -0.6331
 2658TIP3    H229610   5.033   2.495   8.358  0.9052 -1.2692  0.9141
 2659TIP3   OH229611   1.577   2.329   6.966  0.2655  0.3830 -0.1333
 2659TIP3    H129612   1.644   2.365   7.024  0.8988  2.9060 -2.2170
 2659TIP3    H229613   1.626   2.288   6.895 -0.4330  0.3199 -0.5891
 2660TIP3   OH229614   6.547   5.063   0.736  0.0058 -0.2120 -0.3930
 2660TIP3    H129615   6.545   4.992   0.671  0.5374 -0.4545 -0.1554
 2660TIP3    H229616   6.619   5.039   0.795 -1.7202 -1.0513  1.4831
 2661TIP3   OH229617   1.056   1.201   1.921  0.0927 -0.5935 -0.1828
 2661TIP3    H129618   1.143   1.225   1.952  0.0927  0.0170 -0.6287
 2661TIP3    H229619   1.072   1.140   1.848  0.1225 -0.9974  0.1546
 2662TIP3   OH229620   0.804   0.768   2.275 -0.1355 -1.0560 -0.3971
 2662TIP3    H129621   0.859   0.706   2.228 -0.2937 -0.3247 -1.6002
 2662TIP3    H229622   0.808   0.740   2.367  0.3241 -2.4224 -0.8123
 2663TIP3   OH229623   2.040   0.428   1.568 -0.0952 -0.3130  0.0937
 2663TIP3    H129624   1.962   0.468   1.607 -0.2214 -1.1067  0.7056
 2663TIP3    H229625   2.050   0.470   1.483  0.4207  1.7740  1.1246
 2664TIP3   OH229626   2.531   5.214   0.873  0.3926  0.3286  0.0169
 2664TIP3    H129627   2.457   5.168   0.834 -0.2500  1.5929 -0.3285
 2664TIP3    H229628   2.562   5.272   0.803  0.9483  0.6633  0.5345
 2665TIP3   OH229629   1.435   1.309   8.119  0.1533  0.0121 -0.4104
 2665TIP3    H129630   1.507   1.246   8.113 -1.8252 -2.5139  0.5163
 2665TIP3    H229631   1.471   1.380   8.173  2.0245 -1.0342 -0.1622
 2666TIP3   OH229632   5.812   0.668   0.440  0.1515 -0.3083 -0.6653
 2666TIP3    H129633   5.818   0.736   0.374  0.0292  0.1438 -0.2180
 2666TIP3    H229634   5.902   0.647   0.462  0.1917 -0.5049 -1.0242
 2667TIP3   OH229635   4.773   2.864   7.279  0.1642 -0.1417 -0.0867
 2667TIP3    H129636   4.770   2.783   7.228  1.4720 -0.7353  0.7035
 2667TIP3    H229637   4.738   2.840   7.365  0.4405  0.1504  0.1133
 2668TIP3   OH229638   1.871   6.666   1.449  0.5244  0.0297 -0.7769
 2668TIP3    H129639   1.837   6.738   1.397  1.4333 -0.2087 -1.7329
 2668TIP3    H229640   1.855   6.588   1.396  0.1927 -0.3902 -0.0709
 2669TIP3   OH229641   2.338   2.218   7.380 -0.3045 -0.1174  0.1486
 2669TIP3    H129642   2.362   2.232   7.288 -0.6111 -2.7099 -0.4224
 2669TIP3    H229643   2.261   2.273   7.394  1.1207  2.1134 -0.4053
 2670TIP3   OH229644   4.416   3.248   0.304  0.3043  0.1332  0.0466
 2670TIP3    H129645   4.456   3.315   0.359  0.5473 -1.5305  2.0340
 2670TIP3    H229646   4.334   3.227   0.347 -0.1130 -0.3471 -0.9448
 2671TIP3   OH229647   3.003   0.222   1.278  0.1192 -0.5279 -0.4442
 2671TIP3    H129648   3.082   0.221   1.331  0.0389  1.4653 -0.2449
 2671TIP3    H229649   2.974   0.313   1.278 -1.6379 -1.0358 -1.3234
 2672TIP3   OH229650   6.091   6.625   8.054  0.2408  0.2714 -0.4127
 2672TIP3    H129651   6.060   6.541   8.019  0.9230  0.2342 -0.9400
 2672TIP3    H229652   6.021   6.687   8.033  1.1620  0.5305 -3.0626
 2673TIP3   OH229653   4.567   0.899   0.622 -0.1505  0.6108 -0.1928
 2673TIP3    H129654   4.548   0.965   0.688 -2.0511  0.0295 -0.1133
 2673TIP3    H229655   4.640   0.936   0.572 -1.5434  3.0771 -0.5723
 2674TIP3   OH229656   5.315   2.448   0.724 -0.1204  0.3127 -0.3033
 2674TIP3    H129657   5.286   2.363   0.689  1.7870 -0.2965 -0.5068
 2674TIP3    H229658   5.333   2.432   0.816  0.3761  0.4482 -0.3718
 2675TIP3   OH229659   0.706   4.518   2.477  0.0638 -0.0499 -0.3772
 2675TIP3    H129660   0.614   4.495   2.484 -0.0718  0.5332 -0.1688
 2675TIP3    H229661   0.751   4.454   2.532 -0.2868  0.0821  0.0693
 2676TIP3   OH229662   3.158   6.593   7.716 -0.1032  0.1304 -0.9041
 2676TIP3    H129663   3.127   6.518   7.765 -1.8826  0.5524 -1.3033
 2676TIP3    H229664   3.238   6.620   7.760  0.0566 -1.4175 -0.2027
 2677TIP3   OH229665   2.262   5.427   7.901 -0.5342  0.0457 -0.1182
 2677TIP3    H129666   2.209   5.500   7.931 -1.3833 -0.4739 -0.3160
 2677TIP3    H229667   2.224   5.350   7.944  1.7704 -0.0654  1.9709
 2678TIP3   OH229668   1.101   3.900   1.303 -0.0786  0.2790  0.3137
 2678TIP3    H129669   1.121   3.981   1.257  0.7152  0.3580  0.7877
 2678TIP3    H229670   1.027   3.921   1.359  0.3116  0.7565  0.6540
 2679TIP3   OH229671   5.021   6.184   8.264  0.6117  0.2875  0.1077
 2679TIP3    H129672   5.028   6.116   8.331 -2.1879  0.9168  1.2099
 2679TIP3    H229673   5.086   6.249   8.289  0.5407 -0.1177  1.4531
 2680TIP3   OH229674   1.925   5.368   0.344 -0.4150  0.2352  0.2647
 2680TIP3    H129675   1.895   5.424   0.416 -1.6606 -0.7433  0.5411
 2680TIP3    H229676   1.853   5.369   0.281  1.2798  2.4040 -1.8597
 2681TIP3   OH229677   0.178   2.546   0.477 -0.0198  0.2003 -0.3542
 2681TIP3    H129678   0.223   2.546   0.392  0.5526  0.0330 -0.0533
 2681TIP3    H229679   0.102   2.603   0.464  0.9014  1.4062 -0.5287
 2682TIP3   OH229680   6.606   6.876   7.857  0.3607 -0.1759  0.2356
 2682TIP3    H129681   6.655   6.913   7.931  0.4567  0.7351 -0.2710
 2682TIP3    H229682   6.669   6.874   7.785  0.2957 -1.1587  0.1972
 2683TIP3   OH229683   6.151   3.210   3.290 -0.1032 -0.1963 -0.2270
 2683TIP3    H129684   6.119   3.149   3.224  0.4921 -0.0327 -0.6798
 2683TIP3    H229685   6.149   3.295   3.246 -0.4888  0.0411  0.2443
 2684TIP3   OH229686   5.792   0.793   1.463  0.0481 -0.1738 -0.2045
 2684TIP3    H129687   5.764   0.707   1.494 -1.5657 -0.0774 -1.2956
 2684TIP3    H229688   5.714   0.848   1.471  1.1478  1.3296  0.8348
 2685TIP3   OH229689   4.888   2.431   0.173 -0.4883 -0.5221 -0.1546
 2685TIP3    H129690   4.944   2.439   0.250 -0.7241 -0.5759  0.0225
 2685TIP3    H229691   4.802   2.461   0.203 -0.5991 -0.6219 -0.3743
 2686TIP3   OH229692   4.659   0.305   8.381  0.1158 -0.4411  0.1212
 2686TIP3    H129693   4.616   0.292   8.465  1.0840 -3.2298  0.3170
 2686TIP3    H229694   4.682   0.216   8.352 -0.1914  0.3905 -3.1004
 2687TIP3   OH229695   1.626   5.470   1.337  0.3654  0.1222  0.3389
 2687TIP3    H129696   1.558   5.479   1.404 -1.2069 -2.0787 -0.8198
 2687TIP3    H229697   1.619   5.550   1.284 -1.5298 -0.1299  0.1289
 2688TIP3   OH229698   3.836   1.162   0.789 -0.4256  0.4664  0.0157
 2688TIP3    H129699   3.806   1.111   0.865  1.3338  0.8719  1.0604
 2688TIP3    H229700   3.757   1.183   0.741 -1.3408 -2.5577 -0.0377
 2689TIP3   OH229701   0.312   4.022   7.861  0.4910  0.1056 -0.9006
 2689TIP3    H129702   0.264   4.103   7.875  0.7327  0.0116  0.6499
 2689TIP3    H229703   0.255   3.969   7.806 -0.7788  0.3770  0.1043
 2690TIP3   OH229704   5.064   5.380   1.653  0.4979  0.0035  0.4117
 2690TIP3    H129705   5.043   5.459   1.702  0.4743 -0.2203  0.7640
 2690TIP3    H229706   5.154   5.360   1.676  0.2393 -0.5399  0.9722
 2691TIP3   OH229707   1.569   0.213   8.229  0.0320  0.4956 -0.1799
 2691TIP3    H129708   1.473   0.211   8.227 -0.1636 -0.5047  3.5846
 2691TIP3    H229709   1.594   0.126   8.261  2.3475  0.3926 -1.9625
 2692TIP3   OH229710   2.058   5.155   1.395  0.0853  0.5163  0.5624
 2692TIP3    H129711   2.061   5.248   1.418 -0.8249  0.4140  1.1386
 2692TIP3    H229712   2.089   5.110   1.474  0.0974  0.3099  0.4422
 2693TIP3   OH229713   1.854   4.800   1.908  0.6264 -0.0910  0.1454
 2693TIP3    H129714   1.850   4.894   1.892  1.4872  0.0554  0.7275
 2693TIP3    H229715   1.856   4.760   1.821  0.6005  0.4437 -0.1013
 2694TIP3   OH229716   4.707   1.108   7.012  0.5946  0.1386  0.3130
 2694TIP3    H129717   4.784   1.059   7.041  0.4699  0.0536  0.5004
 2694TIP3    H229718   4.633   1.053   7.037  0.4810  0.1051 -0.0805
 2695TIP3   OH229719   2.927   6.327   7.164 -0.5742  0.3271 -0.0421
 2695TIP3    H129720   2.979   6.348   7.241 -0.9281  1.5201 -0.0969
 2695TIP3    H229721   2.984   6.348   7.090 -0.5383  0.0190 -0.1016
 2696TIP3   OH229722   5.637   4.840   0.647  0.3428  0.3511 -0.2338
 2696TIP3    H129723   5.557   4.802   0.682 -0.0578 -1.2480 -2.6488
 2696TIP3    H229724   5.707   4.807   0.704 -0.4164 -0.8332  0.0305
 2697TIP3   OH229725   1.200   6.468   7.502  0.1633 -0.0078  0.3242
 2697TIP3    H129726   1.295   6.477   7.512  0.2568 -1.1357  0.5697
 2697TIP3    H229727   1.183   6.496   7.412  1.1457 -2.5161 -0.7227
 2698TIP3   OH229728   1.675   5.491   7.600  0.0455 -0.0935  0.6048
 2698TIP3    H129729   1.585   5.511   7.577 -0.1844 -0.7584  0.8932
 2698TIP3    H229730   1.725   5.567   7.572 -0.6709  0.4969  0.9167
 2699TIP3   OH229731   3.842   2.113   0.242 -0.6087 -0.0017 -0.1024
 2699TIP3    H129732   3.808   2.024   0.232 -0.2396 -0.2596  0.8566
 2699TIP3    H229733   3.904   2.123   0.169 -1.3223 -0.1990 -0.7476
 2700TIP3   OH229734   1.761   4.928   2.677  0.2755  0.4830 -0.4654
 2700TIP3    H129735   1.836   4.980   2.647  0.2465  0.4278 -0.6332
 2700TIP3    H229736   1.739   4.965   2.763  0.1523  0.8508 -0.6543
 2701TIP3   OH229737   5.528   2.564   8.498 -0.4834 -0.6823  0.2238
 2701TIP3    H129738   5.591   2.526   8.560  0.0469 -0.6864 -0.3082
 2701TIP3    H229739   5.563   2.650   8.478 -0.2993 -0.9319 -0.5652
 2702TIP3   OH229740   5.771   4.590   3.272  0.4096  0.2961  0.3450
 2702TIP3    H129741   5.707   4.541   3.324  0.2251 -1.1329 -1.1387
 2702TIP3    H229742   5.722   4.663   3.235  0.1455  0.3568  0.8043
 2703TIP3   OH229743   1.006   0.918   6.983 -0.5869 -0.3058  0.0434
 2703TIP3    H129744   0.949   0.845   7.008 -1.1736 -0.0428 -0.4885
 2703TIP3    H229745   0.949   0.995   6.986  0.1280  0.2057  1.0239
 2704TIP3   OH229746   2.064   5.105   0.937 -0.2479  0.7137  0.1554
 2704TIP3    H129747   1.989   5.058   0.974 -1.1363  1.6132 -0.4256
 2704TIP3    H229748   2.068   5.186   0.988 -0.7879  1.4590 -0.9417
 2705TIP3   OH229749   2.905   2.074   2.074  0.3567 -0.2290  0.0436
 2705TIP3    H129750   2.870   1.986   2.058 -1.1951 -0.0487  2.0533
 2705TIP3    H229751   2.895   2.087   2.169  1.8335  1.6017  0.0066
 2706TIP3   OH229752   2.558   2.339   2.246 -0.2654  0.1829 -0.3431
 2706TIP3    H129753   2.615   2.416   2.237 -0.6925  0.6947  1.0522
 2706TIP3    H229754   2.516   2.350   2.331 -1.0248 -1.1533 -0.5146
 2707TIP3   OH229755   4.589   6.050   1.461  0.4995  0.9450 -0.2442
 2707TIP3    H129756   4.617   5.979   1.519  1.6163  0.9360 -0.7617
 2707TIP3    H229757   4.653   6.050   1.389 -0.3999  1.4519 -1.0840
 2708TIP3   OH229758   5.530   0.553   0.094  0.7589  0.1995  0.8836
 2708TIP3    H129759   5.550   0.561   0.187 -1.0231 -1.9065  1.5451
 2708TIP3    H229760   5.557   0.464   0.071 -0.3069  0.1272 -0.1875
 2709TIP3   OH229761   4.956   1.892   2.161  0.3981  0.3593  0.0248
 2709TIP3    H129762   4.860   1.887   2.164  0.2134  2.7024  3.0555
 2709TIP3    H229763   4.976   1.918   2.072 -1.9474  1.5938 -0.2243
 2710TIP3   OH229764   3.187   6.865   8.010  0.1514  0.4516  0.8954
 2710TIP3    H129765   3.093   6.849   8.003 -0.0577  1.2744  1.6157
 2710TIP3    H229766   3.228   6.787   7.972 -0.7928  1.2274 -1.8912
 2711TIP3   OH229767   2.134   2.873   8.152  0.6881  0.0387  0.3676
 2711TIP3    H129768   2.112   2.814   8.225  2.2212 -1.0322  0.0107
 2711TIP3    H229769   2.066   2.940   8.155 -0.7713 -1.3777  1.2042
 2712TIP3   OH229770   1.392   6.605   0.146 -0.5271 -0.2757 -0.2964
 2712TIP3    H129771   1.487   6.614   0.151 -0.5967  0.3067  0.1054
 2712TIP3    H229772   1.373   6.526   0.196 -0.2704 -0.2908 -0.2182
 2713TIP3   OH229773   3.629   0.859   3.164  0.4753 -0.1617 -0.0942
 2713TIP3    H129774   3.694   0.904   3.109  1.9073  2.1230  3.1225
 2713TIP3    H229775   3.549   0.911   3.153  1.2648  1.4361  1.2267
 2714TIP3   OH229776   3.936   2.721   2.364  0.1959  0.4110 -0.0181
 2714TIP3    H129777   3.877   2.790   2.394  1.6162  1.4950  0.3662
 2714TIP3    H229778   3.982   2.691   2.443 -1.4117 -2.0504  0.0903
 2715TIP3   OH229779   0.639   0.830   7.719 -0.1196 -0.0653  0.1875
 2715TIP3    H129780   0.692   0.787   7.787 -3.1222 -1.6940  1.7168
 2715TIP3    H229781   0.562   0.774   7.711 -0.9759  1.3705 -2.9576
 2716TIP3   OH229782   2.139   2.199   2.231  0.1059  0.6089 -0.7076
 2716TIP3    H129783   2.166   2.223   2.319 -0.6021  0.0885 -0.3471
 2716TIP3    H229784   2.181   2.265   2.175  0.3927  1.0621  0.0255
 2717TIP3   OH229785   3.808   4.915   1.687  0.2723  0.2264 -0.1696
 2717TIP3    H129786   3.724   4.877   1.662  0.3404 -1.2661  1.6609
 2717TIP3    H229787   3.872   4.872   1.631 -0.2403  2.5325 -2.7197
 2718TIP3   OH229788   1.026   1.125   0.432  0.4527  0.4512  0.1671
 2718TIP3    H129789   1.014   1.195   0.496 -2.3571  0.8397 -0.6398
 2718TIP3    H229790   0.938   1.088   0.420  1.6739 -2.6282 -0.1460
 2719TIP3   OH229791   1.780   4.872   1.336 -0.1944  0.1221 -0.3924
 2719TIP3    H129792   1.750   4.782   1.349 -1.2076  0.6233  1.0112
 2719TIP3    H229793   1.731   4.923   1.401  1.3039  1.5027 -0.2883
 2720TIP3   OH229794   4.877   6.764   2.249  0.3171  0.5949 -0.2680
 2720TIP3    H129795   4.958   6.715   2.239  0.2617  0.4792 -0.1546
 2720TIP3    H229796   4.826   6.714   2.313 -0.9391 -0.7601 -2.2054
 2721TIP3   OH229797   2.843   4.566   0.773 -0.1727 -0.2547 -0.2230
 2721TIP3    H129798   2.797   4.544   0.692 -0.4615 -0.2899 -0.0546
 2721TIP3    H229799   2.802   4.510   0.839 -1.6079  1.4531  0.4069
 2722TIP3   OH229800   1.728   3.853   7.982 -0.6921  0.1471  0.1306
 2722TIP3    H129801   1.696   3.933   7.942 -1.0195  0.6905  1.4513
 2722TIP3    H229802   1.719   3.867   8.076 -0.4720 -1.3207  0.3952
 2723TIP3   OH229803   4.964   6.762   8.463  0.3316 -0.3061 -0.4238
 2723TIP3    H129804   5.055   6.750   8.434  0.9169 -0.3875  1.3149
 2723TIP3    H229805   4.914   6.699   8.410  1.6446 -2.0050  0.2449
 2724TIP3   OH229806   4.327   0.523   2.866  0.5398 -0.1609  0.6306
 2724TIP3    H129807   4.393   0.591   2.879  1.0479 -0.7047  1.0338
 2724TIP3    H229808   4.323   0.478   2.951  0.6005 -0.9521  0.2257
 2725TIP3   OH229809   3.915   2.177   2.518  0.2222  0.3459 -0.3103
 2725TIP3    H129810   3.973   2.146   2.588 -2.5216 -1.4980  1.3525
 2725TIP3    H229811   3.974   2.202   2.447  3.0314 -0.7398  1.4615
 2726TIP3   OH229812   0.826   5.388   2.271  0.3126 -0.0844  0.5076
 2726TIP3    H129813   0.792   5.402   2.359 -0.4395  1.4114  0.0016
 2726TIP3    H229814   0.886   5.461   2.256  1.0597 -0.7687  0.0675
 2727TIP3   OH229815   4.158   2.189   1.558 -0.2771 -0.6754 -0.2801
 2727TIP3    H129816   4.207   2.154   1.483 -0.1895 -0.3528 -0.3764
 2727TIP3    H229817   4.225   2.206   1.625 -0.0761  0.8390 -0.8123
 2728TIP3   OH229818   4.165   1.608   0.641  0.3087 -0.1794  0.2956
 2728TIP3    H129819   4.111   1.588   0.718  1.5968 -1.5652  0.8959
 2728TIP3    H229820   4.108   1.592   0.566 -1.3476  2.2926  0.9017
 2729TIP3   OH229821   1.203   1.783   2.194  0.1043  0.5330 -0.1203
 2729TIP3    H129822   1.192   1.843   2.268 -0.3350  0.2468  0.0507
 2729TIP3    H229823   1.134   1.717   2.206  2.1218 -1.4864  1.1235
 2730TIP3   OH229824   2.320   5.603   8.427 -0.4614  0.0585  0.1920
 2730TIP3    H129825   2.285   5.514   8.436  0.7529 -0.3766  0.9289
 2730TIP3    H229826   2.369   5.617   8.508  0.9622  0.6532 -0.7305
 2731TIP3   OH229827   4.730   1.275   2.173 -0.0437  0.3249  0.1622
 2731TIP3    H129828   4.702   1.266   2.264 -1.2833  0.7695 -0.1499
 2731TIP3    H229829   4.750   1.186   2.144 -1.5653 -0.0812  0.2952
 2732TIP3   OH229830   2.696   1.468   0.247 -0.3909  0.4236 -0.0927
 2732TIP3    H129831   2.724   1.396   0.191  0.9684 -0.4930  1.6281
 2732TIP3    H229832   2.638   1.427   0.311 -0.8342  1.1662 -0.0087
 2733TIP3   OH229833   5.016   1.663   7.641  0.0834  0.8387  0.6668
 2733TIP3    H129834   5.064   1.591   7.599  0.5554  1.8333 -0.5713
 2733TIP3    H229835   4.935   1.670   7.591 -0.1824  0.8462  1.0999
 2734TIP3   OH229836   5.027   6.036   0.725  0.4030  0.0099  0.0419
 2734TIP3    H129837   5.032   6.128   0.697  1.5578  0.9496  2.8867
 2734TIP3    H229838   4.942   6.028   0.767  0.9324  0.3010  1.2196
 2735TIP3   OH229839   5.751   5.322   1.932 -0.0408  0.3768  0.1138
 2735TIP3    H129840   5.776   5.230   1.924 -0.7286  0.1394  0.6113
 2735TIP3    H229841   5.720   5.347   1.845 -0.1938  0.0330  0.0704
 2736TIP3   OH229842   1.979   1.674   3.023  0.3446  0.1243 -0.3180
 2736TIP3    H129843   2.017   1.671   2.935  0.9023  1.3004 -0.1337
 2736TIP3    H229844   2.054   1.691   3.081 -0.3225  1.7414  0.1250
 2737TIP3   OH229845   6.329   1.220   8.156 -0.1848  0.3378 -0.4261
 2737TIP3    H129846   6.340   1.299   8.209 -0.2669  1.1211 -1.5582
 2737TIP3    H229847   6.412   1.211   8.109 -0.7180  0.6003 -1.4264
 2738TIP3   OH229848   4.013   2.161   1.162  0.4092  1.0376  0.3584
 2738TIP3    H129849   4.040   2.087   1.217 -0.7848 -1.0817 -1.7095
 2738TIP3    H229850   4.094   2.194   1.125  0.9878  0.9133  1.4756
 2739TIP3   OH229851   1.718   6.140   8.285  0.6721  0.2756 -0.1471
 2739TIP3    H129852   1.676   6.217   8.248 -0.4393  0.0676  0.6166
 2739TIP3    H229853   1.686   6.067   8.231 -1.4594 -0.1110  1.4772
 2740TIP3   OH229854   0.794   4.436   6.898  0.1148 -0.1771  0.0557
 2740TIP3    H129855   0.794   4.484   6.815 -0.3082 -1.4487 -0.7107
 2740TIP3    H229856   0.844   4.492   6.958 -1.4520  1.8284 -0.3966
 2741TIP3   OH229857   5.054   5.068   6.885 -0.4964  0.5632 -0.3578
 2741TIP3    H129858   5.147   5.069   6.861  0.8337 -0.4143  3.8024
 2741TIP3    H229859   5.023   5.156   6.867  1.9863  1.6826  0.3821
 2742TIP3   OH229860   2.654   6.263   1.824  0.0591  0.7177  0.4898
 2742TIP3    H129861   2.601   6.260   1.903 -0.0040 -1.4846  0.4315
 2742TIP3    H229862   2.740   6.294   1.853  0.1730 -0.5112  1.5358
 2743TIP3   OH229863   0.504   6.416   6.618 -0.2318 -0.2509 -0.3626
 2743TIP3    H129864   0.451   6.371   6.684  0.3309 -0.2050  0.1219
 2743TIP3    H229865   0.564   6.471   6.669 -1.2310  1.4425 -0.9313
 2744TIP3   OH229866   5.685   2.458   3.064  0.0363  0.6188 -0.2425
 2744TIP3    H129867   5.628   2.519   3.016 -1.1609  0.3257  0.7592
 2744TIP3    H229868   5.629   2.382   3.082  1.0547 -0.1171 -0.1096
 2745TIP3   OH229869   0.787   5.353   6.718  0.1343 -0.4090 -0.2579
 2745TIP3    H129870   0.759   5.401   6.641  0.7766 -0.1186 -0.3144
 2745TIP3    H229871   0.867   5.397   6.747 -0.6112  0.1020  1.1465
 2746TIP3   OH229872   5.530   1.132   0.867 -0.1943 -0.0023  0.0953
 2746TIP3    H129873   5.606   1.093   0.824 -0.7840 -1.2425  0.1299
 2746TIP3    H229874   5.468   1.060   0.876 -1.3693  0.9823  0.1017
 2747TIP3   OH229875   1.680   3.933   8.235 -0.6495 -0.1046  0.1487
 2747TIP3    H129876   1.601   3.985   8.216 -1.6106 -0.8616  1.8965
 2747TIP3    H229877   1.718   3.975   8.311  1.0178  0.6004 -1.0203
 2748TIP3   OH229878   5.162   2.588   8.258  0.2926  0.1408 -0.8704
 2748TIP3    H129879   5.181   2.654   8.326 -1.0265 -0.2929 -0.0374
 2748TIP3    H229880   5.190   2.629   8.176  4.2547 -0.2380  0.0851
 2749TIP3   OH229881   1.659   3.466   1.196 -0.8346 -0.0674 -0.3134
 2749TIP3    H129882   1.653   3.397   1.130  0.0160 -0.7140  0.2564
 2749TIP3    H229883   1.568   3.485   1.220 -1.0988 -0.6482 -0.8307
 2750TIP3   OH229884   5.888   5.881   2.082  0.5966  0.0150  0.4330
 2750TIP3    H129885   5.941   5.935   2.023  0.4814  0.1786  0.4829
 2750TIP3    H229886   5.897   5.922   2.167  1.3303 -0.6124  0.6775
 2751TIP3   OH229887   0.280   1.250   2.033 -0.5486  0.1828 -0.4958
 2751TIP3    H129888   0.349   1.184   2.032 -0.4061  0.3344 -1.1245
 2751TIP3    H229889   0.321   1.329   1.997 -0.8439  0.4844 -0.1763
 2752TIP3   OH229890   6.006   3.793   0.745  0.6651 -0.1530  0.0676
 2752TIP3    H129891   5.959   3.856   0.800  1.1118  1.0785 -0.8920
 2752TIP3    H229892   6.098   3.819   0.752  0.7191  0.1338 -1.3396
 2753TIP3   OH229893   6.797   0.287   2.553  0.7553  0.2499  1.0876
 2753TIP3    H129894   6.850   0.225   2.503  1.4172  1.6287  0.0028
 2753TIP3    H229895   6.745   0.333   2.486  1.8180  2.2979  1.5741
 2754TIP3   OH229896   4.569   2.569   8.331  0.1621  0.5859 -0.0264
 2754TIP3    H129897   4.630   2.525   8.271 -0.8496  0.5050 -1.0343
 2754TIP3    H229898   4.534   2.642   8.279 -0.6877  0.5517  0.4841
 2755TIP3   OH229899   6.109   1.347   7.663 -1.1542 -0.3057 -0.0866
 2755TIP3    H129900   6.088   1.320   7.573  2.1045 -2.9487 -0.2532
 2755TIP3    H229901   6.082   1.274   7.717 -0.9344  0.2497  0.7908
 2756TIP3   OH229902   4.297   1.297   0.502  0.1767 -0.0828  0.5835
 2756TIP3    H129903   4.341   1.381   0.491 -1.4562  0.6348 -1.0620
 2756TIP3    H229904   4.360   1.232   0.471  1.1542  0.5991  1.0918
 2757TIP3   OH229905   5.900   5.948   2.372  0.3063  0.2253 -0.0496
 2757TIP3    H129906   5.959   6.006   2.419  0.3559  0.2909 -0.1925
 2757TIP3    H229907   5.813   5.968   2.407 -0.0773  2.3050 -1.9627
 2758TIP3   OH229908   4.519   4.580   2.191 -0.0652  1.1386 -0.7243
 2758TIP3    H129909   4.534   4.654   2.132  1.7745  2.2674  1.0387
 2758TIP3    H229910   4.507   4.619   2.277 -1.6992 -0.5177 -0.1377
 2759TIP3   OH229911   4.014   0.280   1.403 -0.5141 -0.2013 -0.2841
 2759TIP3    H129912   4.011   0.321   1.489 -0.4505  0.0013 -0.3770
 2759TIP3    H229913   4.103   0.244   1.397  0.4877  2.2160 -1.3640
 2760TIP3   OH229914   5.185   6.297   0.829  0.6049  0.1437  0.7803
 2760TIP3    H129915   5.255   6.231   0.831 -0.2128 -0.7478  2.5989
 2760TIP3    H229916   5.140   6.285   0.912 -0.6714  1.8479  0.3661
 2761TIP3   OH229917   1.652   3.576   7.888 -0.4940  0.3941 -0.3990
 2761TIP3    H129918   1.698   3.650   7.929 -2.3389  1.5115 -0.2360
 2761TIP3    H229919   1.656   3.506   7.954  2.3814 -0.1820 -1.0505
 2762TIP3   OH229920   5.125   0.001   0.953  0.3262 -0.4635 -0.1713
 2762TIP3    H129921   5.096  -0.049   0.877  1.5948 -0.5474 -0.6250
 2762TIP3    H229922   5.062  -0.020   1.021 -0.9913 -0.1895 -1.2568
 2763TIP3   OH229923   1.997   4.538   7.767  0.7722  0.3155 -0.1784
 2763TIP3    H129924   2.010   4.455   7.721 -2.1758 -1.4895  1.9004
 2763TIP3    H229925   2.076   4.548   7.820  0.2170 -2.5826  1.4040
 2764TIP3   OH229926   0.926   1.328   1.173  0.3665 -0.0793 -0.0267
 2764TIP3    H129927   0.983   1.401   1.195  0.0078  0.1784  0.0588
 2764TIP3    H229928   0.850   1.368   1.130  0.1577 -0.3959  0.0340
 2765TIP3   OH229929   1.636   5.834   7.909 -0.2529  0.7470  0.4770
 2765TIP3    H129930   1.666   5.922   7.884  2.0739  0.5655  2.2812
 2765TIP3    H229931   1.698   5.775   7.867 -1.8290 -0.1058 -0.7520
 2766TIP3   OH229932   2.290   0.569   7.620  0.1956 -0.0281  0.1321
 2766TIP3    H129933   2.330   0.651   7.591 -0.9275  0.0260 -1.4723
 2766TIP3    H229934   2.315   0.506   7.553 -2.0699 -0.0412 -0.7998
 2767TIP3   OH229935   4.981   0.012   7.085  0.3938  0.0499  0.5483
 2767TIP3    H129936   5.027   0.090   7.052 -0.5470  0.1514 -0.6270
 2767TIP3    H229937   5.003  -0.057   7.022  1.5057 -0.7624  1.7793
 2768TIP3   OH229938   1.165   5.214   0.856  0.1719  0.2197 -0.1642
 2768TIP3    H129939   1.200   5.176   0.937  2.5095  0.0222 -1.1854
 2768TIP3    H229940   1.103   5.281   0.885  1.2315  0.4188  1.7957
 2769TIP3   OH229941   3.817   3.774   1.418 -0.3562  0.1731 -0.4538
 2769TIP3    H129942   3.806   3.723   1.338 -2.7128 -1.6605  0.9028
 2769TIP3    H229943   3.747   3.840   1.414  0.2561  0.8480 -0.3963
 2770TIP3   OH229944   4.275   5.920   1.634 -0.0727  0.1449  0.4507
 2770TIP3    H129945   4.192   5.952   1.599  1.0772  1.3302 -1.3542
 2770TIP3    H229946   4.296   5.981   1.705  0.5522  1.5282 -0.8847
 2771TIP3   OH229947   0.743   4.717   2.663 -0.0448 -0.8649  0.1372
 2771TIP3    H129948   0.759   4.623   2.670 -1.0881 -1.1611 -1.0921
 2771TIP3    H229949   0.693   4.727   2.582  0.6020  0.8222 -0.1074
 2772TIP3   OH229950   3.020   6.772   7.461 -0.0161  1.1859  0.4060
 2772TIP3    H129951   3.101   6.808   7.425 -0.0615  0.4921 -0.4323
 2772TIP3    H229952   3.034   6.678   7.464 -0.2631  1.1716  1.6393
 2773TIP3   OH229953   4.181   4.539   2.716  0.0174 -0.2013  0.5296
 2773TIP3    H129954   4.104   4.583   2.753 -0.1491  0.4109 -0.4819
 2773TIP3    H229955   4.181   4.566   2.624  4.3865  4.3596  1.3995
 2774TIP3   OH229956   0.482   1.190   0.211 -0.3699 -0.9021 -0.3713
 2774TIP3    H129957   0.451   1.193   0.121 -1.3829  0.4957 -0.0032
 2774TIP3    H229958   0.404   1.171   0.263 -0.1486  0.0822  0.3464
 2775TIP3   OH229959   2.836   1.947   0.127  0.2653 -0.1008  0.4818
 2775TIP3    H129960   2.795   1.863   0.105  0.1012  0.3665 -1.1231
 2775TIP3    H229961   2.791   1.976   0.206 -0.4073 -1.0334  0.4574
 2776TIP3   OH229962   4.976   1.594   0.067  0.0540  0.2818  0.5525
 2776TIP3    H129963   5.018   1.508   0.077 -0.4219  0.0463  0.5709
 2776TIP3    H229964   5.019   1.633  -0.009  0.2444  0.0120  0.5189
 2777TIP3   OH229965   4.146   3.828   8.268  0.1016 -0.9896  0.0204
 2777TIP3    H129966   4.189   3.770   8.205  0.8516 -0.2069 -0.2019
 2777TIP3    H229967   4.213   3.847   8.333 -0.0886 -0.2196 -0.0081
 2778TIP3   OH229968   6.476   0.924   1.411  0.1856  0.2248 -0.2232
 2778TIP3    H129969   6.482   0.845   1.357  0.4065  0.5386 -0.6557
 2778TIP3    H229970   6.528   0.904   1.489  2.2726  0.8372 -1.4163
 2779TIP3   OH229971   2.043   3.650   1.790 -0.0016 -0.1972 -0.2230
 2779TIP3    H129972   2.030   3.701   1.870 -0.4091 -0.7383  0.0622
 2779TIP3    H229973   2.042   3.559   1.820  4.5363 -0.4387 -0.0898
 2780TIP3   OH229974   3.891   4.087   1.267 -0.2371  0.1673 -0.2739
 2780TIP3    H129975   3.802   4.073   1.297 -0.4577  3.1417  0.8363
 2780TIP3    H229976   3.935   4.129   1.341  1.5939  0.2947 -1.3694
 2781TIP3   OH229977   2.863   5.188   2.031  0.0578 -0.6352 -0.3921
 2781TIP3    H129978   2.819   5.151   2.107  0.6290 -1.7367 -0.5735
 2781TIP3    H229979   2.933   5.242   2.067  0.8417 -1.8038 -0.1187
 2782TIP3   OH229980   6.521   0.548   2.657 -0.2334  0.1861 -0.4482
 2782TIP3    H129981   6.453   0.615   2.656 -0.7180 -0.1228  2.6958
 2782TIP3    H229982   6.602   0.596   2.674 -0.6060  0.0593  1.9934
 2783TIP3   OH229983   3.859   0.542   7.685 -0.2200  0.4894  0.0049
 2783TIP3    H129984   3.892   0.581   7.605 -0.6009  0.9413  0.0603
 2783TIP3    H229985   3.829   0.454   7.659  1.3740 -0.0864  0.0461
 2784TIP3   OH229986   0.131   2.666   7.975  0.0259 -0.1702  0.1035
 2784TIP3    H129987   0.180   2.624   8.046 -0.7288  0.3031  0.9164
 2784TIP3    H229988   0.041   2.637   7.987 -0.0560 -0.3439 -0.8627
 2785TIP3   OH229989   2.410   5.593   6.841 -0.0270  0.3786 -0.5530
 2785TIP3    H129990   2.487   5.537   6.830  0.5082  0.6415  1.4310
 2785TIP3    H229991   2.335   5.534   6.834  0.4665 -0.3362  0.0765
 2786TIP3   OH229992   5.164   5.431   7.360 -0.1442  0.0722  0.5295
 2786TIP3    H129993   5.118   5.365   7.309 -0.8542  0.7928  0.2164
 2786TIP3    H229994   5.241   5.386   7.394 -0.7692 -0.9992  0.5762
 2787TIP3   OH229995   2.211   0.283   7.937  0.4390  0.8698 -0.5151
 2787TIP3    H129996   2.240   0.364   7.978 -1.4063  1.8599 -1.0423
 2787TIP3    H229997   2.128   0.306   7.895 -0.1401 -1.2929 -0.6782
 2788TIP3   OH229998   0.081   3.665   1.228 -0.1761 -0.4493  0.3994
 2788TIP3    H129999   0.078   3.735   1.162  1.2139 -0.0319  0.7507
 2788TIP3    H230000   0.038   3.591   1.186 -0.3842  0.1734 -0.5238
 2789TIP3   OH230001   6.548   4.935   7.332  0.2171  0.1052  0.1142
 2789TIP3    H130002   6.631   4.914   7.374 -0.0673  1.0952  1.2221
 2789TIP3    H230003   6.505   4.850   7.318  0.2715 -0.2693  1.9618
 2790TIP3   OH230004   3.694   0.226   7.890  0.7474  0.0825  0.1888
 2790TIP3    H130005   3.694   0.248   7.797  3.1499 -0.0942  0.0870
 2790TIP3    H230006   3.691   0.311   7.935  0.8773  0.2188 -0.0594
 2791TIP3   OH230007   1.733   5.623   8.446  0.3763  0.4482 -0.2195
 2791TIP3    H130008   1.793   5.668   8.385  0.7317 -1.7955 -1.6460
 2791TIP3    H230009   1.664   5.588   8.390 -0.8708  0.7182  1.0847
 2792TIP3   OH230010   1.884   1.143   7.674 -0.4782 -0.0360 -0.1167
 2792TIP3    H130011   1.816   1.207   7.652 -0.5308  0.3752  1.1951
 2792TIP3    H230012   1.901   1.098   7.591 -1.2588  0.8875 -0.8090
 2793TIP3   OH230013   6.150   3.433   0.547 -0.3812  0.0913 -0.0035
 2793TIP3    H130014   6.222   3.382   0.587  0.0068  2.0571  2.0205
 2793TIP3    H230015   6.194   3.505   0.503 -1.0372  0.1207 -0.6126
 2794TIP3   OH230016   6.422   0.818   8.563 -0.5677 -0.2839  0.0627
 2794TIP3    H130017   6.441   0.832   8.470  3.2577  1.9875  0.9639
 2794TIP3    H230018   6.458   0.731   8.581  2.1886  0.7372  0.0241
 2795TIP3   OH230019   2.688   5.779   7.743  0.3620 -0.1709 -0.1445
 2795TIP3    H130020   2.695   5.871   7.770  0.7313  0.3102 -1.7816
 2795TIP3    H230021   2.774   5.742   7.764  0.6672  0.2114 -0.6807
 2796TIP3   OH230022   6.151   5.280   2.549  0.3215 -0.3591  0.5108
 2796TIP3    H130023   6.205   5.205   2.576  1.4403 -0.1696 -1.0742
 2796TIP3    H230024   6.126   5.260   2.459  0.3908  1.0418  0.1716
 2797TIP3   OH230025   4.156   5.428   0.350 -0.2438  0.1032 -0.0362
 2797TIP3    H130026   4.163   5.433   0.254  1.9422 -0.4569  0.0350
 2797TIP3    H230027   4.062   5.430   0.367 -0.6855  1.5487 -2.1124
 2798TIP3   OH230028   3.940   6.690   6.991 -0.4641  0.0755  0.5115
 2798TIP3    H130029   3.852   6.721   6.970 -0.6502  0.4774  1.7984
 2798TIP3    H230030   3.998   6.756   6.952 -0.6073 -1.0697 -1.8415
 2799TIP3   OH230031   3.584   0.554   0.308  0.0333 -0.7024 -0.1688
 2799TIP3    H130032   3.540   0.489   0.362  0.5799  0.1254  1.3486
 2799TIP3    H230033   3.654   0.506   0.264  0.5320 -1.1485  1.0471
 2800TIP3   OH230034   2.611   4.913   2.351  0.1265  0.5432  0.9563
 2800TIP3    H130035   2.672   4.975   2.393  1.3300 -0.8839  1.4122
 2800TIP3    H230036   2.656   4.885   2.272  0.7923 -1.6433  2.0389
 2801TIP3   OH230037   5.049   5.738   8.389 -0.3276  0.0912  0.2289
 2801TIP3    H130038   5.072   5.735   8.297 -1.3384  2.6702 -0.2005
 2801TIP3    H230039   5.132   5.747   8.435  0.0652  1.4067 -0.6715
 2802TIP3   OH230040   5.634   2.699   2.540 -0.2735 -0.0750 -0.6277
 2802TIP3    H130041   5.651   2.631   2.475 -0.0174 -0.6098 -0.0113
 2802TIP3    H230042   5.538   2.705   2.544 -0.2874  0.0959 -1.1883
 2803TIP3   OH230043   5.574   6.199   2.799 -0.0584 -0.7138  0.4754
 2803TIP3    H130044   5.661   6.238   2.806 -0.4232  0.0922  0.5359
 2803TIP3    H230045   5.591   6.107   2.779  0.8078 -0.5593  0.4759
 2804TIP3   OH230046   3.430   2.732   0.862  0.5467  0.2929 -0.8013
 2804TIP3    H130047   3.448   2.826   0.867  2.7569  0.0710 -2.7283
 2804TIP3    H230048   3.359   2.724   0.799 -0.1765  0.7036 -0.0482
 2805TIP3   OH230049   1.802   3.944   0.671  0.3750  0.1821 -0.1685
 2805TIP3    H130050   1.708   3.925   0.667 -0.5622  3.4579  2.3404
 2805TIP3    H230051   1.830   3.940   0.580 -2.6020  0.6241 -1.2381
 2806TIP3   OH230052   2.225   1.124   0.387  0.1349  0.6112  0.2670
 2806TIP3    H130053   2.146   1.179   0.385  2.1281  3.8101  1.6881
 2806TIP3    H230054   2.247   1.111   0.295 -2.0178 -0.4534 -0.1760
 2807TIP3   OH230055   4.297   5.263   0.511  0.0793  0.1602 -0.4622
 2807TIP3    H130056   4.367   5.326   0.526 -0.6152  0.4788  2.0696
 2807TIP3    H230057   4.235   5.308   0.453  0.1924  1.3598  0.3079
 2808TIP3   OH230058   2.321   6.376   7.723  0.4848  0.0099  0.3231
 2808TIP3    H130059   2.387   6.442   7.704 -0.7784  1.0113 -0.8076
 2808TIP3    H230060   2.345   6.302   7.667 -0.0080  0.8405 -1.0576
 2809TIP3   OH230061   5.110   4.086   1.113 -0.3293  0.4299  0.7598
 2809TIP3    H130062   5.140   4.111   1.200  2.5982 -1.8662  0.5799
 2809TIP3    H230063   5.150   4.149   1.054 -1.1098  1.1041  0.9293
 2810TIP3   OH230064   2.098   6.379   8.069  0.1890 -0.1063  0.4584
 2810TIP3    H130065   2.146   6.334   8.138 -0.2970 -0.1041  0.8069
 2810TIP3    H230066   2.026   6.424   8.115 -0.7803 -0.9728 -0.1515
 2811TIP3   OH230067   6.491   6.625   1.803 -0.1827 -0.3424 -0.0573
 2811TIP3    H130068   6.537   6.670   1.874  0.0804  0.7135 -0.8685
 2811TIP3    H230069   6.437   6.560   1.847  0.3260 -0.0218  1.0781
 2812TIP3   OH230070   6.011   6.209   1.345  0.0817 -0.1795  0.8270
 2812TIP3    H130071   5.998   6.119   1.317  1.1540  0.1166 -0.7697
 2812TIP3    H230072   6.042   6.202   1.436 -2.3412 -1.2391  1.6485
 2813TIP3   OH230073   5.936   3.933   0.493  0.0536 -0.1869  0.1924
 2813TIP3    H130074   5.965   3.871   0.560 -0.7230 -0.4759  0.2706
 2813TIP3    H230075   5.864   3.888   0.449 -0.7991  0.8351  0.5198
 2814TIP3   OH230076   0.548   2.650   7.179  0.2562 -0.1627  0.1001
 2814TIP3    H130077   0.502   2.567   7.168  0.3542  0.0070 -1.8914
 2814TIP3    H230078   0.504   2.710   7.119  0.6561  1.0430  0.9735
 2815TIP3   OH230079   0.901   1.722   1.657 -0.8423 -0.0392  0.7176
 2815TIP3    H130080   0.888   1.807   1.615  0.2984  0.4348  1.2897
 2815TIP3    H230081   0.856   1.660   1.599  0.1845  0.6541 -0.8877
 2816TIP3   OH230082   2.686   2.640   1.662 -0.4122 -0.2325 -0.1485
 2816TIP3    H130083   2.605   2.590   1.656 -1.2481  1.2489 -2.0998
 2816TIP3    H230084   2.658   2.730   1.678  0.9046  0.1468  0.1966
 2817TIP3   OH230085   6.460   2.007   0.192  0.2604 -0.1476  0.1966
 2817TIP3    H130086   6.415   1.928   0.221  0.0243 -0.7541 -1.6642
 2817TIP3    H230087   6.533   1.974   0.139  0.6936  0.8666  0.1522
 2818TIP3   OH230088   0.080   3.555   2.094  0.2262 -0.1336  0.6186
 2818TIP3    H130089   0.158   3.541   2.149  0.5745  1.2928  0.5109
 2818TIP3    H230090   0.024   3.613   2.146  0.0440  0.2966 -0.0500
 2819TIP3   OH230091   3.232   6.595   7.459  0.5497 -0.1275  0.7261
 2819TIP3    H130092   3.306   6.542   7.429 -0.9308 -1.9720  0.1681
 2819TIP3    H230093   3.232   6.584   7.554  0.8759 -0.2384  0.7159
 2820TIP3   OH230094   6.136   2.996   1.726  0.1697 -0.0405 -0.1558
 2820TIP3    H130095   6.169   3.076   1.685  0.3355  1.2661  2.3194
 2820TIP3    H230096   6.045   2.990   1.697 -0.0857  1.5328  0.2290
 2821TIP3   OH230097   0.020   6.211   7.422 -0.3264 -0.0243 -0.1732
 2821TIP3    H130098  -0.063   6.224   7.468 -0.8771  2.6445 -1.7420
 2821TIP3    H230099   0.024   6.116   7.408 -3.6895 -0.2043 -0.9634
 2822TIP3   OH230100   2.586   0.786   8.460  0.0739  0.1994  0.0222
 2822TIP3    H130101   2.496   0.760   8.441  0.0681 -1.0264  1.5557
 2822TIP3    H230102   2.627   0.797   8.374 -1.2819 -0.0957 -0.6856
 2823TIP3   OH230103   6.261   5.568   1.300 -0.4422  0.4072  0.5772
 2823TIP3    H130104   6.269   5.643   1.360 -0.3310  0.3670  0.6125
 2823TIP3    H230105   6.230   5.606   1.218 -0.4663  0.4803  0.6201
 2824TIP3   OH230106   6.760   4.691   0.262 -0.3013 -0.9210  0.1073
 2824TIP3    H130107   6.781   4.684   0.355 -0.9195 -1.9421  0.1881
 2824TIP3    H230108   6.793   4.777   0.236  0.1580 -0.7527  1.1919
 2825TIP3   OH230109   2.579   4.664   1.505  0.6949  0.1933  0.0525
 2825TIP3    H130110   2.543   4.634   1.421 -0.0900  0.2024  0.3717
 2825TIP3    H230111   2.649   4.725   1.481  1.2241 -0.6514 -0.5956
 2826TIP3   OH230112   1.896   1.326   7.222  0.2720  0.2038  0.3985
 2826TIP3    H130113   1.914   1.236   7.249 -0.8261  0.5365  2.3517
 2826TIP3    H230114   1.975   1.374   7.245 -0.3734  0.3412  2.4498
 2827TIP3   OH230115   1.488   3.537   8.145  0.5362  0.3949 -0.7498
 2827TIP3    H130116   1.533   3.580   8.217 -1.0167  1.5339 -0.4014
 2827TIP3    H230117   1.459   3.453   8.182  1.3967  0.1319 -0.6538
 2828TIP3   OH230118   1.208   4.562   1.451  1.0903 -0.1252 -0.1418
 2828TIP3    H130119   1.182   4.511   1.528 -1.1609 -0.0346 -0.7658
 2828TIP3    H230120   1.210   4.498   1.380 -2.0174  0.5303 -0.9865
 2829TIP3   OH230121   6.676   2.030   7.740 -0.2384 -0.2593 -0.1736
 2829TIP3    H130122   6.650   2.055   7.652 -0.8135  1.0223  0.3457
 2829TIP3    H230123   6.593   2.023   7.789  0.0219 -1.5509  0.1363
 2830TIP3   OH230124   6.597   0.382   0.936 -0.4222  0.0817  0.4239
 2830TIP3    H130125   6.503   0.368   0.924 -0.3039 -0.0334 -0.4351
 2830TIP3    H230126   6.638   0.324   0.873  0.2904 -1.0831  1.8897
 2831TIP3   OH230127   1.148   1.301   7.406 -0.2941 -0.2634  0.2985
 2831TIP3    H130128   1.142   1.287   7.312  2.1403  1.5274 -0.2227
 2831TIP3    H230129   1.200   1.228   7.439  2.1177  1.0262 -0.4412
 2832TIP3   OH230130   2.247   1.694   7.938  0.1438 -0.6951  0.3802
 2832TIP3    H130131   2.203   1.708   8.021  1.2827  0.1981  0.8555
 2832TIP3    H230132   2.333   1.658   7.961  0.9096  0.5894 -0.3052
 2833TIP3   OH230133   0.276   0.704   1.248 -0.0993  0.3790  0.0432
 2833TIP3    H130134   0.200   0.698   1.191  1.4659  0.9550 -2.2399
 2833TIP3    H230135   0.259   0.780   1.304 -0.6699  1.2818 -1.3104
 2834TIP3   OH230136   5.365   0.084   1.934  0.0703 -0.3939 -0.4072
 2834TIP3    H130137   5.303   0.155   1.920  1.1110  0.5672 -0.2618
 2834TIP3    H230138   5.395   0.061   1.847 -1.1841 -1.5493 -0.5803
 2835TIP3   OH230139   5.741   5.410   7.007  0.1692  0.0429 -0.3199
 2835TIP3    H130140   5.747   5.411   7.103  0.9870  1.1354 -0.3561
 2835TIP3    H230141   5.814   5.354   6.980  0.1391  0.0029 -0.3192
 2836TIP3   OH230142   1.456   4.321   0.242  0.4432 -0.4081  0.0535
 2836TIP3    H130143   1.505   4.298   0.164  0.3495  3.8087 -1.5141
 2836TIP3    H230144   1.520   4.316   0.313  1.2562 -1.6319 -0.7350
 2837TIP3   OH230145   4.152   1.594   0.361  0.1162 -0.3649 -0.3183
 2837TIP3    H130146   4.115   1.515   0.321 -1.8473  0.2447  0.1654
 2837TIP3    H230147   4.198   1.638   0.290 -0.9755 -0.6767 -1.2406
 2838TIP3   OH230148   0.282   3.476   0.580  0.0820  0.3036 -0.3156
 2838TIP3    H130149   0.256   3.418   0.651  0.5632 -0.5287 -0.8061
 2838TIP3    H230150   0.202   3.525   0.559 -0.6889 -1.0672 -0.7172
 2839TIP3   OH230151   0.267   6.726   1.136  0.1073  0.1966 -0.3660
 2839TIP3    H130152   0.223   6.656   1.183 -0.6034  0.5890 -0.4291
 2839TIP3    H230153   0.199   6.793   1.124  0.2778  0.1426 -1.8556
 2840TIP3   OH230154   6.012   6.577   7.549  0.0626  0.2081 -0.2365
 2840TIP3    H130155   5.995   6.493   7.507  0.4662  0.5960 -1.2206
 2840TIP3    H230156   6.107   6.580   7.559  0.1964  1.1114 -1.4962
 2841TIP3   OH230157   0.948   5.850   8.347 -0.1291  0.7905 -0.0971
 2841TIP3    H130158   0.875   5.890   8.394 -2.1277  0.0663 -2.3523
 2841TIP3    H230159   0.990   5.794   8.412 -2.7401 -0.1901  0.9195
 2842TIP3   OH230160   6.111   6.254   0.641 -0.2185  0.2857  0.3382
 2842TIP3    H130161   6.114   6.349   0.647  0.6295  0.3419 -0.7951
 2842TIP3    H230162   6.181   6.231   0.581  0.1693 -1.1271  1.2712
 2843TIP3   OH230163   2.227   3.395   1.640  0.3216 -0.0354 -0.1932
 2843TIP3    H130164   2.186   3.383   1.726 -0.1307 -2.2198 -0.6409
 2843TIP3    H230165   2.179   3.468   1.600 -0.3702  0.1156  0.8899
 2844TIP3   OH230166   5.639   4.904   7.960 -0.3232 -0.5112 -0.3738
 2844TIP3    H130167   5.700   4.979   7.961 -1.6892  0.6731  1.7201
 2844TIP3    H230168   5.585   4.919   7.882  0.7588 -0.4871 -1.1409
 2845TIP3   OH230169   5.421   1.705   0.081  0.2958  0.3060  0.1769
 2845TIP3    H130170   5.488   1.754   0.130 -0.6390  1.2668  0.5391
 2845TIP3    H230171   5.429   1.737  -0.009  0.0457  0.7423  0.3063
 2846TIP3   OH230172   6.354   3.995   0.765 -0.3489  0.1349  0.5970
 2846TIP3    H130173   6.345   3.923   0.828 -1.6095  0.7562  1.1700
 2846TIP3    H230174   6.365   4.073   0.819  1.8751  0.3045 -0.0276
 2847TIP3   OH230175   5.251   3.745   0.723  0.1549  0.5030 -0.6808
 2847TIP3    H130176   5.286   3.803   0.791 -1.9422  0.5615  0.4369
 2847TIP3    H230177   5.317   3.677   0.714  1.2011  1.3432  0.2909
 2848TIP3   OH230178   5.369   1.860   6.600  0.5027  0.0028 -0.2630
 2848TIP3    H130179   5.350   1.773   6.637  0.0467 -0.8554 -2.3524
 2848TIP3    H230180   5.283   1.897   6.580  0.7282  0.0277 -1.2676
 2849TIP3   OH230181   5.711   4.325   7.404  0.2410  0.2597  0.5861
 2849TIP3    H130182   5.795   4.285   7.424  0.0639 -0.9016 -0.8056
 2849TIP3    H230183   5.685   4.286   7.320 -2.3638 -0.5028  1.6379
 2850TIP3   OH230184   6.755   5.757   1.407  0.3396  0.0465 -0.7264
 2850TIP3    H130185   6.736   5.830   1.466  1.3986  0.3417 -0.7408
 2850TIP3    H230186   6.670   5.715   1.394 -0.2679  1.1953 -0.6149
 2851TIP3   OH230187   3.163   6.429   1.935  0.1080  1.1553  0.3934
 2851TIP3    H130188   3.159   6.523   1.955  1.0524  1.5508 -1.0929
 2851TIP3    H230189   3.223   6.394   2.000  0.6996  1.8247  0.2283
 2852TIP3   OH230190   1.102   6.736   7.445  0.7576  0.1150 -0.8396
 2852TIP3    H130191   1.100   6.803   7.514 -0.5425  2.0641 -2.6370
 2852TIP3    H230192   1.193   6.733   7.417  0.8585  1.0888 -0.6580
 2853TIP3   OH230193   6.625   6.021   7.694 -0.5923 -0.4660 -0.0842
 2853TIP3    H130194   6.671   6.099   7.728  0.4159 -1.8289  1.8875
 2853TIP3    H230195   6.626   5.960   7.767 -1.0254 -2.4940 -1.6997
 2854TIP3   OH230196   1.323   4.197   2.364  0.2521 -0.7519 -0.7317
 2854TIP3    H130197   1.366   4.278   2.390 -0.0125 -0.8307 -0.0404
 2854TIP3    H230198   1.286   4.216   2.278  1.7721 -0.7254 -1.4031
 2855TIP3   OH230199   1.157   5.775   8.529 -0.1217 -0.2453 -0.0635
 2855TIP3    H130200   1.139   5.744   8.618 -0.8857  0.4908  0.0554
 2855TIP3    H230201   1.250   5.797   8.529  0.2521 -1.7223  0.0834
 2856TIP3   OH230202   2.155   5.788   8.317 -0.1992 -0.4733 -0.0259
 2856TIP3    H130203   2.162   5.775   8.222 -1.9363 -0.6995 -0.1421
 2856TIP3    H230204   2.200   5.711   8.353 -0.9421 -1.2365 -0.6806
 2857TIP3   OH230205   5.236   4.287   0.974  0.4425  0.4739 -0.1678
 2857TIP3    H130206   5.326   4.307   1.003  0.5528  0.2276 -0.3414
 2857TIP3    H230207   5.188   4.368   0.991  0.9624  1.0097 -1.1745
 2858TIP3   OH230208   4.064   0.535   0.218  0.5940 -0.4100 -0.1694
 2858TIP3    H130209   3.991   0.485   0.254 -0.0275  1.2720  0.9854
 2858TIP3    H230210   4.103   0.579   0.294  0.6680  1.4279 -1.2311
 2859TIP3   OH230211   6.249   6.352   1.341 -0.0418  0.1390 -0.3947
 2859TIP3    H130212   6.166   6.309   1.361 -0.8540  1.4083 -0.8818
 2859TIP3    H230213   6.224   6.439   1.311  1.4872  0.6090 -0.4010
 2860TIP3   OH230214   5.084   0.951   8.427  0.1805  0.1453 -0.3246
 2860TIP3    H130215   5.163   0.954   8.374  0.2289  1.3320 -0.2061
 2860TIP3    H230216   5.109   0.991   8.510 -0.3862 -0.0170 -0.0698
 2861TIP3   OH230217   3.086   3.360   1.523 -0.2135  0.0705 -0.6422
 2861TIP3    H130218   3.075   3.328   1.434  0.5138 -1.3300 -0.2399
 2861TIP3    H230219   3.041   3.296   1.578 -0.7545  0.9736  0.0140
 2862TIP3   OH230220   1.689   4.553   7.305  0.4457 -0.5275  0.0987
 2862TIP3    H130221   1.678   4.483   7.240 -0.9877 -0.9148  0.7090
 2862TIP3    H230222   1.710   4.631   7.253 -2.0073 -0.5192 -1.0488
 2863TIP3   OH230223   1.053   0.151   8.312 -0.0955 -0.7355 -0.8385
 2863TIP3    H130224   0.981   0.120   8.257  0.7256 -1.6878 -1.4178
 2863TIP3    H230225   1.024   0.237   8.343 -0.7462 -0.3358 -2.4536
 2864TIP3   OH230226   0.456   6.722   7.720 -0.1580 -0.2548  0.0522
 2864TIP3    H130227   0.369   6.710   7.680  0.6363 -0.0005 -1.8386
 2864TIP3    H230228   0.517   6.687   7.655  1.2025  0.2330  1.0385
 2865TIP3   OH230229   5.102   0.907   2.671  0.4187 -0.5013  0.0499
 2865TIP3    H130230   5.033   0.954   2.719  2.1986  1.8032  0.5320
 2865TIP3    H230231   5.070   0.903   2.581 -0.2171  0.8277  0.1886
 2866TIP3   OH230232   5.432   4.404   0.286  0.2962  0.0070  0.4441
 2866TIP3    H130233   5.406   4.366   0.202  0.5143  0.3682  0.2087
 2866TIP3    H230234   5.522   4.431   0.273  0.5790 -0.6121  1.0380
 2867TIP3   OH230235   6.415   4.600   1.113  0.0846 -0.5562  0.0292
 2867TIP3    H130236   6.440   4.546   1.188 -3.3593  0.0127  1.7784
 2867TIP3    H230237   6.406   4.688   1.148 -0.2458  0.0011 -1.3874
 2868TIP3   OH230238   1.554   6.319   8.149  0.0302  0.6653  0.2532
 2868TIP3    H130239   1.567   6.331   8.055  0.6711  1.6148  0.4518
 2868TIP3    H230240   1.515   6.233   8.157  1.3486 -0.0610 -0.7806
 2869TIP3   OH230241   1.227   2.769   0.308 -0.1523  0.2641 -0.0448
 2869TIP3    H130242   1.264   2.828   0.374 -0.8537 -1.6155  2.1366
 2869TIP3    H230243   1.132   2.778   0.318 -0.2831 -1.7362  0.8641
 2870TIP3   OH230244   3.906   0.576   2.407 -0.2208 -0.4930 -0.1441
 2870TIP3    H130245   3.925   0.623   2.326  1.1273 -0.9873 -0.1531
 2870TIP3    H230246   3.836   0.625   2.449  1.9737  2.3511  0.5189
 2871TIP3   OH230247   5.781   5.665   1.979  0.8839  0.1780 -0.3028
 2871TIP3    H130248   5.781   5.683   1.885  1.1032  1.2643 -0.1134
 2871TIP3    H230249   5.825   5.741   2.018  1.3929 -0.5706  0.6237
 2872TIP3   OH230250   1.975   5.183   0.039  0.1083  0.4389  0.9447
 2872TIP3    H130251   2.005   5.205   0.127  2.1564 -0.5536  0.5624
 2872TIP3    H230252   1.985   5.264  -0.010  2.5638  0.1173  0.7877
 2873TIP3   OH230253   2.594   6.112   6.831  0.1003 -0.2357  0.1699
 2873TIP3    H130254   2.509   6.141   6.862 -0.1360  0.4217 -1.0513
 2873TIP3    H230255   2.650   6.189   6.838 -0.2936  0.3268 -2.2133
 2874TIP3   OH230256   6.782   2.073   0.015  0.0967 -0.1197 -0.1871
 2874TIP3    H130257   6.717   2.006   0.035  1.4189 -1.1313  1.0163
 2874TIP3    H230258   6.862   2.023  -0.005  0.2040  1.0145 -3.0802
 2875TIP3   OH230259   1.455   5.520   8.482  0.0299  0.7838  0.1994
 2875TIP3    H130260   1.413   5.445   8.524  0.1899 -0.1111 -1.1731
 2875TIP3    H230261   1.522   5.548   8.544 -0.3906  0.1265  0.9641
 2876TIP3   OH230262   2.239   4.719   2.903 -0.2349  0.3668  0.4755
 2876TIP3    H130263   2.171   4.661   2.937  0.8688 -0.5168  1.2494
 2876TIP3    H230264   2.195   4.771   2.836 -1.2462 -1.4027 -0.2831
 2877TIP3   OH230265   6.119   3.844   2.054 -0.1911 -0.4513  0.0094
 2877TIP3    H130266   6.143   3.907   1.986  1.3730  0.7286  1.5567
 2877TIP3    H230267   6.059   3.783   2.011  2.2477 -0.9582 -2.9733
 2878TIP3   OH230268   0.690   1.013   8.571  0.3517 -0.5097 -0.2901
 2878TIP3    H130269   0.649   0.999   8.486 -0.5999 -4.4120  0.6058
 2878TIP3    H230270   0.772   0.963   8.567  0.6847 -0.0829  0.8476
 2879TIP3   OH230271   1.507   6.628   2.644  0.3006  0.5526  0.2504
 2879TIP3    H130272   1.439   6.579   2.689  0.0256  0.4993 -0.2185
 2879TIP3    H230273   1.520   6.707   2.697 -0.5981  0.8888 -0.0137
 2880TIP3   OH230274   0.374   3.874   2.399 -0.0266  0.0897  0.5057
 2880TIP3    H130275   0.284   3.876   2.366  0.4647  0.3107 -0.8892
 2880TIP3    H230276   0.371   3.925   2.480 -1.0435  0.6191  0.1500
 2881TIP3   OH230277   1.397   0.737   0.557 -0.1272 -0.7591  0.2963
 2881TIP3    H130278   1.445   0.811   0.592 -0.1202  0.1283 -1.4999
 2881TIP3    H230279   1.432   0.661   0.605  0.1204  0.3092  1.8948
 2882TIP3   OH230280   6.830   1.635   8.236 -0.2097  0.4980  0.5600
 2882TIP3    H130281   6.825   1.714   8.183  1.5586  0.1279 -0.2190
 2882TIP3    H230282   6.847   1.565   8.173  1.0586 -0.0807  1.4978
 2883TIP3   OH230283   6.480   6.426   0.592 -0.4540 -0.2398 -0.2158
 2883TIP3    H130284   6.572   6.417   0.618 -0.6074  0.8558  0.7881
 2883TIP3    H230285   6.446   6.496   0.648 -1.6850 -0.0543 -1.1612
 2884TIP3   OH230286   2.628   4.259   8.015 -0.0643  0.2715 -0.2819
 2884TIP3    H130287   2.651   4.168   7.994 -2.8852 -0.7394  0.5809
 2884TIP3    H230288   2.584   4.291   7.936  1.3217  1.1212 -0.7574
 2885TIP3   OH230289   0.309   5.277   1.424  0.6598  0.0503  0.1591
 2885TIP3    H130290   0.284   5.341   1.491 -1.3578 -2.6187  2.1627
 2885TIP3    H230291   0.389   5.238   1.457  2.6416  2.2452 -1.7073
 2886TIP3   OH230292   5.727   6.775   1.626 -0.0996 -0.0233 -0.3758
 2886TIP3    H130293   5.722   6.769   1.531  1.2606  0.6488 -0.5164
 2886TIP3    H230294   5.669   6.706   1.658 -0.6014 -0.2248 -1.6905
 2887TIP3   OH230295   5.190   3.813   7.792  0.0312  0.0232  0.5707
 2887TIP3    H130296   5.243   3.782   7.718 -0.9048 -1.0144  0.3079
 2887TIP3    H230297   5.253   3.828   7.862  0.8436  0.2406 -0.1835
 2888TIP3   OH230298   5.355   6.056   0.853  0.0941  0.3743 -0.8420
 2888TIP3    H130299   5.309   5.981   0.815  0.6352 -1.2606  1.5166
 2888TIP3    H230300   5.433   6.066   0.799  0.4882 -1.3995 -0.6504
 2889TIP3   OH230301   4.494   1.301   1.334  0.0159  0.0316 -0.2935
 2889TIP3    H130302   4.476   1.269   1.245 -0.8797 -1.6303  0.4372
 2889TIP3    H230303   4.407   1.319   1.370  0.2883 -0.5696  0.6837
 2890TIP3   OH230304   6.036   0.485   1.956 -0.0547 -0.3944  0.0754
 2890TIP3    H130305   6.101   0.446   1.897  1.4812  0.4537  1.1222
 2890TIP3    H230306   6.040   0.430   2.035 -1.3983 -0.9481 -0.2068
 2891TIP3   OH230307   1.424   4.783   8.335 -0.2068  0.3081  0.1649
 2891TIP3    H130308   1.466   4.699   8.357  0.5834  0.6349 -0.0485
 2891TIP3    H230309   1.349   4.788   8.394 -1.0721 -1.1702 -0.7259
 2892TIP3   OH230310   1.966   3.937   1.167 -0.1512  0.1674 -0.0073
 2892TIP3    H130311   2.047   3.982   1.142 -1.0369  1.7999 -0.0726
 2892TIP3    H230312   1.925   3.996   1.230  0.0164 -1.9521  2.2014
 2893TIP3   OH230313   4.229   4.941   2.037 -0.2012 -0.0454 -0.6199
 2893TIP3    H130314   4.222   4.917   1.944 -2.5604 -2.3595  0.0389
 2893TIP3    H230315   4.202   4.863   2.084  1.6987  0.7924  2.1170
 2894TIP3   OH230316   5.327   4.619   1.152 -0.3865 -0.7099 -0.1718
 2894TIP3    H130317   5.384   4.577   1.217  0.3395 -0.3723 -0.5831
 2894TIP3    H230318   5.241   4.577   1.165 -0.3046 -0.5135  1.1273
 2895TIP3   OH230319   6.646   1.633   8.459 -0.2274  0.0772 -0.0950
 2895TIP3    H130320   6.720   1.639   8.399  0.7048 -1.4572  0.8447
 2895TIP3    H230321   6.569   1.644   8.403  0.6279 -0.7290 -1.4713
 2896TIP3   OH230322   5.875   0.893   7.449  0.5486  0.2723  0.0999
 2896TIP3    H130323   5.916   0.963   7.397  0.1892  0.8147  0.5369
 2896TIP3    H230324   5.795   0.872   7.401  0.4441  0.4601  0.1885
 2897TIP3   OH230325   1.823   0.187   1.149  0.8259  0.6901 -0.2669
 2897TIP3    H130326   1.747   0.216   1.200  0.7637 -1.0244  0.6907
 2897TIP3    H230327   1.809   0.224   1.062 -0.9491  0.6891 -0.0180
 2898TIP3   OH230328   4.185   3.337   7.875  0.5229  0.2615 -0.0544
 2898TIP3    H130329   4.147   3.424   7.866 -1.0446 -0.4824 -1.2292
 2898TIP3    H230330   4.259   3.337   7.814 -1.8125 -0.3657 -3.1371
 2899TIP3   OH230331   6.376   1.436   8.356  0.7296  0.5099 -0.0420
 2899TIP3    H130332   6.297   1.472   8.316  1.2888  1.4429 -0.3421
 2899TIP3    H230333   6.372   1.465   8.447  0.4820  0.1243  0.0737
 2900TIP3   OH230334   4.432   5.665   1.630 -0.3255 -0.2353 -0.4709
 2900TIP3    H130335   4.403   5.756   1.634  1.1610  0.2518 -0.0159
 2900TIP3    H230336   4.484   5.653   1.710 -0.3196 -1.4161 -0.6341
 2901TIP3   OH230337   1.582   1.291   1.745  1.0485  0.8830 -0.1637
 2901TIP3    H130338   1.657   1.243   1.780  0.4211  0.8662  1.2433
 2901TIP3    H230339   1.520   1.224   1.717  1.0642  0.8878 -0.2100
 2902TIP3   OH230340   1.121   5.203   1.362  0.0593 -0.2780  0.0084
 2902TIP3    H130341   1.087   5.290   1.383  0.5420  0.3621 -1.7220
 2902TIP3    H230342   1.061   5.143   1.405 -1.4324  0.8736 -0.3807
 2903TIP3   OH230343   1.520   5.861   7.534 -0.0512  0.4708  0.1213
 2903TIP3    H130344   1.489   5.830   7.448 -0.1108  0.7861  0.0286
 2903TIP3    H230345   1.611   5.832   7.539 -0.5516 -1.1025  0.6934
 2904TIP3   OH230346   1.317   3.636   2.701 -0.1073  0.1409 -0.5240
 2904TIP3    H130347   1.224   3.616   2.687 -0.7437  1.9018  0.8213
 2904TIP3    H230348   1.344   3.576   2.771 -0.4895  0.2869 -0.2508
 2905TIP3   OH230349   6.902   0.402   2.103 -0.3234 -0.5526 -0.2416
 2905TIP3    H130350   6.979   0.379   2.155  1.1090  0.4216 -1.8568
 2905TIP3    H230351   6.917   0.493   2.076 -1.6852 -0.5803 -1.1931
 2906TIP3   OH230352   3.501   4.631   0.026  0.1217  0.3037  0.2123
 2906TIP3    H130353   3.434   4.695   0.053  0.4792  2.0487 -2.6282
 2906TIP3    H230354   3.480   4.553   0.077 -3.0866  1.2754  0.6521
 2907TIP3   OH230355   4.447   4.745   0.624 -0.3018 -0.2580  0.0009
 2907TIP3    H130356   4.493   4.664   0.644 -0.7378 -0.0240  2.2159
 2907TIP3    H230357   4.369   4.716   0.575 -0.3407 -1.1699  0.5646
 2908TIP3   OH230358   5.805   3.739   7.389  0.4218 -0.1584 -0.2377
 2908TIP3    H130359   5.719   3.704   7.368  0.1276  0.3839  0.0299
 2908TIP3    H230360   5.867   3.684   7.342 -0.1537  0.2782 -1.5365
 2909TIP3   OH230361   6.033   0.867   0.373 -0.8834  0.3106  0.0811
 2909TIP3    H130362   6.061   0.876   0.282 -0.0601 -1.8296  0.0652
 2909TIP3    H230363   6.080   0.937   0.420  1.7877 -0.9205 -0.5515
 2910TIP3   OH230364   0.208   3.961   1.803 -0.2077  0.1182  0.0789
 2910TIP3    H130365   0.225   4.031   1.867  0.0091 -0.4914  0.6979
 2910TIP3    H230366   0.182   4.008   1.724  0.2797  0.9218  0.3757
 2911TIP3   OH230367   0.190   3.605   7.520 -0.8911  0.5712  0.0611
 2911TIP3    H130368   0.214   3.676   7.460 -1.9944  1.1489  0.2693
 2911TIP3    H230369   0.181   3.529   7.463  0.0205  0.6477 -0.2113
 2912TIP3   OH230370   2.567   3.381   2.475  0.1255  0.0884  0.2479
 2912TIP3    H130371   2.491   3.417   2.429 -0.7448 -0.3132  1.3341
 2912TIP3    H230372   2.608   3.457   2.517 -0.4996  0.1205  0.8158
 2913TIP3   OH230373   6.690   6.193   1.643 -0.3691 -0.4403  0.0091
 2913TIP3    H130374   6.682   6.269   1.701  2.3680  1.6171 -2.0435
 2913TIP3    H230375   6.768   6.147   1.675  0.1044 -0.2929 -0.9047
 2914TIP3   OH230376   3.264   2.274   0.934 -0.7298 -0.4407  0.2805
 2914TIP3    H130377   3.326   2.327   0.985  0.2458 -1.1757 -0.1020
 2914TIP3    H230378   3.318   2.206   0.895 -1.4101  0.1898 -1.8922
 2915TIP3   OH230379   3.518   3.110   7.339 -0.7685  0.3727 -0.3837
 2915TIP3    H130380   3.546   3.192   7.378 -2.6240 -0.6361  3.5558
 2915TIP3    H230381   3.428   3.125   7.311 -1.4573 -0.4569  1.2365
 2916TIP3   OH230382   0.158   2.262   6.867 -0.8623 -0.5486  0.4314
 2916TIP3    H130383   0.193   2.349   6.887 -0.7554 -0.6016  0.4742
 2916TIP3    H230384   0.208   2.232   6.791 -0.3615 -0.8975  0.8925
 2917TIP3   OH230385   4.055   6.522   0.782 -0.7217 -0.2688 -0.2063
 2917TIP3    H130386   4.057   6.542   0.876  0.3530 -1.0825 -0.0270
 2917TIP3    H230387   4.124   6.456   0.771 -0.3128  0.3646 -1.6902
 2918TIP3   OH230388   1.307   6.541   0.754  0.9368 -0.2019  0.3336
 2918TIP3    H130389   1.234   6.542   0.692 -0.2635 -1.0764  1.6748
 2918TIP3    H230390   1.384   6.562   0.700 -0.0294 -1.0025 -1.4693
 2919TIP3   OH230391   0.174   6.908   1.925 -0.6789 -0.2550 -0.6918
 2919TIP3    H130392   0.214   6.946   1.846  1.6950 -1.0688  0.0377
 2919TIP3    H230393   0.115   6.977   1.957  0.3688  1.1813 -1.6923
 2920TIP3   OH230394   1.771   5.852   0.491  0.1678  0.0451 -0.1679
 2920TIP3    H130395   1.700   5.915   0.480 -0.1145 -0.1921  0.2508
 2920TIP3    H230396   1.792   5.824   0.401 -0.3705  0.0106 -0.2885
 2921TIP3   OH230397   2.418   3.095   7.419  0.1253 -0.0647 -0.1453
 2921TIP3    H130398   2.451   3.153   7.487 -0.7230  0.6669 -0.3330
 2921TIP3    H230399   2.338   3.138   7.387  0.9940  0.1041 -2.2653
 2922TIP3   OH230400   5.383   3.646   8.372 -0.2475 -0.4604  0.8664
 2922TIP3    H130401   5.464   3.647   8.422  0.9238  0.9288 -0.9249
 2922TIP3    H230402   5.373   3.737   8.341 -1.7596 -0.9071 -0.0685
 2923TIP3   OH230403   3.467   4.132   7.982 -0.3173  0.5612  0.2411
 2923TIP3    H130404   3.445   4.212   7.935 -0.9749  0.3920  0.2540
 2923TIP3    H230405   3.424   4.141   8.067  0.9310  0.9009  0.8711
 2924TIP3   OH230406   5.932   1.573   7.082 -0.0333 -0.1083  0.8365
 2924TIP3    H130407   5.897   1.486   7.064  0.7233 -0.2538 -0.0079
 2924TIP3    H230408   6.026   1.560   7.093  0.2963  0.7815 -0.7037
 2925TIP3   OH230409   1.381   1.586   1.469  0.3624 -0.8865 -0.1931
 2925TIP3    H130410   1.458   1.544   1.432  0.0697 -1.8955  0.3179
 2925TIP3    H230411   1.403   1.602   1.561  0.8260  0.9778 -0.5818
 2926TIP3   OH230412   5.376   0.446   1.807  0.2158 -0.4127 -0.3621
 2926TIP3    H130413   5.398   0.386   1.878  0.7668  1.3459  1.0253
 2926TIP3    H230414   5.402   0.400   1.728  1.0531 -1.8030  0.6705
 2927TIP3   OH230415   1.265   1.378   7.658 -0.3578 -0.2530  0.0656
 2927TIP3    H130416   1.285   1.342   7.572 -0.9844  0.4944 -0.4041
 2927TIP3    H230417   1.332   1.342   7.716  1.2031  0.7224 -1.0736
 2928TIP3   OH230418   2.494   6.479   0.528 -0.1351 -0.4200 -0.0799
 2928TIP3    H130419   2.501   6.574   0.518  0.2018 -0.4791 -0.4052
 2928TIP3    H230420   2.500   6.465   0.623  1.0546 -0.2097 -0.1096
 2929TIP3   OH230421   1.813   3.576   2.318 -0.3541 -0.5149  0.3312
 2929TIP3    H130422   1.721   3.603   2.319 -0.0372  0.6927 -0.8980
 2929TIP3    H230423   1.814   3.499   2.262 -0.7130 -1.0048  0.9755
 2930TIP3   OH230424   5.712   0.280   8.410 -0.5797 -0.8525 -0.3601
 2930TIP3    H130425   5.757   0.204   8.444 -0.1658 -1.1761 -1.5853
 2930TIP3    H230426   5.721   0.347   8.478 -2.5765 -2.4185  1.5858
 2931TIP3   OH230427   5.362   2.413   2.494 -0.1427  0.0332 -0.3997
 2931TIP3    H130428   5.402   2.493   2.462  0.3351  0.0280  0.1738
 2931TIP3    H230429   5.386   2.409   2.587 -0.2444 -0.7170 -0.3980
 2932TIP3   OH230430   1.988   3.740   1.408 -0.3849 -0.1412 -0.2909
 2932TIP3    H130431   1.964   3.788   1.487  0.0545 -0.9840  0.3736
 2932TIP3    H230432   1.950   3.791   1.337 -0.0017  1.1387  0.3917
 2933TIP3   OH230433   0.548   4.116   0.837  0.2802 -0.0847  0.5689
 2933TIP3    H130434   0.594   4.193   0.804  1.1451 -1.1578 -0.8195
 2933TIP3    H230435   0.511   4.144   0.921  2.5702  1.1187  1.2340
 2934TIP3   OH230436   6.403   2.811   7.343 -0.5092  0.5489  0.0648
 2934TIP3    H130437   6.401   2.893   7.293  1.7778  0.0433 -0.9803
 2934TIP3    H230438   6.321   2.767   7.319 -0.3209  1.1384 -1.8456
 2935TIP3   OH230439   3.118   3.175   0.212 -0.0411  0.2229 -0.8137
 2935TIP3    H130440   3.099   3.135   0.297 -1.6742 -0.9304 -1.6526
 2935TIP3    H230441   3.186   3.120   0.173 -1.0398 -0.7629 -1.2321
 2936TIP3   OH230442   5.161   4.824   1.630 -0.1525 -0.2631 -0.4775
 2936TIP3    H130443   5.207   4.908   1.639 -1.5096  0.6388 -1.5948
 2936TIP3    H230444   5.068   4.847   1.634 -0.5524 -1.9483  0.9043
 2937TIP3   OH230445   6.432   2.070   1.681 -0.9042 -0.5234  0.2601
 2937TIP3    H130446   6.356   2.105   1.635 -1.0718 -0.1672  0.8003
 2937TIP3    H230447   6.430   1.976   1.665 -0.4105 -0.3014 -1.2845
 2938TIP3   OH230448   0.176   2.058   0.792 -0.3478 -0.8197 -0.7879
 2938TIP3    H130449   0.189   1.963   0.797  1.5505 -0.5998 -0.6218
 2938TIP3    H230450   0.213   2.083   0.708 -0.7161 -0.2085 -0.7729
 2939TIP3   OH230451   1.083   2.425   1.681 -0.5704  0.1030 -0.3150
 2939TIP3    H130452   1.067   2.501   1.739  0.7563 -0.0349  0.2729
 2939TIP3    H230453   1.042   2.352   1.727  0.9548 -0.1140  0.8060
 2940TIP3   OH230454   2.426   1.503   0.582  0.4641 -0.1316 -0.3425
 2940TIP3    H130455   2.487   1.571   0.610  0.9907 -0.6510 -0.2158
 2940TIP3    H230456   2.479   1.443   0.530  0.2026 -0.9239  0.2899
 2941TIP3   OH230457   1.618   5.573   8.187 -0.0936 -0.2129 -0.4863
 2941TIP3    H130458   1.562   5.511   8.141 -1.7750 -0.4060  1.6715
 2941TIP3    H230459   1.575   5.658   8.176  0.0713 -0.0839 -0.1516
 2942TIP3   OH230460   3.153   4.271   7.994 -0.7195  0.1499  0.2819
 2942TIP3    H130461   3.179   4.231   8.077 -1.8310  2.8411  2.0343
 2942TIP3    H230462   3.222   4.334   7.975 -0.9507  0.2225 -0.3338
 2943TIP3   OH230463   3.368   0.212   2.078 -0.3539 -0.4307  0.2276
 2943TIP3    H130464   3.301   0.273   2.109 -1.9242 -1.2886 -1.3094
 2943TIP3    H230465   3.449   0.243   2.118 -0.6567  3.8802 -1.8797
 2944TIP3   OH230466   3.762   1.037   7.539 -0.0224  0.5240 -0.5668
 2944TIP3    H130467   3.741   0.948   7.567  1.0649  1.1304  2.5970
 2944TIP3    H230468   3.679   1.084   7.542  0.1200  0.7354  2.7640
 2945TIP3   OH230469   5.814   2.392   1.658 -0.3297 -0.2605  0.6026
 2945TIP3    H130470   5.834   2.401   1.752 -3.4926 -0.0866  1.3800
 2945TIP3    H230471   5.828   2.299   1.640 -0.9613 -0.5828  1.6410
 2946TIP3   OH230472   2.043   0.341   1.177  0.4611  0.3912  0.4781
 2946TIP3    H130473   1.979   0.281   1.214  0.7738  0.4576  1.1410
 2946TIP3    H230474   2.049   0.316   1.085  0.3373 -0.3743  0.6726
 2947TIP3   OH230475   4.484   0.064   3.059  0.2255 -0.2665 -0.0869
 2947TIP3    H130476   4.538   0.027   2.988  0.5766 -1.6171  0.8302
 2947TIP3    H230477   4.544   0.123   3.106  0.1729  0.1462 -0.5301
 2948TIP3   OH230478   2.545   5.444   0.718 -0.3961 -0.3719  0.5428
 2948TIP3    H130479   2.568   5.506   0.787 -1.1500  0.8207 -0.2307
 2948TIP3    H230480   2.589   5.478   0.640  0.2806 -1.5899  0.3657
 2949TIP3   OH230481   4.570   2.283   8.481  0.4594 -0.2319 -0.2030
 2949TIP3    H130482   4.481   2.256   8.460  1.4015 -3.3780 -0.6248
 2949TIP3    H230483   4.590   2.238   8.563  1.4788  0.9136  0.2065
 2950TIP3   OH230484   0.268   1.628   8.173  0.5200  0.5225 -0.0429
 2950TIP3    H130485   0.347   1.583   8.141 -0.3311 -2.8294  1.9924
 2950TIP3    H230486   0.215   1.643   8.095  1.1523 -1.5818 -0.9460
 2951TIP3   OH230487   3.230   6.139   1.313  0.0568  0.2413  0.8801
 2951TIP3    H130488   3.232   6.091   1.230 -0.6273 -0.6343  1.3571
 2951TIP3    H230489   3.161   6.204   1.303  1.0854  1.2685  0.1773
 2952TIP3   OH230490   4.278   4.455   3.043  0.6777 -0.3313  0.0824
 2952TIP3    H130491   4.269   4.430   2.951  0.3269  1.2996 -0.3444
 2952TIP3    H230492   4.190   4.480   3.071  0.8171 -0.6045  0.8157
 2953TIP3   OH230493   3.283   6.343   0.480 -0.1625 -0.2665  0.0427
 2953TIP3    H130494   3.301   6.286   0.405 -0.6159  1.1824 -1.1980
 2953TIP3    H230495   3.335   6.305   0.551  0.2178 -1.7167 -0.9576
 2954TIP3   OH230496   0.464   1.139   0.510  0.2270 -0.5587  0.8577
 2954TIP3    H130497   0.381   1.098   0.484 -0.4907  0.2201  1.8446
 2954TIP3    H230498   0.450   1.233   0.496  1.2614 -0.4849  0.2172
 2955TIP3   OH230499   4.621   5.277   0.325 -0.3694  0.2282  1.1658
 2955TIP3    H130500   4.547   5.233   0.283  0.5413 -1.3136  1.0552
 2955TIP3    H230501   4.589   5.363   0.349 -2.5439 -0.7930  2.1639
 2956TIP3   OH230502   6.772   2.669   7.418  0.1145 -0.1728  0.0050
 2956TIP3    H130503   6.865   2.689   7.405  0.3482  0.5473  2.3861
 2956TIP3    H230504   6.729   2.754   7.419 -0.6446 -0.5086 -1.2634
 2957TIP3   OH230505   2.107   2.337   1.609  0.3990  0.0872  0.2434
 2957TIP3    H130506   2.031   2.283   1.586  0.3212  0.3806 -0.1887
 2957TIP3    H230507   2.116   2.326   1.704 -1.5986  1.8544  0.7211
 2958TIP3   OH230508   1.128   4.047   7.996 -0.7375  0.5595 -0.4290
 2958TIP3    H130509   1.070   4.122   7.984 -0.6570  0.8374  0.8014
 2958TIP3    H230510   1.070   3.971   7.991 -1.2962  0.8509  1.1907
 2959TIP3   OH230511   5.344   0.763   7.433 -0.3100  0.0321  0.4111
 2959TIP3    H130512   5.283   0.757   7.506  1.7382 -0.0413  2.2071
 2959TIP3    H230513   5.342   0.855   7.406 -1.4013 -0.0326  0.2613
 2960TIP3   OH230514   0.093   2.400   0.132 -0.5646 -0.4480 -0.2749
 2960TIP3    H130515   0.052   2.413   0.218  0.0344  0.3743 -0.0995
 2960TIP3    H230516   0.020   2.400   0.070 -0.9321 -0.2082  0.1488
 2961TIP3   OH230517   2.183   1.782   1.327  0.0524 -0.6469  0.0957
 2961TIP3    H130518   2.103   1.730   1.330  0.1352 -1.3064 -3.6763
 2961TIP3    H230519   2.158   1.862   1.282  1.2184 -0.2433  0.1225
 2962TIP3   OH230520   4.865   3.629   0.547  0.0762  0.4545  0.1155
 2962TIP3    H130521   4.891   3.718   0.569  1.4282  0.5060 -1.5273
 2962TIP3    H230522   4.943   3.590   0.508  0.0222 -2.0024  2.2176
 2963TIP3   OH230523   5.576   5.427   0.443 -1.0206  0.3971  0.2901
 2963TIP3    H130524   5.659   5.472   0.457 -0.1361 -1.0047 -0.2360
 2963TIP3    H230525   5.542   5.463   0.361  0.4594 -0.9615 -0.9814
 2964TIP3   OH230526   3.618   5.891   2.372  0.0460  0.1636 -0.4045
 2964TIP3    H130527   3.607   5.796   2.365  1.1766 -0.0145  0.0750
 2964TIP3    H230528   3.583   5.913   2.459  1.0969 -0.0450  0.0922
 2965TIP3   OH230529   6.661   2.925   7.320 -0.2993  0.4232 -0.7928
 2965TIP3    H130530   6.583   2.875   7.346  0.4189 -0.8978 -1.0945
 2965TIP3    H230531   6.660   2.921   7.224  0.3660  0.0217 -0.7887
 2966TIP3   OH230532   5.782   0.523   2.576 -0.3836  0.3227  0.1792
 2966TIP3    H130533   5.787   0.505   2.482  1.7270  1.0165  0.1081
 2966TIP3    H230534   5.797   0.439   2.618 -1.7979 -0.0776 -0.0733
 2967TIP3   OH230535   4.344   3.031   7.978 -0.0193  0.7300  0.3298
 2967TIP3    H130536   4.312   3.109   7.933 -1.7508  0.9404  1.8310
 2967TIP3    H230537   4.336   3.052   8.071 -2.1440 -1.8134  0.8194
 2968TIP3   OH230538   2.256   4.972   0.795  0.1422  0.1461  0.3381
 2968TIP3    H130539   2.242   4.911   0.867 -1.0693  0.1894  0.1577
 2968TIP3    H230540   2.197   5.045   0.812 -0.1002  0.2008 -0.6420
 2969TIP3   OH230541   2.855   2.598   2.637  0.0284  0.5716 -0.5055
 2969TIP3    H130542   2.822   2.615   2.725 -1.2887  0.6315 -0.9837
 2969TIP3    H230543   2.949   2.616   2.642  0.1871 -0.4985  1.1479
 2970TIP3   OH230544   3.766   1.771   8.314 -0.2054 -0.3949  0.4775
 2970TIP3    H130545   3.758   1.810   8.228  1.8200  2.0515  1.2564
 2970TIP3    H230546   3.820   1.692   8.300  0.9250  0.5014 -0.3960
 2971TIP3   OH230547   3.404   2.136   8.370  0.0395 -0.8511  0.2308
 2971TIP3    H130548   3.345   2.209   8.383  0.0889 -0.5445 -1.1612
 2971TIP3    H230549   3.475   2.151   8.433 -1.6516 -1.6103  2.4331
 2972TIP3   OH230550   1.378   0.044   1.420  0.1606  0.3953  0.5008
 2972TIP3    H130551   1.451  -0.002   1.378 -0.3730  1.9266 -2.3977
 2972TIP3    H230552   1.309  -0.022   1.427  0.5289 -0.1074 -0.3848
 2973TIP3   OH230553   4.290   0.309   0.529  0.6871 -0.2941  0.4227
 2973TIP3    H130554   4.292   0.390   0.579  3.6844  0.1000 -0.1342
 2973TIP3    H230555   4.343   0.247   0.581 -0.7408 -1.6273  0.3705
 2974TIP3   OH230556   5.212   3.160   0.920 -0.8660 -0.3904 -0.1556
 2974TIP3    H130557   5.216   3.198   1.008  2.8892 -0.4155 -0.1680
 2974TIP3    H230558   5.222   3.066   0.935 -0.0156 -0.3749 -0.5665
 2975TIP3   OH230559   0.122   2.879   1.335  0.2924  0.5046  0.5257
 2975TIP3    H130560   0.170   2.903   1.414 -0.8816 -2.9787  2.5026
 2975TIP3    H230561   0.031   2.898   1.356  0.0078 -0.1119 -0.1285
 2976TIP3   OH230562   5.384   5.878   1.816  0.0890  0.5360 -0.7533
 2976TIP3    H130563   5.412   5.816   1.884 -0.0257  2.6634  1.3717
 2976TIP3    H230564   5.369   5.823   1.739  1.7841 -1.8190  0.4370
 2977TIP3   OH230565   4.203   0.108   1.523 -0.1084 -0.5877  0.5998
 2977TIP3    H130566   4.254   0.031   1.550  0.7080 -0.1543  0.3497
 2977TIP3    H230567   4.212   0.169   1.596  1.6652  0.3781 -0.3502
 2978TIP3   OH230568   5.418   1.913   8.480  0.0420 -0.5321  0.2068
 2978TIP3    H130569   5.389   1.978   8.544  0.2514  0.1010 -0.3347
 2978TIP3    H230570   5.351   1.915   8.412  0.1251 -0.7807  0.1166
 2979TIP3   OH230571   3.144   3.360   2.778 -0.1757  0.1236  0.0645
 2979TIP3    H130572   3.226   3.354   2.730 -0.3531  0.7333 -0.3321
 2979TIP3    H230573   3.150   3.292   2.845 -0.0881 -0.9879 -1.0463
 2980TIP3   OH230574   5.678   0.463   7.682 -0.3618  0.0882 -0.2841
 2980TIP3    H130575   5.648   0.554   7.682  1.0051  0.6141 -2.8904
 2980TIP3    H230576   5.767   0.467   7.716 -0.5914 -0.4388  0.4125
 2981TIP3   OH230577   5.449   5.011   7.739 -0.2529  0.2311 -0.2504
 2981TIP3    H130578   5.468   5.102   7.763 -1.4904  0.2987  0.5973
 2981TIP3    H230579   5.427   5.015   7.646 -2.3181  1.1910  0.2175
 2982TIP3   OH230580   6.400   0.084   7.948 -0.0484  0.4864  0.0864
 2982TIP3    H130581   6.320   0.076   7.897  0.1161  0.2209 -0.1286
 2982TIP3    H230582   6.465   0.034   7.900 -0.2330 -0.9814  1.2868
 2983TIP3   OH230583   1.075   6.031   7.685  0.3907  0.0462 -0.1919
 2983TIP3    H130584   1.165   6.001   7.702  0.6281 -1.4083 -3.2453
 2983TIP3    H230585   1.085   6.103   7.623 -0.5539  0.8981  0.6001
 2984TIP3   OH230586   4.600   6.509   0.464 -0.1967  0.3967 -0.1679
 2984TIP3    H130587   4.631   6.484   0.377 -1.1848 -1.1370 -0.1034
 2984TIP3    H230588   4.521   6.560   0.448  1.1853  2.6610 -0.2449
 2985TIP3   OH230589   2.559   3.060   0.060  0.3129  0.1063 -0.1410
 2985TIP3    H130590   2.498   3.127   0.030  0.0185 -0.4894 -0.9260
 2985TIP3    H230591   2.505   2.982   0.070  0.3854  0.3009  2.1227
 2986TIP3   OH230592   3.207   2.294   2.337  0.4449 -0.7859  0.1427
 2986TIP3    H130593   3.228   2.290   2.430 -0.8671 -3.8398  0.4265
 2986TIP3    H230594   3.152   2.372   2.328 -1.0123 -1.4610  2.3389
 2987TIP3   OH230595   6.610   0.699   7.926  0.2213 -0.2588 -0.0452
 2987TIP3    H130596   6.555   0.639   7.976  1.1416 -0.7016  0.4662
 2987TIP3    H230597   6.549   0.763   7.891 -0.4900 -0.0477  1.4785
 2988TIP3   OH230598   0.174   0.910   1.427  0.1014  0.5982  0.0830
 2988TIP3    H130599   0.216   0.934   1.510  0.6741  0.7410 -0.2394
 2988TIP3    H230600   0.183   0.988   1.372  1.4753 -0.1122 -0.7805
 2989TIP3   OH230601   6.872   3.619   0.835  0.2715 -0.0082  0.5376
 2989TIP3    H130602   6.819   3.561   0.781 -1.3732  0.2560  1.8057
 2989TIP3    H230603   6.949   3.567   0.858 -0.3531 -1.0933  0.2413
 2990TIP3   OH230604   2.885   2.562   7.683  0.2189  0.2295  0.0239
 2990TIP3    H130605   2.869   2.597   7.770 -0.9389  1.4919 -0.6666
 2990TIP3    H230606   2.802   2.519   7.659 -0.4127  2.1554 -1.4593
 2991TIP3   OH230607   2.362   3.349   1.068 -0.2412  0.0514  0.8480
 2991TIP3    H130608   2.392   3.326   0.980  1.2767  0.8431  1.1202
 2991TIP3    H230609   2.271   3.377   1.056  0.5888  2.3136 -0.8747
 2992TIP3   OH230610   5.947   2.652   1.005 -0.6052 -0.3167 -0.0020
 2992TIP3    H130611   5.917   2.562   1.014 -1.4565 -0.3033 -2.1797
 2992TIP3    H230612   6.012   2.648   0.934 -0.8026  0.8004 -0.2597
 2993TIP3   OH230613   2.609   2.367   1.240 -0.3463  0.0929  0.6045
 2993TIP3    H130614   2.651   2.344   1.323  1.1978  0.2776 -0.0869
 2993TIP3    H230615   2.633   2.458   1.225  0.2360 -0.2237 -0.5122
 2994TIP3   OH230616   5.884   2.381   1.981  0.6117 -0.4117 -0.2234
 2994TIP3    H130617   5.800   2.426   1.972  2.1331  2.3257 -1.8088
 2994TIP3    H230618   5.920   2.412   2.064  0.0661 -1.7361  0.5542
 2995TIP3   OH230619   2.414   0.004   8.511  0.4158  0.4963  0.4570
 2995TIP3    H130620   2.507  -0.019   8.511  0.3428  0.1029  1.8473
 2995TIP3    H230621   2.410   0.087   8.559  0.0792  0.6119  0.2301
 2996TIP3   OH230622   5.175   6.393   8.357 -0.1515 -0.0174  0.4595
 2996TIP3    H130623   5.115   6.457   8.397  0.2478  0.1419  0.8096
 2996TIP3    H230624   5.218   6.351   8.432  1.8239  1.4404  0.2012
 2997TIP3   OH230625   2.405   1.134   2.376  0.0646 -0.3236  0.1968
 2997TIP3    H130626   2.378   1.063   2.434  0.2186  1.0839  2.0856
 2997TIP3    H230627   2.484   1.102   2.333 -0.1437 -1.4683  0.6514
 2998TIP3   OH230628   0.878   6.726   0.727  0.1978 -0.2773  0.3786
 2998TIP3    H130629   0.852   6.817   0.709  0.2529 -0.2397  0.4925
 2998TIP3    H230630   0.948   6.708   0.665 -0.7906 -0.7145 -0.6501
 2999TIP3   OH230631   0.401   6.357   0.011  0.2839  0.1091 -0.6796
 2999TIP3    H130632   0.475   6.418   0.019 -0.0668  0.3783  0.6930
 2999TIP3    H230633   0.433   6.276   0.050 -0.0650  0.1591 -0.2880
 3000TIP3   OH230634   2.249   1.948   2.116 -0.2876  0.5259  0.3285
 3000TIP3    H130635   2.172   1.897   2.089  1.1030 -2.4365  1.5034
 3000TIP3    H230636   2.212   2.021   2.166 -2.3890  0.1836 -0.6003
 3001TIP3   OH230637   5.551   1.501   2.779 -0.0079 -0.1762 -0.4337
 3001TIP3    H130638   5.563   1.579   2.726 -0.0729  1.0885  1.3218
 3001TIP3    H230639   5.598   1.519   2.860 -0.5400 -1.7008  0.2678
 3002TIP3   OH230640   2.961   4.913   1.818 -0.2577  0.8027 -0.1140
 3002TIP3    H130641   3.010   4.906   1.900 -1.4686  0.9009  0.6384
 3002TIP3    H230642   2.967   5.006   1.795  1.1392  0.5687 -0.8381
 3003TIP3   OH230643   6.526   0.711   2.954 -0.3116 -0.0091  0.0507
 3003TIP3    H130644   6.582   0.690   2.879  1.1604  0.5537  0.9585
 3003TIP3    H230645   6.552   0.799   2.979 -2.8975  1.0355 -0.5858
 3004TIP3   OH230646   4.380   3.017   1.586  0.5171  0.1894  0.8590
 3004TIP3    H130647   4.465   3.057   1.603  0.3779  0.5134  0.8062
 3004TIP3    H230648   4.339   3.075   1.522  1.3367 -1.3899 -1.2337
 3005TIP3   OH230649   0.921   3.469   2.067 -0.1802  0.3283  0.9084
 3005TIP3    H130650   0.833   3.485   2.101  0.8120  0.0120  4.0208
 3005TIP3    H230651   0.926   3.373   2.058 -0.4059  0.4042 -0.1545
 3006TIP3   OH230652   6.707   1.327   7.315  0.7872  0.5151 -0.1871
 3006TIP3    H130653   6.784   1.367   7.355  1.1268  0.2522 -0.5626
 3006TIP3    H230654   6.698   1.372   7.231  1.3372 -0.3602 -0.7369
 3007TIP3   OH230655   3.562   1.425   1.758 -0.0351 -0.8560 -0.0300
 3007TIP3    H130656   3.529   1.351   1.706  1.3228 -0.8635 -0.9444
 3007TIP3    H230657   3.656   1.424   1.743 -0.0045  1.1875 -0.2300
 3008TIP3   OH230658   3.312   6.026   2.713 -0.1708  0.3502 -0.7382
 3008TIP3    H130659   3.222   6.036   2.682 -0.3703 -0.6608 -0.5287
 3008TIP3    H230660   3.305   6.026   2.808 -0.0485 -0.4821 -0.7240
 3009TIP3   OH230661   5.432   3.037   3.014 -0.2033 -0.6373  0.5258
 3009TIP3    H130662   5.354   3.088   3.035  1.6292  2.9901 -0.6906
 3009TIP3    H230663   5.462   3.072   2.931  2.6895 -1.9545  0.8890
 3010TIP3   OH230664   3.504   4.311   2.860  0.3283 -0.5851 -0.5682
 3010TIP3    H130665   3.426   4.270   2.898  0.6043 -0.2405  0.4065
 3010TIP3    H230666   3.577   4.277   2.912  0.8173 -0.8069 -1.3904
 3011TIP3   OH230667   1.838   4.199   7.366 -0.4909 -0.0818  0.0737
 3011TIP3    H130668   1.802   4.203   7.278  2.0159 -2.2170 -1.1913
 3011TIP3    H230669   1.915   4.256   7.364  1.2563 -2.2893 -0.1297
 3012TIP3   OH230670   0.540   1.468   1.468  0.2189  0.6233  0.1750
 3012TIP3    H130671   0.487   1.389   1.452 -1.4665  1.8801 -0.7522
 3012TIP3    H230672   0.478   1.531   1.503  1.9802  0.9135  3.0714
 3013TIP3   OH230673   1.433   2.138   1.151 -0.1587 -0.2917  0.1875
 3013TIP3    H130674   1.504   2.178   1.200 -0.1236  1.1165 -0.9626
 3013TIP3    H230675   1.453   2.157   1.059 -1.1401 -1.3301 -0.2696
 3014TIP3   OH230676   1.737   0.645   7.855  0.1620  0.3637  0.1269
 3014TIP3    H130677   1.829   0.664   7.875  0.1751 -0.4681  0.9632
 3014TIP3    H230678   1.711   0.581   7.922 -0.5720 -0.5899 -1.0305
 3015TIP3   OH230679   5.434   4.703   2.162 -0.3902 -0.6990  0.1493
 3015TIP3    H130680   5.374   4.764   2.204 -0.8928  0.1707 -1.7366
 3015TIP3    H230681   5.520   4.726   2.199 -0.6401  0.8223 -0.1371
 3016TIP3   OH230682   0.468   4.583   0.123 -0.2380  0.5977 -0.2138
 3016TIP3    H130683   0.429   4.511   0.074 -1.7944  1.1924  0.0944
 3016TIP3    H230684   0.536   4.618   0.065 -0.0428 -0.5540 -0.7066
 3017TIP3   OH230685   6.795   0.680   8.391  0.2659  0.4305  0.3697
 3017TIP3    H130686   6.852   0.618   8.438 -1.5493 -1.3808  0.3392
 3017TIP3    H230687   6.772   0.745   8.457 -0.7585 -1.0430  1.5434
 3018TIP3   OH230688   5.675   2.955   7.785 -0.0976 -0.3588  0.0988
 3018TIP3    H130689   5.710   3.028   7.734  1.1203 -1.1472 -0.2199
 3018TIP3    H230690   5.747   2.928   7.841 -0.8375 -0.7236  0.8835
 3019TIP3   OH230691   4.569   3.660   1.135  1.0667  0.0720 -0.0762
 3019TIP3    H130692   4.573   3.682   1.042 -0.6560 -0.8179 -0.4002
 3019TIP3    H230693   4.480   3.683   1.162  1.5116  0.2475  1.3418
 3020TIP3   OH230694   2.648   4.255   2.155 -0.0280 -0.2334  0.0025
 3020TIP3    H130695   2.707   4.274   2.081 -1.7103 -1.1986 -1.6649
 3020TIP3    H230696   2.650   4.160   2.164 -1.5125 -0.3121 -0.2747
 3021TIP3   OH230697   6.792   4.315   7.842  0.0325  0.6138  0.4604
 3021TIP3    H130698   6.748   4.328   7.758  0.7548  0.5974  0.0659
 3021TIP3    H230699   6.811   4.221   7.844  0.4256  0.6908  0.4281
 3022TIP3   OH230700   0.498   1.738   0.595 -0.5982  0.3323  0.2990
 3022TIP3    H130701   0.468   1.657   0.637 -0.4387  0.3778  0.5027
 3022TIP3    H230702   0.486   1.806   0.662  1.8486  0.0360  1.1375
 3023TIP3   OH230703   2.300   2.875   7.575 -0.0487  0.3538  0.5026
 3023TIP3    H130704   2.299   2.951   7.516 -0.2618 -0.2699 -0.3175
 3023TIP3    H230705   2.365   2.898   7.641  3.2976 -0.5448 -2.1886
 3024TIP3   OH230706   1.238   5.596   0.745  0.2089  0.4072 -0.1177
 3024TIP3    H130707   1.143   5.601   0.741  0.1438 -0.8371 -0.4988
 3024TIP3    H230708   1.258   5.503   0.738  1.4140  0.5444  1.0149
 3025TIP3   OH230709   0.099   5.470   1.306  0.4142  0.0898  0.2722
 3025TIP3    H130710   0.088   5.395   1.248 -0.6128  2.0021 -2.1956
 3025TIP3    H230711   0.027   5.461   1.369 -0.2736 -0.5234 -0.5645
 3026TIP3   OH230712   5.415   4.149   0.473 -0.2712 -0.0769  0.6273
 3026TIP3    H130713   5.402   4.060   0.505 -1.4674 -0.2887 -0.3469
 3026TIP3    H230714   5.506   4.151   0.444  0.0402 -0.6820  1.5225
 3027TIP3   OH230715   0.635   6.900   7.804 -0.1687 -0.0209  0.4660
 3027TIP3    H130716   0.690   6.936   7.734 -0.9468  1.2190  0.4719
 3027TIP3    H230717   0.595   6.822   7.766  1.4141 -0.8458  0.3969
 3028TIP3   OH230718   3.531   3.223   0.336  0.3849  0.2642  0.1364
 3028TIP3    H130719   3.565   3.313   0.336  2.9971 -0.6590 -0.8221
 3028TIP3    H230720   3.557   3.188   0.421 -0.1445  0.2192  0.2846
 3029TIP3   OH230721   1.266   5.034   0.027  0.3007 -0.6131  0.2908
 3029TIP3    H130722   1.222   4.958  -0.011 -1.0080 -0.0236  0.5599
 3029TIP3    H230723   1.301   5.002   0.110  1.3447 -1.3628 -0.4093
 3030TIP3   OH230724   2.850   1.577   8.529 -0.5203 -0.2433 -0.4568
 3030TIP3    H130725   2.799   1.498   8.513  0.7370 -0.6613 -2.8620
 3030TIP3    H230726   2.941   1.550   8.518 -0.0749  1.5969 -1.7915
 3031TIP3   OH230727   2.269   5.711   2.567 -0.0416  0.0623  0.0594
 3031TIP3    H130728   2.191   5.759   2.539  0.0920  1.5519  2.0584
 3031TIP3    H230729   2.234   5.630   2.606 -0.4123 -0.3383 -1.0497
 3032TIP3   OH230730   3.776   4.956   2.471  0.7005  0.1154 -0.2886
 3032TIP3    H130731   3.723   5.012   2.415  0.7793  1.0476  0.5409
 3032TIP3    H230732   3.764   4.992   2.559  1.2469 -0.7949  0.1708
 3033TIP3   OH230733   2.861   6.349   0.558  0.6504 -0.1556 -0.2777
 3033TIP3    H130734   2.846   6.422   0.497  0.4424  0.2577  0.2637
 3033TIP3    H230735   2.900   6.281   0.504 -1.5428 -0.6178 -1.3726
 3034TIP3   OH230736   1.189   4.993   1.949  0.2814  0.3465  0.1755
 3034TIP3    H130737   1.114   5.050   1.936 -1.5936 -1.5636  1.7314
 3034TIP3    H230738   1.232   5.026   2.028  1.1234  1.4319 -0.7083
 3035TIP3   OH230739   5.296   2.106   0.071  0.2677  0.4319 -0.3635
 3035TIP3    H130740   5.229   2.088   0.137 -1.0138 -0.9927 -1.9539
 3035TIP3    H230741   5.267   2.186   0.028 -0.7010 -0.3670 -1.2846
 3036TIP3   OH230742   1.860   6.342   6.901  0.2220 -0.0979  0.4318
 3036TIP3    H130743   1.935   6.320   6.845  0.2587  1.3565 -0.1261
 3036TIP3    H230744   1.786   6.298   6.860  0.5578 -0.5230  0.2701
 3037TIP3   OH230745   4.761   0.078   1.625 -0.2028 -0.4014  0.0143
 3037TIP3    H130746   4.846   0.106   1.593 -0.3040  0.4037  0.4336
 3037TIP3    H230747   4.734   0.146   1.687 -1.5428 -0.1774 -0.7641
 3038TIP3   OH230748   0.293   3.135   0.441  0.1375  0.0800  0.1838
 3038TIP3    H130749   0.235   3.145   0.365 -0.9258  1.9937  1.1623
 3038TIP3    H230750   0.373   3.181   0.416 -0.0257  0.2938  0.0479
 3039TIP3   OH230751   0.255   2.181   0.084  0.4072  0.2254 -0.4003
 3039TIP3    H130752   0.205   2.263   0.082  0.3341  0.1651 -1.4286
 3039TIP3    H230753   0.194   2.116   0.050 -0.3376 -0.7481  2.4825
 3040TIP3   OH230754   1.487   1.711   2.505  0.1074  0.1480 -0.3946
 3040TIP3    H130755   1.470   1.805   2.515 -0.8372 -0.0643  0.2136
 3040TIP3    H230756   1.405   1.670   2.532 -0.0258 -0.8034 -2.1381
 3041TIP3   OH230757   3.539   3.307   2.819 -0.0949  0.1248  0.1628
 3041TIP3    H130758   3.568   3.215   2.815  0.4827  0.2684  0.9639
 3041TIP3    H230759   3.490   3.313   2.901  1.7078  1.0389  1.2336
 3042TIP3   OH230760   0.764   6.100   1.463  0.0348  0.0612 -0.3093
 3042TIP3    H130761   0.679   6.085   1.421  0.6260 -0.2223 -1.4368
 3042TIP3    H230762   0.774   6.027   1.524  0.2980 -0.9790 -1.5544
 3043TIP3   OH230763   1.011   1.303   3.040  0.3698 -0.4701 -0.1727
 3043TIP3    H130764   1.007   1.398   3.046  3.0377 -0.2537 -0.6986
 3043TIP3    H230765   0.973   1.272   3.122  1.4214  1.1498  0.9803
 3044TIP3   OH230766   5.042   6.758   7.898  0.7555 -0.1597 -0.1647
 3044TIP3    H130767   5.130   6.732   7.871 -0.1907 -0.9173 -2.8331
 3044TIP3    H230768   5.012   6.687   7.956  0.7294 -1.6476 -1.9154
 3045TIP3   OH230769   6.281   0.607   3.009  0.1610 -0.1579  0.1757
 3045TIP3    H130770   6.281   0.612   2.914 -0.7277 -2.8220 -0.0428
 3045TIP3    H230771   6.367   0.639   3.036  0.2550  1.0619 -1.4413
 3046TIP3   OH230772   2.702   3.634   1.476  0.3960  0.0301 -0.4968
 3046TIP3    H130773   2.710   3.569   1.406  2.7962  0.0857 -0.3477
 3046TIP3    H230774   2.785   3.629   1.523 -0.6779  0.8719  1.6158
 3047TIP3   OH230775   1.264   0.336   0.371  0.3722  0.0892 -0.1353
 3047TIP3    H130776   1.246   0.430   0.363 -1.4308 -0.2941 -0.8681
 3047TIP3    H230777   1.182   0.298   0.400  1.4900 -1.1096  1.6309
 3048TIP3   OH230778   0.052   3.933   8.073 -0.4234  0.4764  0.0702
 3048TIP3    H130779   0.094   3.871   8.013 -0.3558  1.7084 -1.2100
 3048TIP3    H230780   0.112   3.940   8.147  0.5202  0.5117 -0.6854
 3049TIP3   OH230781   3.504   3.372   0.073 -0.3454  0.4649  0.0476
 3049TIP3    H130782   3.572   3.439   0.077  0.2626 -0.1793  0.6545
 3049TIP3    H230783   3.516   3.321   0.153  0.1390 -1.2930 -1.0950
 3050TIP3   OH230784   0.555   1.546   7.407 -0.5343 -0.2395 -0.0905
 3050TIP3    H130785   0.621   1.612   7.384 -1.3073  0.2526 -0.9355
 3050TIP3    H230786   0.490   1.593   7.458 -1.0506 -0.3595 -0.6288
 3051TIP3   OH230787   3.350   5.894   2.077 -0.2541  0.2691  0.0238
 3051TIP3    H130788   3.398   5.813   2.060 -1.8859 -0.4086 -1.6729
 3051TIP3    H230789   3.416   5.953   2.115  1.6882 -0.9322 -1.2756
 3052TIP3   OH230790   3.994   1.449   2.857  0.0028 -0.2031 -0.4300
 3052TIP3    H130791   4.006   1.494   2.941 -0.5597  2.5253 -1.7047
 3052TIP3    H230792   4.001   1.356   2.879  1.0566  0.4280  2.4273
 3053TIP3   OH230793   0.116   5.830   0.453  0.1258  0.3470  0.4988
 3053TIP3    H130794   0.132   5.737   0.436 -0.0986 -0.1504  2.6810
 3053TIP3    H230795   0.200   5.864   0.482 -0.4200  0.0134  2.7097
 3054TIP3   OH230796   1.691   0.415   8.050 -0.1388 -0.3845  0.1228
 3054TIP3    H130797   1.639   0.384   7.976 -1.7761  0.9910  0.6247
 3054TIP3    H230798   1.686   0.344   8.114 -0.7647 -0.6042 -0.1613
 3055TIP3   OH230799   5.822   5.125   0.939  0.1436  0.0988 -0.4422
 3055TIP3    H130800   5.818   5.204   0.885  1.9773 -0.2206 -1.1184
 3055TIP3    H230801   5.731   5.098   0.948 -0.3221  0.7676 -2.5011
 3056TIP3   OH230802   0.609   0.150   2.738  0.1655 -0.5588  0.5295
 3056TIP3    H130803   0.653   0.232   2.760 -1.9473  0.5731  0.8055
 3056TIP3    H230804   0.619   0.143   2.643 -2.1796  1.6789  0.0132
 3057TIP3   OH230805   2.759   3.005   0.432  0.4840 -0.5481  0.4186
 3057TIP3    H130806   2.754   2.931   0.492 -0.6675 -0.0663  0.9443
 3057TIP3    H230807   2.829   3.061   0.468  1.3445 -1.3413  0.0288
 3058TIP3   OH230808   0.763   1.225   1.588 -0.8282  0.0428  0.1076
 3058TIP3    H130809   0.782   1.152   1.529 -0.7675  0.8116 -0.8463
 3058TIP3    H230810   0.667   1.226   1.594 -0.8708  0.3558 -0.5090
 3059TIP3   OH230811   1.473   6.528   7.057 -0.0735  0.1484 -0.0660
 3059TIP3    H130812   1.553   6.546   7.007 -1.1922 -0.5570 -2.2455
 3059TIP3    H230813   1.405   6.519   6.991 -1.3102 -2.9002  1.4104
 3060TIP3   OH230814   4.280   6.515   1.261 -0.1025  0.0200 -0.2587
 3060TIP3    H130815   4.318   6.430   1.240 -0.4174 -0.3262  0.5329
 3060TIP3    H230816   4.283   6.520   1.356 -1.6618  0.1429 -0.1896
 3061TIP3   OH230817   1.017   1.851   0.212 -0.2921 -0.1642 -0.8755
 3061TIP3    H130818   0.998   1.930   0.161 -1.0267  0.8358  0.8693
 3061TIP3    H230819   1.096   1.873   0.261 -1.6115  0.3489  1.1739
 3062TIP3   OH230820   6.533   1.178   1.983 -0.6168  0.5828  0.5238
 3062TIP3    H130821   6.609   1.131   2.017 -0.0326 -0.0518 -1.5096
 3062TIP3    H230822   6.566   1.266   1.963 -0.0964  0.0438 -1.2192
 3063TIP3   OH230823   0.392   0.780   1.988 -0.1073  0.0400  0.6514
 3063TIP3    H130824   0.428   0.771   2.076  1.0035  0.4441  0.2564
 3063TIP3    H230825   0.445   0.720   1.934 -0.5697  0.0287  0.2039
 3064TIP3   OH230826   6.637   4.450   2.437  0.0684  0.0456  0.1146
 3064TIP3    H130827   6.660   4.531   2.393  0.3039  1.7466  3.0958
 3064TIP3    H230828   6.708   4.389   2.415 -0.7206  0.1387 -3.1251
 3065TIP3   OH230829   0.678   0.462   7.386  0.7601  0.5902 -0.4995
 3065TIP3    H130830   0.606   0.401   7.401 -0.0635  1.2250 -1.6512
 3065TIP3    H230831   0.682   0.471   7.291  1.7186  1.3253 -0.4039
 3066TIP3   OH230832   0.015   6.794   0.822  0.0516  0.5214 -0.7228
 3066TIP3    H130833   0.061   6.870   0.857  0.9982  0.2561 -1.3666
 3066TIP3    H230834   0.084   6.731   0.802 -0.7270 -0.5354 -0.1491
 3067TIP3   OH230835   5.010   2.137   8.411  0.4593  0.5174 -0.1196
 3067TIP3    H130836   5.057   2.196   8.469  0.0013  0.3852  0.3932
 3067TIP3    H230837   4.935   2.188   8.380  0.8064  0.6540 -0.7622
 3068TIP3   OH230838   4.435   4.684   2.459 -1.1060  0.0478 -0.6604
 3068TIP3    H130839   4.400   4.770   2.483 -1.9592 -0.8081  1.4785
 3068TIP3    H230840   4.477   4.652   2.539  3.1507  0.1989 -2.5566
 3069TIP3   OH230841   2.930   0.237   0.541 -0.2238  0.4883  0.1962
 3069TIP3    H130842   2.960   0.192   0.620  0.3828  0.8243  0.1667
 3069TIP3    H230843   2.860   0.182   0.506  0.0376 -0.0676  0.5408
 3070TIP3   OH230844   2.873   0.464   1.297 -0.0760 -0.5435  0.4340
 3070TIP3    H130845   2.782   0.439   1.312 -0.3990  0.6240  0.5294
 3070TIP3    H230846   2.876   0.492   1.205  0.0459 -0.0321  0.5886
 3071TIP3   OH230847   3.650   2.959   8.324 -0.5202 -0.2845  0.3115
 3071TIP3    H130848   3.646   2.982   8.417 -0.1080  0.8731  0.0523
 3071TIP3    H230849   3.574   3.002   8.286 -0.8806 -1.0386  0.1567
 3072TIP3   OH230850   5.680   3.183   2.544 -0.3373  0.5868  0.2518
 3072TIP3    H130851   5.658   3.125   2.471 -0.4281  1.2223 -0.2287
 3072TIP3    H230852   5.642   3.267   2.520 -0.9233  0.6436  1.3290
 3073TIP3   OH230853   2.861   5.418   7.772  0.0539 -0.1567 -0.3104
 3073TIP3    H130854   2.887   5.421   7.680  1.2192 -0.8148 -0.0356
 3073TIP3    H230855   2.887   5.330   7.801  2.3519  0.9375  1.3236
 3074TIP3   OH230856   1.541   5.732   1.729 -0.0677 -0.3640  0.0098
 3074TIP3    H130857   1.616   5.673   1.718  0.3093 -0.0642  0.9168
 3074TIP3    H230858   1.578   5.813   1.764 -0.6279  0.3027 -0.8916
 3075TIP3   OH230859   5.821   2.772   0.356  0.8697 -0.1377  0.4127
 3075TIP3    H130860   5.811   2.857   0.400  1.2278  0.8638 -1.3683
 3075TIP3    H230861   5.731   2.745   0.337  0.7936  0.8814 -0.8527
 3076TIP3   OH230862   5.283   0.543   7.284  0.3555 -0.0903 -0.6631
 3076TIP3    H130863   5.317   0.604   7.349 -0.0382  0.1626 -0.6896
 3076TIP3    H230864   5.312   0.579   7.200  0.4624 -0.1606 -0.6574
 3077TIP3   OH230865   6.687   1.558   1.706 -0.0718  0.0031  0.3885
 3077TIP3    H130866   6.604   1.558   1.659 -0.5200 -0.5343  1.1629
 3077TIP3    H230867   6.672   1.501   1.781  1.1385 -0.4599  0.2937
 3078TIP3   OH230868   6.309   5.122   6.909  0.6905 -0.0972  0.2031
 3078TIP3    H130869   6.271   5.120   6.821 -1.1096  1.0478  0.8894
 3078TIP3    H230870   6.322   5.030   6.932  0.9204 -0.4193 -1.1391
 3079TIP3   OH230871   4.113   3.135   2.417  0.1881 -0.0079 -0.4633
 3079TIP3    H130872   4.182   3.072   2.439 -0.1986 -0.0302  0.7279
 3079TIP3    H230873   4.067   3.095   2.343  1.7137  0.2187 -1.5918
 3080TIP3   OH230874   1.924   4.671   2.744  0.2470 -0.8597 -0.0813
 3080TIP3    H130875   1.973   4.743   2.704 -0.6856 -0.0571  0.1480
 3080TIP3    H230876   1.932   4.686   2.838 -0.2276 -0.8453 -0.0383
 3081TIP3   OH230877   0.568   3.767   8.510 -0.2062 -0.5399 -0.1673
 3081TIP3    H130878   0.552   3.703   8.579  1.8762 -0.2521  0.6659
 3081TIP3    H230879   0.534   3.850   8.546  2.9196  0.1219  1.6803
 3082TIP3   OH230880   1.119   0.522   7.080 -0.2276 -0.1713  0.0852
 3082TIP3    H130881   1.176   0.592   7.113  0.7275 -0.4800 -0.8775
 3082TIP3    H230882   1.077   0.560   7.002 -1.9594  0.3201  1.1909
 3083TIP3   OH230883   1.696   1.471   7.330 -0.5126 -0.0571  0.0331
 3083TIP3    H130884   1.748   1.550   7.340 -2.9895  1.7096 -0.1800
 3083TIP3    H230885   1.743   1.418   7.266  1.2152  1.1985  0.2133
 3084TIP3   OH230886   1.861   4.792   7.538 -0.2841 -0.0465 -0.3065
 3084TIP3    H130887   1.824   4.870   7.497  0.2953  0.8480  0.8037
 3084TIP3    H230888   1.955   4.797   7.520 -0.0976  0.0653  0.6134
 3085TIP3   OH230889   6.710   6.460   1.740 -0.1075 -0.4559  0.5503
 3085TIP3    H130890   6.616   6.481   1.740 -0.1100 -0.4692  0.3592
 3085TIP3    H230891   6.749   6.521   1.678 -0.0683 -0.8011  0.2348
 3086TIP3   OH230892   1.326   1.832   7.608  0.4980 -0.4115 -0.1406
 3086TIP3    H130893   1.390   1.876   7.551  1.5129 -1.5829  0.0393
 3086TIP3    H230894   1.289   1.903   7.661  0.2987  0.5519 -1.5031
 3087TIP3   OH230895   6.685   0.269   7.594  0.2570 -0.2402  0.3254
 3087TIP3    H130896   6.639   0.186   7.608  1.0491 -0.5423  1.2647
 3087TIP3    H230897   6.773   0.253   7.628  0.4710  0.9270  0.3393
 3088TIP3   OH230898   0.040   1.572   1.759 -0.2182 -0.1255  0.2497
 3088TIP3    H130899   0.068   1.607   1.674 -0.6719 -0.3276  0.0099
 3088TIP3    H230900  -0.055   1.570   1.753 -0.2627  0.1660  0.8934
 3089TIP3   OH230901   3.088   5.985   1.637 -0.0552  0.0292 -0.2672
 3089TIP3    H130902   3.136   6.029   1.567 -0.0401  1.0872  0.3930
 3089TIP3    H230903   3.101   5.892   1.620  2.2344  0.2692 -0.0934
 3090TIP3   OH230904   3.899   6.893   1.630 -0.0560  0.2108 -0.7366
 3090TIP3    H130905   3.908   6.881   1.725 -0.1930 -1.0240 -0.8690
 3090TIP3    H230906   3.986   6.873   1.595 -0.4028 -0.9052 -1.0017
 3091TIP3   OH230907   5.110   3.325   3.108  0.0879  1.0106 -0.6306
 3091TIP3    H130908   5.029   3.360   3.146 -0.1617  0.8150 -0.9849
 3091TIP3    H230909   5.167   3.311   3.184  0.5195  2.9996 -0.5291
 3092TIP3   OH230910   6.671   2.749   8.262  0.1920  0.4093 -0.1791
 3092TIP3    H130911   6.634   2.822   8.311  2.1193  0.7786  0.8375
 3092TIP3    H230912   6.618   2.674   8.288 -1.1031  1.2321 -0.3619
 3093TIP3   OH230913   1.337   4.024   0.249 -0.2705 -0.5064 -0.2977
 3093TIP3    H130914   1.420   3.976   0.254  0.0026  0.0887  2.2215
 3093TIP3    H230915   1.356   4.107   0.293 -2.1001 -0.1816 -0.0747
 3094TIP3   OH230916   5.975   0.021   8.241 -0.2258 -0.0799  0.4832
 3094TIP3    H130917   5.938   0.109   8.238 -2.1737 -0.8362  0.6841
 3094TIP3    H230918   5.979  -0.007   8.149 -0.1169  0.0260  0.4562
 3095TIP3   OH230919   6.244   2.365   7.385  0.0974 -0.4793 -0.4333
 3095TIP3    H130920   6.286   2.375   7.299 -0.9422 -1.3575 -1.0821
 3095TIP3    H230921   6.162   2.415   7.378  0.4491  0.2364  0.3944
 3096TIP3   OH230922   2.612   2.060   8.248 -0.8471 -0.0887 -0.2078
 3096TIP3    H130923   2.707   2.062   8.236 -0.9281  0.0105 -0.8466
 3096TIP3    H230924   2.597   1.989   8.311 -0.3923 -0.4568 -0.5066
 3097TIP3   OH230925   6.567   3.907   7.992 -0.1616  0.2051  0.1504
 3097TIP3    H130926   6.597   3.823   7.958 -0.6594  0.0965 -0.0336
 3097TIP3    H230927   6.519   3.885   8.072  0.5662  0.4115  0.6534
 3098TIP3   OH230928   5.086   5.398   8.350 -0.1633 -0.3767 -0.1468
 3098TIP3    H130929   5.078   5.493   8.342  0.8656 -0.3264 -0.7778
 3098TIP3    H230930   5.162   5.385   8.407  2.0394 -0.7814 -2.9759
 3099TIP3   OH230931   3.892   0.370   2.111 -0.0661  0.4400 -0.5018
 3099TIP3    H130932   3.904   0.318   2.032 -1.1050  0.0983 -0.4392
 3099TIP3    H230933   3.959   0.337   2.172  1.2893  1.2582 -1.4903
 3100TIP3   OH230934   6.199   5.219   2.808  0.2568  0.1405  0.4091
 3100TIP3    H130935   6.110   5.185   2.800  0.4901 -0.4438  0.2321
 3100TIP3    H230936   6.248   5.176   2.737  0.9222 -0.3454  1.1406
 3101TIP3   OH230937   1.184   0.246   7.429 -0.1501  0.2055 -0.6860
 3101TIP3    H130938   1.262   0.269   7.379 -0.4512  1.1515 -0.7412
 3101TIP3    H230939   1.114   0.300   7.391 -1.2645 -1.8984 -1.8714
 3102TIP3   OH230940   4.031   3.960   8.505 -0.2169  0.1433  0.1401
 3102TIP3    H130941   4.066   3.960   8.594  1.9710 -1.2751 -0.6345
 3102TIP3    H230942   4.034   4.051   8.477  1.5539  0.2670  0.6438
 3103TIP3   OH230943   2.105   5.517   7.016  0.2270 -0.1073 -0.3406
 3103TIP3    H130944   2.025   5.554   6.978 -0.6893 -0.4531  1.1958
 3103TIP3    H230945   2.131   5.449   6.954 -1.3697 -0.8241 -0.2701
 3104TIP3   OH230946   2.415   6.810   1.765  0.1108 -0.1778  0.0287
 3104TIP3    H130947   2.369   6.819   1.682  0.3307 -1.7382 -0.3039
 3104TIP3    H230948   2.497   6.767   1.742  0.5237  0.0919  0.9596
 3105TIP3   OH230949   3.124   6.098   2.237 -0.7442  0.0877 -0.2816
 3105TIP3    H130950   3.181   6.081   2.312 -1.7140 -0.0142  0.4521
 3105TIP3    H230951   3.177   6.150   2.177  0.0013  0.2955  0.5475
 3106TIP3   OH230952   4.996   6.158   8.014 -0.0830 -0.0177  0.2360
 3106TIP3    H130953   4.996   6.165   8.110 -0.9826 -3.0340  0.5545
 3106TIP3    H230954   4.918   6.206   7.986  0.0183  0.6275  1.0243
 3107TIP3   OH230955   6.057   4.816   2.398  0.7047  0.1614 -0.1936
 3107TIP3    H130956   6.078   4.803   2.491 -1.7694  2.2285  0.7806
 3107TIP3    H230957   6.063   4.910   2.386 -0.2702  0.0412 -1.8097
 3108TIP3   OH230958   2.974   1.474   7.586 -0.2780 -0.5630 -0.2074
 3108TIP3    H130959   2.986   1.416   7.661 -0.7154 -0.2339  0.1138
 3108TIP3    H230960   3.012   1.557   7.613 -2.9035  0.4230  0.7241
 3109TIP3   OH230961   0.954   0.859   8.162  0.2764  0.5217  0.1827
 3109TIP3    H130962   0.946   0.829   8.252 -0.5705  0.4748  0.1065
 3109TIP3    H230963   0.975   0.951   8.169  0.5243  0.4459  0.4304
 3110TIP3   OH230964   1.255   5.350   0.059  0.0688  0.0930 -0.0812
 3110TIP3    H130965   1.252   5.260   0.026  0.9100  0.7721 -2.1822
 3110TIP3    H230966   1.174   5.360   0.109 -1.2994 -1.0799 -1.9295
 3111TIP3   OH230967   4.268   2.847   8.566  0.4743  0.2059 -0.1385
 3111TIP3    H130968   4.329   2.855   8.493 -0.9095  1.9539 -1.2114
 3111TIP3    H230969   4.263   2.936   8.602 -0.4272 -0.1864  0.7338
 3112TIP3   OH230970   0.291   4.982   6.934 -0.1930 -0.3120  0.0702
 3112TIP3    H130971   0.234   5.042   6.884  1.1262  1.2105  0.2991
 3112TIP3    H230972   0.233   4.912   6.963 -1.5425  0.1742 -1.3305
 3113TIP3   OH230973   6.329   3.985   2.498 -0.7185 -0.0942 -0.2651
 3113TIP3    H130974   6.420   4.005   2.474 -0.9818  0.0265 -1.2111
 3113TIP3    H230975   6.331   3.977   2.593 -0.1831  2.3962  0.0173
 3114TIP3   OH230976   1.918   3.132   0.309 -0.0063 -0.0710 -0.7233
 3114TIP3    H130977   1.996   3.188   0.304  0.8669 -0.5653  3.5895
 3114TIP3    H230978   1.854   3.175   0.252  2.5735  1.7267 -2.5113
 3115TIP3   OH230979   6.003   6.574   2.344 -0.1483  0.8522  0.7014
 3115TIP3    H130980   5.951   6.500   2.374  0.7425 -0.1475 -0.1801
 3115TIP3    H230981   6.089   6.561   2.383  0.9135 -0.2466 -1.7960
 3116TIP3   OH230982   4.077   5.560   8.528  0.1461 -0.5881 -0.1611
 3116TIP3    H130983   4.104   5.470   8.548 -0.1126 -0.5408  0.4017
 3116TIP3    H230984   3.982   5.554   8.517  0.1735 -0.4472 -0.4855
 3117TIP3   OH230985   2.601   2.755   2.793 -0.4086  0.0510 -0.0446
 3117TIP3    H130986   2.585   2.841   2.832  3.1315 -0.2325  2.6002
 3117TIP3    H230987   2.586   2.767   2.700  0.0635  3.5951  0.2097
 3118TIP3   OH230988   1.266   1.018   0.545 -0.3691 -0.3650  0.0677
 3118TIP3    H130989   1.187   1.055   0.505  0.2570 -0.1099 -0.9817
 3118TIP3    H230990   1.259   0.924   0.529  0.3404 -0.1695 -1.5535
 3119TIP3   OH230991   3.702   3.876   1.082  0.1196 -0.3202  0.7712
 3119TIP3    H130992   3.776   3.886   1.022 -1.7156 -1.9174 -1.9613
 3119TIP3    H230993   3.720   3.794   1.128 -0.4004 -1.2533 -0.6485
 3120TIP3   OH230994   5.256   3.729   2.277  0.1903  0.6244 -0.4342
 3120TIP3    H130995   5.345   3.729   2.240  0.4754  1.2411  0.2352
 3120TIP3    H230996   5.267   3.763   2.366 -0.0164 -3.7270  1.4771
 3121TIP3   OH230997   2.650   0.778   1.127  0.0863  0.4631  0.1565
 3121TIP3    H130998   2.656   0.834   1.204 -0.6125 -1.1733  1.4418
 3121TIP3    H230999   2.609   0.833   1.060  1.5739  2.2097  0.6007
 3122TIP3   OH231000   4.169   0.812   8.394 -0.1556  0.6528 -0.2351
 3122TIP3    H131001   4.144   0.778   8.481  0.3621  1.6155  0.3040
 3122TIP3    H231002   4.218   0.892   8.413  1.1994  0.1188 -1.3672
 3123TIP3   OH231003   1.132   3.264   1.734 -0.9979 -0.6034 -0.0528
 3123TIP3    H131004   1.153   3.172   1.719  1.9601 -0.4010  1.9113
 3123TIP3    H231005   1.079   3.263   1.814  0.9706 -0.5721  1.3233
 3124TIP3   OH231006   3.151   2.614   7.683  0.2711  0.4600  0.0200
 3124TIP3    H131007   3.195   2.644   7.603  0.6755 -1.1671 -0.4209
 3124TIP3    H231008   3.061   2.598   7.657  0.0893  1.1276  0.2204
 3125TIP3   OH231009   4.915   6.862   1.985 -0.2486 -0.2498 -0.3467
 3125TIP3    H131010   5.011   6.865   1.980 -0.2902  0.5167 -0.7870
 3125TIP3    H231011   4.897   6.827   2.073  0.4461 -3.5201 -1.3468
 3126TIP3   OH231012   4.530   3.394   0.782  0.4564  0.0659 -0.1519
 3126TIP3    H131013   4.562   3.484   0.778  1.3372 -0.2333 -0.1983
 3126TIP3    H231014   4.595   3.344   0.732 -0.3740 -0.4995 -0.6823
 3127TIP3   OH231015   0.306   6.147   8.264 -0.5171 -0.3784 -0.0462
 3127TIP3    H131016   0.393   6.166   8.230 -0.0469  0.9418  1.7726
 3127TIP3    H231017   0.290   6.056   8.239  0.4513  0.0021 -2.2734
 3128TIP3   OH231018   4.511   2.142   0.731  0.0847  0.4205 -0.0369
 3128TIP3    H131019   4.594   2.101   0.708 -0.2209  0.1710 -0.7264
 3128TIP3    H231020   4.469   2.079   0.790  0.5525  0.7261  0.6246
 3129TIP3   OH231021   5.674   1.729   0.523 -0.5816  0.2175  0.0515
 3129TIP3    H131022   5.603   1.750   0.584  0.0945 -0.3959  1.0736
 3129TIP3    H231023   5.717   1.653   0.561  0.7992  0.7368 -0.4204
 3130TIP3   OH231024   1.666   2.617   0.771  0.2433  0.3968  0.3250
 3130TIP3    H131025   1.647   2.567   0.851 -1.5421  1.2515  0.4930
 3130TIP3    H231026   1.730   2.682   0.798 -0.5669  0.8760  1.1764
 3131TIP3   OH231027   5.554   2.390   1.557 -0.7010 -0.2609  0.3715
 3131TIP3    H131028   5.534   2.470   1.607 -2.1550 -0.5581  0.3004
 3131TIP3    H231029   5.646   2.372   1.578 -0.7416  0.6535  1.4767
 3132TIP3   OH231030   2.792   1.918   7.985 -0.1635 -0.0040  0.8837
 3132TIP3    H131031   2.817   1.873   7.904 -0.2399  1.0566  0.2524
 3132TIP3    H231032   2.817   1.857   8.055  0.3675 -0.7249  0.0883
 3133TIP3   OH231033   0.809   6.648   8.238 -0.5500  0.2890  0.2053
 3133TIP3    H131034   0.815   6.680   8.148  0.2240 -2.2889 -0.7542
 3133TIP3    H231035   0.894   6.606   8.254 -1.4893 -1.3149  1.2793
 3134TIP3   OH231036   5.748   3.946   0.912 -0.0882 -0.3139 -0.4157
 3134TIP3    H131037   5.686   4.018   0.899  1.2398  0.9537 -0.0778
 3134TIP3    H231038   5.716   3.876   0.856  0.0860  1.5218 -3.0238
 3135TIP3   OH231039   5.141   4.175   8.245  0.0491  0.2416  0.0326
 3135TIP3    H131040   5.102   4.245   8.297  0.8072  1.1015 -0.5318
 3135TIP3    H231041   5.105   4.095   8.283  2.9477  0.5194  4.0846
 3136TIP3   OH231042   6.828   5.883   2.142  0.6609  0.2854  0.1948
 3136TIP3    H131043   6.863   5.837   2.066  0.7982  0.6991  0.0050
 3136TIP3    H231044   6.767   5.821   2.182 -0.1646  0.4109 -0.8105
 3137TIP3   OH231045   5.219   6.247   3.051  0.5843 -0.1268  0.1573
 3137TIP3    H131046   5.159   6.320   3.040 -0.1439 -0.6198  0.7448
 3137TIP3    H231047   5.305   6.282   3.027 -0.3979 -0.4618 -4.8760
 3138TIP3   OH231048   6.502   4.109   8.535 -0.7779 -0.5764  0.5793
 3138TIP3    H131049   6.516   4.157   8.616  1.3347 -1.7392  1.0024
 3138TIP3    H231050   6.432   4.156   8.490  0.1395  1.9462  1.6261
 3139TIP3   OH231051   6.239   5.493   2.292 -0.1501 -0.0220  0.1397
 3139TIP3    H131052   6.296   5.421   2.321 -0.5556  0.2066  1.5844
 3139TIP3    H231053   6.152   5.454   2.291 -0.3466  0.3989  0.7535
 3140TIP3   OH231054   3.986   1.240   1.444 -0.3329 -0.3744 -0.1271
 3140TIP3    H131055   3.958   1.157   1.482  0.4560 -0.3403  0.5499
 3140TIP3    H231056   3.933   1.306   1.489  2.3314 -0.0802  2.9045
 3141TIP3   OH231057   1.374   5.650   0.367 -0.9643  0.2915 -0.0389
 3141TIP3    H131058   1.448   5.590   0.366 -0.1448  1.1911  1.7080
 3141TIP3    H231059   1.339   5.647   0.278  0.3881 -1.0899 -0.5694
 3142TIP3   OH231060   6.013   0.048   6.984 -0.1171 -0.1947  0.4902
 3142TIP3    H131061   5.947  -0.020   7.000 -1.3768  0.8379 -0.2349
 3142TIP3    H231062   6.028   0.087   7.070 -1.4663  0.4625  0.4435
 3143TIP3   OH231063   2.030   3.712   2.689 -0.1727 -0.5224 -0.2568
 3143TIP3    H131064   2.006   3.724   2.781 -1.1516 -0.7049 -0.4768
 3143TIP3    H231065   1.947   3.701   2.643  0.2518  0.4293 -1.2999
 3144TIP3   OH231066   1.686   6.539   0.202  0.0683 -0.6085  0.4864
 3144TIP3    H131067   1.728   6.618   0.167 -0.5184  0.4716  2.1136
 3144TIP3    H231068   1.713   6.470   0.142  2.1764  0.4683  0.0870
 3145TIP3   OH231069   0.902   2.666   8.328  0.2710  0.3201  0.1566
 3145TIP3    H131070   0.976   2.651   8.386 -0.0138  0.3256  0.5274
 3145TIP3    H231071   0.856   2.741   8.367  1.4030  1.8947 -1.3830
 3146TIP3   OH231072   3.025   6.038   7.590  0.0477  0.2025 -0.5304
 3146TIP3    H131073   3.085   6.053   7.664 -0.8384  0.4823  0.1390
 3146TIP3    H231074   3.083   6.013   7.518  1.0239  0.9990 -0.0460
 3147TIP3   OH231075   4.097   4.721   2.115  0.0265  0.1119  0.2150
 3147TIP3    H131076   4.019   4.676   2.085 -0.1355  0.6566 -0.2026
 3147TIP3    H231077   4.161   4.652   2.130 -1.2662 -0.6105  2.9460
 3148TIP3   OH231078   5.825   5.411   2.920 -0.0781 -0.7211 -0.0554
 3148TIP3    H131079   5.731   5.394   2.927 -0.0958 -0.9975 -0.8374
 3148TIP3    H231080   5.858   5.338   2.867  0.7989 -1.3314  1.2774
 3149TIP3   OH231081   5.613   1.509   7.450 -0.4102  0.2420 -0.6417
 3149TIP3    H131082   5.618   1.478   7.359 -2.7163  0.8566 -1.0547
 3149TIP3    H231083   5.694   1.478   7.491 -0.5614 -2.4662 -2.1724
 3150TIP3   OH231084   0.540   0.047   0.738 -0.1105  0.1053 -0.0009
 3150TIP3    H131085   0.525   0.034   0.831 -1.6960  1.9373  0.0629
 3150TIP3    H231086   0.632   0.023   0.725 -0.0242 -0.7483  1.8996
 3151TIP3   OH231087   5.325   3.472   7.394  0.3964 -0.3041 -0.1294
 3151TIP3    H131088   5.239   3.513   7.394 -0.1970 -1.5072  0.7712
 3151TIP3    H231089   5.311   3.388   7.349  1.3023 -0.1139 -0.7919
 3152TIP3   OH231090   2.727   0.679   0.482 -0.1653  0.7208  0.1077
 3152TIP3    H131091   2.782   0.618   0.532 -0.8645 -1.5067 -1.6851
 3152TIP3    H231092   2.699   0.629   0.406 -1.0135  3.2608 -1.3510
 3153TIP3   OH231093   0.007   1.246   1.532  0.0557 -0.3903  0.2291
 3153TIP3    H131094  -0.020   1.156   1.513  0.9352 -0.9405  1.4229
 3153TIP3    H231095   0.026   1.246   1.626  1.6904  0.5846 -0.0605
 3154TIP3   OH231096   4.790   2.761   0.610  0.0064 -0.2006  0.8084
 3154TIP3    H131097   4.856   2.784   0.545  0.3697  1.9104  1.8419
 3154TIP3    H231098   4.840   2.751   0.692 -0.6243 -1.3720  1.0755
 3155TIP3   OH231099   6.183   4.733   7.424  0.0074 -0.0081 -0.3621
 3155TIP3    H131100   6.265   4.713   7.379 -0.8219 -3.0607 -0.7225
 3155TIP3    H231101   6.205   4.730   7.517  0.8369  2.1315 -0.4302
 3156TIP3   OH231102   3.579   3.357   1.757 -0.0614  0.5405 -0.4625
 3156TIP3    H131103   3.492   3.343   1.718 -0.8638  0.8163  1.1613
 3156TIP3    H231104   3.630   3.396   1.686 -0.5495 -1.6729 -2.1739
 3157TIP3   OH231105   4.229   3.150   0.469  0.1215 -0.2929  0.2220
 3157TIP3    H131106   4.134   3.150   0.476  0.0064 -0.3095 -0.9874
 3157TIP3    H231107   4.251   3.060   0.443  0.3227  0.0571 -0.8650
 3158TIP3   OH231108   3.942   3.142   0.875  0.0963 -0.2353 -0.0554
 3158TIP3    H131109   3.955   3.054   0.840  0.1414 -1.0405  1.9145
 3158TIP3    H231110   4.022   3.161   0.924  0.1445  0.9772 -0.5661
 3159TIP3   OH231111   3.944   3.880   3.253  0.4339 -0.1915  0.0339
 3159TIP3    H131112   3.902   3.920   3.329 -1.5497 -0.0722 -1.0590
 3159TIP3    H231113   4.023   3.840   3.288 -0.7779 -0.7734  2.3156
 3160TIP3   OH231114   5.046   4.101   2.676 -0.5426 -0.3729 -0.7323
 3160TIP3    H131115   4.960   4.062   2.662 -1.6697  1.0793  1.5423
 3160TIP3    H231116   5.080   4.059   2.755 -0.3989  0.9232 -0.0612
 3161TIP3   OH231117   2.592   4.049   1.122  0.1454 -0.2991  0.1854
 3161TIP3    H131118   2.591   3.955   1.141  0.9738 -0.0108  1.8356
 3161TIP3    H231119   2.684   4.069   1.104 -0.1381  0.0824 -0.9098
 3162TIP3   OH231120   2.434   3.199   0.459 -0.2948  0.7285 -0.1487
 3162TIP3    H131121   2.413   3.111   0.427 -1.7355  0.2704  1.8447
 3162TIP3    H231122   2.508   3.186   0.518 -1.5180  0.5123  1.4208
 3163TIP3   OH231123   6.254   5.561   0.335  0.3669 -0.1910 -0.1627
 3163TIP3    H131124   6.266   5.642   0.383  1.2354 -1.3235  1.6422
 3163TIP3    H231125   6.161   5.541   0.343  0.5511 -0.5207  1.3593
 3164TIP3   OH231126   3.309   4.016   0.661 -0.1054 -0.3582 -0.1847
 3164TIP3    H131127   3.393   4.054   0.687 -0.3987 -0.0229  0.2844
 3164TIP3    H231128   3.303   3.935   0.712 -0.3554 -0.0588  0.2683
 3165TIP3   OH231129   0.495   0.971   0.718 -0.6109 -0.0035 -0.1704
 3165TIP3    H131130   0.589   0.975   0.740 -0.3504 -0.0537 -1.2256
 3165TIP3    H231131   0.484   1.035   0.648 -1.7254  1.2436  1.1069
 3166TIP3   OH231132   5.366   5.969   2.942  0.3949  0.0140 -0.1672
 3166TIP3    H131133   5.374   5.894   2.882  1.4125 -0.6447  0.7454
 3166TIP3    H231134   5.454   5.981   2.977  0.0994  1.2381  0.1901
 3167TIP3   OH231135   6.671   3.589   0.187 -0.0162 -0.2669 -0.5700
 3167TIP3    H131136   6.737   3.623   0.248 -0.7797 -0.5549  0.4412
 3167TIP3    H231137   6.712   3.597   0.100  1.5266 -0.8368  0.0623
 3168TIP3   OH231138   4.067   1.389   1.740  0.5037  0.0556  0.2003
 3168TIP3    H131139   4.137   1.324   1.730  0.4737 -0.0911  0.8528
 3168TIP3    H231140   4.112   1.473   1.731  1.4417  0.1069  3.6679
 3169TIP3   OH231141   3.385   3.945   1.963 -0.5952 -0.4961 -0.1017
 3169TIP3    H131142   3.352   3.945   2.053 -1.1260 -0.0200 -0.2887
 3169TIP3    H231143   3.388   3.853   1.939 -2.2003 -0.5609 -0.2114
 3170TIP3   OH231144   4.163   4.003   1.893  0.1407  0.0564  0.5558
 3170TIP3    H131145   4.173   3.932   1.957  1.6325  1.1397  1.5849
 3170TIP3    H231146   4.241   3.996   1.838 -0.4871 -0.0450 -0.3411
 3171TIP3   OH231147   3.204   5.164   8.477  0.1828 -0.2398  0.6613
 3171TIP3    H131148   3.275   5.180   8.415  1.7998 -1.3691  2.1213
 3171TIP3    H231149   3.126   5.199   8.434  1.5467  0.7220 -1.1593
 3172TIP3   OH231150   5.987   0.588   1.608  0.1540  0.1749 -0.1283
 3172TIP3    H131151   5.987   0.683   1.595 -2.8829  0.1935 -0.7444
 3172TIP3    H231152   5.975   0.576   1.702 -1.9622  0.4912 -0.3257
 3173TIP3   OH231153   3.743   0.247   1.303 -0.3898  0.1757  0.6031
 3173TIP3    H131154   3.834   0.235   1.328 -0.7525 -1.7834  1.1502
 3173TIP3    H231155   3.719   0.332   1.338  1.2108  0.6951  0.4831
 3174TIP3   OH231156   3.901   6.769   1.177  0.5602  0.1835 -0.1689
 3174TIP3    H131157   3.858   6.753   1.092 -0.5990  0.3408  0.3699
 3174TIP3    H231158   3.830   6.763   1.241  1.5526 -0.7167  0.8839
 3175TIP3   OH231159   0.579   1.953   6.899 -0.7602 -0.1545 -0.0817
 3175TIP3    H131160   0.536   2.037   6.917 -0.9877 -0.3512  0.2948
 3175TIP3    H231161   0.508   1.889   6.896 -0.5395 -0.4133  0.1372
 3176TIP3   OH231162   3.329   2.865   1.199  0.0780 -0.0074  0.0466
 3176TIP3    H131163   3.304   2.952   1.168 -1.4893  0.0160  1.2119
 3176TIP3    H231164   3.387   2.881   1.273 -0.8367  0.1013  0.7618
 3177TIP3   OH231165   2.961   3.511   2.642 -0.0558  0.4754 -0.6077
 3177TIP3    H131166   2.950   3.447   2.571 -1.2570 -0.0425  0.0216
 3177TIP3    H231167   3.013   3.464   2.708  0.4343  0.7059 -0.8266
 3178TIP3   OH231168   5.001   0.341   7.460  0.3250  0.0559  0.1945
 3178TIP3    H131169   4.952   0.281   7.517 -0.2246 -3.3693 -3.4548
 3178TIP3    H231170   5.092   0.333   7.489 -0.1752  0.0583  1.8457
 3179TIP3   OH231171   6.750   3.011   0.378  0.2168  0.0679  0.3888
 3179TIP3    H131172   6.814   3.017   0.306  0.1821 -0.0944  0.3436
 3179TIP3    H231173   6.795   2.959   0.444  0.1077 -0.0982  0.3322
 3180TIP3   OH231174   3.787   1.618   7.220  0.1013  0.6174 -0.7136
 3180TIP3    H131175   3.792   1.705   7.260  0.1812  0.0932  0.4535
 3180TIP3    H231176   3.773   1.559   7.293 -0.2841 -0.3274 -1.5331
 3181TIP3   OH231177   5.906   1.508   0.649  1.1206  0.0963  0.1339
 3181TIP3    H131178   5.854   1.452   0.707  1.4261 -0.6653 -0.3096
 3181TIP3    H231179   5.992   1.514   0.691  1.9096 -1.9078 -1.0614
 3182TIP3   OH231180   6.883   2.107   1.759  0.2170 -0.4305  0.8504
 3182TIP3    H131181   6.976   2.091   1.748 -0.0199 -0.6297 -1.4636
 3182TIP3    H231182   6.841   2.024   1.738 -0.5027 -0.1020  0.9345
 3183TIP3   OH231183   6.571   1.182   1.087 -0.0022 -0.1428  0.2598
 3183TIP3    H131184   6.614   1.239   1.150  0.9459 -1.2079  0.5925
 3183TIP3    H231185   6.546   1.104   1.137 -1.5893  0.0913 -0.1131
 3184TIP3   OH231186   6.906   4.015   7.372  0.3437  0.5476 -0.0696
 3184TIP3    H131187   6.971   4.031   7.441  0.0936  0.9783  0.0668
 3184TIP3    H231188   6.839   3.962   7.414  0.2697  0.6743 -0.0302
 3185TIP3   OH231189   3.876   5.412   0.365 -0.4398 -0.6229 -0.2650
 3185TIP3    H131190   3.789   5.397   0.402  0.0059 -0.7355  0.7737
 3185TIP3    H231191   3.864   5.401   0.270 -2.1321  2.0907 -0.4601
 3186TIP3   OH231192   4.396   1.239   2.565 -0.9470  0.2795 -0.1291
 3186TIP3    H131193   4.323   1.230   2.626 -1.0537 -1.4773 -0.4644
 3186TIP3    H231194   4.417   1.333   2.566 -1.2663  0.3828  2.2219
 3187TIP3   OH231195   5.027   2.830   1.906 -0.6579 -0.2657 -0.3481
 3187TIP3    H131196   5.076   2.908   1.931 -0.3157 -0.6226  0.1462
 3187TIP3    H231197   5.033   2.773   1.983 -0.8093 -0.8184 -0.7378
 3188TIP3   OH231198   4.936   6.918   8.089 -0.1628 -0.2750 -0.0435
 3188TIP3    H131199   4.993   6.873   8.026 -0.1609  0.3306 -0.4742
 3188TIP3    H231200   4.932   7.008   8.058  0.3794  0.1984  1.1983
 3189TIP3   OH231201   3.858   2.049   8.345 -0.1911  0.2993 -0.0762
 3189TIP3    H131202   3.921   2.070   8.276  0.5245 -0.0305  0.4631
 3189TIP3    H231203   3.812   1.971   8.312 -0.0246  0.2862 -0.2852
 3190TIP3   OH231204   3.626   4.911   8.572 -0.2375  0.5775  0.0385
 3190TIP3    H131205   3.570   4.835   8.562  1.2549 -0.5324 -0.2018
 3190TIP3    H231206   3.568   4.980   8.603 -1.3961 -0.9678  1.4557
 3191TIP3   OH231207   5.289   3.371   1.521  0.4414  0.0713  0.5739
 3191TIP3    H131208   5.323   3.352   1.609 -1.4152 -0.5356  1.2043
 3191TIP3    H231209   5.194   3.372   1.532  0.1998  0.9090 -1.2650
 3192TIP3   OH231210   4.882   5.137   1.097 -0.0792  0.0111 -0.0722
 3192TIP3    H131211   4.841   5.216   1.133  0.4432 -0.4258  1.5743
 3192TIP3    H231212   4.818   5.068   1.112  0.3213 -0.2561  0.4513
 3193TIP3   OH231213   0.820   1.247   6.744  0.3983  0.2689 -0.2547
 3193TIP3    H131214   0.833   1.207   6.658 -0.1862 -0.0161 -0.2213
 3193TIP3    H231215   0.885   1.316   6.749  2.3358 -1.5012  0.2047
 3194TIP3   OH231216   5.255   1.267   8.133 -0.1847 -0.5910 -0.1464
 3194TIP3    H131217   5.261   1.189   8.077 -0.0585 -0.6141 -0.1009
 3194TIP3    H231218   5.313   1.248   8.207  1.1029  0.2043 -0.9152
 3195TIP3   OH231219   5.945   6.466   0.091 -0.8375 -0.7547 -0.3101
 3195TIP3    H131220   5.873   6.449   0.152  0.2365 -1.8279  0.6961
 3195TIP3    H231221   5.994   6.538   0.131 -0.0780 -1.5231  0.1813
 3196TIP3   OH231222   4.027   5.107   1.363 -0.0084 -0.2123  0.6006
 3196TIP3    H131223   3.972   5.146   1.295  1.3209 -1.5171 -1.3320
 3196TIP3    H231224   4.040   5.178   1.427  2.2013  2.6645 -2.6189
 3197TIP3   OH231225   3.103   4.532   0.704  0.9699  0.3202  0.5213
 3197TIP3    H131226   3.023   4.545   0.755  2.8802  1.7591  3.4983
 3197TIP3    H231227   3.122   4.618   0.667  2.2087  0.6285  1.7484
 3198TIP3   OH231228   2.366   2.707   0.459  0.1183  0.0416  0.2893
 3198TIP3    H131229   2.273   2.692   0.475  0.0088 -0.3394 -0.6310
 3198TIP3    H231230   2.410   2.629   0.492 -0.0556 -0.5043 -0.7203
 3199TIP3   OH231231   4.756   1.019   1.133  0.3286  0.5776 -0.2045
 3199TIP3    H131232   4.789   1.045   1.047 -0.5487  1.1553 -0.3740
 3199TIP3    H231233   4.751   1.101   1.182 -0.1635  0.3955  0.0533
 3200TIP3   OH231234   1.727   3.765   1.225 -0.1855 -0.1390  0.3674
 3200TIP3    H131235   1.663   3.773   1.296 -1.4532  1.3869 -0.8839
 3200TIP3    H231236   1.725   3.673   1.201  0.9153 -0.8902  2.8369
 3201TIP3   OH231237   6.793   1.572   0.995 -0.7596  0.0046 -0.1201
 3201TIP3    H131238   6.812   1.482   0.968 -0.5832  0.1105 -0.3464
 3201TIP3    H231239   6.732   1.562   1.068 -1.9979 -0.2454 -1.1682
 3202TIP3   OH231240   2.419   3.830   1.819 -0.6316  0.8202  0.2149
 3202TIP3    H131241   2.496   3.832   1.877 -0.3480  0.3470 -0.1311
 3202TIP3    H231242   2.353   3.881   1.864 -0.9404 -0.8071  1.7064
 3203TIP3   OH231243   2.660   6.091   0.221  0.0060  0.1409  0.4387
 3203TIP3    H131244   2.612   6.127   0.295  0.5257 -1.6381  1.7056
 3203TIP3    H231245   2.605   6.019   0.190  0.7582 -0.4316  0.4200
 3204TIP3   OH231246   5.706   1.457   2.428 -0.4859  0.1589 -0.0024
 3204TIP3    H131247   5.752   1.538   2.407  1.8397 -0.8017  0.9799
 3204TIP3    H231248   5.678   1.467   2.519 -3.0335  1.0257 -0.8038
 3205TIP3   OH231249   1.773   2.884   0.652  0.0231 -0.4830 -0.0807
 3205TIP3    H131250   1.830   2.878   0.729 -0.6067  0.7087  0.5081
 3205TIP3    H231251   1.697   2.932   0.683 -0.8258 -1.1015 -1.1392
 3206TIP3   OH231252   1.956   6.595   0.934 -0.4087  0.6220 -0.4363
 3206TIP3    H131253   1.934   6.569   0.844  1.2187  0.3768 -0.7995
 3206TIP3    H231254   1.902   6.672   0.951 -4.0375 -1.7949  0.0117
 3207TIP3   OH231255   1.342   3.172   0.622 -0.5810 -0.0337 -0.7543
 3207TIP3    H131256   1.400   3.195   0.694  0.2207 -1.6508 -0.8343
 3207TIP3    H231257   1.364   3.233   0.552  0.3903 -0.0332 -0.4599
 3208TIP3   OH231258   4.952   4.949   0.093 -0.2518 -0.3496 -0.0112
 3208TIP3    H131259   4.859   4.972   0.097 -0.0295  0.7538 -0.8083
 3208TIP3    H231260   4.966   4.922   0.003  0.1186 -0.9316  0.2143
 3209TIP3   OH231261   5.505   3.320   0.255 -0.3551 -0.4079  0.1464
 3209TIP3    H131262   5.527   3.271   0.334 -3.9818 -2.4195  0.1121
 3209TIP3    H231263   5.411   3.336   0.262 -0.1512  2.7664 -2.0446
 3210TIP3   OH231264   2.006   0.436   8.177  0.1965  0.1280 -0.2555
 3210TIP3    H131265   1.944   0.413   8.108 -0.1612  0.8475 -0.1911
 3210TIP3    H231266   1.979   0.524   8.205  0.2819 -0.1822  0.8513
 3211TIP3   OH231267   1.510   2.377   7.714 -0.4753 -0.2945 -0.2583
 3211TIP3    H131268   1.447   2.305   7.719  0.5672 -1.2041  3.6131
 3211TIP3    H231269   1.594   2.337   7.739  0.8503  1.6337 -1.3754
 3212TIP3   OH231270   1.160   4.330   1.608  0.5061 -0.6772  0.5070
 3212TIP3    H131271   1.219   4.352   1.681  1.9418 -0.0555 -0.7847
 3212TIP3    H231272   1.073   4.331   1.647  1.1456  0.5511  2.0339
 3213TIP3   OH231273   1.285   5.720   1.743 -0.5877  0.2967  0.4626
 3213TIP3    H131274   1.380   5.716   1.735 -0.6737  0.7850 -1.2109
 3213TIP3    H231275   1.258   5.631   1.765  0.1630 -0.1581 -0.4123
 3214TIP3   OH231276   3.454   3.086   8.149 -0.2749  0.5366 -0.1751
 3214TIP3    H131277   3.389   3.055   8.211  0.0977 -0.2391 -0.1569
 3214TIP3    H231278   3.470   3.011   8.091 -0.5020  1.1977 -1.1144
 3215TIP3   OH231279   2.673   6.341   0.753 -0.3436  0.2668  0.2178
 3215TIP3    H131280   2.727   6.333   0.674  0.2496  1.3095  0.5009
 3215TIP3    H231281   2.685   6.431   0.782 -2.7874  0.7600 -0.0706
 3216TIP3   OH231282   1.511   5.366   0.193 -0.2467 -0.3452  0.0547
 3216TIP3    H131283   1.417   5.363   0.173 -0.3655  1.1040  0.3044
 3216TIP3    H231284   1.533   5.276   0.215 -1.5794 -0.7183 -0.0271
 3217TIP3   OH231285   6.734   1.933   7.088 -0.0562  0.2470  0.2278
 3217TIP3    H131286   6.642   1.942   7.062  0.0435 -1.7313 -0.9722
 3217TIP3    H231287   6.733   1.952   7.182 -1.6267  0.5636  0.1907
 3218TIP3   OH231288   5.805   2.380   0.836  0.0255 -0.0671 -0.0143
 3218TIP3    H131289   5.882   2.373   0.780  0.1545  1.2390 -0.0306
 3218TIP3    H231290   5.838   2.361   0.924  0.1581 -0.4812 -0.1495
 3219TIP3   OH231291   2.494   6.289   0.043  0.2679 -0.1297  0.0933
 3219TIP3    H131292   2.523   6.324   0.127  1.6432 -0.4906 -0.2109
 3219TIP3    H231293   2.463   6.201   0.063 -0.2451  0.1003  0.3468
 3220TIP3   OH231294   3.737   1.610   1.145  0.0296 -0.3676  0.5772
 3220TIP3    H131295   3.719   1.553   1.220  0.6369 -0.5735  0.5796
 3220TIP3    H231296   3.782   1.686   1.183 -1.3069  0.4030  0.6489
 3221TIP3   OH231297   6.763   2.867   1.484  0.1669  0.3101  0.0320
 3221TIP3    H131298   6.781   2.810   1.410  0.6770  1.2921 -0.6193
 3221TIP3    H231299   6.754   2.807   1.558  1.4461 -0.5673 -0.4854
 3222TIP3   OH231300   5.000   0.319   0.125 -0.4679 -0.4581  0.5391
 3222TIP3    H131301   4.927   0.309   0.186 -1.4443 -1.3507 -0.6995
 3222TIP3    H231302   4.973   0.268   0.048  0.1375  1.6242 -1.1395
 3223TIP3   OH231303   3.095   2.598   8.437 -0.0497  0.4023  0.0610
 3223TIP3    H131304   3.077   2.686   8.404  0.2253  0.6531  0.5761
 3223TIP3    H231305   3.109   2.610   8.531 -0.2988 -0.2307  0.1844
 3224TIP3   OH231306   1.640   0.303   1.345 -0.2102  0.0571  0.2350
 3224TIP3    H131307   1.550   0.333   1.334 -0.0551  0.3742 -0.1979
 3224TIP3    H231308   1.638   0.249   1.425 -1.1587 -1.4248 -0.7282
 3225TIP3   OH231309   0.650   1.423   1.131 -0.1588  0.4698  0.2042
 3225TIP3    H131310   0.608   1.496   1.176  0.6361  1.0885 -0.0312
 3225TIP3    H231311   0.717   1.464   1.076  1.2766 -0.5010  1.1535
 3226TIP3   OH231312   1.748   1.010   1.452 -0.1334  0.4732  0.4542
 3226TIP3    H131313   1.710   1.092   1.485  0.5978  0.3427  1.6901
 3226TIP3    H231314   1.681   0.944   1.471 -0.8140  0.7869 -0.7339
 3227TIP3   OH231315   1.053   6.560   8.346  0.0049  0.0307 -0.1662
 3227TIP3    H131316   1.127   6.503   8.366 -0.0920  0.2918  1.0096
 3227TIP3    H231317   1.079   6.646   8.379 -1.0679 -0.0158  0.8758
 3228TIP3   OH231318   3.474   1.218   2.768 -0.2815 -0.1887  0.4716
 3228TIP3    H131319   3.390   1.216   2.813  1.0369  2.7149  3.6470
 3228TIP3    H231320   3.538   1.225   2.839  2.1151  4.1664 -1.6582
 3229TIP3   OH231321   6.813   6.425   2.354 -0.0069 -0.2835  0.1413
 3229TIP3    H131322   6.742   6.454   2.296  1.0471  1.1058 -0.5154
 3229TIP3    H231323   6.823   6.497   2.416  0.3026 -0.8350  0.7423
 3230TIP3   OH231324   3.683   0.245   0.612  0.2405  0.2627  0.3666
 3230TIP3    H131325   3.684   0.151   0.598 -1.0265  0.0488  1.4590
 3230TIP3    H231326   3.605   0.275   0.565 -0.1641  0.5303  1.1781
 3231TIP3   OH231327   2.339   5.790   2.221 -0.0068 -0.7346 -0.1097
 3231TIP3    H131328   2.295   5.842   2.153 -0.0924  2.5686  2.1981
 3231TIP3    H231329   2.421   5.763   2.181  0.4760  2.0947 -1.3143
 3232TIP3   OH231330   5.221   6.406   7.732 -0.0438  0.3845 -0.3731
 3232TIP3    H131331   5.205   6.473   7.798 -0.5914 -0.2540  0.1648
 3232TIP3    H231332   5.149   6.415   7.671 -0.8802 -0.5696  0.4359
 3233TIP3   OH231333   2.381   0.653   1.540  0.3093  0.0293  0.0880
 3233TIP3    H131334   2.311   0.589   1.531 -0.1498  0.5549 -0.1821
 3233TIP3    H231335   2.405   0.676   1.450  0.6205  0.0804  0.1805
 3234TIP3   OH231336   4.535   6.568   1.582  0.3925 -0.3119 -0.3084
 3234TIP3    H131337   4.451   6.588   1.624 -0.4466 -0.6906 -1.7640
 3234TIP3    H231338   4.550   6.476   1.602  0.2565 -0.3572 -0.4218
 3235TIP3   OH231339   3.078   3.147   2.273  0.3725 -0.1721 -0.3361
 3235TIP3    H131340   3.014   3.125   2.205 -0.8698  0.5122  0.5622
 3235TIP3    H231341   3.048   3.231   2.307  2.2059  0.5437 -0.3819
 3236TIP3   OH231342   6.769   4.151   8.396 -0.8517  0.7701  0.5560
 3236TIP3    H131343   6.733   4.147   8.308 -2.6044 -1.4171  1.2798
 3236TIP3    H231344   6.693   4.146   8.454  0.3761  0.0447  2.1891
 3237TIP3   OH231345   5.722   5.637   2.571  0.4536  0.1018 -0.2130
 3237TIP3    H131346   5.633   5.602   2.575  0.5141 -0.3938 -2.0444
 3237TIP3    H231347   5.751   5.641   2.662 -1.5924  0.7286  0.4563
 3238TIP3   OH231348   3.264   1.055   0.841 -0.0657 -0.0196  0.0306
 3238TIP3    H131349   3.200   0.991   0.872 -1.1188  1.7822  1.7890
 3238TIP3    H231350   3.335   1.050   0.905 -0.3084  0.7641  0.3746
 3239TIP3   OH231351   2.032   2.105   6.940  0.5729 -0.6731  0.0828
 3239TIP3    H131352   2.100   2.157   6.898  0.4050 -0.7143 -0.2406
 3239TIP3    H231353   2.070   2.080   7.024  1.3379 -1.5056 -0.4936
 3240TIP3   OH231354   3.198   2.735   7.434  0.3562 -0.0506  0.1110
 3240TIP3    H131355   3.106   2.733   7.407 -0.2430  0.9168  1.8746
 3240TIP3    H231356   3.208   2.820   7.477  1.8291 -0.5316  0.7622
 3241TIP3   OH231357   2.617   1.074   7.815 -0.3444 -0.1007 -0.2159
 3241TIP3    H131358   2.529   1.038   7.803 -0.0042 -1.2845  0.6213
 3241TIP3    H231359   2.619   1.152   7.761 -2.1099  0.2720  0.2094
 3242TIP3   OH231360   3.708   4.252   0.083  0.1355 -0.6321 -0.2114
 3242TIP3    H131361   3.789   4.300   0.097  1.1079 -2.4033  0.5487
 3242TIP3    H231362   3.726   4.196   0.008 -1.0116  0.2057 -1.1540
 3243TIP3   OH231363   2.417   1.742   8.584 -0.1832 -0.3632  0.3299
 3243TIP3    H131364   2.492   1.792   8.551 -0.5914 -0.2261 -0.4305
 3243TIP3    H231365   2.408   1.769   8.675 -0.8978  1.6362 -0.2718
 3244TIP3   OH231366   6.851   4.807   1.992 -0.2640  0.1562 -0.0885
 3244TIP3    H131367   6.784   4.745   2.022  1.3685 -1.1958  0.9332
 3244TIP3    H231368   6.873   4.859   2.070  0.4314  0.0466 -0.2051
 3245TIP3   OH231369   5.606   2.177   0.718 -0.5756  0.4635 -0.2246
 3245TIP3    H131370   5.664   2.252   0.733  1.9217 -1.2357 -0.7681
 3245TIP3    H231371   5.629   2.147   0.630 -1.8868 -0.6635 -0.2090
 3246TIP3   OH231372   6.103   0.804   2.407  0.3375 -0.1379 -0.4464
 3246TIP3    H131373   6.126   0.892   2.436 -0.4007  0.2842 -1.1014
 3246TIP3    H231374   6.085   0.756   2.488 -0.0194  0.5377 -0.1137
 3247TIP3   OH231375   5.236   3.414   2.230  0.0236  0.0797  0.1885
 3247TIP3    H131376   5.248   3.387   2.321  3.3681  1.1668  0.2238
 3247TIP3    H231377   5.207   3.505   2.236  0.6062  0.2671  0.1779
 3248TIP3   OH231378   5.473   3.335   8.275 -0.1022  0.0758 -0.5487
 3248TIP3    H131379   5.430   3.421   8.277  0.0772  0.1794 -1.0074
 3248TIP3    H231380   5.486   3.313   8.367  0.7273  0.9800 -0.4233
 3249TIP3   OH231381   1.623   1.129   2.477  0.0150  0.7579 -0.1621
 3249TIP3    H131382   1.629   1.082   2.560 -0.4270 -0.2673 -0.6815
 3249TIP3    H231383   1.712   1.158   2.459  0.6655 -1.2780 -0.5763
 3250TIP3   OH231384   5.724   0.154   3.140  0.5944  0.0882 -0.5316
 3250TIP3    H131385   5.761   0.236   3.172  0.2531  0.2039 -0.4228
 3250TIP3    H231386   5.799   0.105   3.106  0.5631  1.2214 -2.3535
 3251TIP3   OH231387   4.266   2.669   8.297  0.2384 -0.0658 -0.3046
 3251TIP3    H131388   4.346   2.721   8.292 -0.7392  1.5818  0.5872
 3251TIP3    H231389   4.288   2.588   8.250  2.4794  0.2415  0.0841
 3252TIP3   OH231390   3.051   2.867   8.424  0.2761 -0.2607 -0.0856
 3252TIP3    H131391   3.066   2.924   8.349 -1.2978  0.3084  0.0039
 3252TIP3    H231392   3.121   2.889   8.485 -0.7439  2.1635  0.2842
 3253TIP3   OH231393   0.519   0.328   1.585  0.9201  0.2598  0.8073
 3253TIP3    H131394   0.559   0.272   1.652  3.1331  0.4726 -0.2347
 3253TIP3    H231395   0.442   0.365   1.628  1.0461 -1.2785  2.5007
 3254TIP3   OH231396   0.317   6.740   2.217 -0.1075 -0.4205  0.2879
 3254TIP3    H131397   0.223   6.742   2.236 -0.1320 -1.9007  0.4497
 3254TIP3    H231398   0.354   6.811   2.269 -1.3347  1.3269 -1.0897
 3255TIP3   OH231399   6.660   5.094   2.491  0.0806 -0.5499 -0.2206
 3255TIP3    H131400   6.737   5.042   2.513 -0.9093 -0.9846  2.6415
 3255TIP3    H231401   6.649   5.153   2.565 -1.4500  0.6170 -1.3057
 3256TIP3   OH231402   0.958   2.042   2.042 -0.3935  0.5264  0.0886
 3256TIP3    H131403   0.985   2.026   2.132  1.8613 -0.7210 -0.7211
 3256TIP3    H231404   0.989   1.965   1.993  0.8346  2.3107 -2.1606
 3257TIP3   OH231405   0.727   4.378   2.227  0.1132  0.0196  0.2488
 3257TIP3    H131406   0.756   4.311   2.288  0.7277  0.8121  0.8405
 3257TIP3    H231407   0.713   4.456   2.281 -1.1066  0.2260 -0.3478
 3258TIP3   OH231408   1.523   0.039   2.004 -0.1628  0.3493 -0.1011
 3258TIP3    H131409   1.474   0.042   1.922 -0.0959  1.7278 -0.1183
 3258TIP3    H231410   1.482   0.106   2.059 -0.2949 -0.6372  1.0535
 3259TIP3   OH231411   3.991   0.992   0.613  0.3797 -0.3854  0.5904
 3259TIP3    H131412   3.925   1.038   0.665 -0.0388  0.8528 -0.9833
 3259TIP3    H231413   4.074   1.010   0.658 -0.1663 -0.7987  1.7939
 3260TIP3   OH231414   5.141   3.357   1.981 -0.6712  0.2514 -0.1733
 3260TIP3    H131415   5.061   3.342   2.031 -0.5534  0.6610  0.1379
 3260TIP3    H231416   5.208   3.372   2.047 -0.3220 -0.1529 -0.4295
 3261TIP3   OH231417   1.462   3.767   7.352  0.3009  0.2997 -0.3333
 3261TIP3    H131418   1.400   3.790   7.422  0.4414  1.1136 -0.4628
 3261TIP3    H231419   1.510   3.692   7.386  1.6065  1.7524  1.2429
 3262TIP3   OH231420   4.638   2.765   7.889  0.5342  0.7646  0.7994
 3262TIP3    H131421   4.722   2.799   7.921  0.8147  0.5704  0.2840
 3262TIP3    H231422   4.582   2.843   7.884  0.1717  0.6673  2.6445
 3263TIP3   OH231423   5.139   5.423   1.193 -0.0189  0.4047 -0.7503
 3263TIP3    H131424   5.168   5.411   1.103 -0.7294  0.2290 -0.9581
 3263TIP3    H231425   5.162   5.342   1.238  0.3521  0.5000 -0.7658
 3264TIP3   OH231426   0.771   1.479   0.457 -0.1792 -0.2521  0.7048
 3264TIP3    H131427   0.852   1.441   0.423 -0.4296 -0.1445 -0.0294
 3264TIP3    H231428   0.707   1.466   0.387 -0.4659  0.8325  0.7459
 3265TIP3   OH231429   0.237   1.868   0.139  0.1943  0.6537 -0.0568
 3265TIP3    H131430   0.193   1.897   0.059 -0.8315  0.5070  0.4381
 3265TIP3    H231431   0.166   1.836   0.195  1.0461 -0.7237  0.2955
 3266TIP3   OH231432   1.139   1.499   2.178 -0.2708  0.3223 -0.2482
 3266TIP3    H131433   1.136   1.513   2.272 -0.2418 -2.4727  0.2749
 3266TIP3    H231434   1.048   1.484   2.153 -0.1399 -0.2454 -0.3978
 3267TIP3   OH231435   1.911   1.731   7.550  0.3900  0.1377 -0.4428
 3267TIP3    H131436   1.838   1.678   7.581  0.3829 -0.1979 -1.0051
 3267TIP3    H231437   1.981   1.714   7.612  0.4123 -0.6102 -0.6532
 3268TIP3   OH231438   4.545   6.762   0.747  0.2501  0.4453  0.1724
 3268TIP3    H131439   4.595   6.718   0.816  1.0174  0.8241 -0.1306
 3268TIP3    H231440   4.567   6.713   0.667 -1.8778 -1.0122  0.3995
 3269TIP3   OH231441   5.083   5.704   2.329  0.3984 -0.2101  0.2335
 3269TIP3    H131442   5.002   5.731   2.372  0.2994 -1.2333  0.7279
 3269TIP3    H231443   5.062   5.619   2.290  1.5506 -1.0717  1.3814
 3270TIP3   OH231444   3.403   6.118   6.867  0.2389  1.1219 -0.0418
 3270TIP3    H131445   3.319   6.073   6.856  0.7779  0.0558  0.0240
 3270TIP3    H231446   3.432   6.094   6.955 -1.0495  4.4378  1.4349
 3271TIP3   OH231447   3.133   6.394   8.468 -0.3758  0.5029  1.1248
 3271TIP3    H131448   3.067   6.326   8.455  0.7166 -0.5678  1.0703
 3271TIP3    H231449   3.162   6.416   8.379  0.7808 -0.5021  1.2282
 3272TIP3   OH231450   6.354   3.224   0.652  0.0882 -0.2805  0.2303
 3272TIP3    H131451   6.396   3.161   0.592 -1.8399  0.1418 -1.6646
 3272TIP3    H231452   6.298   3.170   0.707  0.6307 -0.4951  0.5860
 3273TIP3   OH231453   6.883   1.816   7.751 -0.4317  0.9730 -0.4698
 3273TIP3    H131454   6.845   1.901   7.773 -1.3721  0.5590 -0.4624
 3273TIP3    H231455   6.945   1.835   7.681 -0.9604  1.6021 -0.7728
 3274TIP3   OH231456   3.565   0.366   1.524 -0.0832  0.1853 -0.5446
 3274TIP3    H131457   3.557   0.271   1.521 -1.9351  0.3134 -0.7097
 3274TIP3    H231458   3.636   0.382   1.586  0.4721 -1.2924 -0.7532
 3275TIP3   OH231459   3.848   1.461   1.584  0.6033  0.1522  0.0781
 3275TIP3    H131460   3.859   1.553   1.606  0.7859 -0.3090  2.1273
 3275TIP3    H231461   3.900   1.414   1.649  1.7176 -1.3818 -1.7995
 3276TIP3   OH231462   5.433   4.774   0.822 -0.6433 -0.0306 -0.5706
 3276TIP3    H131463   5.452   4.685   0.853  1.1637  0.2116 -0.8848
 3276TIP3    H231464   5.339   4.784   0.834 -0.7034 -1.5868  0.5337
 3277TIP3   OH231465   6.813   5.909   2.460  0.0803  0.6407 -0.4304
 3277TIP3    H131466   6.787   5.939   2.548  0.8433 -0.7716  0.3051
 3277TIP3    H231467   6.785   5.980   2.402 -0.3958  1.6360  0.9524
 3278TIP3   OH231468   2.671   4.767   8.440  0.3052  0.4296  0.1053
 3278TIP3    H131469   2.642   4.677   8.453 -0.1619  0.6954  1.0630
 3278TIP3    H231470   2.758   4.770   8.479  0.8468  0.1001 -1.0458
 3279TIP3   OH231471   0.534   3.997   0.304 -0.1542  0.6750  0.4932
 3279TIP3    H131472   0.610   4.033   0.260  0.1631  0.8266  1.1514
 3279TIP3    H231473   0.464   3.999   0.238  0.6242 -0.3086 -0.4013
 3280TIP3   OH231474   4.392   6.462   7.215 -0.4458  0.3099  0.3939
 3280TIP3    H131475   4.330   6.483   7.145  0.0803 -1.1783 -0.5678
 3280TIP3    H231476   4.446   6.392   7.179 -0.3897 -0.7583  2.4143
 3281TIP3   OH231477   2.685   6.899   0.678 -0.3505 -0.3325  0.6452
 3281TIP3    H131478   2.649   6.899   0.589 -0.0893  0.7742  0.5223
 3281TIP3    H231479   2.695   6.992   0.700  3.5352 -0.4808  0.2199
 3282TIP3   OH231480   4.936   6.158   7.489 -0.0512 -0.2708  0.3561
 3282TIP3    H131481   4.899   6.190   7.571 -0.5559  0.2643 -0.0681
 3282TIP3    H231482   4.905   6.220   7.423  0.9090 -0.3056 -0.1414
 3283TIP3   OH231483   2.179   2.453   8.116 -0.4082 -0.5542 -0.2931
 3283TIP3    H131484   2.213   2.502   8.191 -1.7942  0.1943 -0.1174
 3283TIP3    H231485   2.136   2.519   8.062 -0.5879 -1.2973 -1.0733
 3284TIP3   OH231486   1.131   5.366   7.678  0.7301 -0.3580 -0.3064
 3284TIP3    H131487   1.086   5.341   7.597  0.6729 -0.2270 -0.3161
 3284TIP3    H231488   1.101   5.303   7.743 -0.7059  0.6785  0.0767
 3285TIP3   OH231489   5.589   4.577   1.978 -0.5348 -0.4449 -0.2420
 3285TIP3    H131490   5.537   4.602   2.054  1.5983  0.3857  1.0124
 3285TIP3    H231491   5.655   4.646   1.970  2.1861 -2.8605  0.0019
 3286TIP3   OH231492   4.667   2.513   7.469  0.0919 -0.5335  0.2949
 3286TIP3    H131493   4.603   2.577   7.438  2.6189  2.3816  0.5608
 3286TIP3    H231494   4.742   2.524   7.410  1.0586 -2.5195  1.0634
 3287TIP3   OH231495   5.955   5.909   0.910 -0.8057  0.0753  0.2794
 3287TIP3    H131496   5.974   5.820   0.879 -0.0873  0.3304 -0.0310
 3287TIP3    H231497   5.873   5.933   0.866 -0.0863  0.2306 -1.0262
 3288TIP3   OH231498   1.585   0.995   1.919 -0.8194 -0.3442  0.1826
 3288TIP3    H131499   1.523   0.964   1.852  1.0709 -1.0322 -1.3660
 3288TIP3    H231500   1.581   0.929   1.988 -2.4570  0.1242  0.5812
 3289TIP3   OH231501   0.266   4.492   2.328 -0.2042 -0.0306  0.1266
 3289TIP3    H131502   0.291   4.579   2.299 -0.8197  1.1589  2.8561
 3289TIP3    H231503   0.348   4.451   2.354 -0.1265  0.5233  0.7679
 3290TIP3   OH231504   6.873   0.176   7.013 -0.1061  0.5536  0.1717
 3290TIP3    H131505   6.917   0.091   7.022  0.3849  0.5521 -1.7495
 3290TIP3    H231506   6.822   0.168   6.933  1.1816  2.5501 -0.9342
 3291TIP3   OH231507   5.439   4.855   6.532  0.0736  0.0916 -0.0941
 3291TIP3    H131508   5.465   4.800   6.605  1.1753 -1.0534 -1.3029
 3291TIP3    H231509   5.345   4.837   6.520 -0.0236 -0.0038  0.7662
 3292TIP3   OH231510   3.724   0.444   8.052 -0.5198  0.0523 -0.1391
 3292TIP3    H131511   3.809   0.468   8.015 -0.0322 -1.6759 -0.1981
 3292TIP3    H231512   3.736   0.450   8.146 -0.7095  0.9621 -0.1592
 3293TIP3   OH231513   2.362   5.935   1.108 -0.1156 -1.0886  0.0298
 3293TIP3    H131514   2.450   5.965   1.132 -0.0132 -0.7483 -0.7572
 3293TIP3    H231515   2.368   5.839   1.110 -0.0819 -1.0802  1.2287
 3294TIP3   OH231516   0.208   4.671   0.131  0.2285 -0.2739 -0.2620
 3294TIP3    H131517   0.298   4.640   0.136  0.2458 -0.2272 -0.2896
 3294TIP3    H231518   0.207   4.752   0.182  0.4178  0.2318 -1.0441
 3295TIP3   OH231519   5.708   4.635   0.039 -0.1599  0.3314  0.3695
 3295TIP3    H131520   5.715   4.577  -0.037 -0.2322  1.8504 -0.8307
 3295TIP3    H231521   5.673   4.579   0.108  2.3924 -1.7743  0.1058
 3296TIP3   OH231522   3.008   2.777   0.894 -0.0205  0.0747  0.0010
 3296TIP3    H131523   3.058   2.744   0.969  0.0007  1.2076  0.5142
 3296TIP3    H231524   2.935   2.824   0.933 -0.9267 -0.6909 -0.7341
 3297TIP3   OH231525   6.798   4.885   7.457  0.4646  0.5462 -0.1649
 3297TIP3    H131526   6.865   4.928   7.510  0.0818  1.5612 -0.4853
 3297TIP3    H231527   6.846   4.819   7.406  0.9855  0.2544  0.6828
 3298TIP3   OH231528   5.506   1.553   7.715  0.0583  0.0697 -0.0388
 3298TIP3    H131529   5.443   1.623   7.698 -0.7012 -0.0657  1.9249
 3298TIP3    H231530   5.547   1.536   7.630 -1.8862  0.8029 -1.1949
 3299TIP3   OH231531   0.323   5.677   1.012  0.2073 -0.3698  0.7767
 3299TIP3    H131532   0.277   5.676   1.096  0.2592 -0.6315  0.8026
 3299TIP3    H231533   0.263   5.633   0.952 -1.2396  2.5154 -0.0804
 3300TIP3   OH231534   0.335   6.594   6.502 -0.1955 -0.2030  0.1508
 3300TIP3    H131535   0.256   6.540   6.506 -0.0299 -0.4345  0.3227
 3300TIP3    H231536   0.404   6.539   6.540  0.5538 -0.9186 -2.0718
 3301TIP3   OH231537   6.522   3.647   2.523 -0.2939 -0.3509  0.1380
 3301TIP3    H131538   6.588   3.690   2.578  1.0035 -0.2102 -1.4412
 3301TIP3    H231539   6.450   3.709   2.518 -0.2041 -0.1488  1.2330
 3302TIP3   OH231540   5.123   0.210   6.948 -0.1443  0.0800 -0.3300
 3302TIP3    H131541   5.191   0.194   7.014  0.8528  0.5271 -1.2291
 3302TIP3    H231542   5.167   0.259   6.879 -1.6776  1.4221 -0.4036
 3303TIP3   OH231543   3.079   1.076   0.654  0.5638  0.0262  0.2494
 3303TIP3    H131544   3.153   1.079   0.715 -0.0651 -0.6659  1.0611
 3303TIP3    H231545   3.055   0.984   0.650 -0.3017  0.2492  0.0517
 3304TIP3   OH231546   4.060   2.764   7.838  0.4001 -0.3818 -0.3309
 3304TIP3    H131547   4.064   2.830   7.769  0.0094 -1.6476 -1.6205
 3304TIP3    H231548   4.136   2.782   7.894 -0.9382  2.5486  0.7379
 3305TIP3   OH231549   1.313   1.279   2.039  0.1694 -0.0623 -0.7727
 3305TIP3    H131550   1.317   1.344   2.110  1.5921 -0.6800 -0.2310
 3305TIP3    H231551   1.357   1.321   1.965 -2.2294  0.9840 -1.7021
 3306TIP3   OH231552   6.590   5.087   0.340 -0.0774  0.0325 -0.1311
 3306TIP3    H131553   6.574   5.178   0.367  0.7075  0.1402 -0.0062
 3306TIP3    H231554   6.526   5.036   0.390  0.3217  0.3898  0.7773
 3307TIP3   OH231555   4.873   4.180   8.507  0.0391  0.4265  0.8454
 3307TIP3    H131556   4.925   4.257   8.482  0.6449  0.1085  1.1060
 3307TIP3    H231557   4.918   4.106   8.467 -0.8722  0.2549  0.1103
 3308TIP3   OH231558   3.171   1.535   3.309 -0.1466  0.1488 -0.2250
 3308TIP3    H131559   3.179   1.481   3.230  1.9183 -1.8073  1.1763
 3308TIP3    H231560   3.184   1.625   3.279  1.9720 -0.6562 -1.9716
 3309TIP3   OH231561   4.606   6.603   2.281 -0.9272 -0.3852 -0.1540
 3309TIP3    H131562   4.566   6.673   2.333 -0.4138  0.6130 -1.0704
 3309TIP3    H231563   4.681   6.575   2.333 -1.7176 -0.9883  0.7000
 3310TIP3   OH231564   4.911   2.672   0.069  1.2289  0.0024  0.3203
 3310TIP3    H131565   4.885   2.590   0.028 -0.1206 -0.1671  1.4712
 3310TIP3    H231566   4.949   2.647   0.153  2.5219  0.4563 -0.1020
 3311TIP3   OH231567   5.237   4.900   2.649 -0.3270  0.2969  0.2058
 3311TIP3    H131568   5.224   4.906   2.744 -0.6426 -0.4167  0.2088
 3311TIP3    H231569   5.331   4.883   2.639 -0.1547  1.1283  0.3553
 3312TIP3   OH231570   3.913   6.335   2.085  0.2325  0.3460 -0.0190
 3312TIP3    H131571   3.843   6.362   2.026 -2.0191 -0.2908  2.2077
 3312TIP3    H231572   3.944   6.417   2.124 -0.6685  0.4678  0.4547
 3313TIP3   OH231573   6.113   3.466   3.181  0.3199 -0.0735  0.2068
 3313TIP3    H131574   6.022   3.459   3.154  0.0187 -0.8819  1.3461
 3313TIP3    H231575   6.152   3.529   3.120 -0.5840 -0.9273 -1.3020
 3314TIP3   OH231576   4.305   1.785   1.493 -0.4575  0.0415 -0.1124
 3314TIP3    H131577   4.400   1.782   1.482 -0.4155 -0.0518  0.2490
 3314TIP3    H231578   4.289   1.866   1.541 -0.8135  1.4291 -2.4540
 3315TIP3   OH231579   4.664   5.958   8.167 -0.0283 -0.1675 -0.3674
 3315TIP3    H131580   4.717   5.908   8.105  1.7912 -0.1087  1.0486
 3315TIP3    H231581   4.684   5.920   8.252 -0.0117  1.7413  0.5362
 3316TIP3   OH231582   0.498   3.230   2.017 -0.0542 -0.7019  0.2158
 3316TIP3    H131583   0.573   3.180   2.048  0.9144 -0.0523 -0.9416
 3316TIP3    H231584   0.466   3.182   1.940  0.5311  0.1065 -0.5632
 3317TIP3   OH231585   3.465   0.813   2.023 -0.2748  0.1215  0.1719
 3317TIP3    H131586   3.403   0.740   2.027 -1.5924  1.0459 -1.8190
 3317TIP3    H231587   3.468   0.846   2.113  0.8968 -2.7242  1.2957
 3318TIP3   OH231588   1.611   4.187   0.068  0.1090  0.5094  0.5652
 3318TIP3    H131589   1.647   4.109   0.111  1.4992  0.5824 -0.3886
 3318TIP3    H231590   1.542   4.154   0.011  1.7231 -0.2846 -1.0150
 3319TIP3   OH231591   4.971   6.716   1.155  0.1936  0.4044 -0.2366
 3319TIP3    H131592   4.946   6.776   1.225  0.3796  0.2095  0.0001
 3319TIP3    H231593   4.990   6.633   1.200  1.0120  0.4775 -0.4272
 3320TIP3   OH231594   3.268   4.753   2.662 -0.3890 -0.1431  0.2208
 3320TIP3    H131595   3.236   4.814   2.729  1.3038  1.9164 -0.7063
 3320TIP3    H231596   3.303   4.679   2.712 -2.4666 -0.4003  1.3946
 3321TIP3   OH231597   2.248   1.869   2.435  0.6995  0.2957 -0.5939
 3321TIP3    H131598   2.270   1.777   2.453 -0.0396  0.3888  0.9082
 3321TIP3    H231599   2.262   1.878   2.340 -0.5913 -1.7794 -1.0776
 3322TIP3   OH231600   4.113   4.880   1.225  0.1397 -0.0590  0.3696
 3322TIP3    H131601   4.098   4.962   1.273 -0.0041 -0.1597  0.4983
 3322TIP3    H231602   4.196   4.893   1.181 -0.1486  0.3746 -0.0567
 3323TIP3   OH231603   3.954   0.892   8.231  0.6169  0.0184 -0.0928
 3323TIP3    H131604   4.009   0.860   8.303  0.1720 -3.2047 -1.0190
 3323TIP3    H231605   4.011   0.889   8.154 -0.4027 -2.1397 -0.8331
 3324TIP3   OH231606   0.736   1.174   0.436  0.3097 -0.0508 -0.6289
 3324TIP3    H131607   0.688   1.252   0.407 -3.5142 -2.1332 -0.4900
 3324TIP3    H231608   0.703   1.158   0.525  2.1481 -1.0120 -0.0772
 3325TIP3   OH231609   0.061   2.148   1.225  0.3102 -0.0764  0.1211
 3325TIP3    H131610   0.074   2.218   1.288  0.1506  1.0751 -1.0853
 3325TIP3    H231611   0.106   2.178   1.146 -2.5522  0.2866 -1.5201
 3326TIP3   OH231612   2.510   1.684   1.852  0.1736  0.0415  0.4607
 3326TIP3    H131613   2.479   1.594   1.849  0.5616 -0.0799 -1.4508
 3326TIP3    H231614   2.587   1.685   1.795 -1.6224  2.1971 -2.1988
 3327TIP3   OH231615   2.616   2.690   2.518  0.0805  0.2478  0.1645
 3327TIP3    H131616   2.656   2.720   2.436  0.8816  1.3252  0.9259
 3327TIP3    H231617   2.681   2.632   2.557 -0.3986 -0.4547 -0.0578
 3328TIP3   OH231618   0.285   4.299   0.816  0.6205 -0.2723  0.1012
 3328TIP3    H131619   0.330   4.383   0.811 -0.7150  0.4164 -1.1919
 3328TIP3    H231620   0.350   4.239   0.852  1.6406  1.2700  0.9655
 3329TIP3   OH231621   6.275   5.842   8.576 -0.3216 -0.0413  0.4688
 3329TIP3    H131622   6.259   5.932   8.606  2.3727  0.1437  1.7278
 3329TIP3    H231623   6.285   5.791   8.657 -1.1969 -1.3776 -0.2309
 3330TIP3   OH231624   2.767   1.073   0.439 -0.7268 -0.1664  0.1882
 3330TIP3    H131625   2.851   1.063   0.484 -0.5579  0.3552 -0.0101
 3330TIP3    H231626   2.723   1.145   0.484 -1.0907 -0.4605  0.3164
 3331TIP3   OH231627   6.678   4.816   1.504 -0.2021  0.2916  0.6382
 3331TIP3    H131628   6.753   4.781   1.455 -0.9854  1.3577 -1.4333
 3331TIP3    H231629   6.655   4.897   1.459 -1.9102  0.5724  1.9056
 3332TIP3   OH231630   3.205   4.276   0.191 -0.5600  0.0448  0.0821
 3332TIP3    H131631   3.232   4.305   0.104 -0.9346  1.1589  0.3177
 3332TIP3    H231632   3.215   4.354   0.246 -1.1198 -0.4189  0.8610
 3333TIP3   OH231633   3.231   4.323   3.340  0.1984 -0.0271  0.1024
 3333TIP3    H131634   3.177   4.401   3.350 -0.1413 -0.3345  0.7539
 3333TIP3    H231635   3.299   4.332   3.407  0.3135 -0.1671  0.0066
 3334TIP3   OH231636   1.081   5.872   1.414 -0.1491 -0.6236 -0.1061
 3334TIP3    H131637   1.116   5.960   1.431  1.0597 -1.1054 -0.0631
 3334TIP3    H231638   1.080   5.866   1.318 -0.0277 -0.6507 -0.1053
 3335TIP3   OH231639   3.359   6.133   8.485 -0.3883  0.8890 -0.0906
 3335TIP3    H131640   3.384   6.158   8.574  1.2233  0.1934 -0.3234
 3335TIP3    H231641   3.263   6.138   8.486 -0.5671 -1.0369  2.2788
 3336TIP3   OH231642   2.644   3.911   0.222 -0.3522  0.1834 -0.2083
 3336TIP3    H131643   2.725   3.888   0.176  0.2381 -1.3617  1.4569
 3336TIP3    H231644   2.672   3.924   0.313 -1.5107  2.8971 -0.1690
 3337TIP3   OH231645   3.198   4.554   8.393  0.5428 -0.1789  0.0539
 3337TIP3    H131646   3.113   4.590   8.367 -0.2254 -1.0666  1.1723
 3337TIP3    H231647   3.218   4.598   8.475  1.2247  0.0989 -0.2587
 3338TIP3   OH231648   6.866   1.311   0.961  0.6722 -0.0972 -0.4140
 3338TIP3    H131649   6.864   1.233   0.905  0.6198  0.9976 -1.9932
 3338TIP3    H231650   6.900   1.280   1.045 -0.9021 -2.1463 -0.4607
 3339TIP3   OH231651   0.005   0.981   0.348 -0.1016 -0.2868  0.5951
 3339TIP3    H131652  -0.083   0.977   0.310 -0.6717 -0.4225  1.8779
 3339TIP3    H231653  -0.002   1.046   0.418  0.1084 -2.0854  2.3974
 3340TIP3   OH231654   2.162   1.156   7.712  0.1096 -0.1463  0.3741
 3340TIP3    H131655   2.167   1.245   7.679 -1.4900 -0.3708 -0.5752
 3340TIP3    H231656   2.070   1.142   7.731  0.5628 -1.0559  2.1547
 3341TIP3   OH231657   6.609   0.221   2.175  0.1232  0.4858  0.6842
 3341TIP3    H131658   6.550   0.258   2.241 -3.0376  1.3951 -2.3511
 3341TIP3    H231659   6.588   0.268   2.095 -0.1717 -3.9722 -2.2269
 3342TIP3   OH231660   4.889   0.161   2.560 -0.2396 -0.2609 -0.4439
 3342TIP3    H131661   4.885   0.067   2.541  1.4233 -0.9542  2.0444
 3342TIP3    H231662   4.846   0.170   2.645  0.1697  1.1222 -0.3599
 3343TIP3   OH231663   2.902   0.920   1.549  0.4994  0.1921  0.1824
 3343TIP3    H131664   2.985   0.948   1.510  0.2117 -0.7644 -1.1874
 3343TIP3    H231665   2.919   0.833   1.584  0.4676  0.6165  1.2783
 3344TIP3   OH231666   3.741   0.410   0.133 -0.2554  0.1595 -0.0183
 3344TIP3    H131667   3.786   0.447   0.057 -1.1725  1.7793  0.1861
 3344TIP3    H231668   3.734   0.317   0.113  0.2034  0.4283 -1.5714
 3345TIP3   OH231669   1.596   1.415   6.924 -0.8649  0.1613  0.5544
 3345TIP3    H131670   1.503   1.390   6.922 -1.2805  1.6685  0.0257
 3345TIP3    H231671   1.595   1.510   6.919  0.7710  0.1378 -1.0591
 3346TIP3   OH231672   0.087   0.708   6.520 -0.1918  0.0843 -0.0942
 3346TIP3    H131673   0.178   0.693   6.494 -0.1767  1.7622 -1.1447
 3346TIP3    H231674   0.040   0.630   6.491  1.1718 -1.7396  2.2210
 3347TIP3   OH231675   2.964   0.420   1.656  0.3844  0.4274  0.3795
 3347TIP3    H131676   2.964   0.501   1.604  0.4044 -0.1807 -0.5791
 3347TIP3    H231677   2.875   0.386   1.646  1.0816 -1.0111 -1.3693
 3348TIP3   OH231678   1.590   6.042   0.483 -0.0534  0.8682 -0.0955
 3348TIP3    H131679   1.500   6.069   0.464 -0.8291 -1.3980  0.0828
 3348TIP3    H231680   1.604   6.068   0.574 -0.4182  1.4551 -0.1985
 3349TIP3   OH231681   4.278   4.133   3.027 -0.0790  0.2119 -0.2130
 3349TIP3    H131682   4.280   4.204   2.963  0.6630  2.9225  2.5612
 3349TIP3    H231683   4.369   4.109   3.039  0.1936  2.0100  1.9938
 3350TIP3   OH231684   3.272   4.425   1.152 -0.2490  0.0423 -0.1628
 3350TIP3    H131685   3.280   4.451   1.060  0.7159 -1.9430 -0.6917
 3350TIP3    H231686   3.330   4.349   1.161  1.2624  1.3928  2.6043
 3351TIP3   OH231687   5.822   0.109   1.608  0.2928 -0.0660  0.7541
 3351TIP3    H131688   5.865   0.090   1.525 -0.9876 -0.2241  0.1027
 3351TIP3    H231689   5.789   0.024   1.638 -0.7329  0.2431  0.5479
 3352TIP3   OH231690   4.373   5.143   2.126  0.1838  0.3315 -0.1939
 3352TIP3    H131691   4.439   5.090   2.171  0.7402  0.3545 -0.9702
 3352TIP3    H231692   4.317   5.078   2.082  0.4865  0.3650 -0.6275
 3353TIP3   OH231693   5.290   1.189   1.124 -0.5233 -0.1739  0.3523
 3353TIP3    H131694   5.227   1.148   1.064 -1.0619  0.1684  0.6799
 3353TIP3    H231695   5.241   1.260   1.166 -0.8505 -1.7934  2.8894
 3354TIP3   OH231696   6.201   0.804   7.456 -0.1018  0.3075 -0.4779
 3354TIP3    H131697   6.287   0.846   7.455  0.2146 -0.2633  0.8327
 3354TIP3    H231698   6.147   0.859   7.399  0.5353  1.9893  0.4694
 3355TIP3   OH231699   4.216   0.303   7.709  0.3732 -0.2329 -0.3787
 3355TIP3    H131700   4.277   0.301   7.635  0.3602 -1.2473 -0.3667
 3355TIP3    H231701   4.168   0.221   7.704  0.0100 -0.0876  0.4632
 3356TIP3   OH231702   4.362   0.910   0.201  0.1109 -0.6550 -0.2734
 3356TIP3    H131703   4.306   0.837   0.173  0.3347 -0.8603 -0.1861
 3356TIP3    H231704   4.345   0.918   0.295 -0.1048 -0.4261 -0.3292
 3357TIP3   OH231705   6.893   1.590   7.114  0.1836 -0.2225  0.0911
 3357TIP3    H131706   6.867   1.645   7.040  1.2790 -0.3616 -0.4186
 3357TIP3    H231707   6.988   1.602   7.121  0.3108 -1.3419  0.5415
 3358TIP3   OH231708   0.316   2.994   1.486 -0.7313  0.3921 -0.6689
 3358TIP3    H131709   0.398   2.987   1.536 -1.0726 -0.3921 -0.1907
 3358TIP3    H231710   0.287   3.084   1.498  1.2552  1.4005 -2.7664
 3359TIP3   OH231711   1.730   2.635   8.248  0.4485  0.9072  0.4119
 3359TIP3    H131712   1.653   2.654   8.302 -0.2337  1.2704 -0.6575
 3359TIP3    H231713   1.744   2.715   8.197  1.8683  1.0446  0.9592
 3360TIP3   OH231714   5.333   5.431   1.587  0.2078 -0.2676 -0.2333
 3360TIP3    H131715   5.423   5.400   1.572  0.6364  1.2729 -1.0814
 3360TIP3    H231716   5.329   5.514   1.540 -1.1532  0.5225  1.2057
 3361TIP3   OH231717   2.141   3.131   1.597  0.0955 -0.4179  0.2957
 3361TIP3    H131718   2.049   3.158   1.594 -0.2890 -1.0817  3.2107
 3361TIP3    H231719   2.190   3.214   1.601 -0.5077 -0.0662  0.5113
 3362TIP3   OH231720   6.759   5.520   8.427  0.7005 -0.1364  0.3167
 3362TIP3    H131721   6.831   5.485   8.374  0.5694 -0.8659  0.6071
 3362TIP3    H231722   6.793   5.603   8.460  0.6758  0.4677 -1.1257
 3363TIP3   OH231723   2.565   6.305   7.272  0.1160  0.8348 -0.4560
 3363TIP3    H131724   2.480   6.327   7.235  0.6770  1.9409 -1.1619
 3363TIP3    H231725   2.615   6.387   7.266  1.1170  0.2911  0.2408
 3364TIP3   OH231726   4.505   1.188   0.344 -0.0797  1.3129  0.3938
 3364TIP3    H131727   4.563   1.148   0.279 -0.5236 -1.5371  1.6468
 3364TIP3    H231728   4.563   1.247   0.393  1.2519  0.2636  0.1567
 3365TIP3   OH231729   6.524   4.418   7.326 -0.0766  0.0147  0.2922
 3365TIP3    H131730   6.597   4.356   7.332 -0.5482 -0.4266  2.0629
 3365TIP3    H231731   6.446   4.364   7.319 -0.3939  0.4382  0.4748
 3366TIP3   OH231732   3.358   0.294   0.051 -0.0736  0.4215 -0.2268
 3366TIP3    H131733   3.286   0.239   0.022 -0.5346  0.1339  1.3826
 3366TIP3    H231734   3.437   0.243   0.030 -0.4152 -0.0571 -0.3620
 3367TIP3   OH231735   0.192   1.363   8.022 -0.2693 -0.5817  0.8146
 3367TIP3    H131736   0.273   1.414   8.019 -0.7762  0.2851  1.5989
 3367TIP3    H231737   0.220   1.274   8.000  0.2497  0.3685 -3.1651
 3368TIP3   OH231738   1.922   2.329   7.920 -0.1184  0.8335 -0.6232
 3368TIP3    H131739   2.015   2.305   7.914 -1.0230 -3.1773 -1.6975
 3368TIP3    H231740   1.906   2.338   8.014  0.9729 -0.5912 -0.2521
 3369TIP3   OH231741   0.242   1.548   7.731  0.4452  0.0952 -0.0903
 3369TIP3    H131742   0.244   1.580   7.821  0.4553 -1.1650  0.3809
 3369TIP3    H231743   0.150   1.525   7.716  0.0019  2.2977 -1.1745
 3370TIP3   OH231744   0.601   6.262   7.163  0.6378 -0.3533 -0.2571
 3370TIP3    H131745   0.554   6.234   7.085  0.0097  1.0835 -0.4247
 3370TIP3    H231746   0.535   6.304   7.218  0.8608 -2.1729  1.5250
 3371TIP3   OH231747   1.330   2.081   0.246 -0.1928 -0.4609  0.2202
 3371TIP3    H131748   1.423   2.079   0.225  0.3698 -1.7998  2.5030
 3371TIP3    H231749   1.294   2.152   0.193  2.7295  2.3396  1.6760
 3372TIP3   OH231750   5.743   4.401   1.425 -0.9918  0.2609 -0.3405
 3372TIP3    H131751   5.649   4.419   1.418 -0.8791  1.3550  0.6430
 3372TIP3    H231752   5.785   4.482   1.397 -0.3666  0.1067  0.1255
 3373TIP3   OH231753   4.778   5.261   0.750 -0.3976  0.2901 -0.5498
 3373TIP3    H131754   4.823   5.230   0.672 -1.0784 -0.2967 -0.7190
 3373TIP3    H231755   4.723   5.333   0.720 -2.0352 -1.1008 -0.9757
 3374TIP3   OH231756   1.033   1.452   0.306 -0.2262  0.0765  0.3062
 3374TIP3    H131757   1.028   1.370   0.257  2.0602 -0.5917  1.0519
 3374TIP3    H231758   0.980   1.513   0.256 -0.8079 -1.4715 -1.0670
 3375TIP3   OH231759   2.336   5.406   0.426 -0.4570  0.0254  0.3134
 3375TIP3    H131760   2.272   5.345   0.462 -0.1662 -1.6801 -1.8443
 3375TIP3    H231761   2.290   5.452   0.356  0.7229 -1.6355 -1.6576
 3376TIP3   OH231762   2.550   1.201   1.716  0.2579 -0.4423  0.2411
 3376TIP3    H131763   2.533   1.131   1.653 -0.1723 -0.2449  0.1340
 3376TIP3    H231764   2.645   1.211   1.716  0.1950  1.5394 -2.6033
 3377TIP3   OH231765   0.001   3.079   3.069  0.1683  0.0725 -0.1012
 3377TIP3    H131766  -0.052   3.046   3.142  0.4763 -0.6562 -0.2048
 3377TIP3    H231767  -0.014   3.017   2.998  1.2587 -0.2139 -0.0936
 3378TIP3   OH231768   4.699   4.688   1.608 -0.3938  0.3204 -0.4991
 3378TIP3    H131769   4.713   4.664   1.516 -0.9843  1.1963 -0.8284
 3378TIP3    H231770   4.693   4.604   1.654 -0.3131 -0.1305 -1.2918
 3379TIP3   OH231771   1.504   0.874   6.731  0.2956  0.4935 -0.5126
 3379TIP3    H131772   1.412   0.851   6.736  0.3399  0.2864 -0.6791
 3379TIP3    H231773   1.506   0.969   6.747  0.1699  0.3097  0.7363
 3380TIP3   OH231774   0.568   3.018   1.629  0.0509  0.3216  0.0589
 3380TIP3    H131775   0.586   2.928   1.602  0.4759 -0.0297  1.4030
 3380TIP3    H231776   0.648   3.066   1.606  0.5716 -0.0601  0.9906
 3381TIP3   OH231777   0.311   1.631   1.899  0.2510  0.0714 -0.8913
 3381TIP3    H131778   0.330   1.712   1.852  0.8780 -0.8750 -2.3000
 3381TIP3    H231779   0.219   1.614   1.880 -0.1647  0.9297  0.2033
 3382TIP3   OH231780   0.611   3.558   6.650  0.1844 -0.8571 -0.1459
 3382TIP3    H131781   0.706   3.564   6.644  0.0992  0.3365 -0.6809
 3382TIP3    H231782   0.585   3.506   6.574  0.3113  0.2481 -0.9755
 3383TIP3   OH231783   4.903   6.095   1.748  0.1173  0.2969  0.7332
 3383TIP3    H131784   4.831   6.038   1.774 -0.5488  0.8811  0.1997
 3383TIP3    H231785   4.979   6.036   1.742 -0.9846 -1.0213 -1.9905
 3384TIP3   OH231786   1.546   3.695   2.314 -0.4219  0.2574 -0.1618
 3384TIP3    H131787   1.474   3.645   2.276 -0.7037  1.0584 -0.7007
 3384TIP3    H231788   1.504   3.759   2.370 -0.0230 -0.6282  1.1834
 3385TIP3   OH231789   4.661   5.379   7.720  0.1764 -0.3766 -0.2685
 3385TIP3    H131790   4.666   5.454   7.661  0.5557  1.4431  1.9399
 3385TIP3    H231791   4.590   5.402   7.781  0.7586 -1.4978  0.8724
 3386TIP3   OH231792   3.706   2.798   1.992  0.3009  0.0180  0.5018
 3386TIP3    H131793   3.778   2.843   1.947 -0.9798 -0.4190 -2.2457
 3386TIP3    H231794   3.691   2.719   1.940 -1.7101 -0.2208  1.3458
 3387TIP3   OH231795   2.942   2.377   8.363 -0.7396 -0.7060  0.5311
 3387TIP3    H131796   2.981   2.461   8.388  0.8402 -1.1193 -0.4373
 3387TIP3    H231797   2.986   2.353   8.282 -0.8948 -2.6497  0.9762
 3388TIP3   OH231798   2.394   3.462   2.724 -0.4083  0.3670 -0.1272
 3388TIP3    H131799   2.377   3.543   2.675  1.2533  0.4126 -0.7025
 3388TIP3    H231800   2.478   3.478   2.767 -0.4221 -0.7827  0.3461
 3389TIP3   OH231801   1.829   0.133   0.578  0.6502 -0.2790 -0.4739
 3389TIP3    H131802   1.885   0.077   0.632 -0.4326 -1.5863 -0.6367
 3389TIP3    H231803   1.742   0.094   0.586 -0.2026  1.5575 -0.4202
 3390TIP3   OH231804   6.513   1.935   0.788 -0.4954  0.1866 -0.1443
 3390TIP3    H131805   6.443   1.908   0.730 -1.1479  0.9181  0.2862
 3390TIP3    H231806   6.556   1.853   0.813 -2.4787 -0.5226  1.2110
 3391TIP3   OH231807   3.038   6.732   8.332  0.5203 -0.1063 -0.3962
 3391TIP3    H131808   2.974   6.663   8.347 -0.5578  1.1034  0.9493
 3391TIP3    H231809   3.121   6.687   8.321 -0.0970 -1.6047  0.7725
 3392TIP3   OH231810   5.213   0.997   7.994  0.0274  0.0481 -0.3805
 3392TIP3    H131811   5.227   0.962   7.906  0.4702  0.7289 -0.5845
 3392TIP3    H231812   5.186   0.921   8.046 -0.4652 -0.3062 -1.1544
 3393TIP3   OH231813   4.659   3.095   1.583 -0.2645  0.7948  0.0004
 3393TIP3    H131814   4.732   3.048   1.544 -1.7713 -1.4967 -0.3111
 3393TIP3    H231815   4.666   3.076   1.677 -0.7775  0.0109 -0.1057
 3394TIP3   OH231816   4.633   5.531   8.105 -0.8079  0.3440 -0.2679
 3394TIP3    H131817   4.570   5.596   8.133 -1.8861 -0.8610  0.1878
 3394TIP3    H231818   4.695   5.523   8.178  0.8125  2.5795 -1.2843
 3395TIP3   OH231819   5.087   3.518   6.895 -0.2944 -0.1139  0.0595
 3395TIP3    H131820   5.133   3.589   6.849  0.1029  0.2779  1.0477
 3395TIP3    H231821   5.008   3.560   6.929 -0.5147 -0.3724 -0.1290
 3396TIP3   OH231822   0.697   1.624   8.269  0.0658 -0.1519 -0.3120
 3396TIP3    H131823   0.617   1.575   8.250 -1.2994  1.4526  1.0073
 3396TIP3    H231824   0.767   1.560   8.260 -1.3364 -1.5666 -1.6787
 3397TIP3   OH231825   2.340   6.118   2.742  0.1071 -0.6692 -0.2457
 3397TIP3    H131826   2.349   6.078   2.828  1.7386  3.5731  1.8399
 3397TIP3    H231827   2.420   6.092   2.695  1.1849  0.1498  1.0744
 3398TIP3   OH231828   6.098   4.342   8.323 -0.0331  0.4397 -0.2829
 3398TIP3    H131829   6.105   4.434   8.301  0.4658  0.2303 -1.0522
 3398TIP3    H231830   6.179   4.303   8.289  0.3367 -0.0653  1.1338
 3399TIP3   OH231831   2.159   5.267   1.866  0.2308  0.1145 -0.4714
 3399TIP3    H131832   2.227   5.313   1.816  0.4345  0.2240 -0.0988
 3399TIP3    H231833   2.106   5.337   1.904 -0.5714  0.0304 -1.3977
 3400TIP3   OH231834   1.459   0.681   1.618 -0.0754  0.3815  0.1871
 3400TIP3    H131835   1.455   0.776   1.626  0.5766  0.6851 -2.3423
 3400TIP3    H231836   1.545   0.664   1.578 -0.9411 -1.0745 -1.1685
 3401TIP3   OH231837   3.883   2.695   1.505 -0.1919 -0.4341  0.0327
 3401TIP3    H131838   3.792   2.723   1.510 -0.2405  0.1755 -2.5375
 3401TIP3    H231839   3.931   2.753   1.564 -1.1738  0.7675 -0.3336
 3402TIP3   OH231840   6.350   1.762   8.327  0.5154 -0.2501 -0.5873
 3402TIP3    H131841   6.270   1.715   8.303  0.7158  0.2167 -2.2921
 3402TIP3    H231842   6.414   1.735   8.261  1.3112  0.5738 -0.1676
 3403TIP3   OH231843   5.749   0.710   8.360 -0.4143  0.1958  0.2567
 3403TIP3    H131844   5.823   0.656   8.386 -1.1378 -1.1069 -0.2347
 3403TIP3    H231845   5.787   0.788   8.322  0.8429 -1.5460 -2.3793
 3404TIP3   OH231846   0.329   6.900   0.501 -0.0218 -0.2363  0.8375
 3404TIP3    H131847   0.354   6.879   0.411 -0.7609  1.2563  0.2348
 3404TIP3    H231848   0.233   6.895   0.501 -0.0556  0.2889  1.3892
 3405TIP3   OH231849   2.534   1.970   7.467  0.7690 -0.4197  0.0541
 3405TIP3    H131850   2.534   2.026   7.544  3.5700 -1.7303  1.1800
 3405TIP3    H231851   2.518   2.029   7.393  3.0611  1.8170  1.2005
 3406TIP3   OH231852   3.996   3.220   1.465  0.0592 -0.0508 -0.4874
 3406TIP3    H131853   3.970   3.312   1.462  0.1528 -0.0140 -0.1653
 3406TIP3    H231854   4.079   3.217   1.418  1.2988  0.4572  1.5356
 3407TIP3   OH231855   0.580   3.121   2.407  0.1937 -0.2570  0.2999
 3407TIP3    H131856   0.642   3.052   2.385  1.3127 -0.0936  2.5492
 3407TIP3    H231857   0.628   3.202   2.389  0.2571 -0.1212  1.0405
 3408TIP3   OH231858   3.729   0.699   2.610 -0.2786 -0.9374 -0.3009
 3408TIP3    H131859   3.677   0.741   2.679  0.3466  0.6372 -0.7273
 3408TIP3    H231860   3.727   0.606   2.631 -2.8955 -0.9136 -0.0686
 3409TIP3   OH231861   3.679   5.760   1.286  0.0600  0.1690 -0.1240
 3409TIP3    H131862   3.734   5.687   1.315 -0.4481  0.3492  1.3867
 3409TIP3    H231863   3.590   5.729   1.298 -0.1617  0.6195 -0.6012
 3410TIP3   OH231864   1.048   2.420   0.277  0.0427 -0.2707  0.2174
 3410TIP3    H131865   0.958   2.391   0.261 -0.3116  0.6937  0.4346
 3410TIP3    H231866   1.092   2.410   0.192 -0.8409  1.2612 -0.4646
 3411TIP3   OH231867   3.551   0.612   1.428  0.0770  0.1257 -0.1944
 3411TIP3    H131868   3.570   0.520   1.446  0.2707 -0.1914 -1.9068
 3411TIP3    H231869   3.473   0.631   1.480 -0.2645 -1.1532 -0.2125
 3412TIP3   OH231870   0.427   3.183   1.187  0.0624 -1.0324 -0.2182
 3412TIP3    H131871   0.342   3.139   1.187 -0.7636  0.4658  0.7285
 3412TIP3    H231872   0.490   3.113   1.202 -1.0120 -2.1476 -0.7022
 3413TIP3   OH231873   3.319   5.808   7.600 -0.1936  0.0112  0.0533
 3413TIP3    H131874   3.399   5.838   7.558  0.1619 -1.6649 -0.5490
 3413TIP3    H231875   3.248   5.838   7.543  0.1914 -0.8934 -0.9180
 3414TIP3   OH231876   6.111   2.612   3.028  0.1479 -0.3266 -0.1651
 3414TIP3    H131877   6.158   2.653   3.100 -0.1750  0.3354 -0.3264
 3414TIP3    H231878   6.041   2.563   3.070  0.6158 -0.8297  0.0367
 3415TIP3   OH231879   6.388   4.734   1.376 -0.0752  0.3422 -0.4779
 3415TIP3    H131880   6.351   4.823   1.380  1.6494  1.0460  1.5222
 3415TIP3    H231881   6.312   4.678   1.359 -1.1578  2.1886 -2.2065
 3416TIP3   OH231882   5.990   3.340   1.511  0.2993 -0.3427 -0.0682
 3416TIP3    H131883   6.085   3.354   1.514  0.1490  1.3971 -1.5744
 3416TIP3    H231884   5.953   3.428   1.504 -1.4189 -1.0221  0.0439
 3417TIP3   OH231885   3.947   2.693   2.888 -0.4143 -0.2880  0.0045
 3417TIP3    H131886   3.870   2.731   2.846 -0.6656  0.5623  1.2064
 3417TIP3    H231887   3.911   2.634   2.954 -0.0530  0.4200  0.8453
 3418TIP3   OH231888   1.491   3.005   8.211  0.1956 -0.2404 -0.1907
 3418TIP3    H131889   1.424   2.992   8.277  1.7089  0.9293  1.6710
 3418TIP3    H231890   1.547   2.927   8.218  0.6684  0.1351  0.3374
 3419TIP3   OH231891   1.520   5.812   8.157  0.2951 -0.5952 -0.6117
 3419TIP3    H131892   1.550   5.843   8.071  0.2892  0.1982 -0.3402
 3419TIP3    H231893   1.430   5.845   8.164  1.0356  1.3182  0.6111
 3420TIP3   OH231894   1.615   4.132   2.026 -0.3070  0.8468  0.1019
 3420TIP3    H131895   1.530   4.152   2.067 -2.1359 -2.5780 -1.5415
 3420TIP3    H231896   1.645   4.053   2.072  1.0784  0.9705 -0.5598
 3421TIP3   OH231897   1.489   2.771   1.175 -0.0507  0.1651 -0.2539
 3421TIP3    H131898   1.570   2.822   1.170  0.3463 -0.2726  1.3004
 3421TIP3    H231899   1.514   2.690   1.220 -1.4536  0.2718  0.7790
 3422TIP3   OH231900   4.029   5.046   2.378 -0.2243 -0.0798  0.0352
 3422TIP3    H131901   3.947   5.007   2.408 -2.4127  3.0575 -1.3126
 3422TIP3    H231902   4.086   5.045   2.455 -1.1367 -3.1213  0.7843
 3423TIP3   OH231903   4.145   1.093   2.426  0.4304 -0.5900  0.7806
 3423TIP3    H131904   4.079   1.160   2.404  3.1239  2.1044  0.1558
 3423TIP3    H231905   4.180   1.121   2.511  1.9821 -0.8169  0.2532
 3424TIP3   OH231906   3.650   2.594   2.661  0.4345  0.7276  0.0413
 3424TIP3    H131907   3.581   2.585   2.727  0.8006  0.6002  0.4120
 3424TIP3    H231908   3.696   2.675   2.686  0.6019  0.6553 -0.0347
 3425TIP3   OH231909   5.265   0.144   8.434  0.1986 -0.3281  0.1625
 3425TIP3    H131910   5.189   0.184   8.477 -0.0886 -0.9275  0.2228
 3425TIP3    H231911   5.268   0.055   8.468 -1.7207 -1.8180 -3.0620
 3426TIP3   OH231912   5.563   0.061   8.227 -0.3487 -0.2288 -0.5134
 3426TIP3    H131913   5.578   0.127   8.295 -0.0758 -0.1655 -0.6355
 3426TIP3    H231914   5.497   0.100   8.170 -1.7882 -0.9234  0.6012
 3427TIP3   OH231915   5.013   5.582   1.410  0.3542  0.2928  0.2244
 3427TIP3    H131916   5.061   5.548   1.335 -1.2210 -0.3045 -0.5541
 3427TIP3    H231917   5.035   5.521   1.481  4.8318  2.8699  1.4792
 3428TIP3   OH231918   4.080   3.745   0.748  0.6443  0.1575  0.3606
 3428TIP3    H131919   4.101   3.700   0.667 -1.2322 -0.8068  0.3421
 3428TIP3    H231920   4.137   3.705   0.814  0.2133 -1.0848  0.0117
 3429TIP3   OH231921   3.960   3.659   2.436  0.6007  0.8133 -0.4942
 3429TIP3    H131922   3.989   3.591   2.496  2.5363  1.5924 -0.4774
 3429TIP3    H231923   3.864   3.653   2.438  0.6508 -0.3120  1.3362
 3430TIP3   OH231924   6.883   2.505   7.617 -0.1279  0.4348  0.1082
 3430TIP3    H131925   6.862   2.567   7.547  0.2684 -0.0376 -0.4313
 3430TIP3    H231926   6.962   2.540   7.658  0.5161 -0.0914 -0.6663
 3431TIP3   OH231927   5.583   1.949   7.351 -0.4137  0.4418 -0.0871
 3431TIP3    H131928   5.584   2.008   7.276 -0.4828  0.3082 -0.1904
 3431TIP3    H231929   5.673   1.952   7.384  0.1674 -1.1332 -1.4305
 3432TIP3   OH231930   3.827   6.485   1.080  0.3327 -0.0462  0.6454
 3432TIP3    H131931   3.830   6.537   0.999 -2.1871 -0.7943 -0.0073
 3432TIP3    H231932   3.750   6.518   1.126 -2.0479 -3.7189 -0.2802
 3433TIP3   OH231933   6.436   1.801   7.811 -0.1289  0.1280  0.5075
 3433TIP3    H131934   6.436   1.895   7.829 -0.4000  0.1102  0.6048
 3433TIP3    H231935   6.367   1.766   7.868 -1.3358  0.1292 -0.8915
 3434TIP3   OH231936   4.144   3.116   8.573  0.3098 -0.4651 -0.1243
 3434TIP3    H131937   4.129   3.170   8.650  1.1460 -0.6054  0.1465
 3434TIP3    H231938   4.202   3.168   8.518 -2.2278  0.7440 -1.8833
 3435TIP3   OH231939   4.027   5.787   8.183 -0.5815  0.1392  0.1790
 3435TIP3    H131940   4.011   5.759   8.094 -0.5571 -1.7485  0.7411
 3435TIP3    H231941   3.962   5.741   8.236 -0.0342  0.5372  1.2484
 3436TIP3   OH231942   0.988   5.165   7.421  0.0258 -0.7096  0.6978
 3436TIP3    H131943   0.942   5.086   7.452 -0.0909 -0.4618  1.1567
 3436TIP3    H231944   0.949   5.182   7.335  1.3499 -2.2186 -0.2452
 3437TIP3   OH231945   3.253   0.984   8.565 -0.8258 -0.0272 -0.3388
 3437TIP3    H131946   3.176   0.932   8.544 -0.0095 -0.5565 -2.2468
 3437TIP3    H231947   3.307   0.927   8.619 -0.6040 -0.6483 -1.1951
 3438TIP3   OH231948   4.014   4.784   0.818 -0.1330  0.2944 -0.3264
 3438TIP3    H131949   4.080   4.838   0.775  0.6914 -0.1396  0.3634
 3438TIP3    H231950   3.969   4.843   0.878  1.5651  0.0065  1.3077
 3439TIP3   OH231951   0.970   5.037   1.522  0.3060 -0.1841 -0.2505
 3439TIP3    H131952   1.004   4.950   1.543 -0.7975 -1.4309 -3.1663
 3439TIP3    H231953   0.902   5.053   1.587 -0.5949 -2.2608 -0.6201
 3440TIP3   OH231954   6.236   6.664   2.897 -0.1394 -0.2030  0.2179
 3440TIP3    H131955   6.143   6.689   2.901  0.1161  0.6434  2.2257
 3440TIP3    H231956   6.281   6.744   2.871 -0.0697 -1.1162 -2.8300
 3441TIP3   OH231957   0.832   5.754   6.893  0.4764  0.0416  0.6442
 3441TIP3    H131958   0.757   5.749   6.832  1.7118 -0.9954 -0.8788
 3441TIP3    H231959   0.799   5.715   6.974 -0.2546 -1.6926 -0.4330
 3442TIP3   OH231960   6.155   3.815   1.278  0.4289 -0.1999 -0.5195
 3442TIP3    H131961   6.111   3.734   1.252 -0.3234 -0.3450  1.0586
 3442TIP3    H231962   6.086   3.881   1.277  0.4269 -0.1566  0.7337
 3443TIP3   OH231963   1.704   1.364   7.584 -0.0233  0.6824  0.0637
 3443TIP3    H131964   1.719   1.454   7.613  1.2122  0.2072  0.9891
 3443TIP3    H231965   1.701   1.370   7.489  2.0737  1.4482 -0.0025
 3444TIP3   OH231966   1.287   0.126   2.719  0.2667 -0.0382  0.3278
 3444TIP3    H131967   1.252   0.210   2.751 -0.6622 -0.3630  0.2093
 3444TIP3    H231968   1.299   0.141   2.625 -1.6298 -0.5646 -0.0463
 3445TIP3   OH231969   0.526   2.290   0.242  0.2793  0.4241  0.4024
 3445TIP3    H131970   0.480   2.349   0.182 -0.1579  0.7731  1.0556
 3445TIP3    H231971   0.463   2.220   0.259 -0.2827  1.2171  1.7746
 3446TIP3   OH231972   5.552   1.296   1.396 -0.0800 -0.0826 -0.1516
 3446TIP3    H131973   5.545   1.356   1.322 -1.3735 -0.3220 -0.2482
 3446TIP3    H231974   5.555   1.209   1.358  2.8873 -0.0907 -0.0596
 3447TIP3   OH231975   1.077   2.980   0.100 -0.1014  0.5750 -0.3406
 3447TIP3    H131976   1.081   3.033   0.020  0.0634 -0.0225 -0.7343
 3447TIP3    H231977   1.163   2.938   0.105 -0.1569  0.5154  0.0803
 3448TIP3   OH231978   3.645   4.382   1.579 -0.7235  0.2836 -0.1574
 3448TIP3    H131979   3.725   4.364   1.629 -1.3070 -1.3031  0.2827
 3448TIP3    H231980   3.674   4.392   1.489 -0.0797 -1.0930 -0.1363
 3449TIP3   OH231981   1.866   1.419   3.065  0.0600 -0.3183 -0.1462
 3449TIP3    H131982   1.889   1.504   3.025 -0.4177 -1.6040 -3.5258
 3449TIP3    H231983   1.932   1.358   3.031 -0.5854 -1.6151  0.8431
 3450TIP3   OH231984   4.881   4.397   2.627 -0.0007  0.8950 -0.2578
 3450TIP3    H131985   4.932   4.392   2.546  0.3276 -0.0711  0.0046
 3450TIP3    H231986   4.790   4.402   2.597  0.0685 -0.1997 -0.6859
 3451TIP3   OH231987   4.834   2.496   2.247  0.5239 -0.1367  0.0690
 3451TIP3    H131988   4.793   2.457   2.325  0.8020 -1.2706 -0.3291
 3451TIP3    H231989   4.769   2.484   2.178  0.0591  1.3462  0.2179
 3452TIP3   OH231990   3.909   5.362   2.080  0.1013  0.2526 -0.0056
 3452TIP3    H131991   3.926   5.267   2.082  1.3626  0.3835 -1.9020
 3452TIP3    H231992   3.967   5.398   2.147 -0.6480 -0.3203  0.9816
 3453TIP3   OH231993   0.820   5.811   1.420 -0.1918 -0.0980 -0.0503
 3453TIP3    H131994   0.803   5.836   1.511 -1.1340  0.0702 -0.2554
 3453TIP3    H231995   0.912   5.831   1.406 -0.5857  2.1920  0.1660
 3454TIP3   OH231996   6.596   6.448   0.901  0.0496 -0.0246 -0.3881
 3454TIP3    H131997   6.632   6.374   0.949 -1.2052 -0.1191  0.4258
 3454TIP3    H231998   6.508   6.421   0.876 -0.7165  1.4618  0.5899
 3455TIP3   OH231999   0.497   5.992   1.749 -0.0726 -0.2388  0.0577
 3455TIP3    H132000   0.517   6.082   1.724 -0.1271 -0.2118  0.1129
 3455TIP3    H232001   0.455   5.999   1.834  1.2892 -0.4147  0.7872
 3456TIP3   OH232002   0.037   3.841   0.727  0.1998  0.1848 -0.4310
 3456TIP3    H132003   0.007   3.822   0.638  1.4364  1.2261 -1.1025
 3456TIP3    H232004   0.013   3.763   0.777 -3.0728  0.7097 -0.9832
 3457TIP3   OH232005   3.570   4.118   0.730 -0.3092 -0.3006  0.1152
 3457TIP3    H132006   3.583   4.151   0.818  0.5487 -0.6222  0.1219
 3457TIP3    H232007   3.601   4.188   0.673 -1.0602 -0.0069  0.0528
 3458TIP3   OH232008   2.729   6.118   8.535  0.5255  0.3984 -0.0610
 3458TIP3    H132009   2.713   6.135   8.628 -3.5531  0.2925 -0.5514
 3458TIP3    H232010   2.670   6.046   8.513 -0.3580  1.8801 -3.1527
 3459TIP3   OH232011   6.592   2.567   1.762  0.2828  0.5678 -0.4246
 3459TIP3    H132012   6.563   2.476   1.762  0.6456  0.3524 -3.5547
 3459TIP3    H232013   6.529   2.612   1.818  0.3555 -1.6144  1.5830
 3460TIP3   OH232014   3.685   2.046   2.385 -0.6785  0.1443  0.3030
 3460TIP3    H132015   3.722   1.958   2.377  2.4808  1.4767 -1.7595
 3460TIP3    H232016   3.757   2.099   2.421 -2.1689  2.0856  0.5905
 3461TIP3   OH232017   6.786   5.463   1.428 -0.3248  0.2017  0.7059
 3461TIP3    H132018   6.738   5.527   1.376  2.1765  0.7784 -1.0413
 3461TIP3    H232019   6.742   5.380   1.409 -1.0038  0.7749 -0.3516
 3462TIP3   OH232020   5.212   4.679   7.820  0.0810  0.1587 -0.4918
 3462TIP3    H132021   5.302   4.707   7.804  0.9369 -0.9590  1.8358
 3462TIP3    H232022   5.200   4.602   7.764  0.4356  0.5203 -1.0724
 3463TIP3   OH232023   4.610   4.986   7.921  0.2171 -0.0217  0.3361
 3463TIP3    H132024   4.541   5.050   7.907 -0.3903 -0.8454 -0.6088
 3463TIP3    H232025   4.653   5.014   8.002  0.0102  1.5804 -0.0751
 3464TIP3   OH232026   4.838   1.556   7.323 -0.9777  0.7022 -0.1518
 3464TIP3    H132027   4.805   1.634   7.368 -2.1468 -0.4179  1.0539
 3464TIP3    H232028   4.816   1.484   7.383 -1.3277 -0.7237 -1.9124
 3465TIP3   OH232029   6.142   1.317   1.462  0.7408 -0.6119 -0.0853
 3465TIP3    H132030   6.171   1.227   1.476 -0.0757 -0.7971  0.4753
 3465TIP3    H232031   6.073   1.330   1.527  1.2254  0.6004  0.2123
 3466TIP3   OH232032   1.075   1.864   8.419  0.2299 -0.2263  0.1572
 3466TIP3    H132033   0.992   1.876   8.371  0.0923  0.5568  0.5688
 3466TIP3    H232034   1.086   1.946   8.467  0.7842 -0.6821  0.8240
 3467TIP3   OH232035   2.775   2.538   0.174 -0.2685  0.5207  0.4470
 3467TIP3    H132036   2.815   2.625   0.171  0.0695  0.4435  2.0329
 3467TIP3    H232037   2.689   2.552   0.214 -0.3588  0.1676  0.3834
 3468TIP3   OH232038   5.669   3.724   0.783 -0.4452 -0.2549  0.1914
 3468TIP3    H132039   5.585   3.697   0.747 -1.6581  1.0033  1.9174
 3468TIP3    H232040   5.706   3.645   0.822 -0.5228 -0.9380 -1.0839
 3469TIP3   OH232041   0.357   5.146   0.533  0.4751 -0.3009  0.2117
 3469TIP3    H132042   0.444   5.173   0.504  0.3038  0.7900  0.6623
 3469TIP3    H232043   0.315   5.227   0.561 -0.4796 -0.8971  0.5559
 3470TIP3   OH232044   4.426   5.364   1.188 -0.2716  0.3036 -0.2105
 3470TIP3    H132045   4.522   5.368   1.193 -0.1905 -1.7616  0.9439
 3470TIP3    H232046   4.409   5.331   1.099  0.0717  0.9783 -0.5295
 3471TIP3   OH232047   6.092   6.698   0.143 -0.3995 -0.3981 -0.5757
 3471TIP3    H132048   6.133   6.709   0.057 -0.3795  0.3041 -0.4804
 3471TIP3    H232049   6.128   6.769   0.196  0.3759 -1.4186  0.3265
 3472TIP3   OH232050   3.483   0.033   7.192  0.0259 -0.0348 -0.8119
 3472TIP3    H132051   3.575   0.031   7.166  0.2898  1.2101 -0.0712
 3472TIP3    H232052   3.436   0.060   7.113  0.3330 -0.3038 -1.0888
 3473TIP3   OH232053   3.956   0.265   0.736  0.3841 -0.1537 -0.4212
 3473TIP3    H132054   3.928   0.338   0.790 -2.5985  0.3511 -2.3456
 3473TIP3    H232055   3.874   0.231   0.698  2.0899 -1.3231 -3.4521
 3474TIP3   OH232056   6.386   0.654   7.610 -0.7617 -0.6921 -0.0906
 3474TIP3    H132057   6.385   0.559   7.620 -2.0593 -0.9640 -2.2725
 3474TIP3    H232058   6.302   0.682   7.648 -0.9130 -0.5618 -0.5173
 3475TIP3   OH232059   4.297   3.865   1.638 -0.0044 -0.1324  0.1158
 3475TIP3    H132060   4.247   3.907   1.568  1.8200  0.6771 -0.7381
 3475TIP3    H232061   4.384   3.903   1.632  0.5171 -0.9051  2.1067
 3476TIP3   OH232062   2.774   4.353   1.323  0.0275  0.6672 -0.1147
 3476TIP3    H132063   2.826   4.403   1.260  0.3695 -0.0861 -0.4478
 3476TIP3    H232064   2.686   4.351   1.285  0.0370  0.9249 -0.1507
 3477TIP3   OH232065   6.633   3.658   7.904 -0.0851 -0.0846  0.0119
 3477TIP3    H132066   6.720   3.642   7.941  1.1832  1.8680 -1.8612
 3477TIP3    H232067   6.636   3.619   7.817 -0.6120  1.0925 -0.5567
 3478TIP3   OH232068   3.784   0.749   1.978  0.2995  0.1967 -0.6719
 3478TIP3    H132069   3.731   0.671   1.997  1.7570 -0.8011 -0.5343
 3478TIP3    H232070   3.760   0.811   2.046 -1.1471  0.0220 -0.9822
 3479TIP3   OH232071   1.437   5.370   0.749  0.1447  0.1781  0.1752
 3479TIP3    H132072   1.423   5.371   0.844  2.0892 -0.3696  0.5287
 3479TIP3    H232073   1.532   5.375   0.739  0.0132 -0.2940 -1.7389
 3480TIP3   OH232074   3.393   0.071   0.421  0.5594 -0.0246 -0.4126
 3480TIP3    H132075   3.443   0.107   0.348  0.1706 -1.3400 -1.3689
 3480TIP3    H232076   3.344  -0.002   0.383 -0.2594 -0.2568  1.0027
 3481TIP3   OH232077   3.907   2.596   2.097 -0.4349 -0.4715 -0.7845
 3481TIP3    H132078   3.817   2.574   2.074  0.0435 -2.1231 -1.2390
 3481TIP3    H232079   3.905   2.616   2.190 -1.0878 -1.7097 -0.5124
 3482TIP3   OH232080   2.653   3.472   7.852  0.0103 -0.8909  0.4027
 3482TIP3    H132081   2.657   3.566   7.834 -1.8494 -1.1435 -1.7860
 3482TIP3    H232082   2.676   3.431   7.769  1.0332 -2.4035  1.3910
 3483TIP3   OH232083   3.634   2.941   1.101 -0.0316 -0.0124 -0.2002
 3483TIP3    H132084   3.720   2.945   1.142 -0.1331 -0.7650  0.0885
 3483TIP3    H232085   3.635   2.861   1.049 -0.2837  0.3789 -0.8316
 3484TIP3   OH232086   4.091   3.831   1.373  0.4929  0.4646  0.3980
 3484TIP3    H132087   4.082   3.923   1.347  0.8564 -0.5743 -4.0667
 3484TIP3    H232088   4.003   3.804   1.397  0.1060  1.5881  0.2892
 3485TIP3   OH232089   4.124   4.206   0.502 -0.2759  0.1476 -0.0827
 3485TIP3    H132090   4.162   4.118   0.509 -0.0665  0.1299 -1.2154
 3485TIP3    H232091   4.200   4.265   0.512 -0.3272  0.1833  0.0948
 3486TIP3   OH232092   1.936   6.603   2.294 -0.0544 -0.1805 -0.0672
 3486TIP3    H132093   1.944   6.565   2.206 -0.5735 -0.9920  0.2175
 3486TIP3    H232094   1.942   6.697   2.281  0.3077 -0.3129 -0.9201
 3487TIP3   OH232095   1.023   2.382   7.672 -0.3403 -0.1808  0.7276
 3487TIP3    H132096   0.976   2.305   7.639  1.1680 -1.0459  0.5427
 3487TIP3    H232097   1.066   2.352   7.752  0.2918  0.4664  0.6366
 3488TIP3   OH232098   0.478   6.250   6.887  0.3724  0.8173  0.6614
 3488TIP3    H132099   0.530   6.182   6.845 -2.0647  0.6199 -2.4227
 3488TIP3    H232100   0.533   6.328   6.884  2.0654 -0.3027  1.4844
 3489TIP3   OH232101   5.813   4.263   8.244 -0.0659  0.0593  0.1580
 3489TIP3    H132102   5.898   4.281   8.284 -0.5986  1.1161  0.8636
 3489TIP3    H232103   5.828   4.185   8.190  1.1605 -0.2213  0.8615
 3490TIP3   OH232104   4.121   3.563   0.531 -0.7441 -0.0594  0.0103
 3490TIP3    H132105   4.049   3.501   0.542 -0.9146  0.0307 -0.5383
 3490TIP3    H232106   4.199   3.513   0.554 -0.9417 -0.2926  0.1756
 3491TIP3   OH232107   1.113   1.906   0.911  0.0905  0.1934 -0.5842
 3491TIP3    H132108   1.114   1.985   0.966 -0.2275  0.1483 -0.5132
 3491TIP3    H232109   1.186   1.918   0.851  1.0011 -0.1587  0.4168
 3492TIP3   OH232110   6.674   1.061   7.386 -0.5318 -0.5946 -0.0849
 3492TIP3    H132111   6.653   1.140   7.335 -0.9237  0.1197  1.1510
 3492TIP3    H232112   6.747   1.087   7.441  0.7766 -1.7641 -1.1900
 3493TIP3   OH232113   2.217   3.360   7.723 -0.0504 -0.3019 -0.0543
 3493TIP3    H132114   2.181   3.369   7.812  1.4653 -0.7973  0.6391
 3493TIP3    H232115   2.185   3.276   7.692  1.4257 -1.3120  1.0362
 3494TIP3   OH232116   3.089   1.860   0.199 -0.6705 -0.6570  0.0125
 3494TIP3    H132117   3.087   1.765   0.215 -0.5861 -0.8674 -1.1612
 3494TIP3    H232118   3.001   1.881   0.168 -0.4833 -0.4790 -0.4086
 3495TIP3   OH232119   4.156   2.892   2.001  0.1792  0.4582  0.3878
 3495TIP3    H132120   4.107   2.839   1.938 -1.3042 -0.1101  1.9435
 3495TIP3    H232121   4.106   2.973   2.009  0.8826  0.9231  0.1289
 3496TIP3   OH232122   5.410   0.062   0.797 -0.7796 -0.0218 -0.7700
 3496TIP3    H132123   5.330   0.107   0.825 -0.8005 -0.2195 -0.5163
 3496TIP3    H232124   5.472   0.133   0.779 -1.0425  0.1364 -1.0632
 3497TIP3   OH232125   2.329   0.079   8.230  0.2447 -0.0825  0.1794
 3497TIP3    H132126   2.377   0.040   8.303 -1.5024  0.9843  2.0239
 3497TIP3    H232127   2.309   0.006   8.172 -0.4579 -1.4849  2.0669
 3498TIP3   OH232128   5.936   1.728   7.594 -0.0569 -0.1899 -0.4159
 3498TIP3    H132129   5.926   1.672   7.517  0.1964 -0.1282 -0.4967
 3498TIP3    H232130   5.859   1.785   7.593  1.0663  1.3975 -1.9516
 3499TIP3   OH232131   3.737   5.370   2.294 -0.3054  0.2879 -0.0007
 3499TIP3    H132132   3.779   5.376   2.208  0.3695 -0.4157  0.2674
 3499TIP3    H232133   3.685   5.290   2.290 -1.7331  1.2092 -0.3635
 3500TIP3   OH232134   1.681   0.640   1.463 -0.4854 -0.1900  0.1268
 3500TIP3    H132135   1.651   0.720   1.420 -0.3191  0.5011  1.2536
 3500TIP3    H232136   1.744   0.601   1.402 -0.4371  0.6269 -0.3526
 3501TIP3   OH232137   0.683   3.212   7.683 -0.6371 -0.3034 -0.0138
 3501TIP3    H132138   0.641   3.165   7.755 -0.1573 -2.0552 -0.8222
 3501TIP3    H232139   0.766   3.242   7.719 -1.2417  0.6024  0.7107
 3502TIP3   OH232140   3.129   4.722   1.669 -0.4366 -0.6818  0.5592
 3502TIP3    H132141   3.048   4.768   1.694 -0.5337 -1.3884  1.6654
 3502TIP3    H232142   3.146   4.663   1.743  0.8691 -0.8483  0.1518
 3503TIP3   OH232143   6.801   3.267   8.009  0.2209 -0.5237 -0.2927
 3503TIP3    H132144   6.773   3.285   7.919  0.1509 -1.4665 -0.4634
 3503TIP3    H232145   6.838   3.350   8.039 -0.0424 -0.1089 -1.0802
 3504TIP3   OH232146   4.119   5.143   8.036 -0.4709  0.0614  0.2298
 3504TIP3    H132147   4.112   5.079   7.966  0.9303  0.1978 -0.0453
 3504TIP3    H232148   4.191   5.113   8.090  1.0533  2.0098 -0.5866
 3505TIP3   OH232149   1.865   2.150   0.242 -0.0861  0.3785  0.7141
 3505TIP3    H132150   1.885   2.242   0.257 -0.3072  0.4490  0.5750
 3505TIP3    H232151   1.885   2.136   0.149  1.4669 -0.1046  1.0786
 3506TIP3   OH232152   6.869   1.170   0.549  0.7104 -0.5296  1.0662
 3506TIP3    H132153   6.920   1.250   0.557 -0.4568  0.6850 -2.1350
 3506TIP3    H232154   6.783   1.199   0.518 -0.1872 -2.9322  1.0893
 3507TIP3   OH232155   0.126   3.908   2.301 -0.0996  0.0358 -0.0816
 3507TIP3    H132156   0.046   3.930   2.349 -1.0433 -0.4178 -1.4080
 3507TIP3    H232157   0.100   3.840   2.240  1.4851 -0.6667 -0.0301
 3508TIP3   OH232158   1.124   5.696   7.622 -0.1219 -0.4268  0.0999
 3508TIP3    H132159   1.032   5.689   7.596 -0.5821 -1.3916  1.8869
 3508TIP3    H232160   1.172   5.693   7.539 -1.6243 -1.1823 -0.7815
 3509TIP3   OH232161   3.937   2.188   3.076 -0.1362  0.4601  0.0787
 3509TIP3    H132162   3.875   2.161   3.143 -0.9815 -0.0553 -0.8906
 3509TIP3    H232163   3.946   2.112   3.019  0.6558  0.8540 -0.3361
 3510TIP3   OH232164   6.306   1.359   0.168  0.2412 -0.3879  0.4908
 3510TIP3    H132165   6.388   1.353   0.217  1.1960  0.0642 -0.9815
 3510TIP3    H232166   6.318   1.435   0.111 -0.9336 -0.7428 -0.2556
 3511TIP3   OH232167   4.159   5.912   0.823  0.0059  0.1845  0.3847
 3511TIP3    H132168   4.133   6.003   0.837 -3.6529 -0.7343  0.5182
 3511TIP3    H232169   4.189   5.910   0.732 -2.0167  1.1504 -0.3487
 3512TIP3   OH232170   5.209   6.022   7.391 -0.3974 -0.4476  0.3225
 3512TIP3    H132171   5.141   6.089   7.382 -1.8627 -1.7656  1.0177
 3512TIP3    H232172   5.189   5.959   7.323  2.6650  1.0716 -2.2486
 3513TIP3   OH232173   1.216   4.773   8.135  0.3524 -0.7650 -0.7246
 3513TIP3    H132174   1.210   4.677   8.128 -1.0080 -0.8929  1.2850
 3513TIP3    H232175   1.276   4.788   8.207  0.7979 -0.0694 -1.2315
 3514TIP3   OH232176   5.978   4.256   2.176 -0.2655  0.3804  0.1758
 3514TIP3    H132177   5.932   4.188   2.126  0.4482 -1.0582  1.4034
 3514TIP3    H232178   5.912   4.291   2.236 -0.5142  0.4454 -0.1346
 3515TIP3   OH232179   4.248   1.408   1.433 -0.3530  0.2624  0.7570
 3515TIP3    H132180   4.279   1.428   1.521  0.6807  0.2084  0.4166
 3515TIP3    H232181   4.157   1.381   1.445 -0.6969  1.7203  1.6312
 3516TIP3   OH232182   6.230   1.709   7.989  0.4695 -0.7045  0.1208
 3516TIP3    H132183   6.149   1.753   8.014 -0.5067 -2.0071 -0.6324
 3516TIP3    H232184   6.208   1.663   7.908  1.7322 -1.7466  0.3389
 3517TIP3   OH232185   4.936   1.836   0.204 -0.8339  0.4376  0.1049
 3517TIP3    H132186   4.959   1.750   0.169 -0.0559 -0.0612  1.7771
 3517TIP3    H232187   4.856   1.861   0.156  0.1458 -0.1957 -1.9649
 3518TIP3   OH232188   2.150   3.384   2.374  0.2331  0.3962 -0.4625
 3518TIP3    H132189   2.131   3.436   2.453 -0.2609 -1.1371  0.4709
 3518TIP3    H232190   2.127   3.442   2.301 -1.6274  1.0132  0.5433
 3519TIP3   OH232191   1.844   5.913   0.164  0.0066 -0.0015 -0.2208
 3519TIP3    H132192   1.796   5.835   0.194  1.3291  0.0041  2.1588
 3519TIP3    H232193   1.935   5.883   0.158  0.5239  1.3297  0.7021
 3520TIP3   OH232194   6.869   0.192   1.592  0.6364  0.4845  0.1734
 3520TIP3    H132195   6.849   0.285   1.599 -0.1329  0.3888 -0.5699
 3520TIP3    H232196   6.797   0.156   1.540  2.2461 -0.0482 -1.8414
 3521TIP3   OH232197   2.254   4.929   0.216 -0.5754 -0.1196 -0.2297
 3521TIP3    H132198   2.315   4.912   0.144 -1.6073 -1.3415 -0.8479
 3521TIP3    H232199   2.290   5.006   0.260  0.4134  0.2823 -1.6792
 3522TIP3   OH232200   5.090   2.609   1.714  0.2752  0.5436 -0.3075
 3522TIP3    H132201   5.054   2.680   1.767 -0.0710  0.7777 -0.8487
 3522TIP3    H232202   5.106   2.539   1.776 -1.4547  0.3021 -0.0882
 3523TIP3   OH232203   1.278   1.137   8.351  0.3065  1.0080  0.6533
 3523TIP3    H132204   1.318   1.135   8.263  0.4982  1.2276  0.7322
 3523TIP3    H232205   1.340   1.089   8.406 -2.1670 -3.7831 -0.2176
 3524TIP3   OH232206   3.447   1.360   8.435 -0.1051  0.3147 -0.7761
 3524TIP3    H132207   3.458   1.381   8.343 -0.4588 -0.0986 -0.9201
 3524TIP3    H232208   3.521   1.303   8.456 -1.0140 -1.1338 -1.3125
 3525TIP3   OH232209   5.396   1.683   7.354 -0.2806 -0.0059  0.1980
 3525TIP3    H132210   5.425   1.772   7.375 -0.7219 -0.2067  1.8115
 3525TIP3    H232211   5.463   1.627   7.393 -0.6800 -0.4001  0.3255
 3526TIP3   OH232212   3.313   6.088   7.361 -0.0689 -0.7455  0.1887
 3526TIP3    H132213   3.391   6.070   7.309  0.0467  2.0523 -0.7952
 3526TIP3    H232214   3.273   6.003   7.375  2.2500 -2.0800 -0.7037
 3527TIP3   OH232215   5.149   2.762   7.873  0.9537  0.5139 -0.3687
 3527TIP3    H132216   5.094   2.751   7.795  0.8906  1.1558 -0.4227
 3527TIP3    H232217   5.171   2.855   7.874  0.9830  0.5088  0.3645
 3528TIP3   OH232218   4.970   3.051   7.246  0.3085 -0.1057  0.1265
 3528TIP3    H132219   4.904   2.982   7.246  1.1971 -0.9979 -0.7644
 3528TIP3    H232220   4.920   3.132   7.246 -0.8947 -0.7330 -2.5120
 3529TIP3   OH232221   5.682   1.078   8.376  0.0112  0.3750  0.1559
 3529TIP3    H132222   5.607   1.137   8.368  0.7537  1.5120  1.2914
 3529TIP3    H232223   5.758   1.132   8.357  0.7620 -0.0133  1.8646
 3530TIP3   OH232224   5.667   1.703   1.238 -0.7196  0.2921  0.7163
 3530TIP3    H132225   5.713   1.669   1.314 -0.3309  2.0203  1.3105
 3530TIP3    H232226   5.596   1.756   1.275 -0.2248  1.5682 -0.0694
 3531TIP3   OH232227   4.750   5.621   0.192 -0.0867  0.5194 -0.1430
 3531TIP3    H132228   4.818   5.678   0.155 -1.3830  1.9357 -0.4560
 3531TIP3    H232229   4.733   5.656   0.279  1.4638 -1.5225  1.0636
 3532TIP3   OH232230   4.280   2.402   8.573  0.4768 -0.5241  0.3553
 3532TIP3    H132231   4.287   2.334   8.507  1.2563  0.7431 -0.9292
 3532TIP3    H232232   4.371   2.426   8.593  0.2250  0.2796  0.6163
 3533TIP3   OH232233   0.120   6.450   2.185 -0.7655  0.5654 -0.6061
 3533TIP3    H132234   0.040   6.435   2.236  0.4569  1.8876  1.8901
 3533TIP3    H232235   0.179   6.379   2.210 -0.5306  0.6067 -1.0290
 3534TIP3   OH232236   4.842   2.220   0.844 -0.7586  0.2054  0.2241
 3534TIP3    H132237   4.932   2.191   0.852 -0.5845  0.6104 -0.2351
 3534TIP3    H232238   4.798   2.151   0.794 -0.8915 -0.3643  1.1089
 3535TIP3   OH232239   2.224   0.609   0.350  0.1729 -0.2321  0.2623
 3535TIP3    H132240   2.288   0.610   0.421 -0.9294 -1.7403  1.3320
 3535TIP3    H232241   2.140   0.592   0.393 -1.0085  1.7807 -1.0835
 3536TIP3   OH232242   5.871   6.819   7.977  0.2970  0.1690 -0.0070
 3536TIP3    H132243   5.831   6.881   7.917 -0.0812  0.8148  0.8857
 3536TIP3    H232244   5.809   6.746   7.982  0.2975  0.1457 -0.3394
 3537TIP3   OH232245   5.158   4.086   3.387  0.5860 -0.2986  0.4935
 3537TIP3    H132246   5.233   4.029   3.398  1.4301  0.3729 -1.3768
 3537TIP3    H232247   5.195   4.174   3.379 -0.4452  0.1219  0.1475
 3538TIP3   OH232248   1.012   4.979   1.203 -0.0383  0.1541 -0.2684
 3538TIP3    H132249   1.018   4.917   1.276  0.3286  1.6313  0.9927
 3538TIP3    H232250   1.090   5.034   1.211  0.5269 -0.2304 -2.3683
 3539TIP3   OH232251   1.741   3.659   8.259  0.9961 -0.5150  0.1431
 3539TIP3    H132252   1.707   3.747   8.244  2.0079 -0.1812 -0.2732
 3539TIP3    H232253   1.768   3.659   8.351  1.4231 -0.2278  0.0229
 3540TIP3   OH232254   5.469   6.921   1.699 -0.0220 -0.0412 -0.1476
 3540TIP3    H132255   5.449   6.959   1.613 -1.5750  1.0169  0.6193
 3540TIP3    H232256   5.484   6.828   1.681 -1.2085 -0.0219 -1.4703
 3541TIP3   OH232257   5.206   1.068   7.455  0.8651  0.3805  0.2407
 3541TIP3    H132258   5.123   1.105   7.484 -0.0142  0.0229 -1.6853
 3541TIP3    H232259   5.247   1.137   7.402 -0.2218 -0.8149 -2.3456
 3542TIP3   OH232260   4.407   1.598   0.498  0.2214  0.4841 -0.7583
 3542TIP3    H132261   4.422   1.692   0.508 -1.7043  0.6668  1.3226
 3542TIP3    H232262   4.315   1.586   0.523  0.8013 -2.1276  0.4590
 3543TIP3   OH232263   5.821   1.540   1.411 -0.3976 -0.6238 -0.0952
 3543TIP3    H132264   5.799   1.540   1.504 -2.2706 -2.4888 -0.4842
 3543TIP3    H232265   5.905   1.494   1.406 -0.9876 -1.7803  0.5418
 3544TIP3   OH232266   1.887   3.253   1.604  0.0582  0.3156  0.6177
 3544TIP3    H132267   1.934   3.337   1.604  0.5126  0.0847 -0.6867
 3544TIP3    H232268   1.818   3.265   1.538  0.1743 -0.3499  0.3681
 3545TIP3   OH232269   4.387   4.069   8.060  0.4419  0.0081 -0.0485
 3545TIP3    H132270   4.327   4.125   8.010  0.3006 -0.3166 -0.2510
 3545TIP3    H232271   4.412   4.001   7.998 -2.0300 -2.1198  1.1242
 3546TIP3   OH232272   1.806   0.311   0.884  0.3085 -0.1030  0.3968
 3546TIP3    H132273   1.901   0.307   0.875  0.5411 -0.4165  2.4925
 3546TIP3    H232274   1.789   0.401   0.910  0.1256 -0.2591  0.8220
 3547TIP3   OH232275   6.022   5.223   1.312 -0.4125 -0.1963  0.1236
 3547TIP3    H132276   6.112   5.240   1.285 -0.2766  0.1231  0.7398
 3547TIP3    H232277   6.000   5.296   1.370 -2.1297  1.4264 -2.3773
 3548TIP3   OH232278   4.128   6.205   1.379  0.1824 -0.1347  0.0921
 3548TIP3    H132279   4.034   6.205   1.392  0.4418 -1.0926  2.3270
 3548TIP3    H232280   4.151   6.112   1.368  0.7865  0.1531 -1.4727
 3549TIP3   OH232281   2.053   1.598   2.039  0.1938 -0.0500 -0.1748
 3549TIP3    H132282   2.048   1.689   2.012 -1.4630 -0.1275 -0.2679
 3549TIP3    H232283   1.961   1.570   2.046  0.6367 -1.3218  1.1533
 3550TIP3   OH232284   2.292   2.600   3.025  0.7653 -0.7821  0.3409
 3550TIP3    H132285   2.217   2.638   2.979 -0.9630 -1.4335  2.4554
 3550TIP3    H232286   2.288   2.507   3.005 -0.6176 -1.2472  2.4638
 3551TIP3   OH232287   3.450   5.826   0.778 -0.0303  0.3066 -0.2085
 3551TIP3    H132288   3.491   5.760   0.722  1.7074  1.3769 -0.2886
 3551TIP3    H232289   3.381   5.864   0.724 -0.4522 -0.8047 -0.4780
 3552TIP3   OH232290   0.375   2.387   1.530  0.2721 -0.0492  0.3456
 3552TIP3    H132291   0.326   2.470   1.527  0.0326 -0.1611  1.0385
 3552TIP3    H232292   0.352   2.349   1.615  0.2918 -0.8868 -0.0209
 3553TIP3   OH232293   2.029   2.562   1.470  0.1547 -0.4290 -0.0185
 3553TIP3    H132294   1.979   2.615   1.532  0.7320 -1.4363  1.3550
 3553TIP3    H232295   2.053   2.483   1.519  0.3059 -1.4486 -1.6410
 3554TIP3   OH232296   0.015   1.435   0.713 -0.1033  0.5873  0.5491
 3554TIP3    H132297   0.043   1.410   0.801 -1.0746  0.0125  0.7033
 3554TIP3    H232298   0.041   1.527   0.705 -1.4951  1.1484  2.0729
 3555TIP3   OH232299   4.050   5.174   0.173  0.7696  0.0308 -0.4117
 3555TIP3    H132300   3.988   5.126   0.117  0.0722 -0.1054  0.4422
 3555TIP3    H232301   4.136   5.156   0.135  0.2046  1.6409 -2.6879
 3556TIP3   OH232302   5.038   2.608   2.452  0.7022 -0.0783 -0.7061
 3556TIP3    H132303   5.071   2.694   2.478  1.0519 -0.0343 -1.2854
 3556TIP3    H232304   4.943   2.616   2.458  0.6871  0.6704 -1.7390
 3557TIP3   OH232305   4.075   0.902   0.983  0.1643  0.5128 -0.5785
 3557TIP3    H132306   4.051   0.995   0.987 -0.9310  0.2422 -0.7356
 3557TIP3    H232307   4.069   0.879   0.890 -0.5671  0.0330 -0.4181
 3558TIP3   OH232308   4.150   0.561   1.092  0.7517  0.0637  0.1114
 3558TIP3    H132309   4.178   0.623   1.025  0.1053 -0.2033 -0.4107
 3558TIP3    H232310   4.208   0.486   1.081  0.4265 -0.1218 -0.3847
 3559TIP3   OH232311   5.628   4.030   1.781  0.1050 -0.0227  0.3816
 3559TIP3    H132312   5.680   4.089   1.834 -0.0772  0.6348 -0.1477
 3559TIP3    H232313   5.586   4.087   1.716  0.3475 -0.7948 -0.4838
 3560TIP3   OH232314   1.060   2.607   2.735  0.4536  0.3367  0.3500
 3560TIP3    H132315   1.096   2.625   2.822 -0.7270  0.0804  0.9083
 3560TIP3    H232316   0.973   2.571   2.751  1.0464 -1.8116 -0.8789
 3561TIP3   OH232317   1.512   0.192   0.832 -0.2788  0.1837 -0.2408
 3561TIP3    H132318   1.590   0.228   0.873 -0.1459  1.1869 -1.3170
 3561TIP3    H232319   1.442   0.210   0.895  0.1680  0.2901  0.2329
 3562TIP3   OH232320   2.111   0.451   7.338 -1.3992 -0.2530 -0.4726
 3562TIP3    H132321   2.093   0.544   7.349  0.2101  0.0481 -0.0599
 3562TIP3    H232322   2.199   0.439   7.375 -1.6929 -1.9899 -0.2405
 3563TIP3   OH232323   2.107   0.787   8.430  0.4874  0.4128  0.2208
 3563TIP3    H132324   2.056   0.722   8.479  0.4139  0.7484  0.5969
 3563TIP3    H232325   2.043   0.851   8.399  0.2635 -0.7795 -1.9597
 3564TIP3   OH232326   2.458   3.660   1.599 -0.1691  0.3600  0.1836
 3564TIP3    H132327   2.444   3.689   1.689  0.1315 -0.5231  0.5290
 3564TIP3    H232328   2.548   3.686   1.580 -0.7440  2.0027 -0.4524
 3565TIP3   OH232329   4.180   6.393   1.838 -0.5678  0.0462 -0.3049
 3565TIP3    H132330   4.142   6.356   1.918  1.4897 -1.7128 -0.0418
 3565TIP3    H232331   4.273   6.401   1.858 -0.1831  0.6102 -2.1748
 3566TIP3   OH232332   0.985   4.730   8.276  0.1318  0.3640  0.3144
 3566TIP3    H132333   1.073   4.742   8.241 -0.5299 -0.7763 -1.8769
 3566TIP3    H232334   0.934   4.696   8.203 -2.1313  0.9066  1.5508
 3567TIP3   OH232335   6.742   3.718   0.557  0.1809 -0.0104  0.8183
 3567TIP3    H132336   6.695   3.799   0.541  0.8233  0.1733 -0.2136
 3567TIP3    H232337   6.678   3.660   0.598 -1.6155 -0.5231 -2.4209
 3568TIP3   OH232338   3.470   6.670   0.961  0.4469  0.2091  0.1742
 3568TIP3    H132339   3.478   6.587   0.912 -1.9211 -0.1050  0.1941
 3568TIP3    H232340   3.500   6.648   1.049  2.3664  0.1141 -0.4622
 3569TIP3   OH232341   4.052   5.668   1.740 -0.1504 -1.0302 -0.2361
 3569TIP3    H132342   4.090   5.589   1.778  0.2903 -0.5408  0.3748
 3569TIP3    H232343   4.070   5.662   1.647  1.1006 -0.9923 -0.0090
 3570TIP3   OH232344   6.764   4.086   0.781 -0.4713  0.1697 -0.0825
 3570TIP3    H132345   6.833   4.086   0.714  0.1299 -1.0445  0.4972
 3570TIP3    H232346   6.788   4.013   0.839 -2.3071 -0.3435  0.0782
 3571TIP3   OH232347   1.139   3.459   1.192 -0.4439 -0.0973  0.1521
 3571TIP3    H132348   1.130   3.381   1.136 -0.7746 -0.8129  1.1663
 3571TIP3    H232349   1.049   3.490   1.204 -0.2910  0.6087 -0.4566
 3572TIP3   OH232350   5.480   5.237   6.909 -0.4004  0.0178 -0.4026
 3572TIP3    H132351   5.445   5.298   6.974  2.1209  0.6660  0.4836
 3572TIP3    H232352   5.406   5.217   6.852 -2.2269  0.9634  1.4993
 3573TIP3   OH232353   6.525   4.889   8.453 -0.0739  0.3178 -0.3146
 3573TIP3    H132354   6.544   4.943   8.529  1.2152  2.0197 -1.7500
 3573TIP3    H232355   6.597   4.826   8.449 -0.5154 -0.2373  0.2320
 3574TIP3   OH232356   4.750   1.262   1.311 -0.6265  0.0486  0.0444
 3574TIP3    H132357   4.783   1.345   1.277 -0.9191 -0.0882 -0.5841
 3574TIP3    H232358   4.664   1.283   1.347 -0.5625  0.0774  0.1836
 3575TIP3   OH232359   0.982   0.554   7.671  0.0244 -0.4653  0.0842
 3575TIP3    H132360   0.979   0.511   7.756  2.5700 -0.1404  0.3932
 3575TIP3    H232361   1.055   0.615   7.677  1.6419 -1.8900 -2.9645
 3576TIP3   OH232362   1.172   1.392   8.462  0.5918  0.0584 -0.2357
 3576TIP3    H132363   1.113   1.458   8.427  0.8161  0.6489  0.4731
 3576TIP3    H232364   1.227   1.367   8.388 -0.0800  0.0025 -0.7310
 3577TIP3   OH232365   5.703   0.329   0.080 -0.0561  1.1558 -0.1948
 3577TIP3    H132366   5.770   0.287   0.135 -0.2731  0.3404 -0.5411
 3577TIP3    H232367   5.626   0.273   0.089 -0.1852  1.1762 -1.0987
 3578TIP3   OH232368   4.224   4.320   2.413 -0.4969 -0.0297 -0.8437
 3578TIP3    H132369   4.185   4.400   2.377  0.1016 -0.9755 -3.8748
 3578TIP3    H232370   4.186   4.249   2.361 -0.8366 -1.7912  1.5886
 3579TIP3   OH232371   1.432   3.522   8.556 -0.3079 -0.4471 -0.0887
 3579TIP3    H132372   1.450   3.602   8.606  0.0682 -2.3210  3.0603
 3579TIP3    H232373   1.518   3.490   8.531 -0.3727 -0.5300 -0.2066
 3580TIP3   OH232374   4.548   4.523   3.061  0.4558  0.1937  0.1322
 3580TIP3    H132375   4.543   4.616   3.082  0.9753  0.2833 -0.1241
 3580TIP3    H232376   4.456   4.495   3.053  0.2959  0.6650  0.2806
 3581TIP3   OH232377   6.463   2.516   7.548  0.3672 -0.0242  0.0556
 3581TIP3    H132378   6.382   2.499   7.500  0.4068  0.4488 -0.1874
 3581TIP3    H232379   6.471   2.612   7.548  0.6668 -0.0488  0.5083
 3582TIP3   OH232380   0.378   1.339   7.610  0.2113 -0.2607  0.5622
 3582TIP3    H132381   0.471   1.356   7.622  0.1911  1.5062 -1.1631
 3582TIP3    H232382   0.335   1.420   7.638 -0.7972 -0.9860  1.1683
 3583TIP3   OH232383   1.024   0.461   8.079 -0.2352  0.0629  0.0541
 3583TIP3    H132384   1.095   0.459   8.143 -0.1631  0.3329 -0.0151
 3583TIP3    H232385   0.964   0.528   8.112 -0.7302 -0.5362  0.3961
 3584TIP3   OH232386   5.477   0.208   7.432  0.0295 -0.1259 -0.1458
 3584TIP3    H132387   5.463   0.169   7.346 -1.8365 -0.2264  0.1490
 3584TIP3    H232388   5.532   0.285   7.415  1.1283 -1.0972 -1.1546
 3585TIP3   OH232389   1.724   1.243   0.064  0.0828 -0.2707  0.1363
 3585TIP3    H132390   1.788   1.217  -0.002 -0.1432  0.3350 -0.3293
 3585TIP3    H232391   1.695   1.330   0.037  0.5067  0.2925  1.4304
 3586TIP3   OH232392   0.377   6.807   0.216  0.1466 -0.3087 -0.1426
 3586TIP3    H132393   0.430   6.833   0.140  0.8877  3.2118  1.3918
 3586TIP3    H232394   0.395   6.713   0.226  0.4208 -0.8107 -3.9204
 3587TIP3   OH232395   1.641   6.468   8.404  0.5417 -0.2036  0.1310
 3587TIP3    H132396   1.661   6.420   8.484  1.7660 -0.4942 -0.3335
 3587TIP3    H232397   1.595   6.405   8.349  0.6708 -0.3356  0.1748
 3588TIP3   OH232398   0.774   5.915   1.681  0.1549 -0.4747  0.5793
 3588TIP3    H132399   0.816   5.867   1.752 -0.1276 -1.6743 -0.0330
 3588TIP3    H232400   0.696   5.954   1.721  0.4136 -0.4792  1.0953
 3589TIP3   OH232401   4.745   1.863   7.092 -0.4568 -0.2467  0.2891
 3589TIP3    H132402   4.720   1.897   7.178  1.2484  1.4943  0.1526
 3589TIP3    H232403   4.700   1.921   7.030  0.0791 -0.1107  0.0255
 3590TIP3   OH232404   2.387   5.884   7.492  0.3875  0.2037 -0.0174
 3590TIP3    H132405   2.470   5.899   7.536 -0.3959 -0.1702  1.6622
 3590TIP3    H232406   2.359   5.797   7.521 -0.5307  0.2671 -0.6509
 3591TIP3   OH232407   3.153   1.276   0.474  0.3138  0.0566  0.3006
 3591TIP3    H132408   3.164   1.351   0.534 -1.2616  0.1109  0.5575
 3591TIP3    H232409   3.140   1.201   0.532 -1.1216  0.0923  0.0428
 3592TIP3   OH232410   4.769   2.701   2.469  0.1537 -0.7392  0.2676
 3592TIP3    H132411   4.722   2.765   2.416  2.9905  1.6643  0.4022
 3592TIP3    H232412   4.711   2.686   2.544 -1.2598  0.4884 -0.5151
 3593TIP3   OH232413   3.359   5.502   0.407  0.1819 -0.6445  0.3913
 3593TIP3    H132414   3.340   5.565   0.338 -0.7701 -0.5431  0.7399
 3593TIP3    H232415   3.418   5.550   0.467 -0.2177 -0.2192  0.4471
 3594TIP3   OH232416   2.270   6.689   8.429  0.0547 -0.5379 -0.5047
 3594TIP3    H132417   2.308   6.774   8.448 -2.0190  0.2423  0.4439
 3594TIP3    H232418   2.184   6.708   8.391  0.3840 -2.2164 -2.3134
 3595TIP3   OH232419   6.614   3.260   2.272 -0.2076  0.4642 -0.2716
 3595TIP3    H132420   6.675   3.250   2.198 -1.1357 -0.7722 -0.9109
 3595TIP3    H232421   6.658   3.216   2.345  0.3969  1.0530 -0.2723
 3596TIP3   OH232422   3.044   2.407   1.200  0.3858  0.1631 -0.7079
 3596TIP3    H132423   3.097   2.458   1.138  2.1601 -0.8782 -0.1105
 3596TIP3    H232424   2.974   2.467   1.225 -0.3240  0.6783 -3.5560
 3597TIP3   OH232425   0.207   4.270   7.882 -0.2028  0.4174 -0.2655
 3597TIP3    H132426   0.202   4.303   7.792  0.0837  2.0369  0.2839
 3597TIP3    H232427   0.258   4.335   7.929  0.2627 -0.7686  0.9385
 3598TIP3   OH232428   0.828   2.958   1.892 -0.5669 -0.0988 -0.1450
 3598TIP3    H132429   0.845   3.001   1.808 -0.2507 -0.1519 -0.1109
 3598TIP3    H232430   0.795   2.872   1.868 -0.7935  0.0079 -0.2149
 3599TIP3   OH232431   6.136   0.529   0.747  0.5432  0.3983  0.3716
 3599TIP3    H132432   6.116   0.514   0.655 -0.6677 -0.2401  0.7254
 3599TIP3    H232433   6.218   0.579   0.745  0.0539  1.2243 -1.0693
 3600TIP3   OH232434   0.852   4.034   0.245 -0.1136  0.5440 -0.0971
 3600TIP3    H132435   0.841   4.119   0.288 -2.6476  0.1712  0.1840
 3600TIP3    H232436   0.901   3.981   0.308 -0.5549  1.1219  0.7537
 3601TIP3   OH232437   2.570   3.650   0.840  0.1890 -0.4741 -0.2401
 3601TIP3    H132438   2.545   3.739   0.862  0.9488  0.1645 -1.8047
 3601TIP3    H232439   2.584   3.607   0.924  0.0627  0.9514  0.5324
 3602TIP3   OH232440   2.004   3.004   2.374  0.5060  0.2089 -0.2744
 3602TIP3    H132441   2.089   2.971   2.344  0.4114 -1.0743  0.7480
 3602TIP3    H232442   1.944   2.930   2.360 -0.4556  1.1098 -1.0097
 3603TIP3   OH232443   0.470   0.928   7.940  0.7357 -0.1857 -0.2483
 3603TIP3    H132444   0.422   0.919   7.858 -0.6125  2.1385  0.1964
 3603TIP3    H232445   0.558   0.897   7.920 -0.1732 -1.9042 -1.8838
 3604TIP3   OH232446   4.843   5.658   1.219 -0.3402  0.7650 -0.6034
 3604TIP3    H132447   4.911   5.686   1.158  0.2141 -0.5985 -0.6523
 3604TIP3    H232448   4.890   5.644   1.302  0.1531 -3.0511 -1.3261
 3605TIP3   OH232449   4.787   4.558   2.123  0.4547  0.5173 -0.0713
 3605TIP3    H132450   4.699   4.544   2.157  0.4750 -1.1938 -0.6369
 3605TIP3    H232451   4.798   4.491   2.056  1.6054  1.7424 -1.1682
 3606TIP3   OH232452   6.310   0.907   0.877 -0.4062  0.5001  0.3554
 3606TIP3    H132453   6.283   0.817   0.859  1.1555  0.5424 -2.9088
 3606TIP3    H232454   6.390   0.898   0.928  0.3073 -0.0771 -0.8047
 3607TIP3   OH232455   2.557   2.301   8.457 -0.2250 -0.7910  0.1482
 3607TIP3    H132456   2.546   2.220   8.407  0.6620 -0.2899 -0.8988
 3607TIP3    H232457   2.642   2.291   8.500 -0.1264 -0.4459  0.0388
 3608TIP3   OH232458   5.768   2.809   0.877  0.0554  0.1787  0.3395
 3608TIP3    H132459   5.788   2.891   0.922  0.1362  0.0641  0.5135
 3608TIP3    H232460   5.813   2.742   0.929 -1.6511 -0.2304  1.3605
 3609TIP3   OH232461   0.463   6.753   7.357 -0.4178  0.0086 -0.8827
 3609TIP3    H132462   0.410   6.771   7.280 -1.5866  0.9902  0.1287
 3609TIP3    H232463   0.402   6.718   7.421 -0.0088  1.7142  0.5186
 3610TIP3   OH232464   3.271   2.974   8.539  0.4105  0.4548 -0.6402
 3610TIP3    H132465   3.336   3.027   8.493 -0.0322  0.6036 -1.1035
 3610TIP3    H232466   3.293   2.984   8.632 -0.3976  2.4779 -0.6064
 3611TIP3   OH232467   0.551   6.520   1.247  0.7294  0.3270 -0.3138
 3611TIP3    H132468   0.538   6.567   1.165  1.0844  0.5592 -0.2395
 3611TIP3    H232469   0.629   6.560   1.285  0.0321  0.8608  0.5901
 3612TIP3   OH232470   2.515   4.588   1.245 -1.0569  0.1642 -0.5381
 3612TIP3    H132471   2.423   4.591   1.271 -1.0592 -0.4819 -0.4577
 3612TIP3    H232472   2.524   4.505   1.197  0.1013 -1.2520  1.9085
 3613TIP3   OH232473   6.634   6.907   0.603  0.2522 -0.0167 -0.0478
 3613TIP3    H132474   6.628   6.875   0.693  0.5064  0.6444  0.2148
 3613TIP3    H232475   6.551   6.952   0.588 -1.0332 -2.5318 -1.1507
 3614TIP3   OH232476   5.152   2.800   1.425  0.0728  0.2292 -0.0391
 3614TIP3    H132477   5.216   2.737   1.391 -1.2972  0.1178 -2.6443
 3614TIP3    H232478   5.091   2.815   1.353 -1.0020  2.8152  1.2443
 3615TIP3   OH232479   5.797   2.780   1.567 -0.6359  0.0679 -0.5458
 3615TIP3    H132480   5.802   2.770   1.662 -0.9485  1.1543 -0.3899
 3615TIP3    H232481   5.871   2.837   1.546 -0.2157 -0.6508 -1.0444
 3616TIP3   OH232482   2.482   4.777   2.703  0.0854  0.0291 -0.2428
 3616TIP3    H132483   2.565   4.816   2.729  0.8222 -0.8778 -1.1770
 3616TIP3    H232484   2.466   4.708   2.767  0.7312 -0.6698 -0.8203
 3617TIP3   OH232485   4.173   6.070   7.959 -0.1411  0.0806  0.2408
 3617TIP3    H132486   4.232   6.118   7.902  0.0860 -1.3466 -0.7770
 3617TIP3    H232487   4.178   5.979   7.929 -0.1563 -0.7068  2.4227
 3618TIP3   OH232488   4.482   4.311   0.920 -0.2252 -0.6131  0.0599
 3618TIP3    H132489   4.575   4.317   0.902  0.0774 -0.9602  1.3934
 3618TIP3    H232490   4.451   4.401   0.918  0.2624 -0.4409  0.2088
 3619TIP3   OH232491   5.560   0.780   2.319 -0.3410 -0.9950 -0.0176
 3619TIP3    H132492   5.650   0.811   2.326 -0.7972  0.1841  0.8427
 3619TIP3    H232493   5.529   0.772   2.409 -0.0974 -4.6046 -0.0913
 3620TIP3   OH232494   0.321   4.712   1.726  0.1622  0.0150  0.4215
 3620TIP3    H132495   0.251   4.653   1.754  0.0893  0.0846  0.3858
 3620TIP3    H232496   0.387   4.654   1.689 -0.4843  0.0437 -0.8431
 3621TIP3   OH232497   2.365   0.426   0.563 -0.4638  0.1899 -0.6558
 3621TIP3    H132498   2.354   0.385   0.477 -2.9848 -0.4161 -0.1086
 3621TIP3    H232499   2.448   0.473   0.556 -0.7473  0.4556 -3.5318
 3622TIP3   OH232500   0.413   5.797   1.957  0.0092 -0.3648  0.4788
 3622TIP3    H132501   0.478   5.854   1.998  0.9483 -2.1162  1.5374
 3622TIP3    H232502   0.456   5.763   1.879 -1.0176  1.3222 -0.8738
 3623TIP3   OH232503   5.173   1.923   8.355  0.1917  0.3841  0.0794
 3623TIP3    H132504   5.128   1.995   8.399  0.6351  1.5669 -1.3307
 3623TIP3    H232505   5.159   1.940   8.261 -0.2569 -1.7389 -0.2945
 3624TIP3   OH232506   5.051   1.146   1.339 -0.4615 -0.5091 -0.4788
 3624TIP3    H132507   5.034   1.099   1.420 -2.0746  0.1335 -0.4081
 3624TIP3    H232508   4.965   1.177   1.310  0.3470  1.1293 -1.2944
 3625TIP3   OH232509   3.739   4.318   2.074  0.3260  0.1791 -0.2640
 3625TIP3    H132510   3.797   4.244   2.091  0.5216  0.2811 -0.4639
 3625TIP3    H232511   3.651   4.281   2.072  0.2977  0.1515  0.8439
 3626TIP3   OH232512   6.061   1.550   6.544  0.1214 -0.0027  0.3314
 3626TIP3    H132513   6.145   1.573   6.505  0.0211 -0.4591 -0.1689
 3626TIP3    H232514   6.044   1.461   6.514 -1.0028  0.4243 -0.3974
 3627TIP3   OH232515   5.995   1.798   8.066 -0.2215  0.3954  0.3495
 3627TIP3    H132516   5.956   1.855   8.133 -0.1696  0.2835  0.4744
 3627TIP3    H232517   5.921   1.769   8.014 -0.1740  1.1454 -0.1529
 3628TIP3   OH232518   5.308   6.678   2.689  0.0560  0.5290  0.7915
 3628TIP3    H132519   5.260   6.737   2.631 -3.1007  0.2487  2.8801
 3628TIP3    H232520   5.284   6.706   2.777  1.1462 -1.7996  1.9217
 3629TIP3   OH232521   5.985   2.551   6.960  0.0316 -0.0531  0.5273
 3629TIP3    H132522   6.073   2.520   6.983 -0.7785 -1.4439  1.9802
 3629TIP3    H232523   5.962   2.611   7.031 -0.0944  0.5404 -0.0060
 3630TIP3   OH232524   1.052   2.842   1.009  0.0018 -0.0734 -0.9207
 3630TIP3    H132525   1.024   2.871   1.096 -0.7405 -0.1680 -1.1181
 3630TIP3    H232526   1.108   2.766   1.026 -2.5011 -2.0136 -0.5888
 3631TIP3   OH232527   2.038   3.389   1.844  0.5143 -0.1228  0.2211
 3631TIP3    H132528   2.024   3.371   1.937  0.6789  1.0365  0.4876
 3631TIP3    H232529   1.995   3.317   1.799  1.0025 -1.0551  1.2057
 3632TIP3   OH232530   1.502   1.246   7.199 -0.1333  0.2049  0.4235
 3632TIP3    H132531   1.451   1.301   7.139  0.4535  0.2765 -0.0171
 3632TIP3    H232532   1.565   1.305   7.239 -0.5941  0.1787  1.2088
 3633TIP3   OH232533   0.807   2.470   0.697  0.1324 -0.2325  0.1107
 3633TIP3    H132534   0.840   2.559   0.700  1.0011 -0.5171 -0.7545
 3633TIP3    H232535   0.796   2.446   0.789 -0.9476  1.0446  0.3559
 3634TIP3   OH232536   1.309   2.495   0.570  0.6677 -0.2437  0.3219
 3634TIP3    H132537   1.221   2.459   0.554  0.3866  0.6385 -0.2311
 3634TIP3    H232538   1.355   2.484   0.486  1.2564 -1.1421  0.7534
 3635TIP3   OH232539   5.886   3.924   8.413  0.7469 -0.0665 -0.0144
 3635TIP3    H132540   5.901   4.012   8.448 -0.2803  0.1878 -0.1720
 3635TIP3    H232541   5.942   3.867   8.465 -0.7952  0.2742  2.1520
 3636TIP3   OH232542   3.721   5.518   1.923 -0.0255 -0.1309  0.5727
 3636TIP3    H132543   3.767   5.444   1.963  0.0604  0.4038  1.4644
 3636TIP3    H232544   3.730   5.590   1.985  1.1351  1.0890 -0.8996
 3637TIP3   OH232545   1.944   2.942   8.560 -0.3657 -0.0067  0.4076
 3637TIP3    H132546   1.900   3.011   8.512  1.4500  1.8574  1.2864
 3637TIP3    H232547   1.886   2.922   8.633 -1.6509 -0.6306 -0.7234
 3638TIP3   OH232548   5.584   2.989   2.320  0.3190 -0.0100 -0.1500
 3638TIP3    H132549   5.503   2.966   2.366  0.7223  1.2344  1.2783
 3638TIP3    H232550   5.637   2.909   2.323  0.3598  0.0377  1.6983
 3639TIP3   OH232551   0.124   5.758   7.331  0.0290 -0.2933  0.3592
 3639TIP3    H132552   0.037   5.732   7.301  0.2928 -0.9174  0.1030
 3639TIP3    H232553   0.182   5.692   7.294  0.4207 -0.8532  1.8776
 3640TIP3   OH232554   5.177   4.567   8.073  0.1765 -0.4857  0.1235
 3640TIP3    H132555   5.200   4.607   7.990 -1.4776  0.2827 -0.0016
 3640TIP3    H232556   5.178   4.473   8.056 -0.2203 -0.3280 -0.7867
 3641TIP3   OH232557   6.651   1.846   0.072  0.0681 -0.3395 -0.5816
 3641TIP3    H132558   6.624   1.785   0.003 -0.1890 -1.1407  0.2028
 3641TIP3    H232559   6.657   1.792   0.150 -2.4564  1.0120  0.6873
 3642TIP3   OH232560   3.579   5.161   0.872 -0.4200  0.3703 -0.1199
 3642TIP3    H132561   3.532   5.235   0.909  0.1292  1.7850 -2.0443
 3642TIP3    H232562   3.671   5.187   0.876 -0.2666  0.1247 -1.3908
 3643TIP3   OH232563   4.422   5.199   1.819 -0.1856 -0.4983 -0.5093
 3643TIP3    H132564   4.456   5.203   1.909 -2.3965  0.3103  0.3404
 3643TIP3    H232565   4.383   5.112   1.812  1.0310 -1.0310 -1.1515
 3644TIP3   OH232566   4.210   4.257   7.941 -0.0786  0.3562 -0.0588
 3644TIP3    H132567   4.202   4.298   7.855 -0.8360 -0.5318 -0.4395
 3644TIP3    H232568   4.143   4.299   7.995 -1.2915 -0.7684 -0.6306
 3645TIP3   OH232569   2.386   3.225   1.312 -0.2254 -0.6173  0.2090
 3645TIP3    H132570   2.406   3.274   1.232  1.3696 -1.1734  0.2342
 3645TIP3    H232571   2.364   3.292   1.376 -0.4031 -0.0909 -0.3941
 3646TIP3   OH232572   2.039   0.870   2.019  0.2222  0.2610  0.3533
 3646TIP3    H132573   2.035   0.780   1.986 -0.0027  0.0425  0.9669
 3646TIP3    H232574   2.113   0.909   1.973 -0.1284 -0.0091 -0.4650
 3647TIP3   OH232575   3.573   3.475   2.153 -0.2423  0.0019 -0.1612
 3647TIP3    H132576   3.505   3.408   2.159  0.2606 -0.4031  1.4013
 3647TIP3    H232577   3.655   3.427   2.147  0.1317  0.4575  1.0707
 3648TIP3   OH232578   6.863   3.256   0.409 -0.0096 -0.2313 -0.3573
 3648TIP3    H132579   6.796   3.192   0.383  0.0916 -0.0203 -1.1691
 3648TIP3    H232580   6.904   3.282   0.326  1.8806 -1.2328  0.2142
 3649TIP3   OH232581   4.182   3.347   8.380 -0.2183 -0.0198  0.0644
 3649TIP3    H132582   4.136   3.391   8.452 -1.4344  0.5398 -1.0235
 3649TIP3    H232583   4.134   3.372   8.302  0.9871 -0.7560 -0.9459
 3650TIP3   OH232584   2.078   4.502   2.963 -0.3826 -0.2453 -0.1335
 3650TIP3    H132585   2.116   4.446   3.030 -1.8839  0.2625  1.1882
 3650TIP3    H232586   2.045   4.441   2.897  2.3216 -0.7197 -1.2004
 3651TIP3   OH232587   1.985   6.330   1.507  0.3765  0.2567  0.0616
 3651TIP3    H132588   2.054   6.364   1.450  0.6351 -0.4320 -0.0448
 3651TIP3    H232589   2.033   6.293   1.582  0.2079 -1.2464 -0.5424
 3652TIP3   OH232590   0.264   3.046   2.077  0.5005  0.4321  0.0330
 3652TIP3    H132591   0.285   3.064   1.986 -1.0489  0.0854 -0.4251
 3652TIP3    H232592   0.341   2.999   2.111  1.6398  1.7132 -0.6991
 3653TIP3   OH232593   0.664   2.327   7.718 -0.4632  0.2331 -0.1197
 3653TIP3    H132594   0.659   2.379   7.638  1.6774 -0.2736 -0.6354
 3653TIP3    H232595   0.578   2.337   7.758 -1.3654  1.0455 -2.1319
 3654TIP3   OH232596   0.696   3.818   7.802  0.3712 -0.3524 -0.3007
 3654TIP3    H132597   0.747   3.899   7.794 -0.3471  0.1057 -0.2704
 3654TIP3    H232598   0.636   3.834   7.875 -0.2593 -0.6372 -0.7478
 3655TIP3   OH232599   5.456   0.375   8.056  0.2340 -0.7052  0.4692
 3655TIP3    H132600   5.496   0.425   8.127  0.1232 -0.6962  0.5268
 3655TIP3    H232601   5.390   0.321   8.100 -0.7662  0.2713  0.2296
 3656TIP3   OH232602   6.273   0.653   1.436 -0.3982  0.6308 -0.4434
 3656TIP3    H132603   6.342   0.648   1.502 -1.0644  0.3030  0.2398
 3656TIP3    H232604   6.207   0.712   1.472  0.0912  1.9759 -1.6534
 3657TIP3   OH232605   2.018   5.871   1.812 -0.1765 -0.1041  0.0658
 3657TIP3    H132606   1.951   5.929   1.847  0.8805  0.3385  1.4304
 3657TIP3    H232607   2.005   5.874   1.717 -0.2065  2.3147  0.0835
 3658TIP3   OH232608   0.763   2.112   0.662  0.8241 -0.0229 -0.0584
 3658TIP3    H132609   0.709   2.187   0.688 -0.7113 -0.7432 -1.0173
 3658TIP3    H232610   0.733   2.090   0.574  3.1428 -0.0931 -0.8863
 3659TIP3   OH232611   5.761   2.139   6.751  0.0534 -0.5347  0.7980
 3659TIP3    H132612   5.790   2.142   6.660  1.6536  2.8270  1.2565
 3659TIP3    H232613   5.670   2.109   6.746 -0.0637 -0.0225 -1.9567
 3660TIP3   OH232614   1.907   4.268   8.395 -0.2856 -0.0685 -0.0037
 3660TIP3    H132615   1.835   4.320   8.360 -0.8466 -0.8401 -0.0389
 3660TIP3    H232616   1.914   4.294   8.487 -1.0257 -0.4267  0.1599
 3661TIP3   OH232617   6.062   2.786   1.921 -0.3955  0.4905  0.5888
 3661TIP3    H132618   6.124   2.823   1.859 -0.4557  0.6322  0.6145
 3661TIP3    H232619   6.101   2.702   1.947 -1.1054 -0.3261 -0.8316
 3662TIP3   OH232620   5.688   5.222   7.677 -0.3608  0.3715 -0.2742
 3662TIP3    H132621   5.639   5.153   7.632 -0.9059  0.1377  0.6400
 3662TIP3    H232622   5.734   5.176   7.748  1.3988  0.5481 -1.2489
 3663TIP3   OH232623   0.420   4.296   0.284  0.5303 -0.1301 -0.6425
 3663TIP3    H132624   0.406   4.312   0.191  1.7766 -0.5405 -0.9196
 3663TIP3    H232625   0.378   4.211   0.301 -1.8185  1.0180 -0.2498
 3664TIP3   OH232626   2.770   3.753   0.533 -0.3985  0.1238  0.3285
 3664TIP3    H132627   2.744   3.843   0.511 -0.3503  0.1350  0.3177
 3664TIP3    H232628   2.826   3.726   0.460  0.0349  0.2769  0.6039
 3665TIP3   OH232629   0.287   6.660   8.186 -0.3897  0.1504 -0.5114
 3665TIP3    H132630   0.208   6.704   8.216 -0.6355 -0.9554  0.5670
 3665TIP3    H232631   0.342   6.730   8.150 -1.5685  1.0211 -0.6609
 3666TIP3   OH232632   3.856   4.900   0.196 -0.7558  0.1075 -0.1575
 3666TIP3    H132633   3.766   4.895   0.163 -0.4277 -0.4322 -1.0305
 3666TIP3    H232634   3.909   4.915   0.117  0.1862 -2.4405 -0.1319
 3667TIP3   OH232635   5.534   2.616   7.843  0.2277  0.3134 -0.2092
 3667TIP3    H132636   5.513   2.591   7.753 -1.1761 -3.9348  1.0636
 3667TIP3    H232637   5.472   2.687   7.863 -0.5989  0.1821 -2.0533
 3668TIP3   OH232638   6.655   0.060   1.780  0.1664 -0.6285 -0.4277
 3668TIP3    H132639   6.642   0.057   1.685  1.8549  0.5628 -0.7630
 3668TIP3    H232640   6.730   0.003   1.796  0.5269 -0.0387  0.0342
 3669TIP3   OH232641   1.054   6.905   1.776 -0.2028 -0.1275  0.3358
 3669TIP3    H132642   1.071   6.957   1.854 -0.5199 -1.2491  1.1746
 3669TIP3    H232643   0.990   6.956   1.726 -3.5585 -1.3847  3.0123
 3670TIP3   OH232644   4.847   0.966   8.300  0.6921  0.2900  0.6071
 3670TIP3    H132645   4.926   0.952   8.352  0.1152 -0.5759  1.2738
 3670TIP3    H232646   4.830   0.881   8.259  0.2995  0.5678  0.1910
 3671TIP3   OH232647   5.603   1.560   1.897 -0.0691  0.0583 -0.5202
 3671TIP3    H132648   5.671   1.499   1.925 -0.2366  0.2506  0.3095
 3671TIP3    H232649   5.550   1.509   1.836 -1.7762 -1.5425  2.1172
 3672TIP3   OH232650   0.506   1.806   0.881  0.0179 -0.3832 -0.3867
 3672TIP3    H132651   0.472   1.896   0.881 -1.0103 -0.7565 -0.6968
 3672TIP3    H232652   0.601   1.817   0.874 -0.1485  0.6701 -1.6358
 3673TIP3   OH232653   1.867   6.286   7.177  0.3217  0.1102 -0.1191
 3673TIP3    H132654   1.795   6.226   7.194 -0.0801  0.0970 -1.7597
 3673TIP3    H232655   1.850   6.321   7.089  2.4939 -0.1817 -0.7123
 3674TIP3   OH232656   5.815   3.070   7.994 -0.4324  0.0286  0.6217
 3674TIP3    H132657   5.818   3.165   7.984 -1.3484 -0.0210 -0.2306
 3674TIP3    H232658   5.775   3.057   8.081 -0.5268  0.4247  0.6401
 3675TIP3   OH232659   3.062   3.832   0.648 -0.2374 -0.4360  0.0089
 3675TIP3    H132660   3.156   3.810   0.644 -0.1854 -0.1733 -0.2466
 3675TIP3    H232661   3.052   3.904   0.585 -0.8096 -1.1773 -0.7764
 3676TIP3   OH232662   3.981   4.450   3.360 -0.2403 -0.0943 -0.1249
 3676TIP3    H132663   4.040   4.384   3.397 -0.9547 -0.9400 -0.4434
 3676TIP3    H232664   4.028   4.486   3.285  0.3635  0.1179  0.3519
 3677TIP3   OH232665   1.710   6.126   1.640  0.1794 -0.7659 -0.2625
 3677TIP3    H132666   1.685   6.067   1.711 -3.8531 -0.5829 -1.3005
 3677TIP3    H232667   1.799   6.100   1.617 -0.6977 -5.2929  0.5190
 3678TIP3   OH232668   1.086   6.431   0.564 -0.6390 -0.2071  0.5179
 3678TIP3    H132669   1.022   6.416   0.495 -1.0152 -1.3575  1.0806
 3678TIP3    H232670   1.063   6.367   0.632  1.8786 -1.6066  0.2060
 3679TIP3   OH232671   0.161   2.932   7.954 -0.4386 -0.2752 -0.1210
 3679TIP3    H132672   0.168   2.839   7.931 -1.9902 -0.2652 -0.7707
 3679TIP3    H232673   0.134   2.975   7.873 -1.4035  0.4767  0.5665
 3680TIP3   OH232674   6.701   5.042   1.285 -0.3712  0.6354  0.0448
 3680TIP3    H132675   6.635   5.073   1.224 -0.7812  0.1110  0.2134
 3680TIP3    H232676   6.701   5.106   1.356  0.7512  1.7491 -0.9196
 3681TIP3   OH232677   1.904   4.215   7.920  0.3911 -0.4063  0.2435
 3681TIP3    H132678   1.845   4.249   7.988 -0.8650  1.5332 -1.6739
 3681TIP3    H232679   1.922   4.291   7.864  1.7956 -1.8010 -1.3111
 3682TIP3   OH232680   4.961   3.733   7.915  0.6523  0.8707  0.0160
 3682TIP3    H132681   5.032   3.781   7.874  1.0764  0.2226 -0.0202
 3682TIP3    H232682   4.925   3.679   7.845  0.2590  1.0350  0.0868
 3683TIP3   OH232683   4.014   3.437   2.142 -0.3929  0.0776  0.2715
 3683TIP3    H132684   3.959   3.467   2.069 -0.2520  1.6467  0.7755
 3683TIP3    H232685   3.954   3.434   2.217 -0.2582 -0.2976  0.3661
 3684TIP3   OH232686   5.901   1.178   8.100 -0.3133  0.5569 -0.3131
 3684TIP3    H132687   5.950   1.180   8.182 -1.0090  1.7790  0.0932
 3684TIP3    H232688   5.865   1.266   8.091  2.1333  1.4059 -3.4344
 3685TIP3   OH232689   1.515   2.597   1.892  0.2477 -0.3540  0.2303
 3685TIP3    H132690   1.601   2.634   1.872  0.9227 -1.4164  1.0518
 3685TIP3    H232691   1.484   2.561   1.809  1.6853 -2.0754  0.3759
 3686TIP3   OH232692   0.378   6.259   7.480 -0.6660  0.3871 -0.2463
 3686TIP3    H132693   0.332   6.201   7.540 -1.1585  0.9701 -0.0534
 3686TIP3    H232694   0.439   6.308   7.535 -0.6897  0.4940 -0.3140
 3687TIP3   OH232695   0.482   1.979   7.325 -0.1180  0.2169 -0.0244
 3687TIP3    H132696   0.461   2.029   7.247  0.9017  0.1341 -0.3688
 3687TIP3    H232697   0.401   1.932   7.347 -0.1088 -0.5986 -1.6483
 3688TIP3   OH232698   2.560   5.108   0.039 -0.0567 -0.1915 -0.3484
 3688TIP3    H132699   2.487   5.055   0.007 -0.5421  2.0226 -3.3499
 3688TIP3    H232700   2.609   5.132  -0.039  3.5969 -0.9536  1.4779
 3689TIP3   OH232701   6.609   5.333   7.860 -0.1159  0.4330 -0.6057
 3689TIP3    H132702   6.654   5.372   7.935  0.3532  0.1339 -0.7262
 3689TIP3    H232703   6.516   5.344   7.879 -0.0323 -0.6900  0.6000
 3690TIP3   OH232704   0.915   6.634   0.093  0.3132  0.0203  0.0751
 3690TIP3    H132705   0.959   6.562   0.049 -1.1075 -1.0251  0.3223
 3690TIP3    H232706   0.838   6.595   0.134  0.7908  1.2001  2.2922
 3691TIP3   OH232707   5.180   1.583   7.197  0.0109 -0.4515  0.0397
 3691TIP3    H132708   5.220   1.559   7.113 -0.4145  1.3998 -0.7246
 3691TIP3    H232709   5.254   1.610   7.252  0.1608 -0.4855 -0.1452
 3692TIP3   OH232710   0.253   2.008   7.842 -0.3890 -0.1796 -0.0128
 3692TIP3    H132711   0.229   2.089   7.796 -0.1054  0.5367  1.0581
 3692TIP3    H232712   0.323   1.970   7.788  0.7015  1.2006  0.3534
 3693TIP3   OH232713   1.599   5.607   2.576  0.1387 -0.2370 -0.3169
 3693TIP3    H132714   1.566   5.584   2.663  0.6851 -0.1002 -0.0690
 3693TIP3    H232715   1.541   5.677   2.547 -1.0915 -1.3975 -0.7760
 3694TIP3   OH232716   3.617   6.532   1.530 -0.5589  0.4025  0.1876
 3694TIP3    H132717   3.618   6.507   1.622 -0.7052 -1.9822 -0.4052
 3694TIP3    H232718   3.524   6.534   1.506 -0.5098  0.7496  0.0028
 3695TIP3   OH232719   0.374   0.287   8.036 -0.1989  0.1974  0.1893
 3695TIP3    H132720   0.379   0.274   7.941 -1.2338  0.7619  0.0418
 3695TIP3    H232721   0.376   0.382   8.048 -1.6008  0.1947  0.6146
 3696TIP3   OH232722   4.721   2.974   8.230 -0.2892 -0.0220 -0.1114
 3696TIP3    H132723   4.761   2.917   8.296 -1.8142  1.2145  2.0102
 3696TIP3    H232724   4.794   3.000   8.174  0.7348 -2.6503 -0.1444
 3697TIP3   OH232725   4.962   2.450   1.303 -0.0021  0.2388  0.1125
 3697TIP3    H132726   4.912   2.413   1.230  0.1111 -0.1691  0.2408
 3697TIP3    H232727   5.041   2.485   1.262  0.6086 -1.0150  0.1717
 3698TIP3   OH232728   3.830   3.273   2.731  0.8799  0.0963  0.5978
 3698TIP3    H132729   3.736   3.288   2.739  0.5752 -0.4495 -1.4719
 3698TIP3    H232730   3.839   3.177   2.733  1.5344  0.1589  1.8461
 3699TIP3   OH232731   4.827   4.417   7.608  0.1052 -0.2625 -0.2014
 3699TIP3    H132732   4.741   4.378   7.592  0.5373 -0.5522 -2.0658
 3699TIP3    H232733   4.879   4.346   7.646  0.8373 -1.6067 -3.4105
 3700TIP3   OH232734   4.876   1.617   1.355  0.1706  0.1683  0.4017
 3700TIP3    H132735   4.815   1.560   1.307  0.6845  0.3964 -0.5468
 3700TIP3    H232736   4.822   1.660   1.421 -0.8476  0.8964 -0.8786
 3701TIP3   OH232737   6.514   3.673   3.061  0.2873  0.0529  0.0544
 3701TIP3    H132738   6.424   3.696   3.083  0.3103  1.6001 -1.2758
 3701TIP3    H232739   6.526   3.585   3.097 -1.4787  0.1352  0.9534
 3702TIP3   OH232740   5.656   6.285   7.377 -0.5422  0.2866 -0.4880
 3702TIP3    H132741   5.699   6.368   7.355 -0.4219 -0.0102 -1.4449
 3702TIP3    H232742   5.590   6.308   7.442  0.8110  0.8053  0.7510
 3703TIP3   OH232743   0.544   5.230   6.791  0.3873  0.6031 -0.3647
 3703TIP3    H132744   0.512   5.320   6.799 -1.3729  0.0500 -0.7055
 3703TIP3    H232745   0.635   5.239   6.763  0.3214  2.2719 -0.1434
 3704TIP3   OH232746   0.377   5.436   1.908 -0.4006  0.1693 -0.3318
 3704TIP3    H132747   0.390   5.529   1.922 -1.8465  0.3268  0.0959
 3704TIP3    H232748   0.355   5.401   1.995  0.6342 -0.6640 -0.3909
 3705TIP3   OH232749   3.494   4.498   1.898 -0.7114  0.6603  0.3345
 3705TIP3    H132750   3.549   4.513   1.974  1.2012  1.1473 -1.0594
 3705TIP3    H232751   3.550   4.520   1.823 -2.3438 -0.2347 -1.2402
 3706TIP3   OH232752   6.388   6.376   1.905  0.1872 -0.0366 -0.4315
 3706TIP3    H132753   6.317   6.378   1.969 -0.2109  0.0996 -0.8706
 3706TIP3    H232754   6.459   6.328   1.949 -0.3816 -0.6887 -0.2033
 3707TIP3   OH232755   2.767   1.484   2.263  0.2782 -0.2419  0.5645
 3707TIP3    H132756   2.695   1.540   2.234 -1.0196 -1.8608  0.4771
 3707TIP3    H232757   2.846   1.526   2.228 -0.8216  0.4094 -1.2914
 3708TIP3   OH232758   0.900   4.781   2.226  0.4372 -0.5240 -0.4717
 3708TIP3    H132759   0.949   4.781   2.309 -0.0951  1.3280 -0.1014
 3708TIP3    H232760   0.932   4.858   2.179 -0.4218 -0.6357 -1.2731
 3709TIP3   OH232761   4.813   6.335   1.648  0.1342 -0.0286 -0.4562
 3709TIP3    H132762   4.825   6.242   1.667  0.6014  0.0814 -0.1957
 3709TIP3    H232763   4.726   6.340   1.608  0.3314 -0.6509 -0.9855
 3710TIP3   OH232764   0.428   3.549   1.896 -0.0965  0.3963  0.4927
 3710TIP3    H132765   0.348   3.597   1.875 -1.4580 -1.3617  1.3638
 3710TIP3    H232766   0.463   3.593   1.973 -1.3551 -0.0009  1.3222
 3711TIP3   OH232767   5.617   5.066   1.835 -0.1391 -0.4233  0.8336
 3711TIP3    H132768   5.564   5.146   1.840 -0.3017 -0.4209 -0.5740
 3711TIP3    H232769   5.664   5.074   1.752 -2.1646 -2.9805 -0.6886
 3712TIP3   OH232770   2.886   5.510   0.765  0.0355  0.2732  0.1961
 3712TIP3    H132771   2.959   5.523   0.705 -0.1691  0.6129  0.0196
 3712TIP3    H232772   2.814   5.560   0.727  0.2416  1.5016  1.3636
 3713TIP3   OH232773   0.298   0.514   0.445  0.5323  0.0363 -0.2920
 3713TIP3    H132774   0.337   0.529   0.531  0.9044  0.5801 -0.5513
 3713TIP3    H232775   0.295   0.418   0.436  0.9991 -0.0152  0.0950
 3714TIP3   OH232776   3.303   4.553   0.925 -0.7683  0.1634 -0.2767
 3714TIP3    H132777   3.394   4.555   0.896  0.2562  1.0550  2.5794
 3714TIP3    H232778   3.251   4.555   0.845  1.7042 -0.9085 -2.0207
 3715TIP3   OH232779   0.780   1.408   8.062 -0.6316 -0.0623 -0.4265
 3715TIP3    H132780   0.705   1.404   8.002 -0.4081 -0.1358 -0.7079
 3715TIP3    H232781   0.829   1.485   8.033 -1.2495  0.7143  0.5470
 3716TIP3   OH232782   4.160   3.971   0.930  0.0078  0.2745 -0.1874
 3716TIP3    H132783   4.240   3.919   0.924  0.3468  0.8432 -0.7322
 3716TIP3    H232784   4.177   4.033   1.001 -0.0109  0.2925 -0.1985
 3717TIP3   OH232785   2.278   3.246   0.729 -0.2521  0.4502  0.2165
 3717TIP3    H132786   2.320   3.262   0.645 -1.4957  0.3588 -0.4452
 3717TIP3    H232787   2.221   3.321   0.742 -1.2534 -0.2898  0.2069
 3718TIP3   OH232788   1.909   5.107   1.854  0.4420 -0.0024 -0.1410
 3718TIP3    H132789   1.939   5.084   1.942  0.1616 -1.5475 -0.4225
 3718TIP3    H232790   1.954   5.190   1.834  0.2746  0.5290  1.5521
 3719TIP3   OH232791   4.286   4.106   2.575  0.5630  0.2065  0.7641
 3719TIP3    H132792   4.264   4.038   2.512 -0.5002 -0.9455  2.2809
 3719TIP3    H232793   4.287   4.187   2.524 -1.5579 -0.4801 -0.5266
 3720TIP3   OH232794   6.701   1.406   1.989 -0.1748 -0.0990 -0.0917
 3720TIP3    H132795   6.782   1.360   1.969 -0.2849 -0.4839  0.3232
 3720TIP3    H232796   6.711   1.433   2.081  0.6048  2.2178 -0.7925
 3721TIP3   OH232797   1.064   4.766   0.356 -0.1067  0.2359  0.0091
 3721TIP3    H132798   1.131   4.796   0.418 -0.1408  1.0038 -0.3187
 3721TIP3    H232799   0.981   4.778   0.403 -0.0237 -0.9404  0.5069
 3722TIP3   OH232800   0.522   3.285   8.529  0.0461 -0.3093  0.9366
 3722TIP3    H132801   0.500   3.194   8.548 -0.0803  0.0171  2.5442
 3722TIP3    H232802   0.600   3.303   8.581  2.1849 -0.4259 -1.9966
 3723TIP3   OH232803   0.763   3.413   7.314  0.1805 -0.4107  0.1757
 3723TIP3    H132804   0.768   3.319   7.333 -0.3609 -1.0353 -2.4771
 3723TIP3    H232805   0.850   3.434   7.279 -1.3463 -1.5371 -5.2573
 3724TIP3   OH232806   3.032   2.283   8.142 -0.1874 -0.0007  0.3658
 3724TIP3    H132807   2.975   2.288   8.065  0.6518  0.8318 -0.2124
 3724TIP3    H232808   3.120   2.270   8.107  0.0973 -0.4911  1.2274
 3725TIP3   OH232809   6.211   2.597   2.028 -0.5342  0.4910  0.3368
 3725TIP3    H132810   6.194   2.506   2.002 -1.2116  0.7472 -0.1184
 3725TIP3    H232811   6.257   2.589   2.112  0.9141 -0.3242 -0.4962
 3726TIP3   OH232812   5.845   1.296   0.833  0.2959 -0.4083  0.1768
 3726TIP3    H132813   5.853   1.318   0.926 -0.4303  1.4735 -0.1775
 3726TIP3    H232814   5.857   1.201   0.830  1.4143 -0.3691  2.0554
 3727TIP3   OH232815   4.110   6.700   1.523  0.0818 -0.1421  0.1178
 3727TIP3    H132816   4.034   6.642   1.526 -0.1340  0.0615 -0.8864
 3727TIP3    H232817   4.132   6.705   1.430 -0.1790  1.7187  0.1155
 3728TIP3   OH232818   1.440   5.811   8.508 -0.0975 -0.6044 -0.4312
 3728TIP3    H132819   1.531   5.841   8.519 -0.2190 -0.6224  0.8113
 3728TIP3    H232820   1.448   5.727   8.462  0.5721 -0.9047  0.2074
 3729TIP3   OH232821   4.586   0.164   7.799  0.4025 -0.2481  0.1527
 3729TIP3    H132822   4.532   0.121   7.733 -0.6616 -0.9535  1.4350
 3729TIP3    H232823   4.665   0.111   7.805 -0.6449 -1.7514  1.3007
 3730TIP3   OH232824   4.401   6.778   7.765 -0.1538 -0.0875 -0.5761
 3730TIP3    H132825   4.404   6.806   7.856 -2.2793 -0.9251 -0.1801
 3730TIP3    H232826   4.487   6.740   7.748  0.2181 -0.0725  1.1380
 3731TIP3   OH232827   2.292   6.334   1.382  0.9170  0.0595 -0.7167
 3731TIP3    H132828   2.357   6.265   1.392  0.3036 -0.3656  0.5803
 3731TIP3    H232829   2.294   6.382   1.465 -1.5521 -1.0098  0.0563
 3732TIP3   OH232830   5.287   2.398   2.059 -0.1494 -0.4090  0.5696
 3732TIP3    H132831   5.210   2.396   2.116 -0.4940 -0.1886  0.1145
 3732TIP3    H232832   5.252   2.409   1.971  0.3903 -0.5965  0.3271
 3733TIP3   OH232833   4.120   5.155   0.986  0.3734  0.0522  0.0655
 3733TIP3    H132834   4.042   5.101   0.976  0.7172 -0.3302 -0.6431
 3733TIP3    H232835   4.094   5.241   0.953 -0.0930  0.2725  0.9468
 3734TIP3   OH232836   3.396   5.011   2.791  0.2983 -0.2548 -0.0001
 3734TIP3    H132837   3.375   4.945   2.724 -0.7042  1.7144 -1.7479
 3734TIP3    H232838   3.323   5.008   2.852 -0.8655  0.6272 -1.2708
 3735TIP3   OH232839   4.591   4.174   8.228  0.2432  0.6269  0.0197
 3735TIP3    H132840   4.559   4.137   8.310  0.2325  0.5187 -0.0327
 3735TIP3    H232841   4.530   4.142   8.161  1.9861 -1.9071 -0.5102
 3736TIP3   OH232842   0.981   0.484   2.295 -0.7162 -0.0701 -0.0733
 3736TIP3    H132843   1.075   0.465   2.305 -0.2707  1.4329 -0.9565
 3736TIP3    H232844   0.938   0.432   2.363  0.6619 -1.4817 -0.2081
 3737TIP3   OH232845   5.000   5.356   7.143  0.6446 -0.1934  0.6579
 3737TIP3    H132846   4.989   5.444   7.178  2.7317  0.2396  0.3046
 3737TIP3    H232847   4.997   5.368   7.048 -0.2791 -0.7061  0.6070
 3738TIP3   OH232848   4.472   3.007   8.388  0.1547  0.1374 -0.0094
 3738TIP3    H132849   4.549   3.015   8.332  2.7657 -2.3402  2.8824
 3738TIP3    H232850   4.492   3.062   8.464 -1.2377 -0.0461  0.5220
 3739TIP3   OH232851   2.725   2.125   0.331 -0.3879  0.2464 -0.8299
 3739TIP3    H132852   2.783   2.201   0.331 -2.2485  1.7664 -0.1776
 3739TIP3    H232853   2.653   2.150   0.273 -0.7739 -1.2585 -1.0367
 3740TIP3   OH232854   5.983   1.120   2.255 -0.1742 -0.0382 -0.0394
 3740TIP3    H132855   5.900   1.160   2.282  0.3716  0.3874  1.0936
 3740TIP3    H232856   6.047   1.157   2.316  0.8536 -0.3340 -0.9252
 3741TIP3   OH232857   6.289   6.554   7.584  0.5345  0.5043 -0.0582
 3741TIP3    H132858   6.307   6.467   7.548 -0.1825  0.5725 -0.6053
 3741TIP3    H232859   6.363   6.572   7.642  0.8183 -0.3604 -0.1399
 3742TIP3   OH232860   5.766   6.793   0.188  0.1677  0.4751 -0.1058
 3742TIP3    H132861   5.767   6.858   0.259  2.0668  1.3348 -0.8395
 3742TIP3    H232862   5.743   6.844   0.110 -0.0306 -0.0839 -0.4165
 3743TIP3   OH232863   6.721   4.705   7.699  0.2576  0.3999 -0.1476
 3743TIP3    H132864   6.717   4.784   7.644 -0.8858  1.2258  1.0591
 3743TIP3    H232865   6.781   4.647   7.653  0.4648  1.6367 -1.5158
 3744TIP3   OH232866   6.064   4.840   1.690  0.5487 -0.3908  0.3600
 3744TIP3    H132867   6.079   4.804   1.777  0.1566 -0.2968  0.4648
 3744TIP3    H232868   5.971   4.862   1.688  0.7601  0.5444  0.2693
 3745TIP3   OH232869   5.517   5.331   2.481  0.2728 -0.8791 -0.1529
 3745TIP3    H132870   5.467   5.365   2.407  0.3308 -1.9090 -0.6729
 3745TIP3    H232871   5.534   5.408   2.536  0.2721 -0.0960 -1.2291
 3746TIP3   OH232872   5.591   5.360   1.528 -0.2702 -0.4319  0.2140
 3746TIP3    H132873   5.655   5.309   1.577 -1.1659 -1.2675  0.5637
 3746TIP3    H232874   5.637   5.389   1.450  1.1084  0.6948  1.3945
 3747TIP3   OH232875   3.674   3.221   8.066  0.4984 -0.1580  0.2072
 3747TIP3    H132876   3.648   3.310   8.090 -1.1789 -0.7320  0.6400
 3747TIP3    H232877   3.600   3.167   8.092  1.5245 -1.7010  0.0111
 3748TIP3   OH232878   5.521   2.360   7.949  0.1245 -0.1476 -0.2624
 3748TIP3    H132879   5.612   2.377   7.926 -0.1130  0.8797 -0.4851
 3748TIP3    H232880   5.481   2.447   7.956 -0.8621 -0.5847 -0.2630
 3749TIP3   OH232881   0.785   1.578   0.700  0.4689 -0.3623 -0.6109
 3749TIP3    H132882   0.799   1.672   0.691  0.6077 -0.1476  1.4847
 3749TIP3    H232883   0.804   1.543   0.613  2.9684  1.2395 -0.8025
 3750TIP3   OH232884   4.081   1.941   1.688 -0.5268  0.0834  0.0883
 3750TIP3    H132885   4.137   1.951   1.765  0.6602  0.0296 -0.7309
 3750TIP3    H232886   4.087   2.026   1.643  0.0736 -0.3849 -0.7497
 3751TIP3   OH232887   0.195   3.053   1.132 -0.5569  0.1661  0.1021
 3751TIP3    H132888   0.167   2.997   1.205 -0.2217 -0.2135 -0.0569
 3751TIP3    H232889   0.184   2.999   1.054  0.4088  0.0713  0.0119
 3752TIP3   OH232890   1.298   6.853   0.060 -0.7862 -0.6837  0.1888
 3752TIP3    H132891   1.373   6.889   0.012 -1.4198  1.7570  0.8869
 3752TIP3    H232892   1.325   6.765   0.086  2.1155  0.3663  1.0172
 3753TIP3   OH232893   0.730   3.997   8.050 -0.3507 -0.2206  0.1621
 3753TIP3    H132894   0.711   4.006   8.143  0.7187 -3.3430  0.8146
 3753TIP3    H232895   0.649   3.963   8.012 -0.0825 -1.2049  0.4443
 3754TIP3   OH232896   4.308   3.672   8.091 -0.5837 -0.0551  0.0309
 3754TIP3    H132897   4.314   3.741   8.025 -1.2112 -1.2517 -1.3293
 3754TIP3    H232898   4.398   3.663   8.123 -0.5578  1.6553  0.5560
 3755TIP3   OH232899   1.807   6.057   7.500  0.0194  0.0758  0.4083
 3755TIP3    H132900   1.869   6.130   7.491 -2.0988  1.8935 -0.2148
 3755TIP3    H232901   1.764   6.051   7.415  0.4411 -2.3052  0.2673
 3756TIP3   OH232902   6.362   3.976   1.212 -0.6885  0.2883 -0.0191
 3756TIP3    H132903   6.293   4.037   1.187 -1.0013  1.0626  2.4731
 3756TIP3    H232904   6.316   3.905   1.257 -0.1218 -0.7818 -1.0757
 3757TIP3   OH232905   2.743   2.656   8.491 -0.0152  0.1801 -0.7969
 3757TIP3    H132906   2.654   2.634   8.462 -0.1987  0.7328 -0.6686
 3757TIP3    H232907   2.768   2.585   8.550 -1.5915  1.5465  1.6767
 3758TIP3   OH232908   1.944   6.007   1.506 -0.0145 -0.6035  0.3905
 3758TIP3    H132909   2.039   6.012   1.503 -0.0745  0.7076 -0.1792
 3758TIP3    H232910   1.924   5.914   1.519  1.3083 -1.0652 -0.7055
 3759TIP3   OH232911   0.845   1.877   8.265 -0.4559 -0.3939  0.2256
 3759TIP3    H132912   0.785   1.812   8.229 -0.2599 -0.3678 -0.1552
 3759TIP3    H232913   0.817   1.959   8.225 -0.5900 -0.2691  0.5678
 3760TIP3   OH232914   3.874   0.043   1.912  0.7177  0.4408  0.4034
 3760TIP3    H132915   3.962   0.076   1.928  0.3081  1.0797  1.5397
 3760TIP3    H232916   3.850   0.001   1.995  0.7667 -1.6863 -0.6191
 3761TIP3   OH232917   1.912   4.375   2.096  0.0214  0.0370  0.2190
 3761TIP3    H132918   1.857   4.365   2.174  1.1385  1.3818  1.2328
 3761TIP3    H232919   1.852   4.409   2.029 -0.3275  2.2149  1.5142
 3762TIP3   OH232920   3.889   2.727   0.393  0.1329  0.8336 -0.6858
 3762TIP3    H132921   3.902   2.642   0.349 -0.5375  0.1965  0.3264
 3762TIP3    H232922   3.971   2.741   0.441 -1.0762 -1.0931  2.1759
 3763TIP3   OH232923   6.181   3.168   0.847 -0.3413 -0.3061 -0.5488
 3763TIP3    H132924   6.165   3.260   0.868  0.4278 -0.1535 -0.6111
 3763TIP3    H232925   6.097   3.136   0.813 -1.3002 -0.2423  1.5873
 3764TIP3   OH232926   4.754   3.054   7.691 -0.6854  0.6311  0.1256
 3764TIP3    H132927   4.662   3.046   7.666 -0.7005 -0.6562  0.5260
 3764TIP3    H232928   4.752   3.054   7.787 -0.2475  0.2034  0.1371
 3765TIP3   OH232929   1.492   6.597   8.147  0.2283 -0.0633  0.0155
 3765TIP3    H132930   1.500   6.501   8.153  0.7062 -0.0567 -0.4114
 3765TIP3    H232931   1.454   6.623   8.231  0.4413 -0.5902  0.2842
 3766TIP3   OH232932   4.039   1.775   2.712 -0.0697  0.1474 -0.3102
 3766TIP3    H132933   4.063   1.696   2.663  0.5138  0.1446 -0.0404
 3766TIP3    H232934   4.093   1.844   2.674  2.2282 -0.3025  1.8241
 3767TIP3   OH232935   4.236   1.945   8.325  0.2731  0.4347 -0.4237
 3767TIP3    H132936   4.159   1.898   8.293  0.1272  0.1909  0.2803
 3767TIP3    H232937   4.289   1.878   8.368  0.7692  0.6459 -0.6983
 3768TIP3   OH232938   4.588   5.073   1.116 -0.3876 -0.1328  0.1545
 3768TIP3    H132939   4.523   5.013   1.082 -1.8403  1.7813 -0.6156
 3768TIP3    H232940   4.582   5.150   1.060  3.9770 -0.5566 -1.2556
 3769TIP3   OH232941   1.752   1.491   1.899 -0.5196  0.4841  0.0588
 3769TIP3    H132942   1.682   1.444   1.853 -1.5695  1.2809  0.7842
 3769TIP3    H232943   1.745   1.462   1.990 -0.4239  1.1784  0.2890
 3770TIP3   OH232944   6.132   2.973   0.215  0.3005  0.0933  0.3957
 3770TIP3    H132945   6.149   3.034   0.287 -0.0867  3.2927 -2.0246
 3770TIP3    H232946   6.037   2.961   0.216  0.3654 -0.4305  0.8044
 3771TIP3   OH232947   3.457   1.276   1.561  0.0458  0.4901  0.1772
 3771TIP3    H132948   3.421   1.187   1.565 -0.3251  0.5506 -1.3339
 3771TIP3    H232949   3.381   1.333   1.556  0.2714  0.9506  1.5776
 3772TIP3   OH232950   0.179   6.264   1.165 -0.3065 -0.7517 -0.1906
 3772TIP3    H132951   0.192   6.310   1.248 -0.9115  0.6039 -0.8212
 3772TIP3    H232952   0.205   6.174   1.184 -0.0146 -0.3789  1.3492
 3773TIP3   OH232953   6.783   5.989   7.247 -0.2621 -0.2578 -0.4888
 3773TIP3    H132954   6.844   6.014   7.177 -0.2760  1.1142 -0.0509
 3773TIP3    H232955   6.783   5.894   7.246  1.7917 -0.3018 -0.5957
 3774TIP3   OH232956   6.776   1.268   7.660 -0.0446  0.6855  0.5022
 3774TIP3    H132957   6.795   1.351   7.616 -2.3856  0.2293 -1.6450
 3774TIP3    H232958   6.818   1.201   7.606 -0.4085  0.3033  0.6851
 3775TIP3   OH232959   3.744   0.571   1.209  0.4637 -0.5077 -0.0913
 3775TIP3    H132960   3.705   0.610   1.287  0.1836 -1.3737  0.2086
 3775TIP3    H232961   3.824   0.621   1.194  0.3930 -0.1795  0.6053
 3776TIP3   OH232962   0.111   0.117   6.455 -0.0714 -0.3012  1.0465
 3776TIP3    H132963   0.092   0.024   6.441  1.2852 -0.4274 -0.2149
 3776TIP3    H232964   0.148   0.120   6.543 -0.0703 -0.9736  1.0770
 3777TIP3   OH232965   1.160   5.258   2.304 -0.0344  0.1642  0.1561
 3777TIP3    H132966   1.074   5.222   2.281 -0.5960  0.6863  1.3593
 3777TIP3    H232967   1.222   5.192   2.274 -0.8664 -0.3491 -0.4849
 3778TIP3   OH232968   0.368   5.629   8.288 -0.0481 -0.0722 -0.2236
 3778TIP3    H132969   0.393   5.631   8.380 -1.5383 -2.1778  0.2938
 3778TIP3    H232970   0.451   5.623   8.240  0.9953  4.1266  0.6736
 3779TIP3   OH232971   0.832   0.247   2.047 -0.0648  0.0957  0.3503
 3779TIP3    H132972   0.906   0.189   2.029 -0.4446 -0.8839  1.7309
 3779TIP3    H232973   0.779   0.245   1.968  1.2118  0.5786 -0.5434
 3780TIP3   OH232974   3.355   3.296   3.026 -0.0336 -0.4088 -0.3847
 3780TIP3    H132975   3.372   3.273   3.117  2.0321 -1.5385 -0.9859
 3780TIP3    H232976   3.288   3.235   2.997 -0.5679 -0.1607  0.3186
 3781TIP3   OH232977   0.515   0.730   0.452  0.1946 -0.0965 -0.4432
 3781TIP3    H132978   0.511   0.764   0.541  0.7565  1.6903 -1.0578
 3781TIP3    H232979   0.459   0.653   0.454  0.0387  0.0072  1.4013
 3782TIP3   OH232980   1.252   5.003   2.259 -0.7224 -0.7867 -0.6180
 3782TIP3    H132981   1.323   4.961   2.210 -1.5353 -0.0066 -2.5466
 3782TIP3    H232982   1.247   4.953   2.340  1.9651 -0.9124 -0.4329
 3783TIP3   OH232983   0.650   3.332   1.317  1.2354 -0.7298  0.4215
 3783TIP3    H132984   0.611   3.297   1.237  0.5177 -0.0975  0.4790
 3783TIP3    H232985   0.588   3.309   1.386  1.2248 -0.1848  0.5998
 3784TIP3   OH232986   1.422   6.721   8.372  0.2510 -0.0210  0.0280
 3784TIP3    H132987   1.346   6.775   8.352 -0.3771  0.0754  2.4307
 3784TIP3    H232988   1.488   6.782   8.404 -0.3488 -0.5533  2.4458
 3785TIP3   OH232989   3.094   0.117   7.252  0.8099 -0.4262  0.5816
 3785TIP3    H132990   3.165   0.074   7.299  1.2029  0.0711  0.4545
 3785TIP3    H232991   3.077   0.060   7.177  0.5435 -0.9440  1.0297
 3786TIP3   OH232992   0.530   1.326   7.900 -0.1471  0.1432 -0.3314
 3786TIP3    H132993   0.512   1.233   7.910  0.7332  0.0520  0.5043
 3786TIP3    H232994   0.589   1.331   7.825  1.7244 -0.2369  1.0548
 3787TIP3   OH232995   2.921   5.841   8.496 -0.8355  0.1737  0.1115
 3787TIP3    H132996   2.919   5.865   8.404  3.8651 -1.3480 -0.6523
 3787TIP3    H232997   2.974   5.909   8.537  1.9418 -1.9844  0.3888
 3788TIP3   OH232998   3.221   3.012   7.911  0.4529  0.1951 -0.5403
 3788TIP3    H132999   3.169   3.083   7.872  1.7630  1.3851 -0.2240
 3788TIP3    H233000   3.306   3.018   7.867  1.3299  0.3182  1.0926
 3789TIP3   OH233001   1.986   1.565   1.734 -0.1809 -0.1055 -0.4172
 3789TIP3    H133002   2.058   1.558   1.796 -1.1287  1.0655  0.8883
 3789TIP3    H233003   1.909   1.539   1.785 -0.6516 -1.8605 -1.9293
 3790TIP3   OH233004   2.241   1.415   7.638  0.5056 -0.0678  0.3383
 3790TIP3    H133005   2.310   1.419   7.703  1.0725  0.8482 -0.2927
 3790TIP3    H233006   2.287   1.407   7.554 -0.2256 -2.4815  0.0877
 3791TIP3   OH233007   3.710   5.386   1.132 -0.1367 -0.1700  0.1342
 3791TIP3    H133008   3.673   5.459   1.082  2.3744  1.0092 -0.1765
 3791TIP3    H233009   3.690   5.407   1.223 -0.7372  0.1135 -0.0607
 3792TIP3   OH233010   4.064   1.429   1.076  0.7323 -0.0634 -0.3476
 3792TIP3    H133011   4.088   1.508   1.123 -0.4026  0.4747 -0.6558
 3792TIP3    H233012   3.988   1.453   1.023  0.4640 -1.3088 -0.5811
 3793TIP3   OH233013   4.883   4.335   2.008  1.4399  0.0038 -0.5733
 3793TIP3    H133014   4.890   4.313   2.101  2.8466 -2.3566 -1.1386
 3793TIP3    H233015   4.876   4.250   1.964 -2.4993  1.1232 -2.4973
 3794TIP3   OH233016   0.900   0.910   1.655  0.5829  0.1113  0.2644
 3794TIP3    H133017   0.810   0.925   1.628  0.8368 -1.1076 -1.3633
 3794TIP3    H233018   0.893   0.868   1.741 -0.3329  1.1595  0.7240
 3795TIP3   OH233019   6.373   0.158   8.228  0.1799  0.0200 -0.2066
 3795TIP3    H133020   6.448   0.204   8.267 -0.6945  0.9999  0.3776
 3795TIP3    H233021   6.406   0.124   8.145  1.0430  1.1658 -0.3591
 3796TIP3   OH233022   5.568   3.617   7.321 -0.1471  0.4744 -0.4146
 3796TIP3    H133023   5.486   3.583   7.357 -0.1739  0.8234 -0.1427
 3796TIP3    H233024   5.626   3.541   7.319 -0.7296  0.0263 -1.3830
 3797TIP3   OH233025   6.467   5.646   1.053 -0.6692  0.2644 -0.0806
 3797TIP3    H133026   6.420   5.727   1.033  0.8222  0.6261 -2.5919
 3797TIP3    H233027   6.552   5.656   1.009 -0.2297 -2.4444 -0.0190
 3798TIP3   OH233028   6.362   0.328   2.677  0.8182 -0.0019  0.0473
 3798TIP3    H133029   6.339   0.327   2.585  2.2108 -0.8558 -0.3298
 3798TIP3    H233030   6.436   0.388   2.683  1.0687 -0.3452  0.5140
 3799TIP3   OH233031   6.674   3.946   6.551  0.0785 -0.4493  0.1754
 3799TIP3    H133032   6.739   3.964   6.618  0.0908  1.1147 -0.2199
 3799TIP3    H233033   6.724   3.936   6.470 -0.1105  0.0626 -0.0081
 3800TIP3   OH233034   1.040   5.430   1.010 -0.1872 -0.6816  0.3151
 3800TIP3    H133035   1.002   5.516   1.026 -0.8598 -0.6655 -1.1867
 3800TIP3    H233036   0.975   5.368   1.042 -1.9705 -0.6695 -2.9025
 3801TIP3   OH233037   4.296   0.534   0.709 -0.0866 -0.8783 -0.2576
 3801TIP3    H133038   4.291   0.470   0.779  0.0816 -0.4402  0.1577
 3801TIP3    H233039   4.296   0.619   0.753 -1.7079 -0.5310 -0.8475
 3802TIP3   OH233040   6.460   2.986   1.391  0.0072  0.4671  0.0197
 3802TIP3    H133041   6.520   2.981   1.466 -0.5875 -0.1478  0.4701
 3802TIP3    H233042   6.443   2.894   1.368  2.6970  0.5164 -2.9765
 3803TIP3   OH233043   2.070   1.665   8.134  0.0731  0.4878 -0.4609
 3803TIP3    H133044   1.996   1.700   8.183  0.8536  1.7001 -0.1156
 3803TIP3    H233045   2.123   1.620   8.200  0.7634  1.5164 -0.3004
 3804TIP3   OH233046   5.123   4.860   0.797  0.1700  0.0060  0.0885
 3804TIP3    H133047   5.132   4.892   0.886 -0.0874 -1.5783  0.7175
 3804TIP3    H233048   5.033   4.829   0.791  0.8753 -2.2753  0.1550
 3805TIP3   OH233049   5.810   0.299   1.819  0.0264 -0.1640  0.1359
 3805TIP3    H133050   5.819   0.272   1.728 -0.7762 -1.1154  0.3239
 3805TIP3    H233051   5.899   0.326   1.845  0.4173 -0.6185 -0.6879
 3806TIP3   OH233052   1.969   2.029   7.943 -0.0787 -0.0346  0.5196
 3806TIP3    H133053   2.022   2.103   7.915 -0.8972  0.3712  0.0159
 3806TIP3    H233054   2.013   1.952   7.907 -0.4437  0.3842 -0.8481
 3807TIP3   OH233055   4.902   2.734   8.032 -0.2859 -0.3781  0.4516
 3807TIP3    H133056   4.986   2.750   7.989 -0.3056  0.7440  0.7946
 3807TIP3    H233057   4.899   2.639   8.045  1.7601 -0.2830  2.0878
 3808TIP3   OH233058   2.604   4.558   2.013 -0.0420 -0.5014  0.4600
 3808TIP3    H133059   2.689   4.600   2.020 -0.3019  0.2540 -0.6760
 3808TIP3    H233060   2.586   4.555   1.919 -0.7856 -1.6398  0.6159
 3809TIP3   OH233061   1.004   4.070   2.433 -0.0439 -0.2984  0.0906
 3809TIP3    H133062   1.031   4.016   2.507 -2.3488 -1.4873  0.1532
 3809TIP3    H233063   1.055   4.038   2.359  0.1161 -1.1525  0.5629
 3810TIP3   OH233064   1.112   4.220   1.906 -0.3442 -0.2703  0.5577
 3810TIP3    H133065   1.059   4.275   1.963 -1.2816  0.6590 -1.1385
 3810TIP3    H233066   1.077   4.235   1.818  0.3449 -2.4564 -0.1654
 3811TIP3   OH233067   3.630   0.501   1.996 -0.4576  0.0709  0.1722
 3811TIP3    H133068   3.546   0.523   2.037  0.0901  1.2482  0.7176
 3811TIP3    H233069   3.670   0.438   2.056 -1.5526 -1.6174 -0.8208
 3812TIP3   OH233070   0.253   4.744   8.043  0.0128 -0.1422  0.0613
 3812TIP3    H133071   0.343   4.717   8.024 -0.7107 -1.8843 -1.2354
 3812TIP3    H233072   0.225   4.687   8.114 -0.3431 -0.2407 -0.1537
 3813TIP3   OH233073   5.101   5.797   7.620 -0.6975 -0.1871 -0.3177
 3813TIP3    H133074   5.034   5.855   7.584  0.8082  2.0139  0.2338
 3813TIP3    H233075   5.139   5.845   7.693  2.4182 -0.6545 -1.4347
 3814TIP3   OH233076   1.058   6.273   1.030  0.3389  0.5558  0.2201
 3814TIP3    H133077   0.966   6.291   1.052  0.3232  3.2615 -1.6134
 3814TIP3    H233078   1.106   6.298   1.109 -0.4364 -0.4561  1.0431
 3815TIP3   OH233079   0.641   3.408   7.976 -0.1269  0.2781  0.7426
 3815TIP3    H133080   0.589   3.465   8.033 -1.9789  1.3155 -1.7879
 3815TIP3    H233081   0.686   3.469   7.917  1.8966 -0.7472  1.1619
 3816TIP3   OH233082   5.778   2.420   0.466  0.8311 -1.0672  0.1008
 3816TIP3    H133083   5.725   2.428   0.545  0.7263 -0.7841  0.0027
 3816TIP3    H233084   5.748   2.491   0.409  1.9467 -0.3074  0.4223
 3817TIP3   OH233085   4.388   2.552   7.238  0.4252  0.4872 -0.0796
 3817TIP3    H133086   4.388   2.577   7.331  0.1974  1.3890 -0.3114
 3817TIP3    H233087   4.472   2.584   7.205  1.6869 -2.1146  0.3694
 3818TIP3   OH233088   3.620   1.017   3.562  0.5245  0.3012 -0.1766
 3818TIP3    H133089   3.683   1.047   3.496  0.4729  1.2533  0.1812
 3818TIP3    H233090   3.535   1.043   3.526  0.4687  0.5019  0.1025
 3819TIP3   OH233091   1.592   1.944   7.219 -0.0624  0.4303 -0.3867
 3819TIP3    H133092   1.557   2.000   7.150 -0.1573 -0.0375 -0.7248
 3819TIP3    H233093   1.534   1.960   7.294  0.9001  2.0137  0.0536
 3820TIP3   OH233094   4.395   3.675   2.206 -0.2087 -0.5602  0.6313
 3820TIP3    H133095   4.420   3.584   2.186  1.4858 -0.4193  1.9291
 3820TIP3    H233096   4.309   3.685   2.164 -0.3123 -2.6647  0.1983
 3821TIP3   OH233097   5.273   0.653   7.873  0.0170 -0.1422 -0.2016
 3821TIP3    H133098   5.323   0.573   7.861 -0.5085 -0.5312  0.1629
 3821TIP3    H233099   5.286   0.676   7.965 -0.1112  0.0001 -0.2191
 3822TIP3   OH233100   3.712   3.942   0.193  0.6427  0.5616  0.1161
 3822TIP3    H133101   3.637   3.922   0.138  0.6968 -2.0518  0.8869
 3822TIP3    H233102   3.686   4.021   0.241 -1.0717  0.4528 -0.5636
 3823TIP3   OH233103   5.443   3.996   7.378  0.2443 -0.4867  0.2092
 3823TIP3    H133104   5.519   3.977   7.433  0.6583 -0.0903 -0.2152
 3823TIP3    H233105   5.381   4.039   7.437 -0.3098 -2.2024  0.9478
 3824TIP3   OH233106   2.770   6.647   1.259 -0.1471 -0.1147 -0.1924
 3824TIP3    H133107   2.842   6.706   1.235 -2.1443  1.7763 -1.9758
 3824TIP3    H233108   2.762   6.587   1.185 -1.0681  0.3857 -0.5065
 3825TIP3   OH233109   4.227   4.601   1.700 -0.4872  0.7344 -0.4165
 3825TIP3    H133110   4.193   4.634   1.783 -2.6244 -0.1663 -0.8613
 3825TIP3    H233111   4.298   4.660   1.678 -1.5117  2.5316  0.8168
 3826TIP3   OH233112   3.645   1.558   2.142 -0.4225 -0.3309  0.2477
 3826TIP3    H133113   3.576   1.624   2.133 -1.1528 -1.1707 -0.6053
 3826TIP3    H233114   3.606   1.479   2.104  0.5966 -1.1272  0.8312
 3827TIP3   OH233115   0.635   6.322   0.653  0.3609  0.5224  0.2554
 3827TIP3    H133116   0.673   6.238   0.678  1.3984  0.6414 -0.8420
 3827TIP3    H233117   0.696   6.358   0.589 -1.7482  0.5651 -1.8961
 3828TIP3   OH233118   4.544   4.747   1.930 -0.1942  0.3137  0.2825
 3828TIP3    H133119   4.471   4.780   1.878 -0.3891  1.0698  1.0125
 3828TIP3    H233120   4.611   4.722   1.866 -1.1816 -0.6317 -0.4065
 3829TIP3   OH233121   0.912   4.731   0.726  0.1693  0.4071 -0.2546
 3829TIP3    H133122   0.888   4.750   0.636  0.3328  1.4342 -0.0880
 3829TIP3    H233123   0.951   4.812   0.759 -0.6790  0.3345  0.9990
 3830TIP3   OH233124   0.592   4.581   1.391 -0.0453 -0.7033  0.5353
 3830TIP3    H133125   0.518   4.543   1.438 -0.2002  0.8465  1.6053
 3830TIP3    H233126   0.582   4.675   1.402  0.0769 -0.2466 -2.3880
 3831TIP3   OH233127   1.151   6.510   1.654  0.6373  0.3373  0.4782
 3831TIP3    H133128   1.084   6.548   1.711  0.5606  0.8150  0.0771
 3831TIP3    H233129   1.232   6.521   1.703  0.7418  1.8229  0.0083
 3832TIP3   OH233130   4.251   5.727   3.066  0.1275  0.4380 -0.3843
 3832TIP3    H133131   4.208   5.768   3.140 -0.9663  0.0063 -0.7605
 3832TIP3    H233132   4.187   5.664   3.033  1.6270 -1.4318  0.0427
 3833TIP3   OH233133   5.114   4.590   2.625  0.4296  0.1880  0.4474
 3833TIP3    H133134   5.085   4.669   2.580 -1.4110 -0.1716  0.8997
 3833TIP3    H233135   5.036   4.534   2.627  1.7667 -1.8239 -0.2060
 3834TIP3   OH233136   1.892   6.279   7.823 -0.6049 -0.6087 -0.1633
 3834TIP3    H133137   1.971   6.294   7.875 -0.3207  1.0559 -1.0341
 3834TIP3    H233138   1.923   6.258   7.735 -1.1204 -2.0652 -0.0408
 3835TIP3   OH233139   1.359   4.405   8.457  0.2623 -0.4713  0.5346
 3835TIP3    H133140   1.376   4.312   8.445  1.6393 -0.2517  0.6405
 3835TIP3    H233141   1.369   4.443   8.370  1.8078 -0.1312  0.8358
 3836TIP3   OH233142   4.672   4.973   8.235  0.8731 -0.1834  0.7969
 3836TIP3    H133143   4.740   4.911   8.209  0.1024 -0.7123  0.0029
 3836TIP3    H233144   4.720   5.043   8.280  1.9414 -0.5508  0.2616
 3837TIP3   OH233145   1.957   0.368   7.861  0.2099 -0.0387 -0.3975
 3837TIP3    H133146   1.883   0.426   7.875 -0.1014 -0.6090  0.3935
 3837TIP3    H233147   1.995   0.398   7.778 -0.6191  0.5552 -0.5831
 3838TIP3   OH233148   3.242   4.340   3.044 -0.7217  0.1984 -0.5858
 3838TIP3    H133149   3.245   4.260   2.991  2.4039 -0.2636  0.0679
 3838TIP3    H233150   3.246   4.310   3.134  2.3789  0.9498 -0.3368
 3839TIP3   OH233151   3.268   3.653   8.419  0.1094 -0.3707  0.0959
 3839TIP3    H133152   3.335   3.601   8.374 -0.3402 -1.8435  1.0630
 3839TIP3    H233153   3.238   3.597   8.490  1.2302  2.0663  2.7047
 3840TIP3   OH233154   4.921   4.991   7.503 -0.4075 -0.5431  0.1264
 3840TIP3    H133155   4.857   5.024   7.566 -0.4584 -0.0935 -0.1628
 3840TIP3    H233156   4.987   4.947   7.557  1.1089  2.3196  0.7897
 3841TIP3   OH233157   2.142   2.412   7.686  0.5541  0.2979 -0.1098
 3841TIP3    H133158   2.165   2.469   7.612 -0.1538 -1.6761 -1.9470
 3841TIP3    H233159   2.069   2.359   7.654 -0.4420  0.0006  2.3716
 3842TIP3   OH233160   3.597   3.992   8.202 -0.0657 -0.0810  0.2992
 3842TIP3    H133161   3.520   3.951   8.242  1.3978 -0.9483  2.3940
 3842TIP3    H233162   3.567   4.017   8.114 -2.8735  0.0982  1.1868
 3843TIP3   OH233163   6.115   0.481   2.729  0.2929 -0.9393  0.4216
 3843TIP3    H133164   6.205   0.450   2.724 -0.0089 -1.6903 -0.5217
 3843TIP3    H233165   6.122   0.576   2.721  0.8670 -1.1145 -1.9159
 3844TIP3   OH233166   6.086   3.335   7.165  0.2532 -0.5834 -0.1744
 3844TIP3    H133167   6.086   3.303   7.075  1.8646  0.0065 -0.4061
 3844TIP3    H233168   6.037   3.268   7.214  2.0416 -2.5819 -0.9438
 3845TIP3   OH233169   3.102   6.877   0.170 -0.0330 -0.0328  0.1392
 3845TIP3    H133170   3.085   6.855   0.261  2.0906  0.2700  0.6636
 3845TIP3    H233171   3.172   6.818   0.143  0.3688  0.8492 -0.8415
 3846TIP3   OH233172   0.529   1.586   2.085  0.6932 -0.4603  0.2560
 3846TIP3    H133173   0.482   1.550   2.009  0.2975  2.3458 -0.9333
 3846TIP3    H233174   0.464   1.641   2.129  1.1791 -1.3587  2.1868
 3847TIP3   OH233175   3.555   3.526   7.846  0.8666  0.1163 -0.5019
 3847TIP3    H133176   3.644   3.498   7.825  0.7752 -0.6923  0.1561
 3847TIP3    H233177   3.533   3.590   7.777  1.5699 -0.4418 -1.2606
 3848TIP3   OH233178   5.236   3.271   0.318 -0.3050  0.1396  0.2849
 3848TIP3    H133179   5.184   3.237   0.245  0.3009 -0.5362  0.1577
 3848TIP3    H233180   5.184   3.251   0.396  0.1522 -1.3189  0.2305
 3849TIP3   OH233181   6.624   1.271   1.354 -0.0457  0.1010 -0.5323
 3849TIP3    H133182   6.529   1.281   1.349  0.0387  1.7428  0.4395
 3849TIP3    H233183   6.659   1.358   1.333  1.1878 -0.1484  0.3751
 3850TIP3   OH233184   6.383   4.144   2.182  0.0885 -0.0614 -0.7230
 3850TIP3    H133185   6.370   4.049   2.178  1.4769 -0.2615 -1.1907
 3850TIP3    H233186   6.418   4.160   2.269 -1.0649  0.1666 -0.2884
 3851TIP3   OH233187   0.533   6.330   0.329 -0.7388  0.2968  0.1058
 3851TIP3    H133188   0.623   6.362   0.338 -0.9690  0.8477  0.4977
 3851TIP3    H233189   0.525   6.262   0.396  0.3846 -2.1251 -2.0181
 3852TIP3   OH233190   2.416   1.231   2.699  0.8357 -0.5072  0.1038
 3852TIP3    H133191   2.326   1.220   2.730  1.5098 -0.0962  2.3380
 3852TIP3    H233192   2.413   1.312   2.647  0.2894  0.7460  1.9630
 3853TIP3   OH233193   5.626   3.072   0.849  0.0596  0.0828 -0.6078
 3853TIP3    H133194   5.550   3.070   0.907 -0.0486  1.0934 -0.7102
 3853TIP3    H233195   5.605   3.010   0.780 -0.6228  0.2719 -0.5728
 3854TIP3   OH233196   0.148   2.276   1.452  0.2882  0.8668 -0.1501
 3854TIP3    H133197   0.229   2.322   1.475  0.6739  0.1882 -0.1175
 3854TIP3    H233198   0.083   2.308   1.514  0.5099  1.4857 -0.2327
 3855TIP3   OH233199   5.001   3.855   0.622  0.2828 -0.0047 -0.4887
 3855TIP3    H133200   5.035   3.944   0.613 -0.2372  0.5627  2.2216
 3855TIP3    H233201   5.074   3.805   0.659  0.0763 -0.3320 -0.5156
 3856TIP3   OH233202   0.104   4.768   0.617 -0.1612 -0.1308  0.2254
 3856TIP3    H133203   0.170   4.825   0.578 -1.5221  1.0687 -0.4240
 3856TIP3    H233204   0.136   4.752   0.706  1.8474 -1.0335 -0.5943
 3857TIP3   OH233205   3.334   0.654   0.052 -0.0282  0.2154 -0.2607
 3857TIP3    H133206   3.381   0.676   0.133  0.0955 -2.1474  0.3946
 3857TIP3    H233207   3.401   0.621  -0.007 -0.3718  0.2002 -0.6485
 3858TIP3   OH233208   3.958   1.675   0.797  0.5587  0.3925 -0.0565
 3858TIP3    H133209   3.967   1.763   0.761 -0.5652 -0.3303 -2.3621
 3858TIP3    H233210   3.865   1.666   0.817  0.7512 -0.0887  0.6435
 3859TIP3   OH233211   0.483   1.166   1.592  0.2757  0.0703 -0.2412
 3859TIP3    H133212   0.415   1.199   1.533 -1.5587 -0.8732  1.2482
 3859TIP3    H233213   0.480   1.071   1.580 -0.0296 -0.1223  1.2225
 3860TIP3   OH233214   4.888   3.568   1.083  0.0851 -0.2082  0.0102
 3860TIP3    H133215   4.881   3.561   0.988  0.3957  0.7515 -0.0996
 3860TIP3    H233216   4.982   3.576   1.100 -0.0100  0.2553  0.3362
 3861TIP3   OH233217   6.492   6.843   0.990  0.3773 -0.1058  0.9694
 3861TIP3    H133218   6.523   6.923   0.946  0.4234 -0.9913 -0.6732
 3861TIP3    H233219   6.543   6.773   0.950  0.0953 -1.0130  2.1577
 3862TIP3   OH233220   4.681   0.229   7.418 -0.2451  0.3493 -0.1849
 3862TIP3    H133221   4.635   0.305   7.382 -0.1592 -0.0618 -1.1867
 3862TIP3    H233222   4.619   0.156   7.408  0.0072  0.1118 -0.0433
 3863TIP3   OH233223   2.757   6.598   0.795 -0.1260  0.7307 -0.2303
 3863TIP3    H133224   2.736   6.667   0.858  2.0155  1.0322  0.2497
 3863TIP3    H233225   2.748   6.640   0.709 -0.1852  1.2081  0.0062
 3864TIP3   OH233226   3.358   3.374   7.990  0.0376 -0.7697 -0.1732
 3864TIP3    H133227   3.421   3.421   7.936  1.0611 -1.6480  0.2166
 3864TIP3    H233228   3.308   3.320   7.929 -0.9995  0.6187 -0.5976
 3865TIP3   OH233229   1.771   3.561   7.434  0.8162 -0.1194  0.0515
 3865TIP3    H133230   1.827   3.499   7.479  0.8243 -0.3629 -0.2890
 3865TIP3    H233231   1.694   3.570   7.490  0.3718 -1.1804 -0.3671
 3866TIP3   OH233232   1.389   6.039   7.327 -0.0677  0.6098  0.1515
 3866TIP3    H133233   1.412   6.075   7.413 -1.6441  0.5775  0.6217
 3866TIP3    H233234   1.404   6.111   7.266  0.7310  0.7440  0.5003
 3867TIP3   OH233235   6.559   6.711   6.859  0.7130 -0.2172 -0.4418
 3867TIP3    H133236   6.509   6.792   6.850  1.9668  0.5874 -0.4810
 3867TIP3    H233237   6.623   6.715   6.788  1.2076 -0.9332 -0.0485
 3868TIP3   OH233238   0.034   6.377   1.820  0.0790  0.6058  0.0604
 3868TIP3    H133239   0.030   6.294   1.868  1.1973  0.3805 -0.2018
 3868TIP3    H233240  -0.055   6.393   1.792  0.0184 -1.0549 -0.7947
 3869TIP3   OH233241   3.548   5.681   0.550  0.4852  0.0250  0.4879
 3869TIP3    H133242   3.509   5.743   0.488  1.8857 -0.1346 -0.6032
 3869TIP3    H233243   3.642   5.687   0.533  0.6363 -2.7382  0.0211
 3870TIP3   OH233244   5.533   0.313   1.285 -0.0279 -0.1470  0.0563
 3870TIP3    H133245   5.445   0.340   1.312 -0.4476  0.9847 -2.1730
 3870TIP3    H233246   5.545   0.226   1.323 -2.1823 -0.4014  0.2528
 3871TIP3   OH233247   5.754   3.609   8.170 -0.4956  0.4049 -0.0789
 3871TIP3    H133248   5.677   3.657   8.201 -0.9707 -0.7339  0.5498
 3871TIP3    H233249   5.815   3.611   8.244 -0.2230  0.6688 -0.3109
 3872TIP3   OH233250   4.999   2.109   2.324 -0.4891  0.3282  0.2873
 3872TIP3    H133251   4.995   2.030   2.270  0.8587  0.2724  0.2382
 3872TIP3    H233252   4.936   2.094   2.394 -0.0314 -0.9142  0.4392
 3873TIP3   OH233253   1.775   5.787   6.696  0.9337 -0.2587 -0.4478
 3873TIP3    H133254   1.774   5.701   6.653  2.4251  0.4605 -2.0124
 3873TIP3    H233255   1.706   5.781   6.762 -0.8670 -1.7483 -2.3142
 3874TIP3   OH233256   5.779   2.477   0.054  0.5619  0.4361  0.5381
 3874TIP3    H133257   5.791   2.452  -0.038 -1.1124 -1.8147  0.8484
 3874TIP3    H233258   5.808   2.400   0.103 -0.8261  0.6702  1.7721
 3875TIP3   OH233259   4.340   0.410   1.353 -0.3042  0.3068  0.9297
 3875TIP3    H133260   4.289   0.354   1.295 -0.6085  0.2686  1.2356
 3875TIP3    H233261   4.381   0.350   1.415  1.2697  0.1810 -0.1686
 3876TIP3   OH233262   1.605   5.956   1.300  0.6472  0.2013 -0.6580
 3876TIP3    H133263   1.536   5.966   1.365  1.2957 -0.8650  0.2154
 3876TIP3    H233264   1.665   6.029   1.318  0.5179  0.2613 -0.4662
 3877TIP3   OH233265   5.490   0.171   0.074 -0.2863  0.2976 -0.2312
 3877TIP3    H133266   5.457   0.175  -0.016 -0.5713  0.4011 -0.1201
 3877TIP3    H233267   5.424   0.123   0.123  0.3033 -0.5808 -0.2658
 3878TIP3   OH233268   2.921   2.143   7.894  0.1145  0.2893 -0.4563
 3878TIP3    H133269   2.880   2.131   7.809 -0.3379 -1.8354 -0.0062
 3878TIP3    H233270   2.864   2.096   7.955  2.2273 -1.2589  0.4676
 3879TIP3   OH233271   1.771   5.623   7.194 -0.0329  0.1976  0.9118
 3879TIP3    H133272   1.707   5.563   7.233 -0.5304  0.4169  0.4463
 3879TIP3    H233273   1.746   5.629   7.102  3.2671 -3.2056 -0.4882
 3880TIP3   OH233274   6.820   5.672   7.593  0.5243  0.1216  0.1617
 3880TIP3    H133275   6.868   5.720   7.661  1.5549  0.6139 -0.8866
 3880TIP3    H233276   6.855   5.583   7.598  1.5295  0.4607 -0.5493
 3881TIP3   OH233277   3.883   6.472   7.823  0.6056  0.2672  0.4323
 3881TIP3    H133278   3.970   6.485   7.860  1.7889 -0.7358 -1.7972
 3881TIP3    H233279   3.885   6.382   7.790 -1.2689  0.2438  0.2972
 3882TIP3   OH233280   5.924   2.838   1.225 -0.1549 -0.1212 -0.1027
 3882TIP3    H133281   5.915   2.927   1.192 -1.2884 -0.6811 -1.3943
 3882TIP3    H233282   5.961   2.789   1.152  0.3221 -0.7508  0.5531
 3883TIP3   OH233283   6.828   5.220   8.503  0.1220 -0.0195 -0.4447
 3883TIP3    H133284   6.817   5.133   8.465  1.9499 -0.1143 -0.8625
 3883TIP3    H233285   6.887   5.265   8.443 -0.7856  1.5142 -0.2164
 3884TIP3   OH233286   2.223   5.775   0.850 -0.0761  0.0884 -0.3703
 3884TIP3    H133287   2.141   5.796   0.806 -0.9074 -0.7426  0.7210
 3884TIP3    H233288   2.204   5.788   0.943  0.7686 -0.8890 -0.0377
 3885TIP3   OH233289   5.781   1.431   8.047  0.1189 -0.1509  0.3587
 3885TIP3    H133290   5.807   1.513   8.006 -0.2243  0.4941  1.4063
 3885TIP3    H233291   5.686   1.425   8.031 -0.5484  1.3797  3.1351
 3886TIP3   OH233292   2.586   2.683   0.887 -0.4189 -0.7189 -0.0192
 3886TIP3    H133293   2.646   2.611   0.909  0.2693  0.0121  0.5864
 3886TIP3    H233294   2.562   2.720   0.972 -2.9896 -1.9428 -0.1389
 3887TIP3   OH233295   4.903   3.496   3.219  0.1072 -0.3079 -0.0170
 3887TIP3    H133296   4.935   3.549   3.293  0.6956 -1.7945  0.8307
 3887TIP3    H233297   4.897   3.559   3.147 -2.0906  1.5817  1.6311
 3888TIP3   OH233298   5.324   3.693   7.116 -0.3938  0.1108 -0.3182
 3888TIP3    H133299   5.349   3.713   7.206 -1.1314  0.3236 -0.1491
 3888TIP3    H233300   5.402   3.711   7.064  0.9919 -2.6708  0.5753
 3889TIP3   OH233301   3.309   1.588   1.961 -0.1018  0.2015  0.0154
 3889TIP3    H133302   3.228   1.635   1.939 -0.6877 -0.6871  0.1906
 3889TIP3    H233303   3.349   1.640   2.030  0.1879  1.3854 -1.0013
 3890TIP3   OH233304   2.298   6.833   7.855 -0.1485 -1.0303  0.1467
 3890TIP3    H133305   2.389   6.853   7.833 -0.7503  0.9440 -0.8271
 3890TIP3    H233306   2.269   6.774   7.786 -0.0511 -0.3162 -0.5291
 3891TIP3   OH233307   3.435   5.652   1.713 -0.0131 -0.4462 -0.2689
 3891TIP3    H133308   3.489   5.721   1.675  0.8965 -1.0983 -0.1804
 3891TIP3    H233309   3.373   5.698   1.770  0.8000  0.2672  0.0555
 3892TIP3   OH233310   6.391   4.224   0.933 -0.6754 -0.3463  0.7637
 3892TIP3    H133311   6.395   4.306   0.883  0.4507 -2.6898 -3.5105
 3892TIP3    H233312   6.462   4.232   0.997 -0.0233  1.7021 -0.1325
 3893TIP3   OH233313   6.361   0.714   1.877 -0.2307  0.4539  0.1557
 3893TIP3    H133314   6.281   0.663   1.889  0.6646 -1.4401 -1.3818
 3893TIP3    H233315   6.405   0.711   1.962 -1.5198  1.1070  0.8758
 3894TIP3   OH233316   1.178   2.561   0.823  0.8306 -0.5505 -0.1704
 3894TIP3    H133317   1.110   2.581   0.759  1.1452  1.8396  0.1431
 3894TIP3    H233318   1.255   2.539   0.771  0.6689 -0.1172 -0.6007
 3895TIP3   OH233319   5.515   2.007   6.425 -0.3051 -0.2685 -0.0662
 3895TIP3    H133320   5.463   1.953   6.484 -2.1255  0.6903 -0.7073
 3895TIP3    H233321   5.458   2.020   6.349  1.6191 -0.7239 -1.6571
 3896TIP3   OH233322   5.636   2.801   8.409 -0.0043  0.5085 -0.3435
 3896TIP3    H133323   5.659   2.893   8.426  0.0201  0.4784 -0.2065
 3896TIP3    H233324   5.663   2.785   8.319 -0.1199  0.6705 -0.4068
 3897TIP3   OH233325   3.544   6.099   2.188  0.4721  0.4127  0.1928
 3897TIP3    H133326   3.557   6.037   2.259  2.9438  1.9787  1.2410
 3897TIP3    H233327   3.602   6.068   2.118 -0.5552 -0.0771 -0.4743
 3898TIP3   OH233328   1.398   5.887   1.491  0.0126  0.3476 -0.7349
 3898TIP3    H133329   1.395   5.794   1.471  0.2258  0.0721  0.4588
 3898TIP3    H233330   1.375   5.893   1.583  2.8280  1.1472  0.0353
 3899TIP3   OH233331   3.108   3.005   8.163 -0.0405 -0.5764  0.0960
 3899TIP3    H133332   3.022   3.042   8.142  0.2843 -0.3576 -0.8756
 3899TIP3    H233333   3.156   3.007   8.081  0.5259 -1.7194  0.3715
 3900TIP3   OH233334   6.031   4.880   1.344  0.3577 -0.1689  0.0007
 3900TIP3    H133335   5.967   4.931   1.294  0.3484  0.2327  0.4135
 3900TIP3    H233336   6.103   4.940   1.359  0.0122 -0.0176  1.1638
 3901TIP3   OH233337   0.650   0.178   7.959 -0.3561 -0.1860 -0.0804
 3901TIP3    H133338   0.594   0.180   8.037 -1.7451  0.2764 -1.0592
 3901TIP3    H233339   0.637   0.090   7.923  0.6322 -0.5563  0.4249
 3902TIP3   OH233340   6.140   1.767   1.053 -0.2300  0.0345 -0.1948
 3902TIP3    H133341   6.156   1.777   1.146  1.1031  2.7767 -0.6137
 3902TIP3    H233342   6.049   1.741   1.046  0.2985 -2.7807  1.9001
 3903TIP3   OH233343   4.493   4.357   8.002  0.1928 -0.0905  0.3844
 3903TIP3    H133344   4.576   4.318   8.030  0.4516  1.0802  1.3135
 3903TIP3    H233345   4.470   4.417   8.072 -0.0928  1.5901 -1.0827
 3904TIP3   OH233346   4.012   3.897   0.422  0.4004  0.1818  0.2487
 3904TIP3    H133347   4.096   3.901   0.467  0.5895  0.0630 -0.0867
 3904TIP3    H233348   3.960   3.834   0.472 -0.2621  1.8362  1.7201
 3905TIP3   OH233349   6.235   2.464   7.830 -0.1080 -0.3338 -0.6972
 3905TIP3    H133350   6.273   2.552   7.834 -0.6364 -0.1539  2.3087
 3905TIP3    H233351   6.142   2.479   7.815 -0.1576 -0.3858 -0.4452
 3906TIP3   OH233352   1.868   2.463   1.035 -0.0418  0.2448  0.0508
 3906TIP3    H133353   1.772   2.466   1.033 -0.0283  1.6262  0.4321
 3906TIP3    H233354   1.892   2.522   1.106  1.0847 -0.7777  0.5587
 3907TIP3   OH233355   2.250   4.340   1.203 -0.2726  0.7810  0.6437
 3907TIP3    H133356   2.254   4.417   1.261  2.0615  1.6554 -0.5498
 3907TIP3    H233357   2.213   4.374   1.122  1.2518  0.8008 -0.0630
 3908TIP3   OH233358   3.574   6.351   2.290  0.3482  0.6269 -0.3279
 3908TIP3    H133359   3.554   6.260   2.269 -1.5028  0.9100  0.0056
 3908TIP3    H233360   3.603   6.389   2.208 -1.0135  0.2546 -1.0048
 3909TIP3   OH233361   1.583   2.746   7.777  0.0376 -0.0450 -0.2315
 3909TIP3    H133362   1.583   2.824   7.832  1.5315  0.6291 -1.1160
 3909TIP3    H233363   1.645   2.687   7.818  0.2186 -0.0530 -0.5141
 3910TIP3   OH233364   2.913   1.974   0.745 -0.2405  0.0278  0.7781
 3910TIP3    H133365   2.971   1.898   0.758  2.6017  1.9242  0.0644
 3910TIP3    H233366   2.877   1.962   0.657  2.3086  0.6994 -0.4504
 3911TIP3   OH233367   5.725   3.478   7.593 -0.1157 -0.3067 -0.0208
 3911TIP3    H133368   5.716   3.423   7.515  1.7798 -0.8013  0.0647
 3911TIP3    H233369   5.818   3.472   7.616 -0.6537 -0.3263  2.3837
 3912TIP3   OH233370   6.226   6.502   1.636 -0.0395  0.3038 -0.2915
 3912TIP3    H133371   6.238   6.597   1.642  0.7125  0.0993  3.4407
 3912TIP3    H233372   6.310   6.470   1.602 -0.4775  0.9235 -2.0901
 3913TIP3   OH233373   2.393   1.141   1.982  0.2273 -0.1094  0.1441
 3913TIP3    H133374   2.462   1.156   2.047  2.4797 -4.6566 -0.8076
 3913TIP3    H233375   2.437   1.152   1.898 -0.4808 -1.8662 -0.5008
 3914TIP3   OH233376   5.196   0.634   2.314 -0.2649  0.0607 -0.3705
 3914TIP3    H133377   5.213   0.719   2.274  2.0052 -0.0160  0.3035
 3914TIP3    H233378   5.271   0.618   2.371 -1.5949 -1.5048  1.0741
 3915TIP3   OH233379   3.758   2.323   2.900  0.1508 -0.4180  0.0343
 3915TIP3    H133380   3.687   2.366   2.947 -0.6704  0.5810 -1.9770
 3915TIP3    H233381   3.815   2.287   2.968 -3.0427 -2.6347  1.7351
 3916TIP3   OH233382   6.676   5.414   6.662 -0.1796  0.3257 -0.0209
 3916TIP3    H133383   6.600   5.468   6.641 -0.3037 -0.2845 -1.2265
 3916TIP3    H233384   6.644   5.324   6.654  0.3904  0.0717  0.5442
 3917TIP3   OH233385   5.520   5.790   7.329 -0.1764  0.0445  0.2247
 3917TIP3    H133386   5.541   5.839   7.409  2.0365 -0.9374  0.3073
 3917TIP3    H233387   5.432   5.756   7.345  0.3761 -0.5217  2.4949
 3918TIP3   OH233388   6.466   4.471   1.721  0.5560  0.0979  0.4134
 3918TIP3    H133389   6.438   4.502   1.807  3.1328  0.0665  1.3689
 3918TIP3    H233390   6.441   4.379   1.719 -0.1495  0.2777  0.8304
 3919TIP3   OH233391   1.872   2.880   1.558 -1.0706  0.1281 -0.2027
 3919TIP3    H133392   1.900   2.894   1.468 -2.8810  1.9216 -0.5510
 3919TIP3    H233393   1.908   2.954   1.607  0.2240 -1.0262  0.6802
 3920TIP3   OH233394   0.338   0.395   7.094  0.0539 -0.1187  0.1730
 3920TIP3    H133395   0.291   0.321   7.055  1.6907 -0.9839 -0.2343
 3920TIP3    H233396   0.428   0.384   7.065  0.8078  0.7060  2.0707
 3921TIP3   OH233397   4.124   1.524   2.637  0.3112  0.0009 -0.3914
 3921TIP3    H133398   4.218   1.535   2.648  0.2980 -1.8591  2.9405
 3921TIP3    H233399   4.094   1.489   2.721 -3.6356  2.0041 -0.7077
 3922TIP3   OH233400   6.138   6.191   2.327  0.2644 -0.2725  0.2402
 3922TIP3    H133401   6.189   6.268   2.301  1.2307 -0.5204  1.3531
 3922TIP3    H233402   6.172   6.120   2.272 -0.6500  0.0736 -0.8103
 3923TIP3   OH233403   5.956   1.925   2.496 -0.5977 -0.4290  0.3309
 3923TIP3    H133404   5.899   1.956   2.566 -0.6462  2.0032 -0.6913
 3923TIP3    H233405   6.045   1.942   2.529 -0.6308  1.5993 -0.4829
 3924TIP3   OH233406   0.606   2.289   7.410 -0.3652  0.0934  0.0145
 3924TIP3    H133407   0.532   2.346   7.431 -0.5368  0.1696 -0.7717
 3924TIP3    H233408   0.635   2.317   7.324  1.0278  0.5086  0.5871
 3925TIP3   OH233409   6.293   1.703   2.443 -0.2911 -0.2587 -0.3592
 3925TIP3    H133410   6.252   1.790   2.448  0.7623  0.2973 -0.9359
 3925TIP3    H233411   6.307   1.678   2.535 -2.2775 -0.6803 -0.1174
 3926TIP3   OH233412   5.032   5.041   8.344  0.2696 -0.1348  0.3517
 3926TIP3    H133413   4.983   4.962   8.320  0.1655 -0.4743  1.5931
 3926TIP3    H233414   4.966   5.109   8.355 -0.1194 -0.8254  2.9755
 3927TIP3   OH233415   4.795   0.824   0.013  0.0791 -0.3076  0.3856
 3927TIP3    H133416   4.790   0.802   0.106  0.0657  2.0514  1.0034
 3927TIP3    H233417   4.729   0.892   0.001  0.4661 -0.1830 -1.2441
 3928TIP3   OH233418   6.445   3.761   7.048 -0.2046  0.7737  0.3878
 3928TIP3    H133419   6.462   3.757   6.954 -1.3638 -0.1590  0.1901
 3928TIP3    H233420   6.369   3.820   7.056 -1.4552 -0.7986  0.5019
 3929TIP3   OH233421   2.031   3.159   1.238 -0.2313  0.1594  0.3061
 3929TIP3    H133422   2.079   3.162   1.156  0.4095 -0.5286  0.6468
 3929TIP3    H233423   2.072   3.227   1.292  0.9194 -0.9315  0.8723
 3930TIP3   OH233424   4.848   5.511   1.992 -0.0501 -0.3512  0.0866
 3930TIP3    H133425   4.908   5.573   1.953 -0.2920 -0.3610 -0.3114
 3930TIP3    H233426   4.897   5.429   1.995 -0.5637 -0.7841 -1.7710
 3931TIP3   OH233427   0.471   5.250   1.742  0.2639 -0.1849  0.0971
 3931TIP3    H133428   0.429   5.313   1.801 -0.1070 -0.4583  0.1267
 3931TIP3    H233429   0.420   5.170   1.751  1.2642 -0.7843  0.7491
 3932TIP3   OH233430   1.024   1.247   0.911 -0.5102 -0.0063 -0.7007
 3932TIP3    H133431   1.018   1.259   1.006  0.1205 -0.9489 -0.5285
 3932TIP3    H233432   1.113   1.215   0.896 -0.9683 -0.9764 -1.4849
 3933TIP3   OH233433   5.024   1.899   0.555 -0.0979  0.0364  0.5216
 3933TIP3    H133434   5.084   1.962   0.514  0.4148 -1.2037 -0.7252
 3933TIP3    H233435   5.078   1.821   0.570 -1.3830 -1.1771 -0.7951
 3934TIP3   OH233436   3.702   6.650   7.719  0.2533 -0.1421 -0.2769
 3934TIP3    H133437   3.759   6.583   7.758  0.1439 -0.1118 -0.0611
 3934TIP3    H233438   3.683   6.709   7.792  1.4352  0.8740 -0.7656
 3935TIP3   OH233439   0.098   1.985   1.504 -0.4095  0.1193  0.0766
 3935TIP3    H133440   0.156   2.052   1.466 -0.1527 -1.7142 -3.0951
 3935TIP3    H233441   0.010   2.011   1.477 -0.6284  0.5511  1.1490
 3936TIP3   OH233442   3.454   5.379   1.737  0.2228  0.6245 -0.1595
 3936TIP3    H133443   3.450   5.474   1.744  1.0662  0.6536  0.0290
 3936TIP3    H233444   3.539   5.356   1.773 -0.6602 -0.3535  1.4328
 3937TIP3   OH233445   5.261   5.710   7.408  0.4375  0.2648  0.2780
 3937TIP3    H133446   5.207   5.634   7.385  0.5168  0.8618 -2.1337
 3937TIP3    H233447   5.215   5.749   7.483 -0.1388 -1.5624  0.9509
 3938TIP3   OH233448   0.713   6.179   2.171  0.7181 -0.4305 -0.0796
 3938TIP3    H133449   0.689   6.187   2.078  0.1330 -0.5804  0.0513
 3938TIP3    H233450   0.760   6.260   2.191  1.2904 -0.6190 -0.6325
 3939TIP3   OH233451   2.015   0.003   0.721 -0.1756 -0.0119 -0.5863
 3939TIP3    H133452   2.055  -0.065   0.666  2.2476  0.5385  0.3334
 3939TIP3    H233453   1.984  -0.045   0.798 -1.9799 -0.5432 -1.6008
 3940TIP3   OH233454   4.334   1.824   0.259  0.0925  0.0863 -0.1938
 3940TIP3    H133455   4.367   1.881   0.329 -2.1663  1.4444 -0.1424
 3940TIP3    H233456   4.412   1.778   0.228  1.4895  0.8255  1.9299
 3941TIP3   OH233457   2.595   0.961   0.213  0.4745 -0.1025 -0.3818
 3941TIP3    H133458   2.648   0.977   0.291 -0.0383  1.8886 -0.3738
 3941TIP3    H233459   2.602   0.867   0.197 -0.5392 -0.8252  2.8537
 3942TIP3   OH233460   5.004   0.217   1.660 -0.1161 -0.2942  0.2642
 3942TIP3    H133461   5.059   0.205   1.737 -0.0312 -1.4252  0.0407
 3942TIP3    H233462   5.023   0.141   1.604 -0.9314 -0.0279 -0.4025
 3943TIP3   OH233463   2.057   2.652   7.985 -0.0358  0.4734 -0.9727
 3943TIP3    H133464   2.061   2.740   8.022 -0.7830 -0.4820  1.6675
 3943TIP3    H233465   2.071   2.664   7.891 -0.1807  3.3826 -0.7133
 3944TIP3   OH233466   4.301   5.459   7.978 -0.0956  0.3406 -0.2615
 3944TIP3    H133467   4.258   5.444   7.894  1.7601 -0.6135 -1.0985
 3944TIP3    H233468   4.388   5.492   7.955 -0.7773  3.7222  1.3972
 3945TIP3   OH233469   1.975   0.446   1.895 -0.2022 -0.2544 -0.5452
 3945TIP3    H133470   2.040   0.510   1.922 -0.9938 -0.2333  1.4429
 3945TIP3    H233471   1.930   0.487   1.821 -0.1595  1.1268  0.1791
 3946TIP3   OH233472   2.401   6.395   0.856 -0.3711 -0.0524  0.6490
 3946TIP3    H133473   2.374   6.471   0.908 -0.6899 -0.6239  1.3247
 3946TIP3    H233474   2.485   6.369   0.894 -0.7936 -0.7129  1.1575
 3947TIP3   OH233475   2.717   0.837   2.091 -0.2339 -0.0375 -0.4240
 3947TIP3    H133476   2.740   0.763   2.035  1.4878 -0.5506  0.8909
 3947TIP3    H233477   2.722   0.802   2.180 -1.2293  1.1994  0.1437
 3948TIP3   OH233478   3.636   5.625   0.975 -0.1025 -0.5464  0.5255
 3948TIP3    H133479   3.541   5.635   0.985 -0.0046 -0.1743  1.1643
 3948TIP3    H233480   3.673   5.696   1.028  0.5260 -0.2600 -0.2830
 3949TIP3   OH233481   6.706   2.048   1.497 -0.3140  0.6781  0.5031
 3949TIP3    H133482   6.643   2.079   1.432 -0.3920  1.1912  0.8239
 3949TIP3    H233483   6.652   2.013   1.568 -0.2716 -1.8696 -0.5855
 3950TIP3   OH233484   5.801   2.233   1.272  0.3589 -0.0336  0.3844
 3950TIP3    H133485   5.857   2.236   1.194 -0.6229 -1.9601 -0.4650
 3950TIP3    H233486   5.726   2.289   1.250 -0.2687 -1.1451 -0.3898
 3951TIP3   OH233487   1.435   0.489   0.698  0.3065  0.2313 -0.1002
 3951TIP3    H133488   1.448   0.394   0.698 -0.8409  0.0020  2.4059
 3951TIP3    H233489   1.503   0.522   0.757  1.2403  1.1074 -1.6090
 3952TIP3   OH233490   4.220   2.700   1.522  0.3245  0.2234  0.0161
 3952TIP3    H133491   4.204   2.786   1.562 -0.3073 -1.3503  3.4916
 3952TIP3    H233492   4.141   2.683   1.470 -0.1573  1.1190  0.4254
 3953TIP3   OH233493   3.592   1.091   6.995 -0.3286 -0.2340  0.0131
 3953TIP3    H133494   3.677   1.047   6.994 -1.1858 -1.9717 -1.0436
 3953TIP3    H233495   3.565   1.094   6.903 -1.7511 -0.4017  0.3985
 3954TIP3   OH233496   5.890   3.117   0.852 -0.8999  0.0942 -0.5205
 3954TIP3    H133497   5.904   3.124   0.947  0.9208  1.4618 -0.8479
 3954TIP3    H233498   5.794   3.114   0.843 -1.1122 -0.1568  1.3533
 3955TIP3   OH233499   5.259   0.668   7.030  0.3697  0.1946 -0.0181
 3955TIP3    H133500   5.188   0.732   7.030  1.7289  1.8357  1.2149
 3955TIP3    H233501   5.250   0.621   6.948 -1.4870  1.0835 -0.3700
 3956TIP3   OH233502   6.723   3.526   2.810 -0.0170 -0.1092 -0.5586
 3956TIP3    H133503   6.790   3.487   2.866 -0.7044  1.5205  1.5073
 3956TIP3    H233504   6.696   3.606   2.855 -3.2454 -0.5919 -1.3368
 3957TIP3   OH233505   5.966   0.257   0.861  0.5985  0.0461  0.0030
 3957TIP3    H133506   5.970   0.340   0.908 -2.6375  0.7412 -0.7352
 3957TIP3    H233507   5.877   0.253   0.827  1.7113 -2.0847 -3.0493
 3958TIP3   OH233508   5.649   4.478   8.301 -0.6483  0.6216  0.0856
 3958TIP3    H133509   5.645   4.526   8.218 -0.2477  0.9625  0.2606
 3958TIP3    H233510   5.704   4.403   8.282 -1.4165  0.1247 -0.2350
 3959TIP3   OH233511   6.776   0.850   8.120 -0.1265 -0.0939 -0.4558
 3959TIP3    H133512   6.724   0.804   8.054  0.1590 -0.4513 -0.4304
 3959TIP3    H233513   6.828   0.782   8.162 -1.3246 -0.1147  1.1279
 3960TIP3   OH233514   5.066   0.523   0.312 -1.0978  0.1562  0.2027
 3960TIP3    H133515   5.146   0.563   0.279 -0.9043  0.2059  0.7321
 3960TIP3    H233516   5.031   0.475   0.237 -1.3985  1.4080 -0.4858
 3961TIP3   OH233517   4.699   2.459   0.827  0.0476  0.2175 -0.7367
 3961TIP3    H133518   4.701   2.506   0.911  0.2941  0.5753 -0.9431
 3961TIP3    H233519   4.765   2.391   0.836  0.3805  0.5296 -0.8001
 3962TIP3   OH233520   3.358   2.049   0.830 -0.8444 -0.0580  0.0614
 3962TIP3    H133521   3.396   1.989   0.894  0.0767  0.4272 -0.0075
 3962TIP3    H233522   3.398   2.024   0.747  1.4394  2.1005  0.3786
 3963TIP3   OH233523   1.165   6.425   0.062 -0.5272  0.0723 -0.0455
 3963TIP3    H133524   1.237   6.372   0.097  0.5983  1.6763  0.1882
 3963TIP3    H233525   1.204   6.512   0.049 -2.2364  0.7813 -0.6400
 3964TIP3   OH233526   6.808   2.486   8.045 -0.4709 -1.1171  0.2288
 3964TIP3    H133527   6.713   2.491   8.036 -0.5214 -0.0278  1.1627
 3964TIP3    H233528   6.830   2.398   8.014 -1.8000 -1.4733  0.2300
 3965TIP3   OH233529   3.322   2.472   8.330 -0.3920  0.1712  0.0865
 3965TIP3    H133530   3.287   2.546   8.378  0.6648 -0.7420  2.4532
 3965TIP3    H233531   3.326   2.401   8.395  2.7346 -0.6701 -0.8329
 3966TIP3   OH233532   3.814   0.949   7.098 -0.2834 -0.5333  0.2199
 3966TIP3    H133533   3.747   0.925   7.162 -0.4332  1.1962  0.7611
 3966TIP3    H233534   3.895   0.952   7.148  0.0235 -1.4505 -0.1902
 3967TIP3   OH233535   0.433   0.077   0.988 -0.3678  0.2245 -0.3780
 3967TIP3    H133536   0.471   0.007   1.041 -2.8525 -0.0314  1.2535
 3967TIP3    H233537   0.497   0.148   0.992  0.6710 -0.7320  0.8082
 3968TIP3   OH233538   0.883   0.934   3.216 -0.0439 -0.4826 -0.5438
 3968TIP3    H133539   0.927   0.880   3.150 -1.2339 -2.4003  0.1449
 3968TIP3    H233540   0.803   0.965   3.173  0.9261  1.3328 -1.1390
 3969TIP3   OH233541   3.059   1.477   0.271  0.8113  0.2276  0.7874
 3969TIP3    H133542   3.031   1.526   0.348 -0.0274  1.0742 -0.0347
 3969TIP3    H233543   3.003   1.509   0.201  0.5909 -1.5483  0.1074
 3970TIP3   OH233544   1.482   2.126   1.672 -0.4392 -0.5366 -0.4020
 3970TIP3    H133545   1.519   2.101   1.587 -2.1732 -1.4969 -0.9223
 3970TIP3    H233546   1.390   2.099   1.667 -0.8742  0.4821  1.3455
 3971TIP3   OH233547   5.092   4.595   1.795 -0.3661 -0.1873  0.6332
 3971TIP3    H133548   5.112   4.515   1.747 -2.1150 -0.6259  0.5441
 3971TIP3    H233549   5.127   4.665   1.740  2.2606 -0.8941  1.2955
 3972TIP3   OH233550   5.909   4.695   7.388  0.2815  0.7266 -0.3714
 3972TIP3    H133551   6.001   4.718   7.386 -0.0454  2.2008  0.2887
 3972TIP3    H233552   5.903   4.624   7.451  1.0062  0.3381 -0.7311
 3973TIP3   OH233553   1.043   5.767   0.622 -0.0872  0.4787  0.4783
 3973TIP3    H133554   1.135   5.786   0.604 -0.4552  1.8902 -0.0254
 3973TIP3    H233555   1.000   5.774   0.537 -0.4448 -1.7880  0.4072
 3974TIP3   OH233556   6.171   4.485   0.219  0.0804  0.5707 -0.0420
 3974TIP3    H133557   6.221   4.475   0.138 -0.2246  1.4403 -0.3482
 3974TIP3    H233558   6.227   4.448   0.287  0.6801  0.5738 -0.5287
 3975TIP3   OH233559   1.853   6.867   1.260  0.2510 -0.0216 -0.1210
 3975TIP3    H133560   1.947   6.860   1.273  0.7161 -0.4894 -3.0204
 3975TIP3    H233561   1.841   6.949   1.213 -0.5125 -0.9098 -1.5442
 3976TIP3   OH233562   6.210   2.814   7.745 -0.3051  0.8524  0.8052
 3976TIP3    H133563   6.123   2.815   7.785 -0.5895  1.9320  0.2125
 3976TIP3    H233564   6.199   2.762   7.665 -0.0907 -0.0635  1.3572
 3977TIP3   OH233565   4.451   5.299   7.050 -0.3458 -0.0182  0.2257
 3977TIP3    H133566   4.440   5.212   7.087 -1.6156  0.3214  0.6915
 3977TIP3    H233567   4.374   5.348   7.079  0.0469  1.0898 -0.5196
 3978TIP3   OH233568   4.564   3.717   8.532  0.4215  0.2664  0.3745
 3978TIP3    H133569   4.473   3.708   8.562  0.0756 -0.1220 -0.7697
 3978TIP3    H233570   4.557   3.746   8.442  1.4563  0.8950  0.4830
 3979TIP3   OH233571   3.553   6.138   8.291 -0.0670 -0.6221  0.6122
 3979TIP3    H133572   3.519   6.115   8.377  1.1524 -0.0300  1.2839
 3979TIP3    H233573   3.605   6.062   8.264  0.3498 -0.4315  0.8556
 3980TIP3   OH233574   2.307   1.730   1.568  0.0053 -0.0696  0.3744
 3980TIP3    H133575   2.259   1.728   1.486  1.2651  1.0012 -0.4377
 3980TIP3    H233576   2.262   1.795   1.621  0.5815  1.0367 -0.4367
 3981TIP3   OH233577   2.620   3.054   1.043  0.5973  0.3727  0.7359
 3981TIP3    H133578   2.690   3.084   1.101  1.5370  1.0943 -0.7249
 3981TIP3    H233579   2.664   3.025   0.964 -0.6231 -1.0992  0.5459
 3982TIP3   OH233580   4.156   4.903   1.767  0.1078  0.2159 -0.6004
 3982TIP3    H133581   4.184   4.892   1.676  0.1237 -0.7126 -0.4925
 3982TIP3    H233582   4.072   4.949   1.761 -0.1528 -0.3153 -1.1169
 3983TIP3   OH233583   6.849   6.367   8.438 -0.3454  0.4262 -0.7757
 3983TIP3    H133584   6.929   6.315   8.429 -1.0107 -0.3989 -2.3245
 3983TIP3    H233585   6.793   6.315   8.496 -0.1551  0.5225 -0.5010
 3984TIP3   OH233586   6.461   0.491   8.492 -0.7123  0.8733 -0.1156
 3984TIP3    H133587   6.404   0.414   8.481  0.5470  0.0846 -1.5023
 3984TIP3    H233588   6.523   0.465   8.560 -0.2923  0.6432 -0.5783
 3985TIP3   OH233589   3.378   0.727   0.539 -0.0351  0.3913 -0.0744
 3985TIP3    H133590   3.320   0.658   0.506 -1.1739  1.9072 -1.4306
 3985TIP3    H233591   3.401   0.699   0.628 -2.9469 -0.2762  0.5760
 3986TIP3   OH233592   3.703   0.501   0.753 -0.0323  0.1766  0.0451
 3986TIP3    H133593   3.679   0.416   0.718  1.5890  0.0291 -0.8017
 3986TIP3    H233594   3.728   0.484   0.844 -1.7596  0.1356  0.5467
 3987TIP3   OH233595   0.092   2.456   1.897  0.5901  0.1816 -0.0432
 3987TIP3    H133596   0.046   2.372   1.889  1.1480 -0.1620  0.2801
 3987TIP3    H233597   0.074   2.501   1.814 -1.7974  0.8206  0.7520
 3988TIP3   OH233598   6.543   1.350   0.865 -0.2395 -0.2180  0.3965
 3988TIP3    H133599   6.452   1.377   0.883 -0.4313 -0.7463  0.2410
 3988TIP3    H233600   6.568   1.300   0.942 -0.2026 -0.3754  0.2812
 3989TIP3   OH233601   2.790   6.832   0.965 -0.1654 -0.3258 -0.4422
 3989TIP3    H133602   2.785   6.904   0.903 -0.1162 -0.4628 -0.6056
 3989TIP3    H233603   2.866   6.851   1.019  0.7435 -1.0067 -1.4344
 3990TIP3   OH233604   6.517   6.000   0.397 -0.6188  0.4593 -0.4943
 3990TIP3    H133605   6.546   5.917   0.435 -1.2866 -0.0060 -0.9767
 3990TIP3    H233606   6.580   6.018   0.327  0.5203  1.2389  0.6894
 3991TIP3   OH233607   0.884   3.050   1.191  0.0636  0.1526 -0.0425
 3991TIP3    H133608   0.895   3.134   1.236 -0.0127  1.3574 -2.1125
 3991TIP3    H233609   0.891   3.072   1.098 -3.3026 -1.5900 -0.8687
 3992TIP3   OH233610   1.827   2.427   1.751 -0.1144  0.7621 -0.3787
 3992TIP3    H133611   1.810   2.371   1.827 -0.3919  0.4467 -0.6689
 3992TIP3    H233612   1.914   2.463   1.767  1.0919 -1.5190 -1.2294
 3993TIP3   OH233613   2.442   0.417   8.420  0.4483 -0.0504 -0.0114
 3993TIP3    H133614   2.386   0.378   8.486  0.5101  0.4337  0.3324
 3993TIP3    H233615   2.382   0.437   8.347  0.3670 -0.5023 -0.0733
 3994TIP3   OH233616   1.651   5.798   2.028 -0.2161  0.7492 -0.2164
 3994TIP3    H133617   1.738   5.763   2.047 -0.4972  0.7797  1.2430
 3994TIP3    H233618   1.623   5.838   2.111 -1.1492  1.7472 -0.9919
 3995TIP3   OH233619   2.543   3.354   1.911 -0.2274  0.1661 -0.6021
 3995TIP3    H133620   2.619   3.304   1.940 -1.0111 -1.0828 -0.6005
 3995TIP3    H233621   2.542   3.343   1.816 -1.4826 -1.5027 -0.4406
 3996TIP3   OH233622   4.254   2.187   0.981 -0.2195  0.0441  0.1264
 3996TIP3    H133623   4.218   2.103   0.953 -0.3614  0.6688 -1.6899
 3996TIP3    H233624   4.347   2.170   0.994 -0.7323 -1.1278  3.0276
 3997TIP3   OH233625   3.346   5.095   0.536  0.2171  0.1761  0.9203
 3997TIP3    H133626   3.432   5.059   0.515 -0.6374 -0.4851 -1.8099
 3997TIP3    H233627   3.324   5.055   0.621  1.9556 -0.8325  0.9428
 3998TIP3   OH233628   2.497   6.291   2.075  0.0221 -0.4483 -0.5112
 3998TIP3    H133629   2.408   6.326   2.071 -0.1863 -0.9883 -0.6291
 3998TIP3    H233630   2.517   6.288   2.168 -0.5826 -1.5709 -0.4095
 3999TIP3   OH233631   1.180   3.567   7.993 -0.1347 -0.3404 -0.3491
 3999TIP3    H133632   1.159   3.638   8.054  2.2289 -1.0889  1.5014
 3999TIP3    H233633   1.113   3.500   8.010 -0.2965  0.0163  0.4572
 4000TIP3   OH233634   1.461   4.619   7.771 -0.5052 -0.4501 -0.1299
 4000TIP3    H133635   1.531   4.663   7.821 -0.9801 -0.0530  0.1991
 4000TIP3    H233636   1.507   4.576   7.699  0.1791 -0.8635  0.5306
 4001TIP3   OH233637   1.634   6.317   7.894  0.4201  0.3739  0.5070
 4001TIP3    H133638   1.618   6.411   7.884  2.5535  0.7122 -0.2384
 4001TIP3    H233639   1.728   6.307   7.881  0.0443 -2.0694 -0.9591
 4002TIP3   OH233640   6.336   1.049   1.858  0.1806 -0.0206  0.0799
 4002TIP3    H133641   6.410   1.093   1.901  1.2763  0.7377 -2.3917
 4002TIP3    H233642   6.345   0.957   1.884  2.2678 -0.0218 -0.4612
 4003TIP3   OH233643   6.602   1.672   0.839 -0.1198  0.2366 -0.0534
 4003TIP3    H133644   6.554   1.589   0.845 -0.3576  0.4006  0.2960
 4003TIP3    H233645   6.683   1.656   0.888 -0.8673  0.7126  1.3838
 4004TIP3   OH233646   0.977   4.476   7.532  0.0034 -0.0563 -0.3458
 4004TIP3    H133647   0.981   4.563   7.493  1.7654  0.0696  0.0053
 4004TIP3    H233648   0.885   4.451   7.527 -0.6714  2.0865  0.1297
 4005TIP3   OH233649   0.572   6.075   7.856  0.5982  0.7703  0.0230
 4005TIP3    H133650   0.523   6.028   7.789  0.2352 -0.1232  0.8937
 4005TIP3    H233651   0.657   6.092   7.816  0.3329  0.3998 -0.7202
 4006TIP3   OH233652   3.203   6.087   7.799  0.1417 -0.4924 -0.4372
 4006TIP3    H133653   3.293   6.097   7.768  0.8039 -0.6133  1.3382
 4006TIP3    H233654   3.212   6.052   7.887 -1.5914  1.3390  0.5432
 4007TIP3   OH233655   5.206   5.461   7.909 -0.0513  0.2958  0.3402
 4007TIP3    H133656   5.235   5.547   7.938  0.7328 -0.3950  1.7637
 4007TIP3    H233657   5.268   5.437   7.840  0.2907  0.5113  0.5692
 4008TIP3   OH233658   2.746   2.033   7.715 -0.2510 -0.3151 -0.5336
 4008TIP3    H133659   2.746   1.938   7.714 -0.2903 -0.3331 -2.5016
 4008TIP3    H233660   2.654   2.057   7.725 -0.3024 -0.4847 -0.6066
 4009TIP3   OH233661   2.212   3.135   0.954  0.2688 -0.3564 -0.5707
 4009TIP3    H133662   2.288   3.139   1.012  0.6314 -0.8814 -0.9960
 4009TIP3    H233663   2.246   3.163   0.869 -0.3311  0.7176 -0.4774
 4010TIP3   OH233664   4.837   6.828   1.364  0.1408 -0.1431  0.3541
 4010TIP3    H133665   4.766   6.770   1.339  0.6508 -1.3917  1.6729
 4010TIP3    H233666   4.793   6.909   1.392 -0.7776 -0.9093  1.1889
 4011TIP3   OH233667   0.004   4.869   8.109  0.9180  0.0571 -0.5837
 4011TIP3    H133668  -0.059   4.850   8.038  0.1441  0.5631 -0.0485
 4011TIP3    H233669   0.085   4.826   8.080 -0.1406 -2.2136 -0.4541
 4012TIP3   OH233670   3.953   6.170   0.582 -0.0259 -0.6173 -0.9554
 4012TIP3    H133671   3.955   6.171   0.677  0.7724 -1.0864 -0.9626
 4012TIP3    H233672   3.870   6.127   0.560  0.1963 -1.3121 -0.4679
 4013TIP3   OH233673   6.739   1.682   2.234  0.8822  0.3706  0.1290
 4013TIP3    H133674   6.758   1.656   2.324  0.6010 -2.4015 -0.5281
 4013TIP3    H233675   6.809   1.642   2.182 -0.8417 -1.1223 -1.1902
 4014TIP3   OH233676   5.775   5.646   0.181  0.1142 -0.6010 -0.7125
 4014TIP3    H133677   5.734   5.605   0.105 -0.0490 -0.5708 -0.6401
 4014TIP3    H233678   5.809   5.729   0.147 -0.1193 -0.5041 -0.7125
 4015TIP3   OH233679   4.538   0.571   1.260 -0.0219  0.8384 -0.0763
 4015TIP3    H133680   4.615   0.553   1.314  1.0984  2.4394 -1.0473
 4015TIP3    H233681   4.465   0.534   1.309  1.1235  0.9831  1.8426
 4016TIP3   OH233682   0.046   5.913   0.688  0.1942  0.0813  0.1499
 4016TIP3    H133683  -0.041   5.874   0.693  0.2484 -0.0697 -0.0520
 4016TIP3    H233684   0.094   5.856   0.628  0.2428  0.5233 -0.2374
 4017TIP3   OH233685   6.150   2.836   2.590 -0.0637 -0.0680 -0.0954
 4017TIP3    H133686   6.165   2.885   2.671  0.6399 -0.1049 -0.1917
 4017TIP3    H233687   6.169   2.745   2.613  1.2022  0.0551 -0.5472
 4018TIP3   OH233688   4.835   3.626   1.956  0.2992  0.3334  0.0107
 4018TIP3    H133689   4.837   3.613   1.861  0.9691 -1.1830  0.2103
 4018TIP3    H233690   4.865   3.543   1.993  2.6228  1.7091  1.5054
 4019TIP3   OH233691   6.162   3.797   7.838 -0.8458  0.0904 -0.2288
 4019TIP3    H133692   6.206   3.759   7.762  0.9475  0.2448  0.6721
 4019TIP3    H233693   6.200   3.885   7.845 -2.8415  1.0370 -0.6004
 4020TIP3   OH233694   6.266   6.061   0.144  0.7454 -0.0592  0.2732
 4020TIP3    H133695   6.318   6.105   0.211 -0.6284  1.7471  0.2397
 4020TIP3    H233696   6.189   6.029   0.190  0.3925  0.0727 -0.2109
 4021TIP3   OH233697   5.084   4.990   7.999 -0.4945 -0.4655 -0.2192
 4021TIP3    H133698   5.066   5.082   8.018  0.3062 -0.4077  0.3276
 4021TIP3    H233699   5.178   4.987   7.981 -0.7911 -0.9184 -1.8695
 4022TIP3   OH233700   4.776   6.732   1.651  0.3019  0.6752 -0.2524
 4022TIP3    H133701   4.689   6.692   1.657  1.0290 -1.3379 -2.1420
 4022TIP3    H233702   4.759   6.826   1.658 -2.1603  0.4110 -1.5216
 4023TIP3   OH233703   0.830   5.887   2.646 -0.0793 -0.2805 -0.3033
 4023TIP3    H133704   0.788   5.956   2.594 -1.0153  0.4431  1.3384
 4023TIP3    H233705   0.804   5.806   2.604 -0.7866  0.2816 -0.9815
 4024TIP3   OH233706   6.303   6.012   6.854  0.3689  0.0357 -0.3164
 4024TIP3    H133707   6.297   5.932   6.801  2.4702 -1.2948  1.2627
 4024TIP3    H233708   6.395   6.014   6.883  0.1555  2.5877  0.4075
 4025TIP3   OH233709   3.090   4.328   1.937 -0.2503  0.4657 -0.0718
 4025TIP3    H133710   3.148   4.258   1.906 -0.1283  0.5746 -0.0916
 4025TIP3    H233711   3.063   4.300   2.024  0.6275  0.8786  0.3506
 4026TIP3   OH233712   6.029   3.364   8.246 -0.2355 -0.7280  0.2140
 4026TIP3    H133713   5.947   3.329   8.281  0.3132 -1.3678  0.8875
 4026TIP3    H233714   6.094   3.296   8.264 -0.1060 -1.6523 -3.0729
 4027TIP3   OH233715   4.349   0.362   2.648  0.3190  0.0387  0.2067
 4027TIP3    H133716   4.334   0.406   2.732  0.6490  0.7879 -0.1125
 4027TIP3    H233717   4.408   0.290   2.669  2.1020  1.4432  0.3358
 4028TIP3   OH233718   0.988   3.200   7.266 -0.0569  0.1848  0.1214
 4028TIP3    H133719   0.913   3.175   7.319 -1.0317  0.2483 -1.1843
 4028TIP3    H233720   1.030   3.271   7.315 -0.5903 -0.1433  1.0683
 4029TIP3   OH233721   2.768   6.184   7.521  0.2171 -0.1386 -0.1641
 4029TIP3    H133722   2.848   6.237   7.524  0.2132 -0.0317 -1.3549
 4029TIP3    H233723   2.784   6.112   7.582  0.5980  0.7231  0.7706
 4030TIP3   OH233724   0.878   0.585   2.069 -0.4625  0.1588 -0.2831
 4030TIP3    H133725   0.957   0.603   2.018 -0.4895 -0.3407 -0.5120
 4030TIP3    H233726   0.906   0.523   2.136 -1.2786 -2.6528 -2.3545
 4031TIP3   OH233727   5.781   5.274   2.487 -0.5209  0.0940  0.0427
 4031TIP3    H133728   5.689   5.298   2.492 -0.7753 -0.9108  0.2958
 4031TIP3    H233729   5.817   5.300   2.572 -1.2187 -2.0682  1.0647
 4032TIP3   OH233730   5.778   3.569   0.238  0.5273 -0.0047 -0.3396
 4032TIP3    H133731   5.753   3.483   0.271 -2.4446  0.1656 -1.8145
 4032TIP3    H233732   5.780   3.559   0.143  1.2787  1.3195 -0.4926
 4033TIP3   OH233733   3.860   5.698   8.393 -0.5851  0.1811 -0.4458
 4033TIP3    H133734   3.859   5.784   8.436  1.4076 -0.5190  1.1556
 4033TIP3    H233735   3.767   5.677   8.381 -1.1764  1.5514  1.2290
 4034TIP3   OH233736   3.501   6.610   8.146  0.4563 -0.0776 -0.5353
 4034TIP3    H133737   3.468   6.520   8.147  0.1857  0.0135  0.2668
 4034TIP3    H233738   3.594   6.602   8.168  0.5956 -0.2087 -1.1525
 4035TIP3   OH233739   0.205   2.789   0.978  0.3358  0.2091 -0.1558
 4035TIP3    H133740   0.220   2.869   0.928  1.4800  0.2665  0.2516
 4035TIP3    H233741   0.146   2.737   0.924 -1.4212  1.8296  0.1092
 4036TIP3   OH233742   5.765   2.067   0.103 -0.3254  0.4974  0.4002
 4036TIP3    H133743   5.838   2.007   0.083 -0.0223  1.0673 -0.2274
 4036TIP3    H233744   5.747   2.111   0.020 -1.2135  0.5588  0.6218
 4037TIP3   OH233745   3.394   2.262   0.511  0.3949  0.0672 -0.2322
 4037TIP3    H133746   3.465   2.243   0.450  0.6490 -0.4360  0.2126
 4037TIP3    H233747   3.426   2.336   0.562  0.7072 -0.3141  0.1319
 4038TIP3   OH233748   0.423   0.245   2.508  0.3225 -0.3488  0.0096
 4038TIP3    H133749   0.446   0.337   2.520  0.3255 -0.0288 -2.1447
 4038TIP3    H233750   0.333   0.238   2.541 -0.8134  1.1596 -2.5259
 4039TIP3   OH233751   0.192   5.408   0.903  0.0295 -0.7169  0.2657
 4039TIP3    H133752   0.264   5.391   0.962  1.0935  0.3012 -0.6744
 4039TIP3    H233753   0.117   5.425   0.960  1.1408  0.7864  1.3567
 4040TIP3   OH233754   0.566   5.168   0.116 -0.6747 -0.1009  0.0845
 4040TIP3    H133755   0.512   5.147   0.040 -0.4903  0.5512 -0.2314
 4040TIP3    H233756   0.572   5.263   0.116  0.2223 -0.1521  0.2961
 4041TIP3   OH233757   0.785   0.020   1.605 -0.3891 -0.3881  0.3155
 4041TIP3    H133758   0.797   0.081   1.532 -2.3083 -0.0509  0.2389
 4041TIP3    H233759   0.745  -0.057   1.565  0.4280 -1.0309  0.7069
 4042TIP3   OH233760   1.696   6.864   0.271  0.1366  0.2507 -0.1343
 4042TIP3    H133761   1.650   6.905   0.198 -0.1122  0.7735  0.3117
 4042TIP3    H233762   1.626   6.832   0.328  0.3296 -0.0686 -0.0743
 4043TIP3   OH233763   1.600   4.827   7.153  0.1581  0.2414  0.2474
 4043TIP3    H133764   1.683   4.781   7.162 -0.0545 -0.1124  0.4177
 4043TIP3    H233765   1.534   4.763   7.181 -0.2932  0.0428 -1.2020
 4044TIP3   OH233766   4.378   4.132   0.341 -0.2446 -0.5529  0.3929
 4044TIP3    H133767   4.393   4.186   0.419  1.9700  1.0233 -1.0159
 4044TIP3    H233768   4.329   4.189   0.282 -2.5508 -1.9824  0.8060
 4045TIP3   OH233769   2.335   3.634   1.357  0.2961 -0.2309 -0.1732
 4045TIP3    H133770   2.364   3.602   1.442 -1.2180 -3.0233 -0.5744
 4045TIP3    H233771   2.255   3.684   1.376  1.5995  1.8087  0.2619
 4046TIP3   OH233772   5.195   4.586   0.916 -0.4280 -0.0921 -0.0557
 4046TIP3    H133773   5.102   4.606   0.926 -0.6250 -1.4849  1.2100
 4046TIP3    H233774   5.233   4.607   1.002  0.1027 -1.1341 -0.0251
 4047TIP3   OH233775   5.217   1.620   2.669  0.1736 -0.5336  0.0785
 4047TIP3    H133776   5.309   1.642   2.652  0.4431 -1.5311  0.1718
 4047TIP3    H233777   5.177   1.703   2.696  1.3893 -0.3612  1.5097
 4048TIP3   OH233778   1.287   0.323   7.928  0.3113  0.1800 -0.3287
 4048TIP3    H133779   1.298   0.394   7.991 -0.1721 -0.3705  0.3971
 4048TIP3    H233780   1.365   0.328   7.872  0.2984  1.2467 -0.2682
 4049TIP3   OH233781   1.318   6.451   8.378 -0.7829 -0.1042 -0.8174
 4049TIP3    H133782   1.369   6.532   8.376 -1.3901  0.2747 -0.9864
 4049TIP3    H233783   1.380   6.385   8.409 -0.3847  0.4978 -0.3060
 4050TIP3   OH233784   6.513   6.744   0.225  0.2511 -0.0505  0.7763
 4050TIP3    H133785   6.575   6.730   0.297 -1.2521 -2.1698  1.7718
 4050TIP3    H233786   6.435   6.778   0.268  0.3690  1.7574 -0.3461
 4051TIP3   OH233787   6.637   1.530   1.228  0.2858 -0.5011 -0.3916
 4051TIP3    H133788   6.543   1.509   1.234  0.1976 -0.8427 -2.3108
 4051TIP3    H233789   6.650   1.599   1.292 -0.6756 -2.3063  1.8875
 4052TIP3   OH233790   2.353   6.821   2.556 -0.3834 -0.0747  0.4197
 4052TIP3    H133791   2.447   6.807   2.560 -0.7917 -4.1696 -0.3940
 4052TIP3    H233792   2.328   6.841   2.646  1.1211  0.3532  0.7740
 4053TIP3   OH233793   0.484   4.517   7.402 -0.1062  0.4871 -0.3459
 4053TIP3    H133794   0.516   4.572   7.474  2.6146 -0.0423 -1.0227
 4053TIP3    H233795   0.489   4.574   7.325 -1.5441  0.5906 -0.3782
 4054TIP3   OH233796   3.769   1.348   2.297 -0.1032  0.2073  0.0862
 4054TIP3    H133797   3.791   1.431   2.254  1.4749  0.4911  1.3600
 4054TIP3    H233798   3.849   1.296   2.291 -0.0643 -0.0155  1.9909
 4055TIP3   OH233799   4.867   5.780   2.476  1.1533 -0.1241 -0.1004
 4055TIP3    H133800   4.910   5.769   2.561 -0.4269  0.5419  0.8374
 4055TIP3    H233801   4.852   5.874   2.469  1.6123 -0.1313 -1.3159
 4056TIP3   OH233802   5.474   5.197   7.257  0.1198  0.2306  0.0405
 4056TIP3    H133803   5.565   5.226   7.267 -0.0120  1.6792 -2.1660
 4056TIP3    H233804   5.430   5.270   7.213 -1.5860 -1.2393 -0.8431
 4057TIP3   OH233805   0.052   1.606   2.102  0.7485 -0.0850  0.1793
 4057TIP3    H133806   0.133   1.593   2.152  1.8525  0.0307 -1.5059
 4057TIP3    H233807   0.044   1.528   2.048  0.7913  0.7406 -1.0577
 4058TIP3   OH233808   2.093   0.150   7.351 -0.8455  0.0816  0.0119
 4058TIP3    H133809   2.146   0.078   7.316  2.2773  3.1166 -2.1890
 4058TIP3    H233810   2.133   0.172   7.435  0.0739  0.9553 -0.6273
 4059TIP3   OH233811   4.222   2.242   0.477 -0.2610  0.1217  0.3586
 4059TIP3    H133812   4.251   2.176   0.415  1.4614  0.0761  1.1822
 4059TIP3    H233813   4.159   2.196   0.533 -0.8165 -0.1801 -0.4798
 4060TIP3   OH233814   0.503   5.713   8.533  0.0183  0.4219 -0.0367
 4060TIP3    H133815   0.571   5.766   8.491  0.1768 -0.7709 -1.3424
 4060TIP3    H233816   0.530   5.710   8.625  0.2182  2.2284  0.0123
 4061TIP3   OH233817   3.699   5.338   3.111 -0.7509  0.7188 -0.5296
 4061TIP3    H133818   3.615   5.294   3.102 -0.3939 -0.0255 -0.3516
 4061TIP3    H233819   3.677   5.427   3.136 -1.5440  1.1627 -2.6405
 4062TIP3   OH233820   4.077   5.401   0.858 -0.0713  0.1090 -0.0496
 4062TIP3    H133821   4.126   5.432   0.782 -2.5586  0.5051 -1.6329
 4062TIP3    H233822   4.025   5.477   0.885  0.8770  0.0228  2.2067
 4063TIP3   OH233823   4.320   4.963   1.088  0.5563 -0.1956  0.1148
 4063TIP3    H133824   4.274   5.031   1.039  0.5161  0.1218  0.5901
 4063TIP3    H233825   4.365   4.911   1.021  0.1601 -0.0234 -0.2893
 4064TIP3   OH233826   6.401   5.308   0.663  0.0926 -0.3353  0.1076
 4064TIP3    H133827   6.394   5.299   0.568  1.2547 -0.6764  0.0376
 4064TIP3    H233828   6.415   5.218   0.695 -1.3466 -0.3620  0.7163
 4065TIP3   OH233829   3.241   5.487   1.189  0.2332  0.2413  0.1100
 4065TIP3    H133830   3.154   5.521   1.172  1.1711  2.7636 -0.0017
 4065TIP3    H233831   3.301   5.554   1.156  2.2631 -1.9068 -0.8722
 4066TIP3   OH233832   6.432   3.578   1.205 -0.0331 -0.6147  0.2460
 4066TIP3    H133833   6.342   3.609   1.215  0.3068  0.1270  1.2055
 4066TIP3    H233834   6.424   3.498   1.154 -1.1830 -0.2766 -0.1438
 4067TIP3   OH233835   6.333   1.319   0.551  0.0290  0.0304  0.1906
 4067TIP3    H133836   6.329   1.249   0.617 -1.6174  0.4255  0.5417
 4067TIP3    H233837   6.409   1.296   0.497  0.3092 -1.3038  1.1031
 4068TIP3   OH233838   4.945   6.277   1.314 -0.3794  0.1487 -0.0186
 4068TIP3    H133839   4.938   6.371   1.333 -1.9276 -0.0741  0.6979
 4068TIP3    H233840   4.977   6.239   1.395  1.8309  0.1954 -0.8023
 4069TIP3   OH233841   2.079   4.839   1.337  0.1322  0.8390  0.0532
 4069TIP3    H133842   2.012   4.859   1.271  0.4487  0.5417 -0.3650
 4069TIP3    H233843   2.039   4.866   1.420 -2.2572 -3.0908  0.4440
 4070TIP3   OH233844   3.449   4.182   1.650 -0.1064 -0.3848  0.1446
 4070TIP3    H133845   3.497   4.104   1.678 -1.1965 -1.2817 -0.4320
 4070TIP3    H233846   3.516   4.249   1.642  0.9322 -1.3865  0.1781
 4071TIP3   OH233847   2.207   1.321   2.444 -0.3815  0.0446 -0.9301
 4071TIP3    H133848   2.189   1.294   2.534  0.1097 -0.7191 -1.0458
 4071TIP3    H233849   2.289   1.277   2.422  0.3791  1.5342 -1.2042
 4072TIP3   OH233850   6.704   1.365   2.276  0.2771  0.8640 -0.6943
 4072TIP3    H133851   6.664   1.278   2.272  0.3347  0.8551 -1.1385
 4072TIP3    H233852   6.631   1.425   2.286  0.3370  0.6543  1.4692
 4073TIP3   OH233853   1.902   1.151   2.149  0.4342  0.0782  0.3339
 4073TIP3    H133854   1.991   1.117   2.162 -0.0577 -1.2824  0.3185
 4073TIP3    H233855   1.852   1.113   2.222  0.0445  1.5620  0.8661
 4074TIP3   OH233856   2.408   4.723   7.932  0.4374  0.0310 -0.4992
 4074TIP3    H133857   2.464   4.738   8.008  1.1132  0.8254 -1.1345
 4074TIP3    H233858   2.394   4.810   7.895 -2.2531  0.0494  0.3224
 4075TIP3   OH233859   4.248   6.873   0.024 -0.4237  0.5243 -0.4556
 4075TIP3    H133860   4.329   6.905  -0.017  0.1151 -0.4499 -0.1818
 4075TIP3    H233861   4.227   6.940   0.089  0.2340  0.7359 -0.4476
 4076TIP3   OH233862   3.377   2.284   1.526 -0.0255 -0.2441 -0.1256
 4076TIP3    H133863   3.287   2.263   1.552 -0.1121 -0.8445 -0.8954
 4076TIP3    H233864   3.397   2.223   1.456  0.8833  0.0925 -0.1708
 4077TIP3   OH233865   3.385   5.021   2.244  0.0733 -0.1658  0.2706
 4077TIP3    H133866   3.361   4.959   2.313  0.4339  1.1905  1.6865
 4077TIP3    H233867   3.312   5.082   2.240 -0.0885 -0.4176 -0.7979
 4078TIP3   OH233868   1.681   1.976   0.431  0.2047 -0.0898  0.0680
 4078TIP3    H133869   1.644   1.939   0.351 -1.4958  0.1153  0.7150
 4078TIP3    H233870   1.736   2.049   0.401 -1.8187  1.1308 -0.8694
 4079TIP3   OH233871   0.079   3.303   0.052  0.2282  0.2361  0.5496
 4079TIP3    H133872   0.169   3.332   0.071 -0.3706  2.6673  0.0203
 4079TIP3    H233873   0.026   3.346   0.118 -0.6605 -0.4912  0.3253
 4080TIP3   OH233874   0.171   3.366   2.845 -0.1954 -0.1332  0.5840
 4080TIP3    H133875   0.162   3.455   2.810 -0.7408 -0.1119  0.7693
 4080TIP3    H233876   0.088   3.349   2.890 -0.1522 -0.7860  0.4372
 4081TIP3   OH233877   1.952   6.609   2.025  0.2978 -0.5278 -0.1440
 4081TIP3    H133878   1.912   6.689   1.990  0.7691  0.0329  0.5810
 4081TIP3    H233879   1.998   6.571   1.950 -0.8263 -0.7143 -0.7671
 4082TIP3   OH233880   0.260   6.668   0.697 -0.3696 -0.4186  0.2601
 4082TIP3    H133881   0.341   6.623   0.720  0.2162  0.3135 -0.3227
 4082TIP3    H233882   0.284   6.724   0.623 -1.3306  0.0472  0.2887
 4083TIP3   OH233883   5.492   1.921   1.619 -0.3575  0.1446  0.5140
 4083TIP3    H133884   5.564   1.915   1.556 -1.0771  1.1778 -0.4318
 4083TIP3    H233885   5.463   1.830   1.631  1.2820 -0.3315  1.1592
 4084TIP3   OH233886   0.394   5.082   8.528 -0.1042 -0.1707  0.2635
 4084TIP3    H133887   0.320   5.036   8.569  0.8147 -1.8226  0.1462
 4084TIP3    H233888   0.370   5.086   8.435 -0.2581 -0.2957  0.2967
 4085TIP3   OH233889   4.421   4.070   0.802 -0.3998  0.5482  0.5656
 4085TIP3    H133890   4.437   4.153   0.847  0.6042  0.7073 -0.0697
 4085TIP3    H233891   4.383   4.014   0.870  1.6697  0.5682  1.8230
 4086TIP3   OH233892   3.018   6.628   0.918  0.3625  0.0087  0.3327
 4086TIP3    H133893   2.944   6.645   0.860  1.1081 -0.6846 -0.8808
 4086TIP3    H233894   3.050   6.715   0.942  0.2833  0.3358 -0.6680
 4087TIP3   OH233895   3.959   2.591   7.590  0.1007 -0.1771  0.1488
 4087TIP3    H133896   3.897   2.518   7.596  1.8188 -1.7332 -0.1591
 4087TIP3    H233897   4.017   2.579   7.665  1.7865 -0.4979 -1.1569
 4088TIP3   OH233898   4.512   0.991   7.741  0.2407 -0.4211  0.4678
 4088TIP3    H133899   4.552   0.920   7.691 -0.1099 -1.4008  1.5282
 4088TIP3    H233900   4.563   1.068   7.718  0.6257 -1.0050 -0.7205
 4089TIP3   OH233901   3.614   2.903   1.362  0.1931 -0.3579  0.1659
 4089TIP3    H133902   3.594   2.917   1.269  0.6443  0.1289  0.1373
 4089TIP3    H233903   3.710   2.895   1.365  0.0809 -2.2702  0.3488
 4090TIP3   OH233904   0.326   0.911   8.503  0.2965  0.4958 -0.3967
 4090TIP3    H133905   0.404   0.857   8.506 -0.4547 -0.7062 -1.6534
 4090TIP3    H233906   0.358   1.001   8.512  1.4954 -0.1381  2.5825
 4091TIP3   OH233907   0.271   2.257   8.365 -0.2365  0.7819 -0.0893
 4091TIP3    H133908   0.277   2.190   8.297  0.0179  0.4790  0.2314
 4091TIP3    H233909   0.188   2.238   8.410  1.4520 -1.5281  2.2997
 4092TIP3   OH233910   1.674   6.084   7.241  0.7201  0.0924 -0.1854
 4092TIP3    H133911   1.582   6.076   7.267 -0.0247  2.2243 -1.8727
 4092TIP3    H233912   1.679   6.039   7.157  1.2134  0.0538 -0.1362
 4093TIP3   OH233913   0.671   5.912   2.001 -0.4063 -0.0004 -0.0857
 4093TIP3    H133914   0.719   5.829   1.997 -0.2742  0.0811 -0.2040
 4093TIP3    H233915   0.719   5.964   2.065 -0.7749 -0.1953  0.3540
 4094TIP3   OH233916   2.398   1.291   1.295  0.4481 -0.2716 -0.3192
 4094TIP3    H133917   2.436   1.364   1.245  2.7555 -0.4968  0.9809
 4094TIP3    H233918   2.358   1.333   1.371 -2.4371  0.0022 -1.8757
 4095TIP3   OH233919   0.826   0.811   1.896  0.2427  0.1233 -0.3240
 4095TIP3    H133920   0.844   0.890   1.948  3.1751 -0.6133 -0.0231
 4095TIP3    H233921   0.796   0.747   1.959 -0.0118  0.3675 -0.1956
 4096TIP3   OH233922   0.811   0.059   0.627 -0.6666  0.4629 -0.0318
 4096TIP3    H133923   0.777   0.146   0.609 -0.0115  0.9568  1.0371
 4096TIP3    H233924   0.827   0.021   0.541  1.8497  2.4992 -0.5594
 4097TIP3   OH233925   4.381   5.828   8.561  0.8242  0.3540  0.0602
 4097TIP3    H133926   4.328   5.826   8.480  1.1682 -1.7368 -0.1556
 4097TIP3    H233927   4.410   5.919   8.567  1.4096  0.4328 -2.6009
 4098TIP3   OH233928   5.821   0.439   1.256  0.9160  0.0398  0.7182
 4098TIP3    H133929   5.727   0.450   1.246  0.8492 -1.3559 -0.6475
 4098TIP3    H233930   5.836   0.438   1.350 -0.5359 -0.4404  0.9653
 4099TIP3   OH233931   4.704   4.110   0.294 -0.2737 -0.0788  0.4533
 4099TIP3    H133932   4.696   4.031   0.242 -0.0359  0.1181  0.1130
 4099TIP3    H233933   4.749   4.082   0.374  1.1044 -0.0423 -0.2636
 4100TIP3   OH233934   6.925   5.550   0.682  0.3684 -0.2851  0.2620
 4100TIP3    H133935   6.860   5.620   0.685 -0.7956 -1.2126 -1.6313
 4100TIP3    H233936   6.926   5.516   0.772 -0.6737  0.7107  0.6828
 4101TIP3   OH233937   5.265   2.623   0.933 -0.0638  0.0351  0.1077
 4101TIP3    H133938   5.231   2.587   0.852  0.9364  1.2465 -0.8928
 4101TIP3    H233939   5.358   2.640   0.915  0.8170 -1.9317  2.3132
 4102TIP3   OH233940   4.622   2.255   7.356 -0.6186  0.7659 -0.6270
 4102TIP3    H133941   4.703   2.205   7.365 -1.1610 -0.1465 -0.5845
 4102TIP3    H233942   4.636   2.334   7.408 -0.0874  0.1792  0.1510
 4103TIP3   OH233943   6.085   0.293   6.582  0.1661  0.0307  0.2899
 4103TIP3    H133944   6.098   0.215   6.637 -0.5706 -0.6078 -0.4320
 4103TIP3    H233945   6.064   0.362   6.645  2.1613  0.0020  1.0778
 4104TIP3   OH233946   3.926   1.966   7.846  0.3449 -0.1197  0.5063
 4104TIP3    H133947   3.935   1.943   7.753 -0.6055 -1.6115  0.7512
 4104TIP3    H233948   3.945   1.885   7.893 -1.0273  0.1016  1.5207
 4105TIP3   OH233949   6.578   5.722   7.448  0.2138  0.1382  0.5566
 4105TIP3    H133950   6.530   5.649   7.488  1.7747 -0.6730  1.0175
 4105TIP3    H233951   6.669   5.708   7.473  0.2692  4.0119  3.4789
 4106TIP3   OH233952   1.236   3.050   7.777  0.2103 -0.2095  0.1261
 4106TIP3    H133953   1.272   2.981   7.721 -0.9940  0.1074 -1.1006
 4106TIP3    H233954   1.214   3.121   7.717 -0.2326  0.5292  1.1295
 4107TIP3   OH233955   3.128   1.312   1.908  0.0319 -0.2822  0.2459
 4107TIP3    H133956   3.200   1.371   1.887  0.7146 -1.4381 -0.8751
 4107TIP3    H233957   3.106   1.332   1.999 -0.2834  2.1785 -0.3091
 4108TIP3   OH233958   6.361   3.308   1.169 -0.0170 -0.1103  0.0788
 4108TIP3    H133959   6.354   3.225   1.123 -0.3505 -0.0430  0.0059
 4108TIP3    H233960   6.410   3.288   1.249  4.1229  0.4308 -2.0028
 4109TIP3   OH233961   3.360   5.074   1.224 -0.7792  0.1807  0.5506
 4109TIP3    H133962   3.369   5.097   1.316 -0.3548 -1.1105  0.8433
 4109TIP3    H233963   3.413   4.995   1.213 -1.7553 -0.3554 -0.5302
 4110TIP3   OH233964   3.435   1.974   0.578  0.7279  0.0726  0.4104
 4110TIP3    H133965   3.390   2.028   0.513  1.1019 -0.3494 -0.2099
 4110TIP3    H233966   3.515   1.945   0.534 -0.0270 -1.9706  0.3135
 4111TIP3   OH233967   4.773   3.762   2.210  0.0296  0.6367  0.1498
 4111TIP3    H133968   4.777   3.722   2.123 -1.5878 -0.1068  0.3838
 4111TIP3    H233969   4.747   3.691   2.268  2.9851  0.6279  1.6504
 4112TIP3   OH233970   1.224   2.904   2.777 -0.0728 -0.3154 -0.0021
 4112TIP3    H133971   1.270   2.870   2.700 -0.6292 -0.3276 -0.3378
 4112TIP3    H233972   1.133   2.909   2.749  0.0993  2.4160 -0.3386
 4113TIP3   OH233973   3.676   1.840   0.200 -0.1038  0.2631  0.1333
 4113TIP3    H133974   3.608   1.891   0.156 -1.7521 -0.3892  1.7753
 4113TIP3    H233975   3.693   1.766   0.142 -0.0851  0.9282 -0.7293
 4114TIP3   OH233976   1.454   2.419   1.700 -0.7231 -0.0866 -0.1647
 4114TIP3    H133977   1.533   2.396   1.651 -0.5610 -0.9168  0.4706
 4114TIP3    H233978   1.392   2.350   1.679 -0.8677 -0.1005  0.3098
 4115TIP3   OH233979   2.477   2.537   8.561  0.0997  0.3745 -0.1055
 4115TIP3    H133980   2.461   2.511   8.652  1.6199  0.9976  0.3781
 4115TIP3    H233981   2.497   2.455   8.516 -0.9330  0.0279  0.0368
 4116TIP3   OH233982   1.404   3.242   6.716 -0.1174  0.2304  0.2400
 4116TIP3    H133983   1.456   3.166   6.691  0.2554  0.1563  1.1892
 4116TIP3    H233984   1.316   3.208   6.727 -0.2250  0.2044 -0.6121
 4117TIP3   OH233985   4.287   2.890   0.427 -0.5797 -0.0829 -0.2818
 4117TIP3    H133986   4.365   2.840   0.405 -0.7457  0.0733 -1.2788
 4117TIP3    H233987   4.267   2.865   0.517  1.1356  0.5678  0.3210
 4118TIP3   OH233988   1.700   0.259   2.170  0.1554 -0.0979  0.1999
 4118TIP3    H133989   1.718   0.254   2.263 -0.0046  0.2096  0.2485
 4118TIP3    H233990   1.636   0.330   2.161 -0.1349 -0.3880 -0.0952
 4119TIP3   OH233991   1.451   4.788   1.024 -0.6197  0.2913 -0.2864
 4119TIP3    H133992   1.359   4.792   0.997 -0.7870  0.3585  0.3006
 4119TIP3    H233993   1.464   4.864   1.081 -0.6081 -0.5701  0.8818
 4120TIP3   OH233994   4.779   6.542   0.677  0.0804 -0.0178  0.1289
 4120TIP3    H133995   4.789   6.485   0.754  2.2817 -0.8870 -0.7127
 4120TIP3    H233996   4.713   6.497   0.623 -0.0902 -0.3992  0.6405
 4121TIP3   OH233997   1.215   6.134   1.426 -0.5949  0.1743  0.1184
 4121TIP3    H133998   1.279   6.132   1.497 -2.2132  0.5374  1.6634
 4121TIP3    H233999   1.267   6.128   1.346  1.1476 -3.3119  1.3393
 4122TIP3   OH234000   1.289   6.631   7.814 -0.4518 -0.6496  0.4969
 4122TIP3    H134001   1.250   6.626   7.900 -1.2702  0.1155  0.1793
 4122TIP3    H234002   1.257   6.553   7.768  0.0951 -1.1303  0.9085
 4123TIP3   OH234003   3.819   1.903   1.266 -0.4163  0.6042 -0.0134
 4123TIP3    H134004   3.764   1.961   1.319  1.9783  1.3024  1.9390
 4123TIP3    H234005   3.886   1.872   1.327  1.5828  0.1367 -2.2896
 4124TIP3   OH234006   4.315   2.950   2.418 -0.1716  0.0398  0.4072
 4124TIP3    H134007   4.407   2.952   2.393 -0.2340  1.4485  0.2214
 4124TIP3    H234008   4.281   2.870   2.379  1.1779 -1.0044  1.2680
 4125TIP3   OH234009   2.982   2.351   2.058  0.0599  0.4561  0.0738
 4125TIP3    H134010   2.934   2.369   2.139  1.6243 -1.1825  1.4372
 4125TIP3    H234011   2.953   2.264   2.033  0.0740  0.6938 -0.7933
 4126TIP3   OH234012   2.606   3.695   8.571 -0.5546 -0.4476 -0.0954
 4126TIP3    H134013   2.578   3.633   8.638  0.3867 -0.2225  0.5246
 4126TIP3    H234014   2.696   3.669   8.550 -0.6716 -0.2129 -0.9230
 4127TIP3   OH234015   0.435   2.445   8.564 -0.3756 -0.1918  0.2181
 4127TIP3    H134016   0.351   2.399   8.553 -1.1062  0.7765  1.4231
 4127TIP3    H234017   0.468   2.457   8.475 -2.1041  0.4385 -0.3887
 4128TIP3   OH234018   4.563   5.010   1.380  0.0356  0.5938 -0.5740
 4128TIP3    H134019   4.475   5.048   1.379  0.6212  2.0298  0.0998
 4128TIP3    H234020   4.609   5.053   1.308  0.6934  1.1676  0.1730
 4129TIP3   OH234021   6.231   6.788   1.810  0.1304  0.6953  0.0975
 4129TIP3    H134022   6.180   6.741   1.875 -1.1977  0.7868 -0.8459
 4129TIP3    H234023   6.297   6.835   1.861  0.6936 -1.1370  1.1714
 4130TIP3   OH234024   6.032   0.418   2.318 -0.3646 -0.0547 -0.0183
 4130TIP3    H134025   6.048   0.366   2.397  1.5421 -0.7774 -0.8227
 4130TIP3    H234026   5.944   0.455   2.331  0.2952  0.7561  2.9261
 4131TIP3   OH234027   3.771   6.676   0.890  0.3505  0.9183 -0.6403
 4131TIP3    H134028   3.811   6.736   0.827  1.4876  0.3437 -0.4783
 4131TIP3    H234029   3.691   6.646   0.846  0.6022  1.3135 -1.3860
 4132TIP3   OH234030   2.173   1.919   0.123 -0.1390  1.0968  0.2078
 4132TIP3    H134031   2.249   1.899   0.178 -1.5117  0.8904  2.1299
 4132TIP3    H234032   2.183   2.012   0.102  0.7357  1.0287  0.2721
 4133TIP3   OH234033   0.544   5.052   7.949 -0.1108  0.3139 -0.1408
 4133TIP3    H134034   0.574   5.135   7.986  0.4454 -0.3419  0.9296
 4133TIP3    H234035   0.592   4.985   7.998 -0.8585 -0.6581 -0.6972
 4134TIP3   OH234036   3.695   3.960   2.005  0.2322 -0.3343  0.0192
 4134TIP3    H134037   3.685   3.885   2.064  1.9796  0.7710  1.8423
 4134TIP3    H234038   3.639   4.028   2.043 -0.2557 -0.2437 -0.8307
 4135TIP3   OH234039   4.158   1.940   0.928 -0.6351 -0.3975  0.3635
 4135TIP3    H134040   4.149   1.925   0.834 -1.8102 -0.0738  0.4091
 4135TIP3    H234041   4.195   1.858   0.962 -1.5224 -1.0526 -0.1935
 4136TIP3   OH234042   5.180   6.878   2.064  0.2889 -0.0063 -0.4361
 4136TIP3    H134043   5.250   6.922   2.016  0.4843 -0.6751 -0.7657
 4136TIP3    H234044   5.154   6.941   2.131 -0.5230  1.2679 -1.8826
 4137TIP3   OH234045   1.346   1.726   0.599  0.3454  0.5565  0.0451
 4137TIP3    H134046   1.320   1.797   0.541 -0.7746  0.0821 -0.0710
 4137TIP3    H234047   1.264   1.679   0.617  1.0823 -0.8189 -0.0328
 4138TIP3   OH234048   0.342   5.488   1.608  0.0919  0.0850 -0.0352
 4138TIP3    H134049   0.425   5.497   1.655  0.8976  2.3855 -1.6969
 4138TIP3    H234050   0.282   5.549   1.652  0.2193  0.6647 -0.6420
 4139TIP3   OH234051   6.047   2.240   6.856  0.3276  0.5622  0.3353
 4139TIP3    H134052   6.049   2.183   6.779  2.1522  1.5686 -0.4381
 4139TIP3    H234053   6.132   2.228   6.897 -0.5687  0.1436  2.1864
 4140TIP3   OH234054   3.703   5.008   2.744 -0.1700  0.2578 -0.7547
 4140TIP3    H134055   3.650   4.968   2.812  0.2027  0.1268 -0.5386
 4140TIP3    H234056   3.699   5.102   2.762 -0.6864  0.2845 -1.0018
 4141TIP3   OH234057   5.409   4.378   0.580 -0.8040 -0.0106 -0.2132
 4141TIP3    H134058   5.395   4.285   0.566 -2.0278  0.3646 -1.6616
 4141TIP3    H234059   5.480   4.401   0.519 -1.8008  0.3594 -1.2634
 4142TIP3   OH234060   3.257   3.282   7.572 -0.6413 -0.1950 -0.2691
 4142TIP3    H134061   3.350   3.280   7.596 -1.2431 -0.1328  2.4483
 4142TIP3    H234062   3.246   3.208   7.512  0.8171 -1.4701  0.9377
 4143TIP3   OH234063   4.421   1.979   7.055  0.0797 -0.6753 -0.3974
 4143TIP3    H134064   4.363   1.904   7.044 -0.1939 -0.6584  0.7632
 4143TIP3    H234065   4.381   2.048   7.002 -0.8196 -0.7468  0.1742
 4144TIP3   OH234066   5.566   4.089   8.199  0.7780 -0.1111  0.1223
 4144TIP3    H134067   5.596   4.174   8.167 -0.7342  0.3871 -0.0213
 4144TIP3    H234068   5.647   4.038   8.210  1.7584  1.4828  0.6882
 4145TIP3   OH234069   0.145   5.585   0.163  0.5223 -0.3746 -0.5400
 4145TIP3    H134070   0.084   5.654   0.137  0.1856 -0.6793 -0.5607
 4145TIP3    H234071   0.096   5.504   0.153  0.5443 -0.5399  0.5455
 4146TIP3   OH234072   1.099   1.630   0.854 -0.6115  0.5143  0.1717
 4146TIP3    H134073   1.089   1.601   0.763  2.6007 -0.9757  0.1371
 4146TIP3    H234074   1.094   1.725   0.849  0.6418  0.5440 -1.8233
 4147TIP3   OH234075   0.679   6.392   0.047 -0.2161  0.0789  0.3089
 4147TIP3    H134076   0.614   6.414   0.114 -1.8693 -0.8719 -0.8897
 4147TIP3    H234077   0.665   6.299   0.030  0.3264  0.2372 -1.1447
 4148TIP3   OH234078   5.760   6.371   2.288  0.7274  0.3578  0.3548
 4148TIP3    H134079   5.781   6.383   2.380 -1.3710  2.8049  0.6556
 4148TIP3    H234080   5.734   6.459   2.258  0.1978 -0.5796 -2.2379
 4149TIP3   OH234081   6.094   3.269   7.468  1.1276 -0.3142 -1.1375
 4149TIP3    H134082   6.106   3.193   7.526  0.0453  2.3443  2.9580
 4149TIP3    H234083   6.006   3.258   7.432  1.4790 -1.5672 -1.6843
 4150TIP3   OH234084   3.312   2.243   2.086  0.5584 -0.1632  0.3950
 4150TIP3    H134085   3.296   2.334   2.064 -0.3934 -0.3146  0.4516
 4150TIP3    H234086   3.255   2.225   2.160  0.4009 -0.9287  0.0969
 4151TIP3   OH234087   0.090   4.184   0.071 -0.2196  0.3757 -0.0387
 4151TIP3    H134088   0.004   4.210   0.040 -0.2095  0.1141 -0.2869
 4151TIP3    H234089   0.121   4.258   0.123 -1.6935 -0.5069  2.2677
 4152TIP3   OH234090   2.166   3.317   2.111 -0.2551 -0.1056  0.0275
 4152TIP3    H134091   2.203   3.274   2.188 -0.3109 -0.5156 -0.1708
 4152TIP3    H234092   2.223   3.289   2.039 -0.2767  0.1762 -0.0997
 4153TIP3   OH234093   4.385   0.486   7.840 -0.1893  0.0645  0.1494
 4153TIP3    H134094   4.324   0.424   7.800 -0.5996  1.3683 -1.3557
 4153TIP3    H234095   4.458   0.492   7.778 -0.4361  1.5046 -0.0410
 4154TIP3   OH234096   4.868   1.419   0.776  0.2075  0.2717  0.5066
 4154TIP3    H134097   4.901   1.415   0.686  1.3122 -0.0464  0.9082
 4154TIP3    H234098   4.934   1.372   0.827  0.3885  1.7716  1.7057
 4155TIP3   OH234099   3.743   2.621   0.092  0.0373  0.0293  0.0291
 4155TIP3    H134100   3.732   2.597  -0.000  0.0801 -2.3269  0.5687
 4155TIP3    H234101   3.717   2.713   0.096 -2.8421 -0.5663 -1.8091
 4156TIP3   OH234102   5.980   4.014   1.294 -0.6034 -0.1386 -0.2361
 4156TIP3    H134103   5.946   4.083   1.351 -1.3924 -0.0280 -0.8207
 4156TIP3    H234104   5.936   4.028   1.210 -2.0219 -2.3147  0.0657
 4157TIP3   OH234105   5.106   3.529   1.768  0.0547  0.0384 -0.7842
 4157TIP3    H134106   5.109   3.480   1.850  0.6859  0.3999 -0.5785
 4157TIP3    H234107   5.179   3.591   1.775  1.2622 -1.1440 -2.3954
 4158TIP3   OH234108   6.585   0.180   0.275 -0.6010 -0.4120 -0.0424
 4158TIP3    H134109   6.583   0.087   0.254  0.3299 -0.7113  1.0420
 4158TIP3    H234110   6.649   0.218   0.215  0.8766 -0.9656  1.1026
 4159TIP3   OH234111   0.030   4.841   1.671  0.2262  0.1987 -0.2821
 4159TIP3    H134112   0.099   4.818   1.609  1.0566 -0.3118  0.8117
 4159TIP3    H234113   0.001   4.758   1.708 -0.8078  0.4310 -0.5180
 4160TIP3   OH234114   1.624   3.064   7.585 -0.7682  0.8907  0.0389
 4160TIP3    H134115   1.597   3.138   7.640 -1.1515  0.2690  0.7060
 4160TIP3    H234116   1.577   2.989   7.621  0.6460  0.0594  0.2326
 4161TIP3   OH234117   0.928   1.836   7.635 -0.1790  0.3899  0.3025
 4161TIP3    H134118   0.946   1.824   7.542  2.0730 -2.1265  0.9285
 4161TIP3    H234119   0.849   1.784   7.652  0.6889 -1.0303  0.1450
 4162TIP3   OH234120   2.566   2.225   1.989  0.8543  0.0294 -0.1929
 4162TIP3    H134121   2.562   2.268   2.075  1.0390  0.9552 -0.6362
 4162TIP3    H234122   2.523   2.141   2.003  1.5641 -0.1597  0.9940
 4163TIP3   OH234123   1.717   1.117   0.445  0.2698  0.4041 -0.0450
 4163TIP3    H134124   1.700   1.030   0.408 -0.2756  0.1792  0.7136
 4163TIP3    H234125   1.804   1.141   0.412  1.1420 -1.1289  0.9851
 4164TIP3   OH234126   1.888   5.549   8.137 -0.0010  0.9805  0.3095
 4164TIP3    H134127   1.906   5.490   8.211  1.3374  2.0516  0.8946
 4164TIP3    H234128   1.798   5.530   8.113  0.0219 -0.4950  1.2120
 4165TIP3   OH234129   2.198   3.681   0.556  0.2551  0.2848  0.2645
 4165TIP3    H134130   2.247   3.601   0.540  0.0267 -0.0770  1.3191
 4165TIP3    H234131   2.256   3.735   0.609  0.1455  0.5387  0.1298
 4166TIP3   OH234132   6.428   3.412   8.307 -0.4017  0.2383  0.1498
 4166TIP3    H134133   6.441   3.409   8.212  0.3265 -0.9778  0.2671
 4166TIP3    H234134   6.380   3.332   8.327 -3.5971  2.0455  0.4394
 4167TIP3   OH234135   3.539   2.292   7.703  0.2371  0.1699  0.3921
 4167TIP3    H134136   3.546   2.367   7.644 -1.6993 -0.3939 -0.6549
 4167TIP3    H234137   3.458   2.307   7.752  0.2205 -0.8625  0.7104
 4168TIP3   OH234138   6.868   5.176   7.868 -0.5848  0.1543  0.3567
 4168TIP3    H134139   6.906   5.169   7.955  0.3384  0.1138 -0.0403
 4168TIP3    H234140   6.914   5.249   7.827 -0.9947  0.1574 -0.1053
 4169TIP3   OH234141   3.163   6.317   7.331  0.4410 -0.4717 -0.5302
 4169TIP3    H134142   3.200   6.230   7.345 -0.0300 -0.9090 -1.8475
 4169TIP3    H234143   3.235   6.377   7.351  0.1403 -0.9925  2.6677
 4170TIP3   OH234144   6.714   2.910   3.050  0.6376  0.1464 -0.1628
 4170TIP3    H134145   6.655   2.898   2.975  0.9525  1.1161 -0.5739
 4170TIP3    H234146   6.656   2.922   3.125  0.2732  2.2838 -0.7445
 4171TIP3   OH234147   4.566   2.019   7.938  0.0668 -0.4949 -0.1753
 4171TIP3    H134148   4.476   2.024   7.904  0.1983  1.2579 -0.3546
 4171TIP3    H234149   4.582   1.925   7.950 -1.6258 -0.8656 -0.5606
 4172TIP3   OH234150   5.296   0.841   2.195  0.0137  0.6384 -0.0232
 4172TIP3    H134151   5.264   0.918   2.149  0.8243 -0.5463 -2.8077
 4172TIP3    H234152   5.389   0.860   2.211  0.2760  0.1811 -0.9388
 4173TIP3   OH234153   6.756   6.764   7.102  0.2444 -0.5634 -0.1535
 4173TIP3    H134154   6.688   6.741   7.039  0.0751 -0.8962  0.1480
 4173TIP3    H234155   6.810   6.686   7.110  0.2427 -0.5365  0.1430
 4174TIP3   OH234156   1.227   0.981   7.228 -0.9120  0.6910 -0.2987
 4174TIP3    H134157   1.165   0.981   7.301 -0.5424  0.5924  0.0185
 4174TIP3    H234158   1.226   1.071   7.196 -0.1054  1.0533  0.6664
 4175TIP3   OH234159   3.459   6.304   1.317 -0.0577  0.0535 -0.5248
 4175TIP3    H134160   3.377   6.256   1.311  0.4444 -0.9149  0.0524
 4175TIP3    H234161   3.527   6.237   1.313  0.6559  0.6711  0.5752
 4176TIP3   OH234162   2.434   5.820   1.399 -0.8133 -0.0979  0.1868
 4176TIP3    H134163   2.413   5.763   1.325  0.0945  3.0598 -2.7981
 4176TIP3    H234164   2.530   5.817   1.405 -0.9338 -1.3878  2.2841
 4177TIP3   OH234165   2.739   6.534   2.006  0.1267 -0.5057  0.3306
 4177TIP3    H134166   2.794   6.456   1.997  1.6609  0.5015  0.4612
 4177TIP3    H234167   2.758   6.585   1.927  0.6271  0.5811  1.1177
 4178TIP3   OH234168   5.708   1.324   0.044  0.1557  0.0112 -0.4801
 4178TIP3    H134169   5.710   1.413   0.079  0.9898 -0.2684  0.2235
 4178TIP3    H234170   5.615   1.301   0.042 -0.3045  1.6777 -2.7603
 4179TIP3   OH234171   5.450   0.526   0.975  0.0559  0.1572  0.1103
 4179TIP3    H134172   5.543   0.548   0.982  0.1521 -0.4507  0.7605
 4179TIP3    H234173   5.436   0.457   1.039 -0.0869 -2.1883 -2.2776
 4180TIP3   OH234174   6.509   1.225   8.461 -0.1699  0.1602  0.1711
 4180TIP3    H134175   6.554   1.177   8.391  0.9211  0.2420  0.7888
 4180TIP3    H234176   6.457   1.291   8.415 -0.6214 -0.7314 -0.6221
 4181TIP3   OH234177   2.316   6.452   0.301 -0.0035 -0.2456  0.0457
 4181TIP3    H134178   2.258   6.393   0.348 -1.2471  2.1336  1.7415
 4181TIP3    H234179   2.381   6.478   0.366 -0.1748  1.0919 -0.2859
 4182TIP3   OH234180   6.503   3.257   1.392 -0.1715 -0.0755 -0.1793
 4182TIP3    H134181   6.468   3.168   1.394 -1.1125  0.2817  0.3337
 4182TIP3    H234182   6.580   3.254   1.449 -0.0488 -0.6165 -0.3668
 4183TIP3   OH234183   6.194   2.545   1.189 -0.2067 -0.0897 -0.1612
 4183TIP3    H134184   6.271   2.499   1.155  0.2203  1.3789 -1.2737
 4183TIP3    H234185   6.224   2.584   1.271 -0.0108 -0.1785 -0.1905
 4184TIP3   OH234186   5.231   2.863   1.666  0.5833 -0.4953  0.8673
 4184TIP3    H134187   5.194   2.782   1.700 -1.1321 -0.1970 -0.2023
 4184TIP3    H234188   5.195   2.872   1.578  1.5253  0.9253  0.5814
 4185TIP3   OH234189   3.632   4.762   1.532  0.7120 -0.2427 -0.1393
 4185TIP3    H134190   3.625   4.769   1.437 -0.3265  0.6937 -0.0130
 4185TIP3    H234191   3.556   4.709   1.559  0.9575 -0.4418  0.1785
 4186TIP3   OH234192   2.000   1.020   2.518  0.3491 -0.6377  0.4553
 4186TIP3    H134193   1.949   1.097   2.490  1.6827  0.5892  1.2598
 4186TIP3    H234194   2.077   1.057   2.560  1.1271 -2.4513  0.6964
 4187TIP3   OH234195   2.115   5.067   2.061 -0.3194 -0.0008 -0.7631
 4187TIP3    H134196   2.152   5.110   1.985  0.1798 -0.5526 -0.8394
 4187TIP3    H234197   2.076   5.138   2.113  0.4761  0.5377 -0.8897
 4188TIP3   OH234198   2.067   3.139   2.648 -0.0588 -0.2008  0.5950
 4188TIP3    H134199   2.113   3.181   2.720  0.6628 -1.6066  0.9786
 4188TIP3    H234200   2.111   3.056   2.636  0.9583  0.6780 -2.6181
 4189TIP3   OH234201   2.862   4.700   0.039  0.2377 -0.5043 -0.2925
 4189TIP3    H134202   2.926   4.748   0.090  0.8859 -1.8059  0.1709
 4189TIP3    H234203   2.788   4.688   0.099  0.1795 -0.2907 -0.3238
 4190TIP3   OH234204   6.643   3.333   0.906 -0.3480  0.2075 -0.5990
 4190TIP3    H134205   6.701   3.267   0.942 -2.8398 -2.3233 -0.8985
 4190TIP3    H234206   6.689   3.368   0.830  1.2810 -0.7261 -0.0750
 4191TIP3   OH234207   2.952   0.672   7.758  0.7717 -0.5699  0.8683
 4191TIP3    H134208   2.921   0.753   7.718 -0.8639 -0.7351  1.7388
 4191TIP3    H234209   3.007   0.632   7.690  1.0680  0.9290  0.1792
 4192TIP3   OH234210   3.025   5.444   7.498  0.0298  0.3429 -0.2844
 4192TIP3    H134211   2.984   5.371   7.451 -1.7944 -1.3729  3.5001
 4192TIP3    H234212   2.984   5.522   7.462 -0.3078 -0.7168 -2.3346
 4193TIP3   OH234213   3.633   1.582   0.886  0.5785 -0.4469  0.1975
 4193TIP3    H134214   3.613   1.661   0.835  0.8002 -0.3766  0.2168
 4193TIP3    H234215   3.647   1.615   0.975  1.8011 -0.3539 -0.0120
 4194TIP3   OH234216   4.489   6.800   8.417 -0.4015  0.1603  0.1242
 4194TIP3    H134217   4.579   6.813   8.448 -0.4393  1.3195 -0.1905
 4194TIP3    H234218   4.498   6.742   8.341 -0.1527 -1.4341  1.3142
 4195TIP3   OH234219   5.688   3.195   1.321  0.4266 -0.5086 -0.5868
 4195TIP3    H134220   5.601   3.175   1.356  0.0085  1.5772 -0.2718
 4195TIP3    H234221   5.741   3.213   1.399  0.4754  0.5528 -0.8442
 4196TIP3   OH234222   6.729   2.712   0.302  0.3282  0.9243  0.1324
 4196TIP3    H134223   6.751   2.746   0.389  2.2158  0.7453 -0.2181
 4196TIP3    H234224   6.813   2.711   0.255 -0.4179 -0.2301 -1.2623
 4197TIP3   OH234225   4.035   1.665   1.280  0.8886 -0.3097 -0.1984
 4197TIP3    H134226   4.025   1.706   1.366  1.5001 -1.1193  0.2703
 4197TIP3    H234227   3.985   1.721   1.221 -2.4196 -1.4982  1.2042
 4198TIP3   OH234228   4.975   5.509   2.979  0.0036 -0.5143  0.3427
 4198TIP3    H134229   4.986   5.426   3.024  3.9097 -1.5729 -2.0835
 4198TIP3    H234230   4.911   5.491   2.910 -0.4790 -0.9551  0.8964
 4199TIP3   OH234231   6.478   0.301   1.156  0.2052 -0.1118 -0.0934
 4199TIP3    H134232   6.532   0.304   1.077  0.7568  2.0033  0.2941
 4199TIP3    H234233   6.388   0.295   1.123  0.4651  0.0925 -0.8615
 4200TIP3   OH234234   3.002   4.475   7.865  0.0335  0.3203  0.6390
 4200TIP3    H134235   3.034   4.471   7.775  1.7866  0.1191  1.2287
 4200TIP3    H234236   3.039   4.397   7.907 -2.4658 -0.7279  1.0553
 4201TIP3   OH234237   4.171   6.551   7.013 -0.0645  0.0365 -0.4445
 4201TIP3    H134238   4.078   6.571   6.999  0.0337  0.1442 -0.9512
 4201TIP3    H234239   4.193   6.489   6.944  0.3457  0.3180 -0.5651
 4202TIP3   OH234240   1.735   4.952   7.362 -0.1580 -0.6454 -0.2273
 4202TIP3    H134241   1.706   4.881   7.304  1.1420 -0.9802 -0.5016
 4202TIP3    H234242   1.724   5.032   7.310  0.9188 -0.9349 -0.9213
 4203TIP3   OH234243   6.421   6.889   8.578 -0.4746  0.4310  0.1601
 4203TIP3    H134244   6.380   6.961   8.627 -3.9560 -1.0585 -0.2668
 4203TIP3    H234245   6.435   6.820   8.643 -3.2783 -0.8156 -0.4106
 4204TIP3   OH234246   5.284   0.667   1.375 -0.1019 -0.1744  0.3593
 4204TIP3    H134247   5.256   0.736   1.315 -0.8734 -1.1081 -0.3879
 4204TIP3    H234248   5.228   0.677   1.452  1.6111  1.7154  1.4742
 4205TIP3   OH234249   2.376   2.013   6.914  0.1895 -0.0640 -0.4002
 4205TIP3    H134250   2.345   2.102   6.895  0.5471  0.0735 -0.3500
 4205TIP3    H234251   2.431   2.024   6.992  0.7218 -0.2346 -0.7499
 4206TIP3   OH234252   5.006   0.456   2.650  0.3153 -0.0646 -0.7918
 4206TIP3    H134253   5.080   0.453   2.710 -0.3694 -0.7481  0.0325
 4206TIP3    H234254   4.965   0.370   2.657 -1.2652  0.6856 -0.3298
 4207TIP3   OH234255   2.031   0.898   8.031  0.4993  0.4239  0.2023
 4207TIP3    H134256   1.962   0.943   7.983  0.4395 -0.1731 -0.2897
 4207TIP3    H234257   2.109   0.951   8.016  0.0189  1.5410  1.4108
 4208TIP3   OH234258   0.218   2.256   7.745  0.6347 -0.3805  0.2765
 4208TIP3    H134259   0.236   2.244   7.652 -0.4886  1.5365 -0.2660
 4208TIP3    H234260   0.222   2.351   7.758 -0.1706 -0.5313  1.9764
 4209TIP3   OH234261   3.986   1.585   8.323 -0.0951 -0.2010 -0.3672
 4209TIP3    H134262   4.010   1.571   8.231 -2.4581 -2.0383 -0.7998
 4209TIP3    H234263   4.016   1.505   8.367  0.0960  0.2149  0.2560
 4210TIP3   OH234264   0.027   6.318   0.908 -0.1849 -0.4639  0.2634
 4210TIP3    H134265   0.085   6.336   0.982 -2.5347 -0.5147  2.2322
 4210TIP3    H234266   0.074   6.353   0.832  1.3717  1.6163  2.0470
 4211TIP3   OH234267   2.807   0.899   7.767 -1.0722  0.1466  0.0420
 4211TIP3    H134268   2.759   0.825   7.730 -0.4924 -0.2453  0.0497
 4211TIP3    H234269   2.742   0.968   7.777 -1.3809  0.0373 -1.0690
 4212TIP3   OH234270   0.849   4.640   8.051 -0.1496 -0.5009  0.0816
 4212TIP3    H134271   0.880   4.555   8.080 -1.0904 -1.4534 -1.5788
 4212TIP3    H234272   0.886   4.650   7.963 -2.2264 -0.4427 -0.8314
 4213TIP3   OH234273   0.983   4.502   0.293 -0.2432  0.0969 -0.8199
 4213TIP3    H134274   1.046   4.453   0.239 -0.1769 -0.3576 -0.3354
 4213TIP3    H234275   1.029   4.582   0.317 -0.2866  0.3225 -1.4692
 4214TIP3   OH234276   4.831   3.293   7.583 -0.4056 -0.4893 -0.2163
 4214TIP3    H134277   4.796   3.205   7.601 -1.5543  0.1879  1.0582
 4214TIP3    H234278   4.761   3.352   7.611  0.8912  0.8730  0.2212
 4215TIP3   OH234279   4.119   0.331   3.054 -0.0103  0.0396  0.4700
 4215TIP3    H134280   4.208   0.326   3.090  0.8340  1.1368 -1.3219
 4215TIP3    H234281   4.114   0.257   2.994 -0.6881 -0.5883  1.2733
 4216TIP3   OH234282   2.965   4.689   8.341 -0.0600 -0.1988 -0.0883
 4216TIP3    H134283   2.944   4.668   8.432  1.8449 -0.0367  0.4296
 4216TIP3    H234284   2.995   4.780   8.344  0.8283 -0.4565 -0.7057
 4217TIP3   OH234285   3.217   4.736   0.474 -0.3261 -0.3749  0.7779
 4217TIP3    H134286   3.150   4.802   0.490  0.3464  1.2733 -2.2657
 4217TIP3    H234287   3.287   4.758   0.535 -0.4992  1.2025  0.4610
 4218TIP3   OH234288   2.745   4.754   1.798  0.1761  0.4029  0.4308
 4218TIP3    H134289   2.707   4.810   1.730  0.4158  0.0984  0.0441
 4218TIP3    H234290   2.833   4.788   1.811  1.0833 -1.1237 -1.2763
 4219TIP3   OH234291   0.460   1.369   1.798  0.1801  0.5642 -0.1373
 4219TIP3    H134292   0.400   1.428   1.753 -0.2839 -0.0693 -0.3628
 4219TIP3    H234293   0.451   1.286   1.752 -2.0724 -0.8136  2.5210
 4220TIP3   OH234294   3.835   0.994   1.538  0.2267 -0.0048  0.5181
 4220TIP3    H134295   3.893   0.918   1.540 -0.1753 -0.3041  1.1289
 4220TIP3    H234296   3.749   0.959   1.561 -0.3033  0.3502 -0.7899
 4221TIP3   OH234297   6.447   4.383   8.319  0.4662  0.0583 -0.0441
 4221TIP3    H134298   6.421   4.321   8.250  0.2070  1.0006 -0.8087
 4221TIP3    H234299   6.520   4.432   8.281  1.3057 -0.4131  0.9177
 4222TIP3   OH234300   2.040   2.326   7.173  0.2887 -0.2152 -0.2623
 4222TIP3    H134301   2.019   2.233   7.187 -1.6905 -0.0139 -1.4819
 4222TIP3    H234302   2.054   2.361   7.261  0.0370 -1.4568  0.2940
 4223TIP3   OH234303   6.861   6.514   3.073  0.4689 -0.0786 -0.5830
 4223TIP3    H134304   6.922   6.587   3.084 -0.4725  0.6824 -0.3179
 4223TIP3    H234305   6.916   6.436   3.081  1.3136  0.5776  0.3104
 4224TIP3   OH234306   1.622   1.826   2.114 -0.0608 -0.0987  0.4820
 4224TIP3    H134307   1.559   1.754   2.114  2.4553 -2.4840  0.2486
 4224TIP3    H234308   1.649   1.834   2.022  2.3739 -1.5535  0.9658
 4225TIP3   OH234309   5.478   0.704   1.773 -0.2663 -0.1923  0.2609
 4225TIP3    H134310   5.454   0.613   1.794  1.2297 -0.3339  1.5330
 4225TIP3    H234311   5.554   0.722   1.828 -0.0819  1.6088 -0.5184
 4226TIP3   OH234312   1.386   0.529   7.702  0.3458 -0.1268  0.1063
 4226TIP3    H134313   1.463   0.493   7.747  0.2418  0.2613  0.6061
 4226TIP3    H234314   1.421   0.572   7.625  0.4645 -1.3954 -0.5789
 4227TIP3   OH234315   0.636   3.680   0.205  0.0338  0.7306  0.2951
 4227TIP3    H134316   0.693   3.691   0.282 -0.8288  1.5945  0.8360
 4227TIP3    H234317   0.562   3.628   0.238 -0.2821  1.0073  0.0323
 4228TIP3   OH234318   0.787   4.872   0.177  0.0778  0.1863 -0.0393
 4228TIP3    H134319   0.864   4.927   0.188  1.6556 -1.6959 -1.0621
 4228TIP3    H234320   0.720   4.912   0.233  1.7856  1.8587  0.8961
 4229TIP3   OH234321   6.925   0.701   2.068 -0.1522 -0.5607  0.3886
 4229TIP3    H134322   6.832   0.683   2.083 -0.2511  0.2291  0.7788
 4229TIP3    H234323   6.943   0.781   2.119  0.7058 -0.6259  0.2118
 4230TIP3   OH234324   3.526   3.704   8.062  0.8543  0.4029  0.1438
 4230TIP3    H134325   3.510   3.625   8.010  2.3182 -0.1620  0.4870
 4230TIP3    H234326   3.493   3.776   8.008  2.6482 -0.1226 -1.7942
 4231TIP3   OH234327   2.449   3.590   2.013 -0.5329 -0.0979 -0.3913
 4231TIP3    H134328   2.484   3.501   2.004  1.3364  0.4395  1.0789
 4231TIP3    H234329   2.471   3.633   1.930  0.1552 -0.4810 -0.4156
 4232TIP3   OH234330   3.291   1.747   1.679 -0.3091 -0.0109  0.2010
 4232TIP3    H134331   3.380   1.766   1.707  1.0467 -3.9928 -0.7434
 4232TIP3    H234332   3.283   1.788   1.592  1.1463 -0.7445 -0.3052
 4233TIP3   OH234333   1.988   0.177   1.981  0.3372  0.1122 -0.1298
 4233TIP3    H134334   2.055   0.154   1.917  1.7943  0.6131  1.1474
 4233TIP3    H234335   1.974   0.271   1.970 -0.0440  0.0377 -0.2886
 4234TIP3   OH234336   0.217   4.782   0.859 -0.4995 -0.1513  0.2581
 4234TIP3    H134337   0.265   4.864   0.849  0.6462 -0.5770  1.7518
 4234TIP3    H234338   0.153   4.799   0.928 -0.7544 -0.3113  0.0633
 4235TIP3   OH234339   3.265   4.483   0.377 -0.1621  0.0740  0.0577
 4235TIP3    H134340   3.353   4.480   0.338 -0.3712 -0.1964 -0.3944
 4235TIP3    H234341   3.263   4.568   0.423  0.6800 -0.3445  0.9136
 4236TIP3   OH234342   5.405   6.729   0.975  0.1904 -0.2448  0.2220
 4236TIP3    H134343   5.394   6.807   0.920 -1.4559 -1.9338 -1.9898
 4236TIP3    H234344   5.499   6.715   0.977  0.6491  2.3351  1.5577
 4237TIP3   OH234345   1.589   6.142   0.718 -0.0441  0.4192  0.5462
 4237TIP3    H134346   1.507   6.118   0.761 -0.2140  0.6001  0.3274
 4237TIP3    H234347   1.627   6.209   0.775  0.3429 -0.2305  1.0634
 4238TIP3   OH234348   1.072   4.378   0.558  0.2940 -0.2092  0.2228
 4238TIP3    H134349   1.097   4.288   0.535  0.7082 -0.1783  0.5406
 4238TIP3    H234350   1.134   4.433   0.510 -1.2702  0.0019 -1.6757
 4239TIP3   OH234351   0.310   2.781   0.034  0.0067 -0.1796  0.0264
 4239TIP3    H134352   0.228   2.788  -0.016 -0.2054  0.2187  0.4236
 4239TIP3    H234353   0.374   2.749  -0.029 -0.5717 -0.9780 -0.1636
 4240TIP3   OH234354   5.257   0.211   0.241 -0.7112 -0.5395  0.0032
 4240TIP3    H134355   5.204   0.142   0.280 -0.5183  0.2866  1.8148
 4240TIP3    H234356   5.192   0.272   0.205 -1.0843  0.4397  2.1656
 4241TIP3   OH234357   4.083   3.475   7.148 -0.5540 -0.6205  0.1129
 4241TIP3    H134358   4.085   3.562   7.107 -0.8380 -0.8371 -0.3680
 4241TIP3    H234359   4.122   3.418   7.082 -1.1266 -0.9962  0.1029
 4242TIP3   OH234360   4.078   5.974   0.194 -0.4573  0.1455  0.1119
 4242TIP3    H134361   4.131   6.008   0.267  0.0305  0.6369 -0.4675
 4242TIP3    H234362   4.024   5.906   0.235  0.4385 -0.2049  0.7667
 4243TIP3   OH234363   4.916   1.666   8.119  0.4644 -0.1116  0.8653
 4243TIP3    H134364   4.933   1.584   8.072 -1.0674  0.5900 -1.0037
 4243TIP3    H234365   4.822   1.664   8.137  0.4719  1.0965  1.0869
 4244TIP3   OH234366   2.771   0.700   2.339 -0.0628 -0.5148 -0.2723
 4244TIP3    H134367   2.731   0.734   2.419  0.5881  0.9765 -0.5575
 4244TIP3    H234368   2.791   0.608   2.359 -0.2668 -0.2675  1.1315
 4245TIP3   OH234369   4.446   4.016   0.065 -0.1101 -0.0188  0.5940
 4245TIP3    H134370   4.383   3.953   0.102 -0.7833  0.5815  0.4801
 4245TIP3    H234371   4.411   4.037  -0.021  0.7578 -0.3997  0.1424
 4246TIP3   OH234372   2.732   5.649   0.567 -0.3281 -0.3368  0.3544
 4246TIP3    H134373   2.778   5.593   0.504 -0.1428  0.7401 -0.4814
 4246TIP3    H234374   2.662   5.690   0.516  0.3526  1.2199  0.6223
 4247TIP3   OH234375   1.410   4.817   1.958 -0.2365 -0.0571  0.3566
 4247TIP3    H134376   1.440   4.799   1.869  1.1193  0.2138  0.7438
 4247TIP3    H234377   1.321   4.852   1.946 -0.7657 -1.6496 -0.7498
 4248TIP3   OH234378   1.138   2.762   2.530 -0.8343  0.0554 -0.2658
 4248TIP3    H134379   1.054   2.806   2.514 -1.9605 -1.2813  1.5935
 4248TIP3    H234380   1.115   2.685   2.582  1.4560 -0.9278 -0.5982
 4249TIP3   OH234381   4.674   2.170   7.074 -0.2787 -0.0060  0.2065
 4249TIP3    H134382   4.718   2.254   7.088 -1.5559  0.8646 -0.8047
 4249TIP3    H234383   4.697   2.146   6.984  0.9405 -1.3054  0.8247
 4250TIP3   OH234384   6.734   5.047   0.913 -0.7836  0.0481 -0.1911
 4250TIP3    H134385   6.702   5.100   0.986  0.2371 -0.3053  0.5281
 4250TIP3    H234386   6.798   5.102   0.869 -0.0045 -0.4166  0.3293
 4251TIP3   OH234387   3.763   2.902   0.195  0.0321 -0.7192 -0.2412
 4251TIP3    H134388   3.734   2.986   0.233  0.8135 -1.0707  1.2102
 4251TIP3    H234389   3.799   2.853   0.269  0.5879 -1.9152 -1.2583
 4252TIP3   OH234390   1.999   6.256   7.561  0.2710  0.2176 -0.1986
 4252TIP3    H134391   2.025   6.307   7.483  0.4141 -1.1503 -1.0855
 4252TIP3    H234392   2.062   6.184   7.564 -1.6522 -1.5915 -0.7354
 4253TIP3   OH234393   2.160   4.408   0.939 -0.4637  0.1738  0.6705
 4253TIP3    H134394   2.246   4.411   0.899 -0.3674  0.1988  0.8776
 4253TIP3    H234395   2.129   4.318   0.923 -0.6591  0.3454  0.0604
 4254TIP3   OH234396   6.353   6.740   8.097 -0.2471 -0.5689 -0.4648
 4254TIP3    H134397   6.347   6.826   8.053 -0.7741 -0.3625  0.0071
 4254TIP3    H234398   6.274   6.694   8.070 -1.5665  0.2637  1.7420
 4255TIP3   OH234399   5.288   4.846   0.198  0.4850 -0.1659 -0.0893
 4255TIP3    H134400   5.234   4.904   0.252  0.1856 -0.1075 -0.4444
 4255TIP3    H234401   5.373   4.890   0.193  0.5048 -0.1614  0.3148
 4256TIP3   OH234402   0.230   4.426   2.035  0.1594  0.4573 -0.2893
 4256TIP3    H134403   0.212   4.470   2.118 -1.1609  0.3212 -0.4907
 4256TIP3    H234404   0.326   4.427   2.028  0.2348  1.6757  0.5765
 4257TIP3   OH234405   3.142   5.170   2.201 -0.3043 -0.3867  0.1002
 4257TIP3    H134406   3.125   5.186   2.294  0.8330  0.6831  0.1460
 4257TIP3    H234407   3.144   5.257   2.161  2.3955 -0.5440 -0.3196
 4258TIP3   OH234408   2.022   1.283   1.449  0.2276  0.6868  0.4784
 4258TIP3    H134409   2.080   1.235   1.391  0.8715  0.8884  0.9407
 4258TIP3    H234410   2.028   1.374   1.419 -0.7420  0.5383 -0.1946
 4259TIP3   OH234411   3.565   1.437   2.464 -0.3828 -0.1177  0.6132
 4259TIP3    H134412   3.627   1.400   2.401  0.0755 -0.1141  1.0535
 4259TIP3    H234413   3.480   1.404   2.436 -0.2243  0.1397 -0.1911
 4260TIP3   OH234414   0.447   4.832   6.760  0.7030 -0.2691  0.2462
 4260TIP3    H134415   0.425   4.754   6.811  1.1363  0.0759  0.9790
 4260TIP3    H234416   0.390   4.901   6.796  0.5772 -0.1614 -0.1543
 4261TIP3   OH234417   3.892   1.399   0.456 -0.7186 -0.3125  0.3589
 4261TIP3    H134418   3.813   1.363   0.415 -0.1628 -1.2427  0.0776
 4261TIP3    H234419   3.963   1.341   0.427 -0.2245 -0.7077  2.2284
 4262TIP3   OH234420   0.897   2.739   0.704 -0.6569 -0.3090 -0.1339
 4262TIP3    H134421   0.806   2.750   0.733 -1.1047  1.5490 -1.9960
 4262TIP3    H234422   0.947   2.800   0.759 -1.2885  2.1053 -2.0595
 4263TIP3   OH234423   0.501   6.545   0.756 -0.2384  0.6273 -0.1490
 4263TIP3    H134424   0.541   6.612   0.701  0.0124  0.4558 -0.1750
 4263TIP3    H234425   0.529   6.462   0.718 -0.7926  0.5026 -0.2980
 4264TIP3   OH234426   3.958   5.135   1.788  0.7470 -0.1979  0.2880
 4264TIP3    H134427   3.900   5.060   1.771 -0.5306  0.6595  0.7733
 4264TIP3    H234428   3.956   5.185   1.707  1.4017 -0.5324  0.0542
 4265TIP3   OH234429   0.902   0.364   2.568 -0.0637  0.1254 -0.9711
 4265TIP3    H134430   0.888   0.271   2.552  0.0529 -0.0104 -0.3205
 4265TIP3    H234431   0.890   0.374   2.662  1.7371  0.4401 -0.7376
 4266TIP3   OH234432   5.144   0.433   2.092 -0.0526  0.4728  0.0838
 4266TIP3    H134433   5.142   0.483   2.174  0.6957  1.4470 -0.4733
 4266TIP3    H234434   5.236   0.413   2.078  0.2411  2.7335 -1.9054
 4267TIP3   OH234435   3.884   6.877   2.182 -0.1148  0.3357  0.2260
 4267TIP3    H134436   3.913   6.786   2.193  2.3057  0.9856 -0.2319
 4267TIP3    H234437   3.922   6.923   2.256 -0.9311  1.0983  0.1912
 4268TIP3   OH234438   3.488   1.024   2.576 -0.2230 -0.2596 -0.4839
 4268TIP3    H134439   3.493   1.084   2.651  2.0592 -0.1701 -0.6487
 4268TIP3    H234440   3.394   1.012   2.562 -0.7324  0.0316  2.1223
 4269TIP3   OH234441   5.898   3.660   1.952  0.0197  0.6849 -0.0278
 4269TIP3    H134442   5.839   3.696   1.886 -1.0459  0.4435  0.7829
 4269TIP3    H234443   5.975   3.633   1.902 -1.2459 -0.6058 -1.3697
 4270TIP3   OH234444   4.071   2.362   7.790 -0.4407  0.3913 -0.0980
 4270TIP3    H134445   4.086   2.320   7.706 -1.2767  0.7795 -0.4542
 4270TIP3    H234446   4.153   2.408   7.810  0.1590 -0.6389 -0.1349
 4271TIP3   OH234447   0.757   5.639   0.665 -0.0950 -0.1803 -0.2487
 4271TIP3    H134448   0.777   5.609   0.576 -1.0814  2.4922 -1.4667
 4271TIP3    H234449   0.828   5.699   0.686  1.0527 -2.0247  1.5512
 4272TIP3   OH234450   1.953   1.257   8.490  0.7602 -0.5709  0.3702
 4272TIP3    H134451   1.935   1.204   8.412  1.4293  0.1690 -0.3013
 4272TIP3    H234452   2.048   1.258   8.498  0.6868 -0.9663  1.4387
 4273TIP3   OH234453   0.315   1.113   0.947  0.2045 -0.2576  0.2010
 4273TIP3    H134454   0.358   1.079   0.869 -0.8513 -1.2709  0.0447
 4273TIP3    H234455   0.324   1.208   0.939  0.9343 -0.3808 -0.6629
 4274TIP3   OH234456   4.404   4.792   8.009  0.4314  0.0304 -0.3614
 4274TIP3    H134457   4.397   4.884   8.034  0.7498 -0.5072  1.9397
 4274TIP3    H234458   4.479   4.789   7.950  0.5956  1.2145 -0.2465
 4275TIP3   OH234459   1.551   6.504   1.087  0.7257 -0.1975  0.6922
 4275TIP3    H134460   1.544   6.588   1.042  0.0518 -0.1254  0.9122
 4275TIP3    H234461   1.503   6.443   1.030 -0.1351 -0.1046  1.2901
 4276TIP3   OH234462   5.482   5.246   0.858 -0.1707 -0.3528 -1.0021
 4276TIP3    H134463   5.498   5.152   0.865  1.0867 -0.0810  0.0349
 4276TIP3    H234464   5.509   5.268   0.768  0.1922 -0.8729 -1.0246
 4277TIP3   OH234465   4.709   1.648   6.528 -0.1065 -0.3302  0.0122
 4277TIP3    H134466   4.632   1.635   6.472 -0.0850 -1.3395  0.2004
 4277TIP3    H234467   4.782   1.652   6.466 -0.3531  1.3348 -0.2240
 4278TIP3   OH234468   5.595   5.822   8.070  0.0893 -0.0274  0.4090
 4278TIP3    H134469   5.606   5.814   7.975 -1.1303 -0.0543  0.2529
 4278TIP3    H234470   5.649   5.753   8.106 -0.8817 -1.2378 -0.3648
 4279TIP3   OH234471   3.965   0.776   6.957 -0.2848  0.0603  0.1760
 4279TIP3    H134472   4.034   0.832   6.921  0.2440 -0.6581  0.0508
 4279TIP3    H234473   3.893   0.837   6.978  0.7338  0.9562  1.2009
 4280TIP3   OH234474   3.482   6.501   2.714 -0.0923  0.6073 -0.1310
 4280TIP3    H134475   3.483   6.595   2.698  0.7810  0.5006 -0.8016
 4280TIP3    H234476   3.575   6.477   2.723 -0.2671 -0.2698 -0.5423
 4281TIP3   OH234477   4.563   4.757   8.396  0.0756  0.6788  0.2740
 4281TIP3    H134478   4.530   4.796   8.477  2.7097  1.1143  1.2487
 4281TIP3    H234479   4.595   4.832   8.345  0.9948  0.1797  0.1015
 4282TIP3   OH234480   3.245   5.865   8.114 -0.3527  0.1968 -0.6120
 4282TIP3    H134481   3.230   5.799   8.046 -0.7705 -1.5798  1.1052
 4282TIP3    H234482   3.251   5.814   8.195  2.2953  2.0101  0.4422
 4283TIP3   OH234483   3.928   3.128   8.084  0.1452 -0.1080 -0.6101
 4283TIP3    H134484   3.978   3.199   8.046 -1.1391  1.6445  0.7933
 4283TIP3    H234485   3.837   3.156   8.077 -0.5892 -2.4261 -1.5633
 4284TIP3   OH234486   2.921   6.556   1.666 -0.2584 -0.4648  0.3382
 4284TIP3    H134487   2.870   6.508   1.600 -0.1255 -0.9927  0.6208
 4284TIP3    H234488   2.855   6.601   1.719 -0.3746 -0.2030 -0.0229
 4285TIP3   OH234489   2.899   3.701   2.405  0.2854  0.5425 -0.3141
 4285TIP3    H134490   2.841   3.774   2.426 -0.2183 -0.2412  1.0954
 4285TIP3    H234491   2.870   3.630   2.461  0.2906 -1.0083 -2.1714
 4286TIP3   OH234492   5.889   0.206   0.229  0.8630  0.3762 -0.4758
 4286TIP3    H134493   5.968   0.260   0.224  2.2722 -1.5247  0.3214
 4286TIP3    H234494   5.881   0.184   0.322 -0.5495  0.4189 -0.5699
 4287TIP3   OH234495   1.584   0.860   7.662 -0.5701  0.3001 -0.2799
 4287TIP3    H134496   1.619   0.813   7.586 -2.3719 -0.7679 -0.5172
 4287TIP3    H234497   1.604   0.803   7.736 -0.6107  0.3393 -0.2388
 4288TIP3   OH234498   4.505   6.117   7.364  0.0620 -0.2180 -0.5562
 4288TIP3    H134499   4.511   6.023   7.352  1.2848 -0.1945 -0.3180
 4288TIP3    H234500   4.539   6.154   7.283  2.7591 -0.0358  0.5635
 4289TIP3   OH234501   3.931   0.893   0.189 -0.1266 -0.6261 -0.2171
 4289TIP3    H134502   3.838   0.885   0.213 -0.0770  1.5954  1.0135
 4289TIP3    H234503   3.978   0.851   0.261 -0.1440  0.2804  0.3365
 4290TIP3   OH234504   5.670   1.084   1.095 -0.2812  0.1874 -0.5290
 4290TIP3    H134505   5.759   1.062   1.069 -0.1708 -0.4579  0.3655
 4290TIP3    H234506   5.622   1.091   1.012  0.4570 -0.0486 -0.9861
 4291TIP3   OH234507   4.339   3.575   2.631  0.5292 -0.3201  0.1248
 4291TIP3    H134508   4.346   3.481   2.645  0.6119 -0.7105 -2.1365
 4291TIP3    H234509   4.250   3.597   2.662 -0.0983 -1.4663 -0.7862
 4292TIP3   OH234510   5.326   5.551   1.852  0.2256 -0.5083 -0.1045
 4292TIP3    H134511   5.411   5.525   1.818  0.3413 -1.9400  1.1625
 4292TIP3    H234512   5.289   5.607   1.784  2.1000  0.0327 -0.7326
 4293TIP3   OH234513   0.041   0.951   6.625  0.0652 -0.1233 -0.0348
 4293TIP3    H134514   0.043   0.861   6.594 -0.4715  0.1944 -1.0514
 4293TIP3    H234515   0.102   0.998   6.568 -1.6916  0.6709 -1.3798
 4294TIP3   OH234516   4.496   0.063   0.992  0.1165 -0.2880  0.2274
 4294TIP3    H134517   4.491   0.034   1.084 -0.3206  0.5447  0.4682
 4294TIP3    H234518   4.533   0.151   0.997  0.0776 -0.2361 -0.4030
 4295TIP3   OH234519   0.623   2.631   0.137  0.6494 -0.3628 -0.5743
 4295TIP3    H134520   0.634   2.537   0.124  2.0250 -0.1014 -1.3907
 4295TIP3    H234521   0.589   2.664   0.053  0.7830 -0.0308 -0.5015
 4296TIP3   OH234522   5.108   3.424   8.202 -0.1425 -0.7139 -0.4308
 4296TIP3    H134523   5.076   3.362   8.268  0.3678  1.2169  1.7555
 4296TIP3    H234524   5.056   3.503   8.216  2.0348  0.7768 -0.2380
 4297TIP3   OH234525   0.591   1.712   1.669 -0.4334 -0.8486 -0.1458
 4297TIP3    H134526   0.642   1.637   1.639  0.4630 -0.2380 -0.1894
 4297TIP3    H234527   0.627   1.786   1.621 -0.1306 -0.1185  1.1371
 4298TIP3   OH234528   3.575   6.280   0.388 -0.0858 -0.2784 -0.3216
 4298TIP3    H134529   3.558   6.201   0.337  0.3539  0.0911 -1.0657
 4298TIP3    H234530   3.544   6.259   0.476 -0.4548 -1.0890 -0.6317
 4299TIP3   OH234531   3.771   5.959   1.446 -0.2725  1.0922 -0.2872
 4299TIP3    H134532   3.737   6.028   1.390 -3.6922 -0.8386 -0.8202
 4299TIP3    H234533   3.739   5.878   1.407  0.2640 -0.5686  2.4516
 4300TIP3   OH234534   6.202   5.457   0.840  0.2541 -0.1445  0.0607
 4300TIP3    H134535   6.241   5.394   0.780  1.8455 -0.2925  1.2064
 4300TIP3    H234536   6.128   5.410   0.878  0.0105 -0.4904 -0.7971
 4301TIP3   OH234537   1.941   2.529   7.016 -0.4515 -0.1024  0.0250
 4301TIP3    H134538   1.850   2.544   7.044 -0.0329 -1.0628  2.0621
 4301TIP3    H234539   1.973   2.460   7.074  1.5772  0.1770 -0.6877
 4302TIP3   OH234540   2.565   2.220   0.149  0.3098 -0.1081 -0.0129
 4302TIP3    H134541   2.471   2.202   0.143  0.1931  0.9469 -2.3636
 4302TIP3    H234542   2.598   2.205   0.060  1.9629  1.6129  0.2547
 4303TIP3   OH234543   2.203   3.593   2.173 -0.4317  0.5893  0.1780
 4303TIP3    H134544   2.274   3.621   2.115 -0.5035 -0.0802 -0.2446
 4303TIP3    H234545   2.171   3.512   2.133  0.1153 -0.3785  1.6492
 4304TIP3   OH234546   0.489   3.573   8.165 -0.4556  0.5468 -0.1477
 4304TIP3    H134547   0.446   3.658   8.169 -0.7423  0.3752  0.9137
 4304TIP3    H234548   0.417   3.509   8.166 -0.2799  0.2850 -1.8538
 4305TIP3   OH234549   3.639   4.199   3.054 -0.3859 -1.3056 -0.3037
 4305TIP3    H134550   3.682   4.114   3.055  1.0747 -0.6104  1.1025
 4305TIP3    H234551   3.662   4.239   3.138 -0.7552  0.5910 -1.0423
 4306TIP3   OH234552   6.129   5.437   2.977  0.0813 -0.2492 -0.3005
 4306TIP3    H134553   6.151   5.362   2.922 -0.0923  0.2911 -1.1275
 4306TIP3    H234554   6.198   5.439   3.044 -0.0617 -1.2928 -0.1072
 4307TIP3   OH234555   5.996   5.211   8.050 -0.2483 -0.4066 -0.3153
 4307TIP3    H134556   5.975   5.304   8.038 -1.4465 -0.4332  1.2598
 4307TIP3    H234557   6.090   5.209   8.067 -0.2806  0.5677  0.0330
 4308TIP3   OH234558   2.064   3.714   2.369  0.3708  0.1357  0.6391
 4308TIP3    H134559   1.973   3.689   2.348  0.3485  1.0745 -0.4604
 4308TIP3    H234560   2.117   3.658   2.312  0.4817 -0.1842  1.0510
 4309TIP3   OH234561   0.644   3.578   7.645 -0.2709  0.1812 -0.1855
 4309TIP3    H134562   0.731   3.571   7.606 -0.0881  1.1613  0.0114
 4309TIP3    H234563   0.655   3.641   7.716 -1.3855  1.2056 -0.8867
 4310TIP3   OH234564   2.014   4.816   8.409 -0.0073 -0.3047  0.4992
 4310TIP3    H134565   1.933   4.786   8.368 -0.1071  0.1634  0.3437
 4310TIP3    H234566   2.026   4.758   8.484  0.0254 -0.9966 -0.0260
 4311TIP3   OH234567   1.752   0.747   6.674 -0.3123 -0.1264  0.0189
 4311TIP3    H134568   1.746   0.662   6.630  0.1265 -1.2257  1.9895
 4311TIP3    H234569   1.661   0.771   6.693 -0.3863 -0.5185  0.1524
 4312TIP3   OH234570   0.268   1.878   0.500 -0.1155  0.0220  0.4096
 4312TIP3    H134571   0.192   1.832   0.465 -0.4399  0.3140  0.7228
 4312TIP3    H234572   0.334   1.810   0.512 -0.1609 -0.1572 -0.3087
 4313TIP3   OH234573   3.075   2.260   2.953  0.0507  0.3973 -0.3533
 4313TIP3    H134574   3.135   2.321   2.910 -1.3032  1.2768 -1.0574
 4313TIP3    H234575   3.051   2.305   3.035 -1.8039  1.3845 -1.3772
 4314TIP3   OH234576   3.333   3.309   2.172 -0.3634 -0.1288  0.6466
 4314TIP3    H134577   3.278   3.236   2.199 -0.0279 -0.5811  0.1414
 4314TIP3    H234578   3.287   3.348   2.098 -0.9819  0.7299  1.4763
 4315TIP3   OH234579   5.129   3.592   8.458  0.0224  0.0488 -0.4345
 4315TIP3    H134580   5.212   3.605   8.412  0.2429 -1.6595 -0.5759
 4315TIP3    H234581   5.103   3.502   8.436 -1.1545  0.0780  0.7328
 4316TIP3   OH234582   1.806   0.552   2.183 -0.1236 -0.2112  0.1629
 4316TIP3    H134583   1.856   0.538   2.103 -0.3959  0.1828 -0.0801
 4316TIP3    H234584   1.714   0.547   2.155 -0.2200 -0.1106  0.4545
 4317TIP3   OH234585   4.816   3.765   8.399  0.4276  0.2453 -0.8639
 4317TIP3    H134586   4.872   3.713   8.341  0.7346  0.2313 -0.5560
 4317TIP3    H234587   4.841   3.738   8.487  0.9521  1.2937 -0.6862
 4318TIP3   OH234588   1.798   4.428   0.772 -0.2636  0.0170  0.1701
 4318TIP3    H134589   1.777   4.501   0.713  0.7741  0.0054 -0.2311
 4318TIP3    H234590   1.715   4.408   0.815 -1.0482  0.0889 -1.2277
 4319TIP3   OH234591   1.832   4.082   0.916 -0.7746 -0.2445 -0.3936
 4319TIP3    H134592   1.826   4.057   0.824 -0.2081 -2.5385  0.1436
 4319TIP3    H234593   1.823   4.178   0.915 -3.7606 -0.4152 -2.5453
 4320TIP3   OH234594   1.769   5.200   6.782  0.0485 -0.0298 -0.3575
 4320TIP3    H134595   1.733   5.125   6.829  0.7899  0.7416  1.5484
 4320TIP3    H234596   1.699   5.264   6.781 -0.3785 -0.4835 -1.4477
 4321TIP3   OH234597   6.645   3.019   8.524 -0.5990  0.7350  0.3646
 4321TIP3    H134598   6.580   3.002   8.592 -0.5135 -0.6737  0.1248
 4321TIP3    H234599   6.594   3.043   8.447 -0.7717  0.7908  0.4970
 4322TIP3   OH234600   3.427   3.456   1.135  0.4350  0.0833 -0.9575
 4322TIP3    H134601   3.501   3.444   1.194  0.1754 -0.9839 -0.8180
 4322TIP3    H234602   3.394   3.544   1.153  0.8365  0.0526 -0.0691
 4323TIP3   OH234603   2.912   4.507   1.135  0.2017  0.3272  0.5523
 4323TIP3    H134604   2.963   4.580   1.099 -2.1546  0.8884 -2.0151
 4323TIP3    H234605   2.978   4.448   1.173  2.4127  2.4769  0.3459
 4324TIP3   OH234606   5.831   0.844   7.720  0.1329 -0.1694  0.6005
 4324TIP3    H134607   5.829   0.857   7.625  2.3039 -0.9185  0.4037
 4324TIP3    H234608   5.750   0.796   7.739  0.0422 -0.7178 -0.9988
 4325TIP3   OH234609   3.798   4.184   0.499  0.3868  0.2301  0.2944
 4325TIP3    H134610   3.762   4.100   0.469  0.4225 -0.1572  1.3122
 4325TIP3    H234611   3.869   4.160   0.559  0.5532  0.9974  0.4162
 4326TIP3   OH234612   3.660   2.666   0.572 -0.2022 -0.3274 -0.4455
 4326TIP3    H134613   3.696   2.724   0.638 -0.4079 -3.1317  2.3462
 4326TIP3    H234614   3.733   2.649   0.512  0.8283  0.1070  0.6585
 4327TIP3   OH234615   2.760   3.884   8.294  0.4851 -0.3128 -0.0495
 4327TIP3    H134616   2.852   3.906   8.305  0.2307 -0.2579  2.3597
 4327TIP3    H234617   2.760   3.800   8.249  1.7890 -1.3665  1.8462
 4328TIP3   OH234618   4.025   6.879   8.480 -0.4410  0.3383  0.3140
 4328TIP3    H134619   4.098   6.874   8.542  0.5102  1.8553 -0.6285
 4328TIP3    H234620   3.977   6.797   8.493  1.5645 -0.8320  0.7944
 4329TIP3   OH234621   3.482   0.734   1.041 -0.2639 -0.0175  0.0077
 4329TIP3    H134622   3.394   0.769   1.055  1.0756  3.1655  1.5903
 4329TIP3    H234623   3.500   0.684   1.121 -0.6216 -0.8296 -0.3969
 4330TIP3   OH234624   1.432   5.397   7.816  1.0237 -0.8914 -0.3428
 4330TIP3    H134625   1.521   5.401   7.780  1.3566 -0.0693  0.5329
 4330TIP3    H234626   1.432   5.320   7.872  0.7608 -1.6797 -1.3994
 4331TIP3   OH234627   3.820   0.955   3.013  0.0466 -0.3326 -0.4797
 4331TIP3    H134628   3.877   1.028   2.988  0.8112  0.7188  3.4870
 4331TIP3    H234629   3.756   0.949   2.942  0.9109  3.1664 -1.7834
 4332TIP3   OH234630   0.876   0.624   8.349 -0.1890  0.2851 -0.1984
 4332TIP3    H134631   0.911   0.543   8.387  1.1392  0.3950 -1.1325
 4332TIP3    H234632   0.797   0.597   8.303  0.9117 -0.7392 -1.5620
 4333TIP3   OH234633   2.826   2.188   0.889 -0.9898  0.0826 -0.0004
 4333TIP3    H134634   2.874   2.128   0.832  0.4555 -0.2947  1.5670
 4333TIP3    H234635   2.760   2.133   0.931 -1.3242  0.1369 -0.4389
 4334TIP3   OH234636   4.428   4.245   0.572 -0.2372  0.2385  0.1728
 4334TIP3    H134637   4.503   4.297   0.602 -0.7805  0.2395  1.5702
 4334TIP3    H234638   4.392   4.207   0.651 -0.8327 -0.9774 -0.6658
 4335TIP3   OH234639   4.370   2.480   1.310 -0.7723  0.0568  0.7098
 4335TIP3    H134640   4.283   2.485   1.349 -0.7660  3.3401  0.5811
 4335TIP3    H234641   4.379   2.562   1.261  1.2417 -1.5354 -1.8772
 4336TIP3   OH234642   0.711   5.374   1.883  0.6048 -0.1090 -0.5441
 4336TIP3    H134643   0.684   5.430   1.957 -1.2670 -1.2858 -0.2763
 4336TIP3    H234644   0.629   5.342   1.846  1.5815 -2.8140 -0.5843
 4337TIP3   OH234645   2.384   2.384   7.824 -0.1687  0.1640  0.1026
 4337TIP3    H134646   2.306   2.386   7.768 -0.4265  4.3308  0.2610
 4337TIP3    H234647   2.349   2.371   7.912 -0.3860 -0.6325 -0.0975
 4338TIP3   OH234648   3.013   6.607   0.604  0.2341  0.6320  0.1767
 4338TIP3    H134649   2.925   6.636   0.582  0.6833  2.1238  0.2599
 4338TIP3    H234650   3.041   6.554   0.529  0.1315  2.0778 -0.9235
 4339TIP3   OH234651   0.288   6.092   7.185 -0.8560 -0.3090 -0.9500
 4339TIP3    H134652   0.278   5.998   7.200  0.3210 -0.1995  0.8051
 4339TIP3    H234653   0.353   6.120   7.250 -1.9249  1.9090 -0.7398
 4340TIP3   OH234654   1.357   3.007   0.404  0.4975 -0.6342  0.4584
 4340TIP3    H134655   1.356   3.041   0.493  0.0640  1.4618 -0.2958
 4340TIP3    H234656   1.305   3.069   0.353 -2.4186 -3.6832 -0.6701
 4341TIP3   OH234657   4.562   2.065   1.098 -0.3170 -0.4293  1.2895
 4341TIP3    H134658   4.558   2.002   1.171 -0.4492 -1.0879  0.7213
 4341TIP3    H234659   4.654   2.065   1.072 -0.5031 -1.2077  0.5921
 4342TIP3   OH234660   2.733   6.517   7.296 -0.0108  0.8257  0.0362
 4342TIP3    H134661   2.742   6.607   7.263  1.5731  0.5318 -0.4403
 4342TIP3    H234662   2.818   6.498   7.335 -1.2741  0.5659  2.9347
 4343TIP3   OH234663   0.472   0.236   8.358  0.3183 -0.0627 -0.2368
 4343TIP3    H134664   0.513   0.169   8.304  1.0042 -0.5423  0.8531
 4343TIP3    H234665   0.378   0.224   8.344  0.4163 -1.4083  0.1154
 4344TIP3   OH234666   4.202   0.355   8.576 -0.3305  0.1300  0.1658
 4344TIP3    H134667   4.171   0.424   8.635 -0.8585 -0.5825  0.7528
 4344TIP3    H234668   4.149   0.278   8.600  0.3660 -0.5229 -0.3436
 4345TIP3   OH234669   3.997   3.182   7.728  0.3020 -0.5778  0.1302
 4345TIP3    H134670   4.046   3.148   7.653  1.5834  0.6541  0.3569
 4345TIP3    H234671   4.065   3.206   7.792 -0.6844 -0.2282  1.0809
 4346TIP3   OH234672   5.670   6.311   8.500 -0.5281  0.3301 -0.5703
 4346TIP3    H134673   5.631   6.272   8.578 -1.9352  0.5802 -1.1232
 4346TIP3    H234674   5.747   6.257   8.482 -1.4387 -1.1085 -0.3062
 4347TIP3   OH234675   6.305   0.233   2.140 -0.5283 -0.4061  0.6526
 4347TIP3    H134676   6.321   0.145   2.108  0.5079  0.3259 -0.9673
 4347TIP3    H234677   6.315   0.289   2.063 -1.7369  1.0834  1.5203
 4348TIP3   OH234678   6.621   5.476   0.083  0.0987 -0.2649 -0.1965
 4348TIP3    H134679   6.675   5.483   0.004 -1.3260 -0.9779 -1.2811
 4348TIP3    H234680   6.539   5.438   0.052 -1.4195  1.7064  1.2382
 4349TIP3   OH234681   0.116   2.004   8.496  0.5692 -0.3251 -0.1341
 4349TIP3    H134682   0.097   2.048   8.413 -1.2500 -0.3574  0.2212
 4349TIP3    H234683   0.130   1.913   8.472  0.6737 -0.2216 -0.4762
 4350TIP3   OH234684   0.031   2.603   1.107  0.4511 -0.6050 -0.6856
 4350TIP3    H134685   0.125   2.619   1.098  0.6707 -1.7128 -0.5498
 4350TIP3    H234686  -0.010   2.677   1.063  1.3708  0.2574 -0.1439
 4351TIP3   OH234687   6.518   5.254   7.005  0.2904  0.1942 -0.2794
 4351TIP3    H134688   6.605   5.233   6.971  0.3921  0.2241 -0.0387
 4351TIP3    H234689   6.460   5.189   6.965  0.9700 -2.2879  2.4571
 4352TIP3   OH234690   0.956   0.644   6.864  0.7985 -0.0116  0.2803
 4352TIP3    H134691   0.878   0.674   6.910  0.4498 -1.1557  0.4710
 4352TIP3    H234692   0.948   0.683   6.776  0.5351  0.6876  0.6051
 4353TIP3   OH234693   1.833   5.188   2.433 -0.6564 -0.2736  0.1176
 4353TIP3    H134694   1.879   5.146   2.505 -1.5359 -1.4298  0.0194
 4353TIP3    H234695   1.877   5.273   2.423  0.5102 -0.7572  0.9516
 4354TIP3   OH234696   4.616   4.147   2.418 -0.8595  0.5682 -0.2725
 4354TIP3    H134697   4.683   4.080   2.427 -1.0930  0.3008 -0.5090
 4354TIP3    H234698   4.534   4.098   2.407 -0.9215  0.8880 -1.3265
 4355TIP3   OH234699   4.717   3.297   1.967  0.2049  0.5068 -0.0882
 4355TIP3    H134700   4.646   3.335   1.916 -0.0591  0.1514  0.0046
 4355TIP3    H234701   4.751   3.227   1.911  0.2256  0.4270  0.0231
 4356TIP3   OH234702   3.276   4.114   7.736 -0.5402 -0.0059 -0.1041
 4356TIP3    H134703   3.188   4.100   7.701 -1.8674  2.5088  1.9100
 4356TIP3    H234704   3.303   4.198   7.699  1.8973 -1.5165 -2.1084
 4357TIP3   OH234705   5.295   1.465   2.062  1.2597  0.1362 -0.2462
 4357TIP3    H134706   5.347   1.508   1.994  1.3767  1.1802  0.4792
 4357TIP3    H234707   5.357   1.452   2.134  0.8559  0.0920  0.0959
 4358TIP3   OH234708   6.056   0.812   7.962  0.0858  0.0947  0.4484
 4358TIP3    H134709   6.075   0.766   7.880 -1.5722  1.0290 -0.5164
 4358TIP3    H234710   6.096   0.758   8.030 -0.3555 -1.8721 -0.7850
 4359TIP3   OH234711   2.534   4.307   1.197 -0.2753 -0.1046  0.4950
 4359TIP3    H134712   2.443   4.318   1.171 -0.5858  0.5067  1.7548
 4359TIP3    H234713   2.557   4.219   1.169 -0.5860  0.4549 -1.6935
 4360TIP3   OH234714   0.180   5.996   1.163  0.2061 -0.4938  0.0377
 4360TIP3    H134715   0.268   5.961   1.149  0.8666  0.6216  1.2549
 4360TIP3    H234716   0.128   5.918   1.184  1.2064 -1.0211  0.6838
 4361TIP3   OH234717   2.120   4.828   8.145  0.0755 -0.0518 -0.6045
 4361TIP3    H134718   2.112   4.805   8.237  1.1333 -2.2250 -0.9966
 4361TIP3    H234719   2.196   4.887   8.141  1.2256 -1.4745 -0.2918
 4362TIP3   OH234720   1.758   6.868   2.178 -0.7637  0.0766 -0.4103
 4362TIP3    H134721   1.675   6.823   2.190 -0.6808  0.0125 -0.0656
 4362TIP3    H234722   1.779   6.904   2.265 -0.5788  0.3414 -0.5628
 4363TIP3   OH234723   2.353   2.552   1.620 -0.1836  0.2196 -0.1280
 4363TIP3    H134724   2.343   2.479   1.559 -0.6840  0.3015 -0.1438
 4363TIP3    H234725   2.372   2.510   1.704 -2.0890 -0.0303  0.2312
 4364TIP3   OH234726   3.153   1.427   1.178 -0.0589 -0.8717  0.1421
 4364TIP3    H134727   3.131   1.520   1.190  0.6001 -0.6750 -0.0734
 4364TIP3    H234728   3.097   1.398   1.107 -0.0688 -0.5541  0.0166
 4365TIP3   OH234729   0.592   0.339   1.293 -0.6084 -0.1938  0.3841
 4365TIP3    H134730   0.636   0.273   1.345  0.0090  0.4490  0.6802
 4365TIP3    H234731   0.651   0.414   1.292 -2.3893  1.3416  2.2208
 4366TIP3   OH234732   5.651   2.074   0.964  0.2894  0.4003 -0.4632
 4366TIP3    H134733   5.636   2.100   0.873  0.5923  0.9874 -0.3478
 4366TIP3    H234734   5.565   2.083   1.006  0.1497  0.1305 -0.6918
 4367TIP3   OH234735   5.894   4.895   7.632 -0.0443  0.4078  0.5461
 4367TIP3    H134736   5.891   4.799   7.630 -2.3529  0.4504  0.0762
 4367TIP3    H234737   5.954   4.915   7.704  0.7900 -1.3661  0.4032
 4368TIP3   OH234738   1.782   5.732   7.491  0.6191 -0.2171  0.7251
 4368TIP3    H134739   1.785   5.705   7.399 -2.8040  0.4503  0.2671
 4368TIP3    H234740   1.863   5.781   7.504  0.0939  1.9611 -2.7952
 4369TIP3   OH234741   4.709   4.652   2.558  0.0662  0.0858  0.7517
 4369TIP3    H134742   4.680   4.567   2.525 -2.6750  1.1310  0.2576
 4369TIP3    H234743   4.741   4.698   2.481 -0.0558  0.1306  0.7285
 4370TIP3   OH234744   5.966   3.977   7.457  0.3176  0.0238 -0.5884
 4370TIP3    H134745   6.023   3.958   7.382 -0.7070  0.5845 -1.5369
 4370TIP3    H234746   5.892   3.917   7.448  0.8965 -0.9655  0.8472
 4371TIP3   OH234747   1.177   4.024   8.576  0.6545 -0.4328 -0.1452
 4371TIP3    H134748   1.153   3.933   8.591  0.7743 -0.6095 -0.9735
 4371TIP3    H234749   1.232   4.047   8.651  0.5294 -1.0040  0.1266
 4372TIP3   OH234750   1.310   0.266   2.124 -0.4416 -0.1187 -0.0316
 4372TIP3    H134751   1.291   0.313   2.205  0.9281 -1.4224  1.0933
 4372TIP3    H234752   1.367   0.326   2.075 -0.5400  0.3050  0.3642
 4373TIP3   OH234753   0.989   0.104   2.823 -0.2592  0.6957 -0.0541
 4373TIP3    H134754   1.025   0.193   2.823 -0.5592  0.9169 -2.9766
 4373TIP3    H234755   0.923   0.105   2.754 -2.2097 -1.1354  1.6594
 4374TIP3   OH234756   3.963   6.567   8.505 -0.1599  0.0060  0.1092
 4374TIP3    H134757   4.020   6.506   8.552 -1.9618 -2.9785 -1.3228
 4374TIP3    H234758   3.880   6.561   8.551 -0.3649  1.4930 -0.0412
 4375TIP3   OH234759   0.540   2.475   7.966 -0.4812  0.3502  0.1792
 4375TIP3    H134760   0.469   2.529   7.931 -1.3471 -0.1578  1.1430
 4375TIP3    H234761   0.502   2.430   8.040  0.1149 -1.9153 -0.8188
 4376TIP3   OH234762   5.520   2.110   0.223  0.1296 -0.5475  0.2755
 4376TIP3    H134763   5.602   2.094   0.176  0.2201 -0.2757  0.3424
 4376TIP3    H234764   5.451   2.092   0.158  0.2682  1.6849 -0.5842
 4377TIP3   OH234765   6.138   1.624   7.756  0.1935  0.1224  0.0589
 4377TIP3    H134766   6.056   1.654   7.716  1.1559 -0.6372 -2.7068
 4377TIP3    H234767   6.150   1.536   7.722  1.3727 -0.3990  1.7402
 4378TIP3   OH234768   0.608   6.212   1.243 -0.0820 -0.4112 -0.1383
 4378TIP3    H134769   0.548   6.259   1.301  0.4847  1.0372 -0.6784
 4378TIP3    H234770   0.679   6.274   1.227  0.7318 -1.4897 -0.8395
 4379TIP3   OH234771   5.270   1.250   0.825 -0.0836 -0.6228  0.6697
 4379TIP3    H134772   5.319   1.257   0.743 -0.6489 -0.8010  0.3096
 4379TIP3    H234773   5.336   1.236   0.892  0.3997 -0.3007  0.2670
 4380TIP3   OH234774   6.012   5.416   1.992  0.3195 -0.1492 -0.5016
 4380TIP3    H134775   6.002   5.406   2.086  0.5979  1.8099 -0.2257
 4380TIP3    H234776   5.932   5.378   1.955  0.1565 -0.8283  0.5086
 4381TIP3   OH234777   3.454   0.627   0.767  0.3304 -0.2324 -0.6310
 4381TIP3    H134778   3.456   0.687   0.842  0.9213  0.9325 -1.5608
 4381TIP3    H234779   3.541   0.587   0.766  0.1361 -0.6735 -0.3746
 4382TIP3   OH234780   4.440   2.411   0.750  0.2943 -0.3260 -0.1159
 4382TIP3    H134781   4.526   2.438   0.782 -0.0266 -1.5720  1.9538
 4382TIP3    H234782   4.447   2.316   0.740 -0.7223 -0.3814 -0.3485
 4383TIP3   OH234783   1.807   3.198   8.201 -0.6359  0.3404  0.3506
 4383TIP3    H134784   1.902   3.194   8.215 -0.3932  0.1261 -1.1535
 4383TIP3    H234785   1.790   3.290   8.183 -0.6542  0.3307  0.3182
 4384TIP3   OH234786   2.637   3.746   7.810  0.6052 -0.2157  0.5725
 4384TIP3    H134787   2.626   3.803   7.734  0.4660 -0.4893  0.3872
 4384TIP3    H234788   2.571   3.777   7.873  0.7077 -0.0026  0.5766
 4385TIP3   OH234789   4.234   5.820   0.562 -0.0119 -0.0661 -0.1876
 4385TIP3    H134790   4.221   5.902   0.514 -0.5757 -0.8374 -1.3912
 4385TIP3    H234791   4.159   5.765   0.538  0.7595 -1.2237 -0.0492
 4386TIP3   OH234792   3.110   1.702   1.161 -0.0074 -0.6588 -0.4774
 4386TIP3    H134793   3.125   1.777   1.102  1.3298  0.7351  1.5069
 4386TIP3    H234794   3.020   1.714   1.191  0.5070  0.8249  0.6185
 4387TIP3   OH234795   4.823   6.070   2.664  0.4794 -0.0801  0.2222
 4387TIP3    H134796   4.737   6.052   2.703  0.0049 -0.1355 -0.8099
 4387TIP3    H234797   4.859   6.142   2.716 -0.4632  0.3670  0.2761
 4388TIP3   OH234798   2.614   5.372   0.127 -0.3249 -0.9057  0.6079
 4388TIP3    H134799   2.556   5.442   0.095  1.7663 -0.2001 -2.0211
 4388TIP3    H234800   2.602   5.301   0.064  0.4549 -1.3561  0.9576
 4389TIP3   OH234801   1.735   3.346   0.879 -0.4333  0.5586 -0.0737
 4389TIP3    H134802   1.804   3.370   0.941 -0.4966  0.9379 -0.1452
 4389TIP3    H234803   1.694   3.430   0.855 -0.9919  0.3273  0.0516
 4390TIP3   OH234804   3.945   0.486   6.897  0.0591  0.2481 -0.2969
 4390TIP3    H134805   3.944   0.579   6.922  0.5780  0.2345 -0.2226
 4390TIP3    H234806   4.036   0.468   6.876 -0.1440 -0.0882 -0.9172
 4391TIP3   OH234807   4.681   6.335   2.498  0.2482 -0.0257 -0.3164
 4391TIP3    H134808   4.719   6.271   2.557  1.6733  1.1332  0.0726
 4391TIP3    H234809   4.677   6.291   2.413  5.1860  0.5651 -1.1346
 4392TIP3   OH234810   2.746   5.347   8.235 -0.4946 -0.1952 -0.7267
 4392TIP3    H134811   2.693   5.269   8.252  1.1330 -0.9920  1.1165
 4392TIP3    H234812   2.822   5.315   8.187  1.1994 -0.2043  1.7871
 4393TIP3   OH234813   0.736   3.977   7.236  0.1803  0.0127  0.0816
 4393TIP3    H134814   0.646   3.957   7.208 -0.7191  1.6951  1.5800
 4393TIP3    H234815   0.748   4.069   7.212  0.9536  0.2358  1.2693
 4394TIP3   OH234816   4.781   6.321   7.939  0.2720  0.0272 -0.2163
 4394TIP3    H134817   4.840   6.392   7.963  0.9827 -0.6041 -0.0514
 4394TIP3    H234818   4.721   6.314   8.013  0.0682  0.5821 -0.3223
 4395TIP3   OH234819   1.179   0.839   2.717  0.6344 -0.1084  0.2598
 4395TIP3    H134820   1.096   0.817   2.759  0.8657  1.6843  1.7860
 4395TIP3    H234821   1.232   0.876   2.787  1.2210  2.6141 -1.4655
 4396TIP3   OH234822   2.475   5.840   2.729  0.6255 -0.1954  0.6913
 4396TIP3    H134823   2.430   5.845   2.813  1.4988  1.0756  1.1050
 4396TIP3    H234824   2.416   5.790   2.673 -0.4824 -0.0775  1.7263
 4397TIP3   OH234825   5.737   3.763   1.755  0.1666 -0.2993 -0.1235
 4397TIP3    H134826   5.656   3.718   1.734 -0.0878  0.1049 -0.0146
 4397TIP3    H234827   5.717   3.856   1.744  1.0777 -0.2512 -1.7478
 4398TIP3   OH234828   4.965   5.025   1.351  0.9010  0.7502 -0.1693
 4398TIP3    H134829   4.920   5.051   1.432  1.2554 -0.6636  0.5096
 4398TIP3    H234830   4.966   5.105   1.298  0.6367  1.7080  1.2092
 4399TIP3   OH234831   2.487   4.124   0.108  0.2515  0.3352 -0.3161
 4399TIP3    H134832   2.457   4.067   0.038  0.2602  1.2705 -1.0993
 4399TIP3    H234833   2.527   4.065   0.172 -1.2193 -0.7025 -0.3082
 4400TIP3   OH234834   4.022   2.921   3.009 -0.4878  0.0301  0.0581
 4400TIP3    H134835   3.999   2.842   2.961  0.8830 -0.7269  0.5673
 4400TIP3    H234836   3.999   2.901   3.100  0.6937 -0.1585  0.3315
 4401TIP3   OH234837   2.982   0.661   1.537 -0.4699 -0.4063  0.1272
 4401TIP3    H134838   2.981   0.616   1.453 -1.8307  0.7623 -0.5187
 4401TIP3    H234839   3.075   0.671   1.558 -0.1174 -0.8046 -1.1829
 4402TIP3   OH234840   0.355   1.296   1.360  0.1149 -0.3296 -0.0571
 4402TIP3    H134841   0.372   1.379   1.315  2.7460 -0.4373  0.5806
 4402TIP3    H234842   0.291   1.251   1.304 -1.1639  1.9595 -0.5601
 4403TIP3   OH234843   3.876   2.402   1.665 -0.5093 -0.5162  0.7084
 4403TIP3    H134844   3.881   2.456   1.586  2.8171 -2.5165 -0.6583
 4403TIP3    H234845   3.856   2.314   1.634  0.5275 -1.2823  2.0622
 4404TIP3   OH234846   4.592   6.463   1.113 -0.2859 -0.0413  0.0403
 4404TIP3    H134847   4.509   6.423   1.088 -0.5028 -0.3678  1.1913
 4404TIP3    H234848   4.646   6.390   1.143 -0.0869  0.3302  0.6062
 4405TIP3   OH234849   4.694   6.064   1.916  0.1305  1.0754  0.2927
 4405TIP3    H134850   4.739   5.994   1.963 -1.5330 -0.2075  0.0513
 4405TIP3    H234851   4.624   6.020   1.868 -1.6522  3.0032  0.9812
 4406TIP3   OH234852   3.335   2.446   7.822  0.2455  0.4284  0.1285
 4406TIP3    H134853   3.258   2.477   7.774  0.8295  0.2897 -0.9002
 4406TIP3    H234854   3.383   2.526   7.843  0.8433  0.3760 -0.9861
 4407TIP3   OH234855   5.917   0.028   1.368  0.0028 -0.3399  0.0909
 4407TIP3    H134856   5.903   0.092   1.297 -1.6259  1.1740  1.6671
 4407TIP3    H234857   5.903  -0.057   1.326 -2.1821  0.5465 -1.2135
 4408TIP3   OH234858   5.483   2.404   0.933  0.2410  0.2907  0.2830
 4408TIP3    H134859   5.561   2.400   0.877  0.6861 -0.2517  0.9204
 4408TIP3    H234860   5.511   2.454   1.010 -0.2825  0.7858  0.1629
 4409TIP3   OH234861   6.077   6.387   1.844  0.1401 -0.3051 -0.2233
 4409TIP3    H134862   6.155   6.427   1.805  0.0337 -1.1604 -1.3836
 4409TIP3    H234863   6.104   6.362   1.932  0.7961  0.5224 -0.1771
 4410TIP3   OH234864   0.179   5.652   2.107 -0.1673  0.6219  0.1275
 4410TIP3    H134865   0.151   5.685   2.192 -2.3991  0.7188 -0.5665
 4410TIP3    H234866   0.265   5.692   2.092  0.0247  1.0258  2.0734
 4411TIP3   OH234867   5.064   1.244   7.701 -0.3678 -0.4605 -0.5377
 4411TIP3    H134868   5.016   1.256   7.783 -0.5154  4.0341 -0.9930
 4411TIP3    H234869   5.152   1.279   7.719  0.4587 -1.8382 -1.6502
 4412TIP3   OH234870   5.430   6.475   0.646 -0.1596 -0.3197  0.1676
 4412TIP3    H134871   5.362   6.470   0.579 -3.3445  0.6527  3.0759
 4412TIP3    H234872   5.453   6.383   0.664 -0.6790 -0.6633 -0.8578
 4413TIP3   OH234873   3.615   6.325   6.895 -0.1240  0.4556 -0.0503
 4413TIP3    H134874   3.550   6.258   6.871  1.8941 -1.3563 -0.8118
 4413TIP3    H234875   3.587   6.355   6.982 -0.4605 -2.3104  0.8987
 4414TIP3   OH234876   2.920   0.419   2.283 -0.4274  0.4419 -0.0306
 4414TIP3    H134877   2.993   0.411   2.344 -2.0701  0.1368  1.9961
 4414TIP3    H234878   2.954   0.473   2.212  2.1104 -0.6740  0.2512
 4415TIP3   OH234879   5.700   4.451   0.244  0.4017  0.1690  0.4229
 4415TIP3    H134880   5.750   4.502   0.307  0.3683  0.6863  0.0393
 4415TIP3    H234881   5.766   4.409   0.189  0.5279  3.1517 -1.9601
 4416TIP3   OH234882   1.882   5.030   1.126  0.3436 -0.0861  0.0375
 4416TIP3    H134883   1.833   4.977   1.189  1.9561 -1.0032  0.5684
 4416TIP3    H234884   1.904   5.110   1.172  0.2436 -0.1201  0.1439
 4417TIP3   OH234885   2.593   6.719   0.295  0.7280  0.1551  0.4872
 4417TIP3    H134886   2.605   6.791   0.233  0.6311  0.2097  0.5304
 4417TIP3    H234887   2.545   6.759   0.368 -0.0457 -0.1402  0.1495
 4418TIP3   OH234888   0.904   4.690   7.402 -0.2933 -0.0201  0.0395
 4418TIP3    H134889   0.866   4.776   7.423 -0.5766 -0.2250  0.3633
 4418TIP3    H234890   0.974   4.710   7.339 -0.3456  0.4504  0.1271
 4419TIP3   OH234891   4.996   0.746   1.094  0.2379  0.1807  0.4793
 4419TIP3    H134892   4.911   0.749   1.139 -0.5879  0.2453 -1.0045
 4419TIP3    H234893   5.060   0.767   1.162 -0.6105 -2.6294  2.3222
 4420TIP3   OH234894   2.878   5.845   0.684 -0.5805  0.3511  0.3923
 4420TIP3    H134895   2.829   5.834   0.766  0.6755 -2.0574  0.9220
 4420TIP3    H234896   2.833   5.790   0.621 -1.1655  1.7053 -0.4140
 4421TIP3   OH234897   2.448   3.353   8.582 -0.0274 -0.0521 -0.1390
 4421TIP3    H134898   2.498   3.424   8.622 -1.3422  0.5516  0.5024
 4421TIP3    H234899   2.371   3.344   8.638 -2.3682  1.3452 -2.8530
 4422TIP3   OH234900   4.122   6.706   1.975 -0.0977  0.0715  0.2945
 4422TIP3    H134901   4.148   6.791   2.010 -0.9965 -0.3087  1.9578
 4422TIP3    H234902   4.102   6.652   2.052  0.0132 -1.5169 -0.7279
 4423TIP3   OH234903   3.403   0.982   1.392  0.0929 -0.6204  0.2398
 4423TIP3    H134904   3.474   1.043   1.373  0.0354 -0.6750 -0.1495
 4423TIP3    H234905   3.444   0.912   1.444  0.3043 -0.6081  0.0890
 4424TIP3   OH234906   5.836   4.330   3.110  0.4366  0.2865  0.0673
 4424TIP3    H134907   5.856   4.413   3.153  1.8949 -0.3614  0.6932
 4424TIP3    H234908   5.915   4.277   3.120 -0.7796 -1.5705  0.5961
 4425TIP3   OH234909   1.547   1.295   0.297 -0.0003 -0.7313 -0.0741
 4425TIP3    H134910   1.595   1.251   0.367 -0.5423 -0.4535  0.4815
 4425TIP3    H234911   1.612   1.306   0.227  0.4638 -1.2888  0.2609
 4426TIP3   OH234912   4.980   0.118   1.209  0.1498  0.0129 -0.5178
 4426TIP3    H134913   4.905   0.149   1.260 -0.2102 -0.7753 -0.5578
 4426TIP3    H234914   4.976   0.168   1.128  0.6693  1.2095  0.1605
 4427TIP3   OH234915   6.451   3.879   1.587 -0.1274  0.4087 -0.3115
 4427TIP3    H134916   6.500   3.952   1.549  2.7910 -0.7607  0.9207
 4427TIP3    H234917   6.509   3.804   1.580 -2.0115 -1.2646  0.7681
 4428TIP3   OH234918   1.043   6.271   1.598  0.1349 -0.6296  0.4623
 4428TIP3    H134919   1.098   6.346   1.618 -0.5804 -0.4265  1.7978
 4428TIP3    H234920   1.101   6.208   1.556  0.3892  1.3086 -2.3294
 4429TIP3   OH234921   0.840   6.413   2.229 -0.2156 -0.2112  0.3053
 4429TIP3    H134922   0.815   6.485   2.171 -2.6625 -0.1734  1.2748
 4429TIP3    H234923   0.867   6.456   2.310  3.0683 -0.2707 -0.6149
 4430TIP3   OH234924   2.495   2.911   0.357  0.5412  0.1784  0.3813
 4430TIP3    H134925   2.462   2.849   0.422  0.3760 -0.6633 -0.4842
 4430TIP3    H234926   2.585   2.928   0.383  0.5670 -0.3838  0.6671
 4431TIP3   OH234927   1.140   0.666   0.766  0.3509 -0.1376  0.1574
 4431TIP3    H134928   1.092   0.584   0.776  1.2908 -0.7233 -0.0312
 4431TIP3    H234929   1.119   0.715   0.846 -0.7134 -0.2773 -0.0096
 4432TIP3   OH234930   6.678   6.699   0.796 -0.4346  0.0689  0.0385
 4432TIP3    H134931   6.773   6.709   0.806 -0.4515  0.3211 -0.0344
 4432TIP3    H234932   6.660   6.608   0.821 -0.0549 -0.2490 -0.7997
 4433TIP3   OH234933   0.324   2.322   1.773 -0.2135  0.2287 -0.3803
 4433TIP3    H134934   0.306   2.357   1.861  0.1412 -0.3838 -0.0545
 4433TIP3    H234935   0.280   2.237   1.772  0.4051 -0.0945 -0.5280
 4434TIP3   OH234936   6.174   5.642   7.629  0.3547  0.5353  0.0609
 4434TIP3    H134937   6.103   5.597   7.674  1.2619  0.8456  1.9316
 4434TIP3    H234938   6.174   5.730   7.665 -0.0790  1.4575 -2.0299
 4435TIP3   OH234939   5.531   1.470   1.160 -0.4462 -0.5026  0.5235
 4435TIP3    H134940   5.582   1.547   1.135 -0.6184 -0.9367 -1.2902
 4435TIP3    H234941   5.450   1.505   1.197 -0.3560  0.1806  0.0730
 4436TIP3   OH234942   0.700   1.987   0.005  0.1591  0.4865  0.6216
 4436TIP3    H134943   0.626   2.025  -0.042 -0.3156 -0.5042  0.5397
 4436TIP3    H234944   0.690   1.892  -0.008  0.6562  0.2653  1.7803
 4437TIP3   OH234945   0.385   6.860   6.553  0.2095  0.2651 -0.3769
 4437TIP3    H134946   0.383   6.766   6.536 -0.4400  0.2185 -0.0722
 4437TIP3    H234947   0.474   6.886   6.530 -0.1887 -0.0391 -2.4777
 4438TIP3   OH234948   2.104   5.463   2.779  0.2095 -0.6090 -0.6012
 4438TIP3    H134949   2.059   5.405   2.717 -1.3377 -0.7697  0.6072
 4438TIP3    H234950   2.033   5.510   2.822  1.3777  1.2620 -0.6344
 4439TIP3   OH234951   2.524   1.645   7.981  0.1276  0.2052 -0.1636
 4439TIP3    H134952   2.541   1.739   7.984 -0.1152  0.2238  2.2581
 4439TIP3    H234953   2.572   1.614   7.904 -1.7444  2.6365 -2.5142
 4440TIP3   OH234954   6.872   6.524   8.092  0.2591 -0.4198 -0.5077
 4440TIP3    H134955   6.953   6.475   8.101  0.4606 -0.1392 -0.7681
 4440TIP3    H234956   6.893   6.611   8.128 -0.1200 -0.5527  0.0437
 4441TIP3   OH234957   4.141   1.964   1.299 -0.3402 -0.4190 -0.5973
 4441TIP3    H134958   4.161   1.884   1.348  1.8447  0.7197  0.5017
 4441TIP3    H234959   4.222   2.014   1.300 -1.1809  1.1234 -2.6614
 4442TIP3   OH234960   0.468   1.539   8.026 -0.2844 -0.3646 -0.5554
 4442TIP3    H134961   0.476   1.468   7.962 -0.0178  0.2095 -1.1665
 4442TIP3    H234962   0.551   1.586   8.020  0.1743 -0.9402  0.9915
 4443TIP3   OH234963   3.632   5.968   6.755 -0.5112 -0.2778 -0.1148
 4443TIP3    H134964   3.712   5.985   6.805 -0.4080 -1.8630  0.3270
 4443TIP3    H234965   3.562   5.997   6.813 -0.3038 -0.1479  0.0772
 4444TIP3   OH234966   3.856   3.312   1.078 -0.2555  0.3235  0.4159
 4444TIP3    H134967   3.934   3.368   1.085 -0.7497  1.0885  0.0193
 4444TIP3    H234968   3.879   3.246   1.014  0.4394 -0.1152  1.0977
 4445TIP3   OH234969   6.796   2.869   8.039 -0.0181 -0.1107 -0.7327
 4445TIP3    H134970   6.791   2.811   8.115  1.0917 -1.4959 -1.6498
 4445TIP3    H234971   6.844   2.946   8.070 -0.6158 -0.1173  0.2520
 4446TIP3   OH234972   5.192   6.751   1.686 -0.0637 -0.1760  0.3179
 4446TIP3    H134973   5.283   6.724   1.671 -0.1187  0.3878 -1.1509
 4446TIP3    H234974   5.155   6.680   1.739  1.2603 -0.3364  1.0894
 4447TIP3   OH234975   2.618   2.979   2.046 -0.2100 -0.0310 -0.4186
 4447TIP3    H134976   2.566   2.906   2.081  0.8783 -0.1555  0.9926
 4447TIP3    H234977   2.693   2.937   2.005 -1.8839  0.0250 -3.9611
 4448TIP3   OH234978   3.978   0.521   7.946  0.3121 -0.2950 -0.7606
 4448TIP3    H134979   3.946   0.550   7.860  0.6099 -1.3141 -1.2379
 4448TIP3    H234980   4.056   0.469   7.926  0.4272 -0.4852  0.1423
 4449TIP3   OH234981   1.849   0.902   7.504 -0.1271  0.5840 -0.3444
 4449TIP3    H134982   1.886   0.817   7.480 -0.3283 -0.0640  1.4749
 4449TIP3    H234983   1.853   0.904   7.600 -2.8478  1.3532 -0.1467
 4450TIP3   OH234984   3.526   2.215   1.113  0.3889  0.2062  0.1900
 4450TIP3    H134985   3.610   2.220   1.160  0.2189  1.6017  0.3701
 4450TIP3    H234986   3.468   2.170   1.174  0.9383 -0.5919  0.1447
 4451TIP3   OH234987   2.913   4.843   7.393 -0.3951  0.4246 -0.3978
 4451TIP3    H134988   2.870   4.783   7.331 -2.3473  1.3464 -0.0168
 4451TIP3    H234989   2.916   4.927   7.347  0.4091  0.5369 -0.1524
 4452TIP3   OH234990   2.944   5.551   8.429  0.5707 -0.5145  0.7530
 4452TIP3    H134991   2.933   5.635   8.474 -0.3408  0.0319 -0.4330
 4452TIP3    H234992   2.855   5.529   8.399  1.1074 -0.9753 -0.5534
 4453TIP3   OH234993   1.096   1.374   1.589  0.2442  0.0113 -0.1045
 4453TIP3    H134994   1.105   1.435   1.516  2.2073  0.1403  0.1959
 4453TIP3    H234995   1.106   1.430   1.667 -0.6018 -0.3076  0.2392
 4454TIP3   OH234996   5.411   0.251   0.460  0.2455  0.4658  0.3927
 4454TIP3    H134997   5.338   0.213   0.509  0.3664  2.0547  1.9118
 4454TIP3    H234998   5.373   0.275   0.376 -1.1840  1.7926  1.3620
 4455TIP3   OH234999   1.348   6.610   1.253 -0.1046  0.4650 -0.3188
 4455TIP3    H135000   1.406   6.533   1.257 -0.0685  0.3983 -1.7100
 4455TIP3    H235001   1.406   6.685   1.260 -0.1045  0.3782  0.7003
 4456TIP3   OH235002   1.697   4.329   2.281 -0.6466  0.2568 -0.1506
 4456TIP3    H135003   1.614   4.352   2.239 -0.4333  0.6830 -0.3504
 4456TIP3    H235004   1.696   4.234   2.286 -0.8189  0.2138 -0.8442
 4457TIP3   OH235005   2.395   5.482   1.823  0.1163  0.3280  0.0234
 4457TIP3    H135006   2.331   5.553   1.820 -0.2297  0.0509  0.6399
 4457TIP3    H235007   2.461   5.506   1.757 -0.3309  0.8909 -0.2255
 4458TIP3   OH235008   1.190   1.945   7.822  0.2057 -0.3877 -0.0918
 4458TIP3    H135009   1.116   1.902   7.779  0.9244 -0.4614 -1.3109
 4458TIP3    H235010   1.184   1.919   7.913 -0.4874 -1.5012 -0.4385
 4459TIP3   OH235011   4.036   5.957   1.524  0.4625  0.3660 -0.5421
 4459TIP3    H135012   4.052   5.885   1.463  0.1291  0.6471 -0.9644
 4459TIP3    H235013   3.941   5.968   1.525  0.4576  0.3190  0.0852
 4460TIP3   OH235014   0.213   0.220   8.234  0.1025  0.7854 -0.4840
 4460TIP3    H135015   0.138   0.172   8.199  1.0483 -1.3691  0.2761
 4460TIP3    H235016   0.270   0.234   8.158 -0.5930  1.5825 -0.8794
 4461TIP3   OH235017   1.945   1.675   1.479 -0.0593  0.3966 -0.2373
 4461TIP3    H135018   1.936   1.619   1.556  0.2255 -0.4441 -0.7986
 4461TIP3    H235019   1.866   1.659   1.428 -0.6062  1.5310  0.2419
 4462TIP3   OH235020   0.017   2.846   8.525  0.4008  0.2650  0.0626
 4462TIP3    H135021  -0.017   2.758   8.514 -0.7419  0.6318  0.4813
 4462TIP3    H235022   0.073   2.860   8.448 -0.0902 -0.5069 -0.4500
 4463TIP3   OH235023   1.522   0.460   2.120 -0.1482  0.1624 -0.0012
 4463TIP3    H135024   1.543   0.521   2.049 -0.7283  0.4335  0.0531
 4463TIP3    H235025   1.463   0.510   2.177  0.2043 -0.1019  0.5960
 4464TIP3   OH235026   0.784   0.744   0.492 -0.3418 -0.0686 -0.0914
 4464TIP3    H135027   0.757   0.751   0.583 -1.7113  0.3256 -0.5089
 4464TIP3    H235028   0.706   0.713   0.446  0.7245 -1.6635 -0.9237
 4465TIP3   OH235029   4.717   4.148   2.696  0.1250 -0.4468  0.0702
 4465TIP3    H135030   4.662   4.208   2.746  2.2896  2.1637 -0.4731
 4465TIP3    H235031   4.685   4.156   2.606  0.8075  0.4602 -0.1102
 4466TIP3   OH235032   2.977   3.402   0.127 -0.2212  0.2777  0.0904
 4466TIP3    H135033   2.913   3.356   0.072 -1.4643  0.8061  1.0289
 4466TIP3    H235034   3.010   3.334   0.186 -0.5512  0.1670  0.1535
 4467TIP3   OH235035   5.274   0.405   1.293 -0.0386  0.8574 -0.0046
 4467TIP3    H135036   5.233   0.455   1.222 -2.1394 -0.0436  0.5170
 4467TIP3    H235037   5.285   0.468   1.364  1.1765  1.5280 -0.7524
 4468TIP3   OH235038   0.928   0.683   7.356  0.6046  0.0951  0.0865
 4468TIP3    H135039   0.881   0.707   7.276 -0.5865 -0.0306  0.7218
 4468TIP3    H235040   0.963   0.766   7.389  0.3231  0.2835 -0.0805
 4469TIP3   OH235041   1.401   0.415   1.287 -0.1164 -0.0259 -0.6905
 4469TIP3    H135042   1.328   0.357   1.267  1.6388 -3.3197  1.5384
 4469TIP3    H235043   1.361   0.488   1.334 -2.2005 -0.3685 -1.7774
 4470TIP3   OH235044   2.720   1.456   0.542  0.0453  0.0811  0.1244
 4470TIP3    H135045   2.745   1.372   0.581 -0.0002 -0.1834 -0.3935
 4470TIP3    H235046   2.795   1.482   0.489  0.8170  1.3348  1.7722
 4471TIP3   OH235047   3.054   2.756   7.889 -0.0315  0.1492 -0.2196
 4471TIP3    H135048   3.061   2.701   7.811 -1.8175 -0.2957 -0.1224
 4471TIP3    H235049   3.135   2.807   7.890  0.5245 -0.6302 -1.7407
 4472TIP3   OH235050   3.415   3.862   1.032 -0.2158 -0.2038  0.0003
 4472TIP3    H135051   3.507   3.853   1.057 -0.0644  0.1047 -0.4262
 4472TIP3    H235052   3.416   3.861   0.937 -0.4864  1.2383 -0.0440
 4473TIP3   OH235053   1.682   0.720   8.182 -0.1486  0.0431 -0.3558
 4473TIP3    H135054   1.629   0.763   8.249  0.1105 -0.6625  0.3254
 4473TIP3    H235055   1.640   0.742   8.099  0.1089  1.7913 -0.0637
 4474TIP3   OH235056   3.809   5.382   8.272 -0.0904 -0.5219  0.1257
 4474TIP3    H135057   3.799   5.348   8.361 -1.8861 -1.0440 -0.2452
 4474TIP3    H235058   3.873   5.453   8.280  0.6284 -1.3073  1.6234
 4475TIP3   OH235059   4.921   4.215   0.713 -0.1348 -0.4674 -0.6995
 4475TIP3    H135060   4.952   4.132   0.749  1.1014  1.1382  2.4022
 4475TIP3    H235061   4.998   4.253   0.671 -0.6184 -0.7249 -1.8477
 4476TIP3   OH235062   3.487   6.153   0.623 -0.4681  0.5701  0.0198
 4476TIP3    H135063   3.533   6.132   0.704  0.4886  3.0054  0.2083
 4476TIP3    H235064   3.422   6.084   0.613  1.3239 -1.4104  1.2880
 4477TIP3   OH235065   2.384   6.087   7.748 -0.2564  0.0751 -0.1431
 4477TIP3    H135066   2.349   5.999   7.736 -3.7933  1.2911 -0.1505
 4477TIP3    H235067   2.442   6.101   7.673 -0.2548 -1.9430 -0.5719
 4478TIP3   OH235068   1.876   1.956   1.345  0.1280  0.4728 -0.8835
 4478TIP3    H135069   1.861   1.866   1.372 -0.9550  0.6538 -0.8726
 4478TIP3    H235070   1.946   1.949   1.279  0.9789 -0.2210  0.0683
 4479TIP3   OH235071   4.142   1.981   7.559  0.4682  0.2738 -0.2424
 4479TIP3    H135072   4.056   1.945   7.579  0.3036  0.6235 -0.3094
 4479TIP3    H235073   4.133   2.075   7.573  0.8979  0.2921 -0.0483
 4480TIP3   OH235074   3.077   5.137   7.632  0.5064 -0.4502  0.4460
 4480TIP3    H135075   3.048   5.202   7.697 -0.9440  0.8201 -1.3266
 4480TIP3    H235076   3.165   5.113   7.659  2.1281  4.0599  0.0014
 4481TIP3   OH235077   6.631   3.626   1.645  0.2235 -0.0504 -0.3156
 4481TIP3    H135078   6.658   3.587   1.729  0.0819 -1.1978 -0.7868
 4481TIP3    H235079   6.698   3.597   1.583 -0.5259 -0.5473 -0.9140
 4482TIP3   OH235080   3.874   4.838   0.501 -0.0316 -0.1079 -0.5741
 4482TIP3    H135081   3.874   4.903   0.431 -0.2973  0.4466 -0.0723
 4482TIP3    H235082   3.936   4.873   0.566  0.4364 -0.7607 -0.6682
 4483TIP3   OH235083   3.079   1.573   7.352 -0.4396  0.0534 -0.2099
 4483TIP3    H135084   3.031   1.655   7.360 -1.4645 -0.6459  1.0946
 4483TIP3    H235085   3.030   1.511   7.404  1.2536 -0.9890  0.2302
 4484TIP3   OH235086   0.916   5.108   6.855  0.0465  0.1562  0.0715
 4484TIP3    H135087   1.003   5.142   6.836 -0.1596 -0.5304 -2.5601
 4484TIP3    H235088   0.857   5.173   6.816 -0.5291 -0.3747  0.0440
 4485TIP3   OH235089   2.703   6.272   2.862 -0.3591 -0.3322  0.0334
 4485TIP3    H135090   2.658   6.356   2.868  1.4478  0.7261 -0.3240
 4485TIP3    H235091   2.691   6.232   2.948 -0.1658  0.9005  0.6568
 4486TIP3   OH235092   3.690   6.768   8.386  0.2424  0.2582  0.2033
 4486TIP3    H135093   3.597   6.791   8.389 -0.1539 -0.8746 -1.9304
 4486TIP3    H235094   3.699   6.698   8.450 -0.4331  0.1629  0.2048
 4487TIP3   OH235095   4.014   2.293   8.307 -0.4179  0.1099  0.1929
 4487TIP3    H135096   3.951   2.269   8.239 -2.3234 -0.3283  1.9929
 4487TIP3    H235097   4.002   2.387   8.319 -0.2170  0.1542  0.0430
 4488TIP3   OH235098   1.960   1.077   7.314 -0.1405 -0.1046 -0.2887
 4488TIP3    H135099   2.051   1.052   7.334 -0.1467  1.2985  1.9110
 4488TIP3    H235100   1.907   1.008   7.353 -0.0512 -0.5838 -0.9965
 4489TIP3   OH235101   5.821   2.679   7.888 -0.3182  0.5361  1.1854
 4489TIP3    H135102   5.828   2.583   7.892  2.0431  0.1853 -3.5224
 4489TIP3    H235103   5.730   2.695   7.863 -0.5679 -0.5535  1.3354
 4490TIP3   OH235104   3.274   6.891   7.364  0.2174 -0.1987  0.1157
 4490TIP3    H135105   3.348   6.910   7.307  0.6961  1.1794  1.1235
 4490TIP3    H235106   3.309   6.830   7.430  0.5920  0.7289  0.8017
 4491TIP3   OH235107   2.252   0.325   2.277 -0.2626  0.0900  0.6476
 4491TIP3    H135108   2.270   0.250   2.334 -0.4999 -0.4436  0.0343
 4491TIP3    H235109   2.319   0.390   2.301 -0.5748  0.0193  1.7724
 4492TIP3   OH235110   4.684   4.718   1.340 -0.0117  0.2519 -0.3055
 4492TIP3    H135111   4.671   4.801   1.385  0.3871 -0.2695  0.8113
 4492TIP3    H235112   4.645   4.731   1.254 -0.7750  1.2872  0.1771
 4493TIP3   OH235113   5.394   3.910   8.335  0.4920  0.2823 -0.0898
 4493TIP3    H135114   5.377   3.928   8.427  0.6157 -0.7673  0.1549
 4493TIP3    H235115   5.428   3.992   8.300 -1.6780  1.3873  0.2406
 4494TIP3   OH235116   6.167   6.147   6.546  0.7277  0.2361 -0.6942
 4494TIP3    H135117   6.175   6.057   6.512 -0.8419  0.2121 -1.0874
 4494TIP3    H235118   6.113   6.192   6.481  0.2904  1.0600  0.2204
 4495TIP3   OH235119   4.622   5.591   7.519 -0.1978  0.4217  0.5440
 4495TIP3    H135120   4.712   5.610   7.545  0.4453  0.6076 -1.6178
 4495TIP3    H235121   4.593   5.672   7.476 -0.1489 -0.7513 -1.8453
 4496TIP3   OH235122   6.334   3.029   7.149 -0.0711 -0.8964  0.5482
 4496TIP3    H135123   6.259   3.003   7.096 -0.1049  0.9030 -0.3692
 4496TIP3    H235124   6.395   3.070   7.087  0.6849 -0.3546  1.6068
 4497TIP3   OH235125   4.922   4.222   2.265 -0.1019 -0.1701 -0.6629
 4497TIP3    H135126   4.885   4.144   2.307  1.0920  0.3065  1.3843
 4497TIP3    H235127   5.005   4.192   2.229  0.1473  0.0503 -0.2734
 4498TIP3   OH235128   4.173   6.529   8.287  0.2949 -0.4265  0.5116
 4498TIP3    H135129   4.087   6.521   8.328 -0.6186  0.9104 -1.0556
 4498TIP3    H235130   4.224   6.458   8.326 -1.5214 -1.3134  1.4089
 4499TIP3   OH235131   6.627   1.268   2.863  0.1903  0.0869  0.4674
 4499TIP3    H135132   6.594   1.209   2.795  1.1964  0.0521 -0.0042
 4499TIP3    H235133   6.583   1.352   2.845  2.3102  0.8356 -1.8641
 4500TIP3   OH235134   5.484   4.660   1.627 -0.5085 -0.2600  0.9840
 4500TIP3    H135135   5.446   4.621   1.548  0.4772  0.4046  0.1409
 4500TIP3    H235136   5.409   4.689   1.678 -1.2771 -2.9242  1.5308
 4501TIP3   OH235137   0.378   3.923   1.563  0.6618  0.2844  0.0907
 4501TIP3    H135138   0.392   3.916   1.658  0.5010  1.6434  0.2318
 4501TIP3    H235139   0.462   3.952   1.529  0.4534  0.6895 -0.0716
 4502TIP3   OH235140   1.791   0.317   7.485 -0.1561  0.2738 -0.2577
 4502TIP3    H135141   1.782   0.412   7.497 -0.6050  0.1072  0.8848
 4502TIP3    H235142   1.804   0.306   7.391 -0.3397  1.4539 -0.4402
 4503TIP3   OH235143   6.602   4.552   7.931  0.2529  0.5598  0.2583
 4503TIP3    H135144   6.645   4.575   7.849 -0.3676 -0.3917 -0.3621
 4503TIP3    H235145   6.541   4.482   7.907  0.0344  0.2859  1.5277
 4504TIP3   OH235146   1.159   1.154   3.262 -0.6539  0.1699 -0.0289
 4504TIP3    H135147   1.134   1.091   3.330  1.7544 -0.1190  0.6810
 4504TIP3    H235148   1.156   1.104   3.181  2.7664 -1.4873  0.6958
 4505TIP3   OH235149   5.445   3.489   1.313  0.2308  0.2121 -0.2703
 4505TIP3    H135150   5.371   3.466   1.368  1.2402  0.4179  1.2552
 4505TIP3    H235151   5.455   3.584   1.324 -0.0799  0.4056 -1.5199
 4506TIP3   OH235152   3.297   0.588   2.048 -0.3887  0.1851  0.0078
 4506TIP3    H135153   3.302   0.533   2.126  1.5018 -0.2779 -0.3802
 4506TIP3    H235154   3.207   0.619   2.046 -0.8556 -0.9372  1.5832
 4507TIP3   OH235155   5.006   5.669   0.551  0.0424 -0.6939  0.2217
 4507TIP3    H135156   5.022   5.592   0.496  1.7075  0.8975 -1.7141
 4507TIP3    H235157   4.960   5.730   0.493  1.7199  0.9880  0.5585
 4508TIP3   OH235158   4.262   6.398   1.523  0.3751  0.2929  0.2951
 4508TIP3    H135159   4.198   6.345   1.475 -1.2315  1.0015  1.5542
 4508TIP3    H235160   4.268   6.356   1.609  1.6257  0.2518  0.2096
 4509TIP3   OH235161   2.224   5.358   6.826  0.1079  0.2577  0.1473
 4509TIP3    H135162   2.271   5.285   6.866 -0.1099 -0.0416 -0.1394
 4509TIP3    H235163   2.162   5.317   6.765 -0.4466  0.6464  0.4344
 4510TIP3   OH235164   2.386   1.006   7.660 -0.7849 -0.8111 -0.4097
 4510TIP3    H135165   2.325   1.077   7.680 -0.4666 -0.5685 -0.2846
 4510TIP3    H235166   2.340   0.952   7.595 -0.5219  0.2552 -1.5290
 4511TIP3   OH235167   5.011   3.153   1.198 -0.5767 -0.3693  0.2663
 4511TIP3    H135168   4.958   3.158   1.118  0.7061 -1.0042 -0.6599
 4511TIP3    H235169   4.951   3.179   1.268 -1.3709  1.5246 -1.0384
 4512TIP3   OH235170   3.941   5.134   0.450 -0.0574 -0.2944 -0.3728
 4512TIP3    H135171   3.976   5.190   0.379 -0.2356  0.1180 -0.1410
 4512TIP3    H235172   3.846   5.143   0.442 -0.0863 -0.6346 -0.3869
 4513TIP3   OH235173   6.017   0.435   1.074  0.3429 -0.1932 -0.7019
 4513TIP3    H135174   6.100   0.478   1.096  0.2162  0.2761 -1.1330
 4513TIP3    H235175   5.956   0.465   1.142  0.1591  0.6196 -1.2055
 4514TIP3   OH235176   3.005   1.572   1.403 -0.3100 -0.5857 -0.2250
 4514TIP3    H135177   2.958   1.502   1.448  1.1135 -0.8716  0.8743
 4514TIP3    H235178   2.937   1.620   1.356 -1.4775 -1.9185  0.0427
 4515TIP3   OH235179   2.552   5.065   0.546 -0.2485  0.0106  0.2335
 4515TIP3    H135180   2.550   5.157   0.520  0.8437  0.1718  0.6386
 4515TIP3    H235181   2.578   5.018   0.466 -0.3979  0.1076  0.1292
 4516TIP3   OH235182   3.654   6.777   7.952 -0.8569 -0.0037 -0.0889
 4516TIP3    H135183   3.571   6.778   8.000  0.4080  0.5291  2.2205
 4516TIP3    H235184   3.699   6.858   7.979  1.8598 -1.8802  1.5001
 4517TIP3   OH235185   2.636   0.534   8.229  0.6653  0.0200  0.0644
 4517TIP3    H135186   2.575   0.505   8.297 -0.3918 -0.8956 -1.2420
 4517TIP3    H235187   2.639   0.629   8.240 -0.8136  0.0646  0.3266
 4518TIP3   OH235188   4.582   4.773   0.268  0.5632 -0.2357  0.0198
 4518TIP3    H135189   4.628   4.821   0.199  1.7971 -1.0771  0.2303
 4518TIP3    H235190   4.634   4.693   0.281  0.0701 -0.3401  1.5562
 4519TIP3   OH235191   6.826   4.444   1.666 -0.0519  0.1098  0.2769
 4519TIP3    H135192   6.787   4.358   1.650 -0.1394  0.1079  0.4920
 4519TIP3    H235193   6.798   4.498   1.592 -0.0208 -0.0384  0.1564
 4520TIP3   OH235194   5.105   4.456   1.168  0.4338 -0.0999 -0.2839
 4520TIP3    H135195   5.037   4.523   1.175  1.1905  0.7241 -0.6617
 4520TIP3    H235196   5.071   4.382   1.219 -0.1315  0.8081  0.7035
 4521TIP3   OH235197   0.644   1.312   7.285 -0.2027  0.3556 -0.3120
 4521TIP3    H135198   0.610   1.385   7.338  1.9252  1.1620  0.0229
 4521TIP3    H235199   0.569   1.285   7.232 -1.5257  1.6437  0.7945
 4522TIP3   OH235200   4.460   2.222   6.746  0.0828  0.2945 -0.3469
 4522TIP3    H135201   4.544   2.253   6.779  0.0086  1.5385 -1.2394
 4522TIP3    H235202   4.417   2.301   6.713 -1.4578 -0.3194  0.1186
 4523TIP3   OH235203   3.643   2.439   3.126 -0.1593  0.1207 -0.4334
 4523TIP3    H135204   3.694   2.519   3.138 -1.8930  1.3217 -0.7248
 4523TIP3    H235205   3.551   2.467   3.133 -0.8419 -1.6824 -1.4043
 4524TIP3   OH235206   6.101   6.061   2.586 -0.7655  0.1183  0.1766
 4524TIP3    H135207   6.141   6.094   2.505 -1.6198  0.9238  0.0683
 4524TIP3    H235208   6.167   6.002   2.623 -0.2409 -0.0265 -0.9493
 4525TIP3   OH235209   2.349   3.839   2.327  0.1985  0.6280 -0.3680
 4525TIP3    H135210   2.399   3.914   2.360  0.2585  0.2409  0.4678
 4525TIP3    H235211   2.316   3.867   2.242  1.3865  1.0879 -0.6921
 4526TIP3   OH235212   2.279   0.277   7.097  0.0424  0.8980  0.0329
 4526TIP3    H135213   2.353   0.251   7.152 -0.3182  0.9371  0.5530
 4526TIP3    H235214   2.298   0.241   7.011  0.5903  0.7769  0.2045
 4527TIP3   OH235215   6.869   5.467   1.024  0.3822 -0.0680 -0.2887
 4527TIP3    H135216   6.809   5.428   0.961 -0.5810  0.0142  0.5685
 4527TIP3    H235217   6.850   5.561   1.022 -1.8723 -0.3493  2.3278
 4528TIP3   OH235218   0.426   3.867   8.254 -0.1109  0.2561 -0.2046
 4528TIP3    H135219   0.395   3.955   8.272  1.9180  1.4265 -1.9393
 4528TIP3    H235220   0.465   3.838   8.337  0.0946  1.3848  0.1102
 4529TIP3   OH235221   5.915   4.596   2.404  0.2585 -0.0811 -0.1583
 4529TIP3    H135222   5.974   4.527   2.435  0.6881  1.1446  1.9068
 4529TIP3    H235223   5.970   4.674   2.400 -0.6005  0.5010 -0.9328
 4530TIP3   OH235224   1.711   5.251   8.215  0.2295 -0.7074 -0.0938
 4530TIP3    H135225   1.686   5.160   8.229  1.6287 -0.9161  1.4632
 4530TIP3    H235226   1.634   5.293   8.178 -1.1009 -2.0900  1.0161
 4531TIP3   OH235227   3.976   4.235   7.309  0.4301 -0.0566  0.5571
 4531TIP3    H135228   4.005   4.290   7.236 -1.0400 -0.0187 -0.0324
 4531TIP3    H235229   3.945   4.297   7.375 -0.5768 -0.1358  0.1754
 4532TIP3   OH235230   1.987   6.090   8.367 -0.8702  0.3284 -0.0867
 4532TIP3    H135231   1.996   6.152   8.439 -0.2753 -1.2426  1.2565
 4532TIP3    H235232   1.895   6.095   8.342 -1.3236  0.2171  1.4584
 4533TIP3   OH235233   6.662   0.618   7.406 -0.1136 -0.1723  0.7940
 4533TIP3    H135234   6.600   0.553   7.374 -0.7901  0.3698  0.9865
 4533TIP3    H235235   6.667   0.602   7.500  0.8113 -0.8595  0.6438
 4534TIP3   OH235236   4.888   4.595   6.980 -0.3807 -0.7432  0.0900
 4534TIP3    H135237   4.793   4.611   6.980 -0.2521  0.0429  0.0537
 4534TIP3    H235238   4.921   4.648   6.908  0.1951 -0.3257  0.6472
 4535TIP3   OH235239   0.797   0.002   7.576 -0.6450  0.2199 -0.0165
 4535TIP3    H135240   0.836  -0.075   7.617  1.9856  1.4002 -0.0588
 4535TIP3    H235241   0.754  -0.031   7.498 -0.6102 -1.3410  0.5850
 4536TIP3   OH235242   5.449   3.339   1.764  0.4133 -0.3742 -0.2762
 4536TIP3    H135243   5.429   3.353   1.857  1.5373  1.3098 -0.2528
 4536TIP3    H235244   5.494   3.255   1.762  0.5127 -0.3598  0.7336
 4537TIP3   OH235245   2.963   6.508   7.451 -0.2302  0.0351 -0.4843
 4537TIP3    H135246   3.047   6.463   7.449  0.5271  1.3327  0.4236
 4537TIP3    H235247   2.938   6.509   7.544 -1.7880 -1.2622 -0.8565
 4538TIP3   OH235248   1.827   1.004   7.904 -0.1170 -0.0111 -0.0698
 4538TIP3    H135249   1.840   1.072   7.838  1.7221  0.3070  0.5665
 4538TIP3    H235250   1.732   1.002   7.918 -0.4496  0.6079 -1.9651
 4539TIP3   OH235251   5.137   5.975   7.024 -0.1023 -0.0236  0.1780
 4539TIP3    H135252   5.096   5.916   7.087 -0.0109 -0.4074 -0.1154
 4539TIP3    H235253   5.066   6.033   6.995 -0.3751 -0.5066 -0.1240
 4540TIP3   OH235254   3.335   5.182   7.809 -0.2147 -0.2785 -0.5457
 4540TIP3    H135255   3.281   5.259   7.790 -2.7124 -1.9594 -0.7513
 4540TIP3    H235256   3.408   5.189   7.747 -0.5755  1.6874 -0.8280
 4541TIP3   OH235257   3.737   0.131   1.041 -0.2608  0.2021 -0.0843
 4541TIP3    H135258   3.669   0.193   1.013 -0.9194  0.3343  1.6500
 4541TIP3    H235259   3.736   0.137   1.137  2.2110  0.1911 -0.0060
 4542TIP3   OH235260   6.309   3.765   0.886 -0.1877  0.3013  0.5168
 4542TIP3    H135261   6.393   3.760   0.932  0.0091  0.5596  0.1903
 4542TIP3    H235262   6.247   3.721   0.944  0.3349 -0.6176  0.3920
 4543TIP3   OH235263   4.860   4.326   6.870 -0.1100 -0.5521 -0.3652
 4543TIP3    H135264   4.839   4.409   6.912  0.8395 -0.2955 -0.3833
 4543TIP3    H235265   4.833   4.260   6.934 -0.1878 -0.2113 -0.0382
 4544TIP3   OH235266   4.195   0.523   7.387 -0.0962  0.2504  0.4153
 4544TIP3    H135267   4.208   0.593   7.323  1.3367  0.1615  0.5656
 4544TIP3    H235268   4.161   0.568   7.465 -2.7284  0.2354 -0.6259
 4545TIP3   OH235269   5.699   1.434   7.191  0.1058 -0.0036 -0.6795
 4545TIP3    H135270   5.616   1.390   7.170  0.0240 -1.1649  1.8063
 4545TIP3    H235271   5.764   1.391   7.135 -0.5488 -0.8420 -0.8154
 4546TIP3   OH235272   3.498   0.608   3.077 -0.4045 -0.1914 -0.6046
 4546TIP3    H135273   3.433   0.671   3.047 -1.1446 -1.0882 -0.9327
 4546TIP3    H235274   3.516   0.633   3.167 -1.8048 -0.3983 -0.2453
 4547TIP3   OH235275   3.918   5.742   1.973 -0.2836  0.2404 -0.2443
 4547TIP3    H135276   3.968   5.668   1.941 -0.1676 -0.0638  0.6086
 4547TIP3    H235277   3.903   5.797   1.896 -0.0270 -0.4665 -0.8027
 4548TIP3   OH235278   1.682   4.076   0.346 -0.2260 -0.1409 -0.0691
 4548TIP3    H135279   1.628   4.051   0.421  0.0234  0.0177  0.1650
 4548TIP3    H235280   1.679   4.000   0.288 -0.4775 -0.2371  0.0701
 4549TIP3   OH235281   6.304   6.766   1.561  0.5260  0.1753 -0.0607
 4549TIP3    H135282   6.298   6.858   1.535  1.9619  0.1078 -0.7478
 4549TIP3    H235283   6.308   6.769   1.657  1.5118  0.9278 -0.0978
 4550TIP3   OH235284   6.310   1.601   0.036  0.7767  0.1562 -0.0531
 4550TIP3    H135285   6.293   1.667  -0.031  1.9998  0.9698  0.3885
 4550TIP3    H235286   6.321   1.652   0.117 -0.8671 -0.8154  0.8247
 4551TIP3   OH235287   0.478   1.906   8.046 -0.1644 -0.1518 -0.4024
 4551TIP3    H135288   0.511   1.817   8.061  0.0248 -0.3357 -1.7952
 4551TIP3    H235289   0.454   1.908   7.953 -2.9823  0.3595  0.2542
 4552TIP3   OH235290   1.861   1.556   2.677  0.2201  0.7443 -0.4282
 4552TIP3    H135291   1.780   1.569   2.726 -1.4274 -0.1293 -2.7816
 4552TIP3    H235292   1.903   1.481   2.719 -2.5661 -1.8665 -1.8862
 4553TIP3   OH235293   2.397   3.619   7.649 -0.0070 -0.1968 -0.5939
 4553TIP3    H135294   2.348   3.546   7.687 -0.4151  0.4980  0.2574
 4553TIP3    H235295   2.488   3.604   7.675 -0.4442  0.9501  1.8831
 4554TIP3   OH235296   5.158   3.128   0.588  0.7455 -0.4249  0.1014
 4554TIP3    H135297   5.104   3.207   0.594  0.2904 -0.4780 -2.1795
 4554TIP3    H235298   5.165   3.097   0.678 -0.5509  1.2321  0.8391
 4555TIP3   OH235299   1.555   3.041   1.331  0.3928  0.5663 -0.1359
 4555TIP3    H135300   1.614   3.114   1.353 -1.1748  2.4912 -1.8438
 4555TIP3    H235301   1.593   3.002   1.253  0.4687  0.5239 -0.0772
 4556TIP3   OH235302   5.057   3.950   8.450  0.2396 -0.3585 -0.1636
 4556TIP3    H135303   5.022   3.880   8.394 -0.2772 -0.6564  0.5136
 4556TIP3    H235304   5.072   3.907   8.534  2.4240 -0.2769 -0.4677
 4557TIP3   OH235305   4.295   4.567   7.465 -0.5089  0.3181  0.2289
 4557TIP3    H135306   4.257   4.653   7.443 -0.0455  0.3743 -0.3889
 4557TIP3    H235307   4.296   4.520   7.382  2.2247  0.8904 -0.1629
 4558TIP3   OH235308   5.060   3.966   7.624 -0.1539 -0.1374 -0.0305
 4558TIP3    H135309   5.095   3.900   7.683  0.5879 -0.0677 -0.3866
 4558TIP3    H235310   4.984   3.923   7.583  1.1145 -1.3081 -1.2897
 4559TIP3   OH235311   5.699   4.247   8.529 -0.1583 -0.0940 -0.3246
 4559TIP3    H135312   5.680   4.245   8.435  3.0879 -2.7254 -1.1263
 4559TIP3    H235313   5.781   4.295   8.536 -1.4446  2.0032  1.5433
 4560TIP3   OH235314   1.308   2.410   8.173  0.3047  0.3622 -0.1079
 4560TIP3    H135315   1.396   2.443   8.155  0.7368  0.1114  1.3509
 4560TIP3    H235316   1.283   2.451   8.256  0.1742 -1.5860  0.8881
 4561TIP3   OH235317   3.514   6.848   1.191  0.3593  0.7033  0.4126
 4561TIP3    H135318   3.593   6.871   1.141  1.4316  2.4524  2.7700
 4561TIP3    H235319   3.547   6.804   1.269 -1.2283 -0.9312  0.2377
 4562TIP3   OH235320   2.308   1.524   2.126  0.1908 -0.2094  0.0290
 4562TIP3    H135321   2.215   1.538   2.107 -0.4637 -2.2987  1.3749
 4562TIP3    H235322   2.342   1.482   2.047  0.4879  2.0828 -1.1626
 4563TIP3   OH235323   1.671   2.279   2.129  0.4971 -0.2646 -0.0543
 4563TIP3    H135324   1.606   2.281   2.060  0.4867 -2.2382 -0.1442
 4563TIP3    H235325   1.667   2.190   2.164  1.9982  0.0564  1.0442
 4564TIP3   OH235326   6.145   6.269   1.088 -0.3935 -0.3089  0.8005
 4564TIP3    H135327   6.211   6.283   1.156 -0.2185 -2.2168  1.0716
 4564TIP3    H235328   6.096   6.193   1.118 -1.1590 -0.3946 -0.6029
 4565TIP3   OH235329   3.653   4.541   2.398 -0.1987  0.4910  0.8182
 4565TIP3    H135330   3.604   4.467   2.362 -0.1140  0.5134  0.6540
 4565TIP3    H235331   3.593   4.583   2.459 -0.5844  0.8576  0.1929
 4566TIP3   OH235332   3.074   6.077   2.568  0.2618 -0.2222  0.2547
 4566TIP3    H135333   2.986   6.079   2.606 -0.2385 -0.9402 -0.8081
 4566TIP3    H235334   3.087   6.164   2.532 -0.7587 -0.6020 -1.1363
 4567TIP3   OH235335   5.569   5.736   1.488  0.1797 -0.3715 -0.0332
 4567TIP3    H135336   5.639   5.714   1.427 -0.8074 -0.6843 -1.0785
 4567TIP3    H235337   5.614   5.772   1.564  1.5005 -1.0101 -0.4875
 4568TIP3   OH235338   6.861   1.078   1.770 -0.4169 -0.1069  0.3220
 4568TIP3    H135339   6.830   0.988   1.766 -0.6480  0.0066 -2.3383
 4568TIP3    H235340   6.789   1.130   1.733  0.5898  0.8666 -0.3561
 4569TIP3   OH235341   6.560   0.598   0.204  0.4301  0.3219 -0.0693
 4569TIP3    H135342   6.514   0.581   0.286  1.3591 -0.7066  0.2631
 4569TIP3    H235343   6.574   0.692   0.203 -0.7982  0.5232  0.2814
 4570TIP3   OH235344   6.693   3.089   2.448 -0.3276  0.7806  0.3189
 4570TIP3    H135345   6.695   3.132   2.534 -1.5968  0.9180  0.3053
 4570TIP3    H235346   6.747   3.010   2.459 -1.4164  0.1689  1.6231
 4571TIP3   OH235347   4.363   5.501   7.528 -0.0321 -0.1200  0.5228
 4571TIP3    H135348   4.450   5.531   7.555 -0.8044  1.3613  1.5360
 4571TIP3    H235349   4.362   5.512   7.433  1.3159 -1.3882  0.3336
 4572TIP3   OH235350   1.656   3.730   1.722 -0.3650 -0.0526  0.1146
 4572TIP3    H135351   1.716   3.804   1.732  0.4300 -0.8565  1.6338
 4572TIP3    H235352   1.569   3.769   1.726  0.0418  0.9340 -0.3894
 4573TIP3   OH235353   1.307   0.876   1.216  0.0234 -0.5675  0.4433
 4573TIP3    H135354   1.314   0.807   1.150 -0.5615 -1.6384  1.4635
 4573TIP3    H235355   1.213   0.897   1.219 -0.2943 -1.9843  2.3166
 4574TIP3   OH235356   0.736   0.136   8.436  0.3378  0.7721 -0.4176
 4574TIP3    H135357   0.646   0.162   8.459  0.6268  2.0165 -0.6082
 4574TIP3    H235358   0.731   0.041   8.424 -0.9601  0.8215 -0.4646
 4575TIP3   OH235359   2.424   4.029   2.861  0.0788  0.0820 -0.0487
 4575TIP3    H135360   2.504   4.036   2.808  0.2256  0.6956  0.2424
 4575TIP3    H235361   2.433   4.099   2.926 -0.1304 -0.6357  0.7570
 4576TIP3   OH235362   0.371   2.722   1.276  0.0089 -0.2740  0.1216
 4576TIP3    H135363   0.436   2.750   1.212  0.3000 -0.3141  0.3993
 4576TIP3    H235364   0.292   2.771   1.252  1.1456  2.9022  2.1348
 4577TIP3   OH235365   0.877   4.360   1.998  0.2604  0.3278  0.2895
 4577TIP3    H135366   0.900   4.453   1.996 -1.7196  0.8514  0.1321
 4577TIP3    H235367   0.820   4.352   2.075 -0.5120 -0.5133 -0.3621
 4578TIP3   OH235368   2.172   1.594   0.539  0.4336 -0.1803  0.1630
 4578TIP3    H135369   2.246   1.543   0.571 -0.9615 -1.1123  2.1136
 4578TIP3    H235370   2.204   1.684   0.538  2.5076 -0.8419 -2.0245
 4579TIP3   OH235371   3.404   6.859   8.513 -0.3990 -0.0450 -0.4936
 4579TIP3    H135372   3.343   6.805   8.564 -1.2931  1.7958  0.4654
 4579TIP3    H235373   3.363   6.865   8.426 -0.5621 -0.4658 -0.4476
 4580TIP3   OH235374   5.921   5.228   2.726  0.2632 -0.2917 -0.5408
 4580TIP3    H135375   5.988   5.271   2.673 -2.7996 -0.5569 -5.1479
 4580TIP3    H235376   5.910   5.141   2.687 -0.3375 -1.7064  2.4313
 4581TIP3   OH235377   2.809   2.322   1.833  0.2604 -0.1440  0.3606
 4581TIP3    H135378   2.735   2.313   1.894  0.2704 -1.2612  0.2317
 4581TIP3    H235379   2.776   2.287   1.750 -0.1646  2.4979 -0.6775
 4582TIP3   OH235380   2.715   6.082   3.082  0.0734 -0.4085 -0.5715
 4582TIP3    H135381   2.810   6.077   3.090  0.1053  1.7329  1.6576
 4582TIP3    H235382   2.690   6.001   3.038  2.9053 -1.0644 -1.1471
 4583TIP3   OH235383   1.595   2.481   1.010 -0.2418 -0.5369 -0.1848
 4583TIP3    H135384   1.536   2.498   1.084  0.1189 -1.7175  0.3900
 4583TIP3    H235385   1.561   2.401   0.970 -0.7922  0.3924 -1.6953
 4584TIP3   OH235386   0.495   3.635   2.387  0.1704  0.3031 -0.2017
 4584TIP3    H135387   0.532   3.627   2.475 -0.4920  1.8020  0.2615
 4584TIP3    H235388   0.453   3.721   2.387  0.8145  0.6669 -2.2500
 4585TIP3   OH235389   0.142   4.544   8.238 -0.5929  0.2793 -0.0128
 4585TIP3    H135390   0.140   4.452   8.212  1.7627 -0.1236  0.9392
 4585TIP3    H235391   0.104   4.545   8.326  0.5406 -0.0242  0.4946
 4586TIP3   OH235392   6.243   1.590   0.490  0.2864  0.2306 -0.1224
 4586TIP3    H135393   6.163   1.597   0.438 -0.7985 -0.1996  1.4289
 4586TIP3    H235394   6.238   1.504   0.532  1.6948  0.0903 -0.1876
 4587TIP3   OH235395   3.171   3.224   1.228 -0.1440 -0.0774 -0.5307
 4587TIP3    H135396   3.139   3.135   1.210  0.0769 -0.4197  0.6392
 4587TIP3    H235397   3.264   3.221   1.204  0.3898 -0.8189  1.4683
 4588TIP3   OH235398   0.739   5.227   0.811 -0.7265  0.0996 -0.1401
 4588TIP3    H135399   0.646   5.208   0.825 -1.5973  1.3653 -3.1974
 4588TIP3    H235400   0.751   5.315   0.847 -0.5425 -0.2742  0.7352
 4589TIP3   OH235401   2.883   4.490   2.143  0.5211 -0.2029 -0.4247
 4589TIP3    H135402   2.823   4.427   2.182 -0.4440  0.0908 -1.3925
 4589TIP3    H235403   2.924   4.443   2.071 -1.0654  0.5528 -1.9021
 4590TIP3   OH235404   4.361   6.180   2.467 -0.5637 -0.4707  0.1624
 4590TIP3    H135405   4.377   6.199   2.559  0.1718 -0.4615  0.0418
 4590TIP3    H235406   4.385   6.260   2.421  0.1748 -0.8540 -0.1305
 4591TIP3   OH235407   1.301   4.513   0.447 -0.3188 -0.4345 -0.5442
 4591TIP3    H135408   1.330   4.561   0.524  0.2003  0.8218 -1.4797
 4591TIP3    H235409   1.351   4.431   0.449 -1.1304 -0.9270  1.0182
 4592TIP3   OH235410   3.353   1.426   7.278 -0.2613  0.0376  0.2940
 4592TIP3    H135411   3.265   1.464   7.287 -0.6216 -1.1534  2.4537
 4592TIP3    H235412   3.402   1.464   7.350  0.6381 -0.3199 -0.1220
 4593TIP3   OH235413   4.740   6.720   8.255 -0.1055  0.0956 -0.9835
 4593TIP3    H135414   4.694   6.673   8.185 -1.5061  2.6039 -1.8942
 4593TIP3    H235415   4.828   6.734   8.220  0.7105 -2.6428 -0.2371
 4594TIP3   OH235416   4.197   2.214   8.031  0.0118 -0.0926  0.2637
 4594TIP3    H135417   4.192   2.242   7.940 -2.1624  0.7063  0.5613
 4594TIP3    H235418   4.288   2.232   8.057  0.2295  1.2365 -1.2668
 4595TIP3   OH235419   4.526   3.218   8.573  0.4858  0.2063  0.0468
 4595TIP3    H135420   4.509   3.163   8.650  1.7688 -0.6367 -0.2421
 4595TIP3    H235421   4.547   3.304   8.609  1.2939 -0.2353  0.6574
 4596TIP3   OH235422   2.355   2.044   1.480  0.0623  0.8263 -0.4309
 4596TIP3    H135423   2.306   1.983   1.425 -0.6390  0.0209  1.0148
 4596TIP3    H235424   2.312   2.039   1.566 -0.6082  4.0253 -0.4354
 4597TIP3   OH235425   6.841   1.052   0.803  0.0609  0.0656 -0.4076
 4597TIP3    H135426   6.864   0.962   0.777  2.6420  0.5498 -0.0922
 4597TIP3    H235427   6.847   1.102   0.722 -1.7562 -0.0673 -0.6553
 4598TIP3   OH235428   3.457   3.882   0.369 -0.4030 -0.3709 -0.1092
 4598TIP3    H135429   3.421   3.955   0.318  1.2398  0.3069 -0.3738
 4598TIP3    H235430   3.440   3.804   0.316  0.8848  0.2629 -1.5426
 4599TIP3   OH235431   1.922   1.793   2.556 -0.0940  0.6240 -0.0889
 4599TIP3    H135432   1.915   1.807   2.461  1.9325  0.0176 -0.3740
 4599TIP3    H235433   1.896   1.701   2.568  1.6863  0.0558 -0.3779
 4600TIP3   OH235434   2.287   1.535   8.283 -0.3503 -0.3331  0.1965
 4600TIP3    H135435   2.348   1.569   8.349 -1.1207 -0.8483  1.2106
 4600TIP3    H235436   2.318   1.447   8.264  0.2845  0.0625 -0.6888
 4601TIP3   OH235437   5.741   2.743   8.151 -0.3467  0.0438  0.2623
 4601TIP3    H135438   5.668   2.686   8.177  0.1139 -0.1692  1.1377
 4601TIP3    H235439   5.742   2.738   8.055 -1.5993  0.2127  0.2206
 4602TIP3   OH235440   5.950   2.378   1.069 -0.2974  0.1580  0.2598
 4602TIP3    H135441   5.998   2.452   1.107  0.0071  0.5175 -0.7886
 4602TIP3    H235442   6.011   2.305   1.073  1.3307  1.1355 -3.1634
 4603TIP3   OH235443   0.922   4.149   1.392  0.1899  0.3393 -0.3219
 4603TIP3    H135444   1.005   4.171   1.349  0.1993  0.7361 -0.1080
 4603TIP3    H235445   0.883   4.234   1.412  1.5135  0.3156  3.1095
 4604TIP3   OH235446   6.545   6.006   8.457  0.5121 -0.3729  0.1368
 4604TIP3    H135447   6.533   6.094   8.423 -0.1541 -0.1166  1.0058
 4604TIP3    H235448   6.462   5.984   8.498  0.7762 -1.2869  0.2200
 4605TIP3   OH235449   1.559   4.284   6.977 -0.3194 -0.4063 -0.2547
 4605TIP3    H135450   1.578   4.280   6.884 -1.3486  0.1590 -0.5034
 4605TIP3    H235451   1.638   4.323   7.016  0.0367 -0.4680 -0.9100
 4606TIP3   OH235452   6.873   6.688   2.057  0.3248 -0.2799  0.3535
 4606TIP3    H135453   6.963   6.678   2.026  0.4918 -0.6439  0.9529
 4606TIP3    H235454   6.877   6.672   2.151 -0.5223 -1.2246  0.2448
 4607TIP3   OH235455   5.129   0.129   2.260 -0.3460 -0.3230 -0.1405
 4607TIP3    H135456   5.212   0.177   2.268  0.4965 -1.8498  0.8689
 4607TIP3    H235457   5.068   0.193   2.223  1.3412  0.7706 -1.2003
 4608TIP3   OH235458   0.720   3.334   0.546  0.0775  0.2239 -0.3244
 4608TIP3    H135459   0.775   3.365   0.474  0.0150  1.2670  0.0499
 4608TIP3    H235460   0.693   3.414   0.591  0.7372 -0.4450  1.3174
 4609TIP3   OH235461   5.415   6.675   1.523  0.8282 -0.0328  0.1038
 4609TIP3    H135462   5.379   6.726   1.450  0.4687 -0.1884  0.1678
 4609TIP3    H235463   5.411   6.584   1.492  0.3237 -0.1345  0.4620
 4610TIP3   OH235464   1.120   4.499   8.127 -0.2601  0.0371  0.4875
 4610TIP3    H135465   1.091   4.432   8.189 -3.9387 -0.8093 -1.8076
 4610TIP3    H235466   1.187   4.456   8.074 -0.0180 -0.6079  1.3081
 4611TIP3   OH235467   2.465   5.406   7.062  0.4972  0.5022 -0.3404
 4611TIP3    H135468   2.517   5.366   6.992  0.9224  0.9965 -0.3127
 4611TIP3    H235469   2.375   5.382   7.041  0.7614 -0.7968 -0.1202
 4612TIP3   OH235470   3.603   3.199   2.453 -0.1719  0.5158  0.2728
 4612TIP3    H135471   3.602   3.106   2.431  1.6551  0.4214  0.4321
 4612TIP3    H235472   3.516   3.231   2.427 -0.6055 -1.0897 -0.3557
 4613TIP3   OH235473   0.794   1.439   2.629 -0.0559  0.5947 -0.1253
 4613TIP3    H135474   0.860   1.503   2.655 -1.1135  1.4054  0.6354
 4613TIP3    H235475   0.778   1.457   2.536 -1.5659  2.6303  0.4499
 4614TIP3   OH235476   0.829   0.637   2.499  0.1174 -0.0612  0.5206
 4614TIP3    H135477   0.876   0.558   2.527  2.1959  1.1263  0.5808
 4614TIP3    H235478   0.809   0.683   2.580  3.2998  1.7994  0.4267
 4615TIP3   OH235479   4.546   4.305   2.880 -0.4653  0.0165  0.2993
 4615TIP3    H135480   4.535   4.380   2.938 -0.3782 -0.4732  0.9660
 4615TIP3    H235481   4.537   4.229   2.937 -1.8022 -0.5108 -0.5706
 4616TIP3   OH235482   4.747   1.817   8.361 -0.0097 -0.5884 -0.3572
 4616TIP3    H135483   4.810   1.853   8.300 -2.4145  2.0682 -1.4625
 4616TIP3    H235484   4.687   1.764   8.307 -0.9430  0.0731 -0.0020
 4617TIP3   OH235485   1.517   3.467   7.329 -0.0488 -0.0385  0.5748
 4617TIP3    H135486   1.612   3.459   7.329 -0.0675 -0.2997  0.3684
 4617TIP3    H235487   1.487   3.386   7.286 -0.3043  0.8027 -0.8907
 4618TIP3   OH235488   2.482   4.146   1.877  0.2342 -0.7752 -0.1976
 4618TIP3    H135489   2.535   4.210   1.923 -0.3090 -0.8504  0.5536
 4618TIP3    H235490   2.541   4.107   1.813  0.5510  0.5156 -0.7133
 4619TIP3   OH235491   4.446   4.903   0.026 -0.5509  0.3027  0.6425
 4619TIP3    H135492   4.524   4.954   0.047  0.4029 -1.0587  0.5821
 4619TIP3    H235493   4.400   4.895   0.110  0.8926 -1.2770  1.3574
 4620TIP3   OH235494   2.363   0.286   2.027 -0.2583  0.3216 -1.1774
 4620TIP3    H135495   2.325   0.290   2.115  2.6238  2.1852  0.1258
 4620TIP3    H235496   2.341   0.371   1.988  0.8078  0.6154 -1.1649
 4621TIP3   OH235497   4.263   6.860   0.584  0.2394 -0.4211  0.3094
 4621TIP3    H135498   4.172   6.857   0.554  0.1825  0.0682  0.4249
 4621TIP3    H235499   4.315   6.841   0.506  0.0505 -0.3077  0.1546
 4622TIP3   OH235500   0.944   0.863   8.516 -0.2985 -0.0796 -0.3233
 4622TIP3    H135501   1.040   0.863   8.523 -0.3066  1.1507  0.1403
 4622TIP3    H235502   0.921   0.772   8.501  0.9697 -0.3604 -0.7318
 4623TIP3   OH235503   3.390   2.196   7.469 -0.5231 -0.1373 -0.1483
 4623TIP3    H135504   3.310   2.247   7.478 -2.1504 -2.6205  0.5454
 4623TIP3    H235505   3.438   2.211   7.551 -1.2488 -0.1129  0.2842
 4624TIP3   OH235506   3.929   0.232   1.724 -0.6936  0.3867  0.7591
 4624TIP3    H135507   3.885   0.156   1.684  1.2334 -0.4144  0.0646
 4624TIP3    H235508   3.980   0.195   1.796 -0.3616  1.1498  0.9166
 4625TIP3   OH235509   3.656   1.850   0.465 -0.6483  0.1086  0.0039
 4625TIP3    H135510   3.672   1.845   0.370  1.4679 -0.4230  0.3479
 4625TIP3    H235511   3.647   1.759   0.493 -0.6422  0.2314  0.4119
 4626TIP3   OH235512   1.376   3.383   0.466 -0.3218 -0.7394  0.3450
 4626TIP3    H135513   1.373   3.457   0.527 -0.3473 -0.7167  0.3163
 4626TIP3    H235514   1.418   3.418   0.388  0.5866 -1.0229  0.6956
 4627TIP3   OH235515   0.495   0.234   7.447 -0.5597  0.3336 -0.8202
 4627TIP3    H135516   0.549   0.182   7.388 -2.8256 -0.7786 -1.9906
 4627TIP3    H235517   0.407   0.200   7.437 -1.2486  0.7307  2.5152
 4628TIP3   OH235518   4.748   2.475   2.715  0.5128  0.2214 -0.5657
 4628TIP3    H135519   4.737   2.423   2.795  1.9977  0.9537  0.1446
 4628TIP3    H235520   4.713   2.561   2.737 -0.0260  0.1429 -1.0678
 4629TIP3   OH235521   0.747   1.134   8.260 -0.0277  0.2960 -0.3807
 4629TIP3    H135522   0.737   1.212   8.205  0.4018  0.6063 -0.0284
 4629TIP3    H235523   0.841   1.115   8.257 -0.2888 -0.9613 -1.4796
 4630TIP3   OH235524   1.713   1.602   7.694 -0.0874  0.2335  0.1939
 4630TIP3    H135525   1.760   1.608   7.777 -1.2353 -1.9473  1.0670
 4630TIP3    H235526   1.633   1.653   7.708 -0.5067 -0.5329  0.6066
 4631TIP3   OH235527   6.467   3.045   0.461 -0.3520 -0.1181 -0.3810
 4631TIP3    H135528   6.562   3.052   0.459 -0.4131  0.6940 -1.4831
 4631TIP3    H235529   6.450   2.951   0.455  0.3813 -0.2848  0.0591
 4632TIP3   OH235530   2.713   3.110   7.588  0.6298  0.2129 -0.0776
 4632TIP3    H135531   2.803   3.077   7.582  0.1120 -2.2522  3.0415
 4632TIP3    H235532   2.659   3.038   7.555 -0.3168 -0.0765  1.9553
 4633TIP3   OH235533   1.984   0.637   7.946  0.3527  0.4486 -0.4484
 4633TIP3    H135534   2.073   0.607   7.928 -0.1300 -1.7118  0.3746
 4633TIP3    H235535   1.994   0.718   7.995  2.0244 -1.4089  2.5647
 4634TIP3   OH235536   0.085   2.772   0.253  0.4553  0.2093 -0.2056
 4634TIP3    H135537   0.150   2.792   0.185  0.4197  0.4468 -0.1691
 4634TIP3    H235538   0.132   2.786   0.335  0.1298  1.1393 -0.1730
 4635TIP3   OH235539   5.146   4.816   0.503  0.2469  0.3502  0.5622
 4635TIP3    H135540   5.168   4.723   0.498 -1.0628 -0.0247  1.2749
 4635TIP3    H235541   5.146   4.836   0.596 -2.5834  0.2065  0.6906
 4636TIP3   OH235542   2.255   2.916   1.261 -0.0906 -0.1989  0.3342
 4636TIP3    H135543   2.239   2.889   1.352 -0.1789  1.1789  0.7490
 4636TIP3    H235544   2.263   3.011   1.265  1.5622 -0.2326 -0.8568
 4637TIP3   OH235545   1.317   2.011   6.845 -0.4610 -0.4313 -0.5360
 4637TIP3    H135546   1.345   2.086   6.792 -0.1962 -1.1409 -1.4137
 4637TIP3    H235547   1.260   1.961   6.787  0.6848 -1.7854 -0.5359
 4638TIP3   OH235548   1.058   3.741   8.235  0.3648 -0.0400  0.4277
 4638TIP3    H135549   1.095   3.690   8.307 -0.0126 -0.5484  0.2618
 4638TIP3    H235550   1.092   3.830   8.249 -1.8164  0.5564  2.8206
 4639TIP3   OH235551   4.738   0.880   6.730  0.5010 -0.0977  0.1095
 4639TIP3    H135552   4.715   0.850   6.818 -0.0201  0.5530  0.2016
 4639TIP3    H235553   4.691   0.820   6.671 -0.1671  0.2319  0.2914
 4640TIP3   OH235554   5.456   1.996   0.552 -0.3064 -0.6976  0.0078
 4640TIP3    H135555   5.446   1.942   0.630  1.3921 -0.0876  0.7078
 4640TIP3    H235556   5.551   2.004   0.540 -0.5093  0.8962 -0.9249
 4641TIP3   OH235557   0.344   4.872   0.499  0.0274  0.2987  0.4281
 4641TIP3    H135558   0.429   4.844   0.533 -0.5830  0.5027  2.2467
 4641TIP3    H235559   0.351   4.968   0.493  0.5021  0.1980 -1.1876
 4642TIP3   OH235560   0.514   2.582   0.845 -0.3942  0.3908 -0.0197
 4642TIP3    H135561   0.567   2.661   0.846 -1.6347  1.3226 -1.9275
 4642TIP3    H235562   0.426   2.611   0.821 -0.9350 -1.5381 -0.6239
 4643TIP3   OH235563   5.836   5.908   0.085 -0.5835  0.5222 -0.3993
 4643TIP3    H135564   5.836   5.963   0.007  1.9322 -0.5902 -1.2919
 4643TIP3    H235565   5.911   5.938   0.136  0.3235 -1.4079 -0.4902
 4644TIP3   OH235566   3.106   6.061   0.023 -0.0019 -0.0413  0.4631
 4644TIP3    H135567   3.169   6.057   0.094 -1.6698 -1.9595  1.9403
 4644TIP3    H235568   3.028   6.101   0.061  0.7845  4.4284 -1.8859
 4645TIP3   OH235569   1.073   4.837   0.095  0.7201 -0.2743 -0.0675
 4645TIP3    H135570   0.988   4.797   0.077  0.4066 -0.7610  2.2166
 4645TIP3    H235571   1.070   4.861   0.188  2.7044  0.6469 -0.1798
 4646TIP3   OH235572   4.386   6.615   0.027  0.7212 -0.2377  0.2150
 4646TIP3    H135573   4.455   6.605   0.093  0.1261  0.4757  0.9651
 4646TIP3    H235574   4.374   6.710   0.020 -0.7439 -0.3706  0.7042
 4647TIP3   OH235575   2.576   6.096   0.826  0.1846 -0.0023 -0.1946
 4647TIP3    H135576   2.601   6.183   0.795 -1.9133  1.0181  0.7899
 4647TIP3    H235577   2.485   6.087   0.799  0.1069 -1.5451  0.5087
 4648TIP3   OH235578   2.164   4.396   0.460 -0.4296 -0.3636  0.4861
 4648TIP3    H135579   2.140   4.347   0.538 -0.0448 -2.2142 -0.5085
 4648TIP3    H235580   2.237   4.347   0.422  0.7134  1.5812 -0.0060
 4649TIP3   OH235581   3.501   2.603   2.407 -0.0224  0.2037 -0.4178
 4649TIP3    H135582   3.426   2.589   2.464  0.5484  0.6385  0.4701
 4649TIP3    H235583   3.567   2.641   2.464  0.5366  0.7448 -1.4035
 4650TIP3   OH235584   5.689   4.617   1.000  0.5294  0.2611  0.6082
 4650TIP3    H135585   5.768   4.663   0.969  1.1111 -0.8149  0.4538
 4650TIP3    H235586   5.649   4.583   0.920 -1.0666  2.2233  0.4830
 4651TIP3   OH235587   3.273   6.733   1.193  0.6376 -0.1344 -0.2879
 4651TIP3    H135588   3.362   6.766   1.180  1.1039 -1.0113  0.5646
 4651TIP3    H235589   3.278   6.680   1.272 -0.5689 -0.4976 -0.4306
 4652TIP3   OH235590   5.293   0.246   7.184  0.2180 -0.0479 -0.3672
 4652TIP3    H135591   5.285   0.290   7.269 -0.9835  0.9072 -0.9470
 4652TIP3    H235592   5.374   0.194   7.191 -0.5311 -1.0217  1.7971
 4653TIP3   OH235593   1.099   2.104   8.560  0.2795 -0.0975  0.2317
 4653TIP3    H135594   1.168   2.151   8.606  0.8239  0.1879 -0.8397
 4653TIP3    H235595   1.018   2.143   8.591  0.7082  1.3716 -0.4013
 4654TIP3   OH235596   4.026   3.482   1.422 -0.7903 -0.1229 -0.0458
 4654TIP3    H135597   4.116   3.455   1.401 -0.5184  0.5960  0.1803
 4654TIP3    H235598   4.035   3.535   1.501 -1.5498 -0.9627  0.6232
 4655TIP3   OH235599   4.676   6.214   1.208  0.0556  0.4649  0.1634
 4655TIP3    H135600   4.687   6.127   1.169 -0.8709 -0.4213  1.8023
 4655TIP3    H235601   4.765   6.241   1.232  0.2790 -0.3130  0.2371
 4656TIP3   OH235602   4.061   1.727   8.559 -0.1336 -0.0125  0.0600
 4656TIP3    H135603   4.033   1.700   8.472  0.1923  1.2930 -0.4901
 4656TIP3    H235604   4.026   1.816   8.569 -0.3943 -0.2476  1.3729
 4657TIP3   OH235605   1.273   0.834   1.963  0.5646  0.1500  0.1682
 4657TIP3    H135606   1.244   0.799   1.879 -1.8599 -1.2493  1.4691
 4657TIP3    H235607   1.256   0.763   2.025  0.7071  1.7274  2.0998
 4658TIP3   OH235608   2.788   1.164   1.605 -0.1199 -0.3898  0.3120
 4658TIP3    H135609   2.842   1.084   1.608  0.4266 -0.0577 -0.3820
 4658TIP3    H235610   2.777   1.182   1.512  0.5320  0.8461  0.4465
 4659TIP3   OH235611   2.159   0.833   1.092 -0.2503  0.1864  0.1721
 4659TIP3    H135612   2.077   0.839   1.043 -1.5586 -2.3805  1.8370
 4659TIP3    H235613   2.133   0.843   1.183  0.7933 -3.1145  0.9556
 4660TIP3   OH235614   2.771   4.302   1.884  0.2422  0.1181 -0.3743
 4660TIP3    H135615   2.866   4.306   1.878  0.2748  0.6222  0.3880
 4660TIP3    H235616   2.740   4.369   1.823  0.4209  0.9971  0.4747
 4661TIP3   OH235617   2.509   5.701   1.696  0.2988  0.2407 -0.4967
 4661TIP3    H135618   2.446   5.738   1.757  1.2083  3.3532 -1.3031
 4661TIP3    H235619   2.480   5.731   1.610  1.0267 -1.1101 -1.2431
 4662TIP3   OH235620   0.228   0.204   6.924  0.0176  0.4042  0.1417
 4662TIP3    H135621   0.138   0.231   6.907 -0.4576 -1.2467 -0.1250
 4662TIP3    H235622   0.268   0.198   6.837 -0.1860 -0.6928  0.1107
 4663TIP3   OH235623   0.897   1.807   0.533 -0.3654  0.9711  0.6175
 4663TIP3    H135624   0.831   1.800   0.464  0.9677  0.3646 -0.6485
 4663TIP3    H235625   0.929   1.897   0.527 -0.5966  1.0653  0.7830
 4664TIP3   OH235626   2.181   5.324   1.078  0.1680  0.3056  0.0285
 4664TIP3    H135627   2.219   5.391   1.021 -0.0679  2.0296  1.7935
 4664TIP3    H235628   2.255   5.268   1.101  0.5516  0.4560 -0.7839
 4665TIP3   OH235629   5.615   2.976   1.567  0.0721  0.1075  0.6512
 4665TIP3    H135630   5.677   2.905   1.552 -1.3742 -1.1598  0.4811
 4665TIP3    H235631   5.670   3.052   1.584  1.6693 -0.9076  0.2434
 4666TIP3   OH235632   5.282   4.183   7.779  0.7198 -0.3344 -0.5572
 4666TIP3    H135633   5.349   4.115   7.789 -0.1977 -1.1611  0.2826
 4666TIP3    H235634   5.277   4.225   7.865 -0.6925 -1.1563 -0.1886
 4667TIP3   OH235635   0.828   1.183   7.454 -0.7045  0.1268  0.3308
 4667TIP3    H135636   0.764   1.120   7.488 -1.9767  0.0469 -1.9930
 4667TIP3    H235637   0.778   1.240   7.396  0.9600  1.4561  0.1134
 4668TIP3   OH235638   5.516   2.652   1.667 -0.0192  0.3018  0.3825
 4668TIP3    H135639   5.443   2.706   1.696  0.2285  0.0261  1.5756
 4668TIP3    H235640   5.572   2.711   1.616 -0.6054  0.7343  0.2331
 4669TIP3   OH235641   1.625   0.499   1.149 -0.2822 -0.1543 -0.1815
 4669TIP3    H135642   1.546   0.467   1.193  0.3669 -0.5742  0.7341
 4669TIP3    H235643   1.696   0.452   1.192  0.3891 -0.7185 -1.8360
 4670TIP3   OH235644   5.102   2.793   2.636 -0.0499 -0.1988  0.2555
 4670TIP3    H135645   5.182   2.754   2.673 -0.6826 -2.2431 -0.3992
 4670TIP3    H235646   5.051   2.821   2.712  0.2508 -1.0596  0.7866
 4671TIP3   OH235647   0.056   5.595   7.905 -0.4057 -0.1976  0.9172
 4671TIP3    H135648   0.080   5.505   7.884 -1.1361 -0.3718  0.7960
 4671TIP3    H235649  -0.035   5.589   7.933 -1.2419  0.8043 -1.3474
 4672TIP3   OH235650   6.586   4.648   0.829 -0.2123 -0.6483  0.2119
 4672TIP3    H135651   6.639   4.616   0.902  0.8258 -1.6288 -0.8998
 4672TIP3    H235652   6.551   4.732   0.859  1.2929 -0.3661  1.3355
 4673TIP3   OH235653   0.621   3.403   1.795 -0.2883 -0.7445  0.2854
 4673TIP3    H135654   0.559   3.474   1.811  1.4524  0.8695  0.1564
 4673TIP3    H235655   0.641   3.369   1.882  0.8031  0.6875  0.6371
 4674TIP3   OH235656   4.839   5.986   0.509 -0.3650  0.0742 -0.0142
 4674TIP3    H135657   4.906   5.999   0.577 -1.1605 -0.3555  0.8877
 4674TIP3    H235658   4.884   6.004   0.427  0.5573  0.9123  0.6456
 4675TIP3   OH235659   2.517   3.626   2.290 -0.2373 -0.1192 -0.2769
 4675TIP3    H135660   2.449   3.693   2.294  0.8572  1.1068 -1.4057
 4675TIP3    H235661   2.532   3.612   2.196  1.0302 -0.3961 -0.0534
 4676TIP3   OH235662   3.310   1.650   7.670  0.1062 -0.4605 -0.4776
 4676TIP3    H135663   3.398   1.683   7.688 -0.4263  0.5666  0.3770
 4676TIP3    H235664   3.278   1.705   7.599  0.1985 -0.9172 -0.8739
 4677TIP3   OH235665   5.218   4.129   1.342 -0.3124  0.4654  1.1079
 4677TIP3    H135666   5.289   4.088   1.293 -0.5574  1.8133 -0.4545
 4677TIP3    H235667   5.257   4.210   1.375 -1.5232  2.0784 -1.2124
 4678TIP3   OH235668   0.444   3.957   1.224  0.0629 -0.0820 -0.0122
 4678TIP3    H135669   0.490   4.028   1.178 -0.2173  0.7176  0.8994
 4678TIP3    H235670   0.355   3.959   1.189 -0.0865  0.3695  0.3852
 4679TIP3   OH235671   6.378   3.280   7.279 -1.0648  0.0356 -0.1643
 4679TIP3    H135672   6.399   3.283   7.185  1.0760  0.7687  0.2796
 4679TIP3    H235673   6.365   3.187   7.298 -0.1980 -0.2601 -0.9434
 4680TIP3   OH235674   3.250   1.454   1.664  0.2620  0.1278  0.7966
 4680TIP3    H135675   3.170   1.502   1.685  0.2111  0.5066 -0.2089
 4680TIP3    H235676   3.321   1.512   1.689  0.2436 -0.1725  1.6061
 4681TIP3   OH235677   4.905   0.615   6.801  0.5501  0.9078  0.2367
 4681TIP3    H135678   4.939   0.705   6.802  1.4512  0.6234 -1.4826
 4681TIP3    H235679   4.811   0.626   6.787  1.0315  1.6230 -3.6403
 4682TIP3   OH235680   5.295   4.717   8.504 -0.3754 -0.1804  0.4698
 4682TIP3    H135681   5.311   4.730   8.597  1.5385 -0.2864  0.1966
 4682TIP3    H235682   5.317   4.625   8.488 -1.5664 -0.4179  0.0579
 4683TIP3   OH235683   0.200   3.117   7.372  0.0348 -0.2240  0.0655
 4683TIP3    H135684   0.112   3.109   7.408  0.8460 -0.6306  2.0861
 4683TIP3    H235685   0.212   3.040   7.317 -0.2180 -1.1911  1.3235
 4684TIP3   OH235686   2.378   2.295   1.790 -0.1489  0.4226  0.3980
 4684TIP3    H135687   2.438   2.231   1.828 -1.4412 -0.9469  0.2450
 4684TIP3    H235688   2.296   2.247   1.778 -0.3594  1.3080 -2.3736
 4685TIP3   OH235689   0.783   0.754   7.966 -0.2547  0.0586  0.0186
 4685TIP3    H135690   0.795   0.667   8.006  1.0870 -0.0756 -0.6525
 4685TIP3    H235691   0.845   0.810   8.013  0.4215  0.1748 -0.9981
 4686TIP3   OH235692   3.254   5.746   7.849 -0.3505  0.0067  0.1849
 4686TIP3    H135693   3.284   5.773   7.763  1.2792  0.4075  0.8395
 4686TIP3    H235694   3.328   5.699   7.887 -0.2580  1.5526  2.1182
 4687TIP3   OH235695   2.904   5.254   0.110  0.7333 -0.3103 -0.3588
 4687TIP3    H135696   2.905   5.225   0.202  2.9493  1.2978  0.2005
 4687TIP3    H235697   2.847   5.331   0.110  1.0291 -0.0907 -0.2521
 4688TIP3   OH235698   5.636   6.195   6.808 -0.6455 -0.1404 -0.3180
 4688TIP3    H135699   5.611   6.167   6.720  0.7885  0.7549 -1.0494
 4688TIP3    H235700   5.707   6.258   6.794 -2.3250  2.2841  1.3204
 4689TIP3   OH235701   5.393   2.802   2.115  0.9924 -0.6061  0.1620
 4689TIP3    H135702   5.421   2.875   2.059  0.9161 -1.6068 -1.2515
 4689TIP3    H235703   5.335   2.842   2.179  0.9056  0.5809 -0.6211
 4690TIP3   OH235704   0.771   1.900   0.855  0.1381  0.0680  0.1248
 4690TIP3    H135705   0.762   1.958   0.779  1.7024 -0.4869 -0.5129
 4690TIP3    H235706   0.865   1.892   0.868 -0.0896  0.5827  2.4824
 4691TIP3   OH235707   1.950   3.902   0.103  0.6663  0.5668  0.1692
 4691TIP3    H135708   1.873   3.847   0.091  2.3580 -1.6735 -1.3058
 4691TIP3    H235709   1.982   3.879   0.191  1.5017 -1.1346 -0.5266
 4692TIP3   OH235710   3.009   6.246   7.892  0.5084 -0.0891  0.0114
 4692TIP3    H135711   3.047   6.205   7.814 -0.7666 -1.9644  0.2975
 4692TIP3    H235712   3.051   6.200   7.965  0.3111  0.3278  0.3892
 4693TIP3   OH235713   2.921   0.054   2.956 -0.5476 -0.4179 -0.1131
 4693TIP3    H135714   2.879   0.115   2.896 -1.7879  0.0633  1.1865
 4693TIP3    H235715   3.010   0.088   2.968 -1.1303  0.9814  0.3636
 4694TIP3   OH235716   3.607   2.897   8.022 -0.6583 -0.0319  0.9503
 4694TIP3    H135717   3.682   2.954   8.039 -0.6830  0.2528  0.1060
 4694TIP3    H235718   3.642   2.808   8.031  0.1782  0.0561 -0.9596
 4695TIP3   OH235719   5.071   3.746   0.923 -0.3047 -0.3004 -0.3350
 4695TIP3    H135720   5.108   3.728   1.009  0.0653  0.1558 -0.3916
 4695TIP3    H235721   5.143   3.730   0.862 -0.1897  0.5684 -0.4503
 4696TIP3   OH235722   0.759   6.870   2.908  0.4522 -0.1851 -0.1707
 4696TIP3    H135723   0.701   6.927   2.857 -0.7027 -0.9451  0.2419
 4696TIP3    H235724   0.846   6.905   2.894 -0.0748  0.8129 -1.0717
 4697TIP3   OH235725   6.859   4.248   1.045  0.0424  0.3321  0.3852
 4697TIP3    H135726   6.891   4.172   0.997  0.5104  0.3883  0.6011
 4697TIP3    H235727   6.891   4.324   0.995 -1.0036  0.3982 -0.2121
 4698TIP3   OH235728   0.780   1.315   0.187  0.2337  0.7401  0.0523
 4698TIP3    H135729   0.799   1.358   0.104 -0.1103 -1.6538 -1.3417
 4698TIP3    H235730   0.686   1.332   0.201 -0.5322 -1.3994 -1.7585
 4699TIP3   OH235731   1.394   5.798   7.773  0.5602 -1.0330 -0.3149
 4699TIP3    H135732   1.403   5.820   7.681 -0.9712 -1.6735 -0.6557
 4699TIP3    H235733   1.481   5.812   7.811  0.8086  0.8842 -1.4821
 4700TIP3   OH235734   2.340   2.532   8.333  0.5165 -0.6924 -0.3962
 4700TIP3    H135735   2.427   2.493   8.324  1.3925  1.4704 -2.1001
 4700TIP3    H235736   2.343   2.579   8.416  0.6629 -1.3602 -0.0221
 4701TIP3   OH235737   5.329   1.129   2.425 -0.2353  0.0020 -0.5540
 4701TIP3    H135738   5.402   1.076   2.391  0.4090  1.3633 -1.3730
 4701TIP3    H235739   5.342   1.128   2.520  0.9487  0.3426 -0.6948
 4702TIP3   OH235740   3.716   1.845   8.056  0.7444 -0.0508  0.2560
 4702TIP3    H135741   3.689   1.819   7.968  0.4491  1.3673 -0.1018
 4702TIP3    H235742   3.702   1.940   8.058  0.0104 -0.1639  2.0976
 4703TIP3   OH235743   6.253   5.957   1.836 -0.1567  0.6386 -0.0255
 4703TIP3    H135744   6.161   5.984   1.841 -0.1832  0.3574  2.0094
 4703TIP3    H235745   6.295   6.024   1.784 -1.3575  1.2686 -0.2196
 4704TIP3   OH235746   6.436   5.613   0.727 -0.2568  0.1489 -0.0485
 4704TIP3    H135747   6.426   5.667   0.806 -1.9271 -1.6848  1.0672
 4704TIP3    H235748   6.351   5.571   0.716 -0.1573  0.5250 -3.0270
 4705TIP3   OH235749   6.786   5.729   1.019 -0.2208  0.1910 -0.3599
 4705TIP3    H135750   6.749   5.796   1.077 -0.2875 -1.1017  1.1467
 4705TIP3    H235751   6.800   5.775   0.936 -0.1326  2.1068  0.6562
 4706TIP3   OH235752   3.890   6.181   0.300 -0.0155  0.0394  0.6143
 4706TIP3    H135753   3.932   6.127   0.233 -2.1720  0.1890 -1.0097
 4706TIP3    H235754   3.862   6.119   0.367 -0.3503 -0.5664 -0.0650
 4707TIP3   OH235755   5.734   4.245   2.374 -0.1018 -0.1264  0.4655
 4707TIP3    H135756   5.770   4.187   2.440 -1.4589 -0.6352  0.7946
 4707TIP3    H235757   5.647   4.268   2.407  0.1329  1.5515  0.0075
 4708TIP3   OH235758   0.099   3.986   8.401  0.4414 -0.0957  0.2691
 4708TIP3    H135759   0.021   4.042   8.393  0.3322 -0.1253  1.0224
 4708TIP3    H235760   0.168   4.034   8.357 -0.2721 -0.6256 -1.5226
 4709TIP3   OH235761   0.503   5.440   0.672  0.1107 -0.0875 -0.7400
 4709TIP3    H135762   0.535   5.530   0.681  0.3151 -0.1902 -0.4599
 4709TIP3    H235763   0.535   5.412   0.586 -0.4820  0.3201 -1.1117
 4710TIP3   OH235764   3.378   6.209   7.599 -0.3203 -0.2800  0.0703
 4710TIP3    H135765   3.371   6.194   7.504 -2.0978  0.6830  0.0080
 4710TIP3    H235766   3.440   6.281   7.607 -0.8495  0.2487 -0.4495
 4711TIP3   OH235767   4.716   0.962   1.562  0.7623  0.6538 -0.4393
 4711TIP3    H135768   4.659   1.037   1.579 -0.2730 -0.2058  0.0129
 4711TIP3    H235769   4.675   0.916   1.489  2.1510  1.2589 -1.6435
 4712TIP3   OH235770   2.973   6.673   2.829  1.1383  0.5997 -0.0065
 4712TIP3    H135771   2.927   6.720   2.760  0.7364  1.3231  0.7347
 4712TIP3    H235772   2.932   6.703   2.910  0.0599 -1.9167  0.4697
 4713TIP3   OH235773   5.931   3.375   1.994  0.2432  0.2705  0.5331
 4713TIP3    H135774   6.026   3.365   1.985  0.1273  0.7284 -1.9984
 4713TIP3    H235775   5.911   3.459   1.952 -1.6073 -1.4184 -2.2953
 4714TIP3   OH235776   0.681   0.307   2.310 -0.3240 -0.0296  0.6247
 4714TIP3    H135777   0.666   0.220   2.349 -0.4921  0.6592  2.1643
 4714TIP3    H235778   0.766   0.299   2.267  1.1476 -0.1607  3.3200
 4715TIP3   OH235779   0.600   0.285   6.814 -0.4236 -0.6514 -0.4433
 4715TIP3    H135780   0.572   0.373   6.788  1.6084  1.2892  3.1135
 4715TIP3    H235781   0.682   0.270   6.766  0.0973  0.1742  0.1667
 4716TIP3   OH235782   6.068   5.707   0.754 -0.3030  0.1911 -0.6168
 4716TIP3    H135783   6.026   5.680   0.673 -1.7851 -2.0504  0.7825
 4716TIP3    H235784   6.108   5.627   0.788  0.2258  1.0528  0.8899
 4717TIP3   OH235785   6.084   1.042   7.287 -0.3385 -0.1995 -0.0268
 4717TIP3    H135786   6.098   1.118   7.344 -0.2782 -1.1169  1.2028
 4717TIP3    H235787   6.161   1.042   7.229 -0.4053  0.7373 -0.1465
 4718TIP3   OH235788   4.079   0.162   0.136 -0.2021  0.2552 -0.4917
 4718TIP3    H135789   4.073   0.136   0.227  2.3515 -2.6527 -0.9909
 4718TIP3    H235790   3.988   0.170   0.107 -1.0655  0.4164  2.0405
 4719TIP3   OH235791   5.221   6.875   2.893  0.1909  0.0068  0.0605
 4719TIP3    H135792   5.243   6.918   2.810 -0.7368 -0.9527 -0.7268
 4719TIP3    H235793   5.138   6.914   2.919  0.4684  0.2866  0.5249
 4720TIP3   OH235794   5.138   6.230   1.881 -0.6065 -0.2894 -0.2006
 4720TIP3    H135795   5.082   6.183   1.819 -0.4090 -0.2294 -0.4242
 4720TIP3    H235796   5.203   6.274   1.827 -0.2868 -0.4271  0.0678
 4721TIP3   OH235797   6.544   4.629   0.113  0.2000 -0.6055  0.0043
 4721TIP3    H135798   6.597   4.576   0.055  0.7219  0.5347 -0.5848
 4721TIP3    H235799   6.605   4.659   0.181  0.6022  1.5080 -1.2079
 4722TIP3   OH235800   5.405   4.638   2.493 -0.3940  0.1352  0.0212
 4722TIP3    H135801   5.323   4.619   2.538 -1.1073  1.5152 -0.6392
 4722TIP3    H235802   5.407   4.733   2.486  1.4446  0.1487  0.3217
 4723TIP3   OH235803   4.930   1.382   1.562  0.4989 -0.3431  0.5217
 4723TIP3    H135804   4.855   1.344   1.516  0.3955  0.0380  0.3654
 4723TIP3    H235805   4.952   1.460   1.510  0.8526 -0.3243  0.7018
 4724TIP3   OH235806   2.535   6.271   1.064  0.0929 -0.4996 -0.0320
 4724TIP3    H135807   2.557   6.184   1.031  0.3758 -0.7613  0.8042
 4724TIP3    H235808   2.440   6.272   1.068  0.0455 -0.3503 -1.1236
 4725TIP3   OH235809   0.351   2.104   0.991  0.2848  0.4330 -0.2901
 4725TIP3    H135810   0.287   2.101   0.919  2.0335 -0.2440 -1.9128
 4725TIP3    H235811   0.385   2.193   0.988  1.8565 -0.1540 -1.7801
 4726TIP3   OH235812   0.218   6.018   2.242 -0.1705  0.0295  0.4509
 4726TIP3    H135813   0.158   6.065   2.300 -1.1701 -0.4743 -0.1331
 4726TIP3    H235814   0.191   5.926   2.250  0.6392 -0.2290  0.2965
 4727TIP3   OH235815   0.601   1.158   1.205 -0.1516 -0.5513  0.0566
 4727TIP3    H135816   0.581   1.173   1.298 -1.2978 -1.6241 -0.0016
 4727TIP3    H235817   0.623   1.245   1.172 -1.6328  0.1751  0.8938
 4728TIP3   OH235818   0.083   6.246   0.497 -0.5694  0.1487  0.5904
 4728TIP3    H135819   0.143   6.247   0.571  0.1875 -1.0726  0.0146
 4728TIP3    H235820   0.081   6.336   0.466  2.3464 -0.0537 -0.4516
 4729TIP3   OH235821   1.883   5.246   2.774 -0.0326 -0.3685  0.1678
 4729TIP3    H135822   1.921   5.199   2.700 -1.7332 -0.4109 -0.7136
 4729TIP3    H235823   1.940   5.224   2.848  0.3767 -2.1969 -0.6383
 4730TIP3   OH235824   5.076   4.552   7.488  0.2727 -0.1038 -0.2133
 4730TIP3    H135825   5.062   4.558   7.394 -0.6215  0.3126 -0.0557
 4730TIP3    H235826   4.994   4.517   7.523 -1.1217  3.8369  0.9074
 4731TIP3   OH235827   2.210   2.210   0.108 -0.2739 -0.2802  0.1447
 4731TIP3    H135828   2.209   2.296   0.149  0.3116 -0.4415  0.5173
 4731TIP3    H235829   2.215   2.227   0.014  1.8197  0.1172  0.2765
 4732TIP3   OH235830   5.039   6.688   0.137 -0.2602 -0.0320 -0.9471
 4732TIP3    H135831   5.103   6.618   0.123 -0.8526 -0.6131 -0.7600
 4732TIP3    H235832   4.983   6.685   0.059 -0.9647 -0.4936 -0.4269
 4733TIP3   OH235833   1.508   0.623   7.473 -0.1686  0.0183  0.2462
 4733TIP3    H135834   1.430   0.648   7.423 -1.5056 -2.9041  0.6530
 4733TIP3    H235835   1.560   0.571   7.413 -0.2051 -0.8209  0.9237
 4734TIP3   OH235836   2.944   1.107   2.235  0.0123  0.5687 -0.3838
 4734TIP3    H135837   2.997   1.169   2.184 -1.2389  1.0641 -1.1431
 4734TIP3    H235838   2.872   1.084   2.176 -0.9164  0.3440  0.8056
 4735TIP3   OH235839   1.383   2.963   0.817 -0.0446  0.0086  0.5974
 4735TIP3    H135840   1.420   2.899   0.757 -1.5095 -1.0152  0.7390
 4735TIP3    H235841   1.453   3.027   0.830  1.1213 -1.0427 -0.2927
 4736TIP3   OH235842   2.846   2.596   1.993  0.2215  0.2927 -0.5880
 4736TIP3    H135843   2.790   2.605   1.916 -0.7194 -1.3454 -0.1475
 4736TIP3    H235844   2.890   2.512   1.982 -0.2823 -0.1960  0.8385
 4737TIP3   OH235845   0.639   5.870   8.235  0.3392 -0.5395  0.1410
 4737TIP3    H135846   0.697   5.922   8.179 -0.4897  0.0403 -0.1905
 4737TIP3    H235847   0.652   5.906   8.323 -0.2151  0.2313 -0.0833
 4738TIP3   OH235848   6.121   4.994   0.828  0.4646  0.7761 -0.3954
 4738TIP3    H135849   6.137   4.902   0.805  1.5684  1.1734 -1.3155
 4738TIP3    H235850   6.027   5.006   0.811 -0.3586 -0.8434  2.3179
 4739TIP3   OH235851   6.315   4.481   2.244 -0.1447 -0.2048  0.0146
 4739TIP3    H135852   6.365   4.435   2.312  0.1590  0.9627  0.6313
 4739TIP3    H235853   6.311   4.420   2.171 -1.2688 -1.8753  1.3877
 4740TIP3   OH235854   3.409   2.833   2.611  0.3097  0.5006 -0.5034
 4740TIP3    H135855   3.409   2.741   2.636  1.3266  0.4036 -0.8096
 4740TIP3    H235856   3.421   2.880   2.693 -0.3417  0.3819 -0.3283
 4741TIP3   OH235857   0.698   0.253   0.394  0.2716 -0.1016  0.2260
 4741TIP3    H135858   0.616   0.254   0.443  0.1777 -0.6918  0.0862
 4741TIP3    H235859   0.671   0.246   0.302  0.4940 -1.9289  0.2674
 4742TIP3   OH235860   5.085   0.457   7.878 -0.0791  0.0752 -0.4308
 4742TIP3    H135861   5.112   0.416   7.796  0.9126  2.9509 -1.6855
 4742TIP3    H235862   5.139   0.537   7.883 -2.3632  1.6334  1.3780
 4743TIP3   OH235863   5.943   1.845   1.744  0.5310  1.0984  0.1645
 4743TIP3    H135864   5.945   1.917   1.807  2.3711  1.8686 -0.6903
 4743TIP3    H235865   6.003   1.872   1.674 -0.3711 -0.3443 -1.2344
 4744TIP3   OH235866   3.981   0.808   7.920 -0.5402 -0.6057 -0.0723
 4744TIP3    H135867   4.047   0.744   7.946 -0.3695 -1.4847 -2.4486
 4744TIP3    H235868   4.027   0.868   7.861 -1.7735 -1.1370 -1.6375
 4745TIP3   OH235869   2.627   1.057   2.233 -0.2077 -0.3315 -0.1625
 4745TIP3    H135870   2.650   1.121   2.165 -2.3319 -0.3482 -0.9624
 4745TIP3    H235871   2.630   0.972   2.189 -3.6592 -0.1691 -0.9202
 4746TIP3   OH235872   4.984   3.093   8.154 -0.9960 -0.2552 -0.1054
 4746TIP3    H135873   4.913   3.125   8.097 -0.2628 -0.6075 -1.2608
 4746TIP3    H235874   5.053   3.158   8.144 -1.2062  0.1904  1.1744
 4747TIP3   OH235875   1.016   5.187   1.908  0.3607 -0.0172 -0.3603
 4747TIP3    H135876   0.978   5.231   1.984 -0.6406  1.1758 -1.4965
 4747TIP3    H235877   0.982   5.235   1.833 -0.0895 -2.2165 -1.6640
 4748TIP3   OH235878   0.786   4.548   1.225  0.6848  0.5257  0.2445
 4748TIP3    H135879   0.873   4.544   1.263  0.0363 -0.9231  1.6614
 4748TIP3    H235880   0.728   4.570   1.298 -0.3032  0.0388 -0.3696
 4749TIP3   OH235881   0.768   5.302   7.291  0.4766 -0.1170  0.2194
 4749TIP3    H135882   0.821   5.251   7.229  1.5697 -2.1231  2.6222
 4749TIP3    H235883   0.820   5.381   7.308  0.5401  0.0706 -0.7910
 4750TIP3   OH235884   3.718   4.609   1.764 -0.3815 -0.2211  0.2183
 4750TIP3    H135885   3.790   4.655   1.721 -0.7562  0.8075  0.6630
 4750TIP3    H235886   3.648   4.607   1.698 -1.1808  1.9092  0.9115
 4751TIP3   OH235887   3.020   1.693   1.671  0.3025 -0.5697  0.6632
 4751TIP3    H135888   3.094   1.754   1.678 -0.3380  0.5374 -1.4018
 4751TIP3    H235889   3.049   1.627   1.608 -0.2704 -0.4232  0.2380
 4752TIP3   OH235890   0.734   5.648   7.131 -0.2760  0.0220  0.1033
 4752TIP3    H135891   0.646   5.636   7.167 -0.2614  0.4131  0.2640
 4752TIP3    H235892   0.793   5.639   7.206 -0.0776 -1.5150 -0.1949
 4753TIP3   OH235893   1.878   2.387   8.186  0.3623 -0.3586 -0.2504
 4753TIP3    H135894   1.810   2.455   8.192  0.5973  0.0375 -1.7610
 4753TIP3    H235895   1.960   2.435   8.199  0.4705 -0.5289 -0.3160
 4754TIP3   OH235896   2.406   5.906   1.881 -0.1101  0.2825  0.8683
 4754TIP3    H135897   2.466   5.916   1.954  0.2193  0.9025  0.5231
 4754TIP3    H235898   2.441   5.965   1.813  1.2071 -2.2945 -0.8432
 4755TIP3   OH235899   4.847   3.004   0.338  0.5626  0.0429 -0.2820
 4755TIP3    H135900   4.847   3.052   0.255  0.6677  0.0114 -0.3002
 4755TIP3    H235901   4.790   2.928   0.322  1.8430 -0.8338 -0.8280
 4756TIP3   OH235902   5.618   5.208   0.192 -0.0693 -0.3148  0.4785
 4756TIP3    H135903   5.636   5.154   0.268 -2.0056 -1.3679  0.2402
 4756TIP3    H235904   5.523   5.213   0.188 -0.0520 -0.7918 -2.2004
 4757TIP3   OH235905   4.702   5.828   7.787  0.0619  0.3893 -1.1575
 4757TIP3    H135906   4.765   5.855   7.853  0.5399 -1.1006 -0.9784
 4757TIP3    H235907   4.745   5.849   7.703  0.5946 -0.1625 -1.0284
 4758TIP3   OH235908   3.313   4.930   7.561  0.8726 -0.0337 -0.6435
 4758TIP3    H135909   3.337   4.849   7.516  1.0766 -1.0782  1.2187
 4758TIP3    H235910   3.366   4.929   7.641  0.6404  1.8027 -0.4160
 4759TIP3   OH235911   0.487   6.431   7.658 -0.3985 -0.5100  0.2168
 4759TIP3    H135912   0.577   6.413   7.630 -0.0539  2.2131 -0.7253
 4759TIP3    H235913   0.484   6.400   7.749  1.6457 -0.2435  0.4237
 4760TIP3   OH235914   2.493   6.094   0.465 -0.1750 -0.3427  0.1063
 4760TIP3    H135915   2.512   6.018   0.520  1.0918 -0.0840  0.0724
 4760TIP3    H235916   2.416   6.134   0.504 -0.8464 -1.6249  0.1436
 4761TIP3   OH235917   3.454   5.186   3.037  0.2642 -0.2182  0.1986
 4761TIP3    H135918   3.358   5.192   3.041  0.3519  0.7694  1.3113
 4761TIP3    H235919   3.476   5.212   2.948 -0.3480  2.2366  0.6992
 4762TIP3   OH235920   1.936   5.814   0.725  0.1461  0.8445  0.1183
 4762TIP3    H135921   1.913   5.815   0.632  0.7854 -0.5132 -0.0903
 4762TIP3    H235922   1.854   5.833   0.770 -0.7785 -0.9394 -0.6804
 4763TIP3   OH235923   4.428   5.168   7.816 -0.3616 -0.0534 -0.6780
 4763TIP3    H135924   4.384   5.251   7.798 -1.9116 -0.3855  1.1763
 4763TIP3    H235925   4.392   5.107   7.751 -0.9016  0.2389 -0.6594
 4764TIP3   OH235926   5.644   1.804   6.676 -0.4212  0.0301  0.2727
 4764TIP3    H135927   5.567   1.806   6.619  0.4378  0.8385 -0.9109
 4764TIP3    H235928   5.651   1.713   6.704 -0.3552 -0.6021 -1.6770
 4765TIP3   OH235929   5.562   6.908   0.436  0.0280  0.4252  0.5040
 4765TIP3    H135930   5.520   6.994   0.447  0.8324  0.9694 -0.5427
 4765TIP3    H235931   5.531   6.877   0.351 -1.2222 -0.9121  1.3946
 4766TIP3   OH235932   2.524   4.421   3.097  0.3735  0.2200  0.0820
 4766TIP3    H135933   2.518   4.504   3.050  2.6345 -0.8076 -2.2814
 4766TIP3    H235934   2.603   4.430   3.151 -0.5674  0.3151  1.4940
 4767TIP3   OH235935   0.513   3.321   1.551 -0.3397 -0.1605  0.3366
 4767TIP3    H135936   0.552   3.321   1.638 -0.5742 -0.8884  0.4425
 4767TIP3    H235937   0.419   3.336   1.566 -0.1816  1.2325  0.1048
 4768TIP3   OH235938   6.331   0.131   7.050 -0.4944 -0.4337 -0.3154
 4768TIP3    H135939   6.256   0.109   7.105 -0.1931  0.1482  0.3519
 4768TIP3    H235940   6.334   0.227   7.051 -0.3111 -0.4186 -1.1226
 4769TIP3   OH235941   3.392   2.550   1.471 -0.1744  0.1659 -0.0423
 4769TIP3    H135942   3.390   2.468   1.520 -1.4638  0.0133 -0.2977
 4769TIP3    H235943   3.471   2.545   1.418 -0.4475 -1.1178 -0.3723
 4770TIP3   OH235944   1.888   6.659   0.642 -0.3134  0.4708  0.3984
 4770TIP3    H135945   1.891   6.695   0.554  0.1173  0.0003  0.2142
 4770TIP3    H235946   1.978   6.629   0.659 -0.6396 -0.4260  0.5782
 4771TIP3   OH235947   2.009   1.873   1.955  0.2798  0.3384 -0.1288
 4771TIP3    H135948   1.944   1.909   2.014 -1.7726 -2.1085 -0.7134
 4771TIP3    H235949   1.968   1.876   1.868  0.7824 -1.4660 -0.4790
 4772TIP3   OH235950   4.536   3.326   2.437  0.6862  0.2631 -0.1060
 4772TIP3    H135951   4.572   3.327   2.526  0.9242  0.9047 -0.2059
 4772TIP3    H235952   4.590   3.263   2.390  1.5945  1.1118 -0.2159
 4773TIP3   OH235953   3.278   5.684   0.220 -0.0830  0.3307 -1.0856
 4773TIP3    H135954   3.296   5.741   0.145 -0.8870 -0.3196 -1.7792
 4773TIP3    H235955   3.183   5.676   0.222  0.0374 -1.9692 -1.7559
 4774TIP3   OH235956   0.275   6.732   2.527  0.0967  0.1089 -0.5950
 4774TIP3    H135957   0.313   6.809   2.570  1.5898 -2.0339  2.2816
 4774TIP3    H235958   0.349   6.690   2.484 -0.5080 -0.3130 -1.2525
 4775TIP3   OH235959   0.649   4.872   1.264 -1.4059 -0.3344  0.1864
 4775TIP3    H135960   0.707   4.798   1.247  0.8697  1.1604  1.0391
 4775TIP3    H235961   0.605   4.887   1.180  1.7777  0.3785 -1.5206
 4776TIP3   OH235962   1.376   6.343   0.942 -0.0316  0.3107  0.0085
 4776TIP3    H135963   1.290   6.308   0.967 -0.3184  1.1865  0.2824
 4776TIP3    H235964   1.358   6.401   0.868  0.4576 -0.1921 -0.5221
 4777TIP3   OH235965   6.328   1.378   6.765 -0.3654  0.4270  0.4527
 4777TIP3    H135966   6.420   1.404   6.760 -0.5242  1.3494  1.6806
 4777TIP3    H235967   6.306   1.347   6.678  1.4114 -0.8419  0.4124
 4778TIP3   OH235968   5.155   6.403   2.398  0.5242  0.2295 -0.6323
 4778TIP3    H135969   5.074   6.386   2.349  0.0968  0.5739 -0.0656
 4778TIP3    H235970   5.128   6.397   2.490  1.3898 -0.7905 -0.4281
 4779TIP3   OH235971   5.008   1.995   7.624 -0.1075  0.2359 -0.3814
 4779TIP3    H135972   5.101   2.016   7.616 -0.1089  1.0785  1.2736
 4779TIP3    H235973   5.007   1.903   7.653  0.1017 -0.4015 -2.2639
 4780TIP3   OH235974   6.743   5.747   0.662  0.0035 -0.2555 -0.0844
 4780TIP3    H135975   6.671   5.772   0.720 -0.7478 -1.2561 -0.5314
 4780TIP3    H235976   6.700   5.696   0.592  1.2551 -1.7790  0.1948
 4781TIP3   OH235977   4.483   0.155   0.645 -0.3466 -0.2393  0.3467
 4781TIP3    H135978   4.533   0.080   0.612 -0.2359 -0.6509  1.4023
 4781TIP3    H235979   4.548   0.225   0.654 -0.7602  0.6142 -2.3659
 4782TIP3   OH235980   6.419   5.347   0.381  0.2485 -0.0674 -0.3362
 4782TIP3    H135981   6.426   5.341   0.286 -2.9747  1.7417 -0.8484
 4782TIP3    H235982   6.353   5.415   0.396 -1.1912 -1.9375  3.1013
 4783TIP3   OH235983   4.455   5.462   0.773 -0.0114 -0.0673 -0.6367
 4783TIP3    H135984   4.469   5.534   0.835 -3.1728 -1.1652  1.5813
 4783TIP3    H235985   4.371   5.482   0.731 -1.1161 -2.4759  0.2383
 4784TIP3   OH235986   1.353   1.480   0.918 -0.1858 -0.2548 -0.2138
 4784TIP3    H135987   1.345   1.385   0.912 -0.0285 -0.3794  1.2047
 4784TIP3    H235988   1.263   1.512   0.922 -0.3552 -0.1019 -3.0917
 4785TIP3   OH235989   3.136   3.244   7.808 -0.4318  0.2682  0.0931
 4785TIP3    H135990   3.067   3.310   7.807 -1.2135 -0.5253 -1.5320
 4785TIP3    H235991   3.185   3.259   7.727 -0.4832 -0.9885 -0.1850
 4786TIP3   OH235992   3.990   5.720   2.293  0.3812 -0.5174  0.3982
 4786TIP3    H135993   3.978   5.726   2.198 -0.4353 -0.3379  0.5031
 4786TIP3    H235994   4.039   5.639   2.306 -0.4319 -1.0992 -0.1124
 4787TIP3   OH235995   3.866   1.913   0.995  0.2744  0.3173 -0.3425
 4787TIP3    H135996   3.962   1.910   0.986  0.1891 -2.1768 -1.0670
 4787TIP3    H235997   3.852   1.932   1.088  1.4747  0.9814 -0.2817
 4788TIP3   OH235998   4.272   0.071   2.833  0.2713 -0.0292 -0.6492
 4788TIP3    H135999   4.268   0.054   2.928  1.8690 -2.3505 -0.9039
 4788TIP3    H236000   4.353   0.120   2.821  0.7769 -0.9138 -0.9234
 4789TIP3   OH236001   3.887   2.154   1.546 -0.1786 -0.2906  0.7062
 4789TIP3    H136002   3.976   2.179   1.571  0.6924 -2.1714 -0.3684
 4789TIP3    H236003   3.870   2.073   1.594 -0.6602 -0.8506 -0.3907
 4790TIP3   OH236004   3.239   5.254   1.847  0.1620  0.5710 -0.1379
 4790TIP3    H136005   3.315   5.301   1.815 -0.1667  1.7039  0.6729
 4790TIP3    H236006   3.259   5.162   1.833  1.6496  0.8565  0.0117
 4791TIP3   OH236007   1.406   3.364   7.861 -0.1169 -0.0797  0.0674
 4791TIP3    H136008   1.331   3.310   7.834  0.2031 -0.3341 -0.3233
 4791TIP3    H236009   1.483   3.312   7.838  0.1788 -0.0284  0.9176
 4792TIP3   OH236010   5.078   3.437   0.595  0.0899  0.1860 -0.6277
 4792TIP3    H136011   5.108   3.495   0.525  1.3601 -1.5056 -1.5644
 4792TIP3    H236012   5.008   3.385   0.553 -0.3371  0.3342 -0.1075
 4793TIP3   OH236013   2.278   4.826   1.096  0.3849  0.9459 -0.4239
 4793TIP3    H136014   2.200   4.780   1.066  0.6790  0.5071 -0.5245
 4793TIP3    H236015   2.253   4.866   1.179 -0.1834  1.4671 -0.8361
 4794TIP3   OH236016   6.605   0.723   0.632 -0.2394  0.0406 -0.2296
 4794TIP3    H136017   6.613   0.804   0.580  0.1165  0.8402  1.0387
 4794TIP3    H236018   6.689   0.714   0.675 -0.3089 -0.9875 -0.2904
 4795TIP3   OH236019   6.278   6.864   0.290 -0.6338  0.4544  0.3210
 4795TIP3    H136020   6.253   6.868   0.382 -1.5364  0.8498  0.0716
 4795TIP3    H236021   6.242   6.944   0.252  0.2469  0.5899 -0.2582
 4796TIP3   OH236022   0.094   1.704   1.536  0.0111 -0.0818 -0.3802
 4796TIP3    H136023   0.162   1.684   1.471  0.5163 -0.7070  0.3277
 4796TIP3    H236024   0.086   1.799   1.534 -1.5373 -0.1716 -2.9185
 4797TIP3   OH236025   6.355   2.443   2.914 -0.3835  0.0556 -0.1098
 4797TIP3    H136026   6.276   2.397   2.884 -2.0379  2.6386  0.0445
 4797TIP3    H236027   6.332   2.535   2.914  3.0961  1.1055 -1.3517
 4798TIP3   OH236028   6.806   4.149   0.372  0.7178  0.2675 -0.1399
 4798TIP3    H136029   6.748   4.160   0.296 -1.0853  0.0676  1.1218
 4798TIP3    H236030   6.841   4.237   0.388 -0.7270  0.8397  0.1350
 4799TIP3   OH236031   3.212   3.746   1.717  0.3169 -0.2219  0.2999
 4799TIP3    H136032   3.226   3.695   1.797  0.5226  0.3034  0.6004
 4799TIP3    H236033   3.119   3.769   1.719  0.6584  1.1981  1.2440
 4800TIP3   OH236034   5.953   4.139   1.006 -0.2220 -0.1191  0.0032
 4800TIP3    H136035   5.960   4.199   0.932 -0.7267 -1.0603 -0.8342
 4800TIP3    H236036   5.865   4.102   0.998 -0.5387  0.2630  1.4771
 4801TIP3   OH236037   3.490   3.648   1.931  0.2392  0.1139  0.4944
 4801TIP3    H136038   3.518   3.605   1.850  0.7355  0.3534  0.5317
 4801TIP3    H236039   3.530   3.596   2.001 -0.6635 -0.4351  0.6182
 4802TIP3   OH236040   2.396   4.248   8.416  0.2702 -0.3604  0.6362
 4802TIP3    H136041   2.305   4.220   8.404  0.1187  0.5394 -0.5830
 4802TIP3    H236042   2.448   4.170   8.398 -0.1783 -0.1879 -1.7622
 4803TIP3   OH236043   2.744   6.276   1.446 -0.5828  0.5714  0.2039
 4803TIP3    H136044   2.834   6.260   1.472  0.1633  1.7594 -1.4533
 4803TIP3    H236045   2.728   6.367   1.469 -0.2882  1.2979 -2.1871
 4804TIP3   OH236046   0.421   3.188   0.875  0.3150 -0.0233  0.2357
 4804TIP3    H136047   0.500   3.147   0.839 -0.1352 -0.1442 -0.6598
 4804TIP3    H236048   0.438   3.196   0.968  1.6236  0.4564 -0.0130
 4805TIP3   OH236049   4.526   1.596   1.726 -0.6084  0.1351 -0.0842
 4805TIP3    H136050   4.512   1.627   1.816 -1.6759  0.0395 -0.2045
 4805TIP3    H236051   4.470   1.519   1.718  0.8386 -0.9405 -0.2862
 4806TIP3   OH236052   2.566   3.547   1.138 -0.5438  0.0532  0.1235
 4806TIP3    H136053   2.496   3.484   1.120 -0.5034  0.1496 -0.3859
 4806TIP3    H236054   2.523   3.617   1.188 -1.0119  0.5271 -0.9124
 4807TIP3   OH236055   2.409   1.882   0.249 -0.1079 -0.3868  0.0188
 4807TIP3    H136056   2.408   1.954   0.312 -0.1741 -1.6492  1.5136
 4807TIP3    H236057   2.486   1.831   0.272 -0.0488 -0.8147 -1.0336
 4808TIP3   OH236058   2.946   1.611   0.762 -0.2892  0.4431  0.4740
 4808TIP3    H136059   2.937   1.538   0.701  1.1395  0.9119 -0.3509
 4808TIP3    H236060   2.929   1.573   0.848 -0.5678 -0.6334 -0.0368
 4809TIP3   OH236061   4.920   3.496   0.825 -0.1001 -0.5854  0.3839
 4809TIP3    H136062   4.975   3.546   0.764  0.5023 -2.4746 -0.7058
 4809TIP3    H236063   4.939   3.405   0.805 -1.6600 -1.2846  1.8401
 4810TIP3   OH236064   6.151   1.520   2.665 -0.2988  0.3241  0.0688
 4810TIP3    H136065   6.135   1.427   2.651  1.3526 -0.0431  0.3871
 4810TIP3    H236066   6.064   1.560   2.666 -1.0432 -1.2356  0.1355
 4811TIP3   OH236067   2.745   2.138   8.530  0.0288  0.2731 -0.4935
 4811TIP3    H136068   2.770   2.119   8.440  1.7752 -0.0010  0.0146
 4811TIP3    H236069   2.791   2.073   8.583 -1.4808  0.0127  0.5717
 4812TIP3   OH236070   3.996   3.331   0.136  0.5765  0.2513 -0.7497
 4812TIP3    H136071   4.035   3.404   0.184  3.1379 -0.7371 -1.1724
 4812TIP3    H236072   3.931   3.294   0.195  1.4891  0.9370  0.7327
 4813TIP3   OH236073   1.165   4.357   7.741 -0.2204 -0.3009  0.3377
 4813TIP3    H136074   1.130   4.409   7.669 -1.4052  0.0182  1.1258
 4813TIP3    H236075   1.093   4.350   7.804  1.0816  0.2628  1.9553
 4814TIP3   OH236076   6.728   6.661   0.098  0.3063 -0.1169 -0.0820
 4814TIP3    H136077   6.798   6.727   0.091  0.2409 -0.0347  0.0303
 4814TIP3    H236078   6.652   6.711   0.127  0.2062 -0.2115 -0.1805
 4815TIP3   OH236079   3.949   1.972   2.906 -0.1734 -0.2376  0.2774
 4815TIP3    H136080   3.956   1.914   2.830  2.0417  0.5928 -0.2195
 4815TIP3    H236081   3.920   1.915   2.977 -0.9962 -1.3049 -0.8701
 4816TIP3   OH236082   1.074   1.609   0.586 -0.0820  0.4068  0.2243
 4816TIP3    H136083   1.072   1.574   0.497  0.8630 -0.4750  0.5291
 4816TIP3    H236084   0.998   1.667   0.591 -1.9493 -1.8561 -0.2140
 4817TIP3   OH236085   2.131   5.788   2.987 -0.1857  0.6380  0.7425
 4817TIP3    H136086   2.054   5.733   2.976 -0.0845  0.4432  0.9910
 4817TIP3    H236087   2.191   5.759   2.919  0.1872 -0.1220  1.3800
 4818TIP3   OH236088   6.105   4.358   0.868 -0.0694  0.0671  0.1109
 4818TIP3    H136089   6.192   4.398   0.858  0.5136 -0.9996  0.6939
 4818TIP3    H236090   6.052   4.401   0.801  0.5824  1.5932  0.5218
 4819TIP3   OH236091   5.897   6.914   0.643  0.3745 -0.0166  0.2322
 4819TIP3    H136092   5.818   6.870   0.611  0.6440 -2.3187  2.4515
 4819TIP3    H236093   5.882   6.927   0.736  2.7039 -0.7861  0.7761
 4820TIP3   OH236094   6.484   0.202   6.382  0.0231  0.0426 -0.0137
 4820TIP3    H136095   6.574   0.229   6.400  0.2103 -0.0875 -0.7502
 4820TIP3    H236096   6.492   0.124   6.328 -0.5395  0.4004 -0.6301
 4821TIP3   OH236097   3.542   0.090   0.191  0.2385 -0.3409  0.2399
 4821TIP3    H136098   3.601   0.101   0.116  0.0507 -0.7013  0.0402
 4821TIP3    H236099   3.544  -0.004   0.209 -0.8872 -0.4698 -0.2627
 4822TIP3   OH236100   5.823   6.785   8.393  0.1144  0.6110 -0.6787
 4822TIP3    H136101   5.880   6.713   8.367  0.4372  0.8442 -0.6228
 4822TIP3    H236102   5.848   6.857   8.336 -1.2888  0.2284 -1.8290
 4823TIP3   OH236103   4.475   4.581   8.177 -0.0640 -0.1752  0.6910
 4823TIP3    H136104   4.494   4.631   8.256 -2.1865 -1.4295  2.1070
 4823TIP3    H236105   4.468   4.646   8.108 -0.8976  1.3000  2.1001
 4824TIP3   OH236106   6.119   5.706   2.928  0.2913  0.1602 -0.3524
 4824TIP3    H136107   6.124   5.615   2.957 -0.7708  0.1399 -0.2026
 4824TIP3    H236108   6.171   5.754   2.993  1.2729 -0.3825 -0.7127
 4825TIP3   OH236109   0.892   3.458   1.572  0.7059  0.4538 -0.3966
 4825TIP3    H136110   0.837   3.525   1.530  1.6247  0.5860 -1.4498
 4825TIP3    H236111   0.900   3.487   1.663 -0.1689  0.9471 -0.4701
 4826TIP3   OH236112   1.820   6.383   0.493 -0.4436  0.4015  0.2668
 4826TIP3    H136113   1.872   6.450   0.449 -0.3968  0.1624 -0.0453
 4826TIP3    H236114   1.730   6.416   0.489 -0.2159  1.2490  1.6065
 4827TIP3   OH236115   0.382   4.251   7.345 -0.4861 -0.2151  0.3382
 4827TIP3    H136116   0.446   4.198   7.393 -0.4858 -0.2458  0.3034
 4827TIP3    H236117   0.414   4.341   7.355 -1.0495 -0.1089  1.2742
 4828TIP3   OH236118   6.779   1.039   1.413  0.5349 -0.2900 -0.4209
 4828TIP3    H136119   6.804   1.010   1.325  1.1629  1.5463 -0.8819
 4828TIP3    H236120   6.738   1.124   1.400 -1.1995 -0.8577  0.8892
 4829TIP3   OH236121   1.817   5.660   7.826 -0.0295  0.5207  0.7474
 4829TIP3    H136122   1.778   5.586   7.872  0.5552  0.3155  0.9225
 4829TIP3    H236123   1.867   5.620   7.755 -0.6731  0.8187  0.1146
 4830TIP3   OH236124   3.650   0.790   8.147  0.2210  0.5179 -0.1865
 4830TIP3    H136125   3.674   0.802   8.055  1.6575  2.5717  0.3809
 4830TIP3    H236126   3.727   0.821   8.196 -0.6068 -0.2719  1.7166
 4831TIP3   OH236127   1.003   1.326   0.628 -0.2597  0.4247 -0.1712
 4831TIP3    H136128   1.031   1.333   0.719  1.3437  0.1968 -0.6144
 4831TIP3    H236129   0.908   1.336   0.631 -0.2430  0.3426  1.5290
 4832TIP3   OH236130   4.629   3.597   1.410  0.5714 -0.3891 -0.4323
 4832TIP3    H136131   4.611   3.519   1.461 -0.1113  0.4783  0.7127
 4832TIP3    H236132   4.675   3.655   1.470  0.6542  0.2736 -1.1152
 4833TIP3   OH236133   6.591   3.853   6.804  0.0652 -0.0034 -0.5115
 4833TIP3    H136134   6.588   3.903   6.722 -0.1223 -0.7646 -0.9739
 4833TIP3    H236135   6.685   3.847   6.825  0.0781  0.7440 -0.3175
 4834TIP3   OH236136   5.845   5.649   7.906 -0.2009 -0.1149  0.2590
 4834TIP3    H136137   5.935   5.668   7.934 -0.5167  0.7182  0.7399
 4834TIP3    H236138   5.828   5.711   7.835 -0.4461 -0.1695  0.2688
 4835TIP3   OH236139   3.657   4.011   1.729 -0.3883  0.2674  0.7574
 4835TIP3    H136140   3.744   4.009   1.690 -0.5902  0.3206  0.3072
 4835TIP3    H236141   3.671   3.978   1.818 -0.4496 -3.2092 -0.3732
 4836TIP3   OH236142   6.790   2.343   8.549  0.1931  0.1766 -0.5130
 4836TIP3    H136143   6.785   2.272   8.613 -0.7514  0.2046 -0.5449
 4836TIP3    H236144   6.791   2.299   8.464  1.2743  0.1472 -0.5027
 4837TIP3   OH236145   2.657   4.014   1.696 -0.4598 -0.0500  0.0163
 4837TIP3    H136146   2.631   4.017   1.604  1.8569 -2.3530 -0.8598
 4837TIP3    H236147   2.734   4.071   1.701 -0.3817 -0.1899  0.4527
 4838TIP3   OH236148   3.944   0.093   7.922  0.0835  0.0721 -0.5242
 4838TIP3    H136149   3.879   0.154   7.955  0.5699 -0.1077  0.8457
 4838TIP3    H236150   3.904   0.055   7.844 -1.1820  0.4281 -0.0788
 4839TIP3   OH236151   3.778   5.967   8.483  0.4994  0.1033  0.1921
 4839TIP3    H136152   3.726   5.994   8.558 -0.0135  1.2575 -0.5502
 4839TIP3    H236153   3.864   6.006   8.497  0.2843  0.6510 -0.0171
 4840TIP3   OH236154   3.502   5.559   1.349  0.5273 -0.0662  0.5074
 4840TIP3    H136155   3.446   5.503   1.295 -1.7479 -0.1041  2.7319
 4840TIP3    H236156   3.540   5.499   1.413 -1.0688  0.6673  2.2251
 4841TIP3   OH236157   5.516   2.082   6.740 -0.0766 -0.0062  0.3709
 4841TIP3    H136158   5.467   2.037   6.671 -0.5250  1.3730 -0.2322
 4841TIP3    H236159   5.450   2.105   6.805 -0.2263  1.5923 -0.3044
 4842TIP3   OH236160   1.742   2.227   7.687  0.4330 -0.8576 -0.4645
 4842TIP3    H136161   1.757   2.218   7.593  0.0791 -1.7504 -0.4444
 4842TIP3    H236162   1.825   2.260   7.722  0.2865  0.3340 -1.2024
 4843TIP3   OH236163   4.237   5.507   2.552  0.6176 -0.1022  0.2709
 4843TIP3    H136164   4.235   5.517   2.648 -3.1485 -1.9265  0.5505
 4843TIP3    H236165   4.268   5.418   2.539 -0.4141 -0.4248 -0.0670
 4844TIP3   OH236166   1.578   0.881   8.403 -0.0985  0.7453  0.1984
 4844TIP3    H136167   1.550   0.948   8.341 -2.1229  0.0490  0.3025
 4844TIP3    H236168   1.519   0.891   8.478 -0.0456 -0.7571  0.4654
 4845TIP3   OH236169   3.735   3.874   2.730 -0.0366  0.3905  0.5556
 4845TIP3    H136170   3.812   3.919   2.696 -0.3860  0.5258 -0.0818
 4845TIP3    H236171   3.768   3.788   2.758  0.3899  0.5423  0.5208
 4846TIP3   OH236172   5.745   3.824   0.342  1.2032 -0.3242  0.0394
 4846TIP3    H136173   5.764   3.739   0.302 -0.3326 -0.3702 -0.6300
 4846TIP3    H236174   5.729   3.883   0.269  0.0509  0.0020  0.5350
 4847TIP3   OH236175   2.201   1.951   1.708 -0.2134  0.2764 -0.1615
 4847TIP3    H136176   2.109   1.928   1.710  0.2380 -1.7858 -0.5281
 4847TIP3    H236177   2.232   1.935   1.797  0.3469 -1.7996 -0.6814
 4848TIP3   OH236178   0.682   6.895   7.317  0.5824 -0.1748 -0.2389
 4848TIP3    H136179   0.627   6.825   7.353 -2.8029  2.3243 -0.0957
 4848TIP3    H236180   0.667   6.890   7.222  1.8768 -0.7916 -0.4264
 4849TIP3   OH236181   2.083   2.753   0.223 -0.4930 -0.4699 -0.1848
 4849TIP3    H136182   2.010   2.732   0.165 -1.9613  2.1343  0.5817
 4849TIP3    H236183   2.041   2.777   0.306  1.2984 -0.0188  0.6272
 4850TIP3   OH236184   3.536   2.091   2.153 -0.6141 -0.7594 -0.8108
 4850TIP3    H136185   3.468   2.154   2.132 -0.0170  0.1086 -0.2210
 4850TIP3    H236186   3.573   2.122   2.236 -0.3643 -1.9318 -0.4678
 4851TIP3   OH236187   1.372   0.324   1.841 -0.6576 -0.3772  0.6251
 4851TIP3    H136188   1.429   0.399   1.862  0.3987 -0.6366 -1.0896
 4851TIP3    H236189   1.285   0.362   1.832  0.0862  0.9779 -1.6601
 4852TIP3   OH236190   2.662   0.213   0.824 -0.1988  0.2530  0.2806
 4852TIP3    H136191   2.742   0.261   0.846  0.3044 -1.1232  1.6087
 4852TIP3    H236192   2.592   0.261   0.869  0.3360 -0.3413  1.8221
 4853TIP3   OH236193   2.590   1.700   0.362 -0.1820 -0.3022 -0.0192
 4853TIP3    H136194   2.574   1.699   0.456 -0.7302 -0.2133 -0.1098
 4853TIP3    H236195   2.661   1.636   0.349 -0.3436 -0.5737  0.4099
 4854TIP3   OH236196   0.732   1.605   7.655 -0.3981 -0.2002  0.9203
 4854TIP3    H136197   0.706   1.642   7.571  2.5163  1.5817  0.6804
 4854TIP3    H236198   0.743   1.512   7.637 -0.2516  0.0806 -0.5375
 4855TIP3   OH236199   4.406   2.255   7.824 -0.5994  0.0312  0.0021
 4855TIP3    H136200   4.426   2.208   7.743 -0.4953 -0.7114  0.4478
 4855TIP3    H236201   4.490   2.293   7.851 -0.2805 -1.0488  0.5869
 4856TIP3   OH236202   6.208   1.068   0.513  0.1101 -0.5339  0.3774
 4856TIP3    H136203   6.163   1.144   0.476 -0.7676 -1.0320  0.3992
 4856TIP3    H236204   6.218   1.088   0.606 -2.0669 -1.3321  0.8360
 4857TIP3   OH236205   2.993   5.193   1.744 -0.3962  0.1787 -0.5290
 4857TIP3    H136206   3.072   5.222   1.789 -0.8921 -0.7688  1.0431
 4857TIP3    H236207   2.934   5.268   1.747 -1.8251 -0.8625  3.8550
 4858TIP3   OH236208   6.170   6.778   7.732 -0.0272 -0.0337 -0.2274
 4858TIP3    H136209   6.119   6.783   7.651  1.1048  1.7506 -0.8949
 4858TIP3    H236210   6.194   6.686   7.738  0.1080 -0.1805 -2.1235
 4859TIP3   OH236211   5.671   6.554   1.108  0.3734 -0.0655 -0.8114
 4859TIP3    H136212   5.660   6.555   1.013  1.0303 -0.8415 -0.9062
 4859TIP3    H236213   5.743   6.494   1.124 -0.4618 -0.8441  0.2519
 4860TIP3   OH236214   4.979   1.146   7.954 -0.0556 -0.0458  0.8649
 4860TIP3    H136215   4.919   1.076   7.930 -0.1784  0.2867  0.1757
 4860TIP3    H236216   5.066   1.105   7.950 -0.2227 -0.5203  1.8500
 4861TIP3   OH236217   2.131   5.637   2.248 -0.2549 -0.3934  0.0997
 4861TIP3    H136218   2.062   5.676   2.302 -0.8681 -0.1392 -0.8236
 4861TIP3    H236219   2.206   5.694   2.260 -1.0673  0.9980 -1.0322
 4862TIP3   OH236220   2.037   3.791   0.764 -0.4200  0.3121 -0.6030
 4862TIP3    H136221   1.994   3.848   0.701  1.1741  2.4440  0.1169
 4862TIP3    H236222   2.128   3.788   0.736  0.3793  1.4613  1.5991
 4863TIP3   OH236223   2.480   2.984   7.740  0.2756  0.0655 -0.4526
 4863TIP3    H136224   2.533   2.907   7.760  0.9232  0.5896 -0.1256
 4863TIP3    H236225   2.544   3.052   7.719 -0.2979  0.4655 -0.9209
 4864TIP3   OH236226   5.784   1.005   2.084  0.4977 -0.7921  0.0970
 4864TIP3    H136227   5.708   1.059   2.062  0.1608 -1.7370 -1.1661
 4864TIP3    H236228   5.847   1.067   2.122 -0.2544  0.3120 -0.4012
 4865TIP3   OH236229   2.748   0.227   2.801  0.0336  0.2603  0.2957
 4865TIP3    H136230   2.804   0.275   2.740 -0.8131  0.5808 -0.2377
 4865TIP3    H236231   2.683   0.291   2.830 -1.5064 -0.6817 -0.9098
 4866TIP3   OH236232   1.398   6.293   0.160 -0.0685  0.3046 -0.2890
 4866TIP3    H136233   1.358   6.210   0.134 -1.1263  0.7002  0.0243
 4866TIP3    H236234   1.492   6.280   0.146 -0.2668 -0.7726 -0.7034
 4867TIP3   OH236235   0.036   4.846   1.054  0.2086 -0.1469 -0.2039
 4867TIP3    H136236  -0.060   4.837   1.048  0.0353  1.6116 -0.9590
 4867TIP3    H236237   0.050   4.881   1.142  0.1576 -0.5119 -0.0519
 4868TIP3   OH236238   4.196   0.903   1.266  0.4310 -0.1342 -0.0949
 4868TIP3    H136239   4.225   0.988   1.235  2.0182 -0.3681  0.6374
 4868TIP3    H236240   4.150   0.864   1.192  1.1425  0.6812 -0.9775
 4869TIP3   OH236241   1.002   3.263   1.003 -0.3947  0.0706 -0.1358
 4869TIP3    H136242   1.007   3.346   0.955  0.7696 -0.7496 -1.4859
 4869TIP3    H236243   1.067   3.207   0.961  1.3816 -0.4295  2.9594
 4870TIP3   OH236244   4.283   6.662   1.733  0.1627 -0.4870  0.2889
 4870TIP3    H136245   4.227   6.661   1.655 -0.1088  0.2304  0.4699
 4870TIP3    H236246   4.221   6.655   1.806  0.0613  2.4493  0.6035
 4871TIP3   OH236247   4.125   5.460   2.266 -0.2736  0.4746 -0.0052
 4871TIP3    H136248   4.187   5.444   2.195 -0.2852  0.5219 -0.0257
 4871TIP3    H236249   4.174   5.438   2.345 -0.0579  1.0326  0.0136
 4872TIP3   OH236250   2.129   5.416   0.157 -0.5199  0.1185 -0.0522
 4872TIP3    H136251   2.052   5.396   0.209 -2.5525  0.2463 -2.7891
 4872TIP3    H236252   2.113   5.505   0.124  0.8235  0.1707 -0.6312
 4873TIP3   OH236253   5.400   5.272   6.621 -0.2076  0.0584  0.4419
 4873TIP3    H136254   5.379   5.287   6.528  1.9743 -0.3950 -0.1852
 4873TIP3    H236255   5.421   5.359   6.655  0.9858 -0.0163 -0.0613
 4874TIP3   OH236256   5.228   2.563   0.031 -0.3190 -0.2179  0.2804
 4874TIP3    H136257   5.265   2.621  -0.035 -0.7471 -0.8200 -0.5035
 4874TIP3    H236258   5.155   2.613   0.068  0.0739  0.2165  0.4917
 4875TIP3   OH236259   4.072   2.561   0.031  0.4999  0.4446  0.1790
 4875TIP3    H136260   4.103   2.604   0.110  1.2412  0.7313 -0.2530
 4875TIP3    H236261   4.132   2.487   0.018 -0.0056  0.0233  0.2335
 4876TIP3   OH236262   6.597   6.785   2.018 -0.4672 -0.3566 -0.5712
 4876TIP3    H136263   6.692   6.773   2.011 -0.4823 -0.8380 -0.0454
 4876TIP3    H236264   6.577   6.766   2.110 -0.9088  0.9564 -0.3793
 4877TIP3   OH236265   6.124   4.023   1.840 -0.1413 -0.0245  0.2711
 4877TIP3    H136266   6.067   4.098   1.823  0.8018  0.8719  0.9296
 4877TIP3    H236267   6.204   4.042   1.791 -0.4221 -1.3579 -0.7921
 4878TIP3   OH236268   6.301   0.577   2.257  0.0754 -0.2905 -0.2509
 4878TIP3    H136269   6.229   0.524   2.290  1.1519 -0.5810  1.7379
 4878TIP3    H236270   6.286   0.664   2.294 -0.4259  0.2470 -1.6402
 4879TIP3   OH236271   6.628   0.036   1.500 -0.8738 -0.2767 -0.5679
 4879TIP3    H136272   6.587   0.105   1.447  1.1508 -0.4916 -2.5635
 4879TIP3    H236273   6.647  -0.034   1.438  3.3913  0.2307 -0.1475
 4880TIP3   OH236274   4.967   4.006   0.890  0.1339  0.4034 -0.0175
 4880TIP3    H136275   5.000   3.917   0.875 -1.1548  0.1349 -1.4569
 4880TIP3    H236276   4.975   4.018   0.985  2.4224 -0.3662 -0.0424
 4881TIP3   OH236277   3.369   6.705   7.849 -0.0639  0.9356  0.1173
 4881TIP3    H136278   3.454   6.699   7.892  0.0791  2.0473  0.0118
 4881TIP3    H236279   3.386   6.756   7.770 -0.5051 -0.2776 -0.8024
 4882TIP3   OH236280   4.593   3.349   1.450  0.0771  0.2214 -0.4977
 4882TIP3    H136281   4.498   3.351   1.451  0.0369  2.1369  1.9452
 4882TIP3    H236282   4.618   3.326   1.540  1.8512  1.8876 -0.4959
 4883TIP3   OH236283   4.868   2.376   7.018  0.0264  0.5351  0.2581
 4883TIP3    H136284   4.901   2.411   6.936 -2.2332  1.7327 -0.2057
 4883TIP3    H236285   4.944   2.376   7.076  1.4337  0.6113 -1.5093
 4884TIP3   OH236286   6.280   0.143   2.434 -0.1734  0.4190  0.2417
 4884TIP3    H136287   6.309   0.179   2.351 -1.5520 -0.0960 -0.4953
 4884TIP3    H236288   6.200   0.192   2.455 -0.0107  0.3294  1.1068
 4885TIP3   OH236289   2.066   0.190   8.310 -0.3628 -0.3275 -0.0704
 4885TIP3    H136290   2.134   0.149   8.257  0.8700  0.6919  0.6517
 4885TIP3    H236291   2.035   0.264   8.257  0.0064 -0.0358  0.1143
 4886TIP3   OH236292   0.591   1.008   6.956 -0.3841  0.2743  0.6508
 4886TIP3    H136293   0.540   1.021   7.035 -2.0508 -0.5277 -0.2357
 4886TIP3    H236294   0.555   0.929   6.916  2.0044 -0.7205  0.2675
 4887TIP3   OH236295   0.540   5.670   1.724 -0.1539 -0.3084  0.1831
 4887TIP3    H136296   0.490   5.722   1.661 -1.3329 -1.1827  0.3456
 4887TIP3    H236297   0.631   5.687   1.704 -0.5160  1.0596 -0.3833
 4888TIP3   OH236298   6.562   2.236   0.355 -0.2142  0.0635  0.8186
 4888TIP3    H136299   6.538   2.175   0.286 -1.9348  0.8541  0.6759
 4888TIP3    H236300   6.598   2.181   0.424 -1.1099 -1.0397  0.4322
 4889TIP3   OH236301   1.316   6.426   2.136 -0.7600 -0.1224  0.3166
 4889TIP3    H136302   1.231   6.404   2.099  0.2845 -1.2657 -1.5653
 4889TIP3    H236303   1.356   6.341   2.156  1.0181  0.1991 -1.5123
 4890TIP3   OH236304   5.839   4.667   1.397  0.1782  0.1171  0.5506
 4890TIP3    H136305   5.909   4.730   1.378 -0.2844  0.5824  0.3538
 4890TIP3    H236306   5.773   4.685   1.330  0.3913 -1.1372 -0.0204
 4891TIP3   OH236307   1.429   4.035   8.176 -0.2005  0.3696 -0.1088
 4891TIP3    H136308   1.335   4.027   8.195  0.0418 -1.0141  0.6275
 4891TIP3    H236309   1.435   4.026   8.081 -0.5619 -3.2805  0.0699
 4892TIP3   OH236310   6.737   1.271   0.175  0.3269 -0.0863  0.3458
 4892TIP3    H136311   6.810   1.271   0.113  1.8505 -1.3656  2.0468
 4892TIP3    H236312   6.725   1.179   0.199 -0.9569  0.2558  1.1426
 4893TIP3   OH236313   5.539   0.607   2.107 -0.2265  0.0022 -0.7627
 4893TIP3    H136314   5.544   0.652   2.191  2.0905  1.8677 -1.7616
 4893TIP3    H236315   5.559   0.674   2.042  1.2139 -1.9789 -2.5428
 4894TIP3   OH236316   6.661   2.540   2.056  0.2645 -0.2137  0.1777
 4894TIP3    H136317   6.691   2.491   1.980  0.9470  3.3291 -2.0880
 4894TIP3    H236318   6.737   2.590   2.084 -0.9765  1.5382  0.5929
 4895TIP3   OH236319   3.638   5.104   2.291 -0.1457 -1.3183 -0.6539
 4895TIP3    H136320   3.676   5.041   2.230 -0.8692  0.4164 -3.0457
 4895TIP3    H236321   3.543   5.090   2.285 -0.2037 -2.1687  1.3558
 4896TIP3   OH236322   0.711   3.738   1.696  0.0640 -0.1572  0.7685
 4896TIP3    H136323   0.693   3.670   1.630  0.2610  0.9391 -0.4534
 4896TIP3    H236324   0.629   3.786   1.704  0.0045 -0.3543  1.4348
 4897TIP3   OH236325   6.883   3.222   1.891  0.2877  0.1591 -0.0681
 4897TIP3    H136326   6.916   3.168   1.819  0.9596  1.9613 -1.2196
 4897TIP3    H236327   6.950   3.291   1.900 -0.8369  1.1669  0.8461
 4898TIP3   OH236328   5.938   4.654   0.270 -0.5753  0.2028  0.4337
 4898TIP3    H136329   6.022   4.619   0.299 -0.5365 -0.2916 -0.2411
 4898TIP3    H236330   5.959   4.704   0.191 -0.9870 -0.4163 -0.0792
 4899TIP3   OH236331   5.435   0.105   2.996 -0.1160  0.2374 -0.8233
 4899TIP3    H136332   5.471   0.090   3.083  0.6514 -0.3416 -1.2266
 4899TIP3    H236333   5.366   0.040   2.987 -0.2125  0.3155 -0.6347
 4900TIP3   OH236334   6.147   5.183   2.002  0.4021  0.6048  0.1544
 4900TIP3    H136335   6.102   5.260   1.968  0.9929  0.7038 -0.4232
 4900TIP3    H236336   6.234   5.214   2.027  0.5724  0.1704  0.1158
 4901TIP3   OH236337   1.815   1.666   7.951  0.2331  0.0478  0.3127
 4901TIP3    H136338   1.784   1.755   7.966 -0.1850 -0.1996  0.9407
 4901TIP3    H236339   1.893   1.658   8.006  1.8619  0.8794 -1.7403
 4902TIP3   OH236340   2.152   2.423   2.046  0.2059  0.6065  0.1567
 4902TIP3    H136341   2.170   2.492   1.981  0.0240  0.4986 -0.0106
 4902TIP3    H236342   2.060   2.434   2.067 -0.4166 -0.9233 -1.4802
 4903TIP3   OH236343   3.937   1.176   0.147  0.6469 -0.1057  0.3782
 4903TIP3    H136344   4.005   1.201   0.210  2.9096 -0.3229 -1.8243
 4903TIP3    H236345   3.929   1.081   0.156  2.4310 -0.4423 -0.8911
 4904TIP3   OH236346   5.490   4.670   6.741  0.3689 -0.0062  0.3191
 4904TIP3    H136347   5.474   4.582   6.777  1.0397 -0.0498  0.5265
 4904TIP3    H236348   5.503   4.725   6.818  0.7360  0.1176  0.1693
 4905TIP3   OH236349   1.882   6.644   2.586 -0.0759  0.3248 -0.0830
 4905TIP3    H136350   1.792   6.629   2.556 -0.0500  0.1780 -0.0889
 4905TIP3    H236351   1.879   6.624   2.680 -0.1669  0.8267  0.0209
 4906TIP3   OH236352   2.607   5.624   0.905  0.4589  0.4546  0.1341
 4906TIP3    H136353   2.602   5.719   0.913  0.2844  0.3621  1.3845
 4906TIP3    H236354   2.617   5.593   0.995  0.1452 -0.7343 -0.2197
 4907TIP3   OH236355   4.673   0.001   0.508 -0.1863 -1.2148 -0.0927
 4907TIP3    H136356   4.727  -0.073   0.480  2.3784  0.2506  0.6135
 4907TIP3    H236357   4.698   0.014   0.600 -1.5560 -0.2483  0.1661
 4908TIP3   OH236358   4.138   4.360   7.655 -0.0813 -0.3204 -0.5803
 4908TIP3    H136359   4.065   4.370   7.594  0.0258 -1.4337 -0.9186
 4908TIP3    H236360   4.199   4.429   7.631 -0.1944 -0.5359 -1.5263
 4909TIP3   OH236361   3.036   4.798   7.620 -0.0641  0.3734  0.1231
 4909TIP3    H136362   3.107   4.863   7.620 -1.2601  1.7237  0.7042
 4909TIP3    H236363   2.981   4.823   7.546  0.6861 -1.4317 -1.1083
 4910TIP3   OH236364   0.216   6.866   8.446 -0.1070 -0.1158 -0.1890
 4910TIP3    H136365   0.155   6.889   8.377  1.3419  0.8920 -1.1776
 4910TIP3    H236366   0.202   6.772   8.460 -1.3601 -0.0471 -0.8727
 4911TIP3   OH236367   0.094   3.284   1.264  0.2584 -0.1013 -0.2132
 4911TIP3    H136368   0.133   3.217   1.207 -0.8635 -0.8189 -0.1733
 4911TIP3    H236369   0.024   3.238   1.311  0.6702  0.6548  1.2093
 4912TIP3   OH236370   6.511   0.667   2.098 -0.0538  0.2540  0.0302
 4912TIP3    H136371   6.454   0.632   2.166  0.0859 -0.8851 -0.4186
 4912TIP3    H236372   6.594   0.683   2.142  0.0339 -0.4771  0.1451
 4913TIP3   OH236373   1.932   2.650   1.214  0.5398 -0.0935  0.3686
 4913TIP3    H136374   1.879   2.727   1.235  0.3199 -0.4794  1.2288
 4913TIP3    H236375   1.966   2.621   1.298  1.1729 -0.5446 -0.0387
 4914TIP3   OH236376   4.544   5.464   0.083 -0.1927  0.2280 -0.2288
 4914TIP3    H136377   4.613   5.516   0.123 -0.4210 -1.0748  2.0253
 4914TIP3    H236378   4.486   5.528   0.042  2.4879  1.3431 -2.6367
 4915TIP3   OH236379   2.150   4.530   2.156  0.4942  0.7791 -0.5776
 4915TIP3    H136380   2.118   4.620   2.151  1.3509  1.0949 -0.4499
 4915TIP3    H236381   2.073   4.476   2.137 -0.1975  1.5150  0.0732
 4916TIP3   OH236382   3.558   5.290   8.476  0.0829  0.0469  0.0896
 4916TIP3    H136383   3.504   5.273   8.399 -0.2207  0.7846  0.1285
 4916TIP3    H236384   3.497   5.288   8.550  0.6235 -2.3237  0.5483
 4917TIP3   OH236385   4.443   1.791   8.030 -0.2310  0.7074  0.7740
 4917TIP3    H136386   4.427   1.729   7.959  1.7946 -0.1593  1.0003
 4917TIP3    H236387   4.360   1.838   8.039 -1.1928 -0.5446 -0.7805
 4918TIP3   OH236388   3.321   3.758   0.776  0.2060  0.4709 -0.5015
 4918TIP3    H136389   3.413   3.731   0.771 -0.4422 -1.7797 -1.7302
 4918TIP3    H236390   3.281   3.694   0.834 -0.8048  0.7012 -0.9360
 4919TIP3   OH236391   4.378   5.432   3.233  0.1802  0.1938  0.5762
 4919TIP3    H136392   4.282   5.435   3.224  0.1766  0.7582  0.7561
 4919TIP3    H236393   4.401   5.518   3.269  0.6700 -0.2558  1.3542
 4920TIP3   OH236394   1.976   4.548   0.287  0.6001 -0.4491 -0.3528
 4920TIP3    H136395   1.945   4.607   0.357 -2.0794 -1.6133 -0.4384
 4920TIP3    H236396   2.034   4.487   0.331  2.0909  1.1724  0.0525
 4921TIP3   OH236397   2.128   5.667   0.414  0.2223  0.1420 -0.0661
 4921TIP3    H136398   2.102   5.659   0.322 -1.5109  1.8305  0.2013
 4921TIP3    H236399   2.185   5.744   0.416 -0.0689  0.3494  0.3332
 4922TIP3   OH236400   5.759   0.114   7.485  0.3820 -0.5428 -0.0592
 4922TIP3    H136401   5.664   0.121   7.480  0.4509 -0.3529 -1.1974
 4922TIP3    H236402   5.792   0.195   7.447  1.0055 -0.0731  1.4109
 4923TIP3   OH236403   4.547   6.157   7.623 -0.0892 -0.1231 -0.1769
 4923TIP3    H136404   4.485   6.221   7.656 -0.6265 -1.3368  1.2620
 4923TIP3    H236405   4.533   6.156   7.528 -1.5078  0.3992  0.0090
 4924TIP3   OH236406   0.299   4.660   7.750 -0.0539  0.1888 -0.5340
 4924TIP3    H136407   0.369   4.726   7.758  0.6831 -0.6985  0.6267
 4924TIP3    H236408   0.219   4.708   7.770  0.2253  1.1566 -1.5783
 4925TIP3   OH236409   6.738   0.081   2.349  0.5891  0.1742 -0.3243
 4925TIP3    H136410   6.832   0.096   2.339  0.5581  0.5367 -0.1003
 4925TIP3    H236411   6.698   0.134   2.281  0.6055 -1.1586 -1.4260
 4926TIP3   OH236412   1.927   3.543   8.120  0.1171 -0.0133  0.1850
 4926TIP3    H136413   1.858   3.580   8.176 -0.5004 -0.9965  0.1099
 4926TIP3    H236414   1.959   3.617   8.068 -0.1682  0.6601  0.9589
 4927TIP3   OH236415   5.797   1.713   2.418 -0.2792  0.1615 -0.1957
 4927TIP3    H136416   5.867   1.777   2.430  0.0390 -0.2188 -0.0060
 4927TIP3    H236417   5.747   1.716   2.499 -1.3341  1.4275 -0.8333
 4928TIP3   OH236418   3.935   6.067   7.078 -0.3378 -0.1514  0.3831
 4928TIP3    H136419   3.915   5.976   7.054 -1.2261  0.1467 -0.0499
 4928TIP3    H236420   3.908   6.118   7.002 -1.7939  0.6690  1.4116
 4929TIP3   OH236421   6.378   0.327   0.360 -0.2237  0.1874 -0.5753
 4929TIP3    H136422   6.466   0.295   0.343 -0.1393  0.1358 -0.0379
 4929TIP3    H236423   6.391   0.411   0.405 -0.4365 -0.4965  0.8173
 4930TIP3   OH236424   1.819   6.911   1.817  0.0772  0.5965 -0.3475
 4930TIP3    H136425   1.875   6.835   1.799  0.9206  1.4468 -1.4092
 4930TIP3    H236426   1.741   6.897   1.763  0.8366  1.1483 -1.6160
 4931TIP3   OH236427   5.346   4.153   3.033 -0.4296  0.2096 -0.2007
 4931TIP3    H136428   5.282   4.106   2.980 -0.0931 -0.5706  0.0746
 4931TIP3    H236429   5.364   4.094   3.107  0.9475  0.2102 -0.5219
 4932TIP3   OH236430   6.527   2.868   2.087 -0.2026  0.2905  0.6896
 4932TIP3    H136431   6.598   2.905   2.036 -0.1789  1.6189  1.6280
 4932TIP3    H236432   6.569   2.805   2.146  0.0275  0.2052  0.4324
 4933TIP3   OH236433   2.549   5.654   2.109 -0.1406  0.1464  0.2040
 4933TIP3    H136434   2.641   5.642   2.085 -0.3123 -1.0470  0.0925
 4933TIP3    H236435   2.501   5.637   2.028 -0.5203 -0.3624  0.5319
 4934TIP3   OH236436   0.968   4.409   7.263 -0.5784  0.1428  0.4691
 4934TIP3    H136437   1.008   4.443   7.343 -2.1861 -0.3360  1.5282
 4934TIP3    H236438   0.876   4.396   7.286 -1.1300  0.1862 -1.5339
 4935TIP3   OH236439   3.255   1.920   7.500 -0.7587 -0.5441  0.2254
 4935TIP3    H136440   3.277   1.860   7.429  1.8028 -0.6809  1.0254
 4935TIP3    H236441   3.300   2.002   7.477 -2.6597  0.5081  0.0709
 4936TIP3   OH236442   5.663   0.795   1.943  0.2588  0.2978 -0.1625
 4936TIP3    H136443   5.704   0.862   1.997  2.5996 -1.2837  0.1810
 4936TIP3    H236444   5.736   0.751   1.899 -1.4136  0.3672 -3.3295
 4937TIP3   OH236445   6.868   3.323   2.180 -0.0405  0.1809  0.6830
 4937TIP3    H136446   6.849   3.284   2.094  2.1257 -1.7809  0.9969
 4937TIP3    H236447   6.911   3.406   2.158 -0.5068  0.2274 -0.1126
 4938TIP3   OH236448   5.228   0.860   0.101  0.3264 -0.0863  0.7509
 4938TIP3    H136449   5.212   0.801   0.028 -1.0587  0.3785  0.6609
 4938TIP3    H236450   5.274   0.805   0.166 -1.5963 -1.5161  0.9900
 4939TIP3   OH236451   1.254   5.257   0.592  0.5927  0.3302 -0.0920
 4939TIP3    H136452   1.227   5.212   0.672  2.3636 -0.7830 -0.0582
 4939TIP3    H236453   1.344   5.283   0.609  1.0168  0.0306 -1.7258
 4940TIP3   OH236454   4.974   4.051   1.636 -0.4576  0.5445 -0.0154
 4940TIP3    H136455   5.068   4.070   1.637 -0.4465  0.5046 -0.1795
 4940TIP3    H236456   4.963   3.991   1.562 -0.4204 -0.4597  0.7647
 4941TIP3   OH236457   4.165   0.748   7.645 -0.0562  0.3420  0.2790
 4941TIP3    H136458   4.234   0.758   7.579  0.8592  0.9555  1.3013
 4941TIP3    H236459   4.084   0.745   7.594  0.8156 -2.4661 -1.1067
 4942TIP3   OH236460   0.482   6.537   7.117 -0.3694 -0.5166 -0.0654
 4942TIP3    H136461   0.554   6.535   7.180 -0.5090  2.8624  0.3962
 4942TIP3    H236462   0.522   6.562   7.034 -0.7066 -0.8135 -0.3198
 4943TIP3   OH236463   5.599   0.482   8.289  0.0680  0.3518  0.2743
 4943TIP3    H136464   5.672   0.539   8.312  0.4291  0.2340 -0.5396
 4943TIP3    H236465   5.626   0.395   8.320 -0.0912  0.4543  0.7088
 4944TIP3   OH236466   5.926   2.906   6.897 -0.3853 -0.1921 -0.2132
 4944TIP3    H136467   5.912   2.834   6.836 -2.5334  0.3319 -0.4035
 4944TIP3    H236468   5.929   2.864   6.983 -0.2785 -0.6362 -0.4306
 4945TIP3   OH236469   4.945   0.641   2.463  0.4943  0.5451  0.5428
 4945TIP3    H136470   4.963   0.583   2.537 -0.4158 -0.5743 -0.0899
 4945TIP3    H236471   5.012   0.621   2.398 -0.0437 -0.0723  0.1744
 4946TIP3   OH236472   0.350   6.599   1.489 -0.6930  0.3994 -0.5282
 4946TIP3    H136473   0.400   6.559   1.418 -2.3642 -0.9222 -1.0367
 4946TIP3    H236474   0.266   6.623   1.449 -1.4946  0.0540  0.8822
 4947TIP3   OH236475   3.138   0.568   0.422 -0.1929  0.7786  0.4727
 4947TIP3    H136476   3.150   0.503   0.352  0.7212  1.8888 -0.4364
 4947TIP3    H236477   3.108   0.516   0.496 -0.9665 -0.4759 -0.6585
 4948TIP3   OH236478   0.213   4.473   1.138 -0.5548 -0.3855  0.9274
 4948TIP3    H136479   0.304   4.476   1.109  0.1101  1.0388  2.9188
 4948TIP3    H236480   0.162   4.466   1.058  1.1888  1.9293 -0.5040
 4949TIP3   OH236481   5.383   5.944   7.576 -0.1685 -0.8371  0.1074
 4949TIP3    H136482   5.457   6.004   7.564 -0.4415 -0.4514  0.3347
 4949TIP3    H236483   5.315   5.978   7.519 -0.0592 -1.3896 -0.3616
 4950TIP3   OH236484   3.201   6.890   0.976 -0.5279 -0.4298  0.1814
 4950TIP3    H136485   3.281   6.918   0.931 -0.8711  0.7149  0.2751
 4950TIP3    H236486   3.233   6.833   1.047  0.2744  0.6543  0.7106
 4951TIP3   OH236487   5.444   3.391   2.048  0.3754  0.4151  0.5842
 4951TIP3    H136488   5.386   3.387   2.124 -0.5230 -1.1301 -0.1453
 4951TIP3    H236489   5.524   3.346   2.076  0.2604  0.3403  0.7903
 4952TIP3   OH236490   3.190   3.832   8.137 -0.7449  0.0924  0.5854
 4952TIP3    H136491   3.152   3.775   8.204 -0.0288  1.0086  1.8149
 4952TIP3    H236492   3.132   3.908   8.135 -1.5001 -0.4852 -0.8010
 4953TIP3   OH236493   0.695   1.772   7.437 -0.7532  0.1244 -0.4599
 4953TIP3    H136494   0.643   1.840   7.394 -2.2707 -2.0824 -2.4216
 4953TIP3    H236495   0.779   1.773   7.391 -0.8797  0.4622 -0.6863
 4954TIP3   OH236496   3.346   0.744   7.825  0.2155  0.2324  0.1666
 4954TIP3    H136497   3.348   0.814   7.761 -0.4177  0.7754  0.7258
 4954TIP3    H236498   3.428   0.697   7.812 -0.4308 -0.4550 -1.8923
 4955TIP3   OH236499   1.584   3.697   1.445 -0.6317  0.4852  0.1080
 4955TIP3    H136500   1.661   3.663   1.492 -0.6070 -0.3990 -0.5515
 4955TIP3    H236501   1.518   3.709   1.513 -0.4953 -0.4772  0.4262
 4956TIP3   OH236502   0.567   5.644   1.174 -0.2938  0.3797 -0.1663
 4956TIP3    H136503   0.525   5.617   1.093 -0.2432 -1.8796  0.4833
 4956TIP3    H236504   0.500   5.629   1.242  0.8418 -1.4928  0.6411
 4957TIP3   OH236505   4.065   0.794   3.111  0.3304  0.3779 -0.6343
 4957TIP3    H136506   4.083   0.839   3.029  2.1729 -0.4731 -0.7535
 4957TIP3    H236507   4.117   0.841   3.177  1.9375 -1.2050 -0.6876
 4958TIP3   OH236508   0.188   4.339   1.603 -0.0832  0.5434 -0.4733
 4958TIP3    H136509   0.145   4.419   1.635 -1.4358 -1.0253  1.9782
 4958TIP3    H236510   0.117   4.274   1.600  1.4154 -1.1738 -0.0629
 4959TIP3   OH236511   6.265   3.247   8.118 -0.0811  0.3300 -1.1012
 4959TIP3    H136512   6.215   3.200   8.185 -0.6823  0.2539 -1.5951
 4959TIP3    H236513   6.346   3.197   8.110 -0.3262 -0.0963 -0.9719
 4960TIP3   OH236514   1.213   4.126   0.495 -0.2827 -0.1742  0.5546
 4960TIP3    H136515   1.281   4.070   0.533 -0.1111  0.2050  0.8228
 4960TIP3    H236516   1.154   4.066   0.450 -1.1236 -0.7701  2.3691
 4961TIP3   OH236517   5.017   1.234   0.882 -0.0039  0.1589  0.0254
 4961TIP3    H136518   5.107   1.237   0.849 -0.6442  0.7022 -1.7803
 4961TIP3    H236519   4.998   1.140   0.890  0.7225  0.0373  0.5090
 4962TIP3   OH236520   4.654   3.156   2.247  0.5320 -0.5411 -0.1045
 4962TIP3    H136521   4.718   3.208   2.295 -1.2269  0.8904  0.8083
 4962TIP3    H236522   4.642   3.204   2.165  1.3614 -1.3855 -0.7438
 4963TIP3   OH236523   0.809   0.775   7.127 -0.4901 -0.4872  0.3057
 4963TIP3    H136524   0.765   0.734   7.053 -0.8626 -1.1633  0.8886
 4963TIP3    H236525   0.744   0.836   7.163 -0.4078 -0.3683  0.2563
 4964TIP3   OH236526   0.691   6.621   0.272  0.4114  0.2067 -0.1550
 4964TIP3    H136527   0.672   6.697   0.327  1.5819  1.2339 -1.0945
 4964TIP3    H236528   0.641   6.636   0.192  1.9860  0.9289 -1.0521
 4965TIP3   OH236529   4.908   4.870   1.672 -0.0861  0.2338 -0.4188
 4965TIP3    H136530   4.930   4.862   1.765  1.0062  0.6434 -0.6247
 4965TIP3    H236531   4.820   4.832   1.665  0.3972 -1.1495  0.5224
 4966TIP3   OH236532   1.571   0.770   2.141 -0.2782 -0.4724 -0.3409
 4966TIP3    H136533   1.652   0.805   2.179  1.3573 -2.5582 -1.6917
 4966TIP3    H236534   1.515   0.752   2.217 -0.0476  2.1368  0.5570
 4967TIP3   OH236535   0.822   1.486   8.564  0.2026 -0.4429 -0.2050
 4967TIP3    H136536   0.887   1.533   8.511 -1.1371  1.4532 -0.2450
 4967TIP3    H236537   0.796   1.549   8.631  0.6706 -2.2443  1.7738
 4968TIP3   OH236538   2.062   3.124   8.260  0.3859 -0.7694  1.1029
 4968TIP3    H136539   2.100   3.067   8.327  3.7058  0.0423  0.1111
 4968TIP3    H236540   2.131   3.187   8.240 -1.1244  0.1703 -1.7931
 4969TIP3   OH236541   5.920   6.526   8.367 -0.9874 -0.0967  0.0403
 4969TIP3    H136542   5.935   6.476   8.447 -0.0768 -1.3673 -0.8860
 4969TIP3    H236543   5.855   6.475   8.318 -0.7295  0.0910 -0.5075
 4970TIP3   OH236544   2.645   2.186   1.649 -0.3465  0.0059  0.5586
 4970TIP3    H136545   2.563   2.174   1.602  0.7700 -0.8041 -1.3242
 4970TIP3    H236546   2.688   2.100   1.644  1.9523  1.1377 -1.3225
 4971TIP3   OH236547   5.637   2.515   1.890  0.0073  0.7940  0.1721
 4971TIP3    H136548   5.596   2.552   1.812  1.8299  1.1499 -0.6675
 4971TIP3    H236549   5.648   2.590   1.948  1.0255  1.0483 -0.3267
 4972TIP3   OH236550   0.729   4.319   0.014 -0.2498  0.1127  0.3154
 4972TIP3    H136551   0.667   4.246   0.014 -0.7406  0.5204 -0.1689
 4972TIP3    H236552   0.815   4.277   0.011 -0.4857 -0.4624  1.1868
 4973TIP3   OH236553   4.890   5.475   2.259  0.2585 -0.3466  0.4907
 4973TIP3    H136554   4.897   5.502   2.167 -1.0662  2.4842  1.1218
 4973TIP3    H236555   4.883   5.380   2.255  3.1684 -0.6237 -2.1260
 4974TIP3   OH236556   0.768   3.007   1.427  0.5045  0.0015 -0.2993
 4974TIP3    H136557   0.807   3.017   1.341 -1.2650  2.0137 -0.9553
 4974TIP3    H236558   0.837   2.968   1.481  2.1784  0.1893 -2.2187
 4975TIP3   OH236559   3.608   2.495   1.331 -0.3448 -0.5126 -0.0614
 4975TIP3    H136560   3.627   2.402   1.321 -0.6534 -0.4702 -1.1843
 4975TIP3    H236561   3.683   2.539   1.292 -0.5342 -0.2971 -0.1819
 4976TIP3   OH236562   1.864   2.760   0.966 -0.4380  0.3957 -0.4040
 4976TIP3    H136563   1.938   2.820   0.973  0.6613 -0.8844 -0.5274
 4976TIP3    H236564   1.879   2.695   1.035 -1.6233  0.2840 -0.2331
 4977TIP3   OH236565   3.394   3.761   2.789  0.0885 -0.5321 -0.0051
 4977TIP3    H136566   3.399   3.856   2.787  0.1999 -0.5263  0.5028
 4977TIP3    H236567   3.307   3.741   2.754 -0.0246 -0.2338  0.1023
 4978TIP3   OH236568   6.472   6.608   7.784 -0.4309 -0.2717  0.4417
 4978TIP3    H136569   6.485   6.702   7.796 -1.1055  0.0786 -1.3341
 4978TIP3    H236570   6.535   6.568   7.844  2.8043  1.3203 -1.5873
 4979TIP3   OH236571   2.564   1.744   0.636  0.6954 -0.0663  0.2153
 4979TIP3    H136572   2.499   1.814   0.632  1.9097  1.0227 -2.2574
 4979TIP3    H236573   2.587   1.737   0.728 -1.4987  0.8193  0.8938
 4980TIP3   OH236574   2.356   4.344   0.283 -0.1564 -0.2834  0.1472
 4980TIP3    H136575   2.361   4.424   0.231  0.4315 -0.7801 -0.5630
 4980TIP3    H236576   2.381   4.274   0.224 -1.0767 -1.0641  0.6450
 4981TIP3   OH236577   6.140   6.013   7.149 -0.0389  0.3168 -0.2690
 4981TIP3    H136578   6.156   5.919   7.157  1.0802  0.4391 -0.8125
 4981TIP3    H236579   6.075   6.020   7.079  0.8776 -0.0038 -1.1810
 4982TIP3   OH236580   6.431   2.060   1.016  0.6925  0.0577  0.1866
 4982TIP3    H136581   6.479   1.988   0.975 -3.0907 -3.9576  2.0511
 4982TIP3    H236582   6.373   2.093   0.947  0.9255 -0.1296 -0.1016
 4983TIP3   OH236583   5.286   5.104   8.422  0.3641 -0.0527 -0.2216
 4983TIP3    H136584   5.210   5.085   8.367  0.1186  1.5635 -0.4898
 4983TIP3    H236585   5.282   5.039   8.492 -0.9136 -0.3793 -0.5715
 4984TIP3   OH236586   5.542   5.707   0.722 -0.1929  0.2736 -0.0191
 4984TIP3    H136587   5.551   5.645   0.795  1.1439 -0.8640 -1.1087
 4984TIP3    H236588   5.461   5.681   0.678 -1.4726  1.4981  1.4887
 4985TIP3   OH236589   0.877   2.117   0.161  0.3113 -0.1842 -0.1109
 4985TIP3    H136590   0.809   2.068   0.115 -0.2803  0.5222 -0.0104
 4985TIP3    H236591   0.866   2.091   0.253 -0.5383  0.7405  0.0591
 4986TIP3   OH236592   5.606   5.798   1.109 -0.4741 -1.2479  0.6422
 4986TIP3    H136593   5.656   5.749   1.044  1.5217 -1.3169  2.1596
 4986TIP3    H236594   5.516   5.795   1.077  0.3483 -1.7345 -1.8110
 4987TIP3   OH236595   4.688   5.775   8.462 -0.4655 -0.1207  0.7939
 4987TIP3    H136596   4.725   5.860   8.483 -0.3506 -0.1230  0.6089
 4987TIP3    H236597   4.621   5.760   8.528 -1.0454  0.4757  0.3524
 4988TIP3   OH236598   0.709   5.449   1.335 -0.0413  0.5951 -0.3067
 4988TIP3    H136599   0.660   5.525   1.304  1.3110  0.3954 -3.1891
 4988TIP3    H236600   0.713   5.390   1.260  0.5284 -1.5273  1.2975
 4989TIP3   OH236601   2.240   6.085   0.928 -0.4176  0.0408  0.3718
 4989TIP3    H136602   2.260   6.024   0.999 -2.7855  0.0535  1.1609
 4989TIP3    H236603   2.245   6.172   0.970 -1.1646  0.0881  0.3841
 4990TIP3   OH236604   5.429   5.017   7.062  0.2984 -0.4449 -0.2336
 4990TIP3    H136605   5.459   5.063   6.984 -0.6131  2.8652  1.1812
 4990TIP3    H236606   5.452   5.075   7.135 -0.7301 -2.3814  1.7708
 4991TIP3   OH236607   6.159   6.858   0.553 -0.4413  0.9853  0.2929
 4991TIP3    H136608   6.161   6.916   0.630 -0.8647 -1.0310  1.9167
 4991TIP3    H236609   6.066   6.837   0.542 -0.3485  1.0261 -0.6074
 4992TIP3   OH236610   2.236   2.992   0.278  0.4644 -0.1604 -0.5723
 4992TIP3    H136611   2.184   2.915   0.255 -1.3455  0.1932  1.9246
 4992TIP3    H236612   2.322   2.957   0.302 -0.3519 -1.4847  0.6005
 4993TIP3   OH236613   3.134   3.724   2.691  0.0216  0.6122 -0.3998
 4993TIP3    H136614   3.089   3.713   2.775  0.0564 -0.6000 -0.5252
 4993TIP3    H236615   3.086   3.667   2.630  0.5733  0.7573 -0.9797
 4994TIP3   OH236616   0.743   4.217   2.464  0.1118 -0.2274  0.1054
 4994TIP3    H136617   0.711   4.172   2.542 -0.2866 -1.5467 -0.7907
 4994TIP3    H236618   0.836   4.196   2.461  0.1895  0.0696  0.3782
 4995TIP3   OH236619   1.722   1.976   8.331 -0.0047  0.0561  0.5055
 4995TIP3    H136620   1.695   1.941   8.246 -1.4454 -2.3611  1.8682
 4995TIP3    H236621   1.652   2.037   8.355  0.5079  0.9041 -0.0769
 4996TIP3   OH236622   3.111   0.233   8.043  0.4099  0.5040 -0.1118
 4996TIP3    H136623   3.021   0.201   8.031  0.3421  0.9968 -0.9741
 4996TIP3    H236624   3.158   0.158   8.080 -0.3436  0.2285  0.3103
 4997TIP3   OH236625   1.207   0.540   2.075  0.5053 -0.2744  0.1792
 4997TIP3    H136626   1.254   0.563   2.156 -0.3199  0.5790  0.4356
 4997TIP3    H236627   1.154   0.465   2.098  0.2842 -0.0425  0.4258
 4998TIP3   OH236628   1.899   0.857   1.010 -0.0241  0.3886 -0.1526
 4998TIP3    H136629   1.830   0.893   1.066 -0.0498  0.4596 -0.2305
 4998TIP3    H236630   1.865   0.865   0.921  0.5182  1.3915 -0.2778
 4999TIP3   OH236631   2.310   1.101   0.998 -0.1743 -0.1107  0.1852
 4999TIP3    H136632   2.257   1.171   0.959 -0.7232 -1.4037 -1.5013
 4999TIP3    H236633   2.266   1.082   1.081 -0.6842  0.7585  0.1321
 5000TIP3   OH236634   4.439   3.900   2.348 -0.1565 -0.1951 -0.2159
 5000TIP3    H136635   4.408   3.960   2.280  1.7408 -0.5100 -1.4343
 5000TIP3    H236636   4.451   3.817   2.302  2.0012 -0.1955  0.2534
 5001TIP3   OH236637   0.973   2.234   8.308 -0.4631  0.3876  0.2181
 5001TIP3    H136638   1.042   2.257   8.370  0.1534 -1.6620  0.3755
 5001TIP3    H236639   0.894   2.224   8.361 -0.6460  1.6314  0.1996
 5002TIP3   OH236640   4.482   6.406   7.925  0.1168 -0.1812 -0.4187
 5002TIP3    H136641   4.390   6.410   7.900  0.1717 -1.1991 -0.8561
 5002TIP3    H236642   4.487   6.334   7.988  0.6783 -0.4230 -0.7265
 5003TIP3   OH236643   2.811   3.169   1.329 -0.1561 -0.5079  0.1163
 5003TIP3    H136644   2.798   3.258   1.298 -0.7616 -0.6835 -0.1480
 5003TIP3    H236645   2.734   3.121   1.299  0.2854 -1.1827  0.0289
 5004TIP3   OH236646   2.192   0.351   2.711 -0.0650  0.0139  0.1186
 5004TIP3    H136647   2.129   0.423   2.712 -0.5596 -0.4018 -0.2661
 5004TIP3    H236648   2.242   0.364   2.630 -0.0453  0.0212  0.1320
 5005TIP3   OH236649   1.887   3.131   1.869  0.2197 -0.1004 -0.5769
 5005TIP3    H136650   1.827   3.103   1.938 -1.3558  0.4198 -1.6864
 5005TIP3    H236651   1.830   3.160   1.798  1.7106 -2.0464 -2.7401
 5006TIP3   OH236652   5.040   1.794   7.899 -0.8181 -0.0004 -0.6634
 5006TIP3    H136653   5.004   1.752   7.821 -2.4940  1.4833 -0.7214
 5006TIP3    H236654   4.987   1.760   7.971  0.5143 -1.1115 -0.1391
 5007TIP3   OH236655   2.676   6.342   8.167 -0.2746  0.2355 -0.2369
 5007TIP3    H136656   2.625   6.349   8.247 -1.8596 -0.9562 -1.0716
 5007TIP3    H236657   2.610   6.337   8.097  1.0458  1.1148 -1.6139
 5008TIP3   OH236658   0.214   3.692   1.860 -0.3082  0.5622 -0.5869
 5008TIP3    H136659   0.171   3.659   1.939  1.1620 -0.3192 -0.1211
 5008TIP3    H236660   0.204   3.787   1.864 -1.7300  0.4155 -0.2309
 5009TIP3   OH236661   1.712   6.406   1.565 -0.6986  0.1911  1.0036
 5009TIP3    H136662   1.798   6.442   1.545  0.1892 -2.0692  0.4002
 5009TIP3    H236663   1.730   6.322   1.607 -2.6181  0.0342  1.6032
 5010TIP3   OH236664   1.960   3.462   2.541 -0.0097  0.7361  0.3318
 5010TIP3    H136665   1.982   3.515   2.617 -0.9941 -0.8216  1.7635
 5010TIP3    H236666   1.883   3.504   2.503 -0.3365  0.7733  1.0225
 5011TIP3   OH236667   6.512   2.373   7.950  0.8543 -0.6748  0.2673
 5011TIP3    H136668   6.506   2.282   7.922 -1.8133 -0.5612  0.2527
 5011TIP3    H236669   6.425   2.409   7.933  2.2212  2.2921 -1.0357
 5012TIP3   OH236670   2.183   0.806   0.159 -0.4078  0.0860  0.0992
 5012TIP3    H136671   2.220   0.740   0.218  0.3697  0.3463 -0.0905
 5012TIP3    H236672   2.108   0.841   0.207  0.0432  0.0884  0.8171
 5013TIP3   OH236673   4.876   1.532   1.816  1.0138 -0.4159 -0.7495
 5013TIP3    H136674   4.841   1.555   1.902  0.6021 -0.4145 -0.9113
 5013TIP3    H236675   4.867   1.436   1.812  0.4429 -0.3548 -1.0356
 5014TIP3   OH236676   3.285   2.285   8.059 -0.1279  0.5694 -0.2228
 5014TIP3    H136677   3.292   2.358   8.121  0.7143  1.1982 -1.0189
 5014TIP3    H236678   3.309   2.324   7.975 -0.0331 -0.5496 -0.7253
 5015TIP3   OH236679   5.456   3.590   0.677 -0.6818  0.3602  0.7338
 5015TIP3    H136680   5.440   3.583   0.583  1.6193  3.5978 -0.0486
 5015TIP3    H236681   5.431   3.505   0.712  0.4697 -1.7731 -3.1083
 5016TIP3   OH236682   4.922   6.364   2.256 -0.0337 -0.3201 -0.3350
 5016TIP3    H136683   4.922   6.353   2.161 -1.0947  0.6522 -0.4718
 5016TIP3    H236684   4.889   6.281   2.289  0.7653 -0.8300 -0.7809
 5017TIP3   OH236685   6.421   5.334   7.552  0.5020 -0.0795  0.3408
 5017TIP3    H136686   6.497   5.277   7.541  0.8848 -0.0392  2.3879
 5017TIP3    H236687   6.431   5.371   7.640 -1.2178  0.9438  0.1550
 5018TIP3   OH236688   6.408   0.809   2.496  0.1276  0.3970  0.2582
 5018TIP3    H136689   6.342   0.879   2.494 -0.6015 -0.2254  1.6190
 5018TIP3    H236690   6.489   0.853   2.472 -0.8555  1.0443 -2.2599
 5019TIP3   OH236691   2.107   4.055   7.987  0.0035  0.1890 -0.0546
 5019TIP3    H136692   2.111   4.067   8.082 -2.7571 -0.9963  0.3017
 5019TIP3    H236693   2.047   4.124   7.958  0.0887 -0.0571 -0.8125
 5020TIP3   OH236694   5.251   1.338   2.683 -0.0546  0.1485  0.1735
 5020TIP3    H136695   5.247   1.242   2.693 -0.9518  0.2679  1.1404
 5020TIP3    H236696   5.299   1.351   2.601 -1.5173 -1.1717 -0.9763
 5021TIP3   OH236697   3.143   0.371   0.224 -0.3991 -0.8472 -0.1894
 5021TIP3    H136698   3.101   0.402   0.144 -0.8702  0.2583  0.4584
 5021TIP3    H236699   3.228   0.337   0.195 -0.0506  0.6335 -1.0282
 5022TIP3   OH236700   2.443   1.798   0.964 -0.3409 -0.4221 -0.0472
 5022TIP3    H136701   2.411   1.888   0.967 -0.4252 -0.4597  0.2407
 5022TIP3    H236702   2.535   1.805   0.941 -0.5412 -0.3097 -0.8337
 5023TIP3   OH236703   4.342   0.111   2.497  0.2391  0.2246  0.1355
 5023TIP3    H136704   4.257   0.151   2.517 -0.2696  0.0311 -1.4763
 5023TIP3    H236705   4.384   0.100   2.582 -1.4965 -0.0036  1.0098
 5024TIP3   OH236706   3.676   1.356   2.929 -0.2280 -0.3492  0.0355
 5024TIP3    H136707   3.742   1.292   2.953  1.0882  0.6987 -0.6682
 5024TIP3    H236708   3.661   1.407   3.008  0.2358 -0.2227  0.0410
 5025TIP3   OH236709   3.587   0.652   8.521 -0.1478 -0.4140 -0.0241
 5025TIP3    H136710   3.609   0.640   8.428 -0.3492  0.6132 -0.2150
 5025TIP3    H236711   3.649   0.596   8.568  1.0994  0.3737 -0.6912
 5026TIP3   OH236712   2.326   0.221   1.187  0.1272 -0.0753  0.5818
 5026TIP3    H136713   2.379   0.155   1.142 -0.5564  1.1203 -2.1997
 5026TIP3    H236714   2.238   0.183   1.191  0.2979 -0.3958  1.4404
 5027TIP3   OH236715   2.664   5.572   8.081  0.0347 -0.0543 -0.2792
 5027TIP3    H136716   2.581   5.619   8.083  0.1157  0.0786  0.7290
 5027TIP3    H236717   2.642   5.483   8.108  0.2072 -0.0273 -0.0387
 5028TIP3   OH236718   6.697   1.658   7.477 -0.7167  0.5545  0.1778
 5028TIP3    H136719   6.665   1.583   7.429  0.2261  0.7141 -0.7372
 5028TIP3    H236720   6.686   1.634   7.569 -1.2962 -0.3059 -0.1059
 5029TIP3   OH236721   3.360   5.717   1.117 -0.0019  0.0080  0.6854
 5029TIP3    H136722   3.364   5.782   1.187  4.1475  0.2976  0.4009
 5029TIP3    H236723   3.333   5.767   1.040 -0.5722  0.5568  1.2315
 5030TIP3   OH236724   1.313   3.602   7.703  0.1614  0.0358  0.1878
 5030TIP3    H136725   1.282   3.547   7.632 -1.2055 -0.8837  1.4275
 5030TIP3    H236726   1.240   3.661   7.721  0.6917  0.6104  0.4779
 5031TIP3   OH236727   4.991   4.322   3.442 -0.3342 -0.7685 -0.1111
 5031TIP3    H136728   4.920   4.276   3.488 -1.0239 -0.1731 -0.5543
 5031TIP3    H236729   5.068   4.267   3.456 -0.2088 -0.0491  2.7891
 5032TIP3   OH236730   4.530   0.615   0.991  0.1526  0.0775  0.0426
 5032TIP3    H136731   4.547   0.606   1.085 -0.8590  0.0784  0.2396
 5032TIP3    H236732   4.610   0.584   0.948  0.5705 -0.0489  0.8996
 5033TIP3   OH236733   6.823   6.271   1.395  0.1284  0.0632 -0.3910
 5033TIP3    H136734   6.786   6.249   1.481  1.3294  2.0996  0.7443
 5033TIP3    H236735   6.915   6.289   1.413  0.6311 -0.3628 -2.3112
 5034TIP3   OH236736   3.444   5.627   2.061 -0.2749 -0.6299 -0.1491
 5034TIP3    H136737   3.451   5.609   1.967 -3.6299  0.7587 -0.8237
 5034TIP3    H236738   3.403   5.548   2.097 -1.9282  0.0055 -0.5232
 5035TIP3   OH236739   1.049   0.416   0.778 -0.3677  0.0930  0.7462
 5035TIP3    H136740   0.967   0.399   0.732 -0.9009  0.9482  1.3516
 5035TIP3    H236741   1.113   0.361   0.734 -1.1026  0.0081 -0.2476
 5036TIP3   OH236742   0.524   4.844   0.813 -0.2362  0.7955  0.0089
 5036TIP3    H136743   0.522   4.794   0.731  0.6028  0.5751  0.1194
 5036TIP3    H236744   0.598   4.903   0.804  1.3492 -0.8579  1.5422
 5037TIP3   OH236745   4.792   1.444   7.869 -0.0248 -0.8035 -0.2270
 5037TIP3    H136746   4.870   1.441   7.924  0.9098  0.7206 -1.3894
 5037TIP3    H236747   4.825   1.425   7.781 -1.3900 -2.6094 -0.4076
 5038TIP3   OH236748   0.786   3.993   8.415  0.2150  0.1488  0.1312
 5038TIP3    H136749   0.702   4.008   8.459  0.0064 -0.6111  0.0082
 5038TIP3    H236750   0.829   3.926   8.468  0.4011 -0.0334 -0.2455
 5039TIP3   OH236751   1.045   2.420   0.557  0.1744 -0.3485  0.0813
 5039TIP3    H136752   1.013   2.422   0.467 -0.4134  1.7021  0.3014
 5039TIP3    H236753   0.966   2.423   0.611  0.5454 -0.9289  0.6738
 5040TIP3   OH236754   1.563   5.741   2.284  0.1348 -0.1545  0.0721
 5040TIP3    H136755   1.626   5.786   2.340  1.0285 -1.0417 -0.2025
 5040TIP3    H236756   1.478   5.765   2.320  0.5208  2.2395 -0.4109
 5041TIP3   OH236757   6.434   3.437   1.575 -0.1764  0.6623 -0.3739
 5041TIP3    H136758   6.452   3.405   1.486 -0.8435  1.6584 -0.8827
 5041TIP3    H236759   6.494   3.511   1.586 -0.8933  1.2535 -0.4256
 5042TIP3   OH236760   0.813   6.371   1.079 -0.2276 -0.0385 -0.5388
 5042TIP3    H136761   0.845   6.432   1.145  0.9022 -1.0371 -0.1106
 5042TIP3    H236762   0.799   6.424   1.001 -0.1981  0.9121  0.0942
 5043TIP3   OH236763   2.972   3.100   1.588  0.4087  0.1324 -0.1711
 5043TIP3    H136764   2.916   3.096   1.511 -0.7776  0.6298  0.6501
 5043TIP3    H236765   3.014   3.014   1.592  0.7099  0.2017 -1.5176
 5044TIP3   OH236766   4.889   3.701   3.025  0.5163 -0.5589 -0.0642
 5044TIP3    H136767   4.811   3.755   3.014  1.0174  0.3492  0.6813
 5044TIP3    H236768   4.947   3.727   2.953 -0.1838 -1.8607 -1.1442
 5045TIP3   OH236769   3.238   5.823   1.848 -0.5315 -0.4433 -0.1740
 5045TIP3    H136770   3.220   5.898   1.791 -1.6602 -0.4856  0.1080
 5045TIP3    H236771   3.261   5.861   1.932  0.7236 -0.3916 -0.5143
 5046TIP3   OH236772   1.272   1.189   0.779  0.3006 -0.3292 -0.0897
 5046TIP3    H136773   1.365   1.213   0.776  0.4846 -0.8632  0.7868
 5046TIP3    H236774   1.251   1.164   0.689  0.9304  0.0633 -0.3555
 5047TIP3   OH236775   1.438   1.725   8.077  0.0173 -1.0478 -0.0312
 5047TIP3    H136776   1.493   1.739   8.000  0.4634  1.0860  0.6096
 5047TIP3    H236777   1.498   1.728   8.151 -0.8804  1.5953  0.7011
 5048TIP3   OH236778   1.838   3.637   8.525 -0.3501 -0.0253 -0.1897
 5048TIP3    H136779   1.804   3.628   8.614 -2.5351 -1.4132 -1.0753
 5048TIP3    H236780   1.932   3.621   8.534 -0.8789 -3.1666  1.5307
 5049TIP3   OH236781   5.953   1.187   1.294 -0.6887  0.5681 -0.1446
 5049TIP3    H136782   5.916   1.130   1.361  0.4619 -0.9476 -0.7275
 5049TIP3    H236783   6.010   1.247   1.342  0.3859 -0.7143  0.2534
 5050TIP3   OH236784   1.376   1.155   1.290  0.1780  0.3496  0.3485
 5050TIP3    H136785   1.428   1.078   1.266 -0.1681  0.4397 -0.7589
 5050TIP3    H236786   1.286   1.130   1.269 -0.0548  0.7080  0.9116
 5051TIP3   OH236787   1.443   6.861   8.050  0.5800  0.0592 -0.2808
 5051TIP3    H136788   1.458   6.772   8.082 -1.2855 -0.2523 -0.1836
 5051TIP3    H236789   1.522   6.909   8.076  1.0839 -1.2607  0.7668
 5052TIP3   OH236790   2.148   2.023   1.241  0.1186 -0.2751 -0.2684
 5052TIP3    H136791   2.109   2.099   1.198  0.4805 -0.0542 -0.2076
 5052TIP3    H236792   2.203   1.983   1.173  1.4081  0.5857  0.2203
 5053TIP3   OH236793   6.411   0.113   0.540  0.1453  0.0089  0.2068
 5053TIP3    H136794   6.395   0.183   0.478 -0.4226 -0.0865  0.2436
 5053TIP3    H236795   6.344   0.124   0.607 -0.7152 -1.2816 -0.4002
 5054TIP3   OH236796   5.460   5.532   0.202 -0.1495  0.2214  0.0353
 5054TIP3    H136797   5.398   5.543   0.130  0.3126  0.6267 -0.3042
 5054TIP3    H236798   5.546   5.539   0.161  0.1334 -0.9530  0.4063
 5055TIP3   OH236799   3.443   2.964   7.779 -0.5782 -0.2186  0.8308
 5055TIP3    H136800   3.474   2.918   7.701 -0.8399  0.2342  0.4508
 5055TIP3    H236801   3.480   2.916   7.853 -0.5405 -0.8065  0.4297
 5056TIP3   OH236802   4.806   4.598   0.970  0.0509  0.3306  0.2017
 5056TIP3    H136803   4.878   4.615   1.032 -0.2955  1.1862  0.3858
 5056TIP3    H236804   4.805   4.676   0.914  0.4433 -0.4974 -0.9778
 5057TIP3   OH236805   5.291   5.777   8.502 -0.3341  0.0499  0.4803
 5057TIP3    H136806   5.363   5.769   8.439 -0.7342  0.1157  0.0048
 5057TIP3    H236807   5.317   5.849   8.559 -0.7306  1.1634 -0.6800
 5058TIP3   OH236808   1.787   3.910   7.137  0.5381  0.4946 -0.0847
 5058TIP3    H136809   1.862   3.935   7.083 -1.1026  0.5868 -2.4925
 5058TIP3    H236810   1.781   3.815   7.128  0.4902  0.4631  0.2651
 5059TIP3   OH236811   1.145   5.351   8.090 -0.2524 -0.3168  0.5488
 5059TIP3    H136812   1.122   5.417   8.025 -2.0630 -0.8026  0.6241
 5059TIP3    H236813   1.149   5.269   8.041  1.1925 -0.3005  0.5951
 5060TIP3   OH236814   5.627   4.772   3.161  0.8428  0.1885  0.0399
 5060TIP3    H136815   5.590   4.835   3.223  1.3168  0.0809  0.4392
 5060TIP3    H236816   5.551   4.734   3.117  0.4676 -0.0977  0.9137
 5061TIP3   OH236817   3.578   5.585   8.451  0.1554  0.2885  0.1700
 5061TIP3    H136818   3.651   5.541   8.495  1.0200  0.8224 -0.7065
 5061TIP3    H236819   3.506   5.523   8.456  0.6961 -0.2934  0.9555
 5062TIP3   OH236820   6.456   5.779   7.201  0.1904  0.2847 -0.0763
 5062TIP3    H136821   6.494   5.861   7.169  1.5341  0.1371  1.0394
 5062TIP3    H236822   6.503   5.762   7.283 -1.2907 -0.6975  0.6073
 5063TIP3   OH236823   0.846   5.617   7.577 -0.3810 -0.1014  0.5744
 5063TIP3    H136824   0.819   5.706   7.598  0.3172  0.3702 -0.4211
 5063TIP3    H236825   0.773   5.562   7.604 -1.6892  0.9677 -0.6503
 5064TIP3   OH236826   6.135   1.536   6.862 -0.2641  0.0737  0.3334
 5064TIP3    H136827   6.225   1.514   6.841 -0.1853  1.2467 -0.6962
 5064TIP3    H236828   6.091   1.451   6.871  0.9445 -0.5121  0.9946
 5065TIP3   OH236829   3.598   6.524   1.215  0.4023 -0.3075 -0.3163
 5065TIP3    H136830   3.626   6.447   1.165  1.6043 -0.8129  1.0598
 5065TIP3    H236831   3.544   6.489   1.285  1.9098 -0.0901  1.0235
 5066TIP3   OH236832   4.564   4.454   1.426  0.0686 -0.5165 -0.1371
 5066TIP3    H136833   4.621   4.468   1.502  1.0976  0.5175 -1.0499
 5066TIP3    H236834   4.625   4.450   1.352 -0.9958 -0.0985 -1.0582
 5067TIP3   OH236835   3.731   0.792   7.862  0.2945 -0.4426  0.0675
 5067TIP3    H136836   3.765   0.711   7.900  1.3670 -0.0481 -0.0106
 5067TIP3    H236837   3.809   0.838   7.831 -0.2583  0.8375  0.5250
 5068TIP3   OH236838   5.854   2.176   7.595  0.4839 -0.3963  0.2105
 5068TIP3    H136839   5.776   2.198   7.543  1.0096  0.2441 -0.3206
 5068TIP3    H236840   5.898   2.261   7.608  1.7710 -0.9197 -0.5783
 5069TIP3   OH236841   4.821   1.525   2.104  0.3395 -0.2719  0.4510
 5069TIP3    H136842   4.777   1.442   2.123  2.0242 -1.9805 -2.4509
 5069TIP3    H236843   4.774   1.590   2.157 -2.7632 -2.6187  0.8365
 5070TIP3   OH236844   1.540   2.517   0.030  0.3765  0.3654 -0.1809
 5070TIP3    H136845   1.595   2.473   0.094 -0.0693 -2.4059 -1.5414
 5070TIP3    H236846   1.539   2.459  -0.046 -0.2664  2.7970 -2.2098
 5071TIP3   OH236847   0.962   5.616   2.259 -0.6877 -0.0471  0.3249
 5071TIP3    H136848   0.972   5.706   2.229  2.0508 -0.9179 -1.8457
 5071TIP3    H236849   1.045   5.595   2.301 -0.3079 -2.2032 -1.3032
 5072TIP3   OH236850   3.128   1.791   7.840  0.2646  0.9292  0.1684
 5072TIP3    H136851   3.196   1.735   7.803  1.3084  1.1967  1.5769
 5072TIP3    H236852   3.162   1.880   7.830 -1.3155  1.3597 -1.9232
 5073TIP3   OH236853   1.190   2.402   1.403  0.2117 -0.3500 -0.3236
 5073TIP3    H136854   1.170   2.384   1.495 -1.2782  0.9969 -0.3476
 5073TIP3    H236855   1.216   2.494   1.401 -1.0771  0.0325 -1.4038
 5074TIP3   OH236856   4.551   5.543   2.052  0.2709 -0.4353 -0.3856
 5074TIP3    H136857   4.574   5.594   2.130  0.6045 -2.1916  0.7112
 5074TIP3    H236858   4.631   5.543   2.000  0.8128 -1.1972  0.4075
 5075TIP3   OH236859   1.189   6.375   7.769 -0.6603  0.2411 -0.3193
 5075TIP3    H136860   1.187   6.381   7.674  0.5208 -0.3089 -0.3957
 5075TIP3    H236861   1.268   6.325   7.789 -0.4445  1.0489  0.9924
 5076TIP3   OH236862   4.483   2.055   0.078  0.0407  0.1624  0.5517
 5076TIP3    H136863   4.557   1.996   0.064 -1.9976 -2.6455  0.9178
 5076TIP3    H236864   4.505   2.101   0.160  2.3992  1.2745 -0.5770
 5077TIP3   OH236865   2.440   4.874   8.568  0.4246  0.5918  0.4600
 5077TIP3    H136866   2.399   4.787   8.561  0.4445  0.6803 -1.3231
 5077TIP3    H236867   2.526   4.862   8.529  0.2826  1.4949 -0.1469
 5078TIP3   OH236868   3.060   1.900   8.083  0.5221 -0.3635  0.4526
 5078TIP3    H136869   3.135   1.957   8.071  0.1366 -0.2945 -2.3101
 5078TIP3    H236870   3.055   1.849   8.002 -1.8238 -1.0577  0.9391
 5079TIP3   OH236871   1.834   4.117   1.326 -0.6261  0.0189  0.7640
 5079TIP3    H136872   1.757   4.128   1.382 -2.4372  1.3491 -1.7956
 5079TIP3    H236873   1.880   4.201   1.332 -0.1876 -0.2421  1.1183
 5080TIP3   OH236874   4.907   6.130   6.948  0.1035 -0.0313 -0.0912
 5080TIP3    H136875   4.848   6.070   6.994  0.0368  0.2891  0.2429
 5080TIP3    H236876   4.905   6.210   7.000 -0.0879  0.3878 -0.7296
 5081TIP3   OH236877   4.998   0.659   8.046  0.4659 -0.0146  0.5891
 5081TIP3    H136878   4.980   0.587   7.987 -0.9664  0.4583  0.4139
 5081TIP3    H236879   4.971   0.628   8.132  0.8542 -0.0560  0.7002
 5082TIP3   OH236880   3.037   5.313   8.201 -0.4257 -0.7498 -0.2546
 5082TIP3    H136881   3.105   5.252   8.175  1.3348  0.8675  0.2987
 5082TIP3    H236882   3.052   5.390   8.146 -1.7570 -0.2979 -0.0324
 5083TIP3   OH236883   0.967   0.083   2.545 -0.2789 -0.4826  0.1466
 5083TIP3    H136884   0.990  -0.009   2.547  0.6957 -0.2508  0.0029
 5083TIP3    H236885   1.051   0.130   2.546 -0.7188  0.3783 -0.7512
 5084TIP3   OH236886   2.086   0.287   0.893  0.3900  0.0025 -0.3138
 5084TIP3    H136887   2.171   0.329   0.883  0.0284  0.6309 -0.8431
 5084TIP3    H236888   2.101   0.195   0.870  1.5002 -0.5263  2.2151
 5085TIP3   OH236889   4.624   1.611   7.750 -0.4027  0.5046 -0.0374
 5085TIP3    H136890   4.695   1.585   7.809 -0.3607  1.4813  0.3602
 5085TIP3    H236891   4.549   1.560   7.780 -0.4294  1.1280  1.0093
 5086TIP3   OH236892   3.637   2.488   8.448  0.4157 -0.2828  0.2206
 5086TIP3    H136893   3.590   2.410   8.477  1.0448 -0.0479  1.9969
 5086TIP3    H236894   3.668   2.466   8.360 -3.5483 -0.1801 -1.4269
 5087TIP3   OH236895   2.507   2.498   0.254 -0.1521  0.0425  0.0826
 5087TIP3    H136896   2.495   2.502   0.349  0.3280  1.7894  0.1053
 5087TIP3    H236897   2.532   2.407   0.237 -0.1126 -0.2714  1.6394
 5088TIP3   OH236898   5.876   2.032   8.163  0.4218 -0.3566  0.0358
 5088TIP3    H136899   5.781   2.048   8.157 -0.5079 -4.1257  1.9266
 5088TIP3    H236900   5.902   2.078   8.243  0.5080  1.5531 -1.0285
 5089TIP3   OH236901   5.076   6.112   0.001  0.5587 -0.1754 -0.0470
 5089TIP3    H136902   5.144   6.166   0.039 -1.0666  0.4962  2.1079
 5089TIP3    H236903   5.002   6.120   0.061 -0.2743 -3.6650 -0.3600
 5090TIP3   OH236904   1.610   6.925   0.650  0.1521  0.2031  0.1076
 5090TIP3    H136905   1.591   6.970   0.733  0.2075  1.0830 -0.3425
 5090TIP3    H236906   1.540   6.951   0.591 -0.5156 -1.3176  0.1798
 5091TIP3   OH236907   3.094   6.061   1.902 -0.1061  0.1026  0.4222
 5091TIP3    H136908   3.072   6.050   1.809 -0.1601 -1.8283  0.6360
 5091TIP3    H236909   3.184   6.096   1.901  0.1586 -0.5665 -0.3503
 5092TIP3   OH236910   5.643   0.372   0.521 -0.5092  0.1129 -0.3759
 5092TIP3    H136911   5.563   0.319   0.512 -0.5410  0.1678 -0.4096
 5092TIP3    H236912   5.623   0.454   0.477 -0.4268  0.1194 -0.4012
 5093TIP3   OH236913   6.798   5.670   7.146  0.3224 -0.4609  0.1958
 5093TIP3    H136914   6.813   5.644   7.055 -3.7821 -0.9552 -0.5266
 5093TIP3    H236915   6.735   5.606   7.179 -1.5195  2.0731  2.0026
 5094TIP3   OH236916   5.143   3.631   0.446 -0.1636  0.0018  0.2553
 5094TIP3    H136917   5.162   3.661   0.357  0.4415 -0.0339  0.3658
 5094TIP3    H236918   5.164   3.707   0.501  0.3674 -0.2806  0.4455
 5095TIP3   OH236919   0.838   5.892   7.625 -0.8103 -0.5592 -0.1562
 5095TIP3    H136920   0.816   5.861   7.713  1.9509 -1.8920  0.1714
 5095TIP3    H236921   0.921   5.938   7.636 -1.4521  1.0820 -1.7827
 5096TIP3   OH236922   4.924   1.233   7.309  0.5871 -0.3526  0.2043
 5096TIP3    H136923   4.955   1.155   7.262  2.7963 -0.4578  1.7128
 5096TIP3    H236924   4.840   1.207   7.346  0.8270 -1.6858 -0.1363
 5097TIP3   OH236925   0.239   4.656   7.466 -0.6262 -0.1067 -0.3666
 5097TIP3    H136926   0.259   4.663   7.559 -2.4208 -3.3176  0.3849
 5097TIP3    H236927   0.306   4.598   7.431 -0.3148  0.6071 -0.9971
 5098TIP3   OH236928   2.324   1.966   7.878  0.0170  0.2867 -0.0123
 5098TIP3    H136929   2.258   2.017   7.832  0.6907  0.4719 -0.7803
 5098TIP3    H236930   2.287   1.878   7.883 -0.4803  0.4939 -0.0335
 5099TIP3   OH236931   3.662   3.218   0.578  0.7022 -0.2247  0.0771
 5099TIP3    H136932   3.652   3.172   0.661 -2.1015 -1.0644 -0.6145
 5099TIP3    H236933   3.647   3.310   0.599  1.0430 -0.2890  0.6324
 5100TIP3   OH236934   5.673   5.007   7.480  0.2305 -0.4028  0.2533
 5100TIP3    H136935   5.745   4.957   7.518 -0.0269 -0.0332  1.2410
 5100TIP3    H236936   5.704   5.029   7.392  0.6607 -1.6079  0.0834
 5101TIP3   OH236937   3.009   1.055   7.917 -0.3870  0.0021  0.4862
 5101TIP3    H136938   2.953   0.994   7.867 -0.2453  1.1500 -1.1618
 5101TIP3    H236939   3.082   1.000   7.948 -1.1563 -1.0111  0.5561
 5102TIP3   OH236940   5.490   3.212   0.520 -0.3361  0.4533  0.5006
 5102TIP3    H136941   5.528   3.297   0.544  0.1869  0.2865  0.2873
 5102TIP3    H236942   5.397   3.220   0.542 -0.3731  1.2195  0.1121
 5103TIP3   OH236943   2.751   4.008   0.456  0.8951 -0.1452  0.0843
 5103TIP3    H136944   2.837   4.021   0.418 -0.5877 -0.5255 -3.8546
 5103TIP3    H236945   2.711   4.095   0.457  0.4119 -0.3540 -0.6203
 5104TIP3   OH236946   3.705   2.736   0.913 -0.5858 -0.4468 -0.0039
 5104TIP3    H136947   3.755   2.655   0.903 -1.2707 -0.7728 -0.8559
 5104TIP3    H236948   3.622   2.719   0.870  0.2097  1.5676 -2.5980
 5105TIP3   OH236949   1.701   6.600   6.915  0.5108  0.3099  0.5384
 5105TIP3    H136950   1.716   6.507   6.898 -0.9383  0.1841 -0.2567
 5105TIP3    H236951   1.736   6.644   6.838 -1.6347  0.1237 -0.6398
 5106TIP3   OH236952   6.691   0.991   0.216  0.2755  0.6757  0.4232
 5106TIP3    H136953   6.693   0.942   0.134  0.3115  0.8574  0.3156
 5106TIP3    H236954   6.599   0.992   0.241  0.4582 -1.0040  1.3674
 5107TIP3   OH236955   4.275   3.425   1.693  0.0587  0.0954  0.0045
 5107TIP3    H136956   4.221   3.502   1.675  1.2413  0.8986 -0.1769
 5107TIP3    H236957   4.273   3.374   1.612  0.1841  0.4934 -0.2469
 5108TIP3   OH236958   2.697   3.804   1.917 -0.1339 -0.1388 -0.2609
 5108TIP3    H136959   2.691   3.873   1.851  0.8371 -0.6917 -0.9530
 5108TIP3    H236960   2.730   3.728   1.869 -1.3907 -1.1627  0.4352
 5109TIP3   OH236961   4.351   0.774   1.673 -0.2058  0.4287  0.0541
 5109TIP3    H136962   4.413   0.704   1.689  1.0629  1.2997 -0.8441
 5109TIP3    H236963   4.310   0.752   1.589  0.5702  0.9944 -0.4882
 5110TIP3   OH236964   5.864   5.035   1.199  0.6077 -0.1755 -0.0551
 5110TIP3    H136965   5.872   5.056   1.106  0.9105  1.8582  0.3716
 5110TIP3    H236966   5.886   5.117   1.244 -1.8533 -0.3605  1.7416
 5111TIP3   OH236967   4.758   6.015   0.825 -0.5686  0.1602 -0.5097
 5111TIP3    H136968   4.774   5.921   0.834 -0.6696  0.3283  2.5558
 5111TIP3    H236969   4.665   6.025   0.845 -0.3474  0.9871  0.1413
 5112TIP3   OH236970   2.188   2.483   1.264 -0.4966  0.2098  0.0016
 5112TIP3    H136971   2.111   2.512   1.313 -0.4333 -0.4364  0.4972
 5112TIP3    H236972   2.245   2.443   1.329  0.2724  0.6860 -0.3589
 5113TIP3   OH236973   6.302   5.007   1.339  0.0117 -0.4418 -0.6242
 5113TIP3    H136974   6.361   5.067   1.385 -0.6347 -0.8036  0.7282
 5113TIP3    H236975   6.269   5.057   1.264  0.5957  0.3836 -0.3384
 5114TIP3   OH236976   4.202   2.039   0.060 -0.2578 -0.8698 -0.3151
 5114TIP3    H136977   4.194   1.968   0.123 -1.7741 -1.8880 -1.5663
 5114TIP3    H236978   4.295   2.038   0.034 -0.2691 -2.5551 -0.4409
 5115TIP3   OH236979   6.323   4.734   1.690 -0.1926  0.3546  0.0132
 5115TIP3    H136980   6.258   4.802   1.675 -1.7132 -0.8407  0.8560
 5115TIP3    H236981   6.292   4.687   1.768  2.0846  0.1812  0.9008
 5116TIP3   OH236982   0.670   5.996   7.229 -0.0043  0.4834  0.8042
 5116TIP3    H136983   0.667   6.091   7.223  2.0752  0.6490  1.4462
 5116TIP3    H236984   0.625   5.965   7.150 -0.8666  1.9811  0.6827
 5117TIP3   OH236985   6.626   0.965   0.520  0.1389  0.0707  0.0676
 5117TIP3    H136986   6.574   0.980   0.441 -0.1104 -1.4731 -0.1007
 5117TIP3    H236987   6.580   1.012   0.589 -0.5889  0.0509 -0.3897
 5118TIP3   OH236988   3.889   2.349   8.551  0.1425  0.2044 -0.0680
 5118TIP3    H136989   3.948   2.314   8.485 -0.5412 -0.3819 -0.3768
 5118TIP3    H236990   3.924   2.435   8.571  0.4162  0.3529 -1.1274
 5119TIP3   OH236991   6.394   0.834   8.269 -0.0455  0.5912 -0.1547
 5119TIP3    H136992   6.317   0.793   8.231  0.8181 -0.5048 -0.7622
 5119TIP3    H236993   6.417   0.904   8.207 -0.6884  1.0903  0.1615
 5120TIP3   OH236994   2.075   4.075   0.404 -0.0823 -0.0608 -0.1946
 5120TIP3    H136995   2.047   3.987   0.378  1.4565 -0.1954 -1.5785
 5120TIP3    H236996   2.002   4.132   0.380 -0.8778 -0.8838  0.2358
 5121TIP3   OH236997   0.882   4.079   0.876  0.4256  0.3370 -0.4066
 5121TIP3    H136998   0.827   4.082   0.798  0.0190  1.5266 -0.0835
 5121TIP3    H236999   0.839   4.016   0.933 -0.2162  0.7393 -0.4417
 5122TIP3   OH237000   1.716   1.917   8.040 -0.0202 -0.0092 -0.0281
 5122TIP3    H137001   1.802   1.952   8.017  0.6007 -1.1692  0.4533
 5122TIP3    H237002   1.658   1.946   7.969  0.1067  3.1239  0.9792
 5123TIP3   OH237003   3.971   0.525   8.230 -0.7676 -0.4643 -0.3247
 5123TIP3    H137004   4.055   0.503   8.271 -1.5285 -1.8538  0.5816
 5123TIP3    H237005   3.988   0.521   8.136  0.5955  1.0271 -0.1851
 5124TIP3   OH237006   6.514   6.583   8.492  0.4793  0.0392 -0.5395
 5124TIP3    H137007   6.605   6.609   8.507 -0.1269  1.4467  0.9889
 5124TIP3    H237008   6.510   6.492   8.520  0.8089  0.8052  2.3083
 5125TIP3   OH237009   5.787   1.420   7.623 -0.0237 -0.5854  0.3612
 5125TIP3    H137010   5.778   1.490   7.688  1.1490 -1.3424  1.3807
 5125TIP3    H237011   5.799   1.340   7.675  0.0228 -1.3502 -0.7868
 5126TIP3   OH237012   3.737   5.242   0.106  0.2010  0.1630  0.0439
 5126TIP3    H137013   3.686   5.256   0.026  0.4547 -0.5225 -0.2447
 5126TIP3    H237014   3.684   5.182   0.158  0.4814 -0.1628 -0.0421
 5127TIP3   OH237015   5.224   2.599   7.507 -0.1525 -0.1987  0.0508
 5127TIP3    H137016   5.211   2.666   7.440 -1.6635  0.1172  0.6166
 5127TIP3    H237017   5.136   2.581   7.541  0.2794 -2.0658  0.3131
 5128TIP3   OH237018   1.812   4.977   7.850 -0.0496  0.1937  0.3931
 5128TIP3    H137019   1.868   4.920   7.796 -1.4455 -2.2004  1.3076
 5128TIP3    H237020   1.857   4.983   7.934 -0.0145  0.2241  0.3719
 5129TIP3   OH237021   1.580   0.612   0.116  0.4094 -0.4897  0.0803
 5129TIP3    H137022   1.540   0.581   0.198  1.0533  1.1866  1.0747
 5129TIP3    H237023   1.529   0.689   0.093  1.9595  0.6869  0.4433
 5130TIP3   OH237024   2.334   5.968   2.976  0.0805 -0.1185 -0.6079
 5130TIP3    H137025   2.359   6.013   3.057  0.0541 -0.9067 -0.1572
 5130TIP3    H237026   2.254   5.920   2.998 -1.5961  1.9046 -1.8741
 5131TIP3   OH237027   0.179   3.981   1.141  0.0523 -0.1182  0.2258
 5131TIP3    H137028   0.179   3.886   1.129 -0.8694  0.1046 -2.0778
 5131TIP3    H237029   0.147   4.016   1.058  1.0594  2.2624  0.7462
 5132TIP3   OH237030   0.604   4.132   7.509  0.1452  0.0387 -0.0833
 5132TIP3    H137031   0.576   4.041   7.513  1.1610 -0.2930 -0.1302
 5132TIP3    H237032   0.599   4.162   7.600  1.1242 -0.4968  0.1639
 5133TIP3   OH237033   6.175   3.937   8.136  0.4088 -0.1024  0.2263
 5133TIP3    H137034   6.216   3.851   8.145  0.3218 -0.0261  1.5162
 5133TIP3    H237035   6.216   3.975   8.059  4.0640  0.6396  2.3029
 5134TIP3   OH237036   2.132   4.138   8.268  0.2710  0.1166  0.4300
 5134TIP3    H137037   2.048   4.166   8.304 -1.3203 -1.3687 -1.8193
 5134TIP3    H237038   2.144   4.049   8.301  0.4479 -0.0381 -0.0425
 5135TIP3   OH237039   6.215   3.274   1.704 -0.4065  0.6805 -0.5769
 5135TIP3    H137040   6.193   3.292   1.795  1.7468  0.3519  0.0858
 5135TIP3    H237041   6.299   3.319   1.691 -1.0941  1.4756 -2.6934
 5136TIP3   OH237042   0.557   2.719   8.458  0.1477 -0.4253 -0.4813
 5136TIP3    H137043   0.584   2.661   8.387  0.8841 -1.5996  0.7056
 5136TIP3    H237044   0.633   2.775   8.474 -0.6316  1.0757 -1.7620
 5137TIP3   OH237045   3.390   4.769   0.674 -0.2354 -0.7443  0.2233
 5137TIP3    H137046   3.478   4.780   0.709 -0.6447 -1.2454  1.4554
 5137TIP3    H237047   3.344   4.849   0.701  0.0871 -0.0147 -1.2797
 5138TIP3   OH237048   3.043   4.940   0.994 -0.6906  0.5719 -0.3982
 5138TIP3    H137049   2.999   4.968   1.074  0.4087  1.2220 -0.0095
 5138TIP3    H237050   2.975   4.894   0.944 -1.6097  0.9233  0.5088
 5139TIP3   OH237051   2.952   6.216   8.371 -0.2914 -0.1509  0.2887
 5139TIP3    H137052   2.885   6.174   8.425 -0.6014 -0.5942 -0.4150
 5139TIP3    H237053   2.962   6.158   8.296  0.2951  0.3312 -0.0202
 5140TIP3   OH237054   4.768   5.848   2.087  0.0525  0.5082  0.3991
 5140TIP3    H137055   4.728   5.806   2.163  0.6512 -0.5117  0.1757
 5140TIP3    H237056   4.858   5.815   2.086  0.7963  2.4444  0.6604
 5141TIP3   OH237057   3.549   3.133   8.525  0.2897  0.3544  0.6507
 5141TIP3    H137058   3.569   3.113   8.617  0.1947  1.1068  0.8408
 5141TIP3    H237059   3.509   3.220   8.527 -2.0449 -0.6311  0.1562
 5142TIP3   OH237060   2.645   0.386   2.004 -0.0327  0.1723  0.4328
 5142TIP3    H137061   2.645   0.452   1.935 -0.7273  0.7360  0.9520
 5142TIP3    H237062   2.558   0.393   2.044  0.3361 -0.1735  1.3269
 5143TIP3   OH237063   2.527   0.991   2.746 -0.1491 -0.1078 -0.1767
 5143TIP3    H137064   2.488   1.063   2.697  3.7300  0.7401 -2.3955
 5143TIP3    H237065   2.543   1.027   2.833 -1.7298  0.3280 -0.0216
 5144TIP3   OH237066   0.742   4.208   7.065  0.3698  0.2133 -0.3658
 5144TIP3    H137067   0.819   4.182   7.015 -1.1651 -0.8237 -2.3678
 5144TIP3    H237068   0.737   4.303   7.055  1.0536  0.2179 -0.7096
 5145TIP3   OH237069   1.848   3.305   7.072  0.3666 -0.1181 -0.0410
 5145TIP3    H137070   1.908   3.300   7.146 -0.7261  1.0226  0.9818
 5145TIP3    H237071   1.774   3.250   7.098 -0.7855  1.6213  0.5182
 5146TIP3   OH237072   2.548   5.120   7.665  0.2518  0.3376  0.6389
 5146TIP3    H137073   2.641   5.105   7.646  0.3549  0.2543  1.1916
 5146TIP3    H237074   2.530   5.207   7.628  0.8500  0.8584  1.5336
 5147TIP3   OH237075   2.145   1.749   2.784  0.6344  0.1185  0.0790
 5147TIP3    H137076   2.223   1.780   2.738  0.7108 -1.9192 -1.3155
 5147TIP3    H237077   2.085   1.722   2.715  0.5348 -2.5554  1.0749
 5148TIP3   OH237078   1.547   6.652   0.681 -0.0321 -0.9430  0.1728
 5148TIP3    H137079   1.577   6.604   0.603 -0.9821  1.3617 -1.7268
 5148TIP3    H237080   1.554   6.744   0.657 -3.1452 -0.1764  1.7037
 5149TIP3   OH237081   0.664   5.832   7.429 -0.1010 -0.0976 -0.3634
 5149TIP3    H137082   0.725   5.853   7.500 -0.2767 -1.4044  0.2098
 5149TIP3    H237083   0.688   5.892   7.359  1.5959 -0.3069 -0.0149
 5150TIP3   OH237084   4.003   1.542   3.159  0.0144 -0.5211  1.4266
 5150TIP3    H137085   4.039   1.621   3.117  1.9225 -0.4911  2.9537
 5150TIP3    H237086   3.921   1.572   3.199 -0.9964 -0.1685 -0.7841
 5151TIP3   OH237087   3.627   3.330   1.284  0.1538  0.2741  0.3531
 5151TIP3    H137088   3.657   3.309   1.373  0.7754 -1.0681 -0.1507
 5151TIP3    H237089   3.704   3.315   1.229 -1.0766 -2.1545 -0.8324
 5152TIP3   OH237090   2.437   5.236   1.987 -0.4180 -0.0945 -0.0133
 5152TIP3    H137091   2.393   5.277   1.912  0.0552  0.8879  0.2353
 5152TIP3    H237092   2.515   5.288   2.001 -0.3645 -0.4263  1.0082
 5153TIP3   OH237093   4.298   2.219   2.167  0.5783 -0.0494  0.3972
 5153TIP3    H137094   4.326   2.310   2.166 -0.7946  0.3877 -0.7501
 5153TIP3    H237095   4.203   2.222   2.171  0.5057 -1.4238  0.3148
 5154TIP3   OH237096   4.764   0.060   8.306 -0.2335  0.2623 -0.2375
 5154TIP3    H137097   4.780  -0.033   8.289 -1.2398 -0.4250  2.2223
 5154TIP3    H237098   4.836   0.105   8.261  1.5110 -1.8462  0.2686
 5155TIP3   OH237099   5.176   1.079   0.304  0.2740  0.2000 -0.0084
 5155TIP3    H137100   5.111   1.052   0.239  0.8023  0.9241 -0.8697
 5155TIP3    H237101   5.255   1.029   0.280  0.8624  1.4362 -0.7828
 5156TIP3   OH237102   0.876   0.284   7.610  0.5062 -0.7368  0.0440
 5156TIP3    H137103   0.909   0.300   7.698  1.0174 -1.6940  0.0422
 5156TIP3    H237104   0.859   0.190   7.608 -0.8734 -0.4887 -0.4223
 5157TIP3   OH237105   5.116   1.635   1.769 -0.3537  0.0346 -0.0789
 5157TIP3    H137106   5.127   1.688   1.848 -1.9233 -1.0430  0.9036
 5157TIP3    H237107   5.024   1.607   1.771 -0.4897  0.0851 -2.3693
 5158TIP3   OH237108   3.084   3.015   1.910 -0.3603  0.0806  0.2008
 5158TIP3    H137109   3.119   2.961   1.839  0.9066 -0.0810  0.9220
 5158TIP3    H237110   3.158   3.069   1.938 -2.0647  3.8770 -1.9327
 5159TIP3   OH237111   0.329   1.790   6.853  0.2735  0.0096  0.6769
 5159TIP3    H137112   0.320   1.720   6.917 -1.9114  0.4026  0.8699
 5159TIP3    H237113   0.264   1.855   6.879 -0.3570  0.3996 -1.6347
 5160TIP3   OH237114   5.020   5.770   2.700 -0.1355  0.4781 -0.2652
 5160TIP3    H137115   5.102   5.727   2.725  0.8628  2.8763  0.9771
 5160TIP3    H237116   4.974   5.782   2.783 -1.1382  0.3266 -0.7932
 5161TIP3   OH237117   0.664   6.438   6.868  0.4232  0.1243 -0.0343
 5161TIP3    H137118   0.652   6.530   6.893  1.8400  0.1656  0.5676
 5161TIP3    H237119   0.754   6.418   6.894 -0.1779 -1.7272  0.7236
 5162TIP3   OH237120   6.780   0.297   6.465  0.2268  0.1649  0.4089
 5162TIP3    H137121   6.786   0.326   6.557 -0.0256  0.2691  0.3923
 5162TIP3    H237122   6.868   0.264   6.446  0.0194 -0.7392  0.9740
 5163TIP3   OH237123   5.172   5.520   2.063 -0.4742  0.3163 -0.7244
 5163TIP3    H137124   5.135   5.437   2.033  2.1477 -1.0637 -0.4922
 5163TIP3    H237125   5.235   5.544   1.995 -0.0795  1.2841 -0.0448
 5164TIP3   OH237126   0.885   6.251   1.857  0.5822  0.1478 -0.4433
 5164TIP3    H137127   0.794   6.282   1.865  1.0857  1.6189 -0.1339
 5164TIP3    H237128   0.915   6.285   1.773  1.9719  2.9016  1.0324
 5165TIP3   OH237129   4.512   2.123   7.603  0.0369  0.1740 -0.4572
 5165TIP3    H137130   4.532   2.178   7.527  3.7529 -0.9360 -0.4655
 5165TIP3    H237131   4.502   2.035   7.567 -0.2322 -0.0405  0.1405
 5166TIP3   OH237132   0.369   2.383   0.951 -0.3342 -0.1330 -0.3406
 5166TIP3    H137133   0.452   2.430   0.942 -0.2507 -0.3553 -0.7972
 5166TIP3    H237134   0.321   2.405   0.871 -0.6113 -0.2078 -0.1951
 5167TIP3   OH237135   3.476   1.094   1.006 -0.3205  0.4695  0.5605
 5167TIP3    H137136   3.482   1.185   1.037 -2.2515  0.7790  0.1296
 5167TIP3    H237137   3.555   1.052   1.041  0.0470  2.0274  1.7226
 5168TIP3   OH237138   6.216   5.923   7.740 -0.2029 -0.7405 -0.1472
 5168TIP3    H137139   6.253   5.945   7.655  0.1973  0.0880  0.2272
 5168TIP3    H237140   6.122   5.941   7.731  0.1144  1.4386  0.1888
 5169TIP3   OH237141   0.404   3.086   7.734  0.0695  0.0026  0.2381
 5169TIP3    H137142   0.415   3.094   7.829  0.2043  2.4994  0.0836
 5169TIP3    H237143   0.343   3.157   7.712 -1.4676 -1.7275 -1.3242
 5170TIP3   OH237144   2.949   5.962   8.240  0.2024 -0.7863 -0.1340
 5170TIP3    H137145   2.928   5.887   8.184  3.7566 -1.4226 -0.8968
 5170TIP3    H237146   3.045   5.964   8.241  0.2587  1.6358  2.7823
 5171TIP3   OH237147   1.174   4.542   1.043  0.0614  0.1509  0.3796
 5171TIP3    H137148   1.124   4.513   0.967  0.8835 -0.4234  0.0544
 5171TIP3    H237149   1.175   4.638   1.036 -0.2999  0.1260 -0.0416
 5172TIP3   OH237150   2.378   2.787   7.982  0.5349 -0.3440  0.6220
 5172TIP3    H137151   2.447   2.720   7.973  0.2789 -0.4442 -0.8419
 5172TIP3    H237152   2.298   2.741   7.958  0.2023  0.2207  0.6583
 5173TIP3   OH237153   5.852   5.664   2.813  0.2916 -0.0671  0.1119
 5173TIP3    H137154   5.945   5.677   2.829 -0.1328  0.8373  2.0929
 5173TIP3    H237155   5.831   5.582   2.859 -0.0657  0.2471  0.5229
 5174TIP3   OH237156   0.644   4.824   2.407 -0.4451 -0.3340  0.3396
 5174TIP3    H137157   0.624   4.882   2.334  2.1388  0.5537  0.2275
 5174TIP3    H237158   0.701   4.756   2.370 -1.8290 -1.8808  0.8870
 5175TIP3   OH237159   3.657   4.420   0.490  0.0164 -0.0595  0.0971
 5175TIP3    H137160   3.712   4.342   0.499 -0.3421 -0.3016  0.2289
 5175TIP3    H237161   3.617   4.411   0.403 -0.5370 -0.3635  0.3762
 5176TIP3   OH237162   5.176   5.133   7.774  0.3484  0.4671  0.0767
 5176TIP3    H137163   5.237   5.177   7.835 -0.0815  0.8303  0.2476
 5176TIP3    H237164   5.233   5.086   7.714  0.8416  1.6705 -0.4228
 5177TIP3   OH237165   5.710   2.189   8.447  0.2185 -0.6077 -0.4864
 5177TIP3    H137166   5.638   2.187   8.385  0.2555 -1.5763 -0.5210
 5177TIP3    H237167   5.762   2.265   8.421 -0.6997  0.0200 -0.5453
 5178TIP3   OH237168   0.251   6.662   7.530  0.6349 -0.0967  0.4172
 5178TIP3    H137169   0.225   6.590   7.587 -2.2745  2.8601  3.2731
 5178TIP3    H237170   0.177   6.673   7.470  0.4124  1.2641  0.9120
 5179TIP3   OH237171   5.679   4.999   1.439  0.1174  0.3304 -0.2922
 5179TIP3    H137172   5.696   4.979   1.347  1.2862  0.4345 -0.1140
 5179TIP3    H237173   5.682   4.915   1.483  0.2690  0.3597 -0.2461
 5180TIP3   OH237174   3.859   2.993   2.256 -0.4326 -0.0739  0.2387
 5180TIP3    H137175   3.768   3.003   2.230 -1.1844 -0.6776  2.4335
 5180TIP3    H237176   3.879   2.901   2.240 -0.4043 -0.0827  0.3246
 5181TIP3   OH237177   4.961   3.269   7.012 -0.1947 -0.2534 -0.8479
 5181TIP3    H137178   4.893   3.231   6.956 -0.2970  0.2180 -1.0507
 5181TIP3    H237179   4.995   3.343   6.961  1.7053 -1.5288 -1.5363
 5182TIP3   OH237180   0.458   3.440   2.881 -0.2718 -0.2282  0.4646
 5182TIP3    H137181   0.499   3.360   2.848 -1.5822  0.2287 -2.5912
 5182TIP3    H237182   0.364   3.424   2.873 -0.5782  1.0911  1.2072
 5183TIP3   OH237183   2.133   2.614   0.589 -0.3543 -0.7689 -0.1823
 5183TIP3    H137184   2.086   2.696   0.604  1.4625  0.3946 -0.6081
 5183TIP3    H237185   2.108   2.559   0.663 -0.5591  0.6637  0.8668
 5184TIP3   OH237186   0.358   4.336   0.015  0.2841 -0.7040 -1.1810
 5184TIP3    H137187   0.334   4.378  -0.067  1.2030 -1.1276 -1.6827
 5184TIP3    H237188   0.406   4.258  -0.011  2.5787  0.3047 -0.2767
 5185TIP3   OH237189   4.008   1.850   2.379  0.7377 -0.1141  0.4678
 5185TIP3    H137190   4.057   1.863   2.298  0.0024  2.7446  0.3744
 5185TIP3    H237191   3.928   1.806   2.351  1.0931 -0.4109 -0.1164
 5186TIP3   OH237192   4.647   3.645   0.846  0.6496  0.5570 -0.7805
 5186TIP3    H137193   4.677   3.725   0.803  0.8991  1.2660  0.6353
 5186TIP3    H237194   4.718   3.583   0.833  1.8608  1.5511  0.6883
 5187TIP3   OH237195   2.547   1.119   2.984 -0.3173 -0.3927 -0.0412
 5187TIP3    H137196   2.610   1.191   2.985 -1.6846  0.8748 -0.7155
 5187TIP3    H237197   2.517   1.112   3.075  0.0852 -0.3589  0.0971
 5188TIP3   OH237198   0.117   4.380   2.614 -0.3474  0.4624  0.7192
 5188TIP3    H137199   0.033   4.400   2.656 -1.2859 -0.5191 -0.6055
 5188TIP3    H237200   0.115   4.431   2.533 -0.5925 -1.1254 -0.3012
 5189TIP3   OH237201   2.794   0.120   1.414 -0.3972 -0.4022 -0.3600
 5189TIP3    H137202   2.865   0.112   1.350  0.3770  0.5447  0.3405
 5189TIP3    H237203   2.742   0.194   1.383  0.6874  0.8579  0.7171
 5190TIP3   OH237204   2.798   3.771   1.248 -0.1255  0.2509  0.3145
 5190TIP3    H137205   2.879   3.775   1.298  0.6682 -3.6275 -0.3233
 5190TIP3    H237206   2.732   3.741   1.310 -1.1667  3.1530  0.7719
 5191TIP3   OH237207   6.115   4.413   2.493 -0.5323 -0.1809  0.2539
 5191TIP3    H137208   6.120   4.319   2.506  0.0203  0.0041  1.5211
 5191TIP3    H237209   6.201   4.438   2.460 -1.1837 -0.3155 -1.6482
 5192TIP3   OH237210   6.830   1.608   2.481 -0.4631  0.3899 -0.3593
 5192TIP3    H137211   6.776   1.638   2.555  0.4761 -0.1820  0.5849
 5192TIP3    H237212   6.829   1.513   2.488  0.3995  0.3629 -0.5258
 5193TIP3   OH237213   4.952   0.126   8.520 -0.2118  0.1581  0.2169
 5193TIP3    H137214   4.981   0.046   8.478 -0.4745  0.3820 -0.4012
 5193TIP3    H237215   4.858   0.113   8.534 -0.1431  0.1217  0.6549
 5194TIP3   OH237216   2.812   3.569   1.801 -0.0516  0.4624  0.1292
 5194TIP3    H137217   2.889   3.587   1.746  0.6557 -1.3479  0.4567
 5194TIP3    H237218   2.803   3.473   1.798  0.3072  0.2197  3.5277
 5195TIP3   OH237219   1.293   5.872   8.036 -0.2878 -0.2134  0.6458
 5195TIP3    H137220   1.305   5.823   7.954  0.1050 -0.5592  0.9046
 5195TIP3    H237221   1.225   5.824   8.083 -1.1868  0.5183  0.1220
 5196TIP3   OH237222   0.966   2.806   7.797  0.2242 -0.2594 -0.0484
 5196TIP3    H137223   0.964   2.793   7.892 -0.1146 -0.0587 -0.0301
 5196TIP3    H237224   0.945   2.720   7.761 -2.1503  0.2047  0.0758
 5197TIP3   OH237225   6.486   5.654   7.733  0.6565  0.3760  0.1363
 5197TIP3    H137226   6.483   5.736   7.783  0.8475  1.4032 -1.4618
 5197TIP3    H237227   6.567   5.661   7.681 -0.4556  0.2199 -1.6900
 5198TIP3   OH237228   3.652   4.705   0.414  0.5730  0.3294 -0.6106
 5198TIP3    H137229   3.636   4.620   0.456 -0.0476  0.8991  0.3282
 5198TIP3    H237230   3.726   4.742   0.461 -0.0395  0.9095 -0.0693
 5199TIP3   OH237231   4.601   1.721   0.154 -0.2121  0.3607  0.2765
 5199TIP3    H137232   4.641   1.772   0.225 -0.2234  2.9445 -1.4393
 5199TIP3    H237233   4.640   1.756   0.074 -1.8096 -0.9305 -1.1505
 5200TIP3   OH237234   2.154   6.311   0.464 -0.5949  0.3984  0.1319
 5200TIP3    H137235   2.067   6.296   0.425 -0.5285 -1.4590  0.6380
 5200TIP3    H237236   2.152   6.264   0.547  1.3106 -0.7714 -0.4227
 5201TIP3   OH237237   2.686   4.485   1.703  0.6179  0.6472  0.3765
 5201TIP3    H137238   2.648   4.492   1.616 -2.2736 -0.0432  1.4776
 5201TIP3    H237239   2.699   4.576   1.731 -0.2222  0.9100 -0.0584
 5202TIP3   OH237240   6.108   1.267   8.543  0.0866 -0.1827 -0.0324
 5202TIP3    H137241   6.144   1.345   8.587  1.2056 -0.0705 -1.1014
 5202TIP3    H237242   6.065   1.218   8.614 -0.6177  1.3726  0.6706
 5203TIP3   OH237243   0.411   1.180   8.525 -0.0324 -0.3890 -0.3440
 5203TIP3    H137244   0.491   1.220   8.490 -0.4253  0.5749 -0.1711
 5203TIP3    H237245   0.349   1.182   8.452 -0.1779 -0.3163 -0.2200
 5204TIP3   OH237246   2.662   6.828   7.623 -0.5652 -0.4293 -0.1942
 5204TIP3    H137247   2.729   6.891   7.595  0.4230 -1.9645 -1.4148
 5204TIP3    H237248   2.612   6.809   7.543 -0.3658 -1.7612 -0.0098
 5205TIP3   OH237249   0.531   2.835   0.606 -0.8266  0.2690 -0.5016
 5205TIP3    H137250   0.479   2.895   0.552 -1.4494  0.3200  0.1483
 5205TIP3    H237251   0.527   2.752   0.560  0.5604  0.8435 -1.7495
 5206TIP3   OH237252   3.344   2.056   1.282 -0.0037 -0.1515 -0.0407
 5206TIP3    H137253   3.285   2.081   1.211  1.2055  1.4041 -0.5426
 5206TIP3    H237254   3.309   1.973   1.313 -1.5396 -0.0463 -1.3463
 5207TIP3   OH237255   1.757   4.984   1.595  0.4147  0.2552 -0.2823
 5207TIP3    H137256   1.809   4.973   1.674  2.1978  0.3729 -1.3843
 5207TIP3    H237257   1.736   5.078   1.593 -2.3801 -0.2324  1.6318
 5208TIP3   OH237258   0.479   0.653   0.021 -0.4014  0.0782 -0.7918
 5208TIP3    H137259   0.445   0.610   0.099  1.9330  1.0513  0.8664
 5208TIP3    H237260   0.445   0.601  -0.052 -0.2964 -2.6308  0.9693
 5209TIP3   OH237261   2.752   3.906   2.476 -0.5836  0.4340  0.1815
 5209TIP3    H137262   2.657   3.909   2.466 -0.6470  1.2610  0.8617
 5209TIP3    H237263   2.768   3.944   2.563  0.4432  1.5127 -0.4464
 5210TIP3   OH237264   4.929   2.961   1.691 -0.1106  0.1137  0.3995
 5210TIP3    H137265   4.976   3.039   1.662 -0.7243  0.0383 -0.8868
 5210TIP3    H237266   4.973   2.934   1.771  0.7899  1.1645  0.2725
 5211TIP3   OH237267   6.387   1.388   1.275 -0.5021 -0.0778  0.8033
 5211TIP3    H137268   6.321   1.409   1.341 -0.0156  1.3445  0.8586
 5211TIP3    H237269   6.337   1.351   1.202 -1.3775  0.9208  0.8683
 5212TIP3   OH237270   3.290   3.113   0.473 -0.5004  0.2582 -0.1202
 5212TIP3    H137271   3.336   3.168   0.409  1.1953 -0.0338  0.8103
 5212TIP3    H237272   3.240   3.175   0.526  1.5466  1.0184  1.0494
 5213TIP3   OH237273   0.467   3.384   7.568 -0.4497  0.7085 -0.2034
 5213TIP3    H137274   0.500   3.466   7.605 -0.9474 -0.0337  2.0616
 5213TIP3    H237275   0.529   3.317   7.599 -0.4591  0.1074 -1.4069
 5214TIP3   OH237276   3.959   6.043   2.625 -0.0065 -1.2574  0.0677
 5214TIP3    H137277   3.982   6.011   2.712  0.1537  0.1196  0.5537
 5214TIP3    H237278   4.005   6.126   2.617  0.0275 -1.3920 -1.3682
 5215TIP3   OH237279   1.760   2.800   0.130 -0.0262  0.2163 -0.1706
 5215TIP3    H137280   1.768   2.706   0.113  2.5024 -0.0988  2.0246
 5215TIP3    H237281   1.723   2.806   0.218 -0.0975  1.2663 -0.2610
 5216TIP3   OH237282   4.813   1.147   6.748  0.1898 -0.1798  0.1208
 5216TIP3    H137283   4.787   1.149   6.840  1.8717  1.2606  0.6270
 5216TIP3    H237284   4.801   1.055   6.721 -0.8660 -0.4991  1.5972
 5217TIP3   OH237285   1.897   2.837   1.889 -0.3305  0.0403 -0.3188
 5217TIP3    H137286   1.921   2.929   1.895 -0.8128  0.0889  1.6283
 5217TIP3    H237287   1.812   2.837   1.844 -0.0076  0.4730 -0.9341
 5218TIP3   OH237288   6.379   3.396   0.844 -0.1938 -0.4359  0.2045
 5218TIP3    H137289   6.465   3.380   0.883  0.1602  0.9602  0.0610
 5218TIP3    H237290   6.376   3.340   0.767  0.3911 -0.8390  0.4700
 5219TIP3   OH237291   4.968   1.366   6.638  0.3883 -0.4452 -0.1554
 5219TIP3    H137292   5.023   1.288   6.634  0.2650 -0.4999 -0.8911
 5219TIP3    H237293   4.879   1.332   6.641  0.3707 -0.3471  0.4275
 5220TIP3   OH237294   6.338   0.354   0.901  0.3115  0.1426 -0.0129
 5220TIP3    H137295   6.298   0.296   0.836  2.0158  0.2829 -1.2272
 5220TIP3    H237296   6.288   0.435   0.894  0.7265  0.2983 -1.4769
 5221TIP3   OH237297   4.993   0.971   1.839  0.4094 -0.2523  0.2247
 5221TIP3    H137298   5.002   0.977   1.934  1.1337 -1.7510  0.2684
 5221TIP3    H237299   4.909   0.928   1.825 -0.3964  1.2959  0.1284
 5222TIP3   OH237300   6.108   6.514   0.641 -0.5278 -0.4684  0.2965
 5222TIP3    H137301   6.028   6.553   0.677  0.5279  1.8310  0.3524
 5222TIP3    H237302   6.179   6.558   0.688  0.8076 -2.0753 -0.1187
 5223TIP3   OH237303   1.581   1.521   7.940  0.9604 -0.2994 -0.5429
 5223TIP3    H137304   1.559   1.585   7.871 -0.1531 -0.6346 -0.5241
 5223TIP3    H237305   1.631   1.572   8.004 -0.1984  0.6777 -0.3581
 5224TIP3   OH237306   6.480   4.966   7.817 -0.1950  0.4087 -0.2309
 5224TIP3    H137307   6.402   5.021   7.820 -0.4415  0.1928 -1.7377
 5224TIP3    H237308   6.446   4.878   7.800  0.3455  0.2703 -0.6342
 5225TIP3   OH237309   3.164   5.167   3.009 -0.0532 -0.0413  0.3115
 5225TIP3    H137310   3.096   5.209   3.062  1.0553  1.9243  0.3021
 5225TIP3    H237311   3.121   5.147   2.926 -1.2600 -1.2077  1.1943
 5226TIP3   OH237312   6.501   2.319   1.765 -0.3508  0.9752  0.5861
 5226TIP3    H137313   6.417   2.357   1.738  0.2078  0.1365 -2.8513
 5226TIP3    H237314   6.493   2.226   1.744  1.1186  0.7344  1.0202
 5227TIP3   OH237315   3.779   1.530   0.146  0.2650 -0.1489  0.6412
 5227TIP3    H137316   3.731   1.557   0.067 -0.3181  1.9139  1.6177
 5227TIP3    H237317   3.735   1.450   0.174  0.1700 -0.6445 -0.8545
 5228TIP3   OH237318   4.222   4.973   8.442  0.2900  0.0761 -0.1506
 5228TIP3    H137319   4.278   5.010   8.374  1.8135  1.2703  1.6603
 5228TIP3    H237320   4.282   4.952   8.513 -1.3424 -0.4140  1.1376
 5229TIP3   OH237321   5.683   0.722   0.664  0.6416 -0.0342  0.2002
 5229TIP3    H137322   5.730   0.683   0.591 -0.5464  1.0077 -1.1675
 5229TIP3    H237323   5.593   0.731   0.633 -0.1782 -0.6609  2.2279
 5230TIP3   OH237324   4.357   1.789   1.889  0.1167 -0.0237  0.0914
 5230TIP3    H137325   4.350   1.885   1.894 -1.8190 -0.1639  2.2415
 5230TIP3    H237326   4.367   1.761   1.980  1.1675 -1.8683 -0.5385
 5231TIP3   OH237327   0.723   6.146   0.971  0.2059 -0.1217 -0.1965
 5231TIP3    H137328   0.761   6.234   0.968  0.6283 -0.3422 -2.2630
 5231TIP3    H237329   0.686   6.140   1.059 -0.0141  2.1961 -0.0674
 5232TIP3   OH237330   5.947   2.759   7.130 -0.0412 -0.0124 -0.2513
 5232TIP3    H137331   5.857   2.752   7.162  0.2303  1.0257  0.8092
 5232TIP3    H237332   5.998   2.784   7.207  1.0873 -0.1313 -0.9365
 5233TIP3   OH237333   4.867   0.174   7.609 -0.1124 -0.2226  0.2321
 5233TIP3    H137334   4.852   0.087   7.644  0.4268 -1.6122 -2.7030
 5233TIP3    H237335   4.799   0.186   7.543 -1.9777  2.8527  2.4494
 5234TIP3   OH237336   2.938   5.161   7.886  0.1072  0.0204  0.1926
 5234TIP3    H137337   3.004   5.161   7.955 -0.4391  1.7593  0.7735
 5234TIP3    H237338   2.855   5.143   7.931  0.1113 -2.0295 -0.5124
 5235TIP3   OH237339   5.357   1.481   2.443 -0.6704  0.3447  0.4271
 5235TIP3    H137340   5.263   1.487   2.458 -0.5112 -0.9928  2.2463
 5235TIP3    H237341   5.396   1.520   2.522  0.3115  0.5616 -0.1496
 5236TIP3   OH237342   6.036   6.888   7.483 -0.4017  0.4569 -0.6532
 5236TIP3    H137343   5.999   6.964   7.528 -0.8911  0.4732 -1.0762
 5236TIP3    H237344   5.960   6.839   7.453 -0.0925 -0.2641 -0.2868
 5237TIP3   OH237345   5.183   0.269   1.882  0.5845 -0.0257 -0.1801
 5237TIP3    H137346   5.121   0.299   1.948 -0.0457 -1.9528  0.1718
 5237TIP3    H237347   5.233   0.347   1.858 -1.5216  1.4476 -0.0023
 5238TIP3   OH237348   0.677   2.115   0.406  0.0553 -0.2632  0.0991
 5238TIP3    H137349   0.621   2.178   0.359 -1.0584 -0.5455  1.0066
 5238TIP3    H237350   0.636   2.030   0.390  1.0726 -0.6722 -0.4230
 5239TIP3   OH237351   3.576   4.019   2.272  0.3418  0.3852 -0.2781
 5239TIP3    H137352   3.501   3.960   2.274 -0.6139  1.5064 -1.2080
 5239TIP3    H237353   3.602   4.029   2.363 -0.8784  0.2643  0.0934
 5240TIP3   OH237354   1.544   1.119   6.819  0.3025 -0.6516 -0.3408
 5240TIP3    H137355   1.453   1.144   6.836  0.6539  0.4631  0.0308
 5240TIP3    H237356   1.594   1.198   6.838  1.3237 -1.1499 -0.8658
 5241TIP3   OH237357   6.760   6.646   8.337 -0.1171 -0.2915 -0.5445
 5241TIP3    H137358   6.814   6.575   8.372  0.0465  0.2781  0.4067
 5241TIP3    H237359   6.822   6.701   8.289 -0.3171 -0.9988 -1.6431
 5242TIP3   OH237360   3.493   0.584   8.252 -0.7176  0.3258 -0.2652
 5242TIP3    H137361   3.544   0.503   8.246  1.5986  1.5015  2.0043
 5242TIP3    H237362   3.538   0.645   8.195  1.0273  1.5755  2.2702
 5243TIP3   OH237363   1.611   6.310   2.729  0.6105 -0.5942 -0.8677
 5243TIP3    H137364   1.669   6.259   2.787  1.5955  0.4082 -0.9293
 5243TIP3    H237365   1.571   6.245   2.672  2.0862 -1.2876 -1.1670
 5244TIP3   OH237366   6.405   5.397   1.040 -0.1345 -0.0702  0.0371
 5244TIP3    H137367   6.355   5.416   0.961  0.6708  1.1882 -0.2041
 5244TIP3    H237368   6.443   5.481   1.066  1.8816 -0.9555  0.1645
 5245TIP3   OH237369   1.760   5.574   1.695 -0.2350 -0.0044 -0.4194
 5245TIP3    H137370   1.785   5.538   1.781  0.5727 -0.6147 -0.8889
 5245TIP3    H237371   1.790   5.508   1.633  1.3811  1.5094 -1.3333
 5246TIP3   OH237372   5.110   2.830   7.411  0.1163 -0.6563 -0.4796
 5246TIP3    H137373   5.093   2.908   7.358  1.3986  0.7442  1.0910
 5246TIP3    H237374   5.064   2.846   7.493  0.2580 -1.6577 -0.1909
 5247TIP3   OH237375   3.415   0.939   2.254  0.2457 -0.4824  0.4012
 5247TIP3    H137376   3.343   0.966   2.312 -1.0390 -1.0628 -0.8625
 5247TIP3    H237377   3.455   1.021   2.226  0.5858 -0.1770  1.7096
 5248TIP3   OH237378   5.468   6.925   7.642 -0.0057 -0.3055  0.0928
 5248TIP3    H137379   5.558   6.918   7.674  0.0980  1.2247  0.2083
 5248TIP3    H237380   5.433   7.001   7.687 -1.0217 -0.2435 -0.7677
 5249TIP3   OH237381   1.290   5.618   1.057  0.4859 -0.1846 -0.2188
 5249TIP3    H137382   1.257   5.640   0.970 -3.1724  0.1297  1.0658
 5249TIP3    H237383   1.313   5.525   1.051 -1.0986 -0.5471 -1.1752
 5250TIP3   OH237384   2.287   0.112   0.719  0.1570 -0.2834  0.0938
 5250TIP3    H137385   2.328   0.180   0.666  1.4259 -1.6237 -0.7441
 5250TIP3    H237386   2.227   0.067   0.659  1.4415 -1.6751 -0.2182
 5251TIP3   OH237387   6.368   6.152   1.692  0.8568 -0.5291  0.0763
 5251TIP3    H137388   6.409   6.233   1.661  1.8825 -0.8182  0.6378
 5251TIP3    H237389   6.415   6.130   1.772 -1.1033 -0.3187  1.3423
 5252TIP3   OH237390   1.132   1.028   3.014 -0.3344  0.3213  0.4390
 5252TIP3    H137391   1.073   0.975   2.960 -1.8655  1.3178  1.0803
 5252TIP3    H237392   1.117   1.118   2.986  3.2608  0.4688 -1.6411
 5253TIP3   OH237393   1.050   4.112   7.627 -0.7702 -0.2552  0.4030
 5253TIP3    H137394   1.085   4.201   7.617 -0.6704 -0.2347  0.9120
 5253TIP3    H237395   1.059   4.074   7.539 -1.1564  0.3551  0.0885
 5254TIP3   OH237396   3.918   5.564   7.073 -0.0721 -0.7720  0.0130
 5254TIP3    H137397   3.990   5.549   7.133  0.9499 -1.1280 -1.2500
 5254TIP3    H237398   3.839   5.546   7.124  0.7627 -1.1058  1.2082
 5255TIP3   OH237399   2.005   6.313   2.134  0.2455 -0.4769  0.0466
 5255TIP3    H137400   1.936   6.364   2.175  0.4831  0.8518 -1.1582
 5255TIP3    H237401   1.959   6.248   2.080 -0.0532 -0.7114  0.5838
 5256TIP3   OH237402   6.809   3.749   2.205  0.3505 -0.7174 -0.4332
 5256TIP3    H137403   6.805   3.834   2.249 -0.7741 -0.5980 -0.7371
 5256TIP3    H237404   6.746   3.695   2.251  0.6349 -1.2179 -0.6220
 5257TIP3   OH237405   0.184   6.553   1.942 -0.0419  0.2934 -0.0525
 5257TIP3    H137406   0.168   6.536   2.035  2.6831 -1.1853  0.2700
 5257TIP3    H237407   0.127   6.491   1.896  0.7184 -1.0685  0.7741
 5258TIP3   OH237408   1.751   6.901   7.472  0.9049  0.0953 -0.3181
 5258TIP3    H137409   1.669   6.947   7.451  0.3791 -0.1573  1.0730
 5258TIP3    H237410   1.794   6.957   7.537  0.4150 -1.1707  1.1429
 5259TIP3   OH237411   0.950   0.086   0.020  0.8578 -0.3157 -0.1516
 5259TIP3    H137412   0.907   0.113  -0.061 -0.7853 -0.6877  0.5584
 5259TIP3    H237413   0.975  -0.005   0.004  2.7830  0.3277 -1.0932
 5260TIP3   OH237414   0.599   1.054   7.553 -0.2943 -0.4296 -0.4706
 5260TIP3    H137415   0.506   1.054   7.533 -0.0422 -0.6668 -1.7514
 5260TIP3    H237416   0.611   0.978   7.611 -0.9969  0.0365  0.3000
 5261TIP3   OH237417   5.494   3.611   1.692  0.2619  0.0265  0.6422
 5261TIP3    H137418   5.433   3.630   1.763 -1.5497 -0.2309 -0.7591
 5261TIP3    H237419   5.506   3.516   1.695  1.5130  0.1781  1.5690
 5262TIP3   OH237420   4.594   5.008   0.511  0.3205  0.6152 -0.4160
 5262TIP3    H137421   4.602   5.098   0.477 -0.7047  0.6939 -0.4992
 5262TIP3    H237422   4.553   4.960   0.439  0.0389  0.2943 -0.0409
 5263TIP3   OH237423   5.312   6.202   6.748  0.5926  0.3889  0.3418
 5263TIP3    H137424   5.404   6.192   6.721  0.5484  1.6514 -0.3428
 5263TIP3    H237425   5.270   6.120   6.720  1.0852  0.6297 -1.2528
 5264TIP3   OH237426   1.904   1.840   6.946 -0.1743  0.1974 -0.1931
 5264TIP3    H137427   1.834   1.810   7.005  0.4789  1.1810  1.1496
 5264TIP3    H237428   1.897   1.935   6.948 -0.4684  0.2484 -2.1829
 5265TIP3   OH237429   4.343   1.307   1.697 -0.2550 -0.0163  0.1430
 5265TIP3    H137430   4.393   1.289   1.778 -0.5926 -0.0029  0.3559
 5265TIP3    H237431   4.375   1.242   1.635 -1.7145 -1.6498  1.0121
 5266TIP3   OH237432   2.112   2.643   1.788  0.2653  0.1857 -0.1120
 5266TIP3    H137433   2.174   2.663   1.718  0.7394  0.2362  0.3140
 5266TIP3    H237434   2.091   2.727   1.828  2.0189 -0.0483  1.4755
 5267TIP3   OH237435   4.300   2.219   8.369  0.1433  0.5607  0.9174
 5267TIP3    H137436   4.212   2.254   8.353 -0.3421 -0.0356  2.1647
 5267TIP3    H237437   4.290   2.124   8.359  0.4784  0.4299  1.7403
 5268TIP3   OH237438   4.991   5.644   1.771 -0.3072 -0.1936  0.0483
 5268TIP3    H137439   5.028   5.677   1.853 -0.7869 -0.2769  0.2988
 5268TIP3    H237440   4.989   5.721   1.714 -1.7869  0.3334  0.7591
 5269TIP3   OH237441   0.032   1.184   7.236  0.1989 -0.1253  0.1518
 5269TIP3    H137442  -0.002   1.108   7.283  0.0544 -0.1592 -0.0026
 5269TIP3    H237443   0.087   1.229   7.299 -0.9126  0.4672  0.7292
 5270TIP3   OH237444   6.778   2.855   7.757 -0.6797 -0.4235  0.1642
 5270TIP3    H137445   6.765   2.886   7.846  0.0706  0.0712  0.1157
 5270TIP3    H237446   6.764   2.761   7.761  0.9361 -0.6617  1.1543
 5271TIP3   OH237447   0.906   2.429   8.114 -0.5020 -0.2267  0.0178
 5271TIP3    H137448   0.953   2.377   8.179 -0.6676 -0.3765  0.0190
 5271TIP3    H237449   0.813   2.415   8.135 -0.5475  0.1312  0.0695
 5272TIP3   OH237450   6.090   6.217   8.269  0.6143  0.0775 -0.0394
 5272TIP3    H137451   6.161   6.275   8.240  0.1798  1.5220  1.6123
 5272TIP3    H237452   6.107   6.204   8.362 -1.3681  0.5989  0.4342
 5273TIP3   OH237453   2.050   4.282   7.638  0.1835  0.0921 -0.1451
 5273TIP3    H137454   2.026   4.337   7.564 -2.5663  0.5816  0.9625
 5273TIP3    H237455   2.093   4.206   7.599 -0.0232  0.9239 -2.1079
 5274TIP3   OH237456   3.259   2.140   0.269 -0.0964 -0.0438 -0.3588
 5274TIP3    H137457   3.277   2.233   0.253 -1.0374  0.3830  0.8690
 5274TIP3    H237458   3.201   2.140   0.345  2.0620 -1.7704  1.3862
 5275TIP3   OH237459   1.140   3.166   6.788 -0.3280 -0.2360 -0.0230
 5275TIP3    H137460   1.112   3.080   6.757  0.2674 -0.9192  1.2440
 5275TIP3    H237461   1.068   3.197   6.843  0.4049 -1.0157  1.4460
 5276TIP3   OH237462   1.847   4.685   1.661  0.0567 -0.5393  0.2931
 5276TIP3    H137463   1.815   4.719   1.577  1.6646 -2.4625 -1.2038
 5276TIP3    H237464   1.839   4.590   1.653 -0.0696 -0.7743  2.4998
 5277TIP3   OH237465   3.831   4.444   7.136 -0.0584 -0.2343 -0.6761
 5277TIP3    H137466   3.830   4.519   7.195 -0.8645  0.3208 -1.3823
 5277TIP3    H237467   3.916   4.450   7.092 -0.9534  1.5982 -2.3529
 5278TIP3   OH237468   5.872   6.760   7.096  0.3378 -0.0077  0.3827
 5278TIP3    H137469   5.787   6.783   7.135 -0.9015 -0.7874 -1.6821
 5278TIP3    H237470   5.849   6.712   7.017  2.7570 -1.1001  0.2769
 5279TIP3   OH237471   2.420   2.507   1.937 -0.0601  0.3826  0.2853
 5279TIP3    H137472   2.375   2.444   1.881  0.9924 -0.8142  0.7455
 5279TIP3    H237473   2.392   2.485   2.026  0.0089  0.8303  0.4218
 5280TIP3   OH237474   4.957   2.688   0.991 -0.2865  0.0981  0.4178
 5280TIP3    H137475   5.006   2.737   1.057  2.0390  0.8717 -1.7512
 5280TIP3    H237476   4.898   2.632   1.042  2.5608 -0.6016  3.2559
 5281TIP3   OH237477   3.315   5.206   2.616 -1.2042 -0.2017  0.5345
 5281TIP3    H137478   3.322   5.151   2.694 -0.6454 -0.4538  0.3145
 5281TIP3    H237479   3.354   5.289   2.642 -0.7415 -0.3849  0.4370
 5282TIP3   OH237480   2.253   4.497   7.927 -0.0612 -0.1583 -0.3704
 5282TIP3    H137481   2.309   4.569   7.958 -0.9509  0.3838  0.0346
 5282TIP3    H237482   2.312   4.422   7.919  0.4865  0.0526  1.3038
 5283TIP3   OH237483   4.303   1.326   0.075  0.6372 -0.3281 -0.6192
 5283TIP3    H137484   4.220   1.373   0.082  0.4820 -0.6929  0.1449
 5283TIP3    H237485   4.315   1.286   0.161  1.2076 -0.9413 -0.9718
 5284TIP3   OH237486   2.663   1.835   8.395  0.2513  0.2410  0.1435
 5284TIP3    H137487   2.688   1.780   8.469  0.1501 -1.0870 -0.7598
 5284TIP3    H237488   2.715   1.801   8.322 -1.1310  0.1686 -0.8487
 5285TIP3   OH237489   4.505   4.399   0.299 -0.1698  0.0598 -0.2027
 5285TIP3    H137490   4.431   4.449   0.334  0.5835  1.6546 -0.8259
 5285TIP3    H237491   4.583   4.441   0.337  0.4444 -2.3949  1.5074
 5286TIP3   OH237492   1.561   6.186   2.362  0.2489  0.0470  0.4857
 5286TIP3    H137493   1.562   6.136   2.443  0.5632  2.8417  2.3394
 5286TIP3    H237494   1.469   6.187   2.336  0.4853 -3.3728 -1.0132
 5287TIP3   OH237495   1.646   4.438   0.421  0.0201 -0.1779  0.1461
 5287TIP3    H137496   1.592   4.394   0.487 -0.0034  0.4294  0.5477
 5287TIP3    H237497   1.674   4.519   0.464 -0.6384  0.6134 -0.8596
 5288TIP3   OH237498   2.921   2.838   2.093  0.0772 -0.2172  0.1398
 5288TIP3    H137499   2.921   2.753   2.050 -0.7497 -0.3779  0.4392
 5288TIP3    H237500   2.957   2.898   2.028 -0.2189 -0.6304 -0.4114
 5289TIP3   OH237501   0.890   2.136   7.581  0.4257  0.0836 -0.0130
 5289TIP3    H137502   0.923   2.049   7.603  1.5618  0.7301  0.9645
 5289TIP3    H237503   0.806   2.142   7.625  1.2564  0.1958  1.6449
 5290TIP3   OH237504   1.276   0.762   7.088  0.4429  0.5658  0.2059
 5290TIP3    H137505   1.295   0.791   6.998  1.0624  1.0565  0.4856
 5290TIP3    H237506   1.248   0.841   7.133  1.7906  0.6911  0.8806
 5291TIP3   OH237507   4.784   2.025   6.850  0.2245  0.0238 -0.3938
 5291TIP3    H137508   4.759   1.965   6.780  1.4919  1.0654 -1.7728
 5291TIP3    H237509   4.876   2.045   6.834  0.4776  0.5218  1.4131
 5292TIP3   OH237510   3.642   0.885   0.106 -0.0795  0.0215 -0.2661
 5292TIP3    H137511   3.637   0.815   0.041 -0.0077  0.9263 -1.2860
 5292TIP3    H237512   3.589   0.854   0.179  1.9325 -2.1516  0.3858
 5293TIP3   OH237513   4.673   4.460   1.739 -0.1625 -0.8265 -0.5482
 5293TIP3    H137514   4.651   4.426   1.826  1.8413  0.2762  0.4639
 5293TIP3    H237515   4.734   4.395   1.702 -1.1286 -1.3719 -1.2337
 5294TIP3   OH237516   1.014   1.928   1.509 -0.4070  0.1066  0.0821
 5294TIP3    H137517   0.991   1.992   1.442  0.8857  1.9523  1.3378
 5294TIP3    H237518   1.064   1.861   1.462 -0.1491  0.9811 -0.9140
 5295TIP3   OH237519   4.404   2.656   7.501 -0.0655 -0.4388 -0.6270
 5295TIP3    H137520   4.401   2.628   7.592 -1.7732  0.1346 -0.4777
 5295TIP3    H237521   4.376   2.748   7.503  0.0551 -0.3646 -1.7182
 5296TIP3   OH237522   0.271   5.325   8.438 -0.4507 -0.2627 -0.1861
 5296TIP3    H137523   0.287   5.241   8.480  1.5396 -1.1491 -2.4896
 5296TIP3    H237524   0.358   5.362   8.425 -1.2368  1.7352 -0.1382
 5297TIP3   OH237525   6.542   0.294   1.892  0.0986  0.7192 -0.0166
 5297TIP3    H137526   6.591   0.212   1.883 -0.6619  0.0695  1.4780
 5297TIP3    H237527   6.512   0.314   1.803 -1.8426 -1.9692 -0.0599
 5298TIP3   OH237528   6.192   2.415   2.327 -1.0309 -0.3068 -0.4285
 5298TIP3    H137529   6.276   2.449   2.296 -0.9263 -0.6129 -0.4845
 5298TIP3    H237530   6.207   2.322   2.341  0.1850  0.3791  4.6670
 5299TIP3   OH237531   4.945   2.823   7.653  0.2275  0.8245 -0.1607
 5299TIP3    H137532   4.947   2.728   7.638 -1.2028  0.3268  2.2473
 5299TIP3    H237533   4.862   2.851   7.615 -1.4039  0.2712  2.6775
 5300TIP3   OH237534   2.336   6.682   2.126  0.1170  0.5730 -0.7114
 5300TIP3    H137535   2.417   6.647   2.161 -0.1936 -0.3822 -0.9049
 5300TIP3    H237536   2.271   6.666   2.194  0.0882  1.3082 -0.5672
 5301TIP3   OH237537   5.895   4.003   8.149  0.8743  0.5043  0.1138
 5301TIP3    H137538   5.901   3.980   8.242  0.5434  2.1510  0.5722
 5301TIP3    H237539   5.987   4.011   8.121  0.9760 -0.0577  0.2640
 5302TIP3   OH237540   1.089   6.741   0.543 -0.2462  0.1843  0.5588
 5302TIP3    H137541   1.123   6.652   0.540  1.0166  0.6405  0.6456
 5302TIP3    H237542   1.086   6.770   0.452  3.1155  1.3569  0.6528
 5303TIP3   OH237543   6.508   3.867   2.255  0.2143 -0.4554  0.3033
 5303TIP3    H137544   6.581   3.818   2.218  1.8406  2.3416 -0.4791
 5303TIP3    H237545   6.549   3.939   2.303 -1.9978 -0.8120  2.9783
 5304TIP3   OH237546   1.015   0.306   7.828 -0.2063 -0.2711  0.1069
 5304TIP3    H137547   1.000   0.342   7.916  1.1509 -2.0196  1.1210
 5304TIP3    H237548   1.107   0.281   7.828 -0.4609 -1.3710 -1.4134
 5305TIP3   OH237549   5.619   3.691   7.704  0.2804 -0.7213  0.4865
 5305TIP3    H137550   5.652   3.612   7.661 -1.1654 -1.0219 -0.1500
 5305TIP3    H237551   5.601   3.665   7.794 -1.8240 -1.6550 -0.1474
 5306TIP3   OH237552   6.494   5.019   0.100 -0.4012  0.3322 -0.1873
 5306TIP3    H137553   6.470   5.109   0.079 -1.0616  0.1627 -0.1867
 5306TIP3    H237554   6.519   5.021   0.192 -0.4132  0.5184 -0.1891
 5307TIP3   OH237555   0.073   5.746   1.252  0.4551 -0.3170  0.8961
 5307TIP3    H137556  -0.014   5.770   1.282 -0.3021 -1.3601 -0.3438
 5307TIP3    H237557   0.087   5.658   1.287 -0.4907 -1.6030 -1.6893
 5308TIP3   OH237558   3.882   1.299   3.102 -0.5684  0.1208 -0.2620
 5308TIP3    H137559   3.935   1.369   3.141 -1.3912 -0.1882  1.4867
 5308TIP3    H237560   3.938   1.264   3.032  0.0652  2.1508 -0.8458
 5309TIP3   OH237561   3.067   6.871   0.451  0.3413  0.1710 -0.2339
 5309TIP3    H137562   3.120   6.936   0.498 -0.5393  0.5848  0.2251
 5309TIP3    H237563   3.041   6.809   0.519  0.9364 -0.5053 -0.6185
 5310TIP3   OH237564   1.866   3.866   6.771 -0.0570 -0.3823  0.3319
 5310TIP3    H137565   1.775   3.895   6.777 -0.1784 -0.9699  2.0061
 5310TIP3    H237566   1.904   3.890   6.856  1.3218 -0.2669 -0.2911
 5311TIP3   OH237567   0.781   2.587   7.917 -0.3705  0.7252  0.1721
 5311TIP3    H137568   0.824   2.572   8.001 -0.2879  0.0517  0.0172
 5311TIP3    H237569   0.695   2.547   7.926 -0.1880  0.2305 -0.2157
 5312TIP3   OH237570   1.427   1.937   1.492  0.2218 -0.5724 -0.4279
 5312TIP3    H137571   1.454   1.894   1.411 -0.3557 -2.3475  0.2718
 5312TIP3    H237572   1.345   1.980   1.470  1.7088  1.8852 -1.6331
 5313TIP3   OH237573   1.040   2.057   8.071  0.0645 -0.1094  0.1495
 5313TIP3    H137574   1.010   2.101   8.150 -1.7249 -0.7136 -0.1578
 5313TIP3    H237575   1.033   2.124   8.003  1.4572  0.3635  0.4326
 5314TIP3   OH237576   3.716   5.843   7.169  0.2584 -0.3867 -0.0994
 5314TIP3    H137577   3.803   5.835   7.129  0.9287 -0.2056  1.2484
 5314TIP3    H237578   3.669   5.764   7.140  0.8970 -0.5351 -0.7717
 5315TIP3   OH237579   1.171   1.452   8.100 -0.0668 -0.4699 -0.1302
 5315TIP3    H137580   1.263   1.441   8.125  0.0798 -1.7028 -1.1346
 5315TIP3    H237581   1.144   1.366   8.067 -1.0588  0.3249 -1.5067
 5316TIP3   OH237582   3.600   4.726   2.586  0.0858 -0.7343  0.1517
 5316TIP3    H137583   3.518   4.747   2.631  0.1098 -1.1518  0.3898
 5316TIP3    H237584   3.650   4.808   2.587  0.5051 -0.9918  1.7543
 5317TIP3   OH237585   3.165   1.157   2.444  0.4018  0.4290  0.4375
 5317TIP3    H137586   3.097   1.140   2.378  0.0768  0.4023  0.7753
 5317TIP3    H237587   3.167   1.077   2.497  0.5928  0.4879  0.5175
 5318TIP3   OH237588   6.144   2.092   7.145  0.0070  0.3869  0.2382
 5318TIP3    H137589   6.209   2.162   7.147 -1.4807  1.8023  0.7415
 5318TIP3    H237590   6.188   2.019   7.101  1.1702  2.0584 -1.4660
 5319TIP3   OH237591   2.936   6.108   0.974 -0.3672 -0.4143 -0.0148
 5319TIP3    H137592   2.858   6.053   0.967 -0.5337 -0.2265  0.3686
 5319TIP3    H237593   2.948   6.145   0.886  0.1448 -1.5992 -0.4645
 5320TIP3   OH237594   0.920   4.300   1.707  0.0086  0.1637  0.8184
 5320TIP3    H137595   0.858   4.320   1.778 -1.3801 -0.1380 -0.2702
 5320TIP3    H237596   0.888   4.218   1.670  2.4028 -1.2546  1.6573
 5321TIP3   OH237597   1.019   3.349   8.099 -0.2214 -0.6843 -0.4401
 5321TIP3    H137598   0.939   3.353   8.152 -0.4150 -2.4760 -0.5307
 5321TIP3    H237599   1.038   3.255   8.092  1.8154 -0.3011 -0.5471
 5322TIP3   OH237600   1.372   4.064   6.925  0.4710  0.2399  0.3985
 5322TIP3    H137601   1.443   4.128   6.925  1.9387 -1.3107  0.3576
 5322TIP3    H237602   1.394   4.004   6.996 -1.2338  0.1401  0.8826
 5323TIP3   OH237603   2.378   6.731   8.124  0.7128 -0.3835  0.1664
 5323TIP3    H137604   2.286   6.706   8.137  0.2361  0.6986 -0.9572
 5323TIP3    H237605   2.412   6.665   8.064 -0.5136  1.3954 -2.6984
 5324TIP3   OH237606   1.116   5.721   8.163 -0.1376 -0.2671 -0.4522
 5324TIP3    H137607   1.171   5.663   8.216 -0.3757 -0.8933 -0.8850
 5324TIP3    H237608   1.039   5.737   8.217  0.9467  1.6016  0.6866
 5325TIP3   OH237609   4.088   4.708   0.359  0.1940  0.0837 -0.5084
 5325TIP3    H137610   4.022   4.768   0.325  0.3415  1.7493  1.9214
 5325TIP3    H237611   4.039   4.628   0.378 -1.0263  1.0516  0.5918
 5326TIP3   OH237612   3.684   4.385   8.149  0.9674 -0.1316  0.5216
 5326TIP3    H137613   3.725   4.423   8.226  1.6706  0.8953 -0.3240
 5326TIP3    H237614   3.590   4.393   8.165  1.0784  1.6869  0.5519
 5327TIP3   OH237615   2.223   2.934   1.742 -0.5289  0.3039 -0.3751
 5327TIP3    H137616   2.208   3.024   1.713 -0.6516 -0.0020 -1.3021
 5327TIP3    H237617   2.255   2.942   1.832  0.4442  1.3322 -0.7951
 5328TIP3   OH237618   2.592   2.658   1.371 -0.3357  0.1552 -0.1877
 5328TIP3    H137619   2.590   2.683   1.464 -1.4984 -0.6082  0.0177
 5328TIP3    H237620   2.515   2.702   1.334  1.6078  2.7201 -1.4412
 5329TIP3   OH237621   5.736   4.143   0.436  0.2431  0.2248  0.2942
 5329TIP3    H137622   5.733   4.148   0.341  1.1575  0.7307  0.2755
 5329TIP3    H237623   5.809   4.083   0.454 -0.8810 -1.0768  0.6789
 5330TIP3   OH237624   4.966   4.975   2.693 -0.5893  0.1028  0.1033
 5330TIP3    H137625   4.974   5.025   2.774 -1.1082  1.7533 -0.8318
 5330TIP3    H237626   5.056   4.959   2.665 -0.3917 -0.7817  1.1403
 5331TIP3   OH237627   4.338   0.390   0.961  0.3215 -0.8331 -0.5022
 5331TIP3    H137628   4.331   0.315   1.019 -0.7927  0.7019  1.4579
 5331TIP3    H237629   4.418   0.435   0.990  0.7942 -1.0543 -1.4305
 5332TIP3   OH237630   2.026   4.555   0.009  0.4230 -0.0131 -0.2119
 5332TIP3    H137631   2.005   4.544   0.102  0.4432  1.6266  0.0193
 5332TIP3    H237632   1.940   4.554  -0.034  0.2388  1.1804  0.0824
 5333TIP3   OH237633   2.641   2.062   1.044  0.1429  0.8889 -0.4952
 5333TIP3    H137634   2.590   2.140   1.022 -1.0037  0.2217 -0.2898
 5333TIP3    H237635   2.604   2.032   1.127  2.7739  1.9814  1.1874
 5334TIP3   OH237636   5.255   6.234   1.184 -0.5948 -0.7239  0.9172
 5334TIP3    H137637   5.294   6.211   1.268 -0.0160  2.4002  1.6421
 5334TIP3    H237638   5.328   6.267   1.132 -1.5241  1.2999  0.7774
 5335TIP3   OH237639   1.432   2.734   0.659  0.7021  1.0022  0.1521
 5335TIP3    H137640   1.391   2.650   0.639  1.7956  1.1178 -3.3449
 5335TIP3    H237641   1.522   2.712   0.683  0.2462  1.0880  2.1099
 5336TIP3   OH237642   4.616   4.256   1.229 -0.1944 -0.0741  0.7997
 5336TIP3    H137643   4.542   4.196   1.223 -0.1602 -0.0248 -0.2402
 5336TIP3    H237644   4.614   4.306   1.147  0.7041  0.2624  0.9683
 5337TIP3   OH237645   6.131   0.089   7.840 -0.0089 -0.3522  0.7252
 5337TIP3    H137646   6.151  -0.004   7.825  1.3169 -0.4112  2.4840
 5337TIP3    H237647   6.040   0.090   7.868 -0.1888 -1.0512  0.2000
 5338TIP3   OH237648   6.796   1.533   0.160  0.2041 -0.1243 -0.0094
 5338TIP3    H137649   6.785   1.451   0.209  0.4556  0.2323  0.6576
 5338TIP3    H237650   6.770   1.511   0.071 -0.3214 -0.7790  0.2907
 5339TIP3   OH237651   3.136   6.243   2.794  0.2032  0.5915  0.4629
 5339TIP3    H137652   3.134   6.150   2.816 -1.3054  0.6979  0.8413
 5339TIP3    H237653   3.216   6.276   2.836  1.9004 -0.9028 -1.3914
 5340TIP3   OH237654   2.773   6.120   2.402 -0.6616 -0.5780 -0.6188
 5340TIP3    H137655   2.694   6.169   2.378 -1.3020 -1.5555 -0.5710
 5340TIP3    H237656   2.740   6.039   2.442  0.3748 -0.7205 -0.0185
 5341TIP3   OH237657   4.205   2.765   2.233 -0.1904  0.4628  0.1447
 5341TIP3    H137658   4.192   2.819   2.155  0.2880 -0.2009 -0.4063
 5341TIP3    H237659   4.144   2.693   2.222  0.2701  0.0756  0.1050
 5342TIP3   OH237660   3.400   1.861   8.432 -0.2874 -0.3930  0.1288
 5342TIP3    H137661   3.394   1.825   8.344 -0.9554 -0.8433  0.3468
 5342TIP3    H237662   3.385   1.955   8.421 -0.2932 -0.4399 -0.2503
 5343TIP3   OH237663   6.724   0.076   8.098  0.4864 -0.4300  0.1844
 5343TIP3    H137664   6.801   0.020   8.108  0.8217  0.2530  1.6486
 5343TIP3    H237665   6.750   0.159   8.138 -0.5747  0.2392 -0.4717
 5344TIP3   OH237666   4.216   0.016   3.083 -0.3816 -0.0667 -0.6858
 5344TIP3    H137667   4.207  -0.078   3.099 -0.6691  0.0343 -0.2444
 5344TIP3    H237668   4.301   0.038   3.122 -1.4455  0.3433  1.5776
 5345TIP3   OH237669   3.327   3.299   1.664 -0.2021 -0.2054  0.5013
 5345TIP3    H137670   3.301   3.207   1.658 -0.1754 -0.2773  1.2773
 5345TIP3    H237671   3.267   3.345   1.606 -0.0096 -0.7505 -0.1402
 5346TIP3   OH237672   2.693   6.575   1.506  0.2115 -0.0092 -0.4684
 5346TIP3    H137673   2.710   6.591   1.413  0.2749 -0.5920 -0.5611
 5346TIP3    H237674   2.673   6.661   1.542 -0.4645  0.1262 -1.1559
 5347TIP3   OH237675   5.437   6.370   7.525  0.1303  0.1978  0.4452
 5347TIP3    H137676   5.349   6.354   7.560 -0.5330  2.4046 -0.0058
 5347TIP3    H237677   5.482   6.417   7.595  0.7913 -0.4674  0.4730
 5348TIP3   OH237678   6.387   0.024   1.965 -0.4735 -0.3556 -0.1439
 5348TIP3    H137679   6.438   0.063   1.895 -1.4117 -0.9648 -1.1885
 5348TIP3    H237680   6.451  -0.024   2.017  0.2736  0.3347 -0.3990
 5349TIP3   OH237681   1.879   4.373   1.666  0.5188  0.4086  0.1698
 5349TIP3    H137682   1.952   4.321   1.630  0.6462  1.4777 -1.1891
 5349TIP3    H237683   1.826   4.309   1.714  0.7652 -0.9552 -1.2937
 5350TIP3   OH237684   5.863   2.283   0.244  0.0072  0.1437  0.2824
 5350TIP3    H137685   5.826   2.210   0.192 -0.5433  0.9412 -0.4764
 5350TIP3    H237686   5.828   2.269   0.332  0.5556 -0.9598  0.3376
 5351TIP3   OH237687   4.741   2.710   1.784  0.2085 -0.2535 -0.2693
 5351TIP3    H137688   4.800   2.785   1.780 -0.5970  0.4799  0.9195
 5351TIP3    H237689   4.692   2.714   1.702 -0.2161  0.8755  0.0203
 5352TIP3   OH237690   2.290   3.714   2.621  0.0588 -0.4891  0.3373
 5352TIP3    H137691   2.297   3.746   2.531  1.0750  1.0766  0.9131
 5352TIP3    H237692   2.197   3.721   2.642  0.0339  0.7535 -0.0803
 5353TIP3   OH237693   1.400   4.202   1.168 -0.5503 -1.1274 -0.1115
 5353TIP3    H137694   1.470   4.185   1.231 -0.0454 -0.9854 -0.6218
 5353TIP3    H237695   1.412   4.294   1.143  0.3521 -1.6293 -1.7008
 5354TIP3   OH237696   1.559   1.415   1.313  0.1437 -0.8118  0.1974
 5354TIP3    H137697   1.626   1.369   1.363  1.6058 -0.1511 -1.0891
 5354TIP3    H237698   1.507   1.345   1.273  0.0825 -1.3291  1.1351
 5355TIP3   OH237699   6.257   5.868   2.738 -0.1838 -0.2037  0.2475
 5355TIP3    H137700   6.212   5.825   2.810  1.3541 -1.0528  0.7512
 5355TIP3    H237701   6.311   5.935   2.780  1.1410 -1.0676 -0.0177
 5356TIP3   OH237702   5.354   3.221   7.779 -0.0634 -0.7562  0.4484
 5356TIP3    H137703   5.442   3.254   7.798 -0.7162  0.8057  0.9369
 5356TIP3    H237704   5.304   3.299   7.756 -1.4271 -1.5746  0.5362
 5357TIP3   OH237705   1.765   6.528   2.790  0.1871  0.4471 -0.3349
 5357TIP3    H137706   1.688   6.471   2.799 -0.2899  1.1455  0.1053
 5357TIP3    H237707   1.769   6.576   2.872  1.9902 -0.6341  0.2651
 5358TIP3   OH237708   4.555   6.006   2.350 -0.6109 -0.0397  0.0287
 5358TIP3    H137709   4.481   6.067   2.351 -0.2388  0.4630 -1.1644
 5358TIP3    H237710   4.556   5.972   2.260  1.9789  1.7182 -0.7176
 5359TIP3   OH237711   3.500   3.119   1.942 -0.2455  0.4123 -0.1219
 5359TIP3    H137712   3.437   3.081   2.003  1.6056 -0.9947  1.0194
 5359TIP3    H237713   3.520   3.206   1.979 -2.4193  1.4535 -1.2258
 5360TIP3   OH237714   2.892   6.313   1.938  0.2647 -0.8931  0.3097
 5360TIP3    H137715   2.974   6.359   1.924 -0.0056 -0.1555  1.0881
 5360TIP3    H237716   2.919   6.225   1.966  0.7898 -1.5849 -2.0871
 5361TIP3   OH237717   0.098   5.760   2.361 -0.4577  1.0215  0.0523
 5361TIP3    H137718   0.094   5.681   2.415  1.8783  1.2115  0.6153
 5361TIP3    H237719   0.019   5.809   2.384 -1.8779 -1.0189 -0.1798
 5362TIP3   OH237720   6.618   5.960   1.549 -0.2603  0.3517  0.6680
 5362TIP3    H137721   6.576   5.921   1.626 -0.2002  0.2395  0.6446
 5362TIP3    H237722   6.610   6.054   1.562 -0.0951  0.3353  0.8963
 5363TIP3   OH237723   2.831   5.473   0.355  0.1839 -0.2178  0.2527
 5363TIP3    H137724   2.744   5.464   0.316  0.2286 -2.2867  0.5069
 5363TIP3    H237725   2.859   5.383   0.371  1.4166  0.4779  2.3160
 5364TIP3   OH237726   3.708   3.727   2.213  0.3299 -0.2864  0.0905
 5364TIP3    H137727   3.689   3.755   2.302  0.4607  1.0019 -0.2660
 5364TIP3    H237728   3.641   3.662   2.193 -1.2415  1.2187  0.2641
 5365TIP3   OH237729   3.830   1.203   2.703 -0.7707 -0.4994  0.2241
 5365TIP3    H137730   3.867   1.253   2.631 -0.2102 -2.2510 -0.7579
 5365TIP3    H237731   3.902   1.193   2.765 -1.3414  1.2925  1.2556
 5366TIP3   OH237732   6.056   5.654   1.639 -0.0813  0.0285  0.5209
 5366TIP3    H137733   6.078   5.643   1.732 -0.0116  0.4898  0.5586
 5366TIP3    H237734   6.128   5.704   1.603  1.0815 -2.0961 -0.3033
 5367TIP3   OH237735   4.045   4.243   0.220  0.1232  0.3312  0.6542
 5367TIP3    H137736   4.045   4.249   0.316 -0.5523 -0.7774  0.7502
 5367TIP3    H237737   4.040   4.149   0.203 -1.7576  0.5792 -0.4540
 5368TIP3   OH237738   4.245   4.340   1.946  0.1641  0.3739  0.5270
 5368TIP3    H137739   4.206   4.271   1.893  0.4364 -0.5267  1.4619
 5368TIP3    H237740   4.340   4.325   1.938  0.2073  0.2078  1.2712
 5369TIP3   OH237741   5.859   1.572   2.168  0.0225  0.1607 -0.4818
 5369TIP3    H137742   5.829   1.621   2.244 -3.6378  0.7878 -2.1317
 5369TIP3    H237743   5.929   1.627   2.130 -0.9638  1.9417  0.1551
 5370TIP3   OH237744   5.308   2.223   7.813 -0.2349  0.1758 -0.0018
 5370TIP3    H137745   5.394   2.252   7.842 -0.4745  1.0869 -0.1767
 5370TIP3    H237746   5.247   2.260   7.877 -0.6298  0.9240 -0.7861
 5371TIP3   OH237747   2.134   2.023   7.711  0.5725  0.3046  0.7357
 5371TIP3    H137748   2.122   2.107   7.669 -1.8587 -0.5621 -0.4549
 5371TIP3    H237749   2.143   1.961   7.639 -0.0800 -0.7695  1.5477
 5372TIP3   OH237750   3.701   4.588   0.846  0.0225 -0.0259 -0.5686
 5372TIP3    H137751   3.633   4.534   0.807  0.2228 -0.6811 -0.0257
 5372TIP3    H237752   3.689   4.675   0.807 -0.2446 -0.4809 -1.5204
 5373TIP3   OH237753   2.130   3.975   8.490 -0.1706 -0.2022 -0.3072
 5373TIP3    H137754   2.058   3.946   8.546  0.1886  0.7753  0.7085
 5373TIP3    H237755   2.175   4.041   8.542  0.5287  0.3324 -1.5509
 5374TIP3   OH237756   5.712   3.466   1.246 -0.0078  0.3285  0.0320
 5374TIP3    H137757   5.742   3.375   1.258 -0.8004 -0.0685 -0.8379
 5374TIP3    H237758   5.620   3.464   1.273 -0.0942  0.8163 -0.2262
 5375TIP3   OH237759   5.660   5.534   0.922  0.7966 -0.0379  0.3312
 5375TIP3    H137760   5.609   5.457   0.945  1.4784 -0.9888 -1.2096
 5375TIP3    H237761   5.722   5.545   0.993  0.6505 -0.8663  0.5888
 5376TIP3   OH237762   0.795   3.199   2.660 -0.1139  0.4988 -0.2477
 5376TIP3    H137763   0.745   3.145   2.600  0.0400  1.0714 -0.9068
 5376TIP3    H237764   0.730   3.238   2.719 -0.4706  1.3256 -1.1637
 5377TIP3   OH237765   5.265   5.836   1.316  0.0472 -0.4130  0.1367
 5377TIP3    H137766   5.274   5.849   1.222  0.0894 -3.7238 -0.4281
 5377TIP3    H237767   5.275   5.742   1.329 -3.1005 -0.5335  3.1033
 5378TIP3   OH237768   5.567   1.448   0.322  0.1652 -0.6366 -0.3608
 5378TIP3    H137769   5.520   1.365   0.325 -0.3603 -0.4611 -2.3266
 5378TIP3    H237770   5.503   1.513   0.348 -0.0821 -0.6206 -0.9989
 5379TIP3   OH237771   1.631   6.583   1.873 -0.0020  0.6028 -0.2313
 5379TIP3    H137772   1.717   6.626   1.873 -0.2011  1.0122  0.0658
 5379TIP3    H237773   1.624   6.546   1.961 -0.8769  2.1171  0.3683
 5380TIP3   OH237774   5.971   3.380   7.696  0.3499  0.1734  0.3226
 5380TIP3    H137775   6.038   3.350   7.634  0.6068  2.8423 -0.7991
 5380TIP3    H237776   6.019   3.402   7.775  0.9979  2.6633 -0.6792
 5381TIP3   OH237777   5.065   2.248   0.319  0.0239 -0.3269 -0.7123
 5381TIP3    H137778   5.148   2.277   0.356 -0.9994 -0.8824  2.2980
 5381TIP3    H237779   5.076   2.154   0.304  0.6922  0.0361 -2.6775
 5382TIP3   OH237780   6.915   5.395   7.348  0.1221 -0.0531 -0.5261
 5382TIP3    H137781   6.888   5.439   7.267  0.4295  0.8138 -0.1688
 5382TIP3    H237782   6.900   5.303   7.331  0.5889  0.0779 -1.7455
 5383TIP3   OH237783   3.966   3.035   2.655 -0.0889 -0.2127  0.3972
 5383TIP3    H137784   4.050   3.008   2.691  0.6119 -0.5580 -1.3871
 5383TIP3    H237785   3.987   3.070   2.568 -1.8180 -0.5673 -0.2010
 5384TIP3   OH237786   4.552   2.348   1.127  0.0239  0.3758  0.4249
 5384TIP3    H137787   4.537   2.254   1.118 -1.9649  0.7617 -0.8258
 5384TIP3    H237788   4.477   2.380   1.176  0.9823  1.2565  1.3696
 5385TIP3   OH237789   4.690   3.946   1.003 -0.3880  0.1371  0.4765
 5385TIP3    H137790   4.692   3.911   0.913  0.5988  0.2740  0.4381
 5385TIP3    H237791   4.766   4.004   1.008 -1.0401  0.9560  1.0810
 5386TIP3   OH237792   0.436   1.135   7.129 -0.2967 -0.0532 -0.3730
 5386TIP3    H137793   0.392   1.220   7.134 -0.1250 -0.0319  1.4282
 5386TIP3    H237794   0.380   1.076   7.179  0.2530 -0.6951 -0.5049
 5387TIP3   OH237795   2.827   6.054   2.721 -0.7200  0.6960  0.0418
 5387TIP3    H137796   2.762   6.104   2.771  0.5928  1.1041  1.4246
 5387TIP3    H237797   2.878   6.008   2.788  1.0668  1.2013 -0.9137
 5388TIP3   OH237798   4.886   5.965   8.445 -0.3686 -0.1812  0.3812
 5388TIP3    H137799   4.921   5.881   8.417 -0.7569 -0.4568  0.7062
 5388TIP3    H237800   4.954   6.001   8.503 -0.7461 -0.8715  1.2894
 5389TIP3   OH237801   0.316   5.083   8.253  0.2579 -0.4537  0.4047
 5389TIP3    H137802   0.363   5.043   8.181 -0.4838  0.5797 -0.6925
 5389TIP3    H237803   0.224   5.082   8.227 -0.0143  0.0511  1.2706
 5390TIP3   OH237804   6.567   3.577   2.059 -0.4711 -0.0418 -0.8462
 5390TIP3    H137805   6.618   3.564   2.140  0.1802 -1.3393 -1.4307
 5390TIP3    H237806   6.477   3.586   2.089 -0.3262 -1.2058 -0.0022
 5391TIP3   OH237807   6.585   0.919   0.899  0.3463  0.3695 -0.1419
 5391TIP3    H137808   6.649   0.849   0.886 -0.6121 -0.3817 -0.9292
 5391TIP3    H237809   6.637   1.000   0.892  1.2566 -0.2211 -0.4387
 5392TIP3   OH237810   6.725   3.295   7.720 -0.1591 -0.1688  0.2128
 5392TIP3    H137811   6.804   3.242   7.712  0.1071  0.4235 -1.5374
 5392TIP3    H237812   6.656   3.243   7.678  0.2407  1.0736 -2.0931
 5393TIP3   OH237813   5.653   1.808   0.279 -0.1750 -0.6043 -0.8753
 5393TIP3    H137814   5.716   1.878   0.266 -0.6581  0.0902  0.3861
 5393TIP3    H237815   5.666   1.780   0.370  0.1675 -2.3148 -1.4125
 5394TIP3   OH237816   2.646   4.218   2.954 -0.6012 -0.5857  0.1756
 5394TIP3    H137817   2.615   4.304   2.980 -0.9102 -0.2668 -1.1703
 5394TIP3    H237818   2.728   4.235   2.907 -1.2523 -0.8893 -1.1110
 5395TIP3   OH237819   4.666   2.663   1.334 -0.3458  0.3075 -0.0889
 5395TIP3    H137820   4.716   2.616   1.401  0.5019  0.7987 -0.3513
 5395TIP3    H237821   4.597   2.708   1.382  0.5082  1.0009  0.5336
 5396TIP3   OH237822   3.538   3.528   2.652  0.3321 -0.4726 -0.4191
 5396TIP3    H137823   3.453   3.569   2.669 -0.5733 -1.3708 -2.4362
 5396TIP3    H237824   3.542   3.454   2.712 -0.7007 -0.8752 -0.8113
 5397TIP3   OH237825   6.506   5.408   8.404  0.8081 -0.1788  0.0394
 5397TIP3    H137826   6.517   5.346   8.332 -1.3680 -0.5278 -0.0486
 5397TIP3    H237827   6.588   5.457   8.405  1.0466 -0.3779 -2.4692
 5398TIP3   OH237828   6.871   6.800   1.776  0.5937 -0.0759 -0.2200
 5398TIP3    H137829   6.831   6.778   1.860 -0.6814 -0.4727 -0.9122
 5398TIP3    H237830   6.961   6.824   1.798  1.0905 -2.7431  0.9686
 5399TIP3   OH237831   2.263   5.112   1.614  0.0650 -0.2026  0.5628
 5399TIP3    H137832   2.278   5.053   1.688 -0.9182  0.4298  1.3081
 5399TIP3    H237833   2.340   5.169   1.614  0.5210 -0.8131  0.5012
 5400TIP3   OH237834   2.467   6.743   0.539 -0.0621  0.6717 -0.3704
 5400TIP3    H137835   2.446   6.832   0.512 -2.1688 -0.1768 -1.8092
 5400TIP3    H237836   2.468   6.747   0.635 -0.3839  2.1881 -0.4064
 5401TIP3   OH237837   5.505   6.266   0.128  0.0690  0.0077 -0.5213
 5401TIP3    H137838   5.421   6.281   0.084  0.9844  1.4125 -1.9039
 5401TIP3    H237839   5.517   6.343   0.183  0.4402 -0.2139 -0.2875
 5402TIP3   OH237840   3.651   6.065   7.647  0.5315  0.1524  0.8840
 5402TIP3    H137841   3.562   6.100   7.638  0.3539 -0.5429 -0.1461
 5402TIP3    H237842   3.645   6.007   7.723 -0.0729 -0.4292  0.4022
 5403TIP3   OH237843   6.056   0.953   1.850  0.2371 -0.1579  0.1279
 5403TIP3    H137844   6.118   0.942   1.922 -0.7738 -1.1666  0.8633
 5403TIP3    H237845   6.021   1.041   1.862  0.9383  0.1312  0.1515
 5404TIP3   OH237846   2.334   5.866   0.575  0.0478 -1.4418 -0.2610
 5404TIP3    H137847   2.325   5.853   0.669  0.3145  0.3698  0.0541
 5404TIP3    H237848   2.273   5.936   0.555 -2.0504 -3.5972 -1.9801
 5405TIP3   OH237849   4.843   2.565   1.530 -0.1341  0.5607 -0.4836
 5405TIP3    H137850   4.925   2.600   1.564 -0.4190  0.4974  0.2879
 5405TIP3    H237851   4.869   2.517   1.451  0.8001 -0.6608  0.5087
 5406TIP3   OH237852   2.361   3.770   7.432  0.4847 -0.1109  0.2175
 5406TIP3    H137853   2.376   3.860   7.462  1.2254 -0.6044  1.4093
 5406TIP3    H237854   2.405   3.715   7.497  0.3550 -1.3322 -0.6769
 5407TIP3   OH237855   4.974   4.401   7.928 -0.1106 -0.1970  0.1973
 5407TIP3    H137856   5.044   4.348   7.967  1.6061  1.1939 -0.8360
 5407TIP3    H237857   4.942   4.349   7.854 -0.0718 -0.7648  0.5696
 5408TIP3   OH237858   2.888   2.078   8.251  0.2340  0.0687  0.3901
 5408TIP3    H137859   2.939   2.007   8.213 -0.8172 -0.5247  0.0527
 5408TIP3    H237860   2.937   2.158   8.229  1.1915 -0.5075  0.3994
 5409TIP3   OH237861   3.606   2.780   1.610  0.0100  0.1951 -0.3433
 5409TIP3    H137862   3.634   2.839   1.680  0.2408 -0.8295  0.4544
 5409TIP3    H237863   3.581   2.838   1.538 -0.9394  1.3181  0.8339
 5410TIP3   OH237864   6.626   2.608   7.777  0.3722  0.6645 -0.3425
 5410TIP3    H137865   6.563   2.563   7.722  0.2466  1.9460 -1.2859
 5410TIP3    H237866   6.678   2.538   7.817 -2.8506 -0.5800  2.0796
 5411TIP3   OH237867   2.593   3.471   0.174 -0.0950 -0.1414  0.5945
 5411TIP3    H137868   2.645   3.434   0.246  0.5583  0.7603  0.6132
 5411TIP3    H237869   2.531   3.530   0.218 -1.0147 -1.0673  0.5563
 5412TIP3   OH237870   4.736   3.941   8.049 -0.2496  0.0302  0.2496
 5412TIP3    H137871   4.796   3.892   7.992 -0.2964 -0.4405  0.5970
 5412TIP3    H237872   4.794   3.989   8.108 -0.2057 -0.8597  0.9498
 5413TIP3   OH237873   4.306   2.724   0.649  0.4094 -0.6885 -1.0427
 5413TIP3    H137874   4.372   2.714   0.717 -1.1690  0.4852  0.7571
 5413TIP3    H237875   4.284   2.634   0.624  0.1404 -1.2022  0.9187
 5414TIP3   OH237876   1.941   1.718   1.083 -0.0781  0.6643 -0.6245
 5414TIP3    H137877   1.852   1.750   1.099 -0.1485 -0.1390  0.8350
 5414TIP3    H237878   1.954   1.727   0.989 -2.5692 -1.3634 -1.2468
 5415TIP3   OH237879   2.123   5.659   7.998 -0.2836  0.4477 -0.4517
 5415TIP3    H137880   2.051   5.611   8.038  0.6629  0.2754  1.1184
 5415TIP3    H237881   2.081   5.733   7.953 -1.4818 -0.0768 -0.2199
 5416TIP3   OH237882   6.264   5.551   8.412  0.1172  0.1646  0.3885
 5416TIP3    H137883   6.345   5.512   8.446  0.5951  0.1308 -0.7358
 5416TIP3    H237884   6.204   5.551   8.487  0.9486 -0.3846  1.0793
 5417TIP3   OH237885   1.219   2.586   7.491 -0.1199 -0.0189 -0.4996
 5417TIP3    H137886   1.139   2.534   7.481  0.4558 -0.8398 -0.9607
 5417TIP3    H237887   1.285   2.537   7.442  0.3109  1.4330 -1.4329
 5418TIP3   OH237888   0.981   4.754   2.497 -0.0547 -0.5173 -0.3709
 5418TIP3    H137889   0.918   4.733   2.565 -0.8906  2.3196 -0.1588
 5418TIP3    H237890   1.052   4.690   2.509 -1.6892 -2.1771  0.9780
 5419TIP3   OH237891   5.573   4.362   1.120 -0.3230 -0.1942 -0.2281
 5419TIP3    H137892   5.527   4.381   1.202  0.3486 -1.0515  0.3606
 5419TIP3    H237893   5.612   4.446   1.095 -0.9407  0.1888  0.0541
 5420TIP3   OH237894   3.428   5.230   7.040  0.4864 -0.5208 -0.0830
 5420TIP3    H137895   3.357   5.270   6.990  1.6804  1.1199 -0.5888
 5420TIP3    H237896   3.481   5.185   6.974 -0.1713 -1.9185  0.3198
 5421TIP3   OH237897   2.017   5.254   6.665  0.1136  0.1029  0.2804
 5421TIP3    H137898   2.056   5.169   6.646  0.5547  0.9696 -3.4963
 5421TIP3    H237899   1.932   5.233   6.705 -0.7779 -2.3036 -2.5316
 5422TIP3   OH237900   3.661   6.278   1.035 -0.2880 -0.3803 -0.5198
 5422TIP3    H137901   3.740   6.332   1.045 -0.6198 -0.0911  0.7881
 5422TIP3    H237902   3.613   6.319   0.963 -0.0542  0.4808 -0.2012
 5423TIP3   OH237903   0.401   3.797   0.532  0.3955 -1.1659 -0.4104
 5423TIP3    H137904   0.440   3.740   0.465 -0.7314 -3.6244  0.8651
 5423TIP3    H237905   0.476   3.833   0.579  1.1862 -2.3877 -0.6815
 5424TIP3   OH237906   5.150   2.098   8.140  0.1089  0.7849  0.0857
 5424TIP3    H137907   5.165   2.191   8.154  1.1885  0.7202 -0.5021
 5424TIP3    H237908   5.069   2.094   8.089  0.8722  1.5283 -1.2563
 5425TIP3   OH237909   6.269   5.136   7.835 -0.1654  0.1896  0.3829
 5425TIP3    H137910   6.239   5.213   7.786  0.1738 -0.7810 -1.4454
 5425TIP3    H237911   6.262   5.162   7.927 -4.1331  0.9168  0.0608
 5426TIP3   OH237912   2.362   0.692   0.954 -0.0892  0.1862  0.5205
 5426TIP3    H137913   2.434   0.755   0.942  1.3499 -1.0683  2.2120
 5426TIP3    H237914   2.301   0.736   1.013  0.2875  0.4782  0.6953
 5427TIP3   OH237915   3.903   5.174   3.000  0.5382  0.4033  0.0898
 5427TIP3    H137916   3.866   5.247   2.950  1.1617  0.9489  0.4058
 5427TIP3    H237917   3.844   5.164   3.075  0.1644  0.2442 -0.2236
 5428TIP3   OH237918   2.317   5.620   2.862  0.3019 -0.1699 -0.4752
 5428TIP3    H137919   2.246   5.557   2.851 -1.0354  0.5812  2.7757
 5428TIP3    H237920   2.383   5.572   2.912  0.8662 -0.0139 -1.0587
 5429TIP3   OH237921   2.046   6.607   0.130  0.2618  0.0514  0.0166
 5429TIP3    H137922   2.108   6.542   0.097 -0.5452 -0.3892 -0.6736
 5429TIP3    H237923   1.968   6.595   0.076 -0.6007  0.2665  1.1729
 5430TIP3   OH237924   1.370   3.463   2.097 -0.4129 -0.6595 -0.1967
 5430TIP3    H137925   1.458   3.481   2.065 -0.5678  0.2203 -0.1773
 5430TIP3    H237926   1.316   3.463   2.018 -0.3898 -1.2339 -0.2124
 5431TIP3   OH237927   2.635   2.308   2.879 -0.0176 -0.5069 -0.2182
 5431TIP3    H137928   2.699   2.237   2.882 -0.0425 -0.5015  0.6954
 5431TIP3    H237929   2.654   2.361   2.956 -0.3537  0.1761 -0.5921
 5432TIP3   OH237930   5.427   1.666   0.407 -0.5930 -0.0375 -0.2031
 5432TIP3    H137931   5.362   1.659   0.337 -1.7085 -0.1940  0.8259
 5432TIP3    H237932   5.502   1.709   0.365 -2.2102  2.3425 -0.8616
 5433TIP3   OH237933   6.889   0.835   7.761 -0.1916  0.0224 -0.8398
 5433TIP3    H137934   6.810   0.886   7.778  1.4273  2.5975 -0.6355
 5433TIP3    H237935   6.917   0.804   7.847  0.4298  1.3625 -0.5341
 5434TIP3   OH237936   6.189   5.132   1.671  0.2777  0.3299 -0.1743
 5434TIP3    H137937   6.258   5.092   1.724 -0.0204 -0.8177 -0.6378
 5434TIP3    H237938   6.175   5.071   1.599 -0.9339  0.7535 -0.3167
 5435TIP3   OH237939   6.556   5.176   1.077 -0.0795 -0.2123  0.3637
 5435TIP3    H137940   6.477   5.123   1.077 -0.7117  0.6425 -1.1684
 5435TIP3    H237941   6.524   5.267   1.076  0.9539  0.2078  1.5410
 5436TIP3   OH237942   2.098   0.583   2.140 -0.4228  0.6142  0.2419
 5436TIP3    H137943   2.092   0.643   2.215  2.3287  1.0826  0.1962
 5436TIP3    H237944   2.151   0.510   2.172  1.6082  1.2552 -1.3812
 5437TIP3   OH237945   5.949   3.956   2.219  0.1918 -0.2222 -0.3603
 5437TIP3    H137946   6.014   3.960   2.148  0.1959  1.6301 -0.3001
 5437TIP3    H237947   5.959   3.868   2.256  1.7562 -0.4328 -1.2043
 5438TIP3   OH237948   1.275   4.868   2.551  0.0763 -0.1939 -0.0275
 5438TIP3    H137949   1.251   4.784   2.513  0.3850  0.3939 -1.6120
 5438TIP3    H237950   1.222   4.875   2.631 -0.2962 -1.6648 -0.1199
 5439TIP3   OH237951   0.088   3.556   2.530  0.5029 -0.5602 -0.3910
 5439TIP3    H137952   0.049   3.476   2.565  0.5486 -0.9929 -1.2826
 5439TIP3    H237953   0.019   3.621   2.535  0.2251 -0.8554 -0.3379
 5440TIP3   OH237954   3.410   6.892   1.908  0.2355 -0.4192 -0.3529
 5440TIP3    H137955   3.422   6.985   1.929  0.7990 -0.9851  2.2763
 5440TIP3    H237956   3.481   6.872   1.848  0.1652  0.8071 -0.8861
 5441TIP3   OH237957   3.407   2.382   1.831  0.5133 -0.1141  0.5064
 5441TIP3    H137958   3.352   2.460   1.838  0.0003 -0.3539 -0.6992
 5441TIP3    H237959   3.372   2.322   1.897  2.1848  1.3686  2.9108
 5442TIP3   OH237960   1.508   4.603   8.578  0.0955 -0.5182  0.7070
 5442TIP3    H137961   1.473   4.659   8.647  1.9278  0.9827  0.4904
 5442TIP3    H237962   1.442   4.534   8.568 -0.8979  0.0100  2.9375
 5443TIP3   OH237963   3.409   0.211   1.158 -0.5170 -0.1344 -0.2692
 5443TIP3    H137964   3.468   0.136   1.162  0.3270  0.5002 -0.5009
 5443TIP3    H237965   3.388   0.231   1.249  1.2765  0.8951 -0.0498
 5444TIP3   OH237966   3.914   6.552   1.591  0.3420 -0.0085  0.0418
 5444TIP3    H137967   3.834   6.526   1.546  1.2534 -0.8656 -1.1256
 5444TIP3    H237968   3.961   6.470   1.607  0.5342  0.3688  1.6696
 5445TIP3   OH237969   3.311   2.831   8.217 -0.8360  0.3558 -0.3631
 5445TIP3    H137970   3.312   2.800   8.308 -0.7267  1.7328  0.1252
 5445TIP3    H237971   3.224   2.869   8.205 -1.3977 -1.1248 -1.3296
 5446TIP3   OH237972   5.794   4.065   2.592 -0.5475 -0.0550 -0.5547
 5446TIP3    H137973   5.701   4.042   2.594 -0.7723  0.2649 -3.4819
 5446TIP3    H237974   5.839   3.981   2.588 -0.4493 -0.3390  3.0152
 5447TIP3   OH237975   3.283   2.029   1.850  0.0076 -0.7083  0.8285
 5447TIP3    H137976   3.291   2.036   1.945  2.1129  1.9090  0.5584
 5447TIP3    H237977   3.189   2.040   1.833 -0.2240  0.2905  2.5424
 5448TIP3   OH237978   5.857   5.156   0.603  0.2900  0.2021  0.2898
 5448TIP3    H137979   5.762   5.151   0.591  0.1798 -0.3954  1.2655
 5448TIP3    H237980   5.893   5.139   0.516 -0.4998  1.7127 -0.3782
 5449TIP3   OH237981   2.864   3.494   2.128  0.2557  0.3676 -0.3956
 5449TIP3    H137982   2.898   3.575   2.167  0.5261 -0.3505  0.9355
 5449TIP3    H237983   2.885   3.502   2.035 -0.6232  2.2677 -0.4846
 5450TIP3   OH237984   4.702   6.703   0.970  0.1302 -0.5925 -0.1808
 5450TIP3    H137985   4.667   6.619   1.002  1.4068 -0.6925  1.0038
 5450TIP3    H237986   4.774   6.723   1.029  1.1818  0.3123 -1.7222
 5451TIP3   OH237987   6.702   4.635   2.248 -0.1982 -0.1140  0.1287
 5451TIP3    H137988   6.642   4.615   2.176  1.1512  1.7073 -1.6366
 5451TIP3    H237989   6.673   4.720   2.280  0.6842  0.2149  0.0778
 5452TIP3   OH237990   2.913   3.957   0.828 -0.2266 -0.5628 -0.8858
 5452TIP3    H137991   2.971   3.895   0.783 -0.1688 -0.9816 -0.2411
 5452TIP3    H237992   2.937   4.042   0.793  0.4861 -0.7793 -0.9340
 5453TIP3   OH237993   6.563   4.053   1.420  0.1181 -0.1607  0.6693
 5453TIP3    H137994   6.485   4.067   1.366 -0.0017  2.6891  1.4482
 5453TIP3    H237995   6.623   4.005   1.364 -0.0192  2.5875 -2.0705
 5454TIP3   OH237996   0.020   0.169   0.275 -0.1333 -0.2028 -0.8282
 5454TIP3    H137997   0.020   0.164   0.370 -1.0347  1.2297 -0.7399
 5454TIP3    H237998   0.013   0.262   0.255  3.5875 -0.0358 -2.3079
 5455TIP3   OH237999   2.794   6.788   7.289  0.2311 -0.4012  0.0256
 5455TIP3    H138000   2.875   6.769   7.336 -0.5157 -0.6324  1.2657
 5455TIP3    H238001   2.789   6.884   7.288  0.2153 -0.3926  0.5023
 5456TIP3   OH238002   3.598   3.702   0.796 -0.2508 -0.0345  0.4411
 5456TIP3    H138003   3.671   3.757   0.768 -0.3245  0.6127  1.4723
 5456TIP3    H238004   3.634   3.651   0.868 -0.4705 -0.6230  0.1372
 5457TIP3   OH238005   5.020   6.273   0.598 -0.1407  0.6607 -0.8711
 5457TIP3    H138006   5.088   6.310   0.655 -2.1378  0.2727  1.9836
 5457TIP3    H238007   4.977   6.349   0.559  1.2099  0.9362 -1.8964
 5458TIP3   OH238008   1.743   6.036   7.774 -0.8020  0.4271  0.1842
 5458TIP3    H138009   1.790   6.111   7.811  0.6179 -0.6257  0.5908
 5458TIP3    H238010   1.767   6.036   7.681 -1.1112  0.6925  0.1029
 5459TIP3   OH238011   1.457   0.872   0.119 -0.1122  0.6453 -0.2491
 5459TIP3    H138012   1.494   0.859   0.206 -2.7843  0.4911  0.9864
 5459TIP3    H238013   1.489   0.957   0.091 -0.9171  1.7406  1.9160
 5460TIP3   OH238014   6.870   3.449   1.104 -0.2004 -0.2887  0.2806
 5460TIP3    H138015   6.857   3.396   1.025  1.2375  0.4145 -0.4661
 5460TIP3    H238016   6.926   3.395   1.160  2.3295  0.8350 -1.0103
 5461TIP3   OH238017   5.577   3.435   2.432  0.0081  0.2823 -0.0464
 5461TIP3    H138018   5.534   3.375   2.371  2.0093 -0.7726 -0.5188
 5461TIP3    H238019   5.505   3.477   2.479 -1.5274 -0.7953 -1.3043
 5462TIP3   OH238020   2.635   6.829   7.899 -0.3267  0.8621 -0.6746
 5462TIP3    H138021   2.573   6.767   7.940  0.0005  1.5697  0.9812
 5462TIP3    H238022   2.639   6.801   7.807 -2.0266 -0.0695 -0.5198
 5463TIP3   OH238023   1.398   3.295   1.442  0.2886 -0.0686  0.3191
 5463TIP3    H138024   1.341   3.359   1.483 -1.1200 -1.1130  0.0803
 5463TIP3    H238025   1.347   3.260   1.369  2.0063  0.3754 -1.1662
 5464TIP3   OH238026   3.991   5.673   0.538 -0.7734 -0.0462 -0.2076
 5464TIP3    H138027   3.939   5.617   0.481 -1.5358 -1.9033  2.1491
 5464TIP3    H238028   3.930   5.701   0.607  1.2169 -2.7665  2.9894
 5465TIP3   OH238029   5.910   3.550   0.668 -0.6867 -0.0466 -0.1840
 5465TIP3    H138030   5.976   3.532   0.601 -0.1606 -1.5746  0.6927
 5465TIP3    H238031   5.926   3.640   0.694  0.9896 -0.3315 -0.1073
 5466TIP3   OH238032   0.107   1.746   8.393  0.0397  0.2656 -0.3875
 5466TIP3    H138033   0.013   1.743   8.374  0.3236 -0.3138 -1.8475
 5466TIP3    H238034   0.147   1.694   8.323  1.2958 -1.3002  1.3801
 5467TIP3   OH238035   0.527   2.579   7.453  0.1113 -0.2213  0.2541
 5467TIP3    H138036   0.532   2.664   7.497  1.2647  0.6449 -1.4458
 5467TIP3    H238037   0.522   2.600   7.360 -0.4562 -2.0183 -0.1610
 5468TIP3   OH238038   0.419   0.558   1.418 -0.0915  0.7898  0.2336
 5468TIP3    H138039   0.384   0.594   1.337  1.3190  2.6917  0.4118
 5468TIP3    H238040   0.366   0.599   1.487  0.1704  0.9234  0.3572
 5469TIP3   OH238041   4.942   2.479   6.766  0.2341  0.0312  0.0527
 5469TIP3    H138042   5.010   2.545   6.753  0.6367 -0.0906  1.4371
 5469TIP3    H238043   4.981   2.397   6.735  0.2062  0.2003 -0.4395
 5470TIP3   OH238044   2.948   3.125   0.579  0.4324 -0.2584 -0.4023
 5470TIP3    H138045   2.933   3.204   0.630  0.9853 -0.8581  0.7211
 5470TIP3    H238046   3.012   3.075   0.629  0.2953 -1.3011 -1.2219
 5471TIP3   OH238047   1.294   6.159   2.277  0.0843  0.3502  0.1690
 5471TIP3    H138048   1.280   6.115   2.361 -0.1573  0.8274  0.3831
 5471TIP3    H238049   1.269   6.093   2.212 -1.2873  0.5035  0.5018
 5472TIP3   OH238050   2.618   2.798   8.258 -0.0320  0.1498  0.4764
 5472TIP3    H138051   2.552   2.857   8.222 -0.1385  0.4604  1.1618
 5472TIP3    H238052   2.591   2.711   8.229  0.6725  0.5164 -1.3650
 5473TIP3   OH238053   1.996   0.176   0.364  0.1044 -0.2383  0.3090
 5473TIP3    H138054   1.946   0.228   0.301  1.1439  0.3510 -0.0457
 5473TIP3    H238055   1.933   0.158   0.434  0.3800  3.9942  1.9361
 5474TIP3   OH238056   2.245   4.610   1.336  0.1710 -0.1254 -0.6402
 5474TIP3    H138057   2.191   4.689   1.339  1.3385  0.6931 -0.4692
 5474TIP3    H238058   2.248   4.580   1.427  0.9513  0.5046 -0.4487
 5475TIP3   OH238059   4.083   4.754   8.350  0.6661 -0.3397 -0.4664
 5475TIP3    H138060   4.082   4.736   8.256 -0.5344  0.6756 -0.6768
 5475TIP3    H238061   4.150   4.822   8.360  0.5006 -0.1402 -0.6685
 5476TIP3   OH238062   3.936   1.791   1.516 -0.3833 -0.3870  0.3294
 5476TIP3    H138063   3.980   1.809   1.599 -3.0074 -1.6053  2.1334
 5476TIP3    H238064   3.847   1.824   1.528 -0.1231  2.4530 -3.3144
 5477TIP3   OH238065   6.559   0.338   7.361 -0.2281  0.1715  0.5612
 5477TIP3    H138066   6.474   0.370   7.392 -0.7061  1.0775 -1.5587
 5477TIP3    H238067   6.605   0.315   7.442 -1.3787  2.4237  1.9946
 5478TIP3   OH238068   1.387   5.923   0.248 -0.5422 -0.4633  0.1660
 5478TIP3    H138069   1.417   5.847   0.297 -0.2209 -0.3159  0.1957
 5478TIP3    H238070   1.340   5.976   0.313  0.1091 -0.1392  0.3783
 5479TIP3   OH238071   5.236   2.991   2.326  0.2173 -0.3330  0.3086
 5479TIP3    H138072   5.152   2.958   2.357 -0.0653  0.6777  0.6767
 5479TIP3    H238073   5.252   3.069   2.379  0.7468  0.2378 -0.6581
 5480TIP3   OH238074   2.062   6.243   6.770  0.0769 -0.1919 -0.5069
 5480TIP3    H138075   2.129   6.310   6.781  1.1911 -0.8994 -2.4944
 5480TIP3    H238076   2.111   6.163   6.752 -1.2571 -0.4689 -3.3919
 5481TIP3   OH238077   1.540   3.229   1.056 -0.0060  0.2536 -0.0053
 5481TIP3    H138078   1.484   3.184   1.119  0.1981  0.9667  0.7075
 5481TIP3    H238079   1.481   3.256   0.986 -0.2251 -0.5945 -0.1531
 5482TIP3   OH238080   3.495   5.024   1.770  0.0688  0.4624  0.6566
 5482TIP3    H138081   3.510   4.971   1.691 -1.9942  0.1753  0.4119
 5482TIP3    H238082   3.430   4.974   1.820 -0.4561  1.8322  1.3730
 5483TIP3   OH238083   3.324   6.008   1.052 -0.1399 -0.4964 -0.3675
 5483TIP3    H138084   3.272   5.955   0.992  0.4948 -0.7372 -0.7142
 5483TIP3    H238085   3.348   6.086   1.001 -0.5266 -0.1775 -0.0684
 5484TIP3   OH238086   6.679   6.379   7.430  0.1759  0.3774 -0.1253
 5484TIP3    H138087   6.697   6.418   7.516  2.8106 -0.6917 -0.1075
 5484TIP3    H238088   6.646   6.291   7.450 -1.4837  0.9366 -0.2338
 5485TIP3   OH238089   5.186   5.777   0.779  0.0844 -0.0490  0.1402
 5485TIP3    H138090   5.103   5.800   0.738 -0.3075 -0.2717  0.7933
 5485TIP3    H238091   5.238   5.738   0.709  0.1802  1.3776 -0.6310
 5486TIP3   OH238092   3.601   6.701   7.416 -0.6004 -0.3892 -0.4210
 5486TIP3    H138093   3.624   6.613   7.388 -0.1275 -0.1821 -0.7110
 5486TIP3    H238094   3.666   6.757   7.373  0.2147 -0.0706  1.1602
 5487TIP3   OH238095   0.268   3.631   2.740 -0.3591 -0.6220  0.4059
 5487TIP3    H138096   0.207   3.642   2.667 -0.9877  4.8729  1.3805
 5487TIP3    H238097   0.354   3.631   2.698 -0.7499  1.3666 -0.5305
 5488TIP3   OH238098   1.850   2.162   1.878  0.3144  0.9120 -0.0272
 5488TIP3    H138099   1.855   2.173   1.973 -0.2080  1.3986 -0.0480
 5488TIP3    H238100   1.757   2.152   1.860  0.5809 -2.4413 -0.1734
 5489TIP3   OH238101   5.427   2.281   7.374 -0.2580 -0.1604 -0.4955
 5489TIP3    H138102   5.465   2.369   7.376  0.2444 -0.3712 -0.4726
 5489TIP3    H238103   5.488   2.230   7.322 -0.9421 -0.3240 -1.1458
 5490TIP3   OH238104   3.492   4.211   2.010  0.3821 -0.1257  0.2417
 5490TIP3    H138105   3.432   4.141   1.986  1.2452 -1.7972  2.5294
 5490TIP3    H238106   3.481   4.277   1.942 -0.8788 -2.2317 -1.7544
 5491TIP3   OH238107   5.239   3.245   2.883 -0.7093  0.0337 -0.6848
 5491TIP3    H138108   5.308   3.308   2.862 -0.6573  0.0480 -0.4747
 5491TIP3    H238109   5.209   3.271   2.970 -1.1584  0.1869 -0.8806
 5492TIP3   OH238110   5.014   5.996   6.672 -0.0618  0.0922  0.3613
 5492TIP3    H138111   5.006   6.078   6.720  0.3412 -0.1657  0.8877
 5492TIP3    H238112   5.105   5.968   6.688 -0.4512 -0.9003  0.9433
 5493TIP3   OH238113   4.759   4.353   0.890  0.1104  0.3742 -0.4213
 5493TIP3    H138114   4.830   4.304   0.848  0.9187  1.3293 -0.2049
 5493TIP3    H238115   4.800   4.434   0.920 -0.8657  0.5293  0.5585
 5494TIP3   OH238116   4.532   6.289   1.551  0.2472  0.3360  0.0171
 5494TIP3    H138117   4.558   6.197   1.545  0.2162  0.2975  0.4735
 5494TIP3    H238118   4.461   6.298   1.487  0.4401  0.1111 -0.2324
 5495TIP3   OH238119   2.337   0.911   2.506  0.0029 -0.2088  0.0857
 5495TIP3    H138120   2.305   0.925   2.595  1.4152  2.3285  0.3000
 5495TIP3    H238121   2.354   0.816   2.501 -3.5150 -1.0350  1.2044
 5496TIP3   OH238122   1.534   2.628   2.830  0.3929  0.3018 -0.1073
 5496TIP3    H138123   1.626   2.649   2.841  0.2413  1.2858 -0.6614
 5496TIP3    H238124   1.530   2.533   2.843  1.4511  0.2676  0.0713
 5497TIP3   OH238125   1.173   3.092   3.007  0.7320  0.0656 -0.4558
 5497TIP3    H138126   1.088   3.060   2.979  0.6309  1.0742 -1.3464
 5497TIP3    H238127   1.235   3.026   2.976  0.1631 -1.9897  2.3153
 5498TIP3   OH238128   0.110   0.254   8.494  0.1559 -0.0504 -0.4926
 5498TIP3    H138129   0.143   0.235   8.406  1.4943  1.7747 -0.4534
 5498TIP3    H238130   0.183   0.231   8.552 -0.5162 -0.7361  0.0948
 5499TIP3   OH238131   6.163   3.154   8.360 -1.0188  0.0743  0.6077
 5499TIP3    H138132   6.200   3.080   8.409  1.6439  0.5520 -0.4689
 5499TIP3    H238133   6.138   3.217   8.428 -0.1080 -0.4471  1.4669
 5500TIP3   OH238134   4.769   5.073   2.488 -0.0436  0.3570 -0.0542
 5500TIP3    H138135   4.834   5.023   2.537  1.0333  0.8367 -0.9645
 5500TIP3    H238136   4.704   5.099   2.554 -0.2801 -1.6184  0.5588
 5501TIP3   OH238137   4.568   3.261   8.089 -0.1749  0.3414  0.1588
 5501TIP3    H138138   4.513   3.305   8.154  0.5992  1.2734  0.2040
 5501TIP3    H238139   4.587   3.328   8.024  0.9784  0.0634  0.1848
 5502TIP3   OH238140   6.884   0.150   2.016  0.0248  0.0603 -0.3232
 5502TIP3    H138141   6.886   0.239   2.052 -1.5224 -1.0082  2.7626
 5502TIP3    H238142   6.791   0.133   1.999  0.3871 -0.7397 -1.6524
 5503TIP3   OH238143   3.262   1.244   0.014 -0.2624  0.5464  0.2086
 5503TIP3    H138144   3.282   1.154  -0.010 -1.1503  0.7885 -1.7148
 5503TIP3    H238145   3.331   1.296  -0.027 -0.6326  0.8415 -0.0491
 5504TIP3   OH238146   0.744   3.867   2.477 -0.6145 -0.0120  0.3478
 5504TIP3    H138147   0.818   3.925   2.493 -0.6402  0.7686 -2.0170
 5504TIP3    H238148   0.673   3.902   2.531  0.4461 -0.2419  1.9577
 5505TIP3   OH238149   3.287   6.375   0.132  0.5068 -0.3470  0.3065
 5505TIP3    H138150   3.238   6.374   0.050  0.2114  0.6046  0.4687
 5505TIP3    H238151   3.254   6.299   0.180  0.9868 -1.1711 -0.6214
 5506TIP3   OH238152   1.383   4.164   3.077  0.1769  0.2161  0.5744
 5506TIP3    H138153   1.288   4.156   3.081  0.2722 -1.3720  0.0962
 5506TIP3    H238154   1.406   4.128   2.991  1.5235 -3.2062  2.2256
 5507TIP3   OH238155   6.820   0.763   0.829  0.0316  0.2888  0.2230
 5507TIP3    H138156   6.838   0.735   0.919 -1.9474 -0.8241  0.3261
 5507TIP3    H238157   6.905   0.762   0.786  0.4494 -4.8138  0.5705
 5508TIP3   OH238158   1.202   2.078   1.690 -0.5239  0.2498  0.1341
 5508TIP3    H138159   1.153   2.018   1.635 -0.0813 -0.3856  0.4281
 5508TIP3    H238160   1.137   2.116   1.749 -1.0392  1.0748 -0.9209
 5509TIP3   OH238161   0.999   2.071   0.496  0.4026 -0.0645  0.5912
 5509TIP3    H138162   0.911   2.100   0.520 -0.0292  0.7356 -1.6568
 5509TIP3    H238163   1.053   2.150   0.505  0.5158 -0.1034  0.2560
 5510TIP3   OH238164   5.640   3.712   2.441 -0.5672 -0.0935 -0.5868
 5510TIP3    H138165   5.650   3.676   2.353 -1.4121 -0.5031 -0.5255
 5510TIP3    H238166   5.729   3.740   2.467 -0.3136  0.0108 -1.5500
 5511TIP3   OH238167   1.053   3.125   0.574 -0.4791 -0.8690 -0.4859
 5511TIP3    H138168   1.036   3.173   0.493 -0.8966 -0.2005 -0.0218
 5511TIP3    H238169   1.138   3.156   0.603 -2.0662  2.1278  1.4799
 5512TIP3   OH238170   2.620   0.535   8.571 -0.7701 -0.1008 -0.2341
 5512TIP3    H138171   2.616   0.625   8.538  0.9810  0.3570  0.6855
 5512TIP3    H238172   2.550   0.490   8.524 -2.1003  1.8646 -0.2759
 5513TIP3   OH238173   4.842   3.739   6.785 -0.0375 -0.4363 -0.5186
 5513TIP3    H138174   4.786   3.816   6.778  0.5816  0.1506  0.7707
 5513TIP3    H238175   4.809   3.692   6.861  1.5653  0.2322  0.6326
 5514TIP3   OH238176   5.005   0.249   8.192  0.0378 -0.0430  0.1439
 5514TIP3    H138177   4.942   0.309   8.151 -2.1032 -1.1826  1.5507
 5514TIP3    H238178   5.036   0.298   8.269  1.2933  0.7047 -0.8074
 5515TIP3   OH238179   3.582   0.789   7.527 -0.6616  0.0339 -0.1377
 5515TIP3    H138180   3.591   0.699   7.559  1.2509  0.8318  1.7776
 5515TIP3    H238181   3.491   0.812   7.547 -0.7637 -0.9913  0.7121
 5516TIP3   OH238182   1.219   3.656   0.274 -0.2233 -0.2781 -0.9700
 5516TIP3    H138183   1.165   3.595   0.324  0.4427 -1.6354 -1.8284
 5516TIP3    H238184   1.295   3.673   0.329 -0.1027 -0.7539 -0.9857
 5517TIP3   OH238185   5.755   5.774   6.968 -0.1407  0.1475 -0.3040
 5517TIP3    H138186   5.691   5.752   6.899 -1.7813 -0.6516  1.3884
 5517TIP3    H238187   5.784   5.689   7.001 -0.9808  0.4676  1.3740
 5518TIP3   OH238188   5.974   2.630   0.186 -0.2959 -0.1254 -0.2817
 5518TIP3    H138189   5.948   2.653   0.276 -1.6680  0.6321 -0.8428
 5518TIP3    H238190   5.905   2.571   0.155  0.9312 -1.5707 -0.3724
 5519TIP3   OH238191   5.590   0.722   7.703 -0.2638 -0.0019 -0.2815
 5519TIP3    H138192   5.580   0.709   7.798 -1.8056  0.8928 -0.2867
 5519TIP3    H238193   5.500   0.732   7.671  0.2031 -0.7121 -1.9210
 5520TIP3   OH238194   1.387   3.594   0.649  0.3780 -0.1781  0.4058
 5520TIP3    H138195   1.362   3.665   0.590  1.3707 -0.3226 -0.2079
 5520TIP3    H238196   1.415   3.639   0.729 -0.0520  0.0623  0.4286
 5521TIP3   OH238197   3.575   4.976   7.357 -0.1904 -0.1435 -0.1446
 5521TIP3    H138198   3.529   4.903   7.398 -0.3159 -0.4340 -0.7924
 5521TIP3    H238199   3.650   4.935   7.314  0.4430  0.2734  0.5444
 5522TIP3   OH238200   0.835   3.706   2.273  0.4210 -0.7072 -0.6269
 5522TIP3    H138201   0.888   3.644   2.324 -1.1940 -1.9572 -0.4015
 5522TIP3    H238202   0.789   3.758   2.339 -0.4110 -1.2151 -0.7933
 5523TIP3   OH238203   5.256   5.919   6.784 -0.4713  0.4287 -0.2056
 5523TIP3    H138204   5.227   5.935   6.874 -0.7897  1.0570 -0.4150
 5523TIP3    H238205   5.342   5.879   6.793 -1.0928 -0.8408  0.4133
 5524TIP3   OH238206   6.442   0.196   1.427  0.1498  0.1067 -0.4693
 5524TIP3    H138207   6.364   0.142   1.418  0.4388 -0.3863 -0.0833
 5524TIP3    H238208   6.437   0.259   1.355  0.2295 -0.9704 -1.4333
 5525TIP3   OH238209   1.820   5.486   1.944  0.3434  0.0289 -0.4380
 5525TIP3    H138210   1.868   5.550   1.996 -1.5844  0.1227  1.3449
 5525TIP3    H238211   1.808   5.412   2.002 -0.8135 -0.3757 -1.1637
 5526TIP3   OH238212   4.210   0.116   7.128 -0.4125  0.0071 -0.3427
 5526TIP3    H138213   4.178   0.203   7.105 -0.7065 -0.0307 -0.0920
 5526TIP3    H238214   4.150   0.086   7.197 -1.4138 -1.1004 -1.6299
 5527TIP3   OH238215   6.129   5.079   2.279 -0.4366  0.2585  0.1335
 5527TIP3    H138216   6.212   5.102   2.237 -1.2952  2.6427 -0.4132
 5527TIP3    H238217   6.075   5.044   2.209 -0.1400 -0.6310  0.3437
 5528TIP3   OH238218   6.277   5.166   8.099  0.1455  0.5707  0.8428
 5528TIP3    H138219   6.364   5.192   8.132  0.7155  0.7915 -0.7675
 5528TIP3    H238220   6.266   5.076   8.130  0.5994  0.7917  1.7029
 5529TIP3   OH238221   0.299   0.263   7.752  0.3265  0.1083  0.1023
 5529TIP3    H138222   0.298   0.359   7.742  0.6466  0.1707  0.6271
 5529TIP3    H238223   0.383   0.236   7.716  0.7525  0.1571  1.0271
 5530TIP3   OH238224   6.770   5.596   6.843  0.1046 -0.2794  0.1658
 5530TIP3    H138225   6.742   5.524   6.787  1.1322  0.3891 -1.2592
 5530TIP3    H238226   6.713   5.668   6.820 -1.8352 -0.9151  2.5472
 5531TIP3   OH238227   0.637   2.131   2.457  0.0151 -0.4050 -0.2339
 5531TIP3    H138228   0.732   2.126   2.467 -0.1222 -0.0113  1.5552
 5531TIP3    H238229   0.613   2.050   2.413  1.3320  0.2486 -2.3392
 5532TIP3   OH238230   2.363   3.972   2.093  0.2760 -0.0134  0.1896
 5532TIP3    H138231   2.407   4.045   2.050 -0.9234  1.4838  1.3656
 5532TIP3    H238232   2.288   3.953   2.036 -0.9741  1.5735  1.1972
 5533TIP3   OH238233   0.941   3.659   7.513  0.3591  0.4297  0.0008
 5533TIP3    H138234   0.924   3.626   7.425 -2.0902 -0.9411  0.8677
 5533TIP3    H238235   0.911   3.750   7.511 -1.3260 -0.0842 -0.2223
 5534TIP3   OH238236   2.536   3.363   0.833  0.4468 -0.0051 -0.1748
 5534TIP3    H138237   2.497   3.304   0.769  1.3607 -0.2360 -0.5434
 5534TIP3    H238238   2.554   3.443   0.784 -1.0449  0.7007  0.3923
 5535TIP3   OH238239   2.211   6.204   8.252 -0.1845  0.4729 -0.1150
 5535TIP3    H138240   2.136   6.161   8.293 -1.0573  0.2349 -1.8660
 5535TIP3    H238241   2.268   6.131   8.225 -0.0255  0.5852 -0.0839
 5536TIP3   OH238242   1.688   0.479   8.327 -0.3608 -0.2183  0.1133
 5536TIP3    H138243   1.667   0.407   8.268  1.0520  0.4582 -1.2785
 5536TIP3    H238244   1.680   0.558   8.274  3.2601  0.2614 -0.0129
 5537TIP3   OH238245   6.436   0.995   0.332 -0.0113  0.5814 -0.6077
 5537TIP3    H138246   6.369   0.997   0.400  2.1956  1.2020  1.6715
 5537TIP3    H238247   6.392   1.031   0.255 -2.6542 -0.2792  0.3944
 5538TIP3   OH238248   5.769   5.966   1.284 -0.0879  0.1929 -0.2451
 5538TIP3    H138249   5.830   6.005   1.221  1.1222  0.0022  0.7665
 5538TIP3    H238250   5.715   5.907   1.232  0.4424  0.5427 -1.2142
 5539TIP3   OH238251   0.113   0.769   8.255  0.3781 -0.1680  0.5568
 5539TIP3    H138252   0.060   0.833   8.302 -0.7992  0.8426 -1.9529
 5539TIP3    H238253   0.203   0.799   8.266  0.0319  0.6981  1.1588
 5540TIP3   OH238254   1.404   1.470   1.859 -0.1742 -0.8615  0.1291
 5540TIP3    H138255   1.443   1.391   1.823 -1.6199 -1.4180 -0.2658
 5540TIP3    H238256   1.325   1.485   1.807  1.2742  2.2466 -1.4550
 5541TIP3   OH238257   3.828   2.436   0.543 -0.0676  0.4879 -0.5804
 5541TIP3    H138258   3.817   2.442   0.448 -1.5777 -0.1822 -0.4781
 5541TIP3    H238259   3.825   2.342   0.562  0.3171  0.6113  0.1292
 5542TIP3   OH238260   2.530   3.018   1.422  0.0224  0.0763 -0.0900
 5542TIP3    H138261   2.459   2.978   1.472 -0.3273 -1.2183 -1.5295
 5542TIP3    H238262   2.487   3.089   1.373  0.3639  1.3402  1.3546
 5543TIP3   OH238263   6.925   4.937   1.376  0.3199  0.2345 -0.0417
 5543TIP3    H138264   6.941   5.009   1.437  1.6680 -0.6493  0.7048
 5543TIP3    H238265   6.852   4.968   1.321  0.4656  1.9042  0.6319
 5544TIP3   OH238266   4.344   1.987   7.352  0.0340 -0.3783  0.0740
 5544TIP3    H138267   4.313   1.911   7.303  1.9502 -1.9479  1.1140
 5544TIP3    H238268   4.277   2.002   7.419 -0.0462 -1.6291  0.2977
 5545TIP3   OH238269   5.306   1.075   2.009  0.1770 -1.2523  1.2326
 5545TIP3    H138270   5.236   1.140   2.016 -0.0279 -1.3993  0.6249
 5545TIP3    H238271   5.321   1.066   1.915  0.5741 -1.6934  1.3344
 5546TIP3   OH238272   5.587   0.889   8.180  0.0880 -0.3089 -0.1890
 5546TIP3    H138273   5.629   0.916   8.262  1.1127 -0.8519 -0.5165
 5546TIP3    H238274   5.643   0.925   8.111 -1.7227  1.6728 -0.7296
 5547TIP3   OH238275   3.733   5.924   8.172  0.0443 -0.7152  0.8623
 5547TIP3    H138276   3.749   5.835   8.139 -1.4493 -0.3783 -0.9934
 5547TIP3    H238277   3.804   5.977   8.136 -0.8993 -0.5868 -0.9361
 5548TIP3   OH238278   5.233   5.123   2.073 -0.5230  0.2735 -0.4250
 5548TIP3    H138279   5.306   5.128   2.135  0.3080  1.0142 -1.4475
 5548TIP3    H238280   5.217   5.029   2.064  1.1827  0.0108 -1.1704
 5549TIP3   OH238281   2.231   2.765   0.848  0.5395  0.0767 -0.0239
 5549TIP3    H138282   2.156   2.809   0.888 -1.4909 -2.1050 -1.1643
 5549TIP3    H238283   2.271   2.832   0.793 -2.2370  0.6856 -1.4787
 5550TIP3   OH238284   6.437   5.996   3.238  0.7370  0.1542 -0.1007
 5550TIP3    H138285   6.415   6.071   3.183  1.1033 -0.2117 -0.7534
 5550TIP3    H238286   6.510   6.027   3.292  0.3670  0.5182  0.1939
 5551TIP3   OH238287   3.765   2.856   2.710  0.0144  0.8326  0.6309
 5551TIP3    H138288   3.845   2.909   2.711  0.8284 -0.3085 -0.3007
 5551TIP3    H238289   3.727   2.872   2.624  1.1093 -1.2118 -0.3066
 5552TIP3   OH238290   5.786   1.187   1.803 -0.0092  0.0407 -0.0196
 5552TIP3    H138291   5.700   1.209   1.766 -0.4436 -0.0048  0.9184
 5552TIP3    H238292   5.800   1.253   1.872  0.1583 -0.6559  0.6307
 5553TIP3   OH238293   2.968   1.854   2.843 -0.9185 -0.8766  0.0087
 5553TIP3    H138294   3.039   1.919   2.836 -0.2859 -1.4450  0.9802
 5553TIP3    H238295   2.993   1.799   2.918 -3.3179  0.0481  1.5950
 5554TIP3   OH238296   0.695   4.881   8.107 -0.3467 -0.5407  0.4664
 5554TIP3    H138297   0.733   4.914   8.189 -0.7779 -1.4856  1.0665
 5554TIP3    H238298   0.766   4.833   8.065  0.3902  1.3341 -0.5794
 5555TIP3   OH238299   1.286   2.915   8.376  0.6108  0.8487  0.1356
 5555TIP3    H138300   1.321   2.909   8.465 -0.2664  1.3255  0.5373
 5555TIP3    H238301   1.203   2.962   8.387  0.5247  0.9745 -0.9473
 5556TIP3   OH238302   0.450   3.209   7.206  0.0537  0.4992 -0.1296
 5556TIP3    H138303   0.362   3.188   7.173  0.3177 -0.9854  0.0689
 5556TIP3    H238304   0.450   3.176   7.296  0.5244  1.3346  0.1869
 5557TIP3   OH238305   3.873   3.687   2.911  0.4969 -0.7089 -0.1076
 5557TIP3    H138306   3.788   3.649   2.936 -0.0597 -0.4840 -1.5570
 5557TIP3    H238307   3.925   3.683   2.991 -0.5242 -1.8314  0.5390
 5558TIP3   OH238308   4.160   4.689   8.096 -0.4204 -0.6681  0.4044
 5558TIP3    H138309   4.242   4.718   8.056 -1.3303  0.3517 -0.8309
 5558TIP3    H238310   4.096   4.693   8.024 -1.1633 -3.3746  0.7976
 5559TIP3   OH238311   5.079   5.264   8.092 -0.8373  0.3539  0.1759
 5559TIP3    H138312   5.087   5.277   8.186  1.8901  0.9746 -0.0493
 5559TIP3    H238313   5.079   5.353   8.055  1.1161  0.1155 -0.5115
 5560TIP3   OH238314   0.412   3.602   0.353  0.2096  0.7030  0.0395
 5560TIP3    H138315   0.351   3.585   0.281  0.9327 -0.2353 -0.3669
 5560TIP3    H238316   0.366   3.571   0.431 -1.7896  4.2828  0.5005
 5561TIP3   OH238317   4.707   6.640   7.483 -0.6315 -0.3387 -0.3399
 5561TIP3    H138318   4.760   6.562   7.467  1.6627  1.1064 -0.2540
 5561TIP3    H238319   4.750   6.709   7.432 -1.7085  1.1894  0.7324
 5562TIP3   OH238320   2.620   2.727   7.670  0.2801  0.2528  0.7118
 5562TIP3    H138321   2.661   2.657   7.620  0.2841  1.7257 -1.4639
 5562TIP3    H238322   2.693   2.774   7.710  0.5110  0.8679 -0.4067
 5563TIP3   OH238323   6.212   0.632   1.143  0.0290 -0.3517 -0.8272
 5563TIP3    H138324   6.300   0.600   1.122  0.9583 -0.8330  3.0108
 5563TIP3    H238325   6.218   0.661   1.234 -3.8284 -0.4624 -0.3556
 5564TIP3   OH238326   2.174   0.045   1.818  0.0102  0.0752  0.4262
 5564TIP3    H138327   2.133   0.006   1.741 -0.7710 -0.3781  1.0515
 5564TIP3    H238328   2.181   0.138   1.797 -1.6821  0.2422  0.3995
 5565TIP3   OH238329   1.330   0.925   7.569 -0.0121 -0.0422  0.2398
 5565TIP3    H138330   1.419   0.899   7.593  0.6600  0.3403 -1.6821
 5565TIP3    H238331   1.274   0.874   7.627  1.4503 -0.3088  1.4829
 5566TIP3   OH238332   0.069   6.177   2.418  0.4198  0.1407 -0.0790
 5566TIP3    H138333   0.068   6.183   2.514 -1.1057 -0.7707 -0.0171
 5566TIP3    H238334  -0.020   6.197   2.392  0.7096 -0.0974 -1.2939
 5567TIP3   OH238335   6.549   5.614   1.313 -0.6535 -0.1702  0.8879
 5567TIP3    H138336   6.528   5.661   1.233 -0.9446  0.7983  1.5169
 5567TIP3    H238337   6.469   5.567   1.335 -1.0798  0.7802  1.4217
 5568TIP3   OH238338   2.581   5.336   7.461 -0.2204  0.4117 -0.8598
 5568TIP3    H138339   2.532   5.297   7.389  1.0708  0.2622 -1.6978
 5568TIP3    H238340   2.672   5.330   7.433  0.3375  0.0786  0.9352
 5569TIP3   OH238341   3.144   3.756   0.364 -0.7573  0.1624 -0.4394
 5569TIP3    H138342   3.114   3.844   0.387 -2.1842 -0.4006 -0.0779
 5569TIP3    H238343   3.067   3.713   0.326 -0.6637 -1.6125  1.2509
 5570TIP3   OH238344   5.547   1.194   2.067 -0.2762 -0.3944  0.4853
 5570TIP3    H138345   5.466   1.153   2.039 -0.0524 -1.1874  0.9404
 5570TIP3    H238346   5.522   1.252   2.139 -0.6283  0.4521 -0.3085
 5571TIP3   OH238347   5.933   4.288   0.197  0.1219 -0.1967  0.4445
 5571TIP3    H138348   5.976   4.373   0.184 -1.7636  0.7773  0.2957
 5571TIP3    H238349   5.974   4.231   0.132  0.0798  1.1269 -0.7927
 5572TIP3   OH238350   0.802   4.285   0.335 -0.6233  0.1433 -0.2050
 5572TIP3    H138351   0.847   4.367   0.355 -1.1415  0.3154  0.2640
 5572TIP3    H238352   0.769   4.297   0.246  0.3301 -0.0230 -0.5912
 5573TIP3   OH238353   1.567   6.514   0.452  0.1244 -0.2549 -0.4615
 5573TIP3    H138354   1.602   6.543   0.368 -0.0819  1.4251 -0.0113
 5573TIP3    H238355   1.479   6.480   0.431  0.1500 -0.0267 -0.9489
 5574TIP3   OH238356   6.531   6.550   8.184  0.1106 -0.1735  0.4965
 5574TIP3    H138357   6.491   6.633   8.161  0.6501 -0.4433 -1.5918
 5574TIP3    H238358   6.605   6.574   8.240  0.0800  0.7216  0.1681
 5575TIP3   OH238359   5.659   0.055   1.967  0.1713 -0.1128 -0.4449
 5575TIP3    H138360   5.686   0.116   1.898 -0.7892 -0.5795 -1.2608
 5575TIP3    H238361   5.570   0.083   1.989  0.2855 -0.2870  0.2590
 5576TIP3   OH238362   6.636   1.611   2.693 -0.6653 -0.1698  0.0572
 5576TIP3    H138363   6.601   1.639   2.777  0.0551  0.8955  0.0227
 5576TIP3    H238364   6.569   1.553   2.657 -1.7447  0.7106  0.6118
 5577TIP3   OH238365   5.946   0.378   7.173 -0.1060 -0.6379  0.1357
 5577TIP3    H138366   6.013   0.381   7.241  0.4724 -2.1853 -0.3325
 5577TIP3    H238367   5.961   0.457   7.121  0.3545 -0.1824  0.9345
 5578TIP3   OH238368   4.412   3.853   0.408 -0.0737 -0.3580  0.0406
 5578TIP3    H138369   4.342   3.896   0.457  0.7355 -1.0439  1.8965
 5578TIP3    H238370   4.480   3.920   0.398 -0.1947 -0.2500 -0.0654
 5579TIP3   OH238371   5.430   5.101   1.422  0.3634 -0.4191  0.0712
 5579TIP3    H138372   5.375   5.125   1.497  1.0656  1.1155  0.1136
 5579TIP3    H238373   5.509   5.065   1.462  0.3600 -0.4519  0.0479
 5580TIP3   OH238374   0.049   0.884   7.305  0.1215 -0.4027 -0.0402
 5580TIP3    H138375  -0.034   0.858   7.265  0.0748 -0.5053  0.1223
 5580TIP3    H238376   0.055   0.830   7.384 -0.2434  0.4702  0.6019
 5581TIP3   OH238377   3.562   5.633   2.348  0.3504 -0.2079  0.4521
 5581TIP3    H138378   3.646   5.600   2.316 -0.0492 -1.7984  0.9209
 5581TIP3    H238379   3.499   5.567   2.320 -1.0018  1.6491 -1.1145
 5582TIP3   OH238380   6.030   6.669   2.041 -0.0878  0.7139  0.1885
 5582TIP3    H138381   5.984   6.711   1.968 -0.2613  2.4927  1.2713
 5582TIP3    H238382   5.967   6.607   2.078 -1.3458  2.4338  1.0627
 5583TIP3   OH238383   0.257   2.550   6.946  0.0405 -0.1333  0.2057
 5583TIP3    H138384   0.310   2.521   7.020  1.4220 -0.0082 -0.7068
 5583TIP3    H238385   0.271   2.644   6.942 -0.2278 -0.1043 -0.0694
 5584TIP3   OH238386   0.476   3.090   7.462  0.8481  0.2475 -0.0928
 5584TIP3    H138387   0.381   3.099   7.455  0.8356  0.6340  0.5763
 5584TIP3    H238388   0.494   3.092   7.556  1.6588  1.6118 -0.2578
 5585TIP3   OH238389   1.677   3.273   1.408  0.5905 -0.3055 -0.0608
 5585TIP3    H138390   1.582   3.275   1.415  0.7161 -0.3316  2.7363
 5585TIP3    H238391   1.700   3.361   1.376 -0.3951 -1.0604 -3.2248
 5586TIP3   OH238392   4.535   2.196   1.841  0.0813 -0.1317 -0.2261
 5586TIP3    H138393   4.602   2.132   1.866  0.2809  1.2189  3.3322
 5586TIP3    H238394   4.584   2.263   1.793  1.1080  0.1939  1.1913
 5587TIP3   OH238395   4.721   4.047   7.788 -0.2929 -0.0973 -0.3135
 5587TIP3    H138396   4.692   3.983   7.724 -1.0935 -1.7394  1.5809
 5587TIP3    H238397   4.641   4.089   7.818  0.0601  0.5819 -0.2945
 5588TIP3   OH238398   2.913   2.616   1.502  0.3589 -0.4511 -0.0002
 5588TIP3    H138399   2.832   2.619   1.553  0.2783 -2.2285  0.0561
 5588TIP3    H238400   2.926   2.523   1.484  0.5184  0.0306 -2.9988
 5589TIP3   OH238401   3.807   4.258   3.287 -0.1707 -0.4486 -0.0176
 5589TIP3    H138402   3.860   4.331   3.320 -0.0417  0.4115 -1.9629
 5589TIP3    H238403   3.869   4.203   3.239 -0.6474 -0.6653 -0.3891
 5590TIP3   OH238404   6.864   3.800   0.206  0.1300  0.3948  0.5221
 5590TIP3    H138405   6.911   3.873   0.247 -1.0711  1.6784 -0.2906
 5590TIP3    H238406   6.853   3.826   0.115  1.0609 -1.5543 -0.1961
 5591TIP3   OH238407   0.977   5.186   7.157 -0.1153  0.6131 -0.3828
 5591TIP3    H138408   1.025   5.105   7.176 -1.6457 -0.2447 -0.0476
 5591TIP3    H238409   0.962   5.183   7.063 -0.2653  0.4557 -0.3538
 5592TIP3   OH238410   4.837   5.351   8.532  0.2053  0.1494  0.7482
 5592TIP3    H138411   4.925   5.357   8.494  0.5497  0.2161  1.5317
 5592TIP3    H238412   4.852   5.337   8.626 -0.6192  0.6630  0.9726
 5593TIP3   OH238413   1.431   4.383   2.117 -0.0619 -0.0957  0.4161
 5593TIP3    H138414   1.387   4.300   2.098 -0.3103  0.0282  0.4496
 5593TIP3    H238415   1.472   4.408   2.035 -1.1399  0.4477  0.0262
 5594TIP3   OH238416   0.142   5.179   7.201  0.3131  0.4043 -0.0696
 5594TIP3    H138417   0.179   5.091   7.207  0.7793  0.6512  0.8509
 5594TIP3    H238418   0.204   5.228   7.147 -0.4831 -0.0848 -1.4895
 5595TIP3   OH238419   2.404   2.337   2.466 -0.4517  0.2331  0.0705
 5595TIP3    H138420   2.348   2.270   2.506  0.7263 -0.1232  1.2058
 5595TIP3    H238421   2.372   2.419   2.503  0.2526 -0.0429  1.3889
 5596TIP3   OH238422   6.111   5.692   7.963 -0.0935 -0.2030 -0.1867
 5596TIP3    H138423   6.205   5.692   7.944  0.1938 -0.2382  1.1515
 5596TIP3    H238424   6.102   5.634   8.038 -1.0093  0.8108  0.5109
 5597TIP3   OH238425   0.519   6.257   1.649 -0.3987 -0.2355  0.0042
 5597TIP3    H138426   0.607   6.295   1.645  0.4347 -1.8182  1.8649
 5597TIP3    H238427   0.466   6.323   1.693 -0.4379  1.1176 -1.9389
 5598TIP3   OH238428   4.527   4.964   2.273 -0.0986  0.5813 -0.5516
 5598TIP3    H138429   4.601   5.010   2.313 -0.6304  1.0538 -0.0805
 5598TIP3    H238430   4.480   4.926   2.348  0.9271 -1.6968 -0.9915
 5599TIP3   OH238431   1.922   2.058   2.143  0.1503  0.1202 -0.1608
 5599TIP3    H138432   1.888   2.012   2.220 -0.6491 -0.5966 -0.9202
 5599TIP3    H238433   2.004   2.097   2.173  1.2808 -2.4400  0.3347
 5600TIP3   OH238434   4.435   3.118   2.825 -0.0700  0.5195 -0.3249
 5600TIP3    H138435   4.530   3.134   2.821 -0.0458  0.3310 -0.5062
 5600TIP3    H238436   4.427   3.023   2.835 -0.2297  0.5790  0.1495
 5601TIP3   OH238437   3.526   2.519   8.149 -0.6791 -0.4580  0.1213
 5601TIP3    H138438   3.570   2.434   8.152 -3.5668 -2.0962 -0.6496
 5601TIP3    H238439   3.468   2.519   8.225 -0.6734  0.9075  0.1621
 5602TIP3   OH238440   4.083   3.558   7.748  0.7172 -0.5811  0.0911
 5602TIP3    H138441   4.007   3.588   7.698 -0.0414 -0.5609  1.2083
 5602TIP3    H238442   4.159   3.590   7.700  0.0017  0.0167 -0.6591
 5603TIP3   OH238443   5.278   1.896   7.967  0.4650  0.1991  0.4154
 5603TIP3    H138444   5.188   1.864   7.958  1.1429 -1.9319  0.7012
 5603TIP3    H238445   5.268   1.990   7.984 -1.6353  0.2887 -0.9128
 5604TIP3   OH238446   4.234   5.715   8.348 -0.0388  0.2742 -0.0389
 5604TIP3    H138447   4.169   5.768   8.301  0.4368 -0.6754 -1.8481
 5604TIP3    H238448   4.185   5.677   8.422 -1.0138  1.1631 -0.1990
 5605TIP3   OH238449   2.732   3.384   0.440  0.1120 -0.3602 -0.3774
 5605TIP3    H138450   2.688   3.443   0.501  1.2415  0.7023 -0.5658
 5605TIP3    H238451   2.706   3.296   0.469 -2.7350  0.1883 -0.9399
 5606TIP3   OH238452   0.527   0.980   2.524 -0.1768  0.1305 -0.1178
 5606TIP3    H138453   0.582   0.918   2.574 -0.5639 -0.6573 -0.6462
 5606TIP3    H238454   0.579   1.060   2.520  0.4629 -0.2463  0.3439
 5607TIP3   OH238455   5.310   1.726   7.692  0.1748 -0.6260  0.1205
 5607TIP3    H138456   5.218   1.706   7.674 -0.0985  1.7585 -1.7095
 5607TIP3    H238457   5.307   1.801   7.751  0.9720 -1.1182  0.8006
 5608TIP3   OH238458   3.722   6.306   1.842 -0.1012  0.0380  0.1539
 5608TIP3    H138459   3.793   6.306   1.777  0.1945 -0.0268  0.4703
 5608TIP3    H238460   3.675   6.388   1.828  0.0818  0.1135 -0.0136
 5609TIP3   OH238461   6.120   5.214   0.155  0.6493  0.0594  0.6440
 5609TIP3    H138462   6.031   5.248   0.164  1.1596  1.3398  1.0614
 5609TIP3    H238463   6.114   5.124   0.185 -1.0722 -0.7874 -1.8589
 5610TIP3   OH238464   0.567   3.185   2.848 -0.4199 -0.1159  0.2920
 5610TIP3    H138465   0.639   3.128   2.820  0.6509  0.5004  1.6640
 5610TIP3    H238466   0.490   3.128   2.850 -0.0186 -0.7550 -1.3513
 5611TIP3   OH238467   1.460   2.260   0.903 -0.0132 -0.2569 -0.7120
 5611TIP3    H138468   1.372   2.227   0.884 -0.5652  0.6258  0.2091
 5611TIP3    H238469   1.503   2.264   0.818 -0.4386 -1.8684 -1.0372
 5612TIP3   OH238470   1.431   1.636   7.271  0.0382  0.4443  0.3071
 5612TIP3    H138471   1.492   1.571   7.306  0.9499  0.7906 -0.5971
 5612TIP3    H238472   1.401   1.599   7.188  1.3377  1.5758 -0.7144
 5613TIP3   OH238473   3.706   1.435   1.350  0.0051  0.2863 -0.0075
 5613TIP3    H138474   3.763   1.451   1.426 -0.1101  0.3929  0.0569
 5613TIP3    H238475   3.703   1.340   1.342 -1.3685  0.1926  1.1862
 5614TIP3   OH238476   0.273   4.881   1.460  0.0131 -0.7610 -0.1895
 5614TIP3    H138477   0.215   4.942   1.413  0.1368  0.7982  1.5551
 5614TIP3    H238478   0.284   4.808   1.399 -0.4227  0.7839 -2.2678
 5615TIP3   OH238479   3.905   3.025   1.839 -0.6342 -0.2819 -0.2004
 5615TIP3    H138480   3.903   3.115   1.805 -0.6411 -0.3365 -0.3444
 5615TIP3    H238481   3.940   3.034   1.927  0.0891 -0.2221 -0.4872
 5616TIP3   OH238482   3.609   1.135   8.545 -0.2420  0.5724  0.2843
 5616TIP3    H138483   3.687   1.124   8.491 -0.2033  1.6839  0.0935
 5616TIP3    H238484   3.613   1.063   8.608  1.1772  0.8772  0.5651
 5617TIP3   OH238485   5.620   5.811   7.811 -0.3298  0.2912  0.0924
 5617TIP3    H138486   5.550   5.781   7.753 -1.6419  1.0444  1.2268
 5617TIP3    H238487   5.696   5.821   7.753 -1.0466 -0.8770 -1.1096
 5618TIP3   OH238488   2.360   0.785   0.519 -0.2608 -0.0781 -0.9945
 5618TIP3    H138489   2.274   0.775   0.560 -1.2227  0.2585 -2.8046
 5618TIP3    H238490   2.392   0.870   0.549  0.1118 -0.8134  0.7976
 5619TIP3   OH238491   6.776   1.854   1.776  0.1388 -0.0156 -0.0502
 5619TIP3    H138492   6.757   1.831   1.867 -2.9538  0.4394 -0.4700
 5619TIP3    H238493   6.781   1.770   1.730 -4.3380 -0.2963 -0.3960
 5620TIP3   OH238494   4.590   4.529   0.730  0.4931  0.0536 -0.0879
 5620TIP3    H138495   4.667   4.551   0.782 -0.4147  2.9141  0.2586
 5620TIP3    H238496   4.625   4.486   0.652  2.5304  1.5803 -0.1127
 5621TIP3   OH238497   6.522   2.927   0.195  0.2041 -0.2237 -0.2099
 5621TIP3    H138498   6.613   2.941   0.222  0.8069 -2.9730 -0.5993
 5621TIP3    H238499   6.486   2.867   0.260 -1.1391  0.2475 -0.4872
 5622TIP3   OH238500   5.929   0.481   7.791  0.3085  0.4657  0.0903
 5622TIP3    H138501   5.914   0.417   7.861  0.7083  0.6747  0.3698
 5622TIP3    H238502   6.016   0.517   7.810  0.4909  0.4034 -0.6097
 5623TIP3   OH238503   3.776   5.653   8.074 -0.1463  0.4985 -0.3751
 5623TIP3    H138504   3.824   5.635   7.994  2.2783 -1.2559  1.3353
 5623TIP3    H238505   3.753   5.567   8.109  2.5413  0.8735  2.8224
 5624TIP3   OH238506   6.337   4.306   0.383 -0.0307  0.0079 -0.4497
 5624TIP3    H138507   6.404   4.299   0.451 -0.9804  0.2986  0.5457
 5624TIP3    H238508   6.269   4.245   0.411 -0.8163  0.7744 -0.6782
 5625TIP3   OH238509   5.004   6.722   6.915  0.1895  0.1669 -0.2584
 5625TIP3    H138510   4.968   6.645   6.960  0.1844  1.5082  2.2088
 5625TIP3    H238511   5.049   6.686   6.839 -1.2141 -2.1077 -0.1147
 5626TIP3   OH238512   2.838   2.773   1.259  0.4340  0.0027 -0.4692
 5626TIP3    H138513   2.860   2.713   1.330  0.8951  0.7411  0.0237
 5626TIP3    H238514   2.743   2.768   1.253  0.4479 -0.6431 -0.3246
 5627TIP3   OH238515   5.788   5.705   1.703  0.2450  0.1555  0.2094
 5627TIP3    H138516   5.783   5.798   1.679 -1.0907  0.2196  0.6637
 5627TIP3    H238517   5.878   5.680   1.681  0.1492  1.1101 -1.4888
 5628TIP3   OH238518   2.319   6.198   0.685  0.5670  0.1915  0.6166
 5628TIP3    H138519   2.356   6.279   0.720  1.5776  0.2257 -0.4728
 5628TIP3    H238520   2.273   6.159   0.760 -1.5302  2.6192  0.7199
 5629TIP3   OH238521   6.092   4.143   0.417 -0.4871 -0.5160 -0.0904
 5629TIP3    H138522   6.061   4.053   0.430 -0.8892 -0.3477  0.1460
 5629TIP3    H238523   6.025   4.183   0.363 -0.9838  0.0201  0.9059
 5630TIP3   OH238524   1.708   6.904   8.123  0.2772 -0.0212 -0.5506
 5630TIP3    H138525   1.735   6.980   8.071  0.6857 -0.0544 -0.3895
 5630TIP3    H238526   1.772   6.900   8.194 -0.8519  0.6487  0.5628
 5631TIP3   OH238527   4.462   3.841   7.908  0.5691  0.0957  0.0882
 5631TIP3    H138528   4.480   3.802   7.822 -1.1201  1.7167 -1.0757
 5631TIP3    H238529   4.549   3.859   7.944  1.3439 -1.8417 -0.6461
 5632TIP3   OH238530   2.441   5.949   7.233  0.7225 -0.0817  0.1059
 5632TIP3    H138531   2.492   5.869   7.221  0.0357 -1.0143  2.7435
 5632TIP3    H238532   2.404   5.941   7.321 -2.3674  1.4608 -0.9103
 5633TIP3   OH238533   4.441   6.898   1.710 -0.0046  0.2616 -0.0590
 5633TIP3    H138534   4.395   6.815   1.695  0.8515 -0.1851 -0.2294
 5633TIP3    H238535   4.510   6.877   1.773 -0.1816  0.9851  0.3898
 5634TIP3   OH238536   2.174   1.665   7.170  0.3527  0.0699 -0.0574
 5634TIP3    H138537   2.184   1.713   7.088  1.3726  0.6784  0.4021
 5634TIP3    H238538   2.243   1.700   7.227  0.8339 -1.6021  0.4575
 5635TIP3   OH238539   1.516   3.794   2.599  0.3110  0.2571  0.3592
 5635TIP3    H138540   1.466   3.858   2.548  0.4207  0.9805  1.1448
 5635TIP3    H238541   1.454   3.724   2.618  0.2539 -0.0032 -0.7159
 5636TIP3   OH238542   0.040   5.416   8.302  0.0349 -0.4740 -0.0940
 5636TIP3    H138543   0.052   5.332   8.257  0.4896 -1.8187  2.4029
 5636TIP3    H238544   0.125   5.435   8.341 -0.7750 -0.2369  1.6167
 5637TIP3   OH238545   6.875   2.186   0.738  0.2357 -0.0571  0.4940
 5637TIP3    H138546   6.892   2.225   0.652 -0.3061 -0.4130  0.2181
 5637TIP3    H238547   6.952   2.133   0.756  1.3257  1.6898  1.2024
 5638TIP3   OH238548   4.064   2.678   2.606  0.2461  0.8264  0.3597
 5638TIP3    H138549   4.013   2.683   2.687 -0.3126 -1.0484  0.1782
 5638TIP3    H238550   4.155   2.690   2.635 -0.0200  1.0231  1.1415
 5639TIP3   OH238551   2.610   0.241   0.098 -0.8078  0.3884  0.2298
 5639TIP3    H138552   2.666   0.319   0.105 -1.5048  0.7807  2.1342
 5639TIP3    H238553   2.635   0.201   0.015 -0.1088  2.3985 -0.5949
 5640TIP3   OH238554   4.577   2.796   1.555  0.3152  0.0253 -0.1851
 5640TIP3    H138555   4.497   2.828   1.595 -1.8853 -2.8426 -1.8734
 5640TIP3    H238556   4.606   2.867   1.499 -1.2956  0.9996  0.1522
 5641TIP3   OH238557   1.830   0.706   0.066  0.0035  0.6626  0.4042
 5641TIP3    H138558   1.740   0.673   0.072 -0.5998  2.1361 -0.0115
 5641TIP3    H238559   1.829   0.763  -0.011  1.3565  0.5186  0.2694
 5642TIP3   OH238560   1.300   6.911   0.970 -0.1500 -0.3223 -0.2365
 5642TIP3    H138561   1.316   7.001   0.999  0.0387 -0.1460 -0.8845
 5642TIP3    H238562   1.220   6.885   1.017 -2.0506  1.2601 -2.3603
 5643TIP3   OH238563   0.409   4.758   8.449  0.3522 -0.0326 -0.0584
 5643TIP3    H138564   0.380   4.841   8.486 -1.6180 -1.3215  1.5007
 5643TIP3    H238565   0.504   4.768   8.439  0.5823  1.4710  2.7069
 5644TIP3   OH238566   0.981   4.843   1.781 -0.5811  0.0338 -0.0694
 5644TIP3    H138567   0.890   4.872   1.776 -0.6836 -0.3933 -0.8386
 5644TIP3    H238568   1.028   4.918   1.819 -1.1729  0.4338 -0.1121
 5645TIP3   OH238569   6.914   3.883   1.976  0.1428 -0.7045 -0.2636
 5645TIP3    H138570   6.990   3.901   1.921 -0.3528 -0.1608 -0.7941
 5645TIP3    H238571   6.899   3.789   1.967  1.1614 -0.9417  0.3990
 5646TIP3   OH238572   1.246   0.608   0.394  0.2279  0.6809  0.0717
 5646TIP3    H138573   1.318   0.650   0.441  0.4421 -0.5222  0.8640
 5646TIP3    H238574   1.170   0.662   0.414  0.4779  0.6688  1.1092
 5647TIP3   OH238575   3.617   5.234   7.730  0.1438  0.5122  0.1750
 5647TIP3    H138576   3.669   5.268   7.803 -0.5553  2.2030 -0.0722
 5647TIP3    H238577   3.682   5.208   7.665  0.7848 -1.1391  1.4080
 5648TIP3   OH238578   3.426   5.384   2.212 -0.3657 -0.0886  0.3171
 5648TIP3    H138579   3.473   5.343   2.140 -0.0012 -0.8365  0.9700
 5648TIP3    H238580   3.393   5.310   2.264 -0.8426  0.4395  0.7771
 5649TIP3   OH238581   5.849   0.799   2.283  0.0334  0.8336 -0.1761
 5649TIP3    H138582   5.937   0.802   2.320  1.0766 -2.3876 -1.9515
 5649TIP3    H238583   5.845   0.875   2.225  1.5081  1.2235  0.1945
 5650TIP3   OH238584   6.029   0.488   0.464  0.1366 -0.6165 -0.1454
 5650TIP3    H138585   6.039   0.468   0.371 -0.4165 -0.3596 -0.2668
 5650TIP3    H238586   5.972   0.419   0.498  1.5212 -1.5763  0.3475
 5651TIP3   OH238587   6.597   1.666   0.290 -0.0959  0.3199 -0.2216
 5651TIP3    H138588   6.636   1.678   0.377 -0.6083  1.1103 -0.0874
 5651TIP3    H238589   6.657   1.607   0.245  1.3601  1.6311 -0.0809
 5652TIP3   OH238590   1.902   2.177   0.760 -0.6904  0.0784 -0.6160
 5652TIP3    H138591   1.815   2.204   0.731 -0.9056 -0.5005 -0.5261
 5652TIP3    H238592   1.898   2.181   0.855 -0.1676  1.4061 -0.6280
 5653TIP3   OH238593   6.515   2.431   0.659 -0.5854 -0.5567  0.6722
 5653TIP3    H138594   6.541   2.343   0.629 -1.6352 -0.0430 -2.0028
 5653TIP3    H238595   6.579   2.489   0.620 -0.0742 -0.0394  2.1956
 5654TIP3   OH238596   0.402   5.454   7.851 -0.4019 -0.1546 -0.1482
 5654TIP3    H138597   0.464   5.408   7.907 -0.2963 -0.0475 -0.1778
 5654TIP3    H238598   0.318   5.411   7.869  0.0524 -1.8648 -1.8176
 5655TIP3   OH238599   5.908   4.575   2.134 -0.9598  0.0987  0.1104
 5655TIP3    H138600   5.917   4.587   2.228 -0.2572  1.0891 -0.0562
 5655TIP3    H238601   5.852   4.499   2.124  2.0825 -2.5062  1.3216
 5656TIP3   OH238602   5.005   6.021   0.286 -0.6643  0.6491  0.0173
 5656TIP3    H138603   5.100   6.030   0.286 -0.5856  1.8468  4.1757
 5656TIP3    H238604   4.987   5.952   0.223  3.0177 -0.0384 -0.4543
 5657TIP3   OH238605   3.456   6.853   7.603 -0.0853  0.0645 -0.6732
 5657TIP3    H138606   3.479   6.795   7.531 -1.3241  0.5716 -1.5073
 5657TIP3    H238607   3.509   6.931   7.590  1.0260 -0.5536  0.0207
 5658TIP3   OH238608   3.869   3.121   8.347 -0.3204  0.7045 -0.1798
 5658TIP3    H138609   3.917   3.077   8.276  0.2721  0.5045  0.3276
 5658TIP3    H238610   3.794   3.064   8.364 -0.2347  0.5338 -0.3702
 5659TIP3   OH238611   0.814   6.483   0.813 -0.2076 -0.4176 -0.3316
 5659TIP3    H138612   0.720   6.468   0.805 -0.6262  1.5910  0.2775
 5659TIP3    H238613   0.827   6.570   0.776  1.7450 -1.4078 -2.1650
 5660TIP3   OH238614   6.050   3.782   8.577 -0.5259  0.4413  0.2134
 5660TIP3    H138615   6.124   3.817   8.626  1.2277 -1.1073 -1.1816
 5660TIP3    H238616   6.055   3.687   8.589 -0.4917  0.0571 -2.2380
 5661TIP3   OH238617   5.127   6.647   0.915  0.1548  0.0746  0.3362
 5661TIP3    H138618   5.217   6.662   0.942 -0.0613  0.2278  0.9815
 5661TIP3    H238619   5.074   6.667   0.992 -0.4564  0.3040 -0.1284
 5662TIP3   OH238620   1.344   2.518   0.239  0.3912  0.1647 -0.2736
 5662TIP3    H138621   1.407   2.580   0.203 -1.1535  1.7355 -0.3855
 5662TIP3    H238622   1.274   2.572   0.276  0.0754 -1.4657  1.7367
 5663TIP3   OH238623   2.273   2.263   6.901 -0.1411  0.1462  0.1758
 5663TIP3    H138624   2.278   2.287   6.993  0.9546 -0.2993  0.2557
 5663TIP3    H238625   2.360   2.285   6.866 -0.9690  1.5801 -1.0799
 5664TIP3   OH238626   1.208   2.227   0.785  0.5062 -0.4437  0.6699
 5664TIP3    H138627   1.177   2.293   0.724  0.6578 -1.7678 -0.9019
 5664TIP3    H238628   1.137   2.217   0.848  0.9478  1.9972  1.6452
 5665TIP3   OH238629   5.729   6.670   1.380 -0.3106  0.3532 -0.1909
 5665TIP3    H138630   5.713   6.646   1.289 -0.1077  1.2586 -0.4703
 5665TIP3    H238631   5.794   6.606   1.410 -0.8246 -0.3220 -0.4919
 5666TIP3   OH238632   2.442   2.069   0.450  0.4910  0.2795  0.2595
 5666TIP3    H138633   2.393   2.053   0.531  0.5211 -1.6568 -0.0626
 5666TIP3    H238634   2.502   2.141   0.472 -1.1976  1.4809  1.1910
 5667TIP3   OH238635   1.240   6.905   0.703  0.1741 -0.0430 -0.1426
 5667TIP3    H138636   1.157   6.864   0.683 -0.8784  2.2158 -0.7937
 5667TIP3    H238637   1.245   6.906   0.799  0.1064 -1.3612 -0.1160
 5668TIP3   OH238638   4.591   1.360   0.796 -0.1544  0.2684 -0.5124
 5668TIP3    H138639   4.683   1.387   0.803  0.1015 -0.7898  0.5891
 5668TIP3    H238640   4.542   1.431   0.837  0.1687  0.8359 -1.0948
 5669TIP3   OH238641   2.032   5.291   2.190 -0.0078 -0.0842 -0.1099
 5669TIP3    H138642   2.081   5.354   2.138 -0.1252 -0.2150 -0.3770
 5669TIP3    H238643   2.008   5.340   2.269 -0.3733  0.3109 -0.4576
 5670TIP3   OH238644   6.115   0.356   7.376  0.5027 -0.5310 -0.1033
 5670TIP3    H138645   6.081   0.353   7.465  0.8000 -3.5089  0.0252
 5670TIP3    H238646   6.176   0.430   7.376 -0.2269  0.1396  1.8507
 5671TIP3   OH238647   4.400   6.802   8.028 -0.3619 -0.2254 -0.1135
 5671TIP3    H138648   4.414   6.883   8.077 -0.5265  0.4985 -1.2177
 5671TIP3    H238649   4.304   6.792   8.025 -0.3260 -0.7913  0.5361
 5672TIP3   OH238650   4.474   3.849   2.848 -0.6083 -0.6396  0.7011
 5672TIP3    H138651   4.529   3.878   2.921  0.8939 -0.3905 -0.4736
 5672TIP3    H238652   4.536   3.838   2.775 -2.1450 -0.3116 -0.6973
 5673TIP3   OH238653   5.265   1.783   2.915 -0.1581  0.0001 -0.2006
 5673TIP3    H138654   5.343   1.833   2.891  0.2352 -1.6227 -2.5905
 5673TIP3    H238655   5.192   1.831   2.874  0.2910 -1.5953 -3.1168
 5674TIP3   OH238656   6.714   2.979   1.911 -0.1909  0.4134 -0.1229
 5674TIP3    H138657   6.805   2.948   1.920  0.1388  0.2301 -2.9932
 5674TIP3    H238658   6.716   3.070   1.941  1.1544  0.6560 -0.8587
 5675TIP3   OH238659   1.510   1.493   2.332 -0.4790  0.3633 -0.4117
 5675TIP3    H138660   1.503   1.564   2.396 -3.3227  1.0698 -1.3939
 5675TIP3    H238661   1.485   1.532   2.248 -1.5078 -1.6200 -1.1101
 5676TIP3   OH238662   2.596   1.948   1.337  0.0524 -0.1463 -0.2941
 5676TIP3    H138663   2.640   1.875   1.380  0.4071 -1.1473 -2.2689
 5676TIP3    H238664   2.520   1.965   1.392  1.3661 -0.2391  1.6358
 5677TIP3   OH238665   2.735   2.793   2.280 -0.3441 -0.4205  0.0589
 5677TIP3    H138666   2.652   2.784   2.233 -1.5375  0.3403  1.9140
 5677TIP3    H238667   2.800   2.806   2.211 -2.0357  0.8430 -1.3853
 5678TIP3   OH238668   2.466   4.717   7.248  0.0429  0.0449  0.7528
 5678TIP3    H138669   2.398   4.740   7.185  0.5088 -1.8365 -0.5310
 5678TIP3    H238670   2.538   4.777   7.228 -0.2986  0.3404  0.3972
 5679TIP3   OH238671   2.060   5.720   7.558  0.4052  0.8181 -0.0625
 5679TIP3    H138672   2.131   5.661   7.534 -0.8348 -2.5913  3.6879
 5679TIP3    H238673   2.095   5.771   7.631 -0.2263  0.9441  0.1557
 5680TIP3   OH238674   4.849   1.372   7.602  0.0416  0.5680  0.5965
 5680TIP3    H138675   4.921   1.324   7.642  0.2633 -0.9451 -1.4707
 5680TIP3    H238676   4.862   1.361   7.508 -2.8161  0.3279  0.1464
 5681TIP3   OH238677   1.675   4.468   2.517 -0.2899 -0.0593  0.7805
 5681TIP3    H138678   1.679   4.418   2.436  0.0879 -0.0846  0.8134
 5681TIP3    H238679   1.735   4.424   2.576  1.7586  1.6660  0.1208
 5682TIP3   OH238680   2.810   0.978   8.555 -0.1904 -0.3979  0.4752
 5682TIP3    H138681   2.781   0.906   8.610  1.5019  0.5988  2.8682
 5682TIP3    H238682   2.756   1.052   8.583 -0.3737 -0.2172 -0.3372
 5683TIP3   OH238683   2.877   0.385   8.222  0.2916 -0.0763 -0.0982
 5683TIP3    H138684   2.913   0.440   8.153  0.4803  0.7143  0.6145
 5683TIP3    H238685   2.784   0.408   8.225  0.6533  1.3166  1.1943
 5684TIP3   OH238686   6.410   4.951   0.488  0.1384 -0.4099 -0.1284
 5684TIP3    H138687   6.408   4.855   0.481 -0.3462 -0.3227 -1.4378
 5684TIP3    H238688   6.319   4.976   0.503  0.5831 -0.2839  3.0563
 5685TIP3   OH238689   4.094   2.810   1.207 -0.2967 -0.3544 -0.3107
 5685TIP3    H138690   4.085   2.819   1.112  0.2651 -0.0165 -0.3353
 5685TIP3    H238691   4.187   2.791   1.221 -0.4219 -0.6573  0.1577
 5686TIP3   OH238692   0.388   5.279   2.874 -0.4318 -0.1475 -0.3606
 5686TIP3    H138693   0.479   5.288   2.902 -0.3372  1.2388 -1.0463
 5686TIP3    H238694   0.387   5.199   2.821  1.2920  1.7355 -3.5659
 5687TIP3   OH238695   3.346   6.080   2.437 -0.5755 -0.0245 -0.4552
 5687TIP3    H138696   3.355   6.063   2.530  0.8684  1.4147 -0.2922
 5687TIP3    H238697   3.309   6.168   2.432 -3.8868 -1.3048 -1.2839
 5688TIP3   OH238698   1.644   4.074   1.541 -0.0042 -0.7127 -0.4493
 5688TIP3    H138699   1.632   4.098   1.633 -1.6762 -0.6157 -0.6630
 5688TIP3    H238700   1.560   4.096   1.499  1.5023  1.5281 -2.5261
 5689TIP3   OH238701   6.421   0.017   6.826  0.2143 -0.1125 -0.1371
 5689TIP3    H138702   6.395   0.060   6.907 -0.3020  2.0299 -1.3729
 5689TIP3    H238703   6.441   0.089   6.765 -1.4378 -1.5662 -2.5589
 5690TIP3   OH238704   5.408   1.393   0.023  0.4006  0.0841  0.2106
 5690TIP3    H138705   5.367   1.383  -0.063  0.4864  1.7779 -0.0620
 5690TIP3    H238706   5.426   1.486   0.030 -0.6066  0.1688  2.5533
 5691TIP3   OH238707   6.505   1.553   7.914 -0.3500 -0.1688  0.1671
 5691TIP3    H138708   6.438   1.615   7.886  0.3358  1.1759  1.3517
 5691TIP3    H238709   6.465   1.467   7.903 -2.1996  0.5776  0.6800
 5692TIP3   OH238710   0.984   4.286   1.003 -0.2959  0.1042 -0.1372
 5692TIP3    H138711   1.002   4.357   0.942 -0.9321  0.9591  0.6502
 5692TIP3    H238712   0.935   4.222   0.951  0.7168 -0.0132 -0.9818
 5693TIP3   OH238713   5.335   3.639   1.929 -0.7289  0.1513 -0.7168
 5693TIP3    H138714   5.373   3.694   1.997 -1.1515 -0.3135 -0.0947
 5693TIP3    H238715   5.335   3.551   1.967 -2.1677  0.0958 -0.8171
 5694TIP3   OH238716   5.420   4.183   2.005  0.0131  0.2199  0.1557
 5694TIP3    H138717   5.507   4.159   2.037  0.4810 -0.7857 -1.7124
 5694TIP3    H238718   5.435   4.261   1.952 -0.5293  1.0484  1.1783
 5695TIP3   OH238719   4.286   3.288   2.210 -0.0295 -0.2927  0.0430
 5695TIP3    H138720   4.294   3.286   2.306 -1.2840 -0.2547  0.1622
 5695TIP3    H238721   4.200   3.326   2.194 -0.0177 -0.7181 -1.0981
 5696TIP3   OH238722   2.733   1.753   0.924  0.3675  0.7197 -0.4996
 5696TIP3    H138723   2.809   1.702   0.893  0.3094 -1.2047  2.1824
 5696TIP3    H238724   2.765   1.843   0.930  2.3202  0.0446  0.0535
 5697TIP3   OH238725   1.757   4.819   0.365 -0.7397 -0.6196  0.3314
 5697TIP3    H138726   1.830   4.829   0.305 -0.8216  0.0542  0.3386
 5697TIP3    H238727   1.760   4.897   0.421 -0.5112 -1.3467  1.3759
 5698TIP3   OH238728   5.618   5.502   8.554  1.0500 -0.2831 -0.4661
 5698TIP3    H138729   5.634   5.542   8.468 -2.4547  1.0151 -0.6984
 5698TIP3    H238730   5.551   5.435   8.536  2.0741 -1.7300  0.9355
 5699TIP3   OH238731   3.220   5.273   0.758 -0.3101 -0.1698 -0.7673
 5699TIP3    H138732   3.296   5.295   0.812 -1.0800  1.8659 -0.3999
 5699TIP3    H238733   3.234   5.322   0.676 -0.2775 -1.3779 -1.5012
 5700TIP3   OH238734   2.380   0.797   7.992 -0.8460 -0.5290 -0.3481
 5700TIP3    H138735   2.372   0.775   8.084 -2.4232 -1.2815 -0.6305
 5700TIP3    H238736   2.356   0.890   7.987  0.4837 -0.1235  0.1227
 5701TIP3   OH238737   2.439   3.742   8.332  0.1694  0.2054  0.0281
 5701TIP3    H138738   2.497   3.767   8.404  0.0232 -2.3091  1.0970
 5701TIP3    H238739   2.461   3.651   8.314 -3.0783 -0.7235  0.1446
 5702TIP3   OH238740   6.857   6.840   6.634  0.1638  0.0089  0.2632
 5702TIP3    H138741   6.908   6.849   6.554 -0.6721  0.8422 -0.1915
 5702TIP3    H238742   6.795   6.771   6.615  1.2393 -1.1812  0.9030
 5703TIP3   OH238743   2.241   6.442   0.000  0.0505 -0.0399 -0.1503
 5703TIP3    H138744   2.317   6.400   0.041 -0.0251 -1.6502 -1.5720
 5703TIP3    H238745   2.279   6.504  -0.062  0.1582  1.4899  1.3656
 5704TIP3   OH238746   0.137   5.356   7.789  0.2104 -0.0916 -0.3519
 5704TIP3    H138747   0.110   5.412   7.717  2.3795  0.1487 -1.0313
 5704TIP3    H238748   0.182   5.283   7.748  2.2180  0.4602  0.7408
 5705TIP3   OH238749   5.201   1.709   0.590  0.1114 -0.0293 -0.5225
 5705TIP3    H138750   5.275   1.697   0.531  0.7067  1.3196 -0.1017
 5705TIP3    H238751   5.227   1.665   0.671 -0.1872 -0.8340 -0.8621
 5706TIP3   OH238752   2.074   6.366   7.322 -0.5156 -0.1344  0.1761
 5706TIP3    H138753   1.989   6.354   7.281  0.1026 -0.8175 -0.9910
 5706TIP3    H238754   2.098   6.457   7.302 -1.6552  0.6094  1.9486
 5707TIP3   OH238755   2.931   4.312   0.361  0.2634 -0.1203  0.6700
 5707TIP3    H138756   3.022   4.343   0.362  0.1828  0.1145  1.2427
 5707TIP3    H238757   2.884   4.375   0.416 -0.1367 -0.5530  0.8297
 5708TIP3   OH238758   6.537   3.822   8.507 -0.0314  0.2600 -0.7141
 5708TIP3    H138759   6.524   3.802   8.599  0.9348 -1.8266 -0.9644
 5708TIP3    H238760   6.517   3.915   8.499  0.9635  0.7728  1.8122
 5709TIP3   OH238761   3.881   6.008   2.359 -0.2605 -0.3922  0.1257
 5709TIP3    H138762   3.803   5.960   2.331  0.7617 -2.5325  0.7451
 5709TIP3    H238763   3.883   5.998   2.454  0.8397 -0.5210  0.1075
 5710TIP3   OH238764   4.607   3.043   1.864 -0.5023 -0.1579 -0.2418
 5710TIP3    H138765   4.547   3.071   1.933  0.0563 -0.0691  0.2185
 5710TIP3    H238766   4.650   2.966   1.900  0.5670  0.5117 -0.0540
 5711TIP3   OH238767   6.529   4.075   7.688 -0.0016  0.0451  0.2688
 5711TIP3    H138768   6.614   4.062   7.645 -0.2577 -1.4952  0.1922
 5711TIP3    H238769   6.489   4.148   7.641  0.6168 -0.2460 -0.7228
 5712TIP3   OH238770   5.584   6.081   7.951 -0.1320  0.1805  0.0563
 5712TIP3    H138771   5.587   6.118   7.863  0.7205 -0.7874 -0.3387
 5712TIP3    H238772   5.634   6.000   7.945 -0.2107  0.0071  1.3942
 5713TIP3   OH238773   2.478   3.842   8.019  0.1646  0.1254  0.5514
 5713TIP3    H138774   2.409   3.795   8.067  0.7484 -1.3641  0.0111
 5713TIP3    H238775   2.522   3.894   8.085 -1.0785  0.6177  1.0198
 5714TIP3   OH238776   4.239   6.811   7.303  0.2548  0.2335 -0.0475
 5714TIP3    H138777   4.232   6.788   7.211 -1.9590 -1.9166  0.5595
 5714TIP3    H238778   4.307   6.753   7.338 -0.5954 -0.6741  0.1281
 5715TIP3   OH238779   5.746   4.566   6.902 -0.4362 -0.0143 -0.0108
 5715TIP3    H138780   5.663   4.524   6.924 -0.4764  0.0188 -0.0988
 5715TIP3    H238781   5.721   4.651   6.865 -0.3533  0.1149  0.2300
 5716TIP3   OH238782   1.313   3.115   7.342  0.0384 -0.0010  0.3680
 5716TIP3    H138783   1.296   3.125   7.248 -0.8980  1.1674  0.6313
 5716TIP3    H238784   1.333   3.022   7.353  0.3222 -0.1303 -1.0032
 5717TIP3   OH238785   5.150   3.201   1.747  0.6319 -0.3914  0.6801
 5717TIP3    H138786   5.232   3.154   1.732 -0.2952 -1.9798  0.3623
 5717TIP3    H238787   5.161   3.242   1.833  1.1124 -2.0824  1.4766
 5718TIP3   OH238788   5.073   0.657   1.887 -0.3698  0.1694 -0.3699
 5718TIP3    H138789   5.152   0.642   1.938 -0.7238  1.0600  0.4795
 5718TIP3    H238790   5.006   0.676   1.953 -1.0353  0.4902 -1.1275
 5719TIP3   OH238791   2.372   5.239   7.276  0.5134 -0.3760 -0.0825
 5719TIP3    H138792   2.399   5.267   7.189 -0.7764 -1.1928 -0.7740
 5719TIP3    H238793   2.307   5.170   7.261 -0.1659 -0.1444  1.5173
 5720TIP3   OH238794   3.510   4.251   8.403 -0.5950  0.3960 -0.0736
 5720TIP3    H138795   3.577   4.317   8.420 -0.5989  1.3784 -3.2595
 5720TIP3    H238796   3.549   4.169   8.433  1.0556  1.2672  0.2589
 5721TIP3   OH238797   3.443   6.310   8.106 -0.0189  0.1117  0.1748
 5721TIP3    H138798   3.484   6.261   8.177  2.1300  1.0677 -0.3363
 5721TIP3    H238799   3.515   6.334   8.048 -1.2140  2.3007 -0.5437
 5722TIP3   OH238800   3.348   3.566   3.072 -0.0031  0.4507 -0.2919
 5722TIP3    H138801   3.353   3.481   3.028 -1.3106 -0.4329  1.1857
 5722TIP3    H238802   3.268   3.562   3.124  1.4112  1.4428  2.1098
 5723TIP3   OH238803   6.411   4.918   0.951 -0.5062  0.3411 -0.2996
 5723TIP3    H138804   6.324   4.881   0.936 -0.5511  0.1380  0.4516
 5723TIP3    H238805   6.439   4.948   0.864 -1.4911  0.7821 -0.4816
 5724TIP3   OH238806   0.210   3.452   0.864  0.6648  0.0245 -0.1857
 5724TIP3    H138807   0.176   3.363   0.850 -1.7681  0.6567  1.1425
 5724TIP3    H238808   0.263   3.444   0.944  0.8833 -0.3343 -0.3641
 5725TIP3   OH238809   2.760   4.468   0.539 -0.2200 -0.8870 -0.5774
 5725TIP3    H138810   2.706   4.390   0.519 -2.0355 -0.1206  1.0367
 5725TIP3    H238811   2.698   4.541   0.533  0.4274 -0.0405  2.0929
 5726TIP3   OH238812   6.441   4.672   7.276  0.1045 -0.5079  0.4896
 5726TIP3    H138813   6.433   4.669   7.180 -2.5300 -0.7404  0.6369
 5726TIP3    H238814   6.462   4.582   7.300 -0.3297 -0.7014  0.1712
 5727TIP3   OH238815   0.080   4.334   0.546 -0.5016  0.1509  0.4446
 5727TIP3    H138816   0.143   4.267   0.572 -1.2073 -0.8475 -0.3822
 5727TIP3    H238817   0.114   4.369   0.464 -0.8131 -0.1068  0.2054
 5728TIP3   OH238818   0.717   4.046   1.776 -0.2966  0.2850  0.4067
 5728TIP3    H138819   0.791   4.037   1.836  1.2757 -0.9390 -1.5824
 5728TIP3    H238820   0.678   3.958   1.773  0.2759  0.0543 -1.0773
 5729TIP3   OH238821   5.273   5.156   2.942  0.1851  0.1100 -0.5611
 5729TIP3    H138822   5.255   5.062   2.951  0.4961 -0.1701 -2.4332
 5729TIP3    H238823   5.361   5.160   2.904  0.4193  1.1902  0.0671
 5730TIP3   OH238824   4.420   6.736   2.412  0.2775 -0.8976 -0.1910
 5730TIP3    H138825   4.440   6.825   2.386 -0.3178 -0.2508  1.4305
 5730TIP3    H238826   4.325   6.735   2.426  0.2173 -1.8876 -0.5312
 5731TIP3   OH238827   4.058   4.721   0.026 -0.0242  0.2056  0.1458
 5731TIP3    H138828   4.017   4.807   0.031 -0.1979  0.1533 -0.3167
 5731TIP3    H238829   4.077   4.708  -0.067 -0.1426 -0.3222  0.1894
 5732TIP3   OH238830   2.610   4.500   8.176  0.6276 -0.1959  0.0907
 5732TIP3    H138831   2.699   4.494   8.142  0.5863 -1.1314  0.1377
 5732TIP3    H238832   2.566   4.421   8.144  0.5124 -0.9860  2.0470
 5733TIP3   OH238833   1.537   0.883   1.368 -0.4163  0.1535 -0.3784
 5733TIP3    H138834   1.554   0.872   1.275 -0.8496  1.0420 -0.5749
 5733TIP3    H238835   1.443   0.865   1.378 -0.1432 -1.1337  0.0972
 5734TIP3   OH238836   6.128   4.950   0.250  0.6102  0.2974  0.0930
 5734TIP3    H138837   6.107   4.916   0.163  3.0137 -0.3553 -0.2917
 5734TIP3    H238838   6.200   4.895   0.281  1.9696  2.5156  1.1412
 5735TIP3   OH238839   4.181   4.082   1.522 -0.4149  0.1641  0.0309
 5735TIP3    H138840   4.206   4.170   1.552 -2.3719  0.5855  0.5400
 5735TIP3    H238841   4.221   4.074   1.435  2.0500  0.4576  1.0418
 5736TIP3   OH238842   1.544   0.963   0.646 -0.1899 -0.2432 -0.5060
 5736TIP3    H138843   1.516   1.039   0.594 -0.9703 -1.1235 -1.4065
 5736TIP3    H238844   1.493   0.971   0.727  1.4469  1.4464  0.4351
 5737TIP3   OH238845   1.911   6.738   0.367 -0.1769 -0.9888  0.1130
 5737TIP3    H138846   1.850   6.808   0.344 -0.5349 -1.7868 -1.5584
 5737TIP3    H238847   1.917   6.685   0.287  1.2890 -1.9717  0.8384
 5738TIP3   OH238848   2.349   2.168   8.233 -0.4743 -0.5577 -0.1813
 5738TIP3    H138849   2.344   2.103   8.303  0.6755 -1.2270 -0.6913
 5738TIP3    H238850   2.442   2.171   8.210 -0.7307  0.1808 -1.1805
 5739TIP3   OH238851   2.458   5.657   7.879  0.0434 -0.4435  0.3616
 5739TIP3    H138852   2.543   5.651   7.835 -0.0691 -0.8436  0.1870
 5739TIP3    H238853   2.417   5.572   7.861  0.5071 -1.1122  2.2970
 5740TIP3   OH238854   4.906   0.469   1.680 -0.4065  0.1501  0.4063
 5740TIP3    H138855   4.978   0.508   1.630  0.1712 -1.6109 -0.1976
 5740TIP3    H238856   4.939   0.383   1.706 -1.5783  0.0994  1.8275
 5741TIP3   OH238857   6.739   6.373   0.613  0.6558  0.1239  0.3554
 5741TIP3    H138858   6.794   6.433   0.664  1.0452 -0.1972  0.3211
 5741TIP3    H238859   6.758   6.286   0.649  0.7754 -0.0836 -0.1870
 5742TIP3   OH238860   4.608   6.652   1.322 -0.5797 -0.1843  0.2825
 5742TIP3    H138861   4.562   6.632   1.404 -0.3215  1.7379  0.9408
 5742TIP3    H238862   4.604   6.570   1.272 -3.1641 -0.5919  1.0305
 5743TIP3   OH238863   3.829   5.282   0.826  0.2411 -0.1857  0.1757
 5743TIP3    H138864   3.906   5.338   0.837  0.2231  0.2603 -1.6688
 5743TIP3    H238865   3.766   5.336   0.780 -0.3783 -1.2197 -0.2291
 5744TIP3   OH238866   6.743   0.539   1.903 -0.3618  0.1809 -0.7311
 5744TIP3    H138867   6.784   0.466   1.856  0.0646 -1.3167  1.7739
 5744TIP3    H238868   6.658   0.504   1.931 -0.6679  1.0783 -0.5183
 5745TIP3   OH238869   2.751   3.166   0.215  0.3184  0.4626  0.4907
 5745TIP3    H138870   2.741   3.109   0.290  0.3050 -0.8865 -0.4972
 5745TIP3    H238871   2.663   3.175   0.179  0.5434 -0.2132 -0.2688
 5746TIP3   OH238872   0.722   0.015   0.153  0.5288  0.1373  0.0988
 5746TIP3    H138873   0.646   0.060   0.115  0.4718  0.4109  0.5376
 5746TIP3    H238874   0.794   0.035   0.094  0.8248  1.9683  1.0160
 5747TIP3   OH238875   6.783   1.326   8.256  0.7067  0.0461 -0.1025
 5747TIP3    H138876   6.729   1.270   8.311  0.4703  0.9286  0.5811
 5747TIP3    H238877   6.805   1.271   8.181  0.5484 -0.9861  0.5800
 5748TIP3   OH238878   0.500   3.834   1.834  0.1871 -0.3144  0.0696
 5748TIP3    H138879   0.432   3.850   1.899 -0.7136  0.5636 -1.0351
 5748TIP3    H238880   0.546   3.756   1.865 -0.4723 -0.1440  1.5287
 5749TIP3   OH238881   6.644   3.971   0.510 -0.2582  0.5691  0.0283
 5749TIP3    H138882   6.693   4.039   0.465  0.5714  0.2004  0.3493
 5749TIP3    H238883   6.637   4.002   0.601  0.2332  0.1817  0.2057
 5750TIP3   OH238884   4.591   1.702   0.914 -0.2723 -0.0371 -0.4836
 5750TIP3    H138885   4.561   1.778   0.965  0.9677 -1.8000  3.2455
 5750TIP3    H238886   4.680   1.687   0.946  1.4709 -0.1448 -4.8296
 5751TIP3   OH238887   0.351   0.076   1.439  0.5396  0.0641  0.4852
 5751TIP3    H138888   0.266   0.032   1.432 -0.2874  1.5576  0.5996
 5751TIP3    H238889   0.395   0.032   1.512  0.2206 -1.2768 -0.1124
 5752TIP3   OH238890   5.525   2.945   0.602 -0.4241  0.0578  0.0708
 5752TIP3    H138891   5.504   3.037   0.588 -1.4380 -0.2331 -0.3640
 5752TIP3    H238892   5.517   2.905   0.516 -1.2097 -0.6758  0.4732
 5753TIP3   OH238893   5.928   4.036   7.138 -0.0589  0.4235 -0.1169
 5753TIP3    H138894   5.996   4.087   7.182  0.3044 -0.9512  0.9743
 5753TIP3    H238895   5.848   4.087   7.151 -0.1335 -0.3110  2.9391
 5754TIP3   OH238896   3.018   4.879   0.572 -0.1368  0.8172 -0.2066
 5754TIP3    H138897   2.955   4.916   0.511 -0.9695 -1.0387 -0.5144
 5754TIP3    H238898   2.969   4.865   0.653 -0.3782 -1.3597 -0.6850
 5755TIP3   OH238899   3.953   3.532   7.484 -0.2054 -0.2286  0.1739
 5755TIP3    H138900   3.921   3.558   7.397 -0.4861 -0.1350  0.3038
 5755TIP3    H238901   4.016   3.462   7.466 -0.4651 -0.3976 -0.0896
 5756TIP3   OH238902   1.629   1.685   8.288  0.0999 -0.0026 -0.1284
 5756TIP3    H138903   1.709   1.633   8.298 -1.5797 -2.7879 -0.0830
 5756TIP3    H238904   1.636   1.754   8.354  1.7828 -1.0996  0.9010
 5757TIP3   OH238905   3.950   1.978   8.583 -0.9359 -0.0475  0.1902
 5757TIP3    H138906   3.901   2.007   8.506  0.3789  2.0241  0.0237
 5757TIP3    H238907   4.041   2.000   8.562 -0.6649  1.7777  2.7929
 5758TIP3   OH238908   4.966   2.965   2.463 -0.2187  0.2562  0.6127
 5758TIP3    H138909   5.033   2.976   2.530 -0.9810  1.1744  1.2407
 5758TIP3    H238910   4.896   2.916   2.507 -0.2193 -0.1785  0.1354
 5759TIP3   OH238911   1.378   5.931   2.052 -0.2643 -0.0369  0.2023
 5759TIP3    H138912   1.344   5.870   2.117 -1.6772 -0.3974 -0.8377
 5759TIP3    H238913   1.452   5.884   2.013 -2.8231 -2.3329 -2.3608
 5760TIP3   OH238914   4.908   0.158   0.534 -0.0900 -0.1833 -0.1004
 5760TIP3    H138915   4.871   0.143   0.621  1.7431  0.1778  0.7974
 5760TIP3    H238916   4.894   0.075   0.488 -0.5456 -0.5948  0.7477
 5761TIP3   OH238917   4.169   1.243   8.271  0.6257  0.1330 -0.6349
 5761TIP3    H138918   4.237   1.192   8.316 -0.2841 -0.2498  0.3351
 5761TIP3    H238919   4.114   1.276   8.341 -1.5278 -1.4458 -1.4808
 5762TIP3   OH238920   0.808   4.962   1.008  0.5711  0.3573 -0.0827
 5762TIP3    H138921   0.792   5.052   0.982 -0.1434  0.4433  0.6096
 5762TIP3    H238922   0.885   4.967   1.065  0.0026  0.6758  0.6864
 5763TIP3   OH238923   6.349   6.317   7.491 -0.1437 -0.1143  0.6343
 5763TIP3    H138924   6.420   6.271   7.536  0.0958  0.3881  0.7701
 5763TIP3    H238925   6.286   6.248   7.469  0.7860 -0.7107 -0.2688
 5764TIP3   OH238926   1.465   6.233   8.422  0.3485 -0.1666  0.2265
 5764TIP3    H138927   1.535   6.169   8.426  1.0608  0.6354  3.8057
 5764TIP3    H238928   1.400   6.202   8.485 -1.5804  0.2171 -1.4692
 5765TIP3   OH238929   2.706   5.879   0.920  0.1590 -0.5544  0.3330
 5765TIP3    H138930   2.671   5.912   1.002  1.2594  0.5098  0.3951
 5765TIP3    H238931   2.670   5.936   0.853  1.1183  0.0648  0.3236
 5766TIP3   OH238932   4.484   2.975   7.752 -0.1748 -0.2396 -0.2733
 5766TIP3    H138933   4.423   2.970   7.826 -0.0846  0.1656 -0.1655
 5766TIP3    H238934   4.427   2.975   7.675 -0.3923  1.1729 -0.1429
 5767TIP3   OH238935   4.248   3.741   3.239  0.3513  0.1591  0.0771
 5767TIP3    H138936   4.252   3.757   3.144 -0.1708 -0.8858 -0.1367
 5767TIP3    H238937   4.267   3.826   3.278 -0.9070  0.9721 -0.9833
 5768TIP3   OH238938   2.982   4.027   8.235 -0.6009 -0.4087  0.3935
 5768TIP3    H138939   3.032   4.041   8.315 -1.3429 -0.3158  0.8436
 5768TIP3    H238940   2.960   4.114   8.204  0.0809 -0.4268 -0.1773
 5769TIP3   OH238941   3.405   5.312   0.197  0.6299  0.4104 -0.5846
 5769TIP3    H138942   3.408   5.374   0.270  1.5310  0.8667 -0.9836
 5769TIP3    H238943   3.314   5.312   0.169  0.2790  0.2336  0.5313
 5770TIP3   OH238944   3.154   1.900   7.052 -0.2196  0.1200  0.8027
 5770TIP3    H138945   3.087   1.849   7.007 -2.1996  2.3968  0.9829
 5770TIP3    H238946   3.153   1.869   7.142  0.3282 -1.1035  0.4174
 5771TIP3   OH238947   3.931   1.661   1.780 -0.0510  0.1399 -0.0632
 5771TIP3    H138948   3.929   1.644   1.874  1.9996 -0.6992 -0.1226
 5771TIP3    H238949   4.024   1.664   1.758 -0.4777 -0.6030 -2.2216
 5772TIP3   OH238950   1.893   1.708   0.481 -0.5880 -0.0574 -0.4568
 5772TIP3    H138951   1.959   1.647   0.514 -2.1220 -1.4429  0.2105
 5772TIP3    H238952   1.882   1.771   0.552  0.4891  0.5860 -0.8507
 5773TIP3   OH238953   3.054   6.042   0.648 -0.2600  0.3453  0.4143
 5773TIP3    H138954   2.989   5.971   0.653  0.0759  0.1168  2.0854
 5773TIP3    H238955   3.013   6.108   0.592 -1.1658 -0.5629 -0.0338
 5774TIP3   OH238956   3.444   0.885   8.330  0.0147 -0.1828 -0.3340
 5774TIP3    H138957   3.524   0.901   8.279  0.3639 -0.8517 -0.0134
 5774TIP3    H238958   3.449   0.793   8.354  0.3844  0.3235  1.7710
 5775TIP3   OH238959   2.334   5.124   1.311  0.2665  0.0694  0.1009
 5775TIP3    H138960   2.328   5.101   1.404  0.7899  1.3646  0.4726
 5775TIP3    H238961   2.244   5.119   1.279  0.1892 -1.2038  0.4540
 5776TIP3   OH238962   3.018   0.827   8.491 -0.4040 -0.1523  0.5559
 5776TIP3    H138963   2.976   0.741   8.503 -3.1032  0.6017 -2.0459
 5776TIP3    H238964   2.953   0.889   8.525 -0.7446  1.0072 -2.0237
 5777TIP3   OH238965   1.320   3.070   1.174  0.9202 -0.3262 -0.3233
 5777TIP3    H138966   1.395   3.038   1.224  0.7917 -0.0528  0.0529
 5777TIP3    H238967   1.247   3.067   1.236  0.5946 -0.7181 -0.7283
 5778TIP3   OH238968   0.405   5.219   7.429  0.0670  0.0608 -0.4308
 5778TIP3    H138969   0.494   5.253   7.422  0.1998 -0.3432 -0.7023
 5778TIP3    H238970   0.402   5.145   7.369 -0.6255  0.4213 -0.8506
 5779TIP3   OH238971   5.525   2.399   0.210  0.8983  0.3865  0.1650
 5779TIP3    H138972   5.607   2.442   0.183  0.6732  0.2125 -0.8368
 5779TIP3    H238973   5.531   2.312   0.172  0.1244  0.4670 -0.1549
 5780TIP3   OH238974   0.180   5.367   0.555 -0.4063  0.2519 -0.2534
 5780TIP3    H138975   0.245   5.431   0.526 -0.1024  0.8447  1.5495
 5780TIP3    H238976   0.114   5.420   0.601 -2.6548 -0.2412 -2.6957
 5781TIP3   OH238977   2.926   1.052   0.978  0.4555  0.0653  0.0967
 5781TIP3    H138978   2.962   0.968   0.950  1.0779 -0.0090  1.0617
 5781TIP3    H238979   2.839   1.056   0.938  0.8119 -0.5931 -0.7605
 5782TIP3   OH238980   5.859   3.210   0.073 -0.4370 -0.6598  0.0787
 5782TIP3    H138981   5.843   3.116   0.073  0.0693 -0.7514 -0.2833
 5782TIP3    H238982   5.953   3.219   0.058 -0.5580 -0.0860 -0.4031
 5783TIP3   OH238983   3.626   4.681   1.094 -0.6691 -0.1356 -0.2124
 5783TIP3    H138984   3.660   4.619   1.030 -1.2086 -0.5823 -0.0731
 5783TIP3    H238985   3.702   4.735   1.117 -0.2120 -0.6807 -0.4044
 5784TIP3   OH238986   6.066   2.160   8.004 -0.0412 -0.1128 -0.2424
 5784TIP3    H138987   6.068   2.158   7.908 -1.7450  1.6207 -0.3792
 5784TIP3    H238988   5.988   2.110   8.027 -0.3723  0.5830  0.1555
 5785TIP3   OH238989   0.644   2.759   7.650  0.1146 -0.2958  0.1334
 5785TIP3    H138990   0.658   2.822   7.721  3.3467  1.6678 -1.9701
 5785TIP3    H238991   0.726   2.710   7.644 -0.0540 -0.4231 -2.1150
 5786TIP3   OH238992   4.886   5.903   7.961  0.2668  0.1979 -0.2540
 5786TIP3    H138993   4.923   5.823   7.999 -0.5049 -0.1889 -0.2993
 5786TIP3    H238994   4.949   5.972   7.984  0.9151 -0.4084 -0.1737
 5787TIP3   OH238995   0.004   4.583   2.384  0.3513  0.0784 -0.3667
 5787TIP3    H138996   0.074   4.535   2.339  1.3492  1.9841 -0.9593
 5787TIP3    H238997  -0.068   4.585   2.321  1.1003  1.1938 -1.2300
 5788TIP3   OH238998   4.486   4.842   0.873 -0.7058 -0.1358  0.3573
 5788TIP3    H138999   4.561   4.897   0.851 -0.3886 -0.8052 -0.2726
 5788TIP3    H239000   4.453   4.811   0.788  0.4392 -2.6641  0.7522
 5789TIP3   OH239001   6.281   5.755   2.190 -0.6071  0.2285 -0.3293
 5789TIP3    H139002   6.347   5.782   2.254 -1.4819  1.2172  0.2007
 5789TIP3    H239003   6.249   5.671   2.222 -0.2232  0.1605 -0.1152
 5790TIP3   OH239004   5.708   3.859   2.906 -0.0972 -0.0092  0.5535
 5790TIP3    H139005   5.665   3.939   2.935 -1.0027 -0.2554 -0.0629
 5790TIP3    H239006   5.799   3.870   2.932 -0.5993  0.3576  2.2358
 5791TIP3   OH239007   1.028   5.923   1.143 -0.2981  0.2859  0.1996
 5791TIP3    H139008   1.024   6.005   1.193  1.4537 -0.1988  1.1865
 5791TIP3    H239009   0.951   5.927   1.086 -1.5295  1.5633  1.8387
 5792TIP3   OH239010   0.392   1.425   0.991 -0.6236 -0.7483 -0.5105
 5792TIP3    H139011   0.477   1.390   1.018 -0.6984  0.1089  0.9316
 5792TIP3    H239012   0.358   1.469   1.069 -1.4249  0.7797 -1.6622
 5793TIP3   OH239013   5.187   5.103   0.644 -0.0065 -0.0835 -0.1842
 5793TIP3    H139014   5.186   5.015   0.681 -2.1887 -0.2480 -0.4981
 5793TIP3    H239015   5.240   5.095   0.564  0.5245 -0.8925  0.2307
 5794TIP3   OH239016   3.219   2.787   1.893  0.1676  0.3376 -0.6126
 5794TIP3    H139017   3.258   2.754   1.812 -1.5815 -0.2189 -1.2809
 5794TIP3    H239018   3.164   2.716   1.924 -1.0868  1.4241 -0.2555
 5795TIP3   OH239019   6.139   0.068   6.746 -0.1813  0.3148 -0.4830
 5795TIP3    H139020   6.234   0.063   6.753 -0.2268 -1.8419 -0.5554
 5795TIP3    H239021   6.109   0.072   6.837 -0.0433  0.4045 -0.4407
 5796TIP3   OH239022   1.343   4.434   7.972 -0.2703  0.2631 -0.0931
 5796TIP3    H139023   1.386   4.505   7.924  1.7113 -0.4105  0.5483
 5796TIP3    H239024   1.318   4.371   7.904 -0.4636  0.7887 -0.5111
 5797TIP3   OH239025   4.405   0.815   2.190  0.0002 -0.5100 -0.0278
 5797TIP3    H139026   4.418   0.900   2.231  2.8048 -1.4434  1.2904
 5797TIP3    H239027   4.362   0.835   2.106  0.0868  2.1104  0.4717
 5798TIP3   OH239028   6.025   4.106   7.709 -0.0891 -0.4835  0.8047
 5798TIP3    H139029   6.039   4.066   7.623  1.0773  0.8169  0.3618
 5798TIP3    H239030   6.112   4.111   7.748 -0.4439  0.0502  1.5624
 5799TIP3   OH239031   2.803   1.914   0.487 -0.5550  0.2125  0.2577
 5799TIP3    H139032   2.722   1.863   0.482 -0.9352  0.5897  1.9561
 5799TIP3    H239033   2.785   1.992   0.434 -0.8113 -0.3205 -0.4503
 5800TIP3   OH239034   0.020   1.266   8.563  0.2870 -0.2859 -0.3401
 5800TIP3    H139035   0.030   1.304   8.476 -1.4174 -0.6605 -0.7270
 5800TIP3    H239036   0.098   1.295   8.611  1.4171 -0.3424 -2.0659
 5801TIP3   OH239037   5.363   5.268   0.207  0.7411 -0.0310  0.0129
 5801TIP3    H139038   5.272   5.247   0.187 -0.1343  1.1962  2.2974
 5801TIP3    H239039   5.375   5.358   0.175  0.3514  0.6956  1.7806
 5802TIP3   OH239040   4.732   5.105   7.684 -0.2178 -0.2047 -0.7649
 5802TIP3    H139041   4.705   5.196   7.695  0.3257 -0.0751 -0.4893
 5802TIP3    H239042   4.695   5.059   7.759  1.4937  0.2402  0.4274
 5803TIP3   OH239043   1.921   4.440   1.369  0.1205  0.6438  0.1294
 5803TIP3    H139044   1.989   4.443   1.302  0.4569 -1.4408  0.3043
 5803TIP3    H239045   1.969   4.442   1.452  0.1603 -2.0796  0.2627
 5804TIP3   OH239046   6.406   2.135   7.825  1.0174  0.0804  0.0506
 5804TIP3    H139047   6.329   2.092   7.863  1.4663 -1.5751 -0.7891
 5804TIP3    H239048   6.370   2.195   7.760  0.4089 -0.2204  0.1009
 5805TIP3   OH239049   4.676   0.288   1.810 -0.2558  0.0868 -0.3048
 5805TIP3    H139050   4.752   0.264   1.864  0.6970  1.3152 -1.0419
 5805TIP3    H239051   4.601   0.275   1.868  0.5245 -0.9685  0.5107
 5806TIP3   OH239052   4.485   6.569   8.167 -0.3227  0.2896  0.6453
 5806TIP3    H139053   4.507   6.517   8.090 -1.0096 -0.2792  0.8196
 5806TIP3    H239054   4.407   6.619   8.141 -1.2955 -0.8278  1.3538
 5807TIP3   OH239055   2.957   0.543   7.990 -0.3546  0.3214 -0.2251
 5807TIP3    H139056   2.963   0.588   7.906 -0.5881  0.8741  0.0482
 5807TIP3    H239057   2.981   0.609   8.054 -3.0412  0.8086  0.3898
 5808TIP3   OH239058   6.738   2.031   1.187  0.0059 -0.3758  0.0814
 5808TIP3    H139059   6.808   2.084   1.224 -0.8429 -0.1548  1.4229
 5808TIP3    H239060   6.689   2.092   1.131  1.0708 -0.6237 -1.1730
 5809TIP3   OH239061   6.569   6.846   8.263 -0.4054 -0.0641  0.3468
 5809TIP3    H139062   6.650   6.797   8.274  0.5643  0.8512 -2.1510
 5809TIP3    H239063   6.582   6.898   8.184 -2.2159  2.5496  1.5940
 5810TIP3   OH239064   3.269   6.328   1.596  0.3468  0.0317 -0.6014
 5810TIP3    H139065   3.235   6.404   1.644 -2.0459 -1.1894 -0.1746
 5810TIP3    H239066   3.334   6.289   1.655 -1.9190 -0.9491  1.4224
 5811TIP3   OH239067   6.188   2.653   7.254 -0.6925  0.4108 -0.1558
 5811TIP3    H139068   6.184   2.644   7.159 -1.5865  1.7551 -0.2698
 5811TIP3    H239069   6.115   2.600   7.286 -0.1014 -0.4320 -0.1656
 5812TIP3   OH239070   4.967   3.519   2.393 -0.2325 -0.1257  0.2956
 5812TIP3    H139071   4.934   3.571   2.320  2.6511  2.7681  0.8581
 5812TIP3    H239072   4.905   3.445   2.399 -2.0687  0.8750 -3.3219
 5813TIP3   OH239073   0.470   4.471   1.084  0.1612  0.6097  0.1218
 5813TIP3    H139074   0.496   4.528   1.012  0.7881 -1.7284 -1.6273
 5813TIP3    H239075   0.548   4.462   1.137 -0.0383  1.6113  0.6024
 5814TIP3   OH239076   1.819   4.021   8.449 -0.0576 -0.6393  0.1507
 5814TIP3    H139077   1.887   3.971   8.493 -0.1216  0.7339  1.9087
 5814TIP3    H239078   1.851   4.110   8.447 -0.8372 -0.3552 -1.0713
 5815TIP3   OH239079   6.852   1.062   6.832 -0.6956  0.1041 -0.1601
 5815TIP3    H139080   6.788   0.995   6.857  0.1252 -0.8562 -0.5476
 5815TIP3    H239081   6.895   1.025   6.754  0.3578  0.7037  0.1317
 5816TIP3   OH239082   4.303   1.284   0.821  0.2967  0.3150 -0.0295
 5816TIP3    H139083   4.210   1.303   0.807 -0.0483 -0.3645  1.1848
 5816TIP3    H239084   4.348   1.361   0.787 -0.6614  0.4108 -1.1873
 5817TIP3   OH239085   2.936   1.023   1.248  0.1572 -0.3999 -0.6247
 5817TIP3    H139086   3.020   1.011   1.293  0.4567  1.6993 -0.4918
 5817TIP3    H239087   2.960   1.057   1.162 -0.5430  0.5145 -0.4760
 5818TIP3   OH239088   1.902   0.567   0.976 -0.0102  0.3218  0.7051
 5818TIP3    H139089   1.983   0.538   0.935 -0.2173  0.3121  0.2979
 5818TIP3    H239090   1.907   0.663   0.973 -0.4290  0.3213 -0.1561
 5819TIP3   OH239091   6.176   1.099   7.883  0.6004 -0.4100 -0.6282
 5819TIP3    H139092   6.100   1.047   7.858  0.3965  1.3013 -4.1170
 5819TIP3    H239093   6.148   1.148   7.960 -0.6034 -2.2650  0.1750
 5820TIP3   OH239094   4.800   6.115   2.319  0.4544 -0.1776 -0.6042
 5820TIP3    H139095   4.856   6.042   2.294  0.3338 -0.9978  1.3870
 5820TIP3    H239096   4.716   6.075   2.340 -0.1210  0.7403 -1.0699
 5821TIP3   OH239097   4.542   0.301   2.291  0.1097 -0.4087  0.4549
 5821TIP3    H139098   4.505   0.258   2.214 -0.1222 -0.5878  0.6660
 5821TIP3    H239099   4.564   0.230   2.351 -0.7363 -0.2195  1.0132
 5822TIP3   OH239100   5.873   1.969   7.414 -0.4792 -0.0236  0.1939
 5822TIP3    H139101   5.924   1.991   7.337 -1.9503  1.5209 -0.4034
 5822TIP3    H239102   5.901   2.031   7.481 -0.4130 -0.2372  0.3649
 5823TIP3   OH239103   4.878   5.588   7.959 -0.0015 -0.2524  0.2552
 5823TIP3    H139104   4.902   5.569   7.868  1.2103  0.1331  0.4683
 5823TIP3    H239105   4.787   5.561   7.966 -0.7183  1.4416 -1.5844
 5824TIP3   OH239106   6.728   3.277   6.895 -0.1514 -0.1097  0.4252
 5824TIP3    H139107   6.727   3.351   6.834 -0.2547  0.4812  1.1252
 5824TIP3    H239108   6.818   3.274   6.928  0.1885 -1.0907 -0.5199
 5825TIP3   OH239109   2.891   3.574   0.338  0.1487  0.1916  0.3581
 5825TIP3    H139110   2.922   3.535   0.256  0.6388  1.5769 -0.1511
 5825TIP3    H239111   2.857   3.500   0.388  3.2738 -1.3347  0.5102
 5826TIP3   OH239112   6.304   5.744   1.549  0.0017  0.3505 -0.0112
 5826TIP3    H139113   6.352   5.723   1.629 -0.4030  0.5942  0.3033
 5826TIP3    H239114   6.346   5.823   1.516  0.3663  0.0738 -0.2055
 5827TIP3   OH239115   4.394   3.431   1.114  0.2180 -0.2697 -0.0897
 5827TIP3    H139116   4.456   3.360   1.099 -1.5405 -1.9084 -0.0067
 5827TIP3    H239117   4.346   3.405   1.192 -0.4607  1.0319 -0.0523
 5828TIP3   OH239118   5.984   1.553   0.098  0.0700  0.3605  0.5253
 5828TIP3    H139119   5.998   1.535   0.191  0.9296  3.3439  1.0786
 5828TIP3    H239120   5.889   1.565   0.089  0.0874  1.1660  1.2878
 5829TIP3   OH239121   1.962   3.755   2.043 -0.4738 -0.1531 -0.4181
 5829TIP3    H139122   2.042   3.734   2.091 -0.4625  0.2782 -0.2436
 5829TIP3    H239123   1.906   3.799   2.107 -0.8068 -0.3573 -0.5686
 5830TIP3   OH239124   4.651   6.630   7.751  0.3430  0.1659  0.0346
 5830TIP3    H139125   4.651   6.548   7.801  1.8016  0.1406  0.0429
 5830TIP3    H239126   4.665   6.603   7.660 -0.2426  0.3434 -0.1102
 5831TIP3   OH239127   6.810   2.395   0.330 -0.4199  0.2902 -0.0426
 5831TIP3    H139128   6.725   2.352   0.317 -1.5474  2.7033 -1.4362
 5831TIP3    H239129   6.807   2.426   0.421 -0.9562  0.1514 -0.0086
 5832TIP3   OH239130   0.585   2.183   1.478 -0.1867 -0.0112 -0.3595
 5832TIP3    H139131   0.602   2.214   1.389 -2.2795 -2.6470 -1.8315
 5832TIP3    H239132   0.499   2.220   1.500  0.7698  1.4791  1.0755
 5833TIP3   OH239133   2.502   2.863   7.232  0.5445 -0.1053  0.0318
 5833TIP3    H139134   2.595   2.849   7.218  0.6765  0.8824 -0.1355
 5833TIP3    H239135   2.493   2.957   7.246 -0.4105 -0.2024  0.1790
 5834TIP3   OH239136   6.317   0.567   7.331 -0.4775 -0.5321  0.9968
 5834TIP3    H139137   6.340   0.608   7.415  2.8113  1.8431 -0.8131
 5834TIP3    H239138   6.274   0.637   7.281  0.4046 -0.8907 -0.3222
 5835TIP3   OH239139   3.650   6.835   1.784  0.0443 -0.7807 -0.6405
 5835TIP3    H139140   3.648   6.856   1.691 -0.5749 -2.5182 -1.0588
 5835TIP3    H239141   3.713   6.897   1.822  0.4150 -0.1523 -2.2296
 5836TIP3   OH239142   3.871   4.550   0.109 -0.0347  1.1673 -0.6501
 5836TIP3    H139143   3.884   4.543   0.204 -1.5847 -0.1799 -0.4715
 5836TIP3    H239144   3.942   4.605   0.078  0.4658  1.6978  1.3126
 5837TIP3   OH239145   2.998   5.620   0.204  0.4635  0.4607 -0.0232
 5837TIP3    H139146   2.929   5.590   0.262  0.7350  2.6648  1.5398
 5837TIP3    H239147   2.960   5.695   0.158  1.4185  0.9485 -0.0416
 5838TIP3   OH239148   1.728   6.017   2.191 -0.2677  0.3902 -0.1097
 5838TIP3    H139149   1.672   6.090   2.218 -1.7235 -0.2096 -1.3012
 5838TIP3    H239150   1.752   5.973   2.272 -1.1562  0.9598  0.4789
 5839TIP3   OH239151   4.641   2.058   1.517 -0.4416  0.3126  0.5638
 5839TIP3    H139152   4.667   2.051   1.609  1.4081  1.0714  0.1383
 5839TIP3    H239153   4.708   2.112   1.476 -1.1597 -0.0872 -1.2761
 5840TIP3   OH239154   6.527   2.826   7.953 -0.1484  0.3437  0.3701
 5840TIP3    H139155   6.616   2.861   7.956 -0.0108  0.4498 -2.2744
 5840TIP3    H239156   6.537   2.735   7.927 -0.7837 -0.0189  1.3361
 5841TIP3   OH239157   1.805   1.956   2.362  0.1481 -0.2707  0.2729
 5841TIP3    H139158   1.752   1.984   2.437 -0.1965 -0.5991  0.1539
 5841TIP3    H239159   1.767   1.872   2.336  0.4733 -0.3130 -0.0682
 5842TIP3   OH239160   4.415   1.542   0.795 -0.4350  0.0130 -0.2088
 5842TIP3    H139161   4.473   1.615   0.817 -1.5139  0.7105  0.4901
 5842TIP3    H239162   4.385   1.561   0.706 -0.1257  0.0111 -0.3146
 5843TIP3   OH239163   4.349   5.982   2.175 -0.3312 -0.1793  0.3656
 5843TIP3    H139164   4.306   6.067   2.187 -2.4116 -1.1191 -0.0326
 5843TIP3    H239165   4.313   5.927   2.245 -0.0915 -1.1236 -0.2378
 5844TIP3   OH239166   4.777   2.937   2.072  0.1695 -0.2130 -0.0013
 5844TIP3    H139167   4.795   2.851   2.110 -3.8048 -0.9574  0.6702
 5844TIP3    H239168   4.748   2.990   2.146 -0.9417  0.5193 -0.9313
 5845TIP3   OH239169   3.804   5.513   0.065 -0.4897  0.5983  0.3614
 5845TIP3    H139170   3.729   5.561   0.101 -0.0791 -0.4903  2.7948
 5845TIP3    H239171   3.784   5.421   0.081  0.1141  0.0897 -1.5399
 5846TIP3   OH239172   6.065   6.883   2.427 -0.3201 -0.5310  0.2341
 5846TIP3    H139173   6.022   6.954   2.473 -0.2487 -0.0813 -0.3763
 5846TIP3    H239174   6.144   6.865   2.479 -0.1659  0.0628  0.2147
 5847TIP3   OH239175   6.688   4.532   1.465  0.2747 -0.3600  0.4830
 5847TIP3    H139176   6.615   4.478   1.433 -0.5951  0.5399  0.9055
 5847TIP3    H239177   6.715   4.583   1.389 -0.5840  0.4472  0.7067
 5848TIP3   OH239178   3.453   6.397   0.848 -0.0245 -0.0905 -0.1126
 5848TIP3    H139179   3.394   6.322   0.860 -0.3828  0.0419 -0.9940
 5848TIP3    H239180   3.415   6.447   0.776  0.7610  0.4004 -0.2015
 5849TIP3   OH239181   5.825   4.170   7.909  0.0320  0.0838 -0.4046
 5849TIP3    H139182   5.865   4.167   7.822  4.0913  1.2972  1.1985
 5849TIP3    H239183   5.836   4.081   7.943 -0.5187 -0.0982 -0.6912
 5850TIP3   OH239184   0.550   1.363   2.267  0.0756 -0.5532 -0.5506
 5850TIP3    H139185   0.596   1.446   2.277 -0.2688 -0.5354  1.2533
 5850TIP3    H239186   0.574   1.332   2.180  1.8421  0.4376 -0.4516
 5851TIP3   OH239187   4.582   3.081   0.897 -0.2498 -0.1040  0.2806
 5851TIP3    H139188   4.615   3.060   0.810  3.6242  0.4871  1.4140
 5851TIP3    H239189   4.545   2.998   0.929 -1.4890 -0.3919 -1.7454
 5852TIP3   OH239190   1.960   1.914   0.651  0.1187 -0.6092 -0.3289
 5852TIP3    H139191   2.036   1.908   0.594 -0.9624  0.2305 -1.9419
 5852TIP3    H239192   1.946   2.008   0.661  0.4551 -0.7298  1.6171
 5853TIP3   OH239193   1.322   4.129   2.076  0.0421 -0.3578 -0.5203
 5853TIP3    H139194   1.238   4.146   2.034 -0.3546 -1.9386 -0.4522
 5853TIP3    H239195   1.324   4.034   2.087  2.1768 -0.4533 -1.2545
 5854TIP3   OH239196   3.348   3.930   8.370  0.5845 -0.5540  0.2140
 5854TIP3    H139197   3.321   3.946   8.461 -0.5873  0.3282 -0.2596
 5854TIP3    H239198   3.358   3.835   8.364 -0.7420 -0.7578  0.8931
 5855TIP3   OH239199   2.519   6.207   2.351  0.0438  0.2745  0.2130
 5855TIP3    H139200   2.475   6.274   2.404 -0.5894 -0.8112  1.1011
 5855TIP3    H239201   2.479   6.124   2.379  0.1101 -0.3962 -1.5529
 5856TIP3   OH239202   4.719   0.851   1.850 -0.5741  0.0087  0.2867
 5856TIP3    H139203   4.684   0.867   1.762 -2.2527  0.6409  1.0253
 5856TIP3    H239204   4.725   0.755   1.856  0.2185 -0.0280 -0.7335
 5857TIP3   OH239205   1.062   0.424   1.485 -0.1323  0.8072 -0.0587
 5857TIP3    H139206   0.987   0.452   1.433 -0.1620 -0.1241 -0.5343
 5857TIP3    H239207   1.123   0.498   1.480 -0.7489  1.3144 -0.1943
 5858TIP3   OH239208   6.343   4.509   8.547 -0.8556 -0.6976  0.3070
 5858TIP3    H139209   6.370   4.506   8.455 -1.1754  0.3049  0.1600
 5858TIP3    H239210   6.419   4.544   8.593 -0.6848 -1.2296  0.4346
 5859TIP3   OH239211   2.944   4.193   2.113  0.0178  0.4839  0.3962
 5859TIP3    H139212   2.931   4.178   2.207 -1.0023  0.2731  0.2265
 5859TIP3    H239213   2.913   4.113   2.071  0.4725  0.5772 -0.1321
 5860TIP3   OH239214   6.474   0.613   1.062 -0.3497  0.8467  0.0575
 5860TIP3    H139215   6.510   0.659   1.137 -1.2710  2.4337 -0.4258
 5860TIP3    H239216   6.535   0.541   1.045 -0.1280  0.4488  2.3001
 5861TIP3   OH239217   2.603   0.508   1.739  0.3184  0.0410  0.2698
 5861TIP3    H139218   2.516   0.504   1.699  0.3770  1.3529 -0.0478
 5861TIP3    H239219   2.650   0.434   1.701 -1.1202 -1.6614  1.6601
 5862TIP3   OH239220   1.912   1.783   8.334  0.3877  0.1573 -0.5929
 5862TIP3    H139221   1.858   1.858   8.359 -1.2858 -1.3374  0.4387
 5862TIP3    H239222   1.946   1.749   8.417  0.9397 -0.3673 -1.0255
 5863TIP3   OH239223   0.461   0.688   7.433  0.3741  0.0755 -0.3397
 5863TIP3    H139224   0.386   0.670   7.377 -0.0046 -1.8128  0.7225
 5863TIP3    H239225   0.509   0.606   7.437  0.2937  0.0843  2.2257
 5864TIP3   OH239226   5.000   6.437   7.584  0.3959 -0.3323  0.4963
 5864TIP3    H139227   4.928   6.383   7.618 -0.8056  1.0961  0.3358
 5864TIP3    H239228   4.974   6.458   7.495  1.7179 -0.9244 -0.0554
 5865TIP3   OH239229   0.659   4.485   7.746 -0.3892  0.3309  0.1088
 5865TIP3    H139230   0.662   4.425   7.672 -0.4113 -1.9471  1.8274
 5865TIP3    H239231   0.646   4.571   7.707 -1.0621 -0.8359 -2.4673
 5866TIP3   OH239232   0.801   6.762   7.991 -0.4925 -0.0602 -0.1006
 5866TIP3    H139233   0.876   6.738   7.936  0.7387  3.2364 -0.1205
 5866TIP3    H239234   0.736   6.797   7.930 -1.6384 -1.8120  0.0444
 5867TIP3   OH239235   1.997   0.944   6.853 -0.2336 -0.1170  0.1728
 5867TIP3    H139236   2.022   0.878   6.787 -0.0905  2.0616 -2.1113
 5867TIP3    H239237   2.077   0.996   6.865 -0.5191  0.0471  1.4700
 5868TIP3   OH239238   0.153   0.361   1.433 -0.8787  0.5289 -0.1345
 5868TIP3    H139239   0.093   0.435   1.427 -0.2740  1.0556  0.2436
 5868TIP3    H239240   0.097   0.286   1.450 -1.4559  0.9701 -0.0813
 5869TIP3   OH239241   0.532   4.181   7.769 -0.5681  0.1146 -0.6179
 5869TIP3    H139242   0.472   4.107   7.781 -0.3893  0.0457 -0.1450
 5869TIP3    H239243   0.549   4.213   7.857  0.8338 -0.4571 -0.6636
 5870TIP3   OH239244   0.272   4.406   7.654 -0.1884 -0.0342 -0.7008
 5870TIP3    H139245   0.359   4.382   7.685 -0.4828 -0.4360 -0.1522
 5870TIP3    H239246   0.266   4.500   7.668  0.7733  0.3004 -2.3367
 5871TIP3   OH239247   2.675   3.102   1.650 -0.5363 -0.3699  0.4613
 5871TIP3    H139248   2.649   3.051   1.573 -1.5315 -1.1336  1.2710
 5871TIP3    H239249   2.620   3.180   1.646  0.8407  0.5795 -0.6674
 5872TIP3   OH239250   4.031   3.558   3.210 -0.1069 -0.3293 -0.0933
 5872TIP3    H139251   4.107   3.616   3.206 -0.1256 -0.3681 -2.8317
 5872TIP3    H239252   3.962   3.611   3.248  0.3133  0.9510 -1.0458
 5873TIP3   OH239253   2.764   1.245   0.094 -0.6420 -0.2584  0.4668
 5873TIP3    H139254   2.844   1.200   0.123 -0.5854 -1.6051 -1.5634
 5873TIP3    H239255   2.781   1.266   0.002 -2.3160  0.1498  0.2234
 5874TIP3   OH239256   3.713   1.160   1.322 -0.6320 -0.4190 -0.4512
 5874TIP3    H139257   3.717   1.100   1.397  1.9600  0.4296  0.1598
 5874TIP3    H239258   3.762   1.116   1.253 -1.9873 -0.6521 -1.3138
 5875TIP3   OH239259   5.071   1.656   8.354 -0.4493  0.8569  0.2547
 5875TIP3    H139260   5.014   1.683   8.282 -0.6873 -1.5818 -0.5417
 5875TIP3    H239261   5.125   1.734   8.372 -1.0033  1.8156 -1.9304
 5876TIP3   OH239262   4.384   4.015   8.384 -0.4944  0.1464  0.5383
 5876TIP3    H139263   4.348   4.043   8.300  1.5532 -0.7125 -0.7319
 5876TIP3    H239264   4.453   3.953   8.360  1.4387  1.2829  2.7584
 5877TIP3   OH239265   4.160   4.298   0.913  0.2355  0.5907 -0.1410
 5877TIP3    H139266   4.177   4.281   1.006  0.7285  2.8372  0.2313
 5877TIP3    H239267   4.064   4.300   0.907  0.1962 -0.1328  0.2021
 5878TIP3   OH239268   4.210   4.438   8.203  0.3028 -0.3998 -0.7922
 5878TIP3    H139269   4.191   4.518   8.154  1.1043  0.0714 -0.3496
 5878TIP3    H239270   4.304   4.443   8.222 -0.3783  0.8501  3.2214
 5879TIP3   OH239271   3.248   0.898   2.486  0.4202 -0.1562 -0.0034
 5879TIP3    H139272   3.225   0.806   2.470  0.1905 -0.4142  1.6190
 5879TIP3    H239273   3.237   0.909   2.580  3.3532  0.7493  0.3182
 5880TIP3   OH239274   4.123   5.448   8.233  0.1301 -0.2013 -0.3539
 5880TIP3    H139275   4.135   5.461   8.139  0.2647  1.0270 -0.1818
 5880TIP3    H239276   4.118   5.536   8.269 -1.0577 -0.6606  0.6651
 5881TIP3   OH239277   3.974   1.330   2.531 -0.5787  0.1835 -0.1083
 5881TIP3    H139278   3.999   1.353   2.441  0.5088  0.0839  0.1608
 5881TIP3    H239279   4.029   1.385   2.586  0.1757 -1.1592  0.5125
 5882TIP3   OH239280   3.210   0.471   0.712 -0.3883 -0.5701  0.3356
 5882TIP3    H139281   3.198   0.402   0.777 -0.5315 -1.4475 -0.5963
 5882TIP3    H239282   3.286   0.520   0.743  0.7721 -2.1704  0.1523
 5883TIP3   OH239283   0.089   1.993   6.949  0.7002  0.4735  0.7374
 5883TIP3    H139284   0.115   2.075   6.908  0.6325  0.8886  1.5168
 5883TIP3    H239285  -0.004   1.983   6.925  0.8261  0.3905  0.2690
 5884TIP3   OH239286   4.463   0.058   7.536  0.2256 -0.0691 -0.2105
 5884TIP3    H139287   4.412   0.138   7.523  0.2756 -0.3870 -2.9378
 5884TIP3    H239288   4.398  -0.009   7.555 -0.0213  0.2127 -0.0529
 5885TIP3   OH239289   4.106   4.566   1.089  0.5702 -0.0477  0.2249
 5885TIP3    H139290   4.193   4.549   1.054  0.6106 -0.2105  0.4038
 5885TIP3    H239291   4.091   4.659   1.071  1.0830  0.1631  0.8499
 5886TIP3   OH239292   4.511   2.796   8.181 -0.1535 -0.0655  0.4067
 5886TIP3    H139293   4.581   2.835   8.232 -0.0209  0.7999 -0.4239
 5886TIP3    H239294   4.506   2.848   8.101 -1.5481 -0.2834  0.3137
 5887TIP3   OH239295   4.746   1.769   2.278  0.5573  0.1513  0.3391
 5887TIP3    H139296   4.668   1.763   2.332 -1.1761  1.2366 -1.8668
 5887TIP3    H239297   4.818   1.748   2.337 -1.4343 -1.8195  2.2582
 5888TIP3   OH239298   3.650   1.339   1.000 -0.7725 -0.1649  0.4025
 5888TIP3    H139299   3.714   1.339   1.071 -1.5454  1.2686  1.1375
 5888TIP3    H239300   3.648   1.429   0.968 -1.1957 -0.5596 -0.7689
 5889TIP3   OH239301   6.161   0.833   8.471  0.4380 -0.1392 -0.0810
 5889TIP3    H139302   6.182   0.898   8.404  0.1508  0.0577  0.0152
 5889TIP3    H239303   6.246   0.806   8.506  0.5962 -0.3478 -0.6168
 5890TIP3   OH239304   0.228   1.412   1.652  0.2762 -0.1693 -0.5041
 5890TIP3    H139305   0.168   1.455   1.713  0.4667 -0.3375 -0.1983
 5890TIP3    H239306   0.176   1.343   1.611 -0.0272  0.3301 -0.9844
 5891TIP3   OH239307   2.603   0.322   1.334 -0.2468 -0.3721 -0.2839
 5891TIP3    H139308   2.568   0.369   1.258 -1.4511 -0.9414 -0.1150
 5891TIP3    H239309   2.527   0.306   1.389  0.0761 -2.5504 -0.3702
 5892TIP3   OH239310   0.346   4.193   2.583  0.4354  0.1668 -0.1023
 5892TIP3    H139311   0.288   4.266   2.604  0.9937  0.0119  2.1773
 5892TIP3    H239312   0.287   4.118   2.571 -0.0218  0.6439 -0.9598
 5893TIP3   OH239313   5.957   4.779   0.012  0.1261  0.4554 -0.4983
 5893TIP3    H139314   5.871   4.739  -0.002  0.3449 -0.5825  0.9182
 5893TIP3    H239315   5.953   4.861  -0.038 -1.4525  0.1394 -0.9703
 5894TIP3   OH239316   4.878   2.524   1.956  0.3120  0.6683  0.4662
 5894TIP3    H139317   4.951   2.563   2.005 -0.0090  1.0394  0.6640
 5894TIP3    H239318   4.855   2.592   1.892  1.7905 -0.4406 -1.3439
 5895TIP3   OH239319   0.988   6.252   7.431 -0.0769  0.2854 -0.1089
 5895TIP3    H139320   1.054   6.317   7.406  0.2784 -0.1984 -0.4550
 5895TIP3    H239321   0.922   6.256   7.361  0.4878 -0.4680 -0.7108
 5896TIP3   OH239322   2.482   0.056   1.445 -0.4361  0.5969 -0.1396
 5896TIP3    H139323   2.435   0.139   1.455 -0.9777  0.4337 -1.2018
 5896TIP3    H239324   2.525   0.063   1.360 -0.8334 -0.3761 -0.4292
 5897TIP3   OH239325   5.165   3.152   0.054 -0.5254  0.5100  0.3704
 5897TIP3    H139326   5.102   3.082   0.067  0.3165 -0.3774 -0.2423
 5897TIP3    H239327   5.251   3.110   0.058 -0.0316  1.0918 -2.0549
 5898TIP3   OH239328   5.812   1.393   1.116 -0.2572  0.7242 -0.4781
 5898TIP3    H139329   5.807   1.318   1.174  1.8041  1.4828  0.7644
 5898TIP3    H239330   5.757   1.459   1.157 -1.9056  0.0330 -1.4658
 5899TIP3   OH239331   6.157   0.101   0.066  0.3032 -0.3486  0.0484
 5899TIP3    H139332   6.165   0.194   0.050 -0.1010 -0.1094  1.1079
 5899TIP3    H239333   6.170   0.060  -0.019 -0.7101  0.7407 -0.6577
 5900TIP3   OH239334   0.714   6.144   6.811  0.1205  0.3964 -0.3906
 5900TIP3    H139335   0.660   6.128   6.734 -1.6129  0.8850  0.6719
 5900TIP3    H239336   0.736   6.237   6.807 -0.6240  0.6009  0.0848
 5901TIP3   OH239337   6.218   2.025   0.345 -0.0780  0.3438 -0.0231
 5901TIP3    H139338   6.287   2.063   0.290  0.8601  0.7215  1.3772
 5901TIP3    H239339   6.228   1.931   0.335 -0.1268  0.4033 -0.7283
 5902TIP3   OH239340   3.019   0.474   1.945  0.0332  0.1406 -0.4998
 5902TIP3    H139341   3.033   0.453   1.852 -1.2112  1.2093 -0.9629
 5902TIP3    H239342   3.014   0.569   1.947 -1.3715  0.0759  0.4317
 5903TIP3   OH239343   3.574   1.132   0.645 -0.3638 -0.1142 -0.1300
 5903TIP3    H139344   3.541   1.068   0.709  1.0531  0.8707  1.6577
 5903TIP3    H239345   3.523   1.211   0.664 -0.0942  0.1150 -0.3815
 5904TIP3   OH239346   0.035   2.400   2.340 -0.2758  0.3449 -0.0598
 5904TIP3    H139347   0.030   2.495   2.350 -0.5565  0.1960  1.6219
 5904TIP3    H239348   0.128   2.380   2.354  0.2126  0.5332 -2.6309
 5905TIP3   OH239349   5.165   2.397   8.035 -0.1151 -0.0932  0.4386
 5905TIP3    H139350   5.073   2.390   8.058 -0.5425 -0.0603 -1.1352
 5905TIP3    H239351   5.176   2.487   8.004 -0.0067 -0.5840 -1.0578
 5906TIP3   OH239352   3.637   4.003   1.308  0.1550 -0.7519 -0.5597
 5906TIP3    H139353   3.648   3.961   1.223 -1.2135 -1.4273 -0.4330
 5906TIP3    H239354   3.569   4.069   1.294  2.4907  1.7803 -0.8433
 5907TIP3   OH239355   6.615   0.711   1.283  0.3266 -0.4938 -0.3752
 5907TIP3    H139356   6.600   0.652   1.357  1.1880  0.8062  0.8900
 5907TIP3    H239357   6.700   0.684   1.247  0.5979 -0.2169  0.0427
 5908TIP3   OH239358   3.876   4.386   7.507 -0.0043  0.3958  0.7487
 5908TIP3    H139359   3.857   4.462   7.453  0.8392  0.1657  0.1044
 5908TIP3    H239360   3.791   4.357   7.539 -0.9185 -1.0523 -2.6050
 5909TIP3   OH239361   2.331   0.392   0.822 -0.3935 -0.1920  0.5699
 5909TIP3    H139362   2.383   0.469   0.843  0.5445 -0.4251 -0.7387
 5909TIP3    H239363   2.336   0.386   0.727 -1.3698 -1.2433  0.5695
 5910TIP3   OH239364   2.504   3.831   1.234  1.0726 -0.4922 -0.9401
 5910TIP3    H139365   2.527   3.877   1.315 -0.2571  0.5776 -1.1426
 5910TIP3    H239366   2.438   3.766   1.261  0.7593 -0.2556 -1.1285
 5911TIP3   OH239367   6.199   3.655   8.062 -0.2146  0.2121  0.1017
 5911TIP3    H139368   6.196   3.710   7.983 -2.6122  0.8393  0.5606
 5911TIP3    H239369   6.118   3.605   8.059  0.1532 -0.5199  1.6673
 5912TIP3   OH239370   6.315   3.447   6.898  0.1740 -0.0293 -0.1002
 5912TIP3    H139371   6.296   3.501   6.821 -0.4560 -1.0976 -0.7213
 5912TIP3    H239372   6.239   3.388   6.905 -0.9626  1.5582  2.7429
 5913TIP3   OH239373   3.180   0.324   8.282 -0.2812  0.6253 -0.0392
 5913TIP3    H139374   3.170   0.325   8.187  0.6633 -0.4001 -0.1651
 5913TIP3    H239375   3.199   0.415   8.305 -0.5459  0.8841 -0.8228
 5914TIP3   OH239376   5.730   4.841   1.939 -0.4229 -0.6829  0.0660
 5914TIP3    H139377   5.764   4.830   1.850 -1.1827 -1.0713 -0.1833
 5914TIP3    H239378   5.704   4.933   1.944  1.3036 -0.1833  0.5017
 5915TIP3   OH239379   1.696   2.592   2.156  0.1295  0.2691 -0.3082
 5915TIP3    H139380   1.679   2.600   2.249  0.5829  1.7766 -0.3371
 5915TIP3    H239381   1.612   2.612   2.114 -0.1021 -0.5122 -0.2460
 5916TIP3   OH239382   1.183   4.646   8.433  0.3847  0.1800 -0.4761
 5916TIP3    H139383   1.214   4.645   8.523  0.8927  4.4100 -0.3881
 5916TIP3    H239384   1.088   4.640   8.440  0.4838 -0.9459  0.1683
 5917TIP3   OH239385   6.122   3.580   7.481 -0.5569 -0.6497 -0.1322
 5917TIP3    H139386   6.140   3.656   7.425 -1.8164 -0.8495 -0.8674
 5917TIP3    H239387   6.028   3.588   7.501 -0.1416 -0.5754  1.9997
 5918TIP3   OH239388   3.979   5.284   7.562  0.4955 -0.1740  0.0539
 5918TIP3    H139389   3.913   5.215   7.563  0.0687  0.2423  0.7262
 5918TIP3    H239390   3.997   5.299   7.469 -2.2846  1.5456 -0.3009
 5919TIP3   OH239391   1.835   2.015   7.374  0.0635 -0.3616  0.1283
 5919TIP3    H139392   1.772   2.004   7.303  0.8324  0.2299 -0.6693
 5919TIP3    H239393   1.810   1.949   7.439 -0.9018 -0.6375 -0.5089
 5920TIP3   OH239394   4.973   6.301   0.269 -0.0969  0.2121  0.1372
 5920TIP3    H139395   5.048   6.346   0.230  0.4512 -0.7288  0.0670
 5920TIP3    H239396   5.004   6.211   0.282 -1.6141 -0.5167 -1.0306
 5921TIP3   OH239397   4.872   3.243   2.387  0.1377 -0.5968  0.6813
 5921TIP3    H139398   4.874   3.258   2.481 -0.4097 -1.1772  0.7911
 5921TIP3    H239399   4.910   3.156   2.375  3.9326  0.9690 -0.0073
 5922TIP3   OH239400   6.114   2.165   1.133 -0.0193 -0.3572  0.3100
 5922TIP3    H139401   6.184   2.102   1.114  1.6625  0.8073  2.1738
 5922TIP3    H239402   6.089   2.146   1.224  0.0100  1.1403  0.6587
 5923TIP3   OH239403   1.450   1.613   2.111  0.7886 -0.0869 -0.6461
 5923TIP3    H139404   1.367   1.661   2.108  1.6634  1.5678 -0.0059
 5923TIP3    H239405   1.464   1.583   2.022 -0.6710 -0.7479 -0.6861
 5924TIP3   OH239406   3.087   6.697   1.934 -0.4696  0.3273  0.0471
 5924TIP3    H139407   3.120   6.782   1.964  0.1937  0.7189 -1.6753
 5924TIP3    H239408   2.993   6.713   1.918 -0.0904  1.1781 -1.5898
 5925TIP3   OH239409   5.575   0.137   1.031  0.1771 -0.8258 -0.4131
 5925TIP3    H139410   5.482   0.160   1.030  0.4059  0.1238 -0.8883
 5925TIP3    H239411   5.612   0.188   1.103  0.8410  1.0012 -1.9753
 5926TIP3   OH239412   3.640   5.828   7.491 -0.6632 -0.1287 -0.0063
 5926TIP3    H139413   3.690   5.838   7.410  0.1517 -1.3626  0.3110
 5926TIP3    H239414   3.659   5.908   7.541 -0.4276  0.2150 -0.6386
 5927TIP3   OH239415   3.772   4.901   2.135  0.0916  0.3244 -0.3538
 5927TIP3    H139416   3.834   4.953   2.083  1.0512 -0.4857 -0.0341
 5927TIP3    H239417   3.826   4.839   2.183 -1.1589 -2.5028 -2.3826
 5928TIP3   OH239418   5.500   2.608   7.570  0.2102  0.3448  0.1846
 5928TIP3    H139419   5.407   2.596   7.550  0.3624  1.7980 -1.6478
 5928TIP3    H239420   5.546   2.573   7.493  1.1279  0.6144  0.5929
 5929TIP3   OH239421   3.041   3.532   1.268 -0.0856 -0.1328  0.0954
 5929TIP3    H139422   3.102   3.461   1.248 -1.1254 -0.2676 -3.1724
 5929TIP3    H239423   3.095   3.611   1.271  0.5054 -0.4981 -0.7565
 5930TIP3   OH239424   6.815   3.373   2.597  0.7446 -0.8804  0.0395
 5930TIP3    H139425   6.798   3.292   2.644 -2.5054 -0.1909  0.2770
 5930TIP3    H239426   6.765   3.440   2.644  0.7107  0.6334 -1.9715
 5931TIP3   OH239427   0.769   0.400   2.797 -0.1856 -0.7748  0.5204
 5931TIP3    H139428   0.800   0.429   2.883  1.0760 -2.1049  0.5519
 5931TIP3    H239429   0.715   0.472   2.765  1.4803  0.9031  1.2956
 5932TIP3   OH239430   0.111   6.585   8.520  0.3957 -0.1209 -0.1659
 5932TIP3    H139431   0.024   6.544   8.520  0.1145  0.3883  1.7461
 5932TIP3    H239432   0.154   6.548   8.597  0.7934  1.7738  0.5756
 5933TIP3   OH239433   4.550   5.342   2.904  0.0865  0.4237 -0.1884
 5933TIP3    H139434   4.628   5.388   2.873  0.3288 -0.7145 -1.4023
 5933TIP3    H239435   4.497   5.330   2.825 -0.0023 -1.2564  0.0884
 5934TIP3   OH239436   5.520   6.698   2.053 -0.4515 -0.2423  0.0994
 5934TIP3    H139437   5.501   6.612   2.016  2.3865 -0.0953 -2.1102
 5934TIP3    H239438   5.548   6.750   1.978  3.7925  0.6959  2.0370
 5935TIP3   OH239439   6.902   6.610   7.414 -0.1097 -0.5427  0.4533
 5935TIP3    H139440   6.934   6.560   7.339 -1.3460  0.8754 -1.0942
 5935TIP3    H239441   6.827   6.559   7.446 -2.4224  0.9431 -2.1475
 5936TIP3   OH239442   5.488   2.154   1.423 -0.0150 -0.0773 -0.0981
 5936TIP3    H139443   5.452   2.112   1.502 -0.0995  0.1544 -0.0115
 5936TIP3    H239444   5.515   2.241   1.453  2.2772 -0.8596  0.2557
 5937TIP3   OH239445   3.653   5.570   7.579 -0.5214  0.1924 -0.0428
 5937TIP3    H139446   3.646   5.510   7.504 -3.4932 -1.4227  1.3506
 5937TIP3    H239447   3.652   5.657   7.539 -1.3647 -0.6138 -1.9413
 5938TIP3   OH239448   6.139   5.513   0.055 -0.0843 -0.1804  0.0371
 5938TIP3    H139449   6.091   5.432   0.073  2.3776 -2.2247 -1.7546
 5938TIP3    H239450   6.187   5.531   0.136 -0.8768 -0.2981  0.5493
 5939TIP3   OH239451   0.690   2.514   8.260  0.0776 -0.0111 -0.5199
 5939TIP3    H139452   0.682   2.427   8.299 -1.5519  1.2188  2.1956
 5939TIP3    H239453   0.777   2.544   8.285  0.7504 -0.8789 -1.6892
 5940TIP3   OH239454   2.562   2.864   1.762 -0.1862 -0.1164  0.0431
 5940TIP3    H139455   2.547   2.874   1.856  1.0529  0.0918  0.2379
 5940TIP3    H239456   2.602   2.946   1.735 -1.7066  0.3311 -0.9514
 5941TIP3   OH239457   1.472   4.475   8.215  0.5205  0.3123  0.1370
 5941TIP3    H139458   1.438   4.463   8.126  0.1100  1.0958  0.1820
 5941TIP3    H239459   1.566   4.461   8.207  0.5462  0.8269 -0.5103
 5942TIP3   OH239460   5.767   2.125   1.596  0.7350 -0.6499 -0.3388
 5942TIP3    H139461   5.706   2.136   1.523 -0.4604  1.7872  0.9426
 5942TIP3    H239462   5.757   2.033   1.621 -1.6648 -0.5784 -0.8319
 5943TIP3   OH239463   3.573   2.947   2.213  0.4568  0.2437  0.2327
 5943TIP3    H139464   3.608   2.885   2.148  1.3906 -0.0205  0.9587
 5943TIP3    H239465   3.480   2.955   2.191  0.5414 -0.6291 -0.5106
 5944TIP3   OH239466   1.567   6.578   7.879  0.3961  0.1437  0.6045
 5944TIP3    H139467   1.540   6.580   7.970 -0.9975 -0.1781  0.2194
 5944TIP3    H239468   1.486   6.590   7.829  0.9061 -1.2081 -0.6200
 5945TIP3   OH239469   3.334   0.872   1.765 -0.1454 -0.0975 -0.2454
 5945TIP3    H139470   3.269   0.939   1.789 -0.2200 -0.4554  0.6044
 5945TIP3    H239471   3.367   0.841   1.849  0.2849 -0.7444 -0.6518
 5946TIP3   OH239472   3.088   1.355   2.189 -0.3931 -0.1245 -0.4793
 5946TIP3    H139473   3.161   1.353   2.251 -0.8273 -1.5784  0.0184
 5946TIP3    H239474   3.047   1.441   2.203  1.2605  0.7635 -0.8524
 5947TIP3   OH239475   5.938   5.332   0.787  0.0903  0.5210  0.2997
 5947TIP3    H139476   5.923   5.246   0.748 -0.5567  0.2148  1.2093
 5947TIP3    H239477   5.930   5.393   0.713 -0.2956 -0.1177 -0.1985
 5948TIP3   OH239478   2.846   5.649   2.081 -0.6342  0.7690 -0.3311
 5948TIP3    H139479   2.869   5.714   2.014  2.6603  0.6940  0.5470
 5948TIP3    H239480   2.828   5.701   2.159  1.6173  0.7545  0.2667
 5949TIP3   OH239481   2.697   5.133   1.811 -0.4823 -0.3201 -0.4926
 5949TIP3    H139482   2.758   5.148   1.883 -1.1411  1.1633 -0.2136
 5949TIP3    H239483   2.752   5.135   1.732  0.0289 -0.4767 -0.1478
 5950TIP3   OH239484   6.787   3.839   7.576 -0.5309 -0.3735 -0.4596
 5950TIP3    H139485   6.826   3.920   7.608  0.8627 -0.4700 -1.7992
 5950TIP3    H239486   6.796   3.778   7.649 -0.2980  0.2801  0.0696
 5951TIP3   OH239487   2.788   6.526   3.025  0.1312 -0.0353  0.2388
 5951TIP3    H139488   2.786   6.605   3.079 -1.7991  0.0022  0.1759
 5951TIP3    H239489   2.703   6.525   2.981  0.9438 -1.0365 -1.4000
 5952TIP3   OH239490   5.910   6.414   1.152  0.8569 -0.1517  0.5283
 5952TIP3    H139491   5.978   6.384   1.092 -1.0424 -0.1502 -1.7433
 5952TIP3    H239492   5.922   6.360   1.231  0.7795 -3.3090 -1.4487
 5953TIP3   OH239493   0.536   6.481   7.968 -0.2388  0.2490 -0.1159
 5953TIP3    H139494   0.480   6.406   7.986  0.4285 -0.3888 -0.6501
 5953TIP3    H239495   0.616   6.465   8.018 -0.2030  0.7463 -0.0044
 5954TIP3   OH239496   6.764   3.206   7.191  0.1556  0.2496  0.0560
 5954TIP3    H139497   6.835   3.198   7.127 -0.3961 -1.6638 -0.3747
 5954TIP3    H239498   6.688   3.230   7.138  0.3668  1.9314  0.4693
 5955TIP3   OH239499   4.185   2.634   0.277 -0.4771 -0.1877  0.0236
 5955TIP3    H139500   4.213   2.710   0.329 -1.6551 -0.0406  0.4661
 5955TIP3    H239501   4.149   2.573   0.341 -2.7066  0.3357 -0.6636
 5956TIP3   OH239502   6.264   4.061   7.851 -0.0758 -0.1213  0.3948
 5956TIP3    H139503   6.280   4.117   7.927  1.9120 -1.3148  0.9302
 5956TIP3    H239504   6.349   4.052   7.808  0.1377 -3.8345  1.2049
 5957TIP3   OH239505   5.681   6.218   7.057  0.4672 -0.0712  0.6247
 5957TIP3    H139506   5.655   6.215   6.965 -1.4704  0.5163  1.1015
 5957TIP3    H239507   5.686   6.126   7.083  0.9508 -0.2398 -0.0514
 5958TIP3   OH239508   0.933   0.561   0.292  0.3616  0.7253 -0.2816
 5958TIP3    H139509   0.991   0.545   0.217  0.6868 -0.1933  0.1481
 5958TIP3    H239510   0.979   0.520   0.366 -0.8564 -0.0783  0.0541
 5959TIP3   OH239511   3.099   2.718   2.607 -0.3247 -0.3187  0.7149
 5959TIP3    H139512   3.167   2.656   2.579 -0.5027  0.5061 -1.8009
 5959TIP3    H239513   3.142   2.773   2.673  0.4311 -1.8256  1.5142
 5960TIP3   OH239514   0.842   0.051   1.149 -0.0083 -0.4326  0.8512
 5960TIP3    H139515   0.767   0.016   1.100 -0.7042  0.4418  1.2668
 5960TIP3    H239516   0.877  -0.024   1.195  0.3995 -1.1988 -0.6408
 5961TIP3   OH239517   5.131   3.849   0.273 -0.4827  0.1544  0.5387
 5961TIP3    H139518   5.108   3.929   0.226  0.4259  1.3387  2.0076
 5961TIP3    H239519   5.224   3.838   0.258 -0.5871 -0.6108  0.4007
 5962TIP3   OH239520   4.236   3.601   7.380  0.1060 -0.2238 -0.2782
 5962TIP3    H139521   4.187   3.522   7.404  1.7406 -1.6373 -1.3180
 5962TIP3    H239522   4.247   3.594   7.285  0.8993  0.8815 -0.2844
 5963TIP3   OH239523   1.108   5.586   7.908  0.4410 -0.2477  0.0762
 5963TIP3    H139524   1.127   5.635   7.988 -1.3961 -1.2695  1.2114
 5963TIP3    H239525   1.015   5.600   7.893  0.7944  0.0889 -2.0499
 5964TIP3   OH239526   6.811   5.118   7.146  0.4630  0.2335 -0.3048
 5964TIP3    H139527   6.904   5.136   7.155  0.9529 -2.1795  0.3065
 5964TIP3    H239528   6.779   5.114   7.236  0.3934 -1.5855 -0.3736
 5965TIP3   OH239529   4.284   0.793   7.417 -0.2144  0.3891  0.0611
 5965TIP3    H139530   4.372   0.764   7.392 -0.6542 -1.1390  0.2385
 5965TIP3    H239531   4.281   0.885   7.389  1.1995  0.2808 -0.5428
 5966TIP3   OH239532   1.983   2.165   8.272 -0.1927  0.0920 -0.0513
 5966TIP3    H139533   1.934   2.240   8.237 -1.4048 -1.1095 -1.0382
 5966TIP3    H239534   1.964   2.094   8.211  1.3420 -0.9055  0.5865
 5967TIP3   OH239535   4.798   6.278   0.887  0.3200  0.2297  0.1274
 5967TIP3    H139536   4.880   6.265   0.936  0.4765 -1.3631 -0.4899
 5967TIP3    H239537   4.776   6.191   0.854 -1.8128  0.5528  0.5404
 5968TIP3   OH239538   5.583   0.055   1.340  0.6205  0.9173 -0.1327
 5968TIP3    H139539   5.677   0.062   1.328  0.5905  1.1534 -0.2400
 5968TIP3    H239540   5.571  -0.021   1.398  0.8096  0.2434 -0.9611
 5969TIP3   OH239541   5.669   5.916   2.810  0.1549 -0.7978  0.1143
 5969TIP3    H139542   5.588   5.876   2.779 -1.4011  2.1761 -0.0506
 5969TIP3    H239543   5.717   5.845   2.852 -1.9762 -2.9233 -0.8281
 5970TIP3   OH239544   3.359   1.539   0.089 -0.8203 -0.2142  0.6119
 5970TIP3    H139545   3.417   1.509   0.160 -0.9056 -0.7033  0.4827
 5970TIP3    H239546   3.417   1.550   0.014 -0.6599  0.7118  0.8595
 5971TIP3   OH239547   2.184   4.193   0.050 -0.0016  0.0128  0.6673
 5971TIP3    H139548   2.178   4.280   0.012  2.4101  1.2565  2.8069
 5971TIP3    H239549   2.108   4.186   0.108 -1.0806 -0.0067 -0.7156
 5972TIP3   OH239550   5.834   3.124   7.624 -0.2023 -0.1006 -0.3552
 5972TIP3    H139551   5.873   3.191   7.681 -0.1664  0.5839 -1.1654
 5972TIP3    H239552   5.762   3.170   7.580 -0.7072 -0.8316 -0.2938
 5973TIP3   OH239553   5.300   5.059   6.770  0.5199 -0.0108  0.4151
 5973TIP3    H139554   5.330   5.114   6.698 -0.4368  0.0949  0.0758
 5973TIP3    H239555   5.309   4.969   6.737 -0.2944  0.0529 -0.0033
 5974TIP3   OH239556   0.907   1.466   7.445 -0.1681 -0.7709 -0.0553
 5974TIP3    H139557   0.974   1.398   7.443  0.1453 -0.4622 -0.1851
 5974TIP3    H239558   0.948   1.539   7.492 -1.0688 -1.2594  1.5766
 5975TIP3   OH239559   6.663   4.262   0.155  0.2284 -0.5084 -0.4246
 5975TIP3    H139560   6.690   4.335   0.100  3.1966 -1.0871  0.1008
 5975TIP3    H239561   6.647   4.301   0.241  1.6903 -0.3720 -0.1770
 5976TIP3   OH239562   5.377   4.816   1.919  0.4314  0.5410  0.8008
 5976TIP3    H139563   5.348   4.734   1.958 -1.5367  0.4952 -0.6064
 5976TIP3    H239564   5.463   4.833   1.959  1.7523 -3.0588 -0.1210
 5977TIP3   OH239565   4.155   1.663   2.112 -0.5038  0.3800  0.3887
 5977TIP3    H139566   4.061   1.671   2.097 -0.4906  1.6637  0.9055
 5977TIP3    H239567   4.166   1.577   2.153 -1.3607 -0.0509 -0.2518
 5978TIP3   OH239568   4.861   6.722   0.452 -0.1529  0.3051 -0.2721
 5978TIP3    H139569   4.822   6.648   0.499 -0.1769  1.5130  1.7533
 5978TIP3    H239570   4.946   6.690   0.423 -0.3017 -0.6235  0.2789
 5979TIP3   OH239571   4.719   0.410   0.224 -0.4129  0.3425 -0.4951
 5979TIP3    H139572   4.728   0.500   0.192 -0.2161  0.4769 -0.0602
 5979TIP3    H239573   4.629   0.406   0.257 -0.4855  0.3199 -0.6922
 5980TIP3   OH239574   1.353   4.069   7.774  0.2578 -0.3135 -0.3757
 5980TIP3    H139575   1.271   4.093   7.818 -0.6420 -0.7230 -1.7721
 5980TIP3    H239576   1.325   4.017   7.699  1.9529 -2.9318  0.6785
 5981TIP3   OH239577   1.408   3.486   2.923 -0.0599 -0.4572  0.0933
 5981TIP3    H139578   1.413   3.577   2.953 -1.3291 -0.8459  1.6388
 5981TIP3    H239579   1.393   3.436   3.003 -0.8382 -1.8825 -0.9076
 5982TIP3   OH239580   2.801   2.426   2.431 -0.3166 -0.0461 -0.2796
 5982TIP3    H139581   2.803   2.481   2.509  0.0034  0.7611 -0.8405
 5982TIP3    H239582   2.765   2.342   2.461  0.7704 -0.0962  0.9378
 5983TIP3   OH239583   6.320   0.397   7.091 -0.0592 -0.4289 -0.2454
 5983TIP3    H139584   6.293   0.447   7.168  0.0712 -0.8414  0.0725
 5983TIP3    H239585   6.268   0.432   7.020  0.2767  0.3973 -0.0929
 5984TIP3   OH239586   6.209   1.164   0.792 -0.1815 -0.3185 -0.1470
 5984TIP3    H139587   6.235   1.087   0.842  3.0051 -0.1891 -1.4173
 5984TIP3    H239588   6.192   1.231   0.859  1.1925 -0.9352  0.8755
 5985TIP3   OH239589   1.205   5.450   1.709 -0.0796  0.1377 -0.1870
 5985TIP3    H139590   1.232   5.417   1.795  0.4830 -2.2291 -1.1872
 5985TIP3    H239591   1.110   5.434   1.706 -0.1898  0.6995  0.1694
 5986TIP3   OH239592   6.571   5.726   1.742  0.5015  0.2290  0.2031
 5986TIP3    H139593   6.553   5.706   1.833  1.1427  0.5659  0.4073
 5986TIP3    H239594   6.647   5.672   1.720 -0.7596 -1.2715 -0.6828
 5987TIP3   OH239595   5.019   5.724   1.008 -0.6626 -0.5435  0.1657
 5987TIP3    H139596   5.062   5.798   1.049 -1.1448 -0.0437 -0.2164
 5987TIP3    H239597   5.066   5.710   0.926 -0.4144 -0.8198  0.3542
 5988TIP3   OH239598   5.304   2.198   0.717 -0.1256 -0.3651  0.1295
 5988TIP3    H139599   5.313   2.138   0.642 -0.0519  0.4106 -0.4995
 5988TIP3    H239600   5.393   2.229   0.734 -0.1540 -0.4810  0.4932
 5989TIP3   OH239601   4.465   3.124   3.273 -0.3676  0.3645  0.1390
 5989TIP3    H139602   4.560   3.119   3.261 -0.4155 -2.3832  0.4233
 5989TIP3    H239603   4.431   3.047   3.229 -2.3662  0.5724  1.2212
 5990TIP3   OH239604   1.483   3.281   8.293 -0.4955  0.3443 -0.2031
 5990TIP3    H139605   1.466   3.253   8.382 -1.0797  1.5377  0.0704
 5990TIP3    H239606   1.504   3.200   8.246  0.2388 -0.2487  1.0938
 5991TIP3   OH239607   1.227   6.119   0.434 -0.0814  0.0772 -0.1867
 5991TIP3    H139608   1.142   6.134   0.394 -0.3975  1.9562  1.1132
 5991TIP3    H239609   1.210   6.056   0.504  0.2392 -2.1269 -1.9572
 5992TIP3   OH239610   6.735   1.032   2.100 -0.3043 -0.3844 -0.0546
 5992TIP3    H139611   6.771   0.985   2.176 -1.9159  0.4067  1.2542
 5992TIP3    H239612   6.813   1.063   2.053  0.7804 -0.0814  1.8049
 5993TIP3   OH239613   1.770   2.574   7.897 -0.1295 -0.1024  0.1525
 5993TIP3    H139614   1.846   2.628   7.920  1.1753 -1.5493 -0.5157
 5993TIP3    H239615   1.808   2.487   7.879 -1.5747 -0.2650 -2.7379
 5994TIP3   OH239616   3.714   6.745   1.368  0.2891  0.4327  0.2806
 5994TIP3    H139617   3.707   6.784   1.455  0.1692  1.1477 -0.0397
 5994TIP3    H239618   3.718   6.651   1.384 -0.0314  0.5398  1.0426
 5995TIP3   OH239619   0.246   5.738   8.051 -0.2130 -0.7507  0.1712
 5995TIP3    H139620   0.185   5.691   7.994  1.2582 -2.5638 -0.0238
 5995TIP3    H239621   0.268   5.675   8.120  0.4352  0.3082  0.9738
 5996TIP3   OH239622   2.909   2.310   0.409 -0.4458  0.2601 -0.2550
 5996TIP3    H139623   2.974   2.248   0.443  0.0145  1.4731  1.1761
 5996TIP3    H239624   2.950   2.346   0.331  0.1469  0.2266  0.0334
 5997TIP3   OH239625   5.798   3.293   0.328 -0.2128 -0.2148  0.3963
 5997TIP3    H139626   5.846   3.270   0.249  0.1666 -0.4330  0.6878
 5997TIP3    H239627   5.837   3.239   0.397  0.2449  0.8077  0.9607
 5998TIP3   OH239628   6.681   0.452   2.318  0.0214  0.1117  0.4782
 5998TIP3    H139629   6.667   0.545   2.303 -0.5247  0.1818  1.3462
 5998TIP3    H239630   6.768   0.434   2.282  1.9620  1.8481  3.8144
 5999TIP3   OH239631   2.565   3.474   7.395 -0.4708 -0.4069  0.4928
 5999TIP3    H139632   2.613   3.557   7.394 -1.3474  0.1066  0.1794
 5999TIP3    H239633   2.473   3.499   7.393 -0.7528 -1.3922  0.4863
 6000TIP3   OH239634   5.466   4.272   2.800  0.1650  0.4573 -0.2359
 6000TIP3    H139635   5.424   4.336   2.857  3.0569  1.7239  0.6873
 6000TIP3    H239636   5.540   4.239   2.852  1.4392 -0.2130 -2.3338
 6001TIP3   OH239637   4.066   2.461   8.080 -0.2685 -0.2348 -0.2512
 6001TIP3    H139638   4.110   2.527   8.026  0.3469 -0.3374  0.1086
 6001TIP3    H239639   4.124   2.385   8.077 -0.6787 -0.5542 -0.1783
 6002TIP3   OH239640   2.451   6.902   0.870  0.3239 -0.2597  0.0745
 6002TIP3    H139641   2.385   6.957   0.827  1.3521 -0.2191 -1.5252
 6002TIP3    H239642   2.530   6.915   0.818  0.8008 -2.6602  0.1112
 6003TIP3   OH239643   0.035   0.532   7.877 -0.3632  0.6940  0.0660
 6003TIP3    H139644  -0.014   0.502   7.954  0.9705  0.4524  0.8496
 6003TIP3    H239645   0.118   0.565   7.912  0.2303  0.6796 -1.2550
 6004TIP3   OH239646   2.504   2.884   0.705 -0.0707  1.1189  0.1255
 6004TIP3    H139647   2.433   2.854   0.648  1.2387 -0.9360 -0.5441
 6004TIP3    H239648   2.518   2.812   0.767  1.8817  1.0965 -0.2599
 6005TIP3   OH239649   0.247   6.039   0.845  0.0172  0.4613 -0.1624
 6005TIP3    H139650   0.176   6.083   0.892 -1.1168  0.8934 -2.1323
 6005TIP3    H239651   0.202   5.978   0.786  1.1946  1.0634 -1.7701
 6006TIP3   OH239652   6.856   0.245   7.305 -0.1518 -0.1224  1.2003
 6006TIP3    H139653   6.771   0.209   7.331 -0.3881 -0.1685  0.3963
 6006TIP3    H239654   6.860   0.229   7.211  0.9544 -0.5350  1.3136
 6007TIP3   OH239655   4.604   2.840   1.092  0.2744  0.0604  0.0829
 6007TIP3    H139656   4.637   2.750   1.091 -1.1883 -0.4966 -0.5912
 6007TIP3    H239657   4.547   2.844   1.169  0.5505  0.5045  0.2677
 6008TIP3   OH239658   0.436   0.600   0.678 -0.1637  0.4946 -0.6569
 6008TIP3    H139659   0.494   0.560   0.743  0.6896  0.1290 -1.6124
 6008TIP3    H239660   0.363   0.636   0.729 -0.4689 -1.4076  0.3231
 6009TIP3   OH239661   6.657   3.565   2.318 -0.0015 -0.1015  0.3938
 6009TIP3    H139662   6.694   3.485   2.355 -0.9040 -1.2972 -1.1590
 6009TIP3    H239663   6.599   3.598   2.387 -0.8272 -1.6665  0.4877
 6010TIP3   OH239664   5.186   0.888   1.229  0.1702  0.2589 -0.0938
 6010TIP3    H139665   5.197   0.978   1.259 -2.8136  0.7400 -0.1077
 6010TIP3    H239666   5.177   0.895   1.134 -1.4756  0.2013  0.0217
 6011TIP3   OH239667   3.328   4.874   7.958  0.1258  0.2331 -0.1470
 6011TIP3    H139668   3.236   4.883   7.982 -0.0771 -0.5302 -0.6053
 6011TIP3    H239669   3.332   4.793   7.908  1.1634 -0.0635  0.3977
 6012TIP3   OH239670   1.720   1.646   1.359  0.5269 -0.0799  0.1121
 6012TIP3    H139671   1.649   1.697   1.320  0.1528 -0.5534  0.1646
 6012TIP3    H239672   1.702   1.556   1.333  0.5648 -0.3351  0.9515
 6013TIP3   OH239673   2.468   4.306   1.503  0.6546  0.5422  0.3733
 6013TIP3    H139674   2.420   4.281   1.582  2.1644 -0.6828  0.9647
 6013TIP3    H239675   2.401   4.311   1.435 -0.3119 -1.3334  1.0984
 6014TIP3   OH239676   1.271   0.250   0.099  0.2537 -0.2241 -0.3274
 6014TIP3    H139677   1.275   0.296   0.183 -2.6492  1.2307 -0.8657
 6014TIP3    H239678   1.178   0.245   0.079  0.7392 -2.4774 -2.4649
 6015TIP3   OH239679   6.517   3.804   1.052  0.1595 -0.0664 -0.0608
 6015TIP3    H139680   6.515   3.723   1.102 -0.9135 -1.0288 -1.5673
 6015TIP3    H239681   6.492   3.872   1.114 -0.3011 -1.0873  0.8977
 6016TIP3   OH239682   5.672   3.057   8.498  0.4149 -0.1119  0.4493
 6016TIP3    H139683   5.648   3.149   8.512 -0.9015 -0.3599 -0.0712
 6016TIP3    H239684   5.757   3.061   8.453  0.4660  0.8379  0.6044
 6017TIP3   OH239685   5.371   1.599   1.321  0.8626  0.4496 -0.2994
 6017TIP3    H139686   5.340   1.517   1.360 -0.2144  0.4418 -1.1271
 6017TIP3    H239687   5.317   1.666   1.362  1.6487  0.7444  0.2749
 6018TIP3   OH239688   0.572   5.814   0.502  0.0894  0.1934  0.2469
 6018TIP3    H139689   0.573   5.771   0.587 -1.4879 -1.0257 -0.3065
 6018TIP3    H239690   0.633   5.763   0.449 -2.9760 -2.6707 -0.9035
 6019TIP3   OH239691   2.965   2.352   0.100  0.4357 -0.1621  0.0119
 6019TIP3    H139692   2.916   2.289   0.046  0.5289 -0.8099  0.6595
 6019TIP3    H239693   2.898   2.400   0.148  0.3915 -0.2874  0.0755
 6020TIP3   OH239694   5.325   5.730   1.592 -0.0450  0.2313 -0.1259
 6020TIP3    H139695   5.272   5.776   1.527  0.4339  1.4175  0.3064
 6020TIP3    H239696   5.411   5.721   1.552 -0.4257 -1.3045 -0.6520
 6021TIP3   OH239697   6.530   6.196   1.126  0.2988 -0.0003 -0.4102
 6021TIP3    H139698   6.594   6.177   1.058  1.6467 -0.6368  0.9949
 6021TIP3    H239699   6.576   6.250   1.190 -1.0331  0.8807 -0.1373
 6022TIP3   OH239700   4.463   5.248   0.952  0.2738  0.2352 -0.4572
 6022TIP3    H139701   4.411   5.196   0.890  1.0694 -0.5578 -0.4781
 6022TIP3    H239702   4.498   5.320   0.899 -0.0232  0.2381 -0.6526
 6023TIP3   OH239703   6.207   0.213   6.350 -0.7744  0.1712 -0.1527
 6023TIP3    H139704   6.165   0.236   6.432  0.7092  0.7697  0.4858
 6023TIP3    H239705   6.300   0.235   6.363 -0.3590 -0.4619 -1.7027
 6024TIP3   OH239706   0.255   1.547   2.254  0.0191  0.3847 -0.5361
 6024TIP3    H139707   0.280   1.639   2.246 -1.0048  0.6601 -0.7239
 6024TIP3    H239708   0.290   1.520   2.339  0.5306  0.8785 -0.5832
 6025TIP3   OH239709   6.666   4.457   0.378 -0.1323 -0.4226  0.4733
 6025TIP3    H139710   6.576   4.467   0.408 -0.5121 -0.3506 -0.6418
 6025TIP3    H239711   6.717   4.510   0.440 -1.0230  0.7131  0.2853
 6026TIP3   OH239712   5.231   1.410   8.383  0.2036  0.3554 -0.0100
 6026TIP3    H139713   5.235   1.384   8.291 -0.2901  1.3380 -0.3241
 6026TIP3    H239714   5.204   1.502   8.381  0.5293  0.4929  1.1064
 6027TIP3   OH239715   4.653   5.670   2.284 -0.1800 -0.7271  0.4588
 6027TIP3    H139716   4.599   5.602   2.325 -1.1255  0.3157  1.0073
 6027TIP3    H239717   4.723   5.687   2.347 -1.7382  1.0134  1.8719
 6028TIP3   OH239718   5.119   2.078   1.617 -0.4601  0.1330  0.2062
 6028TIP3    H139719   5.129   2.132   1.539 -1.1010 -1.5142 -1.0642
 6028TIP3    H239720   5.203   2.087   1.663  0.1747  0.6091 -0.9975
 6029TIP3   OH239721   0.436   2.729   7.837 -0.7774  0.4311  0.3594
 6029TIP3    H139722   0.514   2.732   7.782 -3.0478  0.6095 -3.1963
 6029TIP3    H239723   0.440   2.809   7.890  2.4042 -0.6436  2.0206
 6030TIP3   OH239724   5.218   1.588   0.248 -0.1919 -0.3310 -0.2428
 6030TIP3    H139725   5.254   1.500   0.248  1.4794  0.2938 -1.4529
 6030TIP3    H239726   5.226   1.617   0.157  2.1996  2.1365  0.6012
 6031TIP3   OH239727   5.677   2.738   2.065 -0.7024  0.1928  0.1451
 6031TIP3    H139728   5.719   2.776   2.143 -1.9173  1.4206  0.2520
 6031TIP3    H239729   5.584   2.755   2.078 -1.1069 -1.1976 -0.7484
 6032TIP3   OH239730   3.054   0.070   2.641 -0.0995  0.2349 -0.7294
 6032TIP3    H139731   3.012  -0.003   2.595  0.8709  0.7174 -2.4546
 6032TIP3    H239732   3.133   0.031   2.680 -1.4305 -0.4074  1.5296
 6033TIP3   OH239733   6.273   1.068   1.525  0.0011  0.5497 -0.5025
 6033TIP3    H139734   6.259   0.975   1.542  0.7381  0.2853 -1.2293
 6033TIP3    H239735   6.367   1.074   1.504 -0.5034  1.0191 -2.9307
 6034TIP3   OH239736   6.205   0.639   8.135  0.5485 -0.5716 -0.7456
 6034TIP3    H139737   6.293   0.620   8.103  0.6240 -1.2352 -0.1762
 6034TIP3    H239738   6.173   0.555   8.168  0.4377  0.0505  0.8075
 6035TIP3   OH239739   4.489   5.724   0.595 -0.7867  0.2532  0.1724
 6035TIP3    H139740   4.409   5.768   0.567  0.5959  1.9814 -1.3248
 6035TIP3    H239741   4.470   5.694   0.684 -2.5072  2.1261  0.5120
 6036TIP3   OH239742   2.930   5.671   1.105 -0.0903  0.7052  0.1726
 6036TIP3    H139743   2.917   5.688   1.011 -1.1724 -0.3058  0.1271
 6036TIP3    H239744   2.930   5.575   1.112 -0.2105  0.7796  1.2411
 6037TIP3   OH239745   6.281   6.376   8.164 -0.2568 -0.0339  0.7086
 6037TIP3    H139746   6.277   6.388   8.069  0.5255 -0.0210  0.6720
 6037TIP3    H239747   6.374   6.364   8.183 -0.5639 -1.7180  1.2840
 6038TIP3   OH239748   3.315   1.151   8.018  0.1069 -0.3673 -0.0297
 6038TIP3    H139749   3.223   1.125   8.006  0.2450 -0.0525 -1.9982
 6038TIP3    H239750   3.322   1.170   8.111 -1.7456 -0.7051  0.2172
 6039TIP3   OH239751   6.449   4.275   0.627  0.1699  0.3911  0.9089
 6039TIP3    H139752   6.533   4.292   0.670  0.3206 -0.5917  1.0356
 6039TIP3    H239753   6.413   4.199   0.673  1.0267 -1.6479 -1.5526
 6040TIP3   OH239754   6.645   4.750   1.801  0.0572 -0.1712  0.0458
 6040TIP3    H139755   6.738   4.772   1.800 -0.4418  2.2629 -1.8412
 6040TIP3    H239756   6.600   4.835   1.802 -2.1382 -1.2423 -0.7868
 6041TIP3   OH239757   1.308   2.792   7.093 -0.6611  0.1279 -0.7273
 6041TIP3    H139758   1.281   2.884   7.094  0.8411  0.5944 -0.8197
 6041TIP3    H239759   1.404   2.795   7.088 -0.4252 -1.4289  1.5557
 6042TIP3   OH239760   5.431   6.874   2.248 -0.0380 -0.1613  0.1564
 6042TIP3    H139761   5.458   6.819   2.175  0.8738 -0.5351  0.7607
 6042TIP3    H239762   5.343   6.842   2.270 -0.3431 -0.0012 -0.8039
 6043TIP3   OH239763   5.496   4.733   7.706  0.2571 -0.0947 -0.1374
 6043TIP3    H139764   5.438   4.734   7.630  1.7951 -1.1455 -1.3931
 6043TIP3    H239765   5.510   4.826   7.726 -1.7899  0.1817  0.1984
 6044TIP3   OH239766   5.491   2.754   0.786  0.2309 -0.1429  0.3716
 6044TIP3    H139767   5.489   2.819   0.716  1.6039 -1.4012 -0.9151
 6044TIP3    H239768   5.579   2.761   0.824  0.6376 -1.6436 -0.2260
 6045TIP3   OH239769   3.879   5.024   0.912  0.3389  0.0742 -0.4417
 6045TIP3    H139770   3.862   5.092   0.847  0.6487  0.3337 -0.2597
 6045TIP3    H239771   3.825   5.048   0.987  0.5330  0.1822 -0.3361
 6046TIP3   OH239772   0.634   4.984   6.650 -0.8468  0.8116  0.1821
 6046TIP3    H139773   0.573   4.926   6.696 -1.2818  0.6331 -0.5972
 6046TIP3    H239774   0.592   5.069   6.649 -0.9503  0.7596 -0.0862
 6047TIP3   OH239775   2.455   3.709   0.222  0.4384 -0.3224  0.4822
 6047TIP3    H139776   2.390   3.726   0.154 -0.8705  0.1522  1.7894
 6047TIP3    H239777   2.513   3.785   0.219 -1.0950  0.9421  1.5025
 6048TIP3   OH239778   6.923   3.032   0.141 -0.0931 -0.5457 -0.7805
 6048TIP3    H139779   7.018   3.041   0.147 -0.0686 -1.2202  0.0683
 6048TIP3    H239780   6.910   2.943   0.107 -0.4190 -0.5826 -0.5644
 6049TIP3   OH239781   5.309   1.510   2.969 -0.0133  0.1419 -0.3182
 6049TIP3    H139782   5.287   1.601   2.949 -0.4040  0.0252 -0.4413
 6049TIP3    H239783   5.398   1.498   2.937  0.0459  0.4867 -0.2818
 6050TIP3   OH239784   4.157   2.495   2.070 -0.3366 -0.5773 -0.6340
 6050TIP3    H139785   4.180   2.523   1.981 -0.4465 -0.9880 -0.7925
 6050TIP3    H239786   4.064   2.517   2.079  0.0143  0.7917 -0.1044
 6051TIP3   OH239787   2.560   6.518   7.675  0.0506  0.5998 -0.0776
 6051TIP3    H139788   2.529   6.535   7.586 -0.1402  2.7975  0.3483
 6051TIP3    H239789   2.650   6.551   7.675 -0.7823  3.1915  1.1730
 6052TIP3   OH239790   2.193   3.243   0.193  0.5108  0.2783  0.6524
 6052TIP3    H139791   2.235   3.172   0.242 -0.6035 -0.9800 -0.1615
 6052TIP3    H239792   2.156   3.200   0.116 -0.1922  1.7552  0.1393
 6053TIP3   OH239793   2.787   5.161   0.950 -0.0972 -0.5285 -0.3209
 6053TIP3    H139794   2.813   5.089   0.892 -0.3851 -0.5164 -0.4692
 6053TIP3    H239795   2.696   5.180   0.925 -0.2179 -0.5130  0.1268
 6054TIP3   OH239796   2.718   1.433   6.720  0.0067  0.1899 -0.0516
 6054TIP3    H139797   2.806   1.414   6.752  0.4685 -0.0319 -1.3937
 6054TIP3    H239798   2.730   1.506   6.659 -0.1928 -1.8151 -2.6803
 6055TIP3   OH239799   0.765   3.803   1.340 -0.1594 -0.4425 -0.0699
 6055TIP3    H139800   0.706   3.877   1.359  0.8911  0.4936 -0.3155
 6055TIP3    H239801   0.841   3.818   1.396  0.6855 -0.5382 -1.1628
 6056TIP3   OH239802   0.184   5.896   1.861 -0.6787  0.1463  0.7464
 6056TIP3    H139803   0.212   5.976   1.906 -1.8048  1.3729 -0.6163
 6056TIP3    H239804   0.256   5.835   1.874  0.6566  1.7003  1.0083
 6057TIP3   OH239805   4.758   2.017   2.444 -0.3739 -0.6132 -0.3361
 6057TIP3    H139806   4.788   2.002   2.533  0.2338 -2.1974 -0.7843
 6057TIP3    H239807   4.777   1.935   2.398  1.8330  1.0142 -2.6069
 6058TIP3   OH239808   5.332   0.746   2.545 -0.2274 -0.6250  0.1675
 6058TIP3    H139809   5.251   0.787   2.575  0.4547 -0.4837  1.9847
 6058TIP3    H239810   5.317   0.652   2.557  0.0729 -0.5638  1.0929
 6059TIP3   OH239811   3.934   3.574   8.283  0.1887  0.2641 -0.0585
 6059TIP3    H139812   3.913   3.481   8.294 -0.5683  0.3158 -0.9632
 6059TIP3    H239813   3.983   3.578   8.201  0.6840  0.6041  0.2467
 6060TIP3   OH239814   0.093   0.133   2.297 -0.1084 -0.0851 -0.7094
 6060TIP3    H139815   0.149   0.167   2.228 -0.5083 -0.6624 -1.3332
 6060TIP3    H239816   0.099   0.038   2.289 -0.8279 -0.1559 -0.5124
 6061TIP3   OH239817   5.428   5.327   7.652  0.3527  0.2245  0.4853
 6061TIP3    H139818   5.521   5.307   7.663  0.7310  1.9092  0.6134
 6061TIP3    H239819   5.393   5.251   7.606  1.8279 -0.3830  0.2929
 6062TIP3   OH239820   3.550   6.517   1.810 -0.2818  0.3078  0.0889
 6062TIP3    H139821   3.565   6.610   1.794 -1.1008  0.2493 -1.1198
 6062TIP3    H239822   3.503   6.514   1.893 -1.8777  1.1222 -0.7457
 6063TIP3   OH239823   0.660   5.241   7.525 -0.1125  0.0910 -0.1643
 6063TIP3    H139824   0.703   5.159   7.549 -0.5237 -0.1658 -0.2927
 6063TIP3    H239825   0.698   5.264   7.440  1.3025  0.9695  0.6585
 6064TIP3   OH239826   5.507   6.412   1.286 -0.0442  0.5616  0.1975
 6064TIP3    H139827   5.422   6.429   1.244  0.0976  0.3626 -0.1713
 6064TIP3    H239828   5.566   6.478   1.250 -0.0349  0.6916  0.4445
 6065TIP3   OH239829   5.940   1.699   2.762  0.0837 -0.0533 -0.7134
 6065TIP3    H139830   5.932   1.722   2.855  0.3933 -2.2016 -0.1030
 6065TIP3    H239831   5.852   1.713   2.727 -0.6313 -1.2914  0.4590
 6066TIP3   OH239832   6.181   0.392   1.474 -0.3862 -0.7214 -0.0578
 6066TIP3    H139833   6.099   0.409   1.521 -1.6320 -1.5981 -1.8125
 6066TIP3    H239834   6.215   0.480   1.453 -1.5981 -0.3294 -0.4747
 6067TIP3   OH239835   1.399   4.885   6.821 -0.0532 -0.1830 -0.2071
 6067TIP3    H139836   1.450   4.943   6.877 -0.2813  0.7312 -0.9377
 6067TIP3    H239837   1.464   4.826   6.782  0.6238  1.5318 -1.8174
 6068TIP3   OH239838   4.053   0.141   7.394  0.3987  0.9139 -0.6723
 6068TIP3    H139839   4.004   0.188   7.461 -2.7778 -0.7632 -1.6209
 6068TIP3    H239840   4.085   0.063   7.438 -2.9355 -0.9463 -1.1916
 6069TIP3   OH239841   6.302   1.824   0.641 -0.4397  0.5635  0.0581
 6069TIP3    H139842   6.215   1.820   0.682 -0.5416 -1.8653 -0.2350
 6069TIP3    H239843   6.308   1.743   0.589  2.4217  0.0219  1.0245
 6070TIP3   OH239844   0.366   2.685   2.300  0.6150  0.2920 -0.0328
 6070TIP3    H139845   0.412   2.755   2.253 -1.0162  1.9053  0.6337
 6070TIP3    H239846   0.291   2.729   2.339  1.0773 -1.2768  2.8398
 6071TIP3   OH239847   6.630   1.082   7.808 -0.3051  0.0541  0.2336
 6071TIP3    H139848   6.616   1.005   7.753  1.2241 -0.7526  0.9237
 6071TIP3    H239849   6.655   1.151   7.746  0.9239 -0.7179 -0.1563
 6072TIP3   OH239850   2.866   2.147   2.827  0.2747  0.5685  0.3210
 6072TIP3    H139851   2.898   2.063   2.794  0.7079 -0.0854  2.2673
 6072TIP3    H239852   2.945   2.196   2.847  0.0675  0.3123  1.8534
 6073TIP3   OH239853   3.410   5.839   8.581  0.5313  0.6164 -0.2329
 6073TIP3    H139854   3.396   5.934   8.583 -0.9708  0.4381 -0.9941
 6073TIP3    H239855   3.431   5.820   8.489 -0.2691  0.0895 -0.3202
 6074TIP3   OH239856   4.897   2.451   8.030  0.0504  0.5970  0.1642
 6074TIP3    H139857   4.908   2.407   7.945  0.5712  1.4997 -0.2579
 6074TIP3    H239858   4.814   2.418   8.063 -0.0797  0.0924 -0.6203
 6075TIP3   OH239859   1.396   3.520   1.265  0.2305  0.0876  0.3890
 6075TIP3    H139860   1.310   3.480   1.250 -0.1071  1.5907 -2.1718
 6075TIP3    H239861   1.392   3.552   1.355 -2.1375  0.6782  0.1343
 6076TIP3   OH239862   3.920   6.473   0.560 -0.3423 -0.1996 -0.2916
 6076TIP3    H139863   3.938   6.381   0.540 -1.7479 -0.3367 -1.1024
 6076TIP3    H239864   3.949   6.485   0.651  1.6193 -0.9115 -0.7850
 6077TIP3   OH239865   6.305   4.575   1.945  0.0223  0.1038  0.1468
 6077TIP3    H139866   6.277   4.646   2.002 -0.7516  0.3851 -0.5554
 6077TIP3    H239867   6.239   4.507   1.956  0.4789 -0.3010  0.4280
 6078TIP3   OH239868   5.361   5.214   7.951  0.0993 -0.1065  0.4271
 6078TIP3    H139869   5.390   5.138   8.001  0.2352 -0.1608  0.2665
 6078TIP3    H239870   5.279   5.241   7.994 -0.6255 -1.1063 -0.2750
 6079TIP3   OH239871   3.149   4.901   2.848 -0.5067 -0.0245  0.5831
 6079TIP3    H139872   3.076   4.869   2.900 -0.7130  1.5931  1.3674
 6079TIP3    H239873   3.118   4.985   2.813  0.6554  0.2612  0.1956
 6080TIP3   OH239874   2.819   5.154   2.320  0.0976 -0.0837 -0.8874
 6080TIP3    H139875   2.808   5.165   2.415  0.9292 -0.2491 -0.7630
 6080TIP3    H239876   2.902   5.107   2.311 -0.0905 -0.2796 -1.6937
 6081TIP3   OH239877   1.770   2.894   8.112 -0.2030  0.0385 -0.0040
 6081TIP3    H139878   1.741   2.890   8.021 -0.4549 -0.4778  0.0937
 6081TIP3    H239879   1.778   2.987   8.131  0.2968  0.1447 -0.6942
 6082TIP3   OH239880   1.496   1.944   8.508  0.3836  0.4095  0.7070
 6082TIP3    H139881   1.572   1.928   8.563  0.5264 -0.8926  0.1582
 6082TIP3    H239882   1.478   2.038   8.518  0.7084  0.2976  2.5453
 6083TIP3   OH239883   1.842   6.082   1.047 -0.0892 -0.2000 -0.2886
 6083TIP3    H139884   1.896   6.161   1.040 -1.8149  0.9920 -0.8971
 6083TIP3    H239885   1.823   6.074   1.140  0.8358 -0.4251 -0.1138
 6084TIP3   OH239886   5.486   3.032   1.994  0.0938 -0.3786  0.3675
 6084TIP3    H139887   5.582   3.036   1.996  0.0552  1.5175  0.4098
 6084TIP3    H239888   5.463   3.059   1.905 -0.4073 -1.4910  0.1421
 6085TIP3   OH239889   1.486   2.957   7.937  0.8012 -0.0940  0.0802
 6085TIP3    H139890   1.492   3.012   8.015  0.6824 -0.9755  0.7238
 6085TIP3    H239891   1.406   2.987   7.893  1.4187  1.0929 -0.2449
 6086TIP3   OH239892   6.405   1.458   2.691  0.4248  0.5251  0.3225
 6086TIP3    H139893   6.317   1.494   2.682 -0.2840 -0.9469  1.0467
 6086TIP3    H239894   6.407   1.385   2.630 -0.1062 -1.6289  2.7217
 6087TIP3   OH239895   3.337   0.883   7.343  0.0843 -0.3716 -0.1423
 6087TIP3    H139896   3.284   0.957   7.375 -0.7033 -0.5734 -0.9390
 6087TIP3    H239897   3.417   0.924   7.310 -0.6746  0.2391 -1.3137
 6088TIP3   OH239898   3.975   4.293   1.455  0.5049  0.0332 -0.4608
 6088TIP3    H139899   4.017   4.276   1.539 -0.6295 -1.2539 -0.1034
 6088TIP3    H239900   4.021   4.368   1.419  0.4347  1.1824  1.7146
 6089TIP3   OH239901   1.615   3.214   0.057  0.0142 -0.8234  0.5484
 6089TIP3    H139902   1.690   3.224   0.116 -1.2726  2.3155  1.8200
 6089TIP3    H239903   1.654   3.207  -0.030  1.8101  1.0853  1.1366
 6090TIP3   OH239904   4.040   1.815   6.880 -0.2876 -0.5822  0.1302
 6090TIP3    H139905   3.984   1.742   6.907 -1.9978 -0.4168 -2.5733
 6090TIP3    H239906   4.123   1.773   6.854  0.0597 -1.0988  1.9569
 6091TIP3   OH239907   6.516   6.292   8.280 -0.3270  0.1854 -0.1247
 6091TIP3    H139908   6.476   6.304   8.366 -0.7421 -0.6225 -0.1899
 6091TIP3    H239909   6.553   6.377   8.258  0.3442  0.2367  1.1255
 6092TIP3   OH239910   3.055   1.306   7.785 -0.0683  0.3968  0.4851
 6092TIP3    H139911   2.986   1.348   7.835  0.4615 -0.1982  1.7847
 6092TIP3    H239912   3.070   1.223   7.831  2.5730  1.1950  1.2321
 6093TIP3   OH239913   6.837   3.157   0.997 -0.3385  0.2987  0.5394
 6093TIP3    H139914   6.837   3.125   1.088 -1.7421  1.1509  0.8727
 6093TIP3    H239915   6.884   3.090   0.948 -1.1369 -1.0937  1.6023
 6094TIP3   OH239916   3.753   5.444   7.352  0.1413  0.2859  0.2356
 6094TIP3    H139917   3.694   5.393   7.297  0.3698  0.5501 -0.2674
 6094TIP3    H239918   3.837   5.398   7.347  0.2717  0.5416  0.0171
 6095TIP3   OH239919   4.255   4.279   2.786  0.0862 -0.2635 -0.5707
 6095TIP3    H139920   4.249   4.357   2.731  1.8319  0.6779  0.4609
 6095TIP3    H239921   4.289   4.211   2.728  0.2222  0.2324 -1.0858
 6096TIP3   OH239922   3.180   2.052   7.797  0.0948  0.4138 -0.2952
 6096TIP3    H139923   3.103   2.090   7.839  0.0830  1.4268 -1.1807
 6096TIP3    H239924   3.195   2.107   7.720  2.9521  1.6015  0.9633
 6097TIP3   OH239925   4.025   1.305   2.214 -0.3562  0.2615 -0.0995
 6097TIP3    H139926   3.990   1.276   2.130 -0.2491 -1.2255  0.3373
 6097TIP3    H239927   4.100   1.360   2.190 -0.5015  0.1036 -0.9788
 6098TIP3   OH239928   3.728   3.327   7.445  0.3102 -0.1626  0.2145
 6098TIP3    H139929   3.720   3.421   7.460  1.5228 -0.0599  0.3503
 6098TIP3    H239930   3.819   3.315   7.419 -0.4519 -0.9873 -2.2881
 6099TIP3   OH239931   6.619   2.935   7.046  0.6637  0.5649  0.3524
 6099TIP3    H139932   6.593   3.009   6.991  0.1131  0.0183 -0.1332
 6099TIP3    H239933   6.583   2.858   7.002  0.0182  0.1300  1.6030
 6100TIP3   OH239934   3.210   0.271   0.957 -0.1389  0.2982  0.0414
 6100TIP3    H139935   3.166   0.187   0.966  0.8124 -0.3137 -0.7097
 6100TIP3    H239936   3.268   0.276   1.033  0.3789 -0.1061 -0.3157
 6101TIP3   OH239937   3.269   3.010   1.657  0.8397  0.1199 -0.0879
 6101TIP3    H139938   3.334   2.964   1.710 -0.1038 -0.3803  0.6615
 6101TIP3    H239939   3.223   2.941   1.610 -0.5089  0.2832  0.9539
 6102TIP3   OH239940   6.300   6.817   7.423 -0.1939  0.1863 -0.3839
 6102TIP3    H139941   6.205   6.810   7.413 -0.0685 -1.0028 -1.0038
 6102TIP3    H239942   6.322   6.748   7.485  0.1375  1.2945  0.7502
 6103TIP3   OH239943   3.636   1.583   0.503  0.0525  0.4686 -0.8331
 6103TIP3    H139944   3.724   1.547   0.510  0.2028  1.0968  2.6221
 6103TIP3    H239945   3.594   1.559   0.586 -2.0901  2.4916 -1.2286
 6104TIP3   OH239946   0.102   6.605   1.380 -0.0897 -0.4054  0.0554
 6104TIP3    H139947   0.007   6.617   1.373  0.0560  0.0681 -1.6479
 6104TIP3    H239948   0.112   6.521   1.424 -1.2874 -0.2380  0.7045
 6105TIP3   OH239949   1.499   5.705   1.245 -0.3538 -0.3549 -0.1086
 6105TIP3    H139950   1.533   5.794   1.255 -0.6569 -0.3060  0.5238
 6105TIP3    H239951   1.457   5.706   1.159  1.3212 -0.4619 -0.9552
 6106TIP3   OH239952   1.670   1.375   2.864  0.0897 -0.1673 -0.1325
 6106TIP3    H139953   1.681   1.341   2.952  3.5758  1.0462  0.0324
 6106TIP3    H239954   1.742   1.337   2.814 -0.0885  1.4425 -1.7195
 6107TIP3   OH239955   0.468   4.915   7.408  0.2608  0.4329 -0.0639
 6107TIP3    H139956   0.561   4.897   7.425  0.1182 -1.4627 -1.0199
 6107TIP3    H239957   0.430   4.927   7.495  1.0426 -0.8070  0.4828
 6108TIP3   OH239958   4.344   2.266   7.190  0.2360 -0.2740 -0.0148
 6108TIP3    H139959   4.361   2.359   7.177  0.4581 -0.1631  0.9898
 6108TIP3    H239960   4.262   2.263   7.239  1.4185 -0.4686  2.0954
 6109TIP3   OH239961   2.664   1.264   2.061  0.4621 -0.6965  0.5656
 6109TIP3    H139962   2.693   1.313   1.985 -1.7179  2.6166  1.6300
 6109TIP3    H239963   2.691   1.318   2.136 -0.4239 -2.1013  1.9558
 6110TIP3   OH239964   2.357   2.071   0.712  0.2321  0.4870  0.8564
 6110TIP3    H139965   2.304   2.090   0.790 -0.2586 -0.7530  0.8550
 6110TIP3    H239966   2.444   2.102   0.734  0.8684 -2.4399  3.1470
 6111TIP3   OH239967   0.471   3.040   6.460 -0.5746  0.0681 -0.0144
 6111TIP3    H139968   0.402   2.997   6.409 -1.4118 -0.4064  1.4634
 6111TIP3    H239969   0.466   3.000   6.547  1.5458  0.0633  0.1579
 6112TIP3   OH239970   1.392   3.801   1.270  0.0876  0.5826  0.4975
 6112TIP3    H139971   1.309   3.816   1.314 -0.3168  0.0118 -0.0611
 6112TIP3    H239972   1.386   3.712   1.237  0.0938  1.2238 -1.3242
 6113TIP3   OH239973   0.392   2.071   0.333  0.0912 -0.2970 -0.6333
 6113TIP3    H139974   0.335   2.013   0.384 -1.6322  1.9919  0.1923
 6113TIP3    H239975   0.357   2.066   0.244 -0.5135  0.0455 -0.4147
 6114TIP3   OH239976   2.135   0.899   1.361  0.1740 -0.6257 -0.1539
 6114TIP3    H139977   2.074   0.886   1.434  0.4225 -0.3849  0.0938
 6114TIP3    H239978   2.188   0.819   1.359 -0.4583 -1.0569 -0.6747
 6115TIP3   OH239979   6.844   6.660   1.144 -0.6947  0.6747 -0.0846
 6115TIP3    H139980   6.855   6.596   1.074 -0.0206  0.7200 -0.0249
 6115TIP3    H239981   6.898   6.735   1.118  1.1682 -0.0654  1.3852
 6116TIP3   OH239982   6.478   3.259   7.014  0.7536 -0.3328 -0.3113
 6116TIP3    H139983   6.412   3.286   6.950  0.4178 -0.9919 -0.2582
 6116TIP3    H239984   6.561   3.262   6.966  0.7717  0.9675 -0.2490
 6117TIP3   OH239985   1.408   6.190   7.819 -0.1383 -0.3067 -0.2279
 6117TIP3    H139986   1.483   6.245   7.840  1.6917 -1.9827 -2.0081
 6117TIP3    H239987   1.406   6.124   7.888  0.7469 -0.9141 -0.7691
 6118TIP3   OH239988   0.901   4.550   0.019 -0.3207  0.1645 -0.0605
 6118TIP3    H139989   0.888   4.550   0.114  3.0605 -0.0324  0.5221
 6118TIP3    H239990   0.903   4.457  -0.004 -0.6872  0.2064 -0.2682
 6119TIP3   OH239991   2.981   0.055   8.260  0.3793 -0.5246  0.0461
 6119TIP3    H139992   2.946   0.039   8.173  1.3977 -2.0337 -0.1187
 6119TIP3    H239993   2.983  -0.031   8.301  2.8387 -0.3496  0.4245
 6120TIP3   OH239994   3.350   1.745   0.404 -0.2091  0.1328 -0.2225
 6120TIP3    H139995   3.442   1.719   0.398 -0.6010 -1.3327 -0.4146
 6120TIP3    H239996   3.338   1.806   0.332  0.2322 -0.9241 -1.2173
 6121TIP3   OH239997   5.128   6.631   0.475  0.1377  0.9758 -0.2009
 6121TIP3    H139998   5.190   6.672   0.535 -0.2630  2.3043 -0.6721
 6121TIP3    H239999   5.164   6.543   0.460  2.6032  2.1205 -1.4697
 6122TIP3   OH240000   1.043   5.211   8.321  0.1384  0.1696  0.3071
 6122TIP3    H140001   1.033   5.159   8.241  0.7817 -1.1788  1.0820
 6122TIP3    H240002   1.038   5.302   8.291 -0.8897 -0.3115 -1.0950
 6123TIP3   OH240003   0.207   0.516   7.662 -0.3174 -0.0420  0.0088
 6123TIP3    H140004   0.152   0.510   7.740 -1.7136  0.4210 -0.9146
 6123TIP3    H240005   0.155   0.476   7.592  0.2295  0.9958 -1.0290
 6124TIP3   OH240006   1.837   2.529   0.129 -0.2214  0.6046 -0.2490
 6124TIP3    H140007   1.906   2.509   0.065 -0.7109 -1.5572 -0.1519
 6124TIP3    H240008   1.859   2.477   0.206 -2.0211 -0.2474 -0.2653
 6125TIP3   OH240009   6.850   6.083   1.161 -0.0369  0.0044  0.7818
 6125TIP3    H140010   6.865   6.167   1.204  1.4815  0.0231  0.2753
 6125TIP3    H240011   6.937   6.054   1.134 -0.7240 -0.9308 -0.5402
 6126TIP3   OH240012   0.742   3.813   2.031  0.0975  0.0111  0.6463
 6126TIP3    H140013   0.774   3.781   2.116 -0.0276  0.0588  0.7109
 6126TIP3    H240014   0.820   3.849   1.989 -0.2418  2.3090  1.7798
 6127TIP3   OH240015   0.118   6.526   0.396 -0.2178  0.3500 -0.0774
 6127TIP3    H140016   0.208   6.531   0.366 -1.1769  0.5883 -3.2727
 6127TIP3    H240017   0.090   6.617   0.406  0.2481  0.2841  2.3555
 6128TIP3   OH240018   6.033   3.391   0.896  0.1687  0.3188 -0.0660
 6128TIP3    H140019   6.027   3.413   0.804 -2.5800 -0.7798 -0.2601
 6128TIP3    H240020   5.943   3.399   0.929  0.7436 -1.0265  2.0773
 6129TIP3   OH240021   1.788   3.658   7.192 -0.7921 -0.2572 -0.3759
 6129TIP3    H140022   1.792   3.615   7.278  2.6521 -0.0945 -0.3510
 6129TIP3    H240023   1.856   3.616   7.140 -2.2388  0.2238 -2.8205
 6130TIP3   OH240024   2.325   1.567   1.274  0.2449  0.0618  0.1342
 6130TIP3    H140025   2.251   1.509   1.288  1.4825 -1.6825 -0.2169
 6130TIP3    H240026   2.290   1.655   1.288 -1.1002 -0.8541  3.3849
 6131TIP3   OH240027   3.137   0.456   8.552  0.8492  0.0502 -0.2014
 6131TIP3    H140028   3.223   0.433   8.589  1.0251  0.3621 -0.4056
 6131TIP3    H240029   3.154   0.535   8.500  0.6557 -0.5117 -1.1473
 6132TIP3   OH240030   6.840   0.460   7.008  0.0802  0.1199 -0.1701
 6132TIP3    H140031   6.864   0.369   7.025  0.3911  0.3691  0.8117
 6132TIP3    H240032   6.752   0.469   7.046  0.9071  0.7678  1.7015
 6133TIP3   OH240033   6.099   5.655   1.916 -0.1804 -0.1631  0.2874
 6133TIP3    H140034   6.091   5.736   1.967 -0.0172 -0.8583  1.4681
 6133TIP3    H240035   6.063   5.587   1.974 -0.7899 -0.8712 -0.8772
 6134TIP3   OH240036   1.691   4.185   7.585  0.2334 -0.2837 -0.2349
 6134TIP3    H140037   1.738   4.165   7.504 -1.4769 -0.9186 -1.1193
 6134TIP3    H240038   1.702   4.279   7.597  0.7816 -0.2339 -1.0236
 6135TIP3   OH240039   0.539   0.705   2.198 -0.3474 -0.5081 -0.0099
 6135TIP3    H140040   0.628   0.709   2.232  0.0641 -0.5845 -1.0434
 6135TIP3    H240041   0.517   0.612   2.200 -0.5311 -0.4573  0.5409
 6136TIP3   OH240042   5.511   5.511   7.865  0.1422 -0.3942 -0.3272
 6136TIP3    H140043   5.498   5.545   7.776  0.8419  1.1785  0.1380
 6136TIP3    H240044   5.600   5.479   7.865  0.5455  0.6745  0.1062
 6137TIP3   OH240045   5.761   2.099   6.486 -0.0771 -0.4716 -0.3371
 6137TIP3    H140046   5.788   2.141   6.405 -0.5482  1.9452  0.6829
 6137TIP3    H240047   5.669   2.076   6.472 -0.1257 -0.1612 -0.5393
 6138TIP3   OH240048   3.732   5.579   3.233  0.5771 -0.1085 -0.2634
 6138TIP3    H140049   3.748   5.613   3.145 -0.4424 -0.0433 -0.4367
 6138TIP3    H240050   3.637   5.568   3.237  0.5753  0.2237  0.9480
 6139TIP3   OH240051   1.490   0.777   3.409  0.4305  0.4478  0.2499
 6139TIP3    H140052   1.461   0.856   3.455 -2.5643 -0.1515 -0.4185
 6139TIP3    H240053   1.579   0.797   3.381  0.1128  3.2204  0.9387
 6140TIP3   OH240054   0.069   5.987   0.042 -0.2977 -0.4014 -0.2050
 6140TIP3    H140055   0.076   6.070  -0.005  2.8580 -1.3474 -1.7256
 6140TIP3    H240056   0.079   6.010   0.134  1.0211  0.9214 -0.6303
 6141TIP3   OH240057   0.010   4.309   7.000 -0.2291 -0.4921  0.3309
 6141TIP3    H140058   0.075   4.372   7.031 -0.3252  0.4774 -1.3095
 6141TIP3    H240059   0.055   4.224   7.003  0.1394 -0.2677  1.8727
 6142TIP3   OH240060   3.319   4.547   2.846  0.2777  0.4050  0.6909
 6142TIP3    H140061   3.367   4.465   2.831 -0.5181 -0.4153  2.3980
 6142TIP3    H240062   3.306   4.550   2.940  0.0503  2.3969  0.6263
 6143TIP3   OH240063   1.744   0.197   1.589 -0.0799 -0.5684 -0.0059
 6143TIP3    H140064   1.788   0.112   1.593 -0.2068 -0.6256  0.1933
 6143TIP3    H240065   1.814   0.261   1.595 -0.1386 -0.6335  2.4246
 6144TIP3   OH240066   5.725   4.166   2.888  0.1871 -0.7441  0.2562
 6144TIP3    H140067   5.805   4.206   2.923 -0.4062  0.2473  0.5041
 6144TIP3    H240068   5.753   4.124   2.806  0.6742  0.8855 -0.4451
 6145TIP3   OH240069   3.702   1.906   1.632  0.5159 -0.0131  0.4617
 6145TIP3    H140070   3.645   1.982   1.645 -2.1247 -1.8546  0.4837
 6145TIP3    H240071   3.665   1.839   1.688  1.1922 -2.0795 -1.4318
 6146TIP3   OH240072   3.303   4.647   7.749 -0.3373  0.0995  0.1625
 6146TIP3    H140073   3.244   4.588   7.702 -0.4066  0.5090 -0.2850
 6146TIP3    H240074   3.388   4.634   7.707 -0.3830  0.4144 -0.0309
 6147TIP3   OH240075   4.363   2.826   1.837 -0.3915  0.3199 -0.7702
 6147TIP3    H140076   4.416   2.901   1.810 -0.4861  1.0624  0.9244
 6147TIP3    H240077   4.294   2.864   1.892 -1.1566 -0.8924 -0.8482
 6148TIP3   OH240078   3.087   4.936   8.426  0.7110 -0.0540 -0.1125
 6148TIP3    H140079   3.023   4.989   8.379  1.1112  0.5288 -0.0149
 6148TIP3    H240080   3.163   4.994   8.436  1.1630 -0.6552 -0.0237
 6149TIP3   OH240081   6.625   6.297   0.370 -0.1316 -0.4467  0.1312
 6149TIP3    H140082   6.653   6.312   0.461  1.7340  1.1316 -0.6280
 6149TIP3    H240083   6.707   6.299   0.320 -1.3574  1.5698 -1.9350
 6150TIP3   OH240084   4.148   2.373   6.408  0.4148 -0.0452  0.5782
 6150TIP3    H140085   4.169   2.280   6.418  0.4891  0.1918  3.4757
 6150TIP3    H240086   4.215   2.419   6.458  0.7885  1.6797 -1.3573
 6151TIP3   OH240087   5.405   6.419   8.193 -0.2750 -0.1526 -0.2393
 6151TIP3    H140088   5.363   6.449   8.273 -0.0578 -1.2793  0.3234
 6151TIP3    H240089   5.388   6.325   8.190  1.2981 -0.4676 -0.5338
 6152TIP3   OH240090   4.346   2.169   2.754  0.2681  0.0817 -0.2385
 6152TIP3    H140091   4.265   2.118   2.743 -0.8530  1.5289  0.7496
 6152TIP3    H240092   4.329   2.223   2.831  2.5236 -0.1408  0.4743
 6153TIP3   OH240093   1.680   1.694   7.077  0.8253  0.5874 -0.1400
 6153TIP3    H140094   1.707   1.672   7.166  1.3281  0.3922 -0.3341
 6153TIP3    H240095   1.608   1.756   7.088  1.8157  1.6916  0.3994
 6154TIP3   OH240096   5.388   2.881   0.331 -0.3491  0.4827 -0.2288
 6154TIP3    H140097   5.390   2.940   0.256 -0.0967  0.8253  0.0437
 6154TIP3    H240098   5.298   2.883   0.362 -1.2276 -1.8772 -2.2530
 6155TIP3   OH240099   3.326   6.292   2.145  0.1624 -0.0351 -0.0333
 6155TIP3    H140100   3.361   6.337   2.222  3.0844 -0.0227 -1.2443
 6155TIP3    H240101   3.390   6.223   2.127 -0.9188 -0.6082 -1.9502
 6156TIP3   OH240102   0.360   2.159   0.610  0.7494 -0.1765 -0.0071
 6156TIP3    H140103   0.398   2.145   0.523 -0.4978  1.5834 -0.8978
 6156TIP3    H240104   0.399   2.241   0.640  0.1272 -0.0443  0.4602
 6157TIP3   OH240105   0.852   2.724   6.808 -0.3139 -0.0222  0.6600
 6157TIP3    H140106   0.864   2.630   6.798  2.3112  0.4086 -1.1867
 6157TIP3    H240107   0.758   2.737   6.799 -0.5941 -2.3338 -0.4890
 6158TIP3   OH240108   0.485   3.882   7.620  0.0440  0.1259  0.8165
 6158TIP3    H140109   0.483   3.827   7.541 -2.0851  1.1519  0.0700
 6158TIP3    H240110   0.529   3.829   7.686 -0.3768 -1.7803 -0.3699
 6159TIP3   OH240111   5.297   2.227   7.077 -0.3676  0.1546 -0.2623
 6159TIP3    H140112   5.389   2.206   7.097 -0.7320 -0.3548  1.0021
 6159TIP3    H240113   5.288   2.211   6.983  1.3059  2.0110 -0.8092
 6160TIP3   OH240114   2.985   4.088   2.387 -0.1373  0.6374  0.3742
 6160TIP3    H140115   2.907   4.045   2.422  1.8834 -0.5494  3.9950
 6160TIP3    H240116   3.048   4.017   2.374  1.3032  1.8394  0.4627
 6161TIP3   OH240117   0.802   4.891   8.372 -0.0137  0.5599  0.6365
 6161TIP3    H140118   0.875   4.845   8.330  0.2193  1.7157 -0.2857
 6161TIP3    H240119   0.769   4.829   8.437 -1.2396 -1.8906 -2.0835
 6162TIP3   OH240120   4.324   4.581   8.535  0.0361 -0.1963  0.5724
 6162TIP3    H140121   4.368   4.641   8.474  1.3896 -0.6771  1.0330
 6162TIP3    H240122   4.251   4.632   8.570  0.6280  0.8891  0.2850
 6163TIP3   OH240123   0.288   1.545   1.222 -0.2060 -0.6803 -0.0119
 6163TIP3    H140124   0.347   1.616   1.245  0.6133 -1.3768  0.0926
 6163TIP3    H240125   0.203   1.573   1.256  0.3550 -0.3134  1.1745
 6164TIP3   OH240126   0.073   6.503   0.682  0.0166 -0.1221  0.1877
 6164TIP3    H140127   0.119   6.584   0.704 -1.3726  0.6028  0.5679
 6164TIP3    H240128   0.094   6.487   0.590 -0.0943  0.9643 -0.0375
 6165TIP3   OH240129   0.058   0.644   0.004 -0.4698 -0.3508  0.6643
 6165TIP3    H140130   0.075   0.613   0.093 -1.2720  1.5688  1.5179
 6165TIP3    H240131   0.048   0.738   0.012 -1.5230 -0.2372 -1.3181
 6166TIP3   OH240132   1.259   3.494   7.450  0.2681 -0.2778 -0.2480
 6166TIP3    H140133   1.227   3.537   7.371 -0.4299  3.3642  1.8152
 6166TIP3    H240134   1.352   3.477   7.432 -0.6109 -2.9845 -3.0729
 6167TIP3   OH240135   4.724   5.892   1.289 -0.0631 -0.4341 -0.0884
 6167TIP3    H140136   4.733   5.802   1.257 -0.5985 -1.2957  1.9959
 6167TIP3    H240137   4.813   5.926   1.291  0.3115 -1.4263  0.4393
 6168TIP3   OH240138   3.116   0.077   0.721 -0.0430 -0.5370  0.1101
 6168TIP3    H140139   3.204   0.101   0.692  0.1052 -1.1953  0.0020
 6168TIP3    H240140   3.130   0.028   0.802 -0.0503 -3.1623 -1.3366
 6169TIP3   OH240141   1.846   3.732   0.940  0.1628  0.3297 -0.3825
 6169TIP3    H140142   1.785   3.665   0.908  0.2843 -0.0329  0.1346
 6169TIP3    H240143   1.913   3.737   0.872 -0.2123  0.4271 -0.7528
 6170TIP3   OH240144   0.471   1.875   7.749 -0.2238  0.1810 -0.1626
 6170TIP3    H140145   0.453   1.792   7.704 -2.3873  0.8835 -0.7135
 6170TIP3    H240146   0.533   1.921   7.692  0.0942 -0.5612 -0.4283
 6171TIP3   OH240147   6.853   0.458   1.575  0.2380  0.2747 -0.1372
 6171TIP3    H140148   6.777   0.469   1.519  0.7570  2.0882 -0.5500
 6171TIP3    H240149   6.904   0.538   1.562  1.1234  0.0725  1.7726
 6172TIP3   OH240150   2.711   0.787   8.204  0.7603  0.0229 -0.3173
 6172TIP3    H140151   2.799   0.767   8.235  0.5399  1.8218  1.8023
 6172TIP3    H240152   2.720   0.871   8.158 -0.1524  1.9894  2.7270
 6173TIP3   OH240153   5.864   2.105   1.892 -0.3951 -0.0758  0.0695
 6173TIP3    H140154   5.866   2.192   1.933  0.5516 -0.0476 -0.0257
 6173TIP3    H240155   5.790   2.061   1.935 -0.4710  0.5433  0.5946
 6174TIP3   OH240156   5.464   1.947   1.279 -0.5569 -0.3740  0.3085
 6174TIP3    H140157   5.371   1.925   1.283 -0.6359 -0.1176 -0.0484
 6174TIP3    H240158   5.472   2.028   1.329 -0.4501 -0.6198  0.6972
 6175TIP3   OH240159   1.514   2.173   8.236 -0.2578  0.5711 -0.4799
 6175TIP3    H140160   1.454   2.113   8.190 -1.7093  1.1644  0.5627
 6175TIP3    H240161   1.526   2.246   8.175 -0.3098  0.2800 -0.8420
 6176TIP3   OH240162   6.156   1.938   1.581  0.3364 -0.1613 -0.1335
 6176TIP3    H140163   6.209   1.869   1.623  0.2114 -1.7383 -2.4035
 6176TIP3    H240164   6.135   1.903   1.495 -1.1999  2.0609 -0.7412
 6177TIP3   OH240165   2.738   4.723   1.143 -0.0612  0.5269 -0.0103
 6177TIP3    H140166   2.800   4.651   1.158  2.8374  2.8992  0.2976
 6177TIP3    H240167   2.656   4.692   1.183  1.7940 -1.5163  2.5884
 6178TIP3   OH240168   5.008   5.162   2.902  0.1780  0.5998 -0.2493
 6178TIP3    H140169   4.952   5.187   2.975  0.2146 -2.1781  0.8489
 6178TIP3    H240170   5.096   5.159   2.939  0.2962 -0.1509 -0.5763
 6179TIP3   OH240171   3.207   6.600   1.665  0.0571  0.3946 -0.2492
 6179TIP3    H140172   3.132   6.611   1.606  0.7353  1.9316 -0.8907
 6179TIP3    H240173   3.168   6.591   1.752 -0.8774  1.8986 -0.4764
 6180TIP3   OH240174   2.648   1.324   7.693 -0.7356  0.5850  0.1843
 6180TIP3    H140175   2.710   1.395   7.708  0.2765  0.0118 -1.0362
 6180TIP3    H240176   2.660   1.302   7.600 -1.2520 -0.9568  0.4600
 6181TIP3   OH240177   4.163   6.058   0.454 -0.1898  0.6028  0.0773
 6181TIP3    H140178   4.102   6.117   0.499  1.5480  0.0663  3.4666
 6181TIP3    H240179   4.247   6.104   0.459  0.6095 -0.8218 -0.0280
 6182TIP3   OH240180   2.670   0.490   0.306  0.0090  0.2960 -0.3557
 6182TIP3    H140181   2.584   0.466   0.273  1.1776  0.7405 -4.2102
 6182TIP3    H240182   2.722   0.409   0.297  0.6632  0.7548 -0.8726
 6183TIP3   OH240183   5.601   4.970   0.962 -0.2749 -0.0957 -0.1132
 6183TIP3    H140184   5.549   4.923   0.896 -0.9327 -1.5985  1.4006
 6183TIP3    H240185   5.559   4.949   1.045  0.2999  2.0569  0.7969
 6184TIP3   OH240186   3.636   4.651   2.108  0.5552 -0.3359 -0.1989
 6184TIP3    H140187   3.672   4.739   2.100 -1.6450  0.8356  1.6641
 6184TIP3    H240188   3.659   4.623   2.197 -3.1501  0.6523  1.2638
 6185TIP3   OH240189   5.033   4.392   8.381 -0.0907  0.1595 -0.2802
 6185TIP3    H140190   5.097   4.461   8.399  0.1582 -0.2708  0.5300
 6185TIP3    H240191   4.950   4.439   8.371  0.2830  0.6900 -0.9891
 6186TIP3   OH240192   4.426   5.300   2.658 -0.0461 -0.2271  0.5813
 6186TIP3    H140193   4.346   5.250   2.673  0.1262 -0.5709  0.3846
 6186TIP3    H240194   4.453   5.276   2.569 -0.3029  0.7066  0.2393
 6187TIP3   OH240195   4.679   3.355   0.548  0.6123 -0.5796  0.1078
 6187TIP3    H140196   4.772   3.333   0.543  0.9038  0.5640  0.0277
 6187TIP3    H240197   4.677   3.450   0.537 -0.2618 -0.1008  3.2977
 6188TIP3   OH240198   0.565   1.753   8.469 -0.2064  0.2497  0.4855
 6188TIP3    H140199   0.650   1.723   8.436  0.0323  0.9878  0.4216
 6188TIP3    H240200   0.507   1.678   8.454  0.4712 -0.3416  0.7167
 6189TIP3   OH240201   2.800   0.422   2.624 -0.1471 -0.1692 -0.8665
 6189TIP3    H140202   2.732   0.478   2.586 -0.1382 -0.8685 -1.9421
 6189TIP3    H240203   2.879   0.477   2.621 -0.4975  0.3863 -0.2755
 6190TIP3   OH240204   0.359   3.089   1.803  0.5579 -0.2857  0.2740
 6190TIP3    H140205   0.281   3.110   1.751 -0.0924 -0.5577  1.1196
 6190TIP3    H240206   0.418   3.046   1.741 -0.6524 -1.5854 -0.0160
 6191TIP3   OH240207   0.324   5.324   7.018 -0.4635  0.5107  0.1175
 6191TIP3    H140208   0.364   5.252   6.971  0.4510  0.4308  0.9577
 6191TIP3    H240209   0.393   5.353   7.079 -0.6511  2.3465 -0.4747
 6192TIP3   OH240210   5.503   2.258   8.234 -0.3439 -0.0273 -0.0181
 6192TIP3    H140211   5.473   2.315   8.163 -1.1291 -0.0224  0.3089
 6192TIP3    H240212   5.441   2.272   8.305  1.1757  0.9562  1.1831
 6193TIP3   OH240213   2.814   1.602   1.867  0.5785  0.1598  0.6986
 6193TIP3    H140214   2.846   1.519   1.832 -0.9766  0.2962 -1.2491
 6193TIP3    H240215   2.864   1.668   1.820  1.7899  0.3824  2.2200
 6194TIP3   OH240216   4.148   6.783   1.262  0.4058 -0.3437  0.2531
 6194TIP3    H140217   4.061   6.755   1.232 -0.2578  0.7654  1.0488
 6194TIP3    H240218   4.209   6.735   1.206 -0.7358  0.4073 -1.7849
 6195TIP3   OH240219   1.489   2.785   7.351  0.0287  0.2618 -0.5427
 6195TIP3    H140220   1.520   2.815   7.265  0.6390  2.4007  0.3666
 6195TIP3    H240221   1.398   2.813   7.355  0.1125  0.5084 -0.3458
 6196TIP3   OH240222   3.460   0.428   2.428  0.4353  0.3178 -0.3119
 6196TIP3    H140223   3.531   0.390   2.377 -0.4263 -1.3943 -0.3052
 6196TIP3    H240224   3.494   0.513   2.457  2.4525 -0.4361 -0.3233
 6197TIP3   OH240225   1.998   5.334   7.773 -0.1734  0.4463 -0.8933
 6197TIP3    H140226   2.052   5.301   7.845 -1.8498  0.0107  0.2042
 6197TIP3    H240227   2.062   5.366   7.709  1.3779  0.2777  0.4951
 6198TIP3   OH240228   5.796   2.447   8.358 -0.1082 -0.2017 -0.1267
 6198TIP3    H140229   5.719   2.483   8.314  0.0934  1.2874  0.6783
 6198TIP3    H240230   5.868   2.502   8.328  0.8865 -2.1861 -1.6567
 6199TIP3   OH240231   6.599   4.229   1.144  0.4264 -0.2681  0.6675
 6199TIP3    H140232   6.588   4.134   1.147 -1.0596 -0.1800 -0.5787
 6199TIP3    H240233   6.693   4.243   1.135  0.5938 -1.6359  0.1663
 6200TIP3   OH240234   4.077   6.159   2.195 -0.4674 -0.1785  0.4745
 6200TIP3    H140235   4.012   6.103   2.239 -0.3680  0.1718  1.0703
 6200TIP3    H240236   4.028   6.199   2.123 -1.2698  1.0447  1.6472
 6201TIP3   OH240237   5.687   5.666   0.449 -0.1793 -0.0078 -0.5065
 6201TIP3    H140238   5.670   5.755   0.481  0.1596 -0.1461  0.0837
 6201TIP3    H240239   5.730   5.679   0.364  3.0514  0.5284  1.0531
 6202TIP3   OH240240   5.330   5.692   8.021 -0.6365  0.5430  0.1423
 6202TIP3    H140241   5.398   5.649   7.969 -1.3723 -0.2524 -0.1910
 6202TIP3    H240242   5.319   5.777   7.980  0.4004  0.8218  0.4198
 6203TIP3   OH240243   3.343   3.694   1.263  0.0878  0.4923  0.0619
 6203TIP3    H140244   3.363   3.748   1.339  0.9261  1.0300 -0.5190
 6203TIP3    H240245   3.317   3.756   1.195 -0.3224  0.0462 -0.1992
 6204TIP3   OH240246   3.704   3.514   0.992 -0.3560  0.2311 -0.5404
 6204TIP3    H140247   3.641   3.450   0.957  0.6753 -0.2105 -1.6657
 6204TIP3    H240248   3.771   3.460   1.034 -0.8818  0.7115  0.9722
 6205TIP3   OH240249   6.004   6.552   2.662  0.1369 -0.0032 -0.3938
 6205TIP3    H140250   6.084   6.545   2.610 -0.0624  1.2818 -0.9145
 6205TIP3    H240251   6.018   6.629   2.717 -0.9361  0.5489 -0.8661
 6206TIP3   OH240252   3.034   4.032   7.869 -0.1708 -0.2179 -0.2071
 6206TIP3    H140253   3.109   4.091   7.867 -0.0396 -0.3588  0.3908
 6206TIP3    H240254   3.007   4.025   7.777  0.3813  0.0416 -0.3960
 6207TIP3   OH240255   2.201   6.613   2.369 -0.1198  0.1204  0.8639
 6207TIP3    H140256   2.105   6.608   2.360 -0.2075 -0.7598  2.0224
 6207TIP3    H240257   2.215   6.681   2.434  0.0724  0.5120  0.4183
 6208TIP3   OH240258   6.783   4.743   8.326  0.1667 -0.0416  0.2430
 6208TIP3    H140259   6.830   4.762   8.244  0.3760 -2.3216 -0.2539
 6208TIP3    H240260   6.848   4.697   8.379 -0.2386  0.6586  1.3589
 6209TIP3   OH240261   0.349   5.336   1.105 -0.6111 -0.5084  0.8533
 6209TIP3    H140262   0.393   5.405   1.155  1.5451 -0.2258 -1.2934
 6209TIP3    H240263   0.391   5.255   1.133 -1.7219 -0.7757  1.8549
 6210TIP3   OH240264   2.634   4.486   2.777  0.2988 -0.6511  0.1330
 6210TIP3    H140265   2.541   4.465   2.766 -0.4797  3.0985 -2.0318
 6210TIP3    H240266   2.636   4.557   2.841  1.8344 -1.2143  0.7715
 6211TIP3   OH240267   1.722   3.898   7.431 -0.1054 -0.1015  0.0084
 6211TIP3    H140268   1.760   3.942   7.355  0.8745 -0.8573  0.0397
 6211TIP3    H240269   1.644   3.854   7.398  0.0781 -0.0677 -0.4698
 6212TIP3   OH240270   3.469   5.501   7.753 -0.0646 -0.1001  0.1729
 6212TIP3    H140271   3.525   5.541   7.687  0.1971  1.3273  1.2067
 6212TIP3    H240272   3.529   5.476   7.823 -0.6551  1.2900  1.2209
 6213TIP3   OH240273   2.165   3.448   0.889 -0.1627 -0.1733  0.1468
 6213TIP3    H140274   2.083   3.451   0.937  0.5431  0.2811  1.3737
 6213TIP3    H240275   2.172   3.535   0.848  0.2562  0.2185  1.0235
 6214TIP3   OH240276   4.866   4.729   1.907  0.8418 -0.1524  0.2348
 6214TIP3    H140277   4.925   4.669   1.864  0.3891 -1.7927  1.7745
 6214TIP3    H240278   4.824   4.677   1.976 -0.5679  1.5770  0.7799
 6215TIP3   OH240279   0.392   0.802   8.166  0.2489 -0.3260 -0.4485
 6215TIP3    H140280   0.446   0.826   8.092 -0.8095  2.4259 -0.4240
 6215TIP3    H240281   0.449   0.813   8.242  0.6820 -1.0024 -0.6657
 6216TIP3   OH240282   6.284   5.523   2.724 -0.3092  0.7154 -0.4816
 6216TIP3    H140283   6.232   5.567   2.791  0.3708  0.2581  0.3653
 6216TIP3    H240284   6.231   5.447   2.698 -1.0900  1.5146 -1.3179
 6217TIP3   OH240285   2.286   3.979   1.390 -0.2751  0.0351  0.3942
 6217TIP3    H140286   2.249   3.909   1.444 -0.5153 -0.2276 -0.0985
 6217TIP3    H240287   2.358   4.014   1.441 -1.1394  0.4897  1.3441
 6218TIP3   OH240288   5.840   6.085   8.471 -0.5063 -0.2110  0.0287
 6218TIP3    H140289   5.844   6.062   8.379  1.2063  3.1121 -0.8762
 6218TIP3    H240290   5.928   6.115   8.492 -0.7924 -1.0189  2.8466
 6219TIP3   OH240291   4.831   1.634   6.972 -0.1221  0.6609  0.2649
 6219TIP3    H140292   4.791   1.703   7.024  0.8516  1.5819 -0.1714
 6219TIP3    H240293   4.883   1.681   6.907 -0.5956 -0.4719 -0.9681
 6220TIP3   OH240294   2.708   4.920   2.096  0.3394 -0.4126  0.2419
 6220TIP3    H140295   2.763   4.942   2.020  0.0041 -1.3753 -0.3064
 6220TIP3    H240296   2.618   4.930   2.064  0.1827 -1.9547  0.1274
 6221TIP3   OH240297   0.455   6.546   8.363  0.5838 -0.1383  0.5195
 6221TIP3    H140298   0.462   6.456   8.332  2.2409  0.5160 -1.2034
 6221TIP3    H240299   0.399   6.590   8.298 -0.4292  0.0477  1.4836
 6222TIP3   OH240300   6.498   1.465   7.580 -0.3284  0.6185  0.2243
 6222TIP3    H140301   6.523   1.372   7.584 -2.0561  0.1592  1.3226
 6222TIP3    H240302   6.540   1.504   7.656  1.4075  1.0524 -0.8973
 6223TIP3   OH240303   0.564   4.681   0.608 -0.0439  0.1406  0.0473
 6223TIP3    H140304   0.497   4.622   0.572  0.6936 -0.4476 -0.3829
 6223TIP3    H240305   0.647   4.641   0.583  0.4737  1.1667  0.0871
 6224TIP3   OH240306   0.328   5.910   0.071 -0.0333  0.0238 -0.0371
 6224TIP3    H140307   0.358   5.851   0.002 -0.1484  0.2990 -0.3251
 6224TIP3    H240308   0.254   5.956   0.032 -1.4988 -1.3785  1.0102
 6225TIP3   OH240309   6.586   0.852   7.619 -0.6444 -0.2409  0.1565
 6225TIP3    H140310   6.523   0.781   7.634  0.9533 -1.6258  0.6222
 6225TIP3    H240311   6.586   0.865   7.524 -0.9984 -0.8218  0.0721
 6226TIP3   OH240312   0.832   1.139   6.989  0.4710 -0.1189  0.2601
 6226TIP3    H140313   0.821   1.182   6.904 -0.4071  0.2607  0.5495
 6226TIP3    H240314   0.745   1.104   7.009  1.0492 -1.6504  0.2454
 6227TIP3   OH240315   2.910   3.892   0.214 -0.4696 -0.0894  0.2458
 6227TIP3    H140316   2.947   3.861   0.131  1.4836 -1.6293  1.6119
 6227TIP3    H240317   2.968   3.964   0.240 -0.7467  0.0191  0.5678
 6228TIP3   OH240318   5.282   0.229   1.022  0.2002  0.1797 -0.3800
 6228TIP3    H140319   5.240   0.284   1.087  0.6257 -0.0351  0.0794
 6228TIP3    H240320   5.214   0.167   0.995 -0.0609  0.4582 -0.3611
 6229TIP3   OH240321   6.581   4.568   2.010 -0.0463 -0.0579  0.2706
 6229TIP3    H140322   6.600   4.592   1.920 -2.1839 -0.6870 -0.4120
 6229TIP3    H240323   6.486   4.557   2.013  0.2097 -3.3215  1.7259
 6230TIP3   OH240324   2.505   2.340   0.947 -0.5659 -0.0524  0.0530
 6230TIP3    H140325   2.563   2.360   1.020 -0.2473  0.5876 -0.3713
 6230TIP3    H240326   2.421   2.378   0.973  0.0287  1.8942 -0.7404
 6231TIP3   OH240327   0.319   4.670   1.289  0.2491 -0.4225 -0.3544
 6231TIP3    H140328   0.387   4.604   1.304 -0.2835 -1.0184 -0.5268
 6231TIP3    H240329   0.251   4.623   1.240 -0.0178  0.3257 -0.7118
 6232TIP3   OH240330   4.925   5.257   3.172  0.3110 -0.2071 -0.1352
 6232TIP3    H140331   4.902   5.324   3.237  0.7730 -0.1382 -0.0431
 6232TIP3    H240332   4.863   5.186   3.189 -0.7217  0.5050 -0.7521
 6233TIP3   OH240333   4.631   5.366   1.694 -0.0570  0.0930  0.0627
 6233TIP3    H140334   4.594   5.285   1.728 -0.3373 -0.4367 -1.4190
 6233TIP3    H240335   4.561   5.403   1.640  0.4226  0.7890 -0.0905
 6234TIP3   OH240336   0.051   4.452   0.218  0.2047  0.5256 -0.1223
 6234TIP3    H140337  -0.023   4.513   0.218 -0.2315  0.0450 -1.2664
 6234TIP3    H240338   0.127   4.505   0.195  0.5519  1.3303  2.6020
 6235TIP3   OH240339   4.069   5.420   1.831  0.0826 -0.2094  0.3997
 6235TIP3    H140340   4.017   5.392   1.906 -1.2001  1.6071  0.2727
 6235TIP3    H240341   4.156   5.384   1.846 -0.8341 -2.2215  1.3214
 6236TIP3   OH240342   4.754   2.952   0.046 -0.6334  0.6979  0.1688
 6236TIP3    H140343   4.777   2.866   0.080  1.0324  0.3600 -1.6223
 6236TIP3    H240344   4.658   2.951   0.040 -0.7171 -0.5425  1.3255
 6237TIP3   OH240345   0.593   5.616   8.119 -0.3267 -0.6647 -0.2894
 6237TIP3    H140346   0.602   5.703   8.159 -2.6765 -0.6493  0.3450
 6237TIP3    H240347   0.565   5.635   8.029 -2.5705 -0.6946  0.3392
 6238TIP3   OH240348   5.393   1.819   2.008  0.4263  0.0318 -0.1174
 6238TIP3    H140349   5.337   1.778   2.075  1.1415  1.6073  1.5330
 6238TIP3    H240350   5.473   1.766   2.009  0.2131 -0.2962 -0.1493
 6239TIP3   OH240351   1.314   6.886   1.838 -0.2982  0.3535 -0.3286
 6239TIP3    H140352   1.334   6.801   1.799 -0.0030  0.2073  0.1411
 6239TIP3    H240353   1.237   6.917   1.789 -2.1991 -1.4408  1.3136
 6240TIP3   OH240354   3.068   0.734   1.946  0.4262 -0.5560 -0.1344
 6240TIP3    H140355   3.044   0.733   2.038  0.0656 -0.2906 -0.2259
 6240TIP3    H240356   3.124   0.811   1.936  0.8524 -0.8461 -0.0443
 6241TIP3   OH240357   4.434   6.648   7.416  0.3197  0.2931 -0.8901
 6241TIP3    H140358   4.524   6.654   7.449 -0.1204 -0.9900  0.6621
 6241TIP3    H240359   4.438   6.580   7.348 -0.0277 -2.3712  1.5735
 6242TIP3   OH240360   2.851   0.292   0.267 -0.0583 -0.4486  0.0630
 6242TIP3    H140361   2.907   0.285   0.344 -1.0953 -0.9318  0.7982
 6242TIP3    H240362   2.850   0.204   0.230 -0.5746 -0.5124  0.2291
 6243TIP3   OH240363   6.247   4.055   8.400  0.5687  0.1438 -0.0979
 6243TIP3    H140364   6.304   3.984   8.430 -0.6633 -0.6958  0.3435
 6243TIP3    H240365   6.210   4.023   8.318  0.0509  0.3026  0.0723
 6244TIP3   OH240366   1.471   3.986   2.380 -0.2463  0.2278 -0.4497
 6244TIP3    H140367   1.415   4.062   2.396  0.9835  1.3781 -1.2737
 6244TIP3    H240368   1.560   4.023   2.377  0.5827 -1.5032  0.8098
 6245TIP3   OH240369   0.718   6.820   0.932 -0.5819  0.3396  0.2025
 6245TIP3    H140370   0.664   6.741   0.931  1.1220 -0.8803 -0.7547
 6245TIP3    H240371   0.806   6.789   0.913  0.3992  2.3154  1.2372
 6246TIP3   OH240372   5.275   1.550   0.795  0.2658  0.5810  0.0033
 6246TIP3    H140373   5.213   1.479   0.780  0.9376  0.3256 -1.8437
 6246TIP3    H240374   5.352   1.507   0.832  0.0533  0.6091  0.4819
 6247TIP3   OH240375   5.981   3.911   2.920  0.6899  0.4367 -0.1065
 6247TIP3    H140376   6.027   3.829   2.940  0.4894  0.6515  1.3519
 6247TIP3    H240377   6.043   3.961   2.867  0.9260 -0.5446 -0.7770
 6248TIP3   OH240378   5.275   5.880   2.285  0.0171 -0.4106  0.0526
 6248TIP3    H140379   5.204   5.817   2.295 -1.6376  1.2155 -0.7265
 6248TIP3    H240380   5.351   5.838   2.326 -1.6681 -1.7191  2.0628
 6249TIP3   OH240381   4.267   5.669   7.785  0.1547 -0.0129 -0.3629
 6249TIP3    H140382   4.316   5.607   7.731 -0.8382  0.4320 -1.8107
 6249TIP3    H240383   4.310   5.664   7.871  1.3622 -1.2032 -0.9933
 6250TIP3   OH240384   6.681   3.282   8.384 -0.2556  0.4948  0.2987
 6250TIP3    H140385   6.588   3.306   8.375 -1.0119 -1.7498  1.3039
 6250TIP3    H240386   6.722   3.359   8.423 -2.2031  0.7782  1.9870
 6251TIP3   OH240387   6.258   3.838   0.183  0.0239 -0.4874 -0.4744
 6251TIP3    H140388   6.245   3.768   0.248  0.6114  0.4069  0.6320
 6251TIP3    H240389   6.347   3.868   0.198  0.2276 -0.3760 -1.8295
 6252TIP3   OH240390   4.233   1.614   1.705  0.4458 -0.3690 -0.0163
 6252TIP3    H140391   4.256   1.669   1.631  0.9907  0.1442  0.5189
 6252TIP3    H240392   4.293   1.641   1.775  0.7252 -1.6498  0.2613
 6253TIP3   OH240393   6.608   0.531   8.244 -0.6211  0.0718  0.4282
 6253TIP3    H140394   6.546   0.505   8.313 -0.8677  0.4303  0.3436
 6253TIP3    H240395   6.656   0.605   8.281 -0.6828  0.1995  0.2569
 6254TIP3   OH240396   4.946   3.326   1.591  0.6396  0.2460  0.0460
 6254TIP3    H140397   4.975   3.251   1.642 -0.2253 -0.0858  0.0646
 6254TIP3    H240398   4.964   3.402   1.647  0.6564 -0.0260  0.4131
 6255TIP3   OH240399   6.224   6.487   0.375  0.1445  0.0291  0.1169
 6255TIP3    H140400   6.219   6.503   0.469  4.1466  1.3104  0.2637
 6255TIP3    H240401   6.256   6.569   0.337 -0.0558 -0.8735 -2.2251
 6256TIP3   OH240402   0.284   0.162   0.189 -0.0224 -0.2163 -0.4373
 6256TIP3    H140403   0.203   0.158   0.239  0.5264 -1.6517  0.3981
 6256TIP3    H240404   0.315   0.071   0.185 -0.6016 -0.4347 -4.3315
 6257TIP3   OH240405   0.229   2.524   7.740 -0.5279  0.4085 -0.0514
 6257TIP3    H140406   0.264   2.566   7.661 -0.0083  0.8131  0.3910
 6257TIP3    H240407   0.238   2.590   7.809 -0.2939 -0.1951  0.5115
 6258TIP3   OH240408   5.061   3.341   8.449 -1.0314  0.1322 -0.3641
 6258TIP3    H140409   4.980   3.291   8.454 -0.6887 -0.2997  1.5176
 6258TIP3    H240410   5.128   3.284   8.487 -0.1972  1.1676 -0.2072
 6259TIP3   OH240411   1.343   3.926   7.161 -0.4957 -0.1989  0.2668
 6259TIP3    H140412   1.405   3.874   7.213 -0.5578 -1.6860 -1.0686
 6259TIP3    H240413   1.266   3.870   7.152 -1.0714  0.6348 -0.1632
 6260TIP3   OH240414   5.993   1.953   0.034  0.0420 -0.3418  0.0012
 6260TIP3    H140415   6.060   2.018   0.054 -0.9180  0.5545  0.4187
 6260TIP3    H240416   6.024   1.910  -0.046  0.0866  1.5305 -1.0445
 6261TIP3   OH240417   0.870   5.428   0.435 -0.4880  0.2539 -0.1468
 6261TIP3    H140418   0.855   5.521   0.416  0.4221  0.2070 -1.1691
 6261TIP3    H240419   0.965   5.419   0.443 -0.6176 -0.4361  0.8638
 6262TIP3   OH240420   6.521   2.176   1.335  0.3361  0.0341 -0.3309
 6262TIP3    H140421   6.494   2.231   1.262 -0.1062  0.0507 -0.1637
 6262TIP3    H240422   6.448   2.183   1.398  0.8953  0.3561  0.2928
 6263TIP3   OH240423   6.619   3.874   2.723  0.4275 -0.6429  0.1758
 6263TIP3    H140424   6.528   3.903   2.713 -0.2835 -1.9038  2.3596
 6263TIP3    H240425   6.663   3.946   2.768 -0.0068 -0.7861  0.8497
 6264TIP3   OH240426   6.456   0.111   7.540  0.4400 -0.6660 -0.5754
 6264TIP3    H140427   6.378   0.067   7.505 -0.4250  0.5296 -0.2453
 6264TIP3    H240428   6.526   0.090   7.479 -0.9180  1.0697 -2.8990
 6265TIP3   OH240429   5.367   3.629   6.815 -0.6510 -0.4020 -0.4442
 6265TIP3    H140430   5.426   3.685   6.865  0.5806 -1.7646 -0.3328
 6265TIP3    H240431   5.302   3.690   6.779 -0.9891  0.7655  1.9254
 6266TIP3   OH240432   0.938   3.243   7.741  0.0767  0.0603  0.2889
 6266TIP3    H140433   0.969   3.323   7.782  0.6644 -0.0442  0.0542
 6266TIP3    H240434   1.016   3.204   7.702 -0.4877  0.2480 -1.0847
 6267TIP3   OH240435   0.755   4.982   0.713 -0.2333  0.2470 -0.5669
 6267TIP3    H140436   0.795   4.977   0.799  0.4023  2.4057 -0.6649
 6267TIP3    H240437   0.770   5.072   0.685  0.1160 -0.5392 -3.2044
 6268TIP3   OH240438   5.997   2.385   0.617  0.3643 -0.5103 -0.3121
 6268TIP3    H140439   5.937   2.379   0.543  1.2261 -0.9466 -0.9901
 6268TIP3    H240440   6.079   2.348   0.585  1.3660  1.1581  0.2143
 6269TIP3   OH240441   1.777   0.838   2.300  0.2534 -0.7800  0.4692
 6269TIP3    H140442   1.870   0.859   2.296 -0.0003  0.2041 -1.1085
 6269TIP3    H240443   1.765   0.797   2.385  1.8406  0.5269  1.3712
 6270TIP3   OH240444   3.704   6.162   2.608 -0.0355 -0.3151 -0.4571
 6270TIP3    H140445   3.789   6.118   2.613  1.1665  1.9990  2.3427
 6270TIP3    H240446   3.640   6.092   2.596  1.7763 -2.8306  3.0572
 6271TIP3   OH240447   0.237   1.892   1.162 -0.2266 -0.0991 -0.4384
 6271TIP3    H140448   0.248   1.982   1.131 -1.1310  0.6303  1.2285
 6271TIP3    H240449   0.147   1.869   1.138  0.3637 -1.0440 -1.9205
 6272TIP3   OH240450   2.632   6.027   1.183 -0.0573 -0.6175 -0.4337
 6272TIP3    H140451   2.723   6.037   1.210 -0.2004  1.7337 -0.5875
 6272TIP3    H240452   2.582   6.079   1.247 -1.0082  0.0605 -1.6730
 6273TIP3   OH240453   3.315   2.402   0.249  0.2359  0.5667  0.2345
 6273TIP3    H140454   3.401   2.438   0.268  0.3520  0.0649  0.6689
 6273TIP3    H240455   3.258   2.437   0.317 -0.1174  1.6613 -0.5946
 6274TIP3   OH240456   5.626   5.025   0.438 -0.2449  0.1588 -0.5047
 6274TIP3    H140457   5.622   4.971   0.517 -1.9947  0.0242 -0.6475
 6274TIP3    H240458   5.680   4.975   0.377 -0.1868 -0.4885  0.0616
 6275TIP3   OH240459   4.042   6.406   0.237  0.2012 -0.6285  0.2311
 6275TIP3    H140460   4.033   6.346   0.163  0.4509 -1.2393  0.6870
 6275TIP3    H240461   3.989   6.366   0.306  1.9144 -1.3629  1.1633
 6276TIP3   OH240462   5.186   3.159   7.365  0.3709 -0.2068 -0.1109
 6276TIP3    H140463   5.113   3.123   7.315 -0.5747  0.9455  0.3963
 6276TIP3    H240464   5.159   3.148   7.457  0.4444  0.9546  0.0672
 6277TIP3   OH240465   2.886   5.410   1.011  0.2634  0.4026 -0.0347
 6277TIP3    H140466   2.865   5.319   0.992 -1.9594  0.9026 -0.2606
 6277TIP3    H240467   2.887   5.453   0.925 -0.1562  0.8467  0.1749
 6278TIP3   OH240468   6.021   4.182   8.546  0.1384 -0.4763 -0.0309
 6278TIP3    H140469   6.095   4.133   8.509 -0.0235  0.3016 -1.4999
 6278TIP3    H240470   6.026   4.267   8.503 -1.3944 -0.2785  0.1253
 6279TIP3   OH240471   4.312   3.380   0.592  0.4429 -0.5254  0.2262
 6279TIP3    H140472   4.377   3.373   0.662  1.1194 -0.4073 -0.3712
 6279TIP3    H240473   4.281   3.291   0.578 -0.1351 -0.4612  1.0772
 6280TIP3   OH240474   2.244   0.571   7.894  0.3070  0.7007  0.2961
 6280TIP3    H140475   2.265   0.584   7.802 -1.1598  2.2180  0.1372
 6280TIP3    H240476   2.303   0.629   7.941  1.4865 -0.5265  0.4051
 6281TIP3   OH240477   4.623   3.675   1.731  0.5332 -0.0602 -0.0977
 6281TIP3    H140478   4.544   3.719   1.700 -0.7626  0.1085  3.0712
 6281TIP3    H240479   4.657   3.733   1.800  2.3742 -1.0468 -0.1230
 6282TIP3   OH240480   0.879   5.668   1.820 -0.5764 -0.3140 -0.3669
 6282TIP3    H140481   0.815   5.640   1.886 -0.7679  0.9223  0.0063
 6282TIP3    H240482   0.955   5.613   1.835 -1.5843 -1.9529 -0.9369
 6283TIP3   OH240483   3.111   2.650   0.143 -0.0816 -0.5879  0.2851
 6283TIP3    H140484   3.092   2.741   0.164  1.1029 -0.2223 -0.1520
 6283TIP3    H240485   3.157   2.616   0.219  1.9413  0.0048 -0.6116
 6284TIP3   OH240486   0.907   3.281   1.365 -0.4601 -0.3167  0.1010
 6284TIP3    H140487   0.816   3.275   1.336 -0.3301 -2.1098 -0.0472
 6284TIP3    H240488   0.904   3.335   1.444 -1.4003  1.0275 -0.8105
 6285TIP3   OH240489   4.900   0.882   7.941 -0.3297 -0.3557  0.4070
 6285TIP3    H140490   4.905   0.821   8.014  0.6330  0.6284  1.2059
 6285TIP3    H240491   4.889   0.827   7.863 -1.4423 -1.4200  1.2928
 6286TIP3   OH240492   4.116   4.315   1.683 -0.5030  0.1132 -0.5838
 6286TIP3    H140493   4.158   4.401   1.680 -0.2865  0.0152 -0.3831
 6286TIP3    H240494   4.033   4.331   1.727 -0.6442  0.2921 -0.9079
 6287TIP3   OH240495   3.169   4.311   0.556 -0.2431  0.1353 -0.7900
 6287TIP3    H140496   3.239   4.358   0.510 -0.5467  0.5343 -0.8455
 6287TIP3    H240497   3.132   4.376   0.616  0.5936 -0.5576  0.5287
 6288TIP3   OH240498   5.149   4.917   7.367 -0.0855  0.1218  0.4144
 6288TIP3    H140499   5.197   4.895   7.287  0.2042 -0.9337  0.8690
 6288TIP3    H240500   5.072   4.965   7.336 -0.4101 -0.9950 -0.5643
 6289TIP3   OH240501   6.799   5.020   1.809 -0.2613 -0.6638 -0.4059
 6289TIP3    H140502   6.847   4.969   1.875 -1.8113 -1.9895 -0.2263
 6289TIP3    H240503   6.843   4.999   1.726  1.6946  1.0069  0.1296
 6290TIP3   OH240504   2.274   3.056   2.327 -0.3321  0.1101  0.7190
 6290TIP3    H140505   2.343   3.058   2.261 -0.1634 -1.4264  0.8137
 6290TIP3    H240506   2.284   3.139   2.375  1.3782 -0.0333  0.6610
 6291TIP3   OH240507   6.539   3.240   8.033  0.0024 -0.2262  0.2373
 6291TIP3    H140508   6.633   3.230   8.017 -0.0406  0.5060 -0.5269
 6291TIP3    H240509   6.518   3.327   7.999 -1.0392 -0.5612  0.0067
 6292TIP3   OH240510   5.431   5.358   8.408  0.1101  0.0431  0.4125
 6292TIP3    H140511   5.385   5.275   8.422 -1.8067  0.5715 -2.1269
 6292TIP3    H240512   5.469   5.350   8.321  1.0644  1.3388  0.6854
 6293TIP3   OH240513   4.295   6.744   0.942  0.3955 -0.5705 -0.1265
 6293TIP3    H140514   4.334   6.767   1.027  1.0081 -1.5157 -0.1371
 6293TIP3    H240515   4.228   6.678   0.964  1.0284 -1.3285 -0.4373
 6294TIP3   OH240516   4.129   2.526   0.530 -0.6991 -0.1923 -0.4018
 6294TIP3    H140517   4.157   2.441   0.497 -0.9695 -0.9385  1.1854
 6294TIP3    H240518   4.046   2.509   0.573  0.3055  0.3851  1.9141
 6295TIP3   OH240519   2.663   4.494   2.357 -0.3660 -0.4430  0.0957
 6295TIP3    H140520   2.663   4.402   2.329 -1.4555 -0.1184 -1.0990
 6295TIP3    H240521   2.598   4.535   2.300 -1.5430  0.6314  2.1014
 6296TIP3   OH240522   2.002   5.872   7.878 -0.4662 -0.2589  0.2991
 6296TIP3    H140523   1.906   5.875   7.879 -0.4645  1.9247  1.9468
 6296TIP3    H240524   2.028   5.957   7.842  0.7553  0.4971  2.6895
 6297TIP3   OH240525   4.317   1.260   7.750 -0.5075 -0.0032  0.2085
 6297TIP3    H140526   4.359   1.281   7.667  0.8325 -1.6487  0.4123
 6297TIP3    H240527   4.388   1.265   7.815 -0.9867 -1.0776  0.8528
 6298TIP3   OH240528   3.234   3.464   0.026 -0.1032 -0.0271 -1.0057
 6298TIP3    H140529   3.314   3.424   0.059  0.2969  0.2066 -1.6825
 6298TIP3    H240530   3.165   3.431   0.084  0.9154  2.6898  2.0816
 6299TIP3   OH240531   6.174   5.605   1.056 -0.1692  0.1631 -0.2618
 6299TIP3    H140532   6.206   5.562   0.977  1.2584  1.6452 -0.5288
 6299TIP3    H240533   6.197   5.697   1.045 -0.5675  0.5246  1.5784
 6300TIP3   OH240534   0.884   5.191   0.567  0.2120 -0.1154  0.4756
 6300TIP3    H140535   0.897   5.274   0.522 -1.9688  0.0261  0.0198
 6300TIP3    H240536   0.834   5.213   0.646 -0.1185 -0.9362  0.5117
 6301TIP3   OH240537   5.698   6.605   7.958 -0.5402 -0.0770 -0.1241
 6301TIP3    H140538   5.646   6.558   7.892  0.0487  2.7635 -2.8628
 6301TIP3    H240539   5.634   6.643   8.017 -1.5037  1.1397 -1.8667
 6302TIP3   OH240540   1.302   5.175   8.374 -0.6183 -0.4677 -0.2953
 6302TIP3    H140541   1.292   5.113   8.447  1.9862 -2.1981 -1.2463
 6302TIP3    H240542   1.213   5.208   8.359 -1.3649 -0.3839  3.2652
 6303TIP3   OH240543   1.137   3.170   0.296  0.3008 -0.0866 -0.0126
 6303TIP3    H140544   1.084   3.100   0.259 -2.6126  0.9147  1.9652
 6303TIP3    H240545   1.148   3.232   0.223  1.2190 -1.5906 -1.2130
 6304TIP3   OH240546   6.271   3.601   0.371 -0.2192 -0.0175  0.2520
 6304TIP3    H140547   6.343   3.542   0.349  0.1999  0.7049 -0.3332
 6304TIP3    H240548   6.305   3.655   0.443 -0.3748 -0.0514  0.3519
 6305TIP3   OH240549   0.297   0.269   1.141 -0.2204  0.1606 -0.1876
 6305TIP3    H140550   0.313   0.205   1.072  1.3914 -1.7646  1.8056
 6305TIP3    H240551   0.326   0.353   1.104  0.2785 -0.7455 -1.9417
 6306TIP3   OH240552   0.097   1.419   8.327  0.0882  0.5851  0.8472
 6306TIP3    H140553   0.010   1.386   8.306  0.6671 -0.6140  0.2603
 6306TIP3    H240554   0.092   1.512   8.306 -0.6999  0.3035 -0.3295
 6307TIP3   OH240555   5.765   6.551   0.302 -0.3549 -0.0772  0.2112
 6307TIP3    H140556   5.675   6.565   0.273 -0.9939  0.4692  2.2902
 6307TIP3    H240557   5.813   6.627   0.268 -0.7830 -0.0756 -0.4122
 6308TIP3   OH240558   0.477   3.722   2.103 -0.2976 -0.2249 -0.4245
 6308TIP3    H140559   0.472   3.704   2.197 -0.8586 -2.0315 -0.7597
 6308TIP3    H240560   0.562   3.764   2.091  0.3395 -1.1064  0.7299
 6309TIP3   OH240561   0.438   3.965   7.175 -0.5348 -0.2699 -0.2432
 6309TIP3    H140562   0.360   3.949   7.123 -0.2858  0.3757 -0.8316
 6309TIP3    H240563   0.472   4.049   7.143 -0.1015 -0.0952  0.6191
 6310TIP3   OH240564   3.209   6.046   2.981  0.2135  0.5184 -0.2015
 6310TIP3    H140565   3.262   5.985   3.032 -1.2490  0.9736  1.9786
 6310TIP3    H240566   3.238   6.132   3.009  0.1317  0.8190 -0.9988
 6311TIP3   OH240567   3.262   4.954   1.570 -0.3402  0.6068  0.4720
 6311TIP3    H140568   3.271   4.882   1.508  1.5256 -1.0738  2.5046
 6311TIP3    H240569   3.212   4.917   1.643 -1.7477  2.2647  0.4070
 6312TIP3   OH240570   2.128   1.434   0.059  0.8801  0.3486  0.0605
 6312TIP3    H140571   2.213   1.437   0.104  1.6627  1.1193 -1.3741
 6312TIP3    H240572   2.124   1.346   0.022  1.5431  0.6244 -0.7038
 6313TIP3   OH240573   4.881   2.759   8.330 -0.2364  0.0410  0.2570
 6313TIP3    H140574   4.895   2.682   8.385  0.5153  1.5656  2.3098
 6313TIP3    H240575   4.873   2.724   8.241  1.3252 -2.3039  0.9616
 6314TIP3   OH240576   5.782   5.173   1.615  0.7531  0.3889  0.4987
 6314TIP3    H140577   5.851   5.234   1.586  0.6782  0.0036 -0.5425
 6314TIP3    H240578   5.758   5.125   1.536  0.2469 -0.4442  1.1419
 6315TIP3   OH240579   5.972   3.029   2.036 -0.6167  0.1104 -0.3211
 6315TIP3    H140580   5.984   2.944   1.992 -0.5587  0.3174 -0.7136
 6315TIP3    H240581   6.052   3.042   2.086 -1.0951 -0.5988  0.6656
 6316TIP3   OH240582   1.098   6.803   0.271 -0.1782 -0.3559  0.0962
 6316TIP3    H140583   1.162   6.825   0.204  0.3541 -1.0231  0.3814
 6316TIP3    H240584   1.036   6.745   0.226  0.6266 -1.4618  0.3729
 6317TIP3   OH240585   6.355   1.764   0.268  0.4317  0.0274  0.4687
 6317TIP3    H140586   6.306   1.703   0.323  1.6837 -0.0452  1.5835
 6317TIP3    H240587   6.447   1.737   0.280  1.1628  2.8714  2.0100
 6318TIP3   OH240588   5.617   0.289   2.905  0.3239  1.1521  0.0695
 6318TIP3    H140589   5.557   0.220   2.931  0.0257  0.7868 -1.5091
 6318TIP3    H240590   5.675   0.300   2.980  1.2266 -1.7404 -0.0913
 6319TIP3   OH240591   3.837   3.752   1.728  0.5356  0.3874 -0.1948
 6319TIP3    H140592   3.843   3.833   1.778  1.2013  1.2882 -1.6644
 6319TIP3    H240593   3.813   3.780   1.640 -2.1833 -1.2710 -0.0991
 6320TIP3   OH240594   0.862   6.248   7.151  0.8198  0.3655  0.3347
 6320TIP3    H140595   0.771   6.270   7.167 -0.0615 -2.0908 -0.7555
 6320TIP3    H240596   0.879   6.280   7.062  0.7149 -0.0019  0.1807
 6321TIP3   OH240597   6.400   2.733   1.871 -0.0573  0.2660 -0.3301
 6321TIP3    H140598   6.352   2.663   1.916  0.6655  0.0454  0.1132
 6321TIP3    H240599   6.428   2.791   1.942 -0.3989  0.8574 -0.6676
 6322TIP3   OH240600   1.135   3.518   2.233 -0.2824  0.0189 -0.0735
 6322TIP3    H140601   1.063   3.514   2.170 -0.7445 -2.2748  0.4927
 6322TIP3    H240602   1.213   3.498   2.182 -0.2925  0.6248 -0.3401
 6323TIP3   OH240603   5.303   4.264   0.023 -0.6169  0.2273 -0.2260
 6323TIP3    H140604   5.354   4.183   0.016 -0.2618  0.3488  0.7735
 6323TIP3    H240605   5.212   4.236   0.016 -0.5698  0.3425 -5.8345
 6324TIP3   OH240606   2.349   4.712   7.676  0.2244  0.1784  0.5297
 6324TIP3    H140607   2.329   4.698   7.768  0.0740 -0.4120  0.4145
 6324TIP3    H240608   2.439   4.743   7.676 -0.4721  2.3641  1.0154
 6325TIP3   OH240609   4.897   0.212   1.999 -0.3614 -0.4088  0.0374
 6325TIP3    H140610   4.893   0.117   1.987  0.4992 -0.2761 -1.5114
 6325TIP3    H240611   4.920   0.224   2.092  1.2371 -1.7531 -0.1490
 6326TIP3   OH240612   2.379   1.416   1.829 -0.6001  0.2268  0.3304
 6326TIP3    H140613   2.293   1.402   1.789 -0.2702 -0.9863  0.0267
 6326TIP3    H240614   2.435   1.350   1.789  0.6195  1.3510  0.1303
 6327TIP3   OH240615   1.320   6.622   7.271 -0.0088 -0.6781 -0.9233
 6327TIP3    H140616   1.262   6.579   7.208 -0.2389 -1.8696  0.0710
 6327TIP3    H240617   1.407   6.615   7.232 -0.4023  0.6001 -2.1482
 6328TIP3   OH240618   6.008   5.786   8.408 -0.3527  0.0919  0.2693
 6328TIP3    H140619   6.031   5.781   8.501  0.4180 -0.4328  0.0648
 6328TIP3    H240620   6.079   5.838   8.369 -0.3487 -0.2035 -0.1209
 6329TIP3   OH240621   2.227   1.793   6.936  0.6134  0.3613  0.3076
 6329TIP3    H140622   2.143   1.830   6.909  0.8734  0.8616  0.1568
 6329TIP3    H240623   2.282   1.870   6.951  1.5242  0.0218 -1.1450
 6330TIP3   OH240624   0.257   2.497   0.726 -0.2138 -0.1188  0.1146
 6330TIP3    H140625   0.221   2.518   0.640  0.7335  3.2146  0.3759
 6330TIP3    H240626   0.187   2.518   0.787 -0.3407 -0.9252  0.2506
 6331TIP3   OH240627   4.002   5.413   1.180  0.2047 -0.4314  0.8905
 6331TIP3    H140628   3.941   5.369   1.121 -0.3143  0.1381  1.0024
 6331TIP3    H240629   4.084   5.417   1.130 -0.9048  2.5044 -0.9645
 6332TIP3   OH240630   2.519   4.760   8.179  0.2079 -0.5213  0.6189
 6332TIP3    H140631   2.557   4.676   8.154  0.3091 -0.6956  1.3398
 6332TIP3    H240632   2.574   4.792   8.250  0.7227  0.6071 -0.2528
 6333TIP3   OH240633   5.235   4.146   7.504  0.4532  0.8339  0.4500
 6333TIP3    H140634   5.283   4.193   7.572  1.7903  0.9544 -0.5350
 6333TIP3    H240635   5.185   4.080   7.552  2.7784 -0.3205  1.4483
 6334TIP3   OH240636   3.271   4.187   1.436 -0.2463  0.4727  0.2245
 6334TIP3    H140637   3.267   4.091   1.441 -0.9813  0.5042  0.3646
 6334TIP3    H240638   3.335   4.212   1.503 -1.2899  0.1671  1.3841
 6335TIP3   OH240639   2.276   4.517   1.590  0.2280 -0.3050 -0.1726
 6335TIP3    H140640   2.355   4.553   1.631  0.3705  0.1236 -0.8117
 6335TIP3    H240641   2.237   4.463   1.658  1.3501 -0.9407  0.0074
 6336TIP3   OH240642   5.846   6.892   2.214 -0.0056 -0.3380 -0.4560
 6336TIP3    H140643   5.798   6.925   2.137  0.0975 -0.1381 -0.4358
 6336TIP3    H240644   5.833   6.960   2.280 -1.0773 -1.0481  0.0981
 6337TIP3   OH240645   1.753   2.471   0.559 -0.4218 -0.2685  0.2820
 6337TIP3    H140646   1.714   2.511   0.637  0.9673  3.4554 -0.7010
 6337TIP3    H240647   1.693   2.496   0.488  1.1843  1.4120 -0.5559
 6338TIP3   OH240648   0.787   4.795   0.476 -0.4740 -0.2243  0.1213
 6338TIP3    H140649   0.748   4.845   0.547  0.6365 -0.6686  1.0658
 6338TIP3    H240650   0.725   4.806   0.403 -1.3381  0.7123  0.9549
 6339TIP3   OH240651   1.118   3.128   1.371 -0.6451 -0.1332 -0.0090
 6339TIP3    H140652   1.028   3.162   1.371 -2.1351 -3.6389 -0.1979
 6339TIP3    H240653   1.125   3.079   1.453  1.3182  0.4706  0.2284
 6340TIP3   OH240654   6.870   3.795   2.617 -0.9219 -0.2470 -0.6325
 6340TIP3    H140655   6.781   3.815   2.646 -0.2815  0.7091  0.7963
 6340TIP3    H240656   6.903   3.879   2.583  0.0322 -0.1221  0.5468
 6341TIP3   OH240657   0.034   0.441   0.238 -0.2294 -0.0554  0.2185
 6341TIP3    H140658  -0.052   0.422   0.201 -0.3671  1.9632 -0.6318
 6341TIP3    H240659   0.016   0.480   0.323 -0.0559 -0.9809  0.7029
 6342TIP3   OH240660   2.508   5.729   0.412 -0.1234  0.1096 -0.7482
 6342TIP3    H140661   2.490   5.680   0.332 -0.2365  0.2284 -0.7958
 6342TIP3    H240662   2.425   5.727   0.461 -0.5012  1.2898 -1.3010
 6343TIP3   OH240663   1.975   3.796   0.396 -0.1883 -0.3607  0.2274
 6343TIP3    H140664   1.907   3.730   0.386 -0.4652  0.1059 -1.3631
 6343TIP3    H240665   2.043   3.754   0.448 -1.4784 -0.9816  1.4661
 6344TIP3   OH240666   4.860   5.213   1.551 -0.1098 -0.1722  0.2775
 6344TIP3    H140667   4.805   5.242   1.624  1.0232  0.3292  0.9605
 6344TIP3    H240668   4.949   5.236   1.577  0.2011  1.5096 -1.9476
 6345TIP3   OH240669   0.273   2.435   7.355 -1.1865 -0.5158 -0.2470
 6345TIP3    H140670   0.312   2.426   7.268  1.5410  1.8555  0.5909
 6345TIP3    H240671   0.220   2.515   7.350 -1.5388 -0.7205  0.1130
 6346TIP3   OH240672   1.885   1.369   0.956  0.1104  0.6177 -0.3675
 6346TIP3    H140673   1.815   1.305   0.936  1.4274 -1.1735  0.5003
 6346TIP3    H240674   1.842   1.454   0.946 -1.7191 -0.3650 -1.6522
 6347TIP3   OH240675   4.995   5.958   1.294 -0.4562 -0.1146 -0.4999
 6347TIP3    H140676   5.040   6.005   1.364 -1.1593 -0.1529 -0.0106
 6347TIP3    H240677   5.065   5.921   1.241  0.0980  0.6023 -0.2855
 6348TIP3   OH240678   3.877   6.826   0.697 -0.5368 -0.1222 -0.1199
 6348TIP3    H140679   3.958   6.865   0.730 -0.4743 -0.8190  0.5811
 6348TIP3    H240680   3.902   6.784   0.615 -0.0173 -0.9492  0.4460
 6349TIP3   OH240681   0.162   5.595   1.786  0.0842 -0.1321  0.0607
 6349TIP3    H140682   0.086   5.600   1.728  0.0940  0.4496  0.0918
 6349TIP3    H240683   0.149   5.666   1.849  0.7403  0.0856 -0.0365
 6350TIP3   OH240684   5.576   5.213   1.211 -0.1509  0.4890  0.4745
 6350TIP3    H140685   5.586   5.140   1.151 -1.1903  2.6013 -2.5310
 6350TIP3    H240686   5.510   5.184   1.274 -1.6377 -0.7113 -1.5294
 6351TIP3   OH240687   4.849   5.884   7.545 -0.4752 -0.7239 -0.0530
 6351TIP3    H140688   4.826   5.852   7.458 -0.5587 -0.9202  0.0397
 6351TIP3    H240689   4.876   5.974   7.532  1.6133 -1.3754 -0.6260
 6352TIP3   OH240690   5.774   0.197   2.366 -0.1932 -0.5788  0.0447
 6352TIP3    H140691   5.771   0.265   2.299  2.3801  0.5889  0.9837
 6352TIP3    H240692   5.755   0.242   2.448 -1.4160 -1.6100  0.3592
 6353TIP3   OH240693   1.463   1.731   1.701 -0.4132 -0.2105  0.0132
 6353TIP3    H140694   1.401   1.743   1.774  0.3020  2.2247  0.2896
 6353TIP3    H240695   1.445   1.803   1.641 -0.4555 -1.7341 -1.9120
 6354TIP3   OH240696   1.786   2.940   7.813  0.3965 -0.2355 -0.3775
 6354TIP3    H140697   1.747   2.972   7.732  1.1918 -0.1621 -0.7330
 6354TIP3    H240698   1.878   2.963   7.807  0.4490 -0.1413  0.5968
 6355TIP3   OH240699   6.236   0.030   1.050 -0.5992  0.1627  0.0400
 6355TIP3    H140700   6.317  -0.019   1.034 -0.6785  0.3692 -1.0518
 6355TIP3    H240701   6.261   0.097   1.114  0.0964  0.2312 -0.2976
 6356TIP3   OH240702   0.992   4.231   8.566 -0.2487  0.2125 -0.2077
 6356TIP3    H140703   0.988   4.136   8.573  0.3667  0.1462 -0.7548
 6356TIP3    H240704   1.047   4.258   8.639  0.7025  0.0362 -0.8484
 6357TIP3   OH240705   4.650   1.198   7.633 -0.1788  0.4329  0.1203
 6357TIP3    H140706   4.707   1.275   7.630 -1.9244  1.7691 -0.4796
 6357TIP3    H240707   4.643   1.170   7.541 -0.6235  0.3929  0.1647
 6358TIP3   OH240708   1.608   2.238   8.502  0.0001 -0.1261  0.1938
 6358TIP3    H140709   1.536   2.224   8.441  0.7427 -1.6136 -0.3931
 6358TIP3    H240710   1.684   2.252   8.447 -0.2186  4.9160  0.6923
 6359TIP3   OH240711   2.123   4.683   0.916  0.3597 -0.1259 -0.4373
 6359TIP3    H140712   2.114   4.592   0.941 -1.2861  0.3150  0.7401
 6359TIP3    H240713   2.151   4.680   0.824  1.9969 -1.7711  0.0458
 6360TIP3   OH240714   5.321   6.748   0.612  0.0088  0.0772  0.5347
 6360TIP3    H140715   5.344   6.829   0.656 -3.6518 -0.0395  3.1255
 6360TIP3    H240716   5.371   6.680   0.657  2.0584  0.6558 -0.7481
 6361TIP3   OH240717   2.670   0.750   1.815 -0.3744 -0.3459  0.1048
 6361TIP3    H140718   2.613   0.802   1.758  0.6359  0.5206 -0.1512
 6361TIP3    H240719   2.667   0.662   1.777 -0.7350 -0.0733 -0.5198
 6362TIP3   OH240720   0.666   1.793   0.381 -0.6800  0.6092 -0.0988
 6362TIP3    H140721   0.609   1.783   0.457 -0.8388 -0.9704 -0.3819
 6362TIP3    H240722   0.609   1.778   0.306  0.1139 -1.4646 -0.3711
 6363TIP3   OH240723   0.057   6.816   0.411  0.2474  0.0539  0.3508
 6363TIP3    H140724  -0.034   6.816   0.441  0.1920 -0.5259  0.1952
 6363TIP3    H240725   0.054   6.860   0.326 -0.4563 -2.7759 -1.2359
 6364TIP3   OH240726   1.737   4.155   1.797  0.5869  0.1067 -0.1947
 6364TIP3    H140727   1.704   4.160   1.887  3.0533  0.2930  0.7751
 6364TIP3    H240728   1.771   4.066   1.789  0.1305 -0.0026 -1.0728
 6365TIP3   OH240729   5.087   5.195   0.134  0.2190 -0.4759  0.0424
 6365TIP3    H140730   5.017   5.247   0.174 -1.2498  1.1578 -4.0912
 6365TIP3    H240731   5.047   5.109   0.121  0.0960 -0.4851  0.4466
 6366TIP3   OH240732   3.501   0.750   2.763 -0.6122 -0.1999 -0.4441
 6366TIP3    H140733   3.498   0.830   2.815 -1.1016 -0.0992 -0.6184
 6366TIP3    H240734   3.410   0.733   2.741 -0.3749 -0.0008 -1.6314
 6367TIP3   OH240735   3.438   1.304   7.827  0.3355 -0.2702 -0.2852
 6367TIP3    H140736   3.407   1.383   7.871 -1.8778 -0.1124 -1.9559
 6367TIP3    H240737   3.431   1.235   7.893 -2.0259  0.1119 -0.0483
 6368TIP3   OH240738   2.051   2.259   1.098  0.0753  0.8503 -0.1389
 6368TIP3    H140739   2.115   2.324   1.125 -0.7584  1.6005  0.0880
 6368TIP3    H240740   1.974   2.310   1.071 -0.1984  0.0040 -1.0386
 6369TIP3   OH240741   4.415   6.774   0.352 -0.1642  0.4301  0.0171
 6369TIP3    H140742   4.473   6.719   0.300 -1.5294  1.7785 -3.2410
 6369TIP3    H240743   4.332   6.726   0.354 -0.0943  0.3442  1.0959
 6370TIP3   OH240744   6.888   1.000   1.156 -0.3949  0.1872 -0.1023
 6370TIP3    H140745   6.909   0.907   1.157  1.3731  0.3997 -3.2904
 6370TIP3    H240746   6.814   1.008   1.096  1.0889  0.9466 -1.9682
 6371TIP3   OH240747   6.791   3.995   7.838 -0.0811 -0.2338 -0.6868
 6371TIP3    H140748   6.703   3.960   7.848 -0.7931  1.6957  0.4190
 6371TIP3    H240749   6.834   3.979   7.922 -1.2252  3.3771  0.7883
 6372TIP3   OH240750   6.123   6.887   6.258 -0.1300  0.1268 -0.0306
 6372TIP3    H140751   6.151   6.978   6.268  0.6265 -0.0319 -0.5738
 6372TIP3    H240752   6.089   6.863   6.343 -0.8330  1.0842 -0.0247
 6373TIP3   OH240753   3.893   3.523   0.310  0.1795 -0.2005  0.1231
 6373TIP3    H140754   3.884   3.469   0.389 -1.4258  0.7200  0.6210
 6373TIP3    H240755   3.900   3.613   0.344  0.2732  0.1321 -0.7645
 6374TIP3   OH240756   1.091   1.196   7.132  0.1190 -0.4662  0.3101
 6374TIP3    H140757   1.091   1.286   7.100 -0.7600 -0.2084  0.9830
 6374TIP3    H240758   1.009   1.159   7.098  0.3290 -0.9263  0.2894
 6375TIP3   OH240759   5.018   0.147   7.893 -0.5316 -0.4047 -0.1845
 6375TIP3    H140760   4.979   0.156   7.806  0.1207 -0.1159 -0.4470
 6375TIP3    H240761   5.001   0.231   7.936 -0.9682 -0.5926  0.0232
 6376TIP3   OH240762   5.475   5.799   2.479  0.0424  0.4151 -0.1991
 6376TIP3    H140763   5.549   5.859   2.476  1.3969 -1.1856 -0.1231
 6376TIP3    H240764   5.514   5.713   2.493 -1.8710 -0.4337  0.2670
 6377TIP3   OH240765   3.906   3.246   7.261  0.5497 -0.6975  0.0369
 6377TIP3    H140766   3.834   3.219   7.204  0.9889 -2.9752  0.4539
 6377TIP3    H240767   3.955   3.310   7.209 -0.7644 -0.4307 -0.9277
 6378TIP3   OH240768   4.828   2.944   1.437  0.2228  0.2287  0.6977
 6378TIP3    H140769   4.817   2.865   1.384 -0.1502 -0.1776  1.3635
 6378TIP3    H240770   4.891   2.919   1.504  0.8733  0.8118  0.3188
 6379TIP3   OH240771   3.553   5.930   2.634 -0.3287  0.1619  0.1193
 6379TIP3    H140772   3.472   5.956   2.678 -0.1152 -1.3792  1.4863
 6379TIP3    H240773   3.568   5.840   2.661  1.7472  0.3397 -0.2379
 6380TIP3   OH240774   6.568   5.863   2.713 -0.4036  0.1741 -0.3395
 6380TIP3    H140775   6.659   5.894   2.716 -0.5842  0.7490 -0.6475
 6380TIP3    H240776   6.518   5.934   2.752 -0.8473  0.3772 -1.2391
 6381TIP3   OH240777   3.164   5.123   8.025 -0.3358  0.1953  0.0702
 6381TIP3    H140778   3.139   5.036   8.056 -0.6256  0.4848  0.6638
 6381TIP3    H240779   3.232   5.107   7.959  0.4019 -0.4366  0.9631
 6382TIP3   OH240780   2.490   6.393   1.597  0.1840 -0.3850 -0.2784
 6382TIP3    H140781   2.531   6.342   1.667  1.4255 -1.7819 -1.9640
 6382TIP3    H240782   2.557   6.454   1.568 -0.3934  0.3309 -0.1594
 6383TIP3   OH240783   3.428   5.336   7.503  0.3742  0.2315 -0.1243
 6383TIP3    H140784   3.386   5.420   7.483  0.1407  0.4007  1.0246
 6383TIP3    H240785   3.473   5.350   7.586 -0.9370 -1.1952  0.8868
 6384TIP3   OH240786   6.739   0.920   8.507 -0.3448  0.0918  0.1346
 6384TIP3    H140787   6.830   0.950   8.499 -0.2195 -0.5138 -0.9380
 6384TIP3    H240788   6.690   0.977   8.447 -0.8850  1.1682  1.5520
 6385TIP3   OH240789   4.299   5.648   1.123 -0.3279 -0.1875 -0.2155
 6385TIP3    H140790   4.263   5.577   1.177  0.3520 -2.1658 -2.1774
 6385TIP3    H240791   4.384   5.666   1.162 -0.9140  0.2610  0.8849
 6386TIP3   OH240792   6.127   2.649   7.530  0.2178  0.2597 -0.3906
 6386TIP3    H140793   6.058   2.583   7.533  0.9078 -0.4559  0.5493
 6386TIP3    H240794   6.115   2.694   7.447 -1.2352 -0.0020 -0.3341
 6387TIP3   OH240795   2.267   6.280   1.123  0.0941  0.1688  0.0368
 6387TIP3    H140796   2.174   6.292   1.105  0.0019  0.3260  0.6067
 6387TIP3    H240797   2.276   6.299   1.217  0.2039 -2.6833  0.6872
 6388TIP3   OH240798   6.873   3.344   2.967  0.0233  0.4846  0.3612
 6388TIP3    H140799   6.874   3.250   2.985  1.1236  0.5915  0.9656
 6388TIP3    H240800   6.807   3.379   3.027 -1.7152 -0.0984 -1.1258
 6389TIP3   OH240801   1.612   3.935   7.707 -0.5147  0.3583 -0.2197
 6389TIP3    H140802   1.621   4.014   7.655  2.1908 -0.3436 -0.9883
 6389TIP3    H240803   1.655   3.867   7.654  1.5407 -0.5790  2.4222
 6390TIP3   OH240804   5.106   3.264   7.975 -0.0288  0.2584 -0.6504
 6390TIP3    H140805   5.121   3.342   8.028 -2.1728 -0.5656  1.3180
 6390TIP3    H240806   5.024   3.281   7.929  0.0664 -0.3906 -1.0790
 6391TIP3   OH240807   5.277   3.231   1.197 -0.0662  0.0029  0.1440
 6391TIP3    H140808   5.199   3.179   1.215 -0.5768  0.4701 -0.6281
 6391TIP3    H240809   5.341   3.203   1.262 -0.6841 -0.8125  0.4152
 6392TIP3   OH240810   5.436   1.362   7.145 -0.1444  0.3947  0.2869
 6392TIP3    H140811   5.402   1.273   7.151  0.2872  0.2842  1.1171
 6392TIP3    H240812   5.406   1.392   7.059  0.5652 -0.9011 -0.4495
 6393TIP3   OH240813   6.525   0.345   7.842 -0.0574 -0.4377  0.4617
 6393TIP3    H140814   6.588   0.352   7.771 -1.1221  1.0924 -0.3872
 6393TIP3    H240815   6.520   0.252   7.861  0.3162 -0.8755 -1.4077
 6394TIP3   OH240816   2.830   1.466   1.152  0.0908 -0.0311  0.2274
 6394TIP3    H140817   2.739   1.492   1.141  0.0399  0.0132  0.7475
 6394TIP3    H240818   2.842   1.395   1.088 -0.7765 -1.1644  1.2727
 6395TIP3   OH240819   0.984   0.284   0.302 -0.0254 -0.6426 -0.2204
 6395TIP3    H140820   0.977   0.205   0.249 -0.8542  0.7785 -2.3746
 6395TIP3    H240821   0.893   0.305   0.325  0.3452 -1.7558  2.7634
 6396TIP3   OH240822   1.595   4.441   1.895 -0.4329 -0.7013  0.7025
 6396TIP3    H140823   1.570   4.482   1.812 -1.1063 -0.2470  1.1242
 6396TIP3    H240824   1.638   4.359   1.869  1.3294  0.4360 -0.1781
 6397TIP3   OH240825   5.147   0.750   7.641  0.2730 -0.6972  0.1380
 6397TIP3    H140826   5.189   0.740   7.727  0.4843 -1.3502 -0.0342
 6397TIP3    H240827   5.053   0.750   7.660  0.3040 -1.4410  0.3195
 6398TIP3   OH240828   4.074   2.657   0.869 -0.4731 -0.4323  0.4806
 6398TIP3    H140829   4.126   2.585   0.906 -1.3601  0.6893  4.3339
 6398TIP3    H240830   3.985   2.622   0.863 -0.2637 -0.7710 -1.3653
 6399TIP3   OH240831   5.047   5.416   0.425  0.1883 -0.4828  0.2433
 6399TIP3    H140832   5.125   5.424   0.480 -0.8554 -0.4527  1.8131
 6399TIP3    H240833   5.004   5.336   0.456 -1.0151  0.1530  0.2959
 6400TIP3   OH240834   0.553   0.250   0.143  0.0168  0.1345 -0.0750
 6400TIP3    H140835   0.567   0.304   0.065 -0.1218  1.0209  0.4944
 6400TIP3    H240836   0.458   0.241   0.149 -0.2594  3.0808  1.9163
 6401TIP3   OH240837   3.646   0.290   2.266  0.3644  0.1482  0.0758
 6401TIP3    H140838   3.734   0.321   2.246 -0.5140  1.7610 -1.5371
 6401TIP3    H240839   3.658   0.226   2.337  2.7543  0.6646  0.1937
 6402TIP3   OH240840   0.013   2.051   0.358 -0.3628 -0.1216 -0.3067
 6402TIP3    H140841   0.046   2.130   0.402  1.3896 -0.5060 -0.8529
 6402TIP3    H240842  -0.049   2.084   0.293  2.2838  1.1427 -2.3932
 6403TIP3   OH240843   2.701   6.068   8.086 -0.3409 -0.0771 -0.7400
 6403TIP3    H140844   2.782   6.045   8.132 -0.2831 -0.9632 -1.2593
 6403TIP3    H240845   2.677   6.154   8.121  1.1892  0.5102 -1.0653
 6404TIP3   OH240846   4.254   1.869   0.669 -0.4680  0.2960 -0.3050
 6404TIP3    H140847   4.238   1.867   0.574 -2.2023 -0.4574 -0.0432
 6404TIP3    H240848   4.239   1.778   0.697 -0.0243  0.5283  0.7007
 6405TIP3   OH240849   0.257   2.632   8.357 -0.6083 -0.1318  0.4406
 6405TIP3    H140850   0.264   2.721   8.324 -2.3525  0.2335  0.9737
 6405TIP3    H240851   0.164   2.613   8.358 -0.2850 -1.9469  0.4255
 6406TIP3   OH240852   2.860   3.938   2.746 -0.2503 -0.3507  0.0476
 6406TIP3    H140853   2.916   4.013   2.765 -0.6977  0.0203 -0.0870
 6406TIP3    H240854   2.921   3.866   2.731  0.2312  0.2789 -1.1421
 6407TIP3   OH240855   0.643   4.602   1.837 -0.3238  0.5827 -0.4833
 6407TIP3    H140856   0.736   4.618   1.847 -0.3057  0.7820 -0.9326
 6407TIP3    H240857   0.636   4.542   1.763 -0.4679 -0.6100  0.4614
 6408TIP3   OH240858   3.038   2.347   0.812  0.1388 -0.3480  0.2715
 6408TIP3    H140859   2.977   2.285   0.850  1.1767 -1.2696  0.4902
 6408TIP3    H240860   3.123   2.322   0.848  0.4713  1.7667  1.0641
 6409TIP3   OH240861   4.305   1.822   2.278  0.3861  0.0358  0.0611
 6409TIP3    H140862   4.341   1.756   2.337 -0.1728 -0.5426 -0.2333
 6409TIP3    H240863   4.242   1.774   2.224 -1.7989  1.2367  1.3915
 6410TIP3   OH240864   3.329   4.739   1.354 -0.3144 -0.6062  0.0938
 6410TIP3    H140865   3.357   4.648   1.344  0.4456 -0.2770 -0.9216
 6410TIP3    H240866   3.233   4.735   1.351 -0.3184 -1.4550  0.9081
 6411TIP3   OH240867   1.542   2.955   0.091  0.2182 -0.6353  0.1536
 6411TIP3    H140868   1.627   2.912   0.083 -0.3727 -2.1969  1.5249
 6411TIP3    H240869   1.563   3.048   0.096  1.9842 -1.0380  1.5861
 6412TIP3   OH240870   3.707   0.037   8.157  0.6364  0.0805 -0.0103
 6412TIP3    H140871   3.762   0.114   8.170 -0.1803  0.8755 -1.0747
 6412TIP3    H240872   3.701  -0.003   8.244 -0.9117  2.6066  1.1632
 6413TIP3   OH240873   4.822   5.124   1.830 -0.3805 -0.5010  0.1206
 6413TIP3    H140874   4.780   5.084   1.754 -2.2249  0.9285  0.3210
 6413TIP3    H240875   4.776   5.086   1.905 -1.0799  0.7721  0.3621
 6414TIP3   OH240876   3.137   1.028   1.865 -0.1943  0.4091 -0.1804
 6414TIP3    H140877   3.049   1.004   1.894 -0.2573  1.8858  0.9507
 6414TIP3    H240878   3.130   1.120   1.838  0.6968  0.1391 -1.4597
 6415TIP3   OH240879   2.267   5.503   0.883 -0.6608  0.0810 -0.0633
 6415TIP3    H140880   2.259   5.598   0.880  0.0607  0.2132  1.3472
 6415TIP3    H240881   2.345   5.484   0.830 -0.8922  0.2421 -0.4712
 6416TIP3   OH240882   2.070   2.013   0.399  0.0016  0.1472 -0.1785
 6416TIP3    H140883   2.065   2.100   0.440  0.4253 -0.6923  1.7745
 6416TIP3    H240884   2.021   2.022   0.317 -1.6929  1.7153  0.9186
 6417TIP3   OH240885   6.364   1.320   7.829 -0.3860  0.5907 -0.2751
 6417TIP3    H140886   6.320   1.244   7.866  0.9923 -0.1052 -0.0223
 6417TIP3    H240887   6.323   1.332   7.743 -0.5754 -0.4491 -0.3361
 6418TIP3   OH240888   6.507   5.727   0.470  0.3682  0.2225 -0.3460
 6418TIP3    H140889   6.469   5.700   0.554 -0.9058  0.4234 -0.8505
 6418TIP3    H240890   6.564   5.654   0.445 -2.5847 -1.9117 -1.4359
 6419TIP3   OH240891   0.623   0.266   1.025 -0.1557  0.7977 -1.3104
 6419TIP3    H140892   0.701   0.317   0.999  0.9519 -0.1809 -0.0657
 6419TIP3    H240893   0.605   0.295   1.114  0.9969 -1.4976 -0.2692
 6420TIP3   OH240894   2.548   0.753   7.780 -0.1470 -0.3974  0.4297
 6420TIP3    H140895   2.502   0.793   7.854 -1.1917 -0.5599 -0.1166
 6420TIP3    H240896   2.511   0.796   7.703  0.9958 -0.1641 -0.0049
 6421TIP3   OH240897   0.017   0.174   7.696 -0.0721  0.2820  0.3517
 6421TIP3    H140898   0.105   0.193   7.663 -0.2679 -0.0634 -0.3939
 6421TIP3    H240899   0.030   0.147   7.786  0.6795 -0.5049  0.0195
 6422TIP3   OH240900   1.203   5.537   2.332 -0.1660 -0.0872  0.1771
 6422TIP3    H140901   1.194   5.446   2.302 -0.7814 -0.3726  1.1702
 6422TIP3    H240902   1.215   5.529   2.427 -3.2213  0.9737  0.7511
 6423TIP3   OH240903   6.264   3.947   0.523  0.6633 -0.4083 -0.5202
 6423TIP3    H140904   6.222   4.023   0.483 -0.6283 -0.6358  0.3326
 6423TIP3    H240905   6.311   3.983   0.598  2.1267 -0.1407 -1.5290
 6424TIP3   OH240906   1.418   3.743   2.985  0.8031  0.1062  0.0084
 6424TIP3    H140907   1.346   3.781   3.035  0.4684 -1.8383  1.1037
 6424TIP3    H240908   1.461   3.818   2.943  0.9131  1.8628  2.9881
 6425TIP3   OH240909   1.271   0.279   7.048 -0.4028 -0.7117  0.2300
 6425TIP3    H140910   1.282   0.243   6.960 -2.1143  0.3031 -0.4338
 6425TIP3    H240911   1.212   0.353   7.037 -1.5184 -1.2030  2.3848
 6426TIP3   OH240912   5.134   1.980   0.317 -0.0965  0.0630 -0.2268
 6426TIP3    H140913   5.218   1.941   0.341 -0.3287 -1.0110 -1.1491
 6426TIP3    H240914   5.077   1.906   0.295 -0.8796  0.8529 -0.9337
 6427TIP3   OH240915   1.546   5.216   1.862  0.0029 -0.4070 -0.5439
 6427TIP3    H140916   1.568   5.203   1.770  0.0662  2.0600 -0.9309
 6427TIP3    H240917   1.622   5.261   1.899 -1.4859  2.0497 -0.2467
 6428TIP3   OH240918   4.551   0.585   1.747  0.4308 -0.7791  0.0479
 6428TIP3    H140919   4.624   0.621   1.798 -0.2573  0.0721  0.4635
 6428TIP3    H240920   4.592   0.550   1.668  1.1896  0.7477 -0.2780
 6429TIP3   OH240921   5.508   4.439   1.767  0.3766 -0.5583 -0.2835
 6429TIP3    H140922   5.541   4.474   1.849  0.2984 -1.4940  0.1629
 6429TIP3    H240923   5.509   4.513   1.706 -2.7967  1.1115  1.4372
 6430TIP3   OH240924   4.006   0.019   2.730 -0.2016  0.3461 -0.1806
 6430TIP3    H140925   4.092   0.025   2.771 -0.5530 -1.5144  0.8954
 6430TIP3    H240926   3.973   0.109   2.732  1.3837  0.9598  0.0708
 6431TIP3   OH240927   6.513   6.188   2.085  0.3368  0.5048  0.7843
 6431TIP3    H140928   6.433   6.141   2.108 -0.1191  1.7881  1.9667
 6431TIP3    H240929   6.558   6.130   2.025 -0.8033 -0.8728  1.1998
 6432TIP3   OH240930   0.725   3.259   1.043  0.3619 -0.0930 -0.0169
 6432TIP3    H140931   0.714   3.323   0.973 -0.1251 -1.0442 -0.8570
 6432TIP3    H240932   0.815   3.228   1.033  1.1818  1.6599  1.4914
 6433TIP3   OH240933   4.048   1.332   0.736  0.3464 -0.2546  0.0642
 6433TIP3    H140934   3.999   1.354   0.656  2.3764  0.3613 -1.0592
 6433TIP3    H240935   3.988   1.274   0.784 -0.6195 -1.3765 -2.2999
 6434TIP3   OH240936   6.052   1.545   1.235 -0.4858 -0.0688 -0.4212
 6434TIP3    H140937   5.974   1.543   1.179 -0.2146  1.0473 -0.8750
 6434TIP3    H240938   6.101   1.467   1.212 -2.1332 -1.5947  0.8979
 6435TIP3   OH240939   4.044   2.846   0.611  0.1778 -0.2331 -0.5131
 6435TIP3    H140940   3.974   2.840   0.676  0.7240  1.1901  0.2685
 6435TIP3    H240941   4.124   2.823   0.660  0.4714 -0.1450 -0.9427
 6436TIP3   OH240942   3.552   1.388   8.157  0.0269 -0.2690 -0.1672
 6436TIP3    H140943   3.640   1.373   8.191 -0.5623 -0.2684  1.4470
 6436TIP3    H240944   3.520   1.300   8.133  0.5160 -0.2462 -0.9295
 6437TIP3   OH240945   1.956   1.079   1.630 -0.2852  0.1976  0.1400
 6437TIP3    H140946   1.977   1.101   1.539 -0.1593  2.6296  0.6810
 6437TIP3    H240947   1.880   1.134   1.651  0.2224  0.3410  1.7392
 6438TIP3   OH240948   2.436   5.967   2.435  0.5505 -0.2810  0.1034
 6438TIP3    H140949   2.496   5.922   2.494 -0.3166 -2.2538 -0.4505
 6438TIP3    H240950   2.400   5.898   2.379 -0.5064  1.1712 -1.1044
 6439TIP3   OH240951   1.029   4.522   2.227  0.2716  0.5475  1.0143
 6439TIP3    H140952   0.962   4.591   2.223 -0.0789  0.1591 -1.2843
 6439TIP3    H240953   1.067   4.521   2.139  0.8306 -1.6298  1.2346
 6440TIP3   OH240954   2.839   1.728   8.170  0.3588 -0.1135 -0.7476
 6440TIP3    H140955   2.853   1.642   8.131 -0.7567 -0.7752  0.2440
 6440TIP3    H240956   2.927   1.757   8.197  0.9703 -0.1766 -2.5815
 6441TIP3   OH240957   0.248   5.010   7.932  0.0707 -0.0793  0.1933
 6441TIP3    H140958   0.337   5.019   7.964  0.9337 -0.9052 -1.7957
 6441TIP3    H240959   0.237   4.916   7.917  0.5525  0.3137 -3.7601
 6442TIP3   OH240960   6.376   3.726   0.607 -0.6491  0.3955 -0.2067
 6442TIP3    H140961   6.361   3.815   0.577 -1.4563  0.8515  1.4441
 6442TIP3    H240962   6.357   3.728   0.701 -3.4884 -2.0701 -0.5576
 6443TIP3   OH240963   3.054   2.844   1.520 -0.3052 -0.4439  0.4166
 6443TIP3    H140964   3.086   2.817   1.434  0.5833 -1.8484  1.1428
 6443TIP3    H240965   2.991   2.775   1.544 -1.1737  0.3801  0.5410
 6444TIP3   OH240966   1.832   0.991   0.718  0.5161 -0.7095  0.6526
 6444TIP3    H140967   1.743   0.979   0.684  0.3069 -0.2214  1.0161
 6444TIP3    H240968   1.889   0.966   0.646  0.1633  3.5218 -1.4242
 6445TIP3   OH240969   0.762   1.819   2.325 -0.1221 -0.4661  0.3989
 6445TIP3    H140970   0.815   1.896   2.346  1.4479 -1.0264 -1.2660
 6445TIP3    H240971   0.671   1.850   2.330  0.4297  1.1784  0.8849
 6446TIP3   OH240972   2.625   0.546   0.882 -0.3916  0.6799  0.2723
 6446TIP3    H140973   2.694   0.525   0.819  0.5956 -0.2748  1.6157
 6446TIP3    H240974   2.661   0.618   0.934 -0.2391 -0.0171  1.1701
 6447TIP3   OH240975   4.103   0.534   1.706 -0.0771  0.2735  0.0739
 6447TIP3    H140976   4.116   0.593   1.780 -0.4836  1.8858 -1.0781
 6447TIP3    H240977   4.046   0.583   1.646 -0.3212 -1.2493 -0.9895
 6448TIP3   OH240978   6.561   0.210   8.459 -0.5976  0.0764  0.2011
 6448TIP3    H140979   6.511   0.129   8.477  0.2348 -0.3848  0.4860
 6448TIP3    H240980   6.652   0.181   8.454  0.1313  1.4031  3.3899
 6449TIP3   OH240981   3.734   2.595   1.818  0.2811 -0.5026 -0.0607
 6449TIP3    H140982   3.657   2.597   1.762 -1.6143 -2.1229  2.2888
 6449TIP3    H240983   3.801   2.551   1.766 -1.1524 -1.2904 -1.2943
 6450TIP3   OH240984   4.409   4.264   3.258  0.0048 -0.7243 -0.1043
 6450TIP3    H140985   4.461   4.211   3.197  0.2325  0.5918 -1.1071
 6450TIP3    H240986   4.362   4.326   3.201 -1.0839 -0.5453  0.9479
 6451TIP3   OH240987   1.508   6.578   1.503 -0.1922 -0.0568 -0.3327
 6451TIP3    H140988   1.594   6.541   1.522 -0.5711 -0.0951  1.4946
 6451TIP3    H240989   1.464   6.512   1.449  0.6069 -0.4099 -0.5553
 6452TIP3   OH240990   3.645   5.275   2.827  0.1082  0.3455 -0.5190
 6452TIP3    H140991   3.690   5.358   2.842 -0.2787  0.8956 -2.1581
 6452TIP3    H240992   3.563   5.300   2.783 -0.3649 -0.8445 -0.3466
 6453TIP3   OH240993   1.198   4.733   7.738  0.2043 -0.3673 -0.0610
 6453TIP3    H140994   1.202   4.798   7.808  0.2103  2.2645 -2.3469
 6453TIP3    H240995   1.283   4.689   7.742  0.9594  1.0465  0.4521
 6454TIP3   OH240996   1.271   2.770   8.015  0.0722  0.3335  0.3153
 6454TIP3    H140997   1.353   2.819   8.004  0.2054  0.3354  1.2129
 6454TIP3    H240998   1.260   2.723   7.932  1.9374 -1.0685  0.8019
 6455TIP3   OH240999   5.539   1.148   7.926 -0.5253 -0.3728  0.0255
 6455TIP3    H141000   5.517   1.128   8.018 -4.4927  0.5898 -0.5505
 6455TIP3    H241001   5.519   1.067   7.879 -0.1330 -0.3260 -0.2275
 6456TIP3   OH241002   3.004   2.587   0.685 -0.5079 -0.2119  0.1158
 6456TIP3    H141003   3.013   2.502   0.727 -0.3763  0.5220  1.6105
 6456TIP3    H241004   2.998   2.650   0.757  0.6031  1.1825 -0.9476
 6457TIP3   OH241005   1.985   5.555   0.875 -0.4035 -0.0368  0.1070
 6457TIP3    H141006   1.942   5.606   0.806 -1.7096 -0.3211  0.6761
 6457TIP3    H241007   2.068   5.527   0.837 -0.0870  1.6879 -0.5626
 6458TIP3   OH241008   4.015   5.356   7.282  0.1207  0.0157 -0.0140
 6458TIP3    H141009   4.097   5.379   7.238 -0.7773  0.6792 -1.3870
 6458TIP3    H241010   3.996   5.267   7.253 -0.1348  0.2115 -0.4444
 6459TIP3   OH241011   5.115   6.658   2.184  1.1006  0.1139 -0.3862
 6459TIP3    H141012   5.151   6.729   2.131  1.3524  0.3083  0.0347
 6459TIP3    H241013   5.105   6.584   2.124 -2.7504  1.5478 -1.8180
 6460TIP3   OH241014   0.696   5.619   2.049  0.4843  0.1074  0.6040
 6460TIP3    H141015   0.754   5.572   2.109 -1.0729 -0.9680  1.3271
 6460TIP3    H241016   0.609   5.609   2.087 -0.5020 -0.2175 -1.5898
 6461TIP3   OH241017   5.333   0.676   8.139 -0.5836  0.1856 -0.0096
 6461TIP3    H141018   5.300   0.610   8.200  0.3264 -1.2071 -0.9516
 6461TIP3    H241019   5.391   0.730   8.192 -0.5423 -0.4096  0.5703
 6462TIP3   OH241020   5.433   0.442   7.793  0.2951 -0.4565  0.5117
 6462TIP3    H141021   5.519   0.436   7.751  0.2840  1.1477  0.2020
 6462TIP3    H241022   5.446   0.404   7.880  1.4540  0.2035  0.6445
 6463TIP3   OH241023   4.781   0.789   1.265  0.0820 -0.7359 -0.6131
 6463TIP3    H141024   4.690   0.766   1.283 -0.0644 -0.0560 -0.4503
 6463TIP3    H241025   4.776   0.875   1.223  0.8032  0.7623  2.1308
 6464TIP3   OH241026   4.602   0.470   7.666  0.2864 -0.0095 -0.8069
 6464TIP3    H141027   4.634   0.397   7.718  2.4668  1.5451  0.1576
 6464TIP3    H241028   4.593   0.434   7.577 -0.9449 -1.9929  0.0400
 6465TIP3   OH241029   5.834   6.126   2.588 -0.2147 -0.7152 -0.4515
 6465TIP3    H141030   5.926   6.106   2.603  0.0636  1.0045  0.2672
 6465TIP3    H241031   5.790   6.097   2.668  0.1624  1.2143  0.5063
 6466TIP3   OH241032   4.504   3.432   2.118 -0.0257 -0.0847 -0.4208
 6466TIP3    H141033   4.500   3.423   2.023  0.5747  0.5665 -0.5151
 6466TIP3    H241034   4.435   3.375   2.151 -0.7962  0.3423 -1.2808
 6467TIP3   OH241035   5.488   5.211   0.592 -0.4630 -0.1244  0.5431
 6467TIP3    H141036   5.478   5.143   0.527  1.5698 -0.7290  0.8018
 6467TIP3    H241037   5.530   5.284   0.546 -1.1138  0.3343  0.6553
 6468TIP3   OH241038   4.829   2.094   7.435 -0.3993  0.1533  0.0751
 6468TIP3    H141039   4.777   2.030   7.387  1.8046 -0.1042 -2.1667
 6468TIP3    H241040   4.861   2.047   7.511  0.8883 -1.3989 -1.3538
 6469TIP3   OH241041   0.767   6.430   0.438 -0.2048 -0.1463 -0.2313
 6469TIP3    H141042   0.848   6.391   0.407  1.5497  1.1194  2.3864
 6469TIP3    H241043   0.766   6.518   0.399  0.3712  0.2990  0.7335
 6470TIP3   OH241044   0.276   5.149   7.658 -0.2085 -0.3057  0.0591
 6470TIP3    H141045   0.195   5.112   7.624 -0.2720 -1.3695  1.2920
 6470TIP3    H241046   0.327   5.170   7.580 -1.4690 -0.0674 -0.7208
 6471TIP3   OH241047   0.972   6.004   1.984  0.2195 -0.1307  0.1289
 6471TIP3    H141048   0.933   6.088   1.959 -1.8863 -0.8160  0.9225
 6471TIP3    H241049   1.011   5.971   1.903 -1.0863  0.4968 -0.8070
 6472TIP3   OH241050   0.056   4.789   7.811  0.3315 -0.5396 -0.8182
 6472TIP3    H141051   0.050   4.707   7.860 -0.7974  0.8003  1.4149
 6472TIP3    H241052  -0.020   4.787   7.752  0.4700 -1.1934 -0.9832
 6473TIP3   OH241053   3.411   6.772   1.564  0.0687  0.5101 -0.1329
 6473TIP3    H141054   3.412   6.706   1.494  0.6456 -0.5024  0.8035
 6473TIP3    H241055   3.348   6.738   1.628  1.6588 -0.0630  1.1908
 6474TIP3   OH241056   3.677   6.553   0.430 -0.1081 -0.1085 -0.1870
 6474TIP3    H141057   3.767   6.545   0.460 -0.1595  0.3191  0.0826
 6474TIP3    H241058   3.641   6.464   0.440 -1.2663  0.6113  4.6907
 6475TIP3   OH241059   6.276   6.692   2.250 -0.7682  0.3741  0.5725
 6475TIP3    H141060   6.355   6.737   2.279  1.7141 -2.4678 -1.1880
 6475TIP3    H241061   6.266   6.619   2.311 -1.8380  0.4768  0.5448
 6476TIP3   OH241062   0.492   1.443   2.974 -0.3302  0.4445 -0.1801
 6476TIP3    H141063   0.484   1.385   3.049  2.5330  2.3452  1.8047
 6476TIP3    H241064   0.548   1.395   2.912 -1.0115 -0.3139 -0.2232
 6477TIP3   OH241065   1.999   4.102   2.074 -0.3264  0.5956 -0.6267
 6477TIP3    H141066   1.961   4.048   2.143  0.9922  1.1774  0.6043
 6477TIP3    H241067   1.955   4.186   2.082 -0.2392  0.6339 -0.5401
 6478TIP3   OH241068   2.290   2.949   2.021 -0.1665  0.1010 -0.3780
 6478TIP3    H141069   2.228   2.935   2.093  0.5161  1.8750  0.6211
 6478TIP3    H241070   2.359   2.885   2.036 -1.2701 -1.2769 -0.9756
 6479TIP3   OH241071   4.772   3.134   7.973 -0.1024  0.1705 -0.6863
 6479TIP3    H141072   4.801   3.223   7.953  0.3332  0.5896  1.5173
 6479TIP3    H241073   4.684   3.144   8.009  0.2544 -0.1605  0.3288
 6480TIP3   OH241074   0.006   4.631   8.509  0.2360 -0.2212  0.4898
 6480TIP3    H141075   0.079   4.651   8.568  0.3902 -0.9200  0.5448
 6480TIP3    H241076  -0.059   4.590   8.566 -0.7113  1.4783  0.6790
 6481TIP3   OH241077   0.748   5.886   1.011 -0.5843 -0.3399  0.2637
 6481TIP3    H141078   0.758   5.972   0.971  0.8152  0.0376  1.3417
 6481TIP3    H241079   0.664   5.890   1.056 -1.4267 -0.2253 -1.2642
 6482TIP3   OH241080   6.858   2.248   7.818 -0.9222  0.2318  0.1425
 6482TIP3    H141081   6.911   2.280   7.746 -1.1581 -0.0690 -0.1692
 6482TIP3    H241082   6.791   2.193   7.776 -0.3862 -0.8722  0.6741
 6483TIP3   OH241083   5.946   1.905   6.672  1.1682 -0.1814 -0.3803
 6483TIP3    H141084   5.987   1.991   6.660 -0.0970  0.5619  0.4104
 6483TIP3    H241085   5.852   1.922   6.662  1.0101 -1.8994 -2.5512
 6484TIP3   OH241086   3.938   1.563   7.007  0.1385 -0.1648  0.4596
 6484TIP3    H141087   4.016   1.548   7.061  0.2468 -0.5765  0.1929
 6484TIP3    H241088   3.865   1.541   7.064  0.0659  2.4167  1.5012
 6485TIP3   OH241089   6.550   2.687   6.757  0.0144  0.4817  0.0780
 6485TIP3    H141090   6.619   2.739   6.717 -0.4833  0.7676 -0.4132
 6485TIP3    H241091   6.531   2.619   6.693 -1.8459  1.8341 -0.9017
 6486TIP3   OH241092   6.713   3.539   1.296 -0.3415  0.3008 -0.8188
 6486TIP3    H141093   6.756   3.487   1.228  1.7797  0.5145  0.2536
 6486TIP3    H241094   6.624   3.552   1.265 -0.1708 -1.7591 -2.3298
 6487TIP3   OH241095   2.130   5.994   0.385  0.4361  0.6788  0.7818
 6487TIP3    H141096   2.123   6.050   0.308  0.3207 -1.0862 -0.5481
 6487TIP3    H241097   2.042   5.991   0.422 -0.4163 -1.3449 -1.1967
 6488TIP3   OH241098   4.574   0.883   3.370 -0.2319 -0.5107  0.1014
 6488TIP3    H141099   4.530   0.821   3.313 -1.0799  0.6016 -0.4851
 6488TIP3    H241100   4.633   0.932   3.313 -0.2721 -0.1403  0.3669
 6489TIP3   OH241101   5.814   2.868   2.264 -1.0306 -0.1849 -0.3754
 6489TIP3    H141102   5.887   2.832   2.314 -1.9911 -2.1257 -0.2816
 6489TIP3    H241103   5.854   2.905   2.185  0.1365 -0.2800  0.1563
 6490TIP3   OH241104   5.248   4.820   7.115  0.2901  0.3458 -0.0924
 6490TIP3    H141105   5.309   4.893   7.103 -0.1096  0.6782 -0.1164
 6490TIP3    H241106   5.172   4.844   7.062  0.3866 -0.3578 -0.5628
 6491TIP3   OH241107   1.176   2.385   1.126  0.4718 -0.3435  0.5674
 6491TIP3    H141108   1.161   2.378   1.220  0.0704 -0.1837  0.5152
 6491TIP3    H241109   1.204   2.476   1.113  0.7446 -0.4278  0.5622
 6492TIP3   OH241110   1.593   0.781   1.124 -0.1225 -0.0693  0.1535
 6492TIP3    H141111   1.542   0.754   1.048  0.1503 -0.1901  0.0119
 6492TIP3    H241112   1.617   0.700   1.167 -0.4361  0.0068  0.4765
 6493TIP3   OH241113   5.808   2.773   1.834  1.0279 -0.7775  0.0346
 6493TIP3    H141114   5.741   2.754   1.899  0.7276 -0.1752 -0.0964
 6493TIP3    H241115   5.891   2.753   1.878  0.8573  0.1136  0.7803
 6494TIP3   OH241116   0.589   5.354   0.439  0.2023  0.2126 -0.7955
 6494TIP3    H141117   0.684   5.363   0.433  0.1023  1.3155 -0.9885
 6494TIP3    H241118   0.558   5.363   0.349 -0.0105 -1.5019 -0.9272
 6495TIP3   OH241119   5.363   2.362   8.444 -0.1745  0.5323 -0.4704
 6495TIP3    H141120   5.280   2.395   8.476 -0.2333  1.3356 -1.4145
 6495TIP3    H241121   5.426   2.430   8.466 -0.1135  0.8192 -1.5073
 6496TIP3   OH241122   3.180   5.070   0.323 -0.7591 -0.0107 -0.1219
 6496TIP3    H141123   3.241   5.072   0.396 -1.7460  0.2900  0.7217
 6496TIP3    H241124   3.139   5.156   0.323 -0.1883  0.2830 -1.5624
 6497TIP3   OH241125   5.566   5.512   1.737 -0.0640  0.5506 -0.1884
 6497TIP3    H141126   5.546   5.472   1.653  1.2631 -0.3201 -0.1316
 6497TIP3    H241127   5.624   5.586   1.716  1.4278 -0.5126  0.0119
 6498TIP3   OH241128   5.880   1.200   7.799 -0.1372  0.3384 -0.3973
 6498TIP3    H141129   5.870   1.214   7.893  0.2525 -0.5370 -0.2143
 6498TIP3    H241130   5.812   1.137   7.777  0.8612 -0.8032 -0.3493
 6499TIP3   OH241131   1.684   2.351   1.537 -0.3618 -0.2534  0.1228
 6499TIP3    H141132   1.754   2.399   1.583  0.5791 -1.8862  0.4626
 6499TIP3    H241133   1.728   2.274   1.501 -1.7238 -0.5792 -0.8910
 6500TIP3   OH241134   2.887   6.642   7.683  0.4623  0.0399 -0.4067
 6500TIP3    H141135   2.856   6.730   7.664 -1.4296 -0.7209 -1.0394
 6500TIP3    H241136   2.982   6.651   7.689  0.1919  2.6865  2.7046
 6501TIP3   OH241137   0.958   4.854   7.775  0.9124  0.1940  0.0128
 6501TIP3    H141138   1.039   4.820   7.737  0.8252 -0.4170  0.3633
 6501TIP3    H241139   0.903   4.877   7.700  0.6437 -1.2163 -0.2364
 6502TIP3   OH241140   2.909   5.463   1.827 -0.2939  0.1582  0.0037
 6502TIP3    H141141   2.837   5.450   1.765 -0.5809 -1.5682  0.6319
 6502TIP3    H241142   2.954   5.541   1.796 -2.4051  1.2693 -0.4398
 6503TIP3   OH241143   1.231   1.188   0.256  0.2037  0.1778  0.4685
 6503TIP3    H141144   1.178   1.160   0.182 -1.1209 -1.1720  1.8518
 6503TIP3    H241145   1.202   1.133   0.329  1.9198  0.9831  1.8465
 6504TIP3   OH241146   2.568   1.635   2.124  0.3778 -0.3405 -0.8122
 6504TIP3    H141147   2.481   1.597   2.137 -0.2930  1.2797 -0.3327
 6504TIP3    H241148   2.562   1.682   2.040  0.0238  1.6743  0.2707
 6505TIP3   OH241149   1.046   3.065   8.039  0.0746  0.1701  0.0441
 6505TIP3    H141150   1.058   2.973   8.064  1.6080  0.2943 -0.1662
 6505TIP3    H241151   1.101   3.076   7.961 -0.2091  1.2372 -0.0196
 6506TIP3   OH241152   5.451   1.788   8.140  1.0361 -0.7551  0.5540
 6506TIP3    H141153   5.426   1.849   8.070  1.7685  0.6851  1.5119
 6506TIP3    H241154   5.376   1.730   8.148 -0.2338  0.7880  0.4457
 6507TIP3   OH241155   5.846   4.548   7.627 -0.2292 -0.3273  0.6913
 6507TIP3    H141156   5.768   4.547   7.683 -0.8757 -0.4573 -0.1950
 6507TIP3    H241157   5.847   4.461   7.586 -0.0055 -0.0827  0.1708
 6508TIP3   OH241158   4.703   5.578   0.985 -0.1554 -0.3271 -0.1465
 6508TIP3    H141159   4.755   5.602   1.061  1.2724 -1.0936 -0.8359
 6508TIP3    H241160   4.728   5.641   0.918 -1.7065  0.6015  0.0886
 6509TIP3   OH241161   4.519   6.230   7.106 -0.0604 -0.3082  0.1360
 6509TIP3    H141162   4.536   6.271   7.021  0.6060  0.4204  0.6126
 6509TIP3    H241163   4.575   6.152   7.107  2.5383  1.4450  1.2174
 6510TIP3   OH241164   6.018   3.705   2.318  0.1950  0.0570 -0.4459
 6510TIP3    H141165   5.969   3.628   2.347 -1.1986  1.3553  0.9174
 6510TIP3    H241166   6.109   3.685   2.337 -0.1704 -1.1471  0.1252
 6511TIP3   OH241167   6.697   3.311   0.113  0.3284  0.0841  0.2759
 6511TIP3    H141168   6.611   3.269   0.116  0.8847 -1.0665  1.8071
 6511TIP3    H241169   6.684   3.395   0.157 -0.0981  0.0848  0.1557
 6512TIP3   OH241170   5.302   4.582   3.603  0.2115 -0.0616 -0.3071
 6512TIP3    H141171   5.210   4.594   3.623  0.5148  0.6556  0.7587
 6512TIP3    H241172   5.315   4.625   3.519 -0.2221  0.7255  0.0196
 6513TIP3   OH241173   5.631   2.081   8.069 -0.3475 -0.6132  1.0160
 6513TIP3    H141174   5.583   2.112   8.147 -1.1472  0.5325  0.1059
 6513TIP3    H241175   5.577   2.109   7.995  0.6089 -1.3206  0.0227
 6514TIP3   OH241176   5.515   4.428   3.467 -0.0094  0.2368 -0.8306
 6514TIP3    H141177   5.454   4.475   3.524 -1.6202 -1.1421 -1.2998
 6514TIP3    H241178   5.559   4.366   3.526 -0.1980  0.1937 -0.7320
 6515TIP3   OH241179   3.777   3.954   3.065  0.6984 -0.5374  0.3207
 6515TIP3    H141180   3.824   3.939   3.147  1.8308  0.3472 -0.1390
 6515TIP3    H241181   3.806   3.883   3.007 -0.7614 -1.6672  0.9332
 6516TIP3   OH241182   2.682   4.880   7.813 -0.4786  0.2293  0.1959
 6516TIP3    H141183   2.711   4.935   7.740 -0.2662 -1.4245 -1.0309
 6516TIP3    H241184   2.761   4.832   7.838 -0.6546  0.4791  1.2688
 6517TIP3   OH241185   5.151   4.291   1.818 -0.1022  0.1667 -0.1578
 6517TIP3    H141186   5.213   4.220   1.804  0.0849  0.2216  0.3881
 6517TIP3    H241187   5.171   4.324   1.905 -0.8132  0.2750 -0.0296
 6518TIP3   OH241188   6.796   4.662   1.242 -0.2604 -0.1455 -0.5075
 6518TIP3    H141189   6.753   4.716   1.176 -0.2295 -1.3391 -1.5385
 6518TIP3    H241190   6.887   4.692   1.243 -0.5553  0.7531 -0.0562
 6519TIP3   OH241191   5.153   1.774   1.363  0.0818 -0.2507 -0.1025
 6519TIP3    H141192   5.136   1.866   1.382  1.1672 -0.0175 -0.1774
 6519TIP3    H241193   5.070   1.730   1.382 -0.9538  0.9517 -1.5806
 6520TIP3   OH241194   0.049   1.259   6.961  0.3409  0.1527 -0.4029
 6520TIP3    H141195   0.036   1.256   7.056  1.3107  2.1981 -0.1548
 6520TIP3    H241196  -0.010   1.192   6.927 -2.3513  1.4018  1.4115
 6521TIP3   OH241197   2.518   4.506   8.423 -0.5786  0.4074  0.0661
 6521TIP3    H141198   2.465   4.427   8.420 -1.4594  0.9978 -1.0155
 6521TIP3    H241199   2.564   4.507   8.339 -0.1920  0.7730  0.2810
 6522TIP3   OH241200   6.214   2.835   1.142  0.3019  0.3770 -0.1959
 6522TIP3    H141201   6.226   2.740   1.142  0.7894  0.4180 -1.6580
 6522TIP3    H241202   6.197   2.857   1.234 -1.7526 -1.3521 -0.0800
 6523TIP3   OH241203   4.246   2.457   0.943 -0.7998  0.0284 -0.0313
 6523TIP3    H141204   4.232   2.364   0.964  1.9472  0.1698  3.1577
 6523TIP3    H241205   4.313   2.456   0.874  1.2138 -0.4470  1.8396
 6524TIP3   OH241206   5.531   2.577   8.229  0.0938  0.6499 -0.4907
 6524TIP3    H141207   5.447   2.563   8.185  0.9741 -4.0223 -1.2926
 6524TIP3    H241208   5.516   2.544   8.318  1.2386 -1.3734 -0.9861
 6525TIP3   OH241209   3.510   4.477   0.692  0.4920  0.0276  0.2876
 6525TIP3    H141210   3.462   4.553   0.659  1.7474  0.9541  0.5073
 6525TIP3    H241211   3.547   4.436   0.614 -2.2292 -1.8999 -0.1225
 6526TIP3   OH241212   0.259   0.552   7.301 -0.0871  0.8743 -0.3009
 6526TIP3    H141213   0.282   0.483   7.238  0.0712  0.6607 -0.0079
 6526TIP3    H241214   0.174   0.526   7.335 -1.4604  2.3434 -2.3706
 6527TIP3   OH241215   4.568   1.869   1.343  0.2905 -0.2611  0.2773
 6527TIP3    H141216   4.585   1.784   1.386  2.2262 -0.0452  0.0464
 6527TIP3    H241217   4.613   1.932   1.399  0.4863  0.3678 -0.5834
 6528TIP3   OH241218   0.662   4.415   6.413  0.2864  0.4938 -0.3736
 6528TIP3    H141219   0.656   4.481   6.483  1.1264  0.4604 -0.2622
 6528TIP3    H241220   0.684   4.334   6.458  0.2193  0.3396 -0.6164
 6529TIP3   OH241221   3.978   3.093   0.525  0.3966 -0.2870 -0.3072
 6529TIP3    H141222   3.993   3.002   0.549  0.4346 -0.1792  0.0721
 6529TIP3    H241223   3.883   3.099   0.511  0.0789  0.1245  1.7951
 6530TIP3   OH241224   4.707   1.728   1.553  0.5059 -0.0503  0.3035
 6530TIP3    H141225   4.779   1.766   1.603 -1.4595  1.8506  1.9154
 6530TIP3    H241226   4.661   1.672   1.615 -0.0880 -0.3020 -0.3437
 6531TIP3   OH241227   5.334   1.301   7.699 -0.4950 -0.6454  0.3191
 6531TIP3    H141228   5.318   1.287   7.605  0.7402 -3.1073  0.3872
 6531TIP3    H241229   5.396   1.374   7.702 -1.9473  0.6902 -0.6319
 6532TIP3   OH241230   6.132   4.655   7.706 -0.2276 -0.1012 -0.1201
 6532TIP3    H141231   6.078   4.653   7.785 -0.8216 -0.2924 -0.5198
 6532TIP3    H241232   6.116   4.570   7.664  0.5997 -0.2715 -0.1134
 6533TIP3   OH241233   0.503   2.874   2.167 -0.1777  0.3984 -0.8933
 6533TIP3    H141234   0.576   2.906   2.220  0.2236 -2.9393  0.8145
 6533TIP3    H241235   0.542   2.851   2.083  1.1529 -2.3751  0.3529
 6534TIP3   OH241236   5.009   1.627   6.731 -0.5775  0.0802  0.0052
 6534TIP3    H141237   4.993   1.548   6.681  1.9680 -1.2933  1.1885
 6534TIP3    H241238   5.102   1.644   6.722 -0.6565  1.7391  1.5083
 6535TIP3   OH241239   5.917   0.893   8.247  0.4114 -0.2539 -0.3970
 6535TIP3    H141240   5.991   0.953   8.253  0.0109  0.3363 -1.2591
 6535TIP3    H241241   5.886   0.900   8.156  0.1043 -1.4577 -0.4164
 6536TIP3   OH241242   3.248   3.159   7.304 -0.0347  0.5118  0.0357
 6536TIP3    H141243   3.160   3.194   7.309  0.4881  1.9183 -0.1946
 6536TIP3    H241244   3.252   3.114   7.220 -0.9022 -0.6883  0.6066
 6537TIP3   OH241245   4.111   1.448   8.090  1.1123 -0.6119 -0.0819
 6537TIP3    H141246   4.147   1.384   8.152 -1.5888 -2.0905  0.1399
 6537TIP3    H241247   4.099   1.398   8.009 -1.2701 -0.5892  0.1648
 6538TIP3   OH241248   2.133   4.805   7.508  0.5356 -0.3751 -0.3142
 6538TIP3    H141249   2.197   4.777   7.573 -0.9575  0.2330  1.5021
 6538TIP3    H241250   2.172   4.884   7.469  1.1302 -0.3185  0.3738
 6539TIP3   OH241251   5.531   2.566   1.166  0.4562 -0.7143  0.4255
 6539TIP3    H141252   5.456   2.607   1.209  1.3611  1.4865  0.0185
 6539TIP3    H241253   5.605   2.584   1.224  1.1499 -0.3719 -0.5425
 6540TIP3   OH241254   0.261   2.886   8.286 -0.4779 -0.0910 -0.1559
 6540TIP3    H141255   0.191   2.942   8.251 -1.3636 -0.8871  0.2903
 6540TIP3    H241256   0.336   2.944   8.293 -0.9692  0.6948 -1.0429
 6541TIP3   OH241257   5.337   1.294   7.396 -0.3018 -0.0666 -0.4236
 6541TIP3    H141258   5.365   1.348   7.322 -0.0723  0.0152 -0.2798
 6541TIP3    H241259   5.413   1.238   7.415 -1.0002 -1.3822 -1.4156
 6542TIP3   OH241260   1.176   3.259   7.554  0.0263 -0.0987 -0.1200
 6542TIP3    H141261   1.194   3.209   7.475  0.6646 -1.4475  0.8328
 6542TIP3    H241262   1.191   3.350   7.529 -1.2657 -0.3470 -1.9248
 6543TIP3   OH241263   6.579   2.737   8.580  0.3472 -0.3971 -0.5099
 6543TIP3    H141264   6.660   2.789   8.576  0.9548 -1.0329  1.9121
 6543TIP3    H241265   6.536   2.767   8.661  0.3033 -2.9964  0.5141
 6544TIP3   OH241266   2.297   4.604   0.010 -0.5537 -0.1353 -0.3306
 6544TIP3    H141267   2.315   4.525  -0.039  0.7603  0.8048 -1.4267
 6544TIP3    H241268   2.202   4.604   0.022 -0.4910 -2.3153  0.5251
 6545TIP3   OH241269   5.914   2.284   7.144  0.2089  0.0322 -0.1003
 6545TIP3    H141270   5.990   2.226   7.140 -0.0334 -0.2330 -1.1311
 6545TIP3    H241271   5.840   2.228   7.121  0.0704  0.8854 -1.9553
 6546TIP3   OH241272   4.602   2.190   0.361 -0.0934  0.2209 -0.1214
 6546TIP3    H141273   4.694   2.193   0.385  0.1822  2.2654 -1.2661
 6546TIP3    H241274   4.560   2.256   0.417 -0.9789 -0.9848  0.7010
 6547TIP3   OH241275   4.286   6.562   0.483 -0.1859  0.1953  0.0889
 6547TIP3    H141276   4.228   6.618   0.536  0.2107  0.4106  0.2970
 6547TIP3    H241277   4.301   6.485   0.537 -0.2549  0.1516  0.0460
 6548TIP3   OH241278   4.636   1.028   8.447  0.2292  0.7941  0.0661
 6548TIP3    H141279   4.594   1.091   8.388 -0.3895 -0.1835 -0.5607
 6548TIP3    H241280   4.726   1.021   8.414  1.1919  3.3683  1.7900
 6549TIP3   OH241281   0.041   5.942   7.512  0.0070  0.4492  0.1229
 6549TIP3    H141282  -0.024   5.892   7.562 -0.7705 -0.0444 -1.3346
 6549TIP3    H241283   0.090   5.875   7.463  0.6703  0.9306  0.1121
 6550TIP3   OH241284   3.606   2.362   0.898  0.0302  0.0829 -0.0705
 6550TIP3    H141285   3.680   2.305   0.879  0.0368  0.0165  0.1596
 6550TIP3    H241286   3.566   2.325   0.977 -1.4582 -1.0787 -1.3114
 6551TIP3   OH241287   3.025   2.073   2.374  0.0585 -0.7110  0.8199
 6551TIP3    H141288   3.060   2.040   2.456  0.7704  0.0279  0.8268
 6551TIP3    H241289   3.054   2.164   2.370  1.3561 -1.1346 -0.9726
 6552TIP3   OH241290   6.674   6.177   0.893  0.0996  0.5199  0.0308
 6552TIP3    H141291   6.762   6.153   0.920  1.0206  1.6144 -1.7614
 6552TIP3    H241292   6.668   6.148   0.802 -1.2370  0.8712 -0.0179
 6553TIP3   OH241293   1.249   1.766   1.923 -0.0890 -0.4105 -0.9505
 6553TIP3    H141294   1.182   1.823   1.886 -2.9744 -2.7626  0.1959
 6553TIP3    H241295   1.241   1.778   2.018  0.7832 -1.0985 -0.7709
 6554TIP3   OH241296   5.296   0.490   2.531  0.9041  0.7525 -0.7398
 6554TIP3    H141297   5.209   0.455   2.515  0.1413  1.7324  0.9687
 6554TIP3    H241298   5.353   0.413   2.530  0.0493  0.0975 -1.8792
 6555TIP3   OH241299   6.084   3.334   8.552  0.2293  0.1883 -0.2040
 6555TIP3    H141300   6.107   3.379   8.634  0.7260 -1.1080  0.3970
 6555TIP3    H241301   6.039   3.400   8.500 -2.1852  0.4528  2.0378
 6556TIP3   OH241302   1.559   0.166   0.108  0.5529  0.0914 -0.5840
 6556TIP3    H141303   1.627   0.233   0.099  0.0448  0.7203  0.0994
 6556TIP3    H241304   1.477   0.214   0.102  0.1564 -0.6929 -1.6351
 6557TIP3   OH241305   0.180   0.938   2.023  0.0462  0.1064 -0.4357
 6557TIP3    H141306   0.193   0.984   1.940 -0.2080 -0.5077 -0.8227
 6557TIP3    H241307   0.251   0.875   2.027 -1.5902 -1.9500 -1.6540
 6558TIP3   OH241308   4.543   2.811   0.504  0.1986 -0.2245 -0.3551
 6558TIP3    H141309   4.634   2.816   0.535  0.0621 -0.2379  0.0497
 6558TIP3    H241310   4.495   2.771   0.577 -0.0974 -0.4044 -0.6458
 6559TIP3   OH241311   6.682   5.495   8.061 -0.0036  0.3450 -0.4315
 6559TIP3    H141312   6.749   5.491   8.129  0.2138  0.6896 -0.6282
 6559TIP3    H241313   6.656   5.587   8.058 -1.3327  0.0252  0.4742
 6560TIP3   OH241314   5.282   0.181   8.156 -0.5472  0.4838  0.2698
 6560TIP3    H141315   5.197   0.224   8.162 -0.6541  0.4007 -0.5708
 6560TIP3    H241316   5.303   0.156   8.246 -1.1495  1.0059  0.5585
 6561TIP3   OH241317   5.643   3.774   8.411  0.3956  0.1255 -0.3899
 6561TIP3    H141318   5.573   3.830   8.376  0.2088 -0.5364 -1.1079
 6561TIP3    H241319   5.723   3.822   8.396 -0.0209  2.0167  2.6024
 6562TIP3   OH241320   6.344   2.769   6.920 -0.5994 -0.5722  0.4670
 6562TIP3    H141321   6.400   2.757   6.844 -0.7009  2.0586 -0.1136
 6562TIP3    H241322   6.319   2.680   6.946 -0.8812 -1.5754 -2.7836
 6563TIP3   OH241323   6.043   5.956   0.278  0.5305 -0.3443 -0.2389
 6563TIP3    H141324   6.107   5.916   0.337  1.3279 -0.2993 -1.0629
 6563TIP3    H241325   5.991   6.013   0.335  0.1439 -1.6132  0.7418
 6564TIP3   OH241326   3.257   1.525   2.636  0.2574  0.2320 -0.6259
 6564TIP3    H141327   3.326   1.586   2.663  1.0373 -0.5038 -0.9174
 6564TIP3    H241328   3.270   1.448   2.693 -0.3987  0.1301 -0.6042
 6565TIP3   OH241329   1.458   5.699   7.293 -0.5279  0.0861  0.2986
 6565TIP3    H141330   1.525   5.632   7.281  0.3520  0.7810  1.1206
 6565TIP3    H241331   1.461   5.752   7.213 -0.1827  0.0396  0.2818
 6566TIP3   OH241332   4.748   0.462   2.142 -0.3607 -0.1179  0.0838
 6566TIP3    H141333   4.663   0.458   2.187 -1.2338  1.1652 -1.3558
 6566TIP3    H241334   4.802   0.397   2.188 -2.0768 -0.9092  1.1036
 6567TIP3   OH241335   4.278   3.850   0.180 -0.7622 -0.2203  0.1750
 6567TIP3    H141336   4.336   3.842   0.256  0.3164  0.3721 -0.5569
 6567TIP3    H241337   4.190   3.848   0.217 -0.3507 -2.3868  1.2200
 6568TIP3   OH241338   2.036   0.124   7.032 -0.3517 -0.2470 -0.2828
 6568TIP3    H141339   2.116   0.075   7.053 -1.0801 -1.1105  0.5995
 6568TIP3    H241340   2.016   0.101   6.941 -1.1065 -2.2904  0.3372
 6569TIP3   OH241341   0.958   3.520   8.501  0.1594 -1.0180  0.3438
 6569TIP3    H141342   1.040   3.570   8.494 -0.1346 -0.3732  1.3197
 6569TIP3    H241343   0.894   3.573   8.454  0.3311 -1.6587 -0.6633
 6570TIP3   OH241344   6.280   2.168   7.577 -0.4090  0.1199 -0.0128
 6570TIP3    H141345   6.266   2.254   7.538 -0.3321  1.2293  2.2792
 6570TIP3    H241346   6.368   2.142   7.548 -1.2521 -0.2694 -2.5095
 6571TIP3   OH241347   5.658   3.435   0.525  0.5091  0.0106 -0.3181
 6571TIP3    H141348   5.721   3.379   0.480 -0.4806  0.0898 -1.8490
 6571TIP3    H241349   5.712   3.496   0.576  1.6198 -1.1439 -0.0539
 6572TIP3   OH241350   5.310   6.742   0.277  0.3925  0.1861  0.1826
 6572TIP3    H141351   5.277   6.785   0.356 -0.7768 -1.2059  0.5030
 6572TIP3    H241352   5.236   6.691   0.244  1.2707 -0.3883 -1.0227
 6573TIP3   OH241353   1.898   4.838   0.905 -0.0063  0.3528  0.0607
 6573TIP3    H141354   1.848   4.873   0.979  0.0823  1.8090 -0.5313
 6573TIP3    H241355   1.971   4.791   0.946 -0.2228  0.7218  0.9008
 6574TIP3   OH241356   5.461   1.047   1.266 -0.1552  0.2773 -0.1125
 6574TIP3    H141357   5.398   1.105   1.223  0.7335  0.5598 -1.0946
 6574TIP3    H241358   5.541   1.055   1.213  0.1949 -1.3408  0.1053
 6575TIP3   OH241359   5.130   0.802   0.553  0.1637  0.3641 -0.0578
 6575TIP3    H141360   5.106   0.889   0.522  0.2812 -0.4494 -2.6999
 6575TIP3    H241361   5.050   0.768   0.593  0.6936  2.3989  3.1434
 6576TIP3   OH241362   6.874   4.825   2.532  0.2188 -0.0603  0.2274
 6576TIP3    H141363   6.942   4.892   2.537  0.9499 -0.7467 -0.2343
 6576TIP3    H241364   6.902   4.767   2.461 -2.0930  0.9711 -1.6464
 6577TIP3   OH241365   3.633   5.269   0.480  0.2847  0.4041 -0.1691
 6577TIP3    H141366   3.594   5.212   0.413  0.6577  1.3399 -1.1961
 6577TIP3    H241367   3.593   5.240   0.562 -0.9172 -0.1101 -0.9194
 6578TIP3   OH241368   5.248   0.056   1.232  0.0009 -0.3364  0.0509
 6578TIP3    H141369   5.281   0.110   1.160 -1.2278  3.2773  1.9376
 6578TIP3    H241370   5.153   0.070   1.231 -0.3556 -2.3915  0.7806
 6579TIP3   OH241371   0.917   5.327   1.708 -0.4726 -0.1998 -0.1791
 6579TIP3    H141372   0.933   5.342   1.615 -1.0083 -0.4530 -0.3184
 6579TIP3    H241373   0.831   5.366   1.725  1.3460  3.7337  1.2168
 6580TIP3   OH241374   2.530   0.938   0.957  0.0294 -0.1234  0.0772
 6580TIP3    H141375   2.461   1.004   0.964  1.6199  1.8645 -1.6609
 6580TIP3    H241376   2.543   0.926   0.863  1.7345 -0.7721  0.3475
 6581TIP3   OH241377   2.409   2.960   8.224  0.3077 -0.6866 -0.2367
 6581TIP3    H141378   2.354   2.948   8.302 -1.9794  1.2450 -1.4308
 6581TIP3    H241379   2.374   2.897   8.161 -0.9181  0.8137 -1.1293
 6582TIP3   OH241380   1.377   3.796   1.716 -0.0188  0.7664  0.4054
 6582TIP3    H141381   1.346   3.777   1.628  0.4268 -1.1211  0.6247
 6582TIP3    H241382   1.321   3.868   1.746 -1.2295  0.3712 -0.8164
 6583TIP3   OH241383   6.114   4.649   8.324 -0.4011  0.3933  0.1418
 6583TIP3    H141384   6.159   4.713   8.379 -0.9292  1.1593 -0.2953
 6583TIP3    H241385   6.176   4.629   8.255 -0.3844  0.7430  0.0560
 6584TIP3   OH241386   6.341   1.687   1.388  0.3310  0.7810 -0.5312
 6584TIP3    H141387   6.386   1.763   1.350 -0.8639  1.0502 -1.4852
 6584TIP3    H241388   6.249   1.714   1.392  0.3144  0.6134  2.2759
 6585TIP3   OH241389   6.116   3.157   0.412  0.9206  0.3833  0.2862
 6585TIP3    H141390   6.079   3.116   0.491 -0.0482  1.5289  0.4527
 6585TIP3    H241391   6.115   3.250   0.431 -0.7347  0.8255 -1.6468
 6586TIP3   OH241392   4.719   6.813   0.044 -0.0762 -0.4054  0.1239
 6586TIP3    H141393   4.719   6.909   0.049 -1.1686 -0.4393  0.9564
 6586TIP3    H241394   4.784   6.793  -0.024  1.3588  0.8588  1.0479
 6587TIP3   OH241395   3.275   2.014   6.835  0.0367  0.4183 -0.2163
 6587TIP3    H141396   3.238   1.959   6.905 -0.1833 -2.1560 -2.2124
 6587TIP3    H241397   3.357   2.047   6.872 -0.6834  0.2131  1.7038
 6588TIP3   OH241398   1.126   2.454   8.425  0.0379 -0.2623 -0.3301
 6588TIP3    H141399   1.143   2.467   8.331  1.6308  0.3766  0.0021
 6588TIP3    H241400   1.132   2.542   8.462  2.9110 -0.8344  0.8267
 6589TIP3   OH241401   2.492   2.831   1.120  0.0192 -0.6284 -0.4904
 6589TIP3    H141402   2.410   2.861   1.159 -0.0573 -0.1309 -1.0164
 6589TIP3    H241403   2.540   2.912   1.100  0.5562 -0.9108 -0.3617
 6590TIP3   OH241404   3.497   3.332   0.900 -0.3145 -0.3418  0.3248
 6590TIP3    H141405   3.454   3.391   0.962 -0.9963 -1.1518  0.6434
 6590TIP3    H241406   3.437   3.329   0.825  0.3580  0.3941 -0.2615
 6591TIP3   OH241407   4.715   5.888   1.672  0.0489  0.5189 -0.1869
 6591TIP3    H141408   4.661   5.816   1.704 -0.6654  1.2947  0.4057
 6591TIP3    H241409   4.794   5.846   1.640  0.1364 -0.4495  1.1894
 6592TIP3   OH241410   6.880   5.096   0.495 -0.0024 -0.1177  0.0843
 6592TIP3    H141411   6.957   5.138   0.457  0.9356 -1.9577 -0.1360
 6592TIP3    H241412   6.873   5.134   0.583  2.4076 -1.3899  0.9006
 6593TIP3   OH241413   1.921   0.766   0.311  0.4981 -0.3832  0.5409
 6593TIP3    H141414   1.881   0.746   0.226  0.3727 -0.6150  0.6561
 6593TIP3    H241415   1.892   0.696   0.369  0.6607 -0.2757  0.7532
 6594TIP3   OH241416   2.475   0.940   1.626  0.0103 -0.6912  0.1617
 6594TIP3    H141417   2.477   0.943   1.530  1.1995 -2.3877  0.0959
 6594TIP3    H241418   2.426   0.861   1.647  2.2387 -1.9764  0.8597
 6595TIP3   OH241419   6.091   0.954   0.109  0.3143 -0.0954  0.3129
 6595TIP3    H141420   6.087   0.907   0.026 -2.2905  2.5380 -1.2416
 6595TIP3    H241421   6.181   0.984   0.115  0.4167  0.3082 -2.0459
 6596TIP3   OH241422   5.933   5.813   7.325  0.5933 -0.3789 -0.1907
 6596TIP3    H141423   6.022   5.799   7.294  0.7130  1.2055 -0.6829
 6596TIP3    H241424   5.943   5.831   7.419  0.8538  0.2645 -0.3376
 6597TIP3   OH241425   2.131   2.720   7.741  0.1573 -0.5097  0.4089
 6597TIP3    H141426   2.152   2.805   7.703 -3.0085 -0.1723 -0.8937
 6597TIP3    H241427   2.145   2.658   7.669 -1.7314 -0.4387 -0.0732
 6598TIP3   OH241428   3.345   3.036   0.825  0.4161 -0.5274 -0.0938
 6598TIP3    H141429   3.336   3.058   0.918 -0.9274 -1.3174 -0.0141
 6598TIP3    H241430   3.423   3.083   0.797  0.9318 -0.3962  1.4723
 6599TIP3   OH241431   0.818   3.837   1.030  0.4059  0.3979 -0.0569
 6599TIP3    H141432   0.733   3.810   0.996  0.6124 -1.4719  0.7426
 6599TIP3    H241433   0.817   3.809   1.122  1.9950  0.0031 -0.1221
 6600TIP3   OH241434   3.586   1.144   2.173  0.3633 -0.5125 -0.2630
 6600TIP3    H141435   3.559   1.219   2.120 -1.2548  0.4416  1.7727
 6600TIP3    H241436   3.631   1.183   2.248  1.4578 -1.7467 -0.2515
 6601TIP3   OH241437   4.502   0.585   2.206 -0.8507  0.0471 -0.2713
 6601TIP3    H141438   4.456   0.669   2.199 -0.5767  0.0661 -2.7056
 6601TIP3    H241439   4.438   0.526   2.245 -1.9890  0.7686 -0.9853
 6602TIP3   OH241440   1.089   1.160   0.024 -0.0548 -0.5560  0.1187
 6602TIP3    H141441   1.048   1.124  -0.054  1.5314 -1.2837 -0.4179
 6602TIP3    H241442   1.114   1.249  -0.000  2.8366 -1.6038 -1.2245
 6603TIP3   OH241443   6.577   5.715   2.945  0.1589 -0.0989  0.1441
 6603TIP3    H141444   6.636   5.642   2.930 -1.2386 -1.2242 -0.0189
 6603TIP3    H241445   6.582   5.767   2.864  0.6458 -0.3633 -0.0014
 6604TIP3   OH241446   3.283   5.926   0.546  0.6299  0.0139 -0.1424
 6604TIP3    H141447   3.286   5.971   0.462  1.5393  0.3229  0.0432
 6604TIP3    H241448   3.205   5.961   0.589  1.1103  1.1538 -0.1585
 6605TIP3   OH241449   0.773   3.212   1.686 -0.4088  0.2159 -0.3272
 6605TIP3    H141450   0.813   3.275   1.626 -0.4754 -0.2583 -0.8833
 6605TIP3    H241451   0.724   3.266   1.748  0.4217  0.7610 -0.1267
 6606TIP3   OH241452   0.819   5.170   8.479 -0.3841  0.1251 -0.1907
 6606TIP3    H141453   0.816   5.085   8.524  1.8760  0.0967  0.0468
 6606TIP3    H241454   0.903   5.170   8.434 -1.1969  1.4836 -1.8172
 6607TIP3   OH241455   3.472   4.454   1.378  0.0875  0.6573 -0.0600
 6607TIP3    H141456   3.495   4.459   1.470 -2.0138  1.0842  0.4784
 6607TIP3    H241457   3.557   4.454   1.332  1.2637  4.8134  1.6265
 6608TIP3   OH241458   2.471   6.604   1.035  0.2387 -0.1979 -0.6683
 6608TIP3    H141459   2.421   6.606   1.116 -1.2372 -1.4886 -1.4887
 6608TIP3    H241460   2.561   6.620   1.062 -0.5093  1.7320  0.9290
 6609TIP3   OH241461   6.240   0.776   0.526 -0.0612 -0.2531 -0.0285
 6609TIP3    H141462   6.255   0.871   0.535  1.0735 -0.3165 -0.8832
 6609TIP3    H241463   6.146   0.768   0.512 -0.0034  0.9033 -1.3592
 6610TIP3   OH241464   6.108   2.971   3.095  0.2527  0.5808 -0.5117
 6610TIP3    H141465   6.066   3.040   3.045  0.6654 -0.1543 -1.9135
 6610TIP3    H241466   6.194   2.960   3.055 -0.5583 -2.1354 -1.7399
 6611TIP3   OH241467   3.652   0.942   1.818  0.3959 -0.3082 -0.0068
 6611TIP3    H141468   3.595   0.888   1.873  0.2071  1.1330  1.2729
 6611TIP3    H241469   3.735   0.893   1.815 -0.7108 -2.2045 -1.5433
 6612TIP3   OH241470   0.477   4.429   7.946 -0.2964  0.4359 -0.8138
 6612TIP3    H141471   0.498   4.491   8.016 -1.7994 -0.3161  0.3518
 6612TIP3    H241472   0.549   4.440   7.883  1.5076  0.6386  1.1466
 6613TIP3   OH241473   0.243   4.910   0.269 -0.1737  0.1244  0.7984
 6613TIP3    H141474   0.275   4.880   0.354 -0.6042 -0.5852  0.7130
 6613TIP3    H241475   0.206   4.997   0.287 -0.0784  0.0649  1.2929
 6614TIP3   OH241476   3.451   2.767   0.183 -0.0629 -0.0144  0.0145
 6614TIP3    H141477   3.490   2.680   0.184  0.9585  0.4180 -0.8717
 6614TIP3    H241478   3.448   2.793   0.275 -1.1187 -1.2827  0.3765
 6615TIP3   OH241479   6.424   4.190   1.762  0.1917  0.2453 -0.0444
 6615TIP3    H141480   6.426   4.143   1.845 -5.0177 -0.7408 -0.1066
 6615TIP3    H241481   6.449   4.124   1.697  0.5915 -0.1024  0.4533
 6616TIP3   OH241482   5.346   2.271   0.438 -0.1252  0.4183  0.2250
 6616TIP3    H141483   5.394   2.332   0.381 -0.0206  0.1860  0.0601
 6616TIP3    H241484   5.404   2.194   0.444  1.3503  1.6237  3.2028
 6617TIP3   OH241485   5.629   1.087   7.148  0.0593  0.4559  0.3932
 6617TIP3    H141486   5.535   1.100   7.134  0.4565  1.9560 -1.1155
 6617TIP3    H241487   5.633   1.017   7.213 -2.0968  0.2664  0.4095
 6618TIP3   OH241488   0.818   0.906   0.247 -0.1341 -0.1830  0.0980
 6618TIP3    H141489   0.815   0.861   0.332  0.8480 -0.3029  0.0791
 6618TIP3    H241490   0.886   0.860   0.198 -0.8197 -0.2334 -0.8367
 6619TIP3   OH241491   6.355   3.030   1.032  0.0864 -0.3300 -0.2386
 6619TIP3    H141492   6.300   3.064   0.961 -0.8872  2.1497  1.5366
 6619TIP3    H241493   6.298   2.969   1.079 -0.3421  0.3900  0.1900
 6620TIP3   OH241494   6.342   5.942   7.491 -0.0815  0.7683  0.1167
 6620TIP3    H141495   6.363   5.849   7.482  0.6326  0.9086  0.3010
 6620TIP3    H241496   6.417   5.987   7.453 -0.6316  1.2655 -0.3802
 6621TIP3   OH241497   1.317   2.203   7.771  0.1826  0.2363  0.3657
 6621TIP3    H141498   1.261   2.127   7.786 -0.1317  0.3097 -0.3777
 6621TIP3    H241499   1.281   2.271   7.829  0.8574 -0.3578  1.5020
 6622TIP3   OH241500   2.632   1.240   8.215  0.2699 -0.0962  0.0087
 6622TIP3    H141501   2.712   1.234   8.162  1.1735  0.2124  1.2817
 6622TIP3    H241502   2.617   1.334   8.226  0.4613 -0.1497  0.8052
 6623TIP3   OH241503   5.356   5.414   7.112  0.4673 -0.0510 -0.3461
 6623TIP3    H141504   5.404   5.495   7.093  0.0583  0.6826  1.4726
 6623TIP3    H241505   5.264   5.435   7.093  0.2405  0.2469  0.9365
 6624TIP3   OH241506   1.473   2.778   2.616 -0.2833 -0.5324  0.8371
 6624TIP3    H141507   1.560   2.766   2.579 -0.4656  0.3342  0.0928
 6624TIP3    H241508   1.474   2.727   2.697  1.0874 -0.1298  1.0955
 6625TIP3   OH241509   2.268   6.726   0.244 -0.0412 -0.3762 -0.6775
 6625TIP3    H141510   2.318   6.645   0.253 -0.1763 -0.2586  1.7563
 6625TIP3    H241511   2.188   6.701   0.199  0.8202 -1.1667 -1.8212
 6626TIP3   OH241512   5.659   4.549   7.824  0.0533  0.2300 -0.0633
 6626TIP3    H141513   5.599   4.603   7.773 -1.5354  0.5792  2.0095
 6626TIP3    H241514   5.641   4.574   7.915  1.3821 -1.6917  0.7849
 6627TIP3   OH241515   4.599   6.244   8.161  0.5152 -0.2363  0.0125
 6627TIP3    H141516   4.650   6.163   8.166  1.6911  0.4172 -0.7404
 6627TIP3    H241517   4.637   6.301   8.228  0.1702 -0.0645  0.0645
 6628TIP3   OH241518   6.417   6.606   1.159  0.1151 -0.4822  0.0989
 6628TIP3    H141519   6.412   6.607   1.064 -0.2347  1.1050  0.1092
 6628TIP3    H241520   6.500   6.563   1.178  0.4898 -0.2526 -0.9425
 6629TIP3   OH241521   1.879   3.940   1.562  0.2794 -0.2233  0.0815
 6629TIP3    H141522   1.803   3.993   1.539 -0.5005 -1.4534 -0.2373
 6629TIP3    H241523   1.867   3.918   1.654  0.1031 -0.6269 -0.0336
 6630TIP3   OH241524   6.498   3.150   1.821  0.2296 -0.6827 -0.2920
 6630TIP3    H141525   6.433   3.166   1.752  1.3737  2.2897 -0.8315
 6630TIP3    H241526   6.572   3.110   1.776  0.1272 -0.8191 -0.3413
 6631TIP3   OH241527   6.544   6.791   2.300 -0.0564 -0.0651  0.1745
 6631TIP3    H141528   6.600   6.867   2.315  0.4201 -0.0195 -1.6067
 6631TIP3    H241529   6.566   6.731   2.371  1.0789  0.6150  0.4254
 6632TIP3   OH241530   4.039   4.036   2.878  0.1935 -0.0456  0.0114
 6632TIP3    H141531   3.996   4.053   2.961 -1.4603 -1.4088 -0.5133
 6632TIP3    H241532   4.131   4.019   2.901  0.1470  1.3616  1.3265
 6633TIP3   OH241533   4.244   4.172   1.148 -0.1983  0.5364 -0.3021
 6633TIP3    H141534   4.323   4.119   1.142 -0.8716 -0.4182 -1.0486
 6633TIP3    H241535   4.243   4.203   1.239  0.2786 -0.6356  0.1197
 6634TIP3   OH241536   2.161   1.993   2.937  0.5042 -0.2167  0.3793
 6634TIP3    H141537   2.147   1.900   2.957  0.1503  0.3194  2.9286
 6634TIP3    H241538   2.241   2.016   2.985 -0.0762  1.0664  0.7735
 6635TIP3   OH241539   5.115   1.058   1.598  0.4589 -0.0235  0.1817
 6635TIP3    H141540   5.191   1.002   1.583 -0.9197 -1.7734 -0.5364
 6635TIP3    H241541   5.073   1.023   1.676  0.4500  1.0536  0.6889
 6636TIP3   OH241542   1.995   1.652   8.566 -0.1022 -0.2568  0.9417
 6636TIP3    H141543   2.034   1.577   8.612  1.2535  1.4173  2.6361
 6636TIP3    H241544   1.966   1.711   8.635  0.4617  1.6060 -0.3478
 6637TIP3   OH241545   1.850   4.961   2.249 -0.1598 -0.0297  0.4841
 6637TIP3    H141546   1.823   5.026   2.313  0.3520 -0.1991  0.8748
 6637TIP3    H241547   1.850   5.008   2.165  0.9572  0.6783  0.8683
 6638TIP3   OH241548   2.981   5.815   7.803 -0.1274 -0.4523 -0.5604
 6638TIP3    H141549   2.999   5.859   7.720  1.1137 -2.8464 -1.6559
 6638TIP3    H241550   3.067   5.784   7.832 -0.2959  1.3980  2.3611
 6639TIP3   OH241551   0.827   1.054   1.389  0.3002  0.1259 -0.3787
 6639TIP3    H141552   0.825   0.959   1.402  2.5363  0.0476 -0.1316
 6639TIP3    H241553   0.822   1.066   1.294  1.8580 -0.3947 -0.5597
 6640TIP3   OH241554   3.859   4.341   1.782  0.1875  0.5497 -0.0570
 6640TIP3    H141555   3.829   4.297   1.861  1.4752 -1.3266 -0.5130
 6640TIP3    H241556   3.868   4.433   1.806 -0.1559  0.1358  1.7531
 6641TIP3   OH241557   4.954   6.514   8.012  0.6776  0.2985  0.3878
 6641TIP3    H141558   4.915   6.488   8.095 -1.3454 -2.1513 -1.1695
 6641TIP3    H241559   5.048   6.509   8.026  0.3757 -0.3112  2.4248
 6642TIP3   OH241560   4.350   6.248   3.082  0.4364 -0.3410 -0.4477
 6642TIP3    H141561   4.311   6.292   3.006 -0.4354  0.0301  0.1964
 6642TIP3    H241562   4.343   6.154   3.061 -1.3420 -0.3116 -0.1230
 6643TIP3   OH241563   0.849   5.217   8.066  0.3827  0.7865  0.4438
 6643TIP3    H141564   0.794   5.295   8.075  1.6495  1.6178  1.3452
 6643TIP3    H241565   0.838   5.170   8.149 -0.0903  0.1779  0.0461
 6644TIP3   OH241566   6.471   3.798   8.218 -0.5839 -0.3003  0.0672
 6644TIP3    H141567   6.503   3.808   8.308 -0.3205 -0.6845  0.0162
 6644TIP3    H241568   6.420   3.718   8.219  2.7108 -2.6271 -1.0131
 6645TIP3   OH241569   2.129   2.215   1.875  0.3272  0.4479  0.6386
 6645TIP3    H141570   2.056   2.153   1.879  1.4119 -0.7966  1.9931
 6645TIP3    H241571   2.120   2.268   1.954  0.8298  0.3430  0.7715
 6646TIP3   OH241572   0.205   2.587   1.499  0.6230  0.4568  0.6289
 6646TIP3    H141573   0.116   2.591   1.463  0.2156 -0.4382  1.4886
 6646TIP3    H241574   0.255   2.649   1.447 -0.2463  0.1379 -0.6321
 6647TIP3   OH241575   4.064   1.488   0.118  0.1885  0.4636 -0.3244
 6647TIP3    H141576   3.978   1.490   0.158  0.5853  2.3951  0.5358
 6647TIP3    H241577   4.075   1.574   0.078  1.2667 -0.1501 -1.4484
 6648TIP3   OH241578   0.582   6.736   2.747  0.0732 -0.1490 -0.5622
 6648TIP3    H141579   0.645   6.760   2.815 -0.5908 -0.8382  0.3253
 6648TIP3    H241580   0.636   6.717   2.670  0.8080  1.0859 -0.3765
 6649TIP3   OH241581   3.496   5.778   8.290  0.4244 -0.2408 -0.3434
 6649TIP3    H141582   3.565   5.839   8.265  1.5950 -0.9210  1.0537
 6649TIP3    H241583   3.540   5.713   8.345 -1.3453 -0.6452  0.6783
 6650TIP3   OH241584   5.370   3.723   7.585  0.4594 -0.0965 -0.2350
 6650TIP3    H141585   5.462   3.725   7.610  0.0937 -1.7178  1.4489
 6650TIP3    H241586   5.368   3.672   7.504  1.0193 -0.2313 -0.1669
 6651TIP3   OH241587   4.933   4.992   2.133 -0.1647  0.0495 -0.7387
 6651TIP3    H141588   4.844   5.006   2.101 -0.5108 -0.9068 -0.2405
 6651TIP3    H241589   4.981   4.958   2.057 -0.4739 -0.3164 -0.7743
 6652TIP3   OH241590   2.805   1.226   7.993 -0.5425 -0.7327  0.2725
 6652TIP3    H141591   2.739   1.205   7.927 -0.4375  0.1121 -0.1110
 6652TIP3    H241592   2.871   1.157   7.984 -1.1854 -1.3790  0.4119
 6653TIP3   OH241593   5.199   5.948   1.054  0.3001  0.1571  0.0179
 6653TIP3    H141594   5.228   6.030   1.014 -0.6577 -1.4148 -4.5436
 6653TIP3    H241595   5.268   5.885   1.031  1.3221 -0.4503  3.9307
 6654TIP3   OH241596   1.366   6.044   0.831  0.0670 -0.4768  0.1096
 6654TIP3    H141597   1.348   5.984   0.903  0.1482 -1.2349 -0.4915
 6654TIP3    H241598   1.282   6.088   0.815 -0.1142 -0.7722  0.2432
 6655TIP3   OH241599   3.413   1.710   0.724 -0.4739 -0.5391 -0.0331
 6655TIP3    H141600   3.413   1.762   0.804 -1.5650 -0.3523 -0.1401
 6655TIP3    H241601   3.424   1.774   0.653 -3.4637 -0.1829 -0.2844
 6656TIP3   OH241602   0.135   3.952   7.155  0.1179  0.8510 -0.1664
 6656TIP3    H141603   0.074   3.997   7.214 -1.5473 -1.9425  0.4394
 6656TIP3    H241604   0.096   3.962   7.068 -2.7936 -2.8702  0.4602
 6657TIP3   OH241605   1.591   1.594   1.074  0.1728 -0.1395  0.7766
 6657TIP3    H141606   1.572   1.533   1.146  0.7702  0.2548  1.2779
 6657TIP3    H241607   1.509   1.601   1.026 -0.3953  0.0149  1.7461
 6658TIP3   OH241608   2.618   3.166   0.663  0.2305  0.8475  0.4365
 6658TIP3    H141609   2.694   3.187   0.718  1.3499  0.7288 -1.0066
 6658TIP3    H241610   2.596   3.076   0.687  0.4581  0.9215  0.9517
 6659TIP3   OH241611   2.484   6.189   7.515  0.4988  0.4194  0.2151
 6659TIP3    H141612   2.465   6.191   7.421  0.6839  2.5717  0.1716
 6659TIP3    H241613   2.577   6.212   7.522  0.9021 -1.2404  0.8891
 6660TIP3   OH241614   3.079   5.540   0.540  0.2884  0.1790 -0.0211
 6660TIP3    H141615   3.071   5.595   0.462  0.3165 -0.5321 -0.5436
 6660TIP3    H241616   3.141   5.471   0.514  0.4956  0.0830  0.7183
 6661TIP3   OH241617   5.940   5.930   7.950  1.0035 -0.0269  0.0167
 6661TIP3    H141618   5.916   5.927   7.858  0.0777 -1.0288  0.2675
 6661TIP3    H241619   5.984   5.847   7.966 -1.1933 -1.0723  1.0551
 6662TIP3   OH241620   1.701   5.835   0.894 -0.4818  0.5475 -0.3383
 6662TIP3    H141621   1.688   5.925   0.923 -0.5693  0.4128  0.0482
 6662TIP3    H241622   1.627   5.816   0.837 -1.9896 -0.1646  1.7105
 6663TIP3   OH241623   2.180   3.945   1.914 -0.2568  0.0250  0.4838
 6663TIP3    H141624   2.118   3.975   1.981 -1.0551 -0.6447  0.0693
 6663TIP3    H241625   2.186   4.018   1.852  0.3255  0.5661  1.1660
 6664TIP3   OH241626   5.600   0.665   8.016  0.1529  0.5835 -0.1495
 6664TIP3    H141627   5.613   0.746   8.066 -0.8155  1.8705 -1.8860
 6664TIP3    H241628   5.527   0.622   8.060  1.2047  0.1735  1.2951
 6665TIP3   OH241629   3.751   6.002   0.496  0.0947  0.3383 -0.7844
 6665TIP3    H141630   3.778   5.925   0.445 -2.4080 -1.6345  0.5970
 6665TIP3    H241631   3.665   6.025   0.460  1.0296  2.9666 -1.5502
 6666TIP3   OH241632   6.175   2.994   6.928 -0.2318  0.4050  0.6367
 6666TIP3    H141633   6.237   2.926   6.903  0.3678  1.0430  0.3571
 6666TIP3    H241634   6.089   2.953   6.918  0.0775 -0.0056 -0.4840
 6667TIP3   OH241635   1.228   2.848   7.438  0.2788 -0.1153 -0.0539
 6667TIP3    H141636   1.217   2.753   7.450  2.3945 -0.4434 -0.4277
 6667TIP3    H241637   1.152   2.886   7.482 -0.7523 -1.9851 -0.1095
 6668TIP3   OH241638   2.806   3.035   8.369 -0.3293 -0.0663  0.6118
 6668TIP3    H141639   2.727   3.065   8.324  0.3862  0.9680  0.0046
 6668TIP3    H241640   2.815   3.093   8.444 -0.0152 -0.0244  0.5427
 6669TIP3   OH241641   3.255   6.207   0.881  0.2669  0.0628 -0.2174
 6669TIP3    H141642   3.215   6.258   0.952  1.2588 -1.0402  1.1955
 6669TIP3    H241643   3.181   6.176   0.829 -0.4850  0.8880  0.3279
 6670TIP3   OH241644   0.844   0.396   0.992  0.0398 -0.4489  0.1646
 6670TIP3    H141645   0.847   0.438   1.078 -0.1109 -1.1782  0.5334
 6670TIP3    H241646   0.927   0.348   0.986  0.9167  1.0973 -0.8945
 6671TIP3   OH241647   3.483   1.375   2.023  0.2367 -0.3981  0.4073
 6671TIP3    H141648   3.481   1.365   1.928  1.0655 -2.3760  0.5436
 6671TIP3    H241649   3.404   1.424   2.044  0.4776  0.8348 -1.3593
 6672TIP3   OH241650   0.933   5.052   0.313 -0.0318 -0.9987  0.0814
 6672TIP3    H141651   1.020   5.091   0.308 -1.4678  2.8267  0.7824
 6672TIP3    H241652   0.903   5.074   0.402 -2.5761  0.1858 -0.9668
 6673TIP3   OH241653   3.494   1.176   3.321 -0.2551  0.4881  0.0018
 6673TIP3    H141654   3.589   1.165   3.320 -0.2240  0.6038  0.7835
 6673TIP3    H241655   3.459   1.094   3.286  0.1066  0.0162  0.7207
 6674TIP3   OH241656   2.316   6.312   6.833  0.3565 -0.6347 -0.4950
 6674TIP3    H141657   2.306   6.221   6.806  1.2197 -0.9822  0.2965
 6674TIP3    H241658   2.352   6.307   6.922 -1.8545  0.4633  0.5350
 6675TIP3   OH241659   3.607   2.224   0.330  0.1214  0.0215 -0.5444
 6675TIP3    H141660   3.696   2.203   0.302  0.2177  2.1356 -2.0473
 6675TIP3    H241661   3.618   2.296   0.393 -0.5038  0.3048 -0.7473
 6676TIP3   OH241662   5.325   3.289   2.489 -0.0084  0.3305 -0.3249
 6676TIP3    H141663   5.251   3.246   2.531 -1.5014  2.5911 -0.4769
 6676TIP3    H241664   5.354   3.355   2.552  1.1726  0.2175 -0.7270
 6677TIP3   OH241665   3.253   1.349   7.556  0.7704  1.0048  0.2912
 6677TIP3    H141666   3.321   1.405   7.594 -0.0192  1.2978  1.3087
 6677TIP3    H241667   3.198   1.325   7.630 -0.0623  0.5107 -0.4711
 6678TIP3   OH241668   1.725   1.431   2.162 -0.0036  0.1460  0.0040
 6678TIP3    H141669   1.794   1.376   2.200  1.4199  2.0392  0.2798
 6678TIP3    H241670   1.650   1.417   2.220  1.0308  0.2141  1.4223
 6679TIP3   OH241671   3.097   4.677   1.069  0.1997  0.0791 -0.2628
 6679TIP3    H141672   3.184   4.639   1.079  0.4548  0.4547 -0.9798
 6679TIP3    H241673   3.113   4.765   1.036 -0.4081  0.6028  0.8037
 6680TIP3   OH241674   4.496   0.249   1.576 -0.3409  0.3842  0.5684
 6680TIP3    H141675   4.549   0.294   1.642 -1.0321  1.0546  0.6840
 6680TIP3    H241676   4.461   0.172   1.621  0.1927  0.1601  0.6096
 6681TIP3   OH241677   4.276   5.973   1.324 -0.1020 -0.1895  0.0179
 6681TIP3    H141678   4.228   5.890   1.320 -0.9803  0.3258 -0.5970
 6681TIP3    H241679   4.335   5.963   1.398 -0.7897 -1.0538  0.4741
 6682TIP3   OH241680   5.962   3.585   1.263 -0.2703 -0.5919 -0.6609
 6682TIP3    H141681   5.951   3.581   1.358  0.0618  0.7531 -0.5478
 6682TIP3    H241682   5.876   3.610   1.229 -0.0827  0.1176 -0.6133
 6683TIP3   OH241683   1.244   4.837   0.557 -0.1505  0.6441  0.5523
 6683TIP3    H141684   1.283   4.764   0.603 -0.7790  0.1938  0.3834
 6683TIP3    H241685   1.318   4.894   0.534  0.5636 -0.7651 -0.7982
 6684TIP3   OH241686   0.967   4.335   8.315 -0.1528 -0.4360  0.0895
 6684TIP3    H141687   0.985   4.292   8.399 -0.2003 -2.0212 -0.6804
 6684TIP3    H241688   0.890   4.388   8.332  0.2206 -0.2087  1.2167
 6685TIP3   OH241689   1.409   1.862   0.870  0.1698 -0.3268 -0.0188
 6685TIP3    H141690   1.410   1.767   0.856  1.0143 -0.2978 -0.1962
 6685TIP3    H241691   1.477   1.895   0.812 -1.5636  0.6462 -1.6327
 6686TIP3   OH241692   6.713   5.046   8.179 -0.1801 -0.0521 -0.0040
 6686TIP3    H141693   6.701   4.978   8.245  0.8026 -0.7543 -0.5396
 6686TIP3    H241694   6.764   5.005   8.110  2.1831  1.7393  0.5281
 6687TIP3   OH241695   3.333   1.130   8.283 -0.8637 -0.0970 -0.3012
 6687TIP3    H141696   3.315   1.041   8.312 -0.2163 -0.0149  0.3850
 6687TIP3    H241697   3.423   1.146   8.310 -0.5043  0.2705 -1.6732
 6688TIP3   OH241698   4.764   2.342   8.307  0.5934  0.6238 -0.7441
 6688TIP3    H141699   4.760   2.249   8.284  0.6165  0.6039 -0.6672
 6688TIP3    H241700   4.693   2.354   8.371  1.2583  0.4363  0.0392
 6689TIP3   OH241701   2.014   5.460   2.471  0.1516 -0.8786 -0.4555
 6689TIP3    H141702   2.002   5.480   2.563 -1.4792 -0.8732 -0.6505
 6689TIP3    H241703   2.002   5.544   2.426  0.7077 -0.9244 -0.7011
 6690TIP3   OH241704   6.419   0.939   7.407  0.0800 -0.4580  0.7635
 6690TIP3    H141705   6.427   1.027   7.445 -1.6131 -0.0389  0.2100
 6690TIP3    H241706   6.417   0.954   7.313 -3.0885 -0.7432  0.6912
 6691TIP3   OH241707   4.512   0.322   0.380 -0.1492  0.4011  0.4808
 6691TIP3    H141708   4.423   0.316   0.414 -0.5792 -1.3992 -0.8189
 6691TIP3    H241709   4.569   0.310   0.456 -1.0180  0.4778  1.1497
 6692TIP3   OH241710   5.369   5.576   1.275 -0.0393 -0.0844  0.4600
 6692TIP3    H141711   5.293   5.534   1.234 -0.1601 -1.4224  1.9350
 6692TIP3    H241712   5.444   5.524   1.246  0.2966  0.9569 -0.6262
 6693TIP3   OH241713   2.972   2.803   0.372  0.1744  0.3982  0.3655
 6693TIP3    H141714   2.930   2.865   0.432  0.0845 -0.4549  1.2145
 6693TIP3    H241715   2.936   2.824   0.286 -0.6621  0.8340  0.8086
 6694TIP3   OH241716   4.234   2.976   2.668  0.0087 -0.0075 -0.4150
 6694TIP3    H141717   4.264   2.962   2.578  0.7610 -0.0243 -0.1661
 6694TIP3    H241718   4.296   2.928   2.722  0.7613  1.6517  0.2549
 6695TIP3   OH241719   0.755   2.612   1.389  0.4552  0.1704  0.3547
 6695TIP3    H141720   0.780   2.526   1.355 -1.0947 -0.6559  1.1983
 6695TIP3    H241721   0.744   2.666   1.311 -1.7006 -1.3120 -0.4541
 6696TIP3   OH241722   3.087   5.236   2.457 -0.1983  0.2123 -0.0871
 6696TIP3    H141723   3.026   5.284   2.514  0.9638 -0.3590  1.7247
 6696TIP3    H241724   3.157   5.208   2.516 -0.1774 -2.6194 -1.3167
 6697TIP3   OH241725   5.064   1.884   0.854  0.4945 -0.6188  0.4969
 6697TIP3    H141726   5.094   1.825   0.923 -1.1909 -1.3665  0.6523
 6697TIP3    H241727   5.059   1.828   0.776  1.6794  0.0456 -0.0929
 6698TIP3   OH241728   4.393   3.074   2.039  0.1604 -0.3209 -0.4365
 6698TIP3    H141729   4.343   3.152   2.064 -0.1073 -0.1925 -1.3033
 6698TIP3    H241730   4.380   3.012   2.110 -2.8310 -1.0084 -1.4270
 6699TIP3   OH241731   3.139   1.508   8.525 -0.1850  0.3393  0.3126
 6699TIP3    H141732   3.124   1.428   8.474 -0.4720  0.7483 -0.2541
 6699TIP3    H241733   3.204   1.483   8.590  0.4339 -0.1131 -0.4599
 6700TIP3   OH241734   2.210   6.021   1.408 -0.0111  0.0281 -0.7464
 6700TIP3    H141735   2.228   6.043   1.316 -0.3128  1.9493 -0.3896
 6700TIP3    H241736   2.289   5.977   1.438  1.0953  1.5577 -1.2812
 6701TIP3   OH241737   4.967   2.558   7.599 -0.1803  0.2858 -0.1034
 6701TIP3    H141738   4.994   2.468   7.583  1.1875  0.8592 -1.2554
 6701TIP3    H241739   4.872   2.555   7.601 -0.2274 -0.8913 -2.1088
 6702TIP3   OH241740   0.244   3.244   1.512 -0.5092 -0.1245  0.7450
 6702TIP3    H141741   0.237   3.327   1.560  0.3967  0.5831 -0.3101
 6702TIP3    H241742   0.199   3.260   1.430 -1.0558 -0.9655  0.8720
 6703TIP3   OH241743   4.883   4.235   1.296  0.5124  0.0510 -0.4393
 6703TIP3    H141744   4.789   4.239   1.280  0.1958 -0.9553  0.9504
 6703TIP3    H241745   4.912   4.155   1.252  0.0226 -1.5483  1.8953
 6704TIP3   OH241746   6.345   6.206   0.488  0.3492 -0.8161  0.2466
 6704TIP3    H141747   6.390   6.286   0.463 -0.4539 -0.6990 -0.9239
 6704TIP3    H241748   6.392   6.136   0.442  0.0262 -0.8184 -0.0845
 6705TIP3   OH241749   5.308   0.113   7.865  0.2513  0.2147  0.2140
 6705TIP3    H141750   5.215   0.105   7.886  0.5765 -1.2575  1.1794
 6705TIP3    H241751   5.337   0.189   7.916 -0.1739 -0.0118  0.8068
 6706TIP3   OH241752   4.347   4.090   2.133 -0.4641  0.4011  0.1248
 6706TIP3    H141753   4.367   4.046   2.050  0.0579  2.4115 -0.8743
 6706TIP3    H241754   4.268   4.141   2.114 -1.7020 -0.8944  1.5744
 6707TIP3   OH241755   6.507   2.728   1.286 -0.5621 -0.0812 -0.8636
 6707TIP3    H141756   6.471   2.688   1.206 -0.3344 -0.6219 -0.7004
 6707TIP3    H241757   6.528   2.654   1.342 -2.1233  0.3358  0.3298
 6708TIP3   OH241758   5.379   5.471   2.266 -0.0794  0.0497 -0.0134
 6708TIP3    H141759   5.454   5.493   2.211  0.7598  1.8220  1.7060
 6708TIP3    H241760   5.303   5.480   2.207  0.8489  0.9465 -1.1246
 6709TIP3   OH241761   0.009   0.831   0.566 -0.6117 -0.4459  0.1421
 6709TIP3    H141762   0.019   0.882   0.485 -0.2542 -1.4379 -0.4526
 6709TIP3    H241763  -0.085   0.814   0.572 -0.7214  0.1855  0.2902
 6710TIP3   OH241764   1.787   1.169   1.172  0.0411  0.1267  0.3303
 6710TIP3    H141765   1.781   1.131   1.260 -1.9823  1.2609  0.7485
 6710TIP3    H241766   1.865   1.224   1.175 -0.5046  0.8691  1.7230
 6711TIP3   OH241767   2.023   3.065   7.721 -0.2218 -0.3242 -0.0268
 6711TIP3    H141768   2.093   3.093   7.779 -1.3373  0.8114  0.8182
 6711TIP3    H241769   2.049   3.097   7.635 -0.7802  2.1875  0.6695
 6712TIP3   OH241770   4.571   4.705   1.091 -0.4396 -0.4863  0.1647
 6712TIP3    H141771   4.552   4.751   1.010  0.7537  1.3795  0.8720
 6712TIP3    H241772   4.646   4.648   1.070 -0.0338  0.1070 -0.0244
 6713TIP3   OH241773   2.224   5.709   1.835 -0.2626 -0.2810  0.1256
 6713TIP3    H141774   2.281   5.784   1.850 -0.7684  0.5822 -1.9209
 6713TIP3    H241775   2.136   5.746   1.835 -0.8363 -1.4319  2.2309
 6714TIP3   OH241776   2.311   6.342   7.182 -0.1043  0.8600  0.2069
 6714TIP3    H141777   2.323   6.437   7.178 -1.3963  1.0353  0.2461
 6714TIP3    H241778   2.219   6.330   7.206  0.3884 -0.3910  1.6399
 6715TIP3   OH241779   1.125   3.746   0.028 -0.3055 -0.9273 -0.3647
 6715TIP3    H141780   1.140   3.724   0.120 -0.7999 -1.8978 -0.5064
 6715TIP3    H241781   1.032   3.767   0.023 -0.2958 -0.9532 -0.6596
 6716TIP3   OH241782   5.352   5.060   0.407  0.0358 -0.0088  0.3979
 6716TIP3    H141783   5.444   5.034   0.413  0.2120  0.4465 -0.1592
 6716TIP3    H241784   5.353   5.137   0.350 -0.8459 -0.8284 -0.7875
 6717TIP3   OH241785   1.290   5.854   0.549 -0.1114  0.7126  0.1339
 6717TIP3    H141786   1.320   5.772   0.508 -0.6099  0.3346  0.5099
 6717TIP3    H241787   1.346   5.865   0.625  1.4008  1.8740 -1.0834
 6718TIP3   OH241788   4.518   0.773   8.412  0.2560  0.1256  0.0511
 6718TIP3    H141789   4.528   0.705   8.346  1.7854  0.8238 -0.4674
 6718TIP3    H241790   4.601   0.820   8.412 -0.6242  1.7787  0.6406
 6719TIP3   OH241791   6.738   3.339   1.581 -0.1300 -0.1615  0.5891
 6719TIP3    H141792   6.776   3.404   1.522 -0.0275  0.3508  1.2151
 6719TIP3    H241793   6.715   3.388   1.660 -0.3781 -0.8181  0.9315
 6720TIP3   OH241794   2.990   0.811   0.608 -0.0004  0.2321  0.3350
 6720TIP3    H141795   3.061   0.807   0.544  0.1083  0.6446  0.4246
 6720TIP3    H241796   2.930   0.742   0.582  1.2271 -1.2317  1.2289
 6721TIP3   OH241797   5.626   2.023   2.033 -0.2807  0.4383 -0.4185
 6721TIP3    H141798   5.582   1.942   2.006 -0.8071  0.1746  1.1628
 6721TIP3    H241799   5.570   2.092   1.997 -1.7308  0.0996  1.0456
 6722TIP3   OH241800   3.380   5.286   0.982 -0.2019 -0.1116 -0.2202
 6722TIP3    H141801   3.363   5.222   1.051 -2.3734 -0.1557 -0.7208
 6722TIP3    H241802   3.326   5.362   1.005  0.5137  0.6254 -0.8874
 6723TIP3   OH241803   2.457   6.035   8.215  0.0296 -0.3024  0.0459
 6723TIP3    H141804   2.522   6.010   8.149  1.9427  1.0417  1.3147
 6723TIP3    H241805   2.454   5.960   8.275 -1.8662 -1.6197 -1.5310
 6724TIP3   OH241806   0.774   6.338   7.634  0.1616 -0.2384 -0.3370
 6724TIP3    H141807   0.832   6.306   7.565  3.4725  1.0598  1.6274
 6724TIP3    H241808   0.796   6.286   7.711 -0.3756  1.1467  0.7976
 6725TIP3   OH241809   1.931   1.806   0.234 -0.0030  0.1359  0.5576
 6725TIP3    H141810   2.026   1.808   0.243  0.0944  0.0346 -0.3685
 6725TIP3    H241811   1.899   1.798   0.324  0.8592  0.1381  0.8784
 6726TIP3   OH241812   3.604   1.687   8.527  0.4508  0.4580  0.2293
 6726TIP3    H141813   3.534   1.741   8.489  0.2103  1.1836  1.5992
 6726TIP3    H241814   3.682   1.710   8.478  0.1358  1.2687  0.0935
 6727TIP3   OH241815   6.194   3.884   7.057  0.2042 -0.0229 -0.0295
 6727TIP3    H141816   6.246   3.964   7.048 -0.2432  0.0724 -2.2289
 6727TIP3    H241817   6.104   3.915   7.069  0.2391 -0.2053  0.7509
 6728TIP3   OH241818   0.733   4.585   0.961  0.0062  0.5505 -0.2297
 6728TIP3    H141819   0.761   4.564   1.050  0.8503  0.8846 -0.4048
 6728TIP3    H241820   0.772   4.670   0.942  1.0894 -0.1620 -1.4254
 6729TIP3   OH241821   2.197   4.164   2.315  0.4781 -0.1754  0.0044
 6729TIP3    H141822   2.198   4.137   2.223 -0.0303  0.5260 -0.2136
 6729TIP3    H241823   2.262   4.234   2.319 -0.1528  0.4191 -0.0238
 6730TIP3   OH241824   0.343   0.833   0.957 -0.0598  0.3768  0.4319
 6730TIP3    H141825   0.307   0.915   0.991 -1.9735 -0.7434  1.2749
 6730TIP3    H241826   0.436   0.852   0.942  0.0169  2.0837  2.5408
 6731TIP3   OH241827   6.650   4.906   2.298  0.2497 -0.3942  0.3524
 6731TIP3    H141828   6.738   4.917   2.261  0.4160  0.2816  0.9312
 6731TIP3    H241829   6.649   4.963   2.374 -1.7001  1.9951 -1.3251
 6732TIP3   OH241830   2.264   2.370   0.727  0.3810 -0.7117  1.1366
 6732TIP3    H141831   2.185   2.416   0.756  1.8383  1.8807  1.3720
 6732TIP3    H241832   2.327   2.385   0.797  1.6466 -1.0625  0.1153
 6733TIP3   OH241833   3.829   2.346   7.571 -0.3147 -0.1715 -0.1925
 6733TIP3    H141834   3.770   2.342   7.496 -1.1003  0.0392  0.4012
 6733TIP3    H241835   3.779   2.308   7.643  0.7361 -1.1876  0.0430
 6734TIP3   OH241836   6.703   3.440   1.840  0.7358 -0.1757 -0.0319
 6734TIP3    H141837   6.753   3.360   1.857  0.4655  0.0838  2.2873
 6734TIP3    H241838   6.668   3.465   1.925 -2.0875  0.5238 -1.2929
 6735TIP3   OH241839   6.891   0.398   6.707  0.3263 -0.2234  0.2035
 6735TIP3    H141840   6.839   0.422   6.783  1.0478  0.2251  0.5691
 6735TIP3    H241841   6.978   0.434   6.725  0.5357 -0.2112 -0.7797
 6736TIP3   OH241842   2.421   2.839   0.028  0.1819  0.0878 -0.4773
 6736TIP3    H141843   2.461   2.770  -0.025 -0.2698 -1.2235  0.8123
 6736TIP3    H241844   2.430   2.807   0.118 -1.0178  1.2227  0.0660
 6737TIP3   OH241845   5.646   4.127   7.211 -0.4919 -0.6567 -0.6923
 6737TIP3    H141846   5.589   4.167   7.146  0.0207 -0.9766 -1.3479
 6737TIP3    H241847   5.586   4.085   7.273 -1.1087  1.8620  0.5580
 6738TIP3   OH241848   6.432   0.557   0.477 -0.3079  0.1787 -0.0034
 6738TIP3    H141849   6.476   0.591   0.555  0.5127  0.3498 -0.5338
 6738TIP3    H241850   6.346   0.600   0.477 -0.7007 -0.5467  1.3226
 6739TIP3   OH241851   1.962   0.816   1.563  0.2124  0.1404 -0.5888
 6739TIP3    H141852   1.879   0.776   1.537 -0.1767 -0.2298  1.0643
 6739TIP3    H241853   1.936   0.897   1.607  0.8751  1.0727 -1.8497
 6740TIP3   OH241854   0.806   1.682   0.172  0.2704  0.5725 -0.1879
 6740TIP3    H141855   0.882   1.740   0.164 -1.4577  2.8604 -1.1071
 6740TIP3    H241856   0.751   1.724   0.238  0.0273 -1.3629  0.9070
 6741TIP3   OH241857   1.302   6.077   0.050  0.3481  0.1684 -0.0421
 6741TIP3    H141858   1.259   6.048  -0.031  1.0441 -0.3511 -0.2399
 6741TIP3    H241859   1.323   5.996   0.096  1.6663  0.3617 -0.2564
 6742TIP3   OH241860   6.366   4.480   0.874  0.6944 -0.0940 -0.4205
 6742TIP3    H141861   6.366   4.507   0.965  0.8293  1.4252 -0.8431
 6742TIP3    H241862   6.436   4.532   0.834  0.9090 -1.0316 -1.3116
 6743TIP3   OH241863   6.203   4.157   1.107 -0.3775  0.3307 -0.0449
 6743TIP3    H141864   6.255   4.172   1.028 -0.2741 -0.7184 -0.1897
 6743TIP3    H241865   6.113   4.149   1.076 -0.3206 -0.2095 -0.0757
 6744TIP3   OH241866   4.932   0.950   0.750  0.4975 -0.3679  0.1077
 6744TIP3    H141867   4.945   0.996   0.668 -0.4291 -0.3338 -0.0283
 6744TIP3    H241868   4.948   0.858   0.730 -2.6262 -0.7995 -0.8708
 6745TIP3   OH241869   2.416   5.866   6.909 -0.3853 -0.0834 -0.3075
 6745TIP3    H141870   2.510   5.886   6.915 -0.4856  0.6448 -1.0316
 6745TIP3    H241871   2.411   5.771   6.924  0.4031 -0.0411  0.3051
 6746TIP3   OH241872   5.940   4.474   8.529 -0.2782 -0.4157 -0.3884
 6746TIP3    H141873   5.954   4.479   8.434 -1.9770  2.2481 -0.6128
 6746TIP3    H241874   5.993   4.545   8.564  0.6079 -1.6028  0.7463
 6747TIP3   OH241875   4.977   1.044   0.109  0.1282  0.2725 -0.5163
 6747TIP3    H141876   4.953   0.970   0.053  1.4980 -0.8724  0.3429
 6747TIP3    H241877   4.893   1.074   0.145 -0.8349  1.2136 -3.2684
 6748TIP3   OH241878   0.108   2.279   0.531 -0.2932 -0.4996 -0.3711
 6748TIP3    H141879   0.187   2.268   0.582 -1.5603  0.1288  1.8797
 6748TIP3    H241880   0.112   2.370   0.499 -1.3570  0.5281  2.1814
 6749TIP3   OH241881   4.661   3.581   2.376 -0.1237 -0.4656 -0.6123
 6749TIP3    H141882   4.606   3.626   2.440  1.7492 -0.9426  1.4253
 6749TIP3    H241883   4.611   3.504   2.351 -1.8412  0.8531 -1.4977
 6750TIP3   OH241884   1.526   4.567   1.662  0.4528 -0.3195 -0.3855
 6750TIP3    H141885   1.528   4.661   1.676 -0.5930 -0.4182  0.5901
 6750TIP3    H241886   1.523   4.557   1.567 -1.4560  0.7216 -0.4817
 6751TIP3   OH241887   3.332   0.581   7.370  0.9126  0.0894 -0.2083
 6751TIP3    H141888   3.338   0.669   7.332 -2.3863 -0.0147 -1.3016
 6751TIP3    H241889   3.405   0.533   7.332  0.2220  1.1912 -3.1821
 6752TIP3   OH241890   2.760   3.682   8.104  0.3797 -0.0681 -0.3104
 6752TIP3    H141891   2.740   3.589   8.093  0.3257  0.0960 -1.7418
 6752TIP3    H241892   2.731   3.723   8.022  0.8225  1.1437  0.1168
 6753TIP3   OH241893   2.685   6.839   1.582 -0.1816  0.2519 -0.1662
 6753TIP3    H141894   2.749   6.878   1.523 -2.4533  0.5866 -2.5851
 6753TIP3    H241895   2.606   6.892   1.571 -1.6748 -1.6750  0.6829
 6754TIP3   OH241896   4.677   1.503   6.767  0.1925 -0.0247  0.2964
 6754TIP3    H141897   4.685   1.548   6.683  1.3294  1.2645  1.0457
 6754TIP3    H241898   4.746   1.541   6.821  0.4763 -1.9050  1.3477
 6755TIP3   OH241899   6.660   2.255   0.966 -0.1016 -0.0527 -0.4237
 6755TIP3    H141900   6.574   2.218   0.945  0.3045 -0.9893 -0.4663
 6755TIP3    H241901   6.719   2.220   0.900  0.2481  0.9373 -0.6587
 6756TIP3   OH241902   3.495   0.011   0.895  0.1054  0.1240  0.0965
 6756TIP3    H141903   3.590   0.009   0.908 -0.2384  1.4117  4.5570
 6756TIP3    H241904   3.466  -0.077   0.916  0.1924  0.2587  0.8110
 6757TIP3   OH241905   6.241   1.776   2.832 -0.3891  0.4004  0.3163
 6757TIP3    H141906   6.208   1.865   2.843 -0.1607  0.4860  0.2952
 6757TIP3    H241907   6.162   1.723   2.817 -0.5024  0.6356  0.0814
 6758TIP3   OH241908   4.220   6.096   8.578 -0.8002  0.5880  0.2623
 6758TIP3    H141909   4.176   6.064   8.656  0.1957 -0.2522  0.5091
 6758TIP3    H241910   4.171   6.058   8.505  0.9905 -2.6383  0.5393
 6759TIP3   OH241911   2.127   4.814   0.620  0.0893  0.5513 -0.0090
 6759TIP3    H141912   2.174   4.875   0.676 -0.6774  1.1634 -0.0043
 6759TIP3    H241913   2.194   4.774   0.565  0.3625  3.7648 -2.2648
 6760TIP3   OH241914   2.505   3.351   1.620  0.0406  0.0892 -0.6002
 6760TIP3    H141915   2.548   3.409   1.558  0.5742  0.5983  0.2223
 6760TIP3    H241916   2.414   3.381   1.623  0.4866  1.4541  0.4236
 6761TIP3   OH241917   3.119   2.299   7.614 -0.1940  0.3062 -0.4561
 6761TIP3    H141918   3.127   2.384   7.658 -0.8851  0.2254 -0.1549
 6761TIP3    H241919   3.025   2.287   7.602 -0.2713 -1.3018  1.2753
 6762TIP3   OH241920   3.820   2.626   7.909  0.0206 -0.2495  0.1701
 6762TIP3    H141921   3.843   2.535   7.929 -2.0401 -0.6317  1.1907
 6762TIP3    H241922   3.901   2.665   7.877  1.3102 -2.0771  0.9918
 6763TIP3   OH241923   1.696   0.762   3.194  0.0098  0.1128 -0.2262
 6763TIP3    H141924   1.739   0.843   3.168 -0.7695  0.0683 -1.8218
 6763TIP3    H241925   1.718   0.700   3.124 -2.6024  0.1064 -1.1674
 6764TIP3   OH241926   1.705   1.262   8.045 -0.4289 -0.1469 -0.1926
 6764TIP3    H141927   1.651   1.328   8.001 -1.4127  0.2569  1.5195
 6764TIP3    H241928   1.782   1.309   8.074 -1.6011  0.5788  1.9423
 6765TIP3   OH241929   1.621   0.552   0.886 -0.3450  0.0729  0.3334
 6765TIP3    H141930   1.634   0.536   0.980  0.8198  1.5258  0.4442
 6765TIP3    H241931   1.708   0.574   0.853 -0.6412 -0.9698 -1.2250
 6766TIP3   OH241932   5.171   5.391   0.673  0.5497  0.0298  0.5605
 6766TIP3    H141933   5.186   5.297   0.681  3.1307  0.4420  1.6261
 6766TIP3    H241934   5.110   5.412   0.743 -0.5624 -0.9153 -0.0955
 6767TIP3   OH241935   6.838   1.865   8.094  0.0770 -0.2124 -0.8040
 6767TIP3    H141936   6.758   1.901   8.055  0.3321 -0.5681 -1.6712
 6767TIP3    H241937   6.904   1.933   8.080 -0.1353  0.2245  0.2072
 6768TIP3   OH241938   2.460   4.951   1.994  0.7409  0.0975  0.2434
 6768TIP3    H141939   2.518   4.956   1.918  1.9677 -1.2389  1.0466
 6768TIP3    H241940   2.418   5.037   1.998  0.1492  0.0219 -2.3015
 6769TIP3   OH241941   4.747   5.272   7.981 -0.3294 -0.1497 -0.3008
 6769TIP3    H141942   4.842   5.265   7.987 -0.0452  2.1991 -0.8691
 6769TIP3    H241943   4.729   5.274   7.887 -1.0123 -1.1150 -0.2027
 6770TIP3   OH241944   3.282   5.563   7.444 -0.4456  0.1046 -1.0143
 6770TIP3    H141945   3.261   5.650   7.476 -0.0222 -0.4286  0.8123
 6770TIP3    H241946   3.198   5.517   7.442 -0.1274 -0.9654  2.9707
 6771TIP3   OH241947   6.187   6.057   7.987  0.3147  0.2952  0.4434
 6771TIP3    H141948   6.273   6.089   8.015  1.1900 -1.1099 -0.5128
 6771TIP3    H241949   6.204   6.010   7.906 -1.3525 -0.1177  0.2923
 6772TIP3   OH241950   0.841   5.633   7.901 -0.3192 -0.6100 -0.1684
 6772TIP3    H141951   0.772   5.667   7.957  0.4296 -0.8773  0.9329
 6772TIP3    H241952   0.795   5.585   7.832 -1.2688  0.3170 -0.1942
 6773TIP3   OH241953   4.118   0.182   8.146 -0.7058 -0.2696 -0.2345
 6773TIP3    H141954   4.085   0.161   8.059  0.4062 -0.6575 -0.5745
 6773TIP3    H241955   4.207   0.147   8.148 -1.1999 -1.5999  1.5720
 6774TIP3   OH241956   4.879   0.433   0.503 -0.4773  0.1792  0.2052
 6774TIP3    H141957   4.888   0.339   0.486 -0.5313  0.3552 -0.8737
 6774TIP3    H241958   4.927   0.475   0.432 -1.9401  0.9761 -0.3681
 6775TIP3   OH241959   6.105   3.260   6.911  0.4843 -0.2104 -0.0910
 6775TIP3    H141960   6.016   3.268   6.877  0.4403 -0.5499 -0.0594
 6775TIP3    H241961   6.130   3.169   6.894  1.5351  0.3437 -1.8376
 6776TIP3   OH241962   5.571   3.128   2.787 -0.0539 -0.6670  0.1996
 6776TIP3    H141963   5.519   3.208   2.796 -1.3885 -1.5329  0.4372
 6776TIP3    H241964   5.618   3.139   2.704  0.4061  0.6948  0.6157
 6777TIP3   OH241965   4.472   0.895   7.119 -0.6819 -0.2837 -0.0754
 6777TIP3    H141966   4.383   0.884   7.152 -0.8719 -1.3795 -0.8671
 6777TIP3    H241967   4.526   0.846   7.181 -0.8755 -1.1820 -0.5841
 6778TIP3   OH241968   3.190   4.721   0.001 -0.1578  0.2303  0.3299
 6778TIP3    H141969   3.129   4.720   0.075 -1.3209 -0.5985 -0.5902
 6778TIP3    H241970   3.171   4.802  -0.045  0.6325  0.7930  0.9655
 6779TIP3   OH241971   5.867   1.711   1.017 -0.0085  0.2528 -0.1875
 6779TIP3    H141972   5.783   1.697   1.060  0.8384  1.1287  1.8451
 6779TIP3    H241973   5.849   1.778   0.951 -0.7072  1.2714  0.9934
 6780TIP3   OH241974   1.565   2.036   7.816  0.7126 -0.4283  0.5506
 6780TIP3    H141975   1.483   2.087   7.817  0.5080 -0.6880 -0.7030
 6780TIP3    H241976   1.632   2.100   7.793  0.5440 -0.5815 -0.4250
 6781TIP3   OH241977   4.694   4.974   2.039  0.2229  0.0230 -0.3320
 6781TIP3    H141978   4.602   4.975   2.065  0.4030  2.9896  0.5337
 6781TIP3    H241979   4.712   4.882   2.021 -3.5436 -0.4639 -2.9569
 6782TIP3   OH241980   6.311   2.815   2.267  0.5956  0.2706  0.3717
 6782TIP3    H141981   6.375   2.861   2.320 -0.1829 -0.0460  1.6070
 6782TIP3    H241982   6.364   2.750   2.218  1.0737 -1.1018  2.5825
 6783TIP3   OH241983   0.678   0.184   1.822 -0.3554 -0.0109  0.4169
 6783TIP3    H141984   0.601   0.141   1.860  0.4149 -1.3280  0.5809
 6783TIP3    H241985   0.714   0.119   1.761  0.1625  0.9037 -0.2770
 6784TIP3   OH241986   4.044   0.196   0.465 -0.2163 -0.1062 -0.5070
 6784TIP3    H141987   3.997   0.226   0.543 -0.1930  0.4710 -0.7063
 6784TIP3    H241988   4.126   0.245   0.466  1.3013 -2.4882  0.8797
 6785TIP3   OH241989   0.769   3.516   0.902  0.3590  0.7979 -1.0301
 6785TIP3    H141990   0.750   3.543   0.992 -0.1958 -0.0875 -0.8645
 6785TIP3    H241991   0.865   3.518   0.896  0.7612 -2.9668  0.9046
 6786TIP3   OH241992   5.061   6.902   1.521  0.2929 -0.1984 -0.2883
 6786TIP3    H141993   5.061   6.831   1.585  0.5733 -1.5383 -1.7023
 6786TIP3    H241994   4.983   6.886   1.467 -0.7751  1.7735  0.5961
 6787TIP3   OH241995   3.376   0.953   7.650 -0.0702  0.0085 -0.1985
 6787TIP3    H141996   3.319   1.011   7.599 -0.1475 -0.0381 -0.1651
 6787TIP3    H241997   3.464   0.987   7.634 -0.2085  0.8875  0.7668
 6788TIP3   OH241998   1.527   4.930   7.912 -0.2748 -0.3891 -0.1221
 6788TIP3    H141999   1.613   4.934   7.871  0.1331  0.0391  0.7294
 6788TIP3    H242000   1.533   4.856   7.973 -0.5389 -0.4205 -0.1333
 6789TIP3   OH242001   3.752   1.769   2.307 -0.9491 -0.1760  1.0475
 6789TIP3    H142002   3.737   1.807   2.220 -1.0656  0.5851  1.4001
 6789TIP3    H242003   3.703   1.687   2.306 -0.4614 -0.4765  0.1799
 6790TIP3   OH242004   4.513   2.394   2.087 -0.1544  0.1924 -0.2396
 6790TIP3    H142005   4.502   2.466   2.025  0.4850  0.6145  0.1246
 6790TIP3    H242006   4.488   2.316   2.037 -0.7997  0.6579 -0.6529
 6791TIP3   OH242007   4.567   6.435   8.373 -0.5023 -0.2954 -0.0561
 6791TIP3    H142008   4.555   6.502   8.440  2.2114  0.7662 -0.5273
 6791TIP3    H242009   4.524   6.470   8.295  0.0533  0.4471 -0.0308
 6792TIP3   OH242010   2.323   0.063   0.208 -0.5055  0.1693 -0.3114
 6792TIP3    H142011   2.320  -0.032   0.223 -1.0199 -0.0016 -1.3988
 6792TIP3    H242012   2.276   0.076   0.126  0.3308  1.2712 -0.6449
 6793TIP3   OH242013   1.496   1.309   7.792 -1.0203 -0.3746 -0.2367
 6793TIP3    H142014   1.515   1.362   7.870  1.4008 -1.8487  0.3009
 6793TIP3    H242015   1.542   1.354   7.721 -1.9044  0.1134 -0.5080
 6794TIP3   OH242016   1.867   1.667   7.273 -0.0197  0.1988  0.4173
 6794TIP3    H142017   1.877   1.696   7.364 -0.0635  2.7170 -0.3226
 6794TIP3    H242018   1.955   1.676   7.236 -0.2936  0.5265 -0.1585
 6795TIP3   OH242019   2.472   5.279   8.004  0.7712  0.0904 -0.0879
 6795TIP3    H142020   2.442   5.293   8.094  1.7993 -0.4128  0.3526
 6795TIP3    H242021   2.437   5.353   7.955  0.8585  0.7932  0.8931
 6796TIP3   OH242022   4.083   2.427   1.402 -0.0293 -0.4161  0.0798
 6796TIP3    H142023   4.010   2.456   1.348  0.3800  0.3040 -0.0961
 6796TIP3    H242024   4.060   2.337   1.427 -0.4372 -0.6046 -0.9195
 6797TIP3   OH242025   6.262   4.806   8.510 -0.6627 -0.2092  1.1031
 6797TIP3    H142026   6.270   4.757   8.591  0.8694 -1.6626  0.1318
 6797TIP3    H242027   6.345   4.854   8.502 -1.4484  1.2125  1.1757
 6798TIP3   OH242028   2.500   4.657   2.981 -0.6249  0.0477  0.2876
 6798TIP3    H142029   2.558   4.728   3.007 -0.4470 -0.4372  1.2741
 6798TIP3    H242030   2.418   4.700   2.957 -0.1377  0.6685 -0.3036
 6799TIP3   OH242031   0.478   1.705   0.146  0.0484  0.5166  0.1308
 6799TIP3    H142032   0.514   1.724   0.059 -0.0398 -0.3666 -0.1126
 6799TIP3    H242033   0.396   1.753   0.150 -0.4866 -0.2965 -0.7121
 6800TIP3   OH242034   6.368   3.572   1.829 -0.1952  0.2037  0.1144
 6800TIP3    H142035   6.451   3.618   1.819  0.0824 -0.4815 -0.8925
 6800TIP3    H242036   6.356   3.525   1.746 -1.4909  0.1319  0.3224
 6801TIP3   OH242037   1.616   1.948   6.880 -0.1603 -0.3039 -0.3648
 6801TIP3    H142038   1.521   1.959   6.878 -0.0494  0.6937 -2.5696
 6801TIP3    H242039   1.651   2.037   6.880  0.7885 -0.6603 -0.6649
 6802TIP3   OH242040   2.548   5.662   7.552  0.1475 -0.2064 -0.0064
 6802TIP3    H142041   2.594   5.698   7.627  0.6323 -2.6125  0.9486
 6802TIP3    H242042   2.617   5.628   7.495 -0.2652  0.6057 -1.0217
 6803TIP3   OH242043   1.175   4.824   0.985 -0.3721  0.0849 -0.0951
 6803TIP3    H142044   1.122   4.878   1.044  1.2927  2.9500 -1.0042
 6803TIP3    H242045   1.149   4.851   0.897 -0.0147 -1.1885 -0.6164
 6804TIP3   OH242046   1.257   2.304   0.065 -0.2236  0.2179 -0.5431
 6804TIP3    H142047   1.284   2.373   0.125 -1.0491  1.2437 -1.3071
 6804TIP3    H242048   1.240   2.350  -0.018 -0.6376 -0.9269 -1.1119
 6805TIP3   OH242049   2.791   1.963   1.608 -0.2443 -0.0038  0.5513
 6805TIP3    H142050   2.745   1.880   1.616 -3.2049  1.4905  0.4234
 6805TIP3    H242051   2.828   1.961   1.519  0.1761 -1.3408  0.7328
 6806TIP3   OH242052   1.978   4.829   0.185  0.0693  0.2853 -0.1855
 6806TIP3    H142053   2.064   4.851   0.220  0.3449 -0.4188 -0.4024
 6806TIP3    H242054   1.971   4.734   0.194 -1.9562  0.5932  2.6697
 6807TIP3   OH242055   3.524   3.275   7.681  0.5634  0.1404  0.2572
 6807TIP3    H142056   3.584   3.202   7.668  1.2628  0.6731  0.4717
 6807TIP3    H242057   3.578   3.353   7.675  0.4800  0.5694  3.4197
 6808TIP3   OH242058   3.726   3.315   1.979 -0.1349  0.2029  0.0224
 6808TIP3    H142059   3.801   3.374   1.980 -1.0668  1.4438 -0.6669
 6808TIP3    H242060   3.682   3.333   1.896 -0.8756 -0.9252  0.1498
 6809TIP3   OH242061   0.234   5.212   2.004 -0.0592 -0.0861 -0.3657
 6809TIP3    H142062   0.283   5.195   2.085  0.7374  0.1886 -0.7823
 6809TIP3    H242063   0.216   5.125   1.968  0.7763 -0.1668 -0.5939
 6810TIP3   OH242064   5.018   4.990   0.354 -0.0766 -0.3758 -0.0630
 6810TIP3    H142065   4.991   4.921   0.293 -1.5615  0.1324 -0.0158
 6810TIP3    H242066   5.081   4.947   0.412  0.0198 -1.3382 -0.8527
 6811TIP3   OH242067   0.358   5.979   0.438 -0.1942  0.6848  0.1246
 6811TIP3    H142068   0.375   6.038   0.511  2.2708  0.5209 -0.2176
 6811TIP3    H242069   0.430   5.916   0.441 -1.2030 -0.6007 -1.2013
 6812TIP3   OH242070   4.012   0.097   1.102  0.4216  0.8011  0.1211
 6812TIP3    H142071   3.923   0.131   1.092 -0.4146 -0.8536  1.4585
 6812TIP3    H242072   4.001   0.006   1.128  2.5341  0.4158 -0.0922
 6813TIP3   OH242073   3.742   4.391   1.340 -0.2623  0.1719 -0.3739
 6813TIP3    H142074   3.825   4.351   1.367 -1.5164 -3.0630 -0.7771
 6813TIP3    H242075   3.749   4.399   1.245  0.3851  2.0465 -0.1961
 6814TIP3   OH242076   0.067   4.317   8.098 -0.5366 -0.2413 -0.0780
 6814TIP3    H142077  -0.028   4.331   8.109 -0.0907  2.9546  0.6700
 6814TIP3    H242078   0.078   4.300   8.004 -1.7221  0.7703 -0.4294
 6815TIP3   OH242079   0.188   5.435   7.541  0.3315  0.4795 -0.4759
 6815TIP3    H142080   0.259   5.382   7.504 -0.8402  0.0332 -2.2418
 6815TIP3    H242081   0.120   5.434   7.473 -0.8515  1.9503  0.6209
 6816TIP3   OH242082   5.479   6.296   2.301 -0.3025  0.1504 -0.3122
 6816TIP3    H142083   5.572   6.314   2.313 -0.3082 -0.3995  0.6094
 6816TIP3    H242084   5.444   6.376   2.261  0.1542  1.2073  1.3441
 6817TIP3   OH242085   6.670   4.369   0.775 -0.9439  0.3001  0.1663
 6817TIP3    H142086   6.725   4.294   0.797  0.0941  0.7716 -0.7316
 6817TIP3    H242087   6.727   4.426   0.724 -2.3672  0.6665 -1.0778
 6818TIP3   OH242088   4.539   3.358   7.317 -0.5395  0.3086  0.1921
 6818TIP3    H142089   4.487   3.411   7.257 -0.7157  1.1973  1.0949
 6818TIP3    H242090   4.622   3.344   7.272 -1.4903 -1.0307 -1.2205
 6819TIP3   OH242091   1.512   3.955   1.072  0.2380  0.5709 -0.3161
 6819TIP3    H142092   1.484   3.912   1.153  1.8865  2.3502  1.3038
 6819TIP3    H242093   1.465   4.039   1.072  2.2486  1.7767  0.3021
 6820TIP3   OH242094   3.204   6.130   8.101  0.1207 -0.1096 -0.2191
 6820TIP3    H142095   3.221   6.036   8.103 -1.4065 -0.4538 -1.4191
 6820TIP3    H242096   3.284   6.170   8.136  0.7869 -1.8366  0.3229
 6821TIP3   OH242097   0.121   1.931   7.531 -0.2201  0.3394  0.3263
 6821TIP3    H142098   0.154   1.891   7.451 -1.7415  0.5660 -0.4467
 6821TIP3    H242099   0.127   2.025   7.516 -0.5296  0.3844  0.4627
 6822TIP3   OH242100   2.077   2.233   0.536 -0.2651 -0.0328 -0.0191
 6822TIP3    H142101   2.033   2.227   0.621 -0.2265 -0.9131 -0.0602
 6822TIP3    H242102   2.166   2.260   0.557  0.1034 -1.4417  0.3357
 6823TIP3   OH242103   4.295   5.261   2.409  0.2431 -0.7144 -0.1885
 6823TIP3    H142104   4.247   5.199   2.464 -1.4585 -0.2551 -1.0482
 6823TIP3    H242105   4.311   5.214   2.327 -0.5303 -0.2450 -0.6264
 6824TIP3   OH242106   2.650   1.485   1.479 -1.0273  0.1020  0.2204
 6824TIP3    H142107   2.727   1.429   1.471 -0.8752  0.4992 -1.5917
 6824TIP3    H242108   2.577   1.424   1.493 -0.7787 -0.5414 -1.1180
 6825TIP3   OH242109   5.520   3.794   6.954 -0.2848 -0.7264 -0.9246
 6825TIP3    H142110   5.609   3.812   6.984 -0.7650  0.7024 -0.2140
 6825TIP3    H242111   5.499   3.869   6.898 -1.9355  0.4233  1.0592
 6826TIP3   OH242112   4.991   3.962   1.356 -0.0479  0.3310  0.1472
 6826TIP3    H142113   5.043   4.030   1.399  0.7936 -0.6524  0.7294
 6826TIP3    H242114   5.053   3.916   1.299 -0.6599  0.1876 -0.4168
 6827TIP3   OH242115   1.110   3.948   7.349  0.0245 -0.4132  0.3541
 6827TIP3    H142116   1.080   4.018   7.291  1.0600  0.5546  0.9444
 6827TIP3    H242117   1.101   3.868   7.297  1.4976  0.4764 -1.3801
 6828TIP3   OH242118   4.418   5.494   3.552 -0.3502  0.0897  0.5544
 6828TIP3    H142119   4.377   5.425   3.499 -2.1838  0.3718  1.5078
 6828TIP3    H242120   4.414   5.572   3.498  1.8832 -0.5235 -0.5981
 6829TIP3   OH242121   1.951   1.413   8.118  0.3491 -0.4390 -0.0351
 6829TIP3    H142122   1.903   1.424   8.201 -1.6194 -0.3442 -1.1300
 6829TIP3    H242123   1.982   1.501   8.097  0.6456 -0.4190  0.4483
 6830TIP3   OH242124   2.500   2.204   7.626 -0.3326 -0.0455 -0.4854
 6830TIP3    H142125   2.421   2.207   7.571 -0.4773 -0.7525 -0.3234
 6830TIP3    H242126   2.468   2.226   7.714 -0.6024 -1.6379 -0.1585
 6831TIP3   OH242127   1.738   4.237   8.128 -0.4859  0.2190 -0.1512
 6831TIP3    H142128   1.662   4.214   8.075 -0.1607  0.0200 -0.5403
 6831TIP3    H242129   1.747   4.165   8.191 -0.9605  0.5280  0.2814
 6832TIP3   OH242130   0.448   0.620   7.746  0.3808 -0.4497 -0.5560
 6832TIP3    H142131   0.510   0.549   7.763  0.7631 -0.1422 -0.6537
 6832TIP3    H242132   0.403   0.594   7.665 -0.9494 -1.5767  0.5029
 6833TIP3   OH242133   6.837   6.422   0.237 -0.3692  0.0760  0.3408
 6833TIP3    H142134   6.911   6.462   0.282  0.8913 -1.0101 -0.6523
 6833TIP3    H242135   6.798   6.492   0.185 -1.0288  1.0230  2.0624
 6834TIP3   OH242136   3.062   0.689   0.139  0.0910 -0.2230  0.3743
 6834TIP3    H142137   3.152   0.688   0.106 -0.0419  1.7862 -0.1675
 6834TIP3    H242138   3.067   0.646   0.224  1.3382 -1.1368 -0.1193
 6835TIP3   OH242139   6.239   1.485   7.159  0.1514  0.2411 -0.1536
 6835TIP3    H142140   6.295   1.531   7.097  0.9102  0.2908  0.5451
 6835TIP3    H242141   6.283   1.401   7.173 -1.5566 -1.0233 -1.9180
 6836TIP3   OH242142   4.204   0.394   8.293 -0.1883 -0.7072  0.0600
 6836TIP3    H142143   4.218   0.360   8.381 -1.0253 -0.3166  0.3498
 6836TIP3    H242144   4.181   0.318   8.240 -0.8673 -0.7731  0.4447
 6837TIP3   OH242145   1.853   1.158   6.805 -0.1800 -0.2449  0.4893
 6837TIP3    H142146   1.935   1.112   6.822 -0.6130 -0.8240  1.0568
 6837TIP3    H242147   1.797   1.093   6.761  0.0471  0.4877 -0.9556
 6838TIP3   OH242148   0.060   3.120   1.653  0.2212  0.4565  0.6591
 6838TIP3    H142149   0.072   3.032   1.616 -0.0881  0.3372  0.8407
 6838TIP3    H242150   0.132   3.171   1.616  2.4697 -0.6723  3.1598
 6839TIP3   OH242151   0.258   1.199   8.304  0.0000  0.4771 -0.1312
 6839TIP3    H142152   0.210   1.280   8.288  2.5358  2.0733 -0.2018
 6839TIP3    H242153   0.256   1.152   8.221 -0.8331  0.8242 -0.3130
 6840TIP3   OH242154   4.895   6.522   1.438  0.1724 -0.0753  0.2717
 6840TIP3    H142155   4.844   6.491   1.513 -0.3723  1.2242  0.4554
 6840TIP3    H242156   4.891   6.617   1.443  3.2230  0.1399  0.7260
 6841TIP3   OH242157   6.718   6.089   2.264  0.0904 -0.0996  0.1966
 6841TIP3    H142158   6.749   6.031   2.194 -0.3106  1.2646 -1.1631
 6841TIP3    H242159   6.645   6.041   2.303  1.7213 -1.8733  1.2391
 6842TIP3   OH242160   6.087   2.590   0.781  0.1306 -0.1674  0.2429
 6842TIP3    H142161   6.072   2.515   0.723 -0.6003 -0.3547  0.6702
 6842TIP3    H242162   6.181   2.586   0.801 -0.1206 -1.7561  1.3104
 6843TIP3   OH242163   3.737   4.078   8.444  0.2393  0.0048 -0.0286
 6843TIP3    H142164   3.832   4.071   8.445  0.1272 -2.4462  1.5450
 6843TIP3    H242165   3.710   4.021   8.371 -0.0482 -0.1266  0.1794
 6844TIP3   OH242166   5.496   1.425   2.218  0.3612 -0.3489 -0.4924
 6844TIP3    H142167   5.577   1.454   2.261  0.1995  0.1287 -0.4956
 6844TIP3    H242168   5.433   1.419   2.289 -0.5681  2.7671 -0.8706
 6845TIP3   OH242169   2.809   5.031   7.626  0.1399 -0.0438  0.5921
 6845TIP3    H142170   2.827   4.972   7.553 -0.1558 -0.9810  1.2677
 6845TIP3    H242171   2.894   5.070   7.646  0.0932  0.8304 -0.7394
 6846TIP3   OH242172   4.283   0.461   2.360 -0.0592 -0.0002  0.1286
 6846TIP3    H142173   4.205   0.418   2.324  0.8744 -1.5656 -0.1164
 6846TIP3    H242174   4.311   0.404   2.431  1.8393 -0.4435 -0.8867
 6847TIP3   OH242175   5.164   4.156   2.135  0.2245 -0.0004  0.3324
 6847TIP3    H142176   5.258   4.164   2.119  0.6337 -1.6439  1.5878
 6847TIP3    H242177   5.152   4.065   2.163 -2.0674 -0.5023 -1.8112
 6848TIP3   OH242178   3.720   3.619   1.223 -0.6673  0.3809 -0.3724
 6848TIP3    H142179   3.671   3.556   1.277  1.1064  0.4524  1.4479
 6848TIP3    H242180   3.732   3.575   1.140  1.7759 -2.4675  1.2923
 6849TIP3   OH242181   1.378   5.415   1.492 -0.2484 -0.5795  0.8913
 6849TIP3    H142182   1.338   5.432   1.577 -0.5227 -1.6119  0.9834
 6849TIP3    H242183   1.316   5.451   1.428  0.1645  0.5896  1.1244
 6850TIP3   OH242184   3.365   1.815   0.113 -0.1162 -0.1553  0.1136
 6850TIP3    H142185   3.348   1.722   0.128  0.4635 -0.2101  0.4538
 6850TIP3    H242186   3.416   1.817   0.031  2.8202 -0.4521  1.7802
 6851TIP3   OH242187   5.319   4.317   3.316  0.5422  0.2699 -0.0834
 6851TIP3    H142188   5.338   4.402   3.356 -0.3016  0.3060  0.2526
 6851TIP3    H242189   5.405   4.277   3.302  0.8762 -0.4725  3.3538
 6852TIP3   OH242190   6.865   0.200   1.019  0.6320 -0.3409 -0.4747
 6852TIP3    H142191   6.814   0.150   0.955  0.7635 -0.2588 -0.6438
 6852TIP3    H242192   6.892   0.279   0.971  0.4878 -0.1418 -0.2335
 6853TIP3   OH242193   4.514   0.811   1.429 -0.3307  0.0426  0.0755
 6853TIP3    H142194   4.503   0.742   1.495 -0.1080 -0.8042 -0.7567
 6853TIP3    H242195   4.444   0.796   1.366  0.9210 -0.7029 -1.1924
 6854TIP3   OH242196   1.934   4.492   7.453  0.1929  0.2287  0.1141
 6854TIP3    H142197   1.846   4.478   7.418  1.4528  0.7814 -3.8086
 6854TIP3    H242198   1.922   4.557   7.523 -2.4739  0.2656 -0.2600
 6855TIP3   OH242199   1.880   2.422   2.025 -0.2116  0.1706 -0.4252
 6855TIP3    H142200   1.799   2.381   2.056  0.8060 -0.8065  1.0495
 6855TIP3    H242201   1.866   2.515   2.040 -1.2924  0.0884 -0.7934
 6856TIP3   OH242202   3.945   5.242   2.599 -0.4968  0.2918 -0.2249
 6856TIP3    H142203   4.011   5.195   2.649  0.0382 -0.1989 -1.3610
 6856TIP3    H242204   3.927   5.186   2.524 -0.1211  1.6931 -1.4138
 6857TIP3   OH242205   5.599   4.328   7.978 -0.4717 -0.1087 -0.9049
 6857TIP3    H142206   5.668   4.266   7.958 -1.3226 -0.7103 -2.0789
 6857TIP3    H242207   5.610   4.398   7.914 -0.2716  0.3522 -0.3751
 6858TIP3   OH242208   4.648   2.564   7.148 -0.2184  0.6083  0.5349
 6858TIP3    H142209   4.730   2.542   7.192 -0.2299  1.0302  0.7791
 6858TIP3    H242210   4.648   2.510   7.069  0.1673  0.4070  0.6674
 6859TIP3   OH242211   6.814   5.666   1.930 -0.1386  0.5096 -0.6018
 6859TIP3    H142212   6.817   5.680   1.835 -0.3050 -1.5262 -0.9481
 6859TIP3    H242213   6.730   5.625   1.947 -1.4554  3.5243  0.9170
 6860TIP3   OH242214   5.105   2.400   7.203  0.0362  0.1745  0.2108
 6860TIP3    H142215   5.124   2.398   7.297  1.3598 -0.5742 -0.0538
 6860TIP3    H242216   5.167   2.338   7.164 -1.5385 -0.7402 -0.9833
 6861TIP3   OH242217   1.995   0.921   0.516 -0.0383 -0.1961 -0.8721
 6861TIP3    H142218   1.958   0.875   0.441 -1.2717  1.5267 -1.4038
 6861TIP3    H242219   2.060   0.980   0.478 -0.2706  0.2868 -0.5389
 6862TIP3   OH242220   2.758   5.560   1.602 -0.2819  0.3268  0.4316
 6862TIP3    H142221   2.687   5.615   1.636  1.1842  2.0311  0.9148
 6862TIP3    H242222   2.802   5.615   1.537  1.0479 -0.3747  0.6880
 6863TIP3   OH242223   5.417   5.038   8.150  0.3041 -0.7712  0.1020
 6863TIP3    H142224   5.509   5.013   8.158  0.7099  0.6624  0.2743
 6863TIP3    H242225   5.386   5.044   8.240  0.2172 -0.6328  0.0628
 6864TIP3   OH242226   3.851   6.216   7.752  0.0617 -0.3218  0.4142
 6864TIP3    H142227   3.763   6.194   7.722 -0.2081  1.7025 -0.4202
 6864TIP3    H242228   3.851   6.194   7.845 -1.2451 -0.5809  0.3734
 6865TIP3   OH242229   3.183   1.899   0.695  0.7309  0.3128 -0.8847
 6865TIP3    H142230   3.244   1.971   0.710  0.7373  0.3655 -1.1561
 6865TIP3    H242231   3.219   1.852   0.620 -0.3995  1.2770 -2.0728
 6866TIP3   OH242232   1.198   6.034   8.374  0.6859 -0.4868 -0.5017
 6866TIP3    H142233   1.124   6.082   8.412 -0.0318 -1.8830 -0.0750
 6866TIP3    H242234   1.163   5.948   8.354  1.8512 -0.7367 -1.6038
 6867TIP3   OH242235   3.693   1.422   7.713 -1.1315  0.0815  0.8994
 6867TIP3    H142236   3.622   1.395   7.772 -0.8622  1.8835  2.1509
 6867TIP3    H242237   3.737   1.493   7.760  0.8265 -0.2378 -0.3362
 6868TIP3   OH242238   3.042   5.135   2.775 -0.7744 -0.0146 -0.2732
 6868TIP3    H142239   2.959   5.090   2.787 -0.6553 -0.1148  0.2118
 6868TIP3    H242240   3.020   5.214   2.726 -1.5877  1.2750  2.0073
 6869TIP3   OH242241   3.628   5.210   1.928  0.0804  0.2231  0.0318
 6869TIP3    H142242   3.575   5.148   1.877  0.5081  0.3353 -0.5543
 6869TIP3    H242243   3.714   5.168   1.935  0.8248  1.3922 -1.6402
 6870TIP3   OH242244   3.576   3.992   2.553  0.0851  0.4263 -0.2691
 6870TIP3    H142245   3.622   3.993   2.637  0.6371 -1.7854 -0.4961
 6870TIP3    H242246   3.488   3.960   2.574 -0.7347  2.5385 -0.1772
 6871TIP3   OH242247   4.016   1.347   8.479  0.7391 -0.4611 -0.8919
 6871TIP3    H142248   4.024   1.400   8.558  1.0933  0.3020 -1.4204
 6871TIP3    H242249   3.984   1.262   8.509  1.2761 -0.3175  0.1150
 6872TIP3   OH242250   3.639   6.126   1.247  0.1835  0.0076  0.0802
 6872TIP3    H142251   3.564   6.071   1.225 -0.4017  0.6582  0.4408
 6872TIP3    H242252   3.658   6.175   1.167 -0.3917  0.5574  0.2759
 6873TIP3   OH242253   6.657   0.433   1.375 -0.0660  0.2069  0.0823
 6873TIP3    H142254   6.718   0.363   1.353 -0.0918  0.1709  0.1228
 6873TIP3    H242255   6.585   0.422   1.313  1.4447  2.2803 -2.2047
 6874TIP3   OH242256   1.986   2.026   2.670 -0.2000 -0.4172  0.1331
 6874TIP3    H142257   2.016   1.989   2.754 -1.4896  0.0418  0.8281
 6874TIP3    H242258   1.975   1.950   2.613  0.9505 -0.7145  0.2736
 6875TIP3   OH242259   5.876   5.498   1.073 -0.1337  0.0085 -0.1421
 6875TIP3    H142260   5.919   5.433   1.018 -0.1927  1.2186 -1.6649
 6875TIP3    H242261   5.944   5.563   1.091 -0.0539 -0.4735  1.4310
 6876TIP3   OH242262   3.748   6.117   7.397 -0.0114 -0.2407  0.6976
 6876TIP3    H142263   3.678   6.162   7.350  0.2328  0.3286  0.8733
 6876TIP3    H242264   3.712   6.101   7.485 -1.3381 -3.3271 -0.2501
 6877TIP3   OH242265   1.341   1.993   8.103 -0.5842  0.1355  0.6021
 6877TIP3    H142266   1.352   1.898   8.101  1.3524  0.3184 -1.2204
 6877TIP3    H242267   1.247   2.007   8.114 -1.1416 -2.0045 -0.9450
 6878TIP3   OH242268   2.876   6.105   1.245  0.0422 -0.0367  0.3595
 6878TIP3    H142269   2.846   6.180   1.295  0.4491 -0.6148  1.5051
 6878TIP3    H242270   2.944   6.140   1.187  0.3124  0.4659  0.9680
 6879TIP3   OH242271   5.646   5.953   0.734 -0.0297 -0.5664  0.2745
 6879TIP3    H142272   5.602   5.869   0.748 -3.3773  0.5007 -2.5902
 6879TIP3    H242273   5.678   5.948   0.644  1.3047  0.6479  0.6436
 6880TIP3   OH242274   2.734   3.291   2.273 -0.2932  0.1900  0.0475
 6880TIP3    H142275   2.778   3.367   2.236 -0.0830 -0.0893 -0.2807
 6880TIP3    H242276   2.667   3.328   2.331 -0.0506  0.6202  0.0560
 6881TIP3   OH242277   0.569   2.139   1.166  0.0090 -0.3805  0.4212
 6881TIP3    H142278   0.550   2.227   1.197  0.0081 -0.3305  0.2815
 6881TIP3    H242279   0.490   2.112   1.119 -0.0785 -0.5463  0.6627
 6882TIP3   OH242280   2.074   3.418   8.319  0.1852 -0.3436 -0.1756
 6882TIP3    H142281   2.085   3.495   8.375 -1.9389 -0.1703  0.0864
 6882TIP3    H242282   2.030   3.451   8.241  2.0094 -0.8021 -1.4463
 6883TIP3   OH242283   1.541   1.043   7.869 -0.5175  0.1764 -0.0745
 6883TIP3    H142284   1.518   0.974   7.806  0.3565 -0.0535 -0.1596
 6883TIP3    H242285   1.538   1.124   7.818 -1.9810  0.2675  0.1294
 6884TIP3   OH242286   4.106   2.103   0.673  0.4228  0.3233 -0.5304
 6884TIP3    H142287   4.120   2.130   0.764 -0.4335  1.2297 -0.6485
 6884TIP3    H242288   4.167   2.031   0.659  0.2557 -0.1176  0.9026
 6885TIP3   OH242289   3.690   5.036   7.970  0.4792  0.4155  0.1522
 6885TIP3    H142290   3.629   5.015   8.041 -0.2906  0.6731 -0.4148
 6885TIP3    H242291   3.746   5.105   8.005  1.9950 -1.3908  1.4928
 6886TIP3   OH242292   5.663   6.209   7.678  0.4583  0.2724 -0.3899
 6886TIP3    H142293   5.644   6.120   7.649  1.5801 -0.3854  0.7691
 6886TIP3    H242294   5.755   6.222   7.657  0.2971  1.1819 -0.5836
 6887TIP3   OH242295   3.615   6.917   0.584 -0.4468  0.2340 -0.2232
 6887TIP3    H142296   3.630   6.830   0.621  0.5530  1.1848  1.8077
 6887TIP3    H242297   3.530   6.911   0.540 -2.3163 -0.8420  3.1606
 6888TIP3   OH242298   6.441   0.930   2.157  0.4155  0.5013  0.3124
 6888TIP3    H142299   6.517   0.874   2.174  0.2984  0.3484  0.3254
 6888TIP3    H242300   6.472   1.018   2.179 -0.0754  0.1980  2.4636
 6889TIP3   OH242301   5.905   5.552   0.579  0.7515  0.1143 -0.0242
 6889TIP3    H142302   5.948   5.521   0.499  1.7963  3.9406 -1.1762
 6889TIP3    H242303   5.823   5.591   0.549  1.1421  1.5820  0.7290
 6890TIP3   OH242304   1.787   5.550   2.279  0.0413  0.2571  0.5176
 6890TIP3    H142305   1.723   5.611   2.316  0.4331  1.5624 -0.8461
 6890TIP3    H242306   1.842   5.604   2.223  0.6846 -1.2907 -0.4131
 6891TIP3   OH242307   5.422   4.564   3.094 -0.7292 -0.1893  0.3904
 6891TIP3    H142308   5.350   4.548   3.032  0.8558 -0.5651 -1.4265
 6891TIP3    H242309   5.462   4.478   3.106  0.5887  0.3293 -0.1570
 6892TIP3   OH242310   1.648   3.539   2.073 -0.5004 -0.4643 -0.3436
 6892TIP3    H142311   1.623   3.527   1.981 -0.6610  0.9833 -0.5154
 6892TIP3    H242312   1.708   3.614   2.072 -0.2872 -0.6006  0.7011
 6893TIP3   OH242313   1.775   4.665   8.530  0.3300  0.0320  0.1348
 6893TIP3    H142314   1.686   4.643   8.503  0.4665  1.7042 -2.0148
 6893TIP3    H242315   1.765   4.713   8.612 -0.5436 -1.4352  0.9183
 6894TIP3   OH242316   1.351   0.531   8.088 -0.3696  0.1100  0.7172
 6894TIP3    H142317   1.330   0.620   8.061 -1.8024  0.5465  2.9651
 6894TIP3    H242318   1.322   0.526   8.179  1.8404 -1.9535  1.4148
 6895TIP3   OH242319   0.174   1.755   7.954 -0.5992 -0.7001 -0.9293
 6895TIP3    H142320   0.214   1.839   7.930 -1.6934  0.5175  1.1281
 6895TIP3    H242321   0.084   1.762   7.923 -0.7150 -1.1022 -0.6885
 6896TIP3   OH242322   0.215   3.358   1.906  0.0665 -0.7781 -0.5751
 6896TIP3    H142323   0.257   3.435   1.945  1.7813 -1.8208 -0.2698
 6896TIP3    H242324   0.285   3.293   1.900 -1.4870 -2.5846 -0.1073
 6897TIP3   OH242325   6.901   1.446   7.491 -0.4688 -0.0084 -0.2442
 6897TIP3    H142326   6.872   1.531   7.460  0.0745  0.4752  0.5171
 6897TIP3    H242327   6.987   1.433   7.450 -0.4539 -0.0828 -0.1911
 6898TIP3   OH242328   1.598   1.929   0.706  0.6251  0.8026  0.4134
 6898TIP3    H142329   1.626   1.856   0.650  0.6582 -0.1576  1.6165
 6898TIP3    H242330   1.602   2.006   0.650 -0.4720 -0.2670 -1.2237
 6899TIP3   OH242331   3.115   1.896   0.963  0.1331  0.1313  0.7968
 6899TIP3    H142332   3.110   1.897   0.867  1.9341 -2.4744  0.5726
 6899TIP3    H242333   3.106   1.988   0.988 -0.4810  0.8751 -1.8550
 6900TIP3   OH242334   6.382   5.979   1.409  0.1918 -0.2107 -0.2058
 6900TIP3    H142335   6.471   5.980   1.444  0.6120 -1.3708 -1.1479
 6900TIP3    H242336   6.335   6.045   1.460  1.2591 -0.4718  1.1773
 6901TIP3   OH242337   2.750   3.935   3.013  0.8398  0.5042 -0.1010
 6901TIP3    H142338   2.719   4.025   3.023  0.1581  0.2684 -0.0455
 6901TIP3    H242339   2.785   3.931   2.924 -0.6010  0.4043 -0.6938
 6902TIP3   OH242340   1.220   2.035   7.261  0.1071 -0.7335 -0.2431
 6902TIP3    H142341   1.153   2.104   7.265 -0.1688 -0.9387 -1.1719
 6902TIP3    H242342   1.303   2.082   7.270 -0.1611 -0.6249  2.6071
 6903TIP3   OH242343   3.315   6.667   0.120  0.2453  0.2643  0.5977
 6903TIP3    H142344   3.315   6.583   0.074 -1.4468  0.4256  0.2385
 6903TIP3    H242345   3.400   6.670   0.164  0.7691 -1.1517 -0.2391
 6904TIP3   OH242346   4.500   2.733   0.827  0.7361 -0.6750  0.1183
 6904TIP3    H142347   4.524   2.658   0.880  0.4648 -0.7741  0.1040
 6904TIP3    H242348   4.544   2.807   0.868 -1.0308 -0.4055  1.6955
 6905TIP3   OH242349   5.915   1.548   7.376  0.2662 -0.5390 -0.1184
 6905TIP3    H142350   5.849   1.501   7.427  0.2816  0.6722  1.0821
 6905TIP3    H242351   5.882   1.545   7.286 -0.4651 -1.5549  0.1655
 6906TIP3   OH242352   0.051   5.157   0.779 -0.0109 -0.4415 -0.3860
 6906TIP3    H142353   0.111   5.116   0.841 -0.5589  2.0700  1.9570
 6906TIP3    H242354   0.091   5.242   0.759 -1.8606  0.5082 -0.2163
 6907TIP3   OH242355   4.320   0.932   1.938  0.0706 -0.6062  0.7925
 6907TIP3    H142356   4.239   0.967   1.902 -0.5559 -0.9564  1.8097
 6907TIP3    H242357   4.329   0.846   1.896  0.0900 -0.4304  0.4339
 6908TIP3   OH242358   5.700   6.419   8.254 -0.5923  0.6264  0.1960
 6908TIP3    H142359   5.685   6.353   8.322  0.0644 -1.4466 -1.5731
 6908TIP3    H242360   5.612   6.445   8.226 -0.8625  0.2757  0.7019
 6909TIP3   OH242361   2.345   4.447   2.790  0.1321  0.8165  0.1052
 6909TIP3    H142362   2.293   4.500   2.850 -1.3832 -0.2609 -0.2063
 6909TIP3    H242363   2.298   4.450   2.707 -1.5547 -3.0563  0.7193
 6910TIP3   OH242364   0.598   3.548   0.685  0.2741  0.0413  0.0302
 6910TIP3    H142365   0.657   3.544   0.760  0.8460  2.5618 -0.1818
 6910TIP3    H242366   0.512   3.564   0.724  0.4106  0.3974  0.1901
 6911TIP3   OH242367   5.247   1.695   2.208  0.2133  0.0329 -0.2884
 6911TIP3    H142368   5.217   1.604   2.207  0.9481 -0.2256  0.0233
 6911TIP3    H242369   5.168   1.747   2.224 -0.1234 -0.5918  0.1237
 6912TIP3   OH242370   4.890   3.373   1.322 -0.1989 -0.2844  0.5190
 6912TIP3    H142371   4.968   3.410   1.280 -0.3469  0.4018  0.8435
 6912TIP3    H242372   4.914   3.365   1.414 -1.2179  1.9585  1.0457
 6913TIP3   OH242373   6.574   2.476   1.428  0.0073  0.1429 -0.4229
 6913TIP3    H142374   6.549   2.401   1.375 -1.5996  0.0158  0.4578
 6913TIP3    H242375   6.596   2.438   1.513 -2.0906  0.7248  0.4370
 6914TIP3   OH242376   6.264   4.557   8.117 -0.6431  0.1154  0.3773
 6914TIP3    H142377   6.218   4.535   8.036  0.1952  1.4748 -0.5068
 6914TIP3    H242378   6.336   4.494   8.122 -1.4424 -0.7919  0.7636
 6915TIP3   OH242379   0.538   1.466   0.287  0.0573  0.1705 -0.0354
 6915TIP3    H142380   0.514   1.558   0.280 -0.1570  0.0465 -1.0038
 6915TIP3    H242381   0.468   1.427   0.339 -1.0552  0.1265 -1.4958
 6916TIP3   OH242382   4.733   0.762   8.166 -0.0129  0.4845  0.1666
 6916TIP3    H142383   4.726   0.773   8.071  1.8265  0.3676 -0.0173
 6916TIP3    H242384   4.678   0.686   8.186 -0.0506  0.2355 -0.8668
 6917TIP3   OH242385   4.826   4.835   0.488 -0.1487 -0.3250  0.5037
 6917TIP3    H142386   4.749   4.891   0.497  0.6047  0.9250 -0.3858
 6917TIP3    H242387   4.896   4.896   0.463  0.3755 -1.8349 -2.1115
 6918TIP3   OH242388   6.193   4.300   2.031 -0.2859  0.2796 -0.4710
 6918TIP3    H142389   6.109   4.281   2.073 -0.2985 -0.7959 -0.9453
 6918TIP3    H242390   6.252   4.232   2.065  0.4856  1.1956  0.0844
 6919TIP3   OH242391   6.421   5.004   2.181 -0.1654  0.1917  0.8120
 6919TIP3    H142392   6.377   4.918   2.188 -0.5924  0.3786  0.4789
 6919TIP3    H242393   6.513   4.984   2.194 -0.1265 -0.4819 -0.3450
 6920TIP3   OH242394   6.078   1.484   0.853 -1.0276 -0.1779  0.1098
 6920TIP3    H142395   6.131   1.425   0.908  0.4650  1.9845  1.1524
 6920TIP3    H242396   6.078   1.567   0.901  0.1694  1.7997 -2.9812
 6921TIP3   OH242397   3.104   0.278   2.488 -0.2116 -0.4421 -0.0130
 6921TIP3    H142398   3.084   0.204   2.545 -0.0646 -0.4938 -0.0265
 6921TIP3    H242399   3.127   0.349   2.549  0.4909 -0.6582 -0.0145
 6922TIP3   OH242400   1.740   3.060   8.428 -0.1546 -0.1225 -0.2781
 6922TIP3    H142401   1.699   2.992   8.375 -0.6863  0.6105 -0.8329
 6922TIP3    H242402   1.789   3.113   8.365 -0.7050  0.6900 -0.0388
 6923TIP3   OH242403   0.060   6.849   6.935  0.3943  0.4967  0.8443
 6923TIP3    H142404   0.002   6.854   6.859  1.7250 -2.2646 -0.5220
 6923TIP3    H242405   0.016   6.789   6.995  0.8425  0.0106  0.7019
 6924TIP3   OH242406   6.744   5.294   1.873 -0.1484 -1.3636  0.1226
 6924TIP3    H142407   6.762   5.202   1.854 -1.5716 -2.2076  2.4325
 6924TIP3    H242408   6.648   5.301   1.869 -0.0860 -0.0848  0.4047
 6925TIP3   OH242409   0.266   4.951   7.230 -0.2409 -0.5391 -0.1603
 6925TIP3    H142410   0.247   4.860   7.208  0.1171 -1.7587  3.6914
 6925TIP3    H242411   0.346   4.946   7.283  0.1283  2.1069 -0.3569
 6926TIP3   OH242412   0.984   6.269   0.767 -0.6080  0.1437 -0.1550
 6926TIP3    H142413   1.026   6.261   0.852 -0.2498 -1.2146 -0.4380
 6926TIP3    H242414   0.919   6.339   0.778  0.1316  0.6771  0.9307
 6927TIP3   OH242415   1.690   4.981   8.295  0.1066  0.5816 -0.3938
 6927TIP3    H142416   1.618   4.924   8.267 -0.6761  1.1812  0.3111
 6927TIP3    H242417   1.669   5.002   8.386  3.0242 -2.0711  1.1023
 6928TIP3   OH242418   2.007   5.765   1.041  0.4126 -0.0033 -0.4361
 6928TIP3    H142419   1.983   5.691   0.984 -2.0919  0.0339  0.4504
 6928TIP3    H242420   1.946   5.834   1.017  1.1332  0.9564  0.4300
 6929TIP3   OH242421   5.588   1.148   7.486 -0.1752  0.3292  0.0201
 6929TIP3    H142422   5.602   1.060   7.451  1.7203 -0.4532  2.4213
 6929TIP3    H242423   5.667   1.196   7.461 -1.5228  1.6718 -1.9234
 6930TIP3   OH242424   6.815   5.955   0.383 -0.0673  0.2017  0.1123
 6930TIP3    H142425   6.857   5.982   0.301  0.2526 -0.3530  0.0858
 6930TIP3    H242426   6.877   5.893   0.422 -1.0242 -0.9381 -0.1105
 6931TIP3   OH242427   6.353   1.871   1.990  0.2796 -0.0807  0.4078
 6931TIP3    H142428   6.340   1.838   2.079  0.7948  1.4779  1.1090
 6931TIP3    H242429   6.310   1.956   1.989  2.3235  1.0251 -0.0447
 6932TIP3   OH242430   6.719   4.850   7.949 -0.2631 -0.0800 -0.1509
 6932TIP3    H142431   6.635   4.893   7.930 -0.5666 -0.6011  0.0061
 6932TIP3    H242432   6.720   4.773   7.893  0.3415  0.1841 -0.5242
 6933TIP3   OH242433   0.261   3.749   1.047 -0.0674  0.6556 -0.6844
 6933TIP3    H142434   0.298   3.716   0.965 -1.7249 -0.0949 -1.1710
 6933TIP3    H242435   0.258   3.673   1.105  0.5332  1.0507 -0.1201
 6934TIP3   OH242436   2.510   5.216   1.633 -0.1655 -0.2940 -0.4522
 6934TIP3    H142437   2.574   5.180   1.695 -1.4500 -1.2052  0.4074
 6934TIP3    H242438   2.562   5.254   1.563  1.3349  0.1617  0.8626
 6935TIP3   OH242439   5.954   6.258   2.117 -0.1252  0.3011 -0.4054
 6935TIP3    H142440   5.876   6.255   2.172 -0.5082  0.2168 -0.9437
 6935TIP3    H242441   6.023   6.293   2.174 -0.2036 -0.9586  0.4932
 6936TIP3   OH242442   4.161   0.983   7.773 -0.0154 -0.3071 -1.0311
 6936TIP3    H142443   4.123   1.055   7.722 -0.2620  0.1157 -0.2705
 6936TIP3    H242444   4.159   0.908   7.714 -1.0732 -0.0352 -1.3612
 6937TIP3   OH242445   0.954   6.139   1.275  0.2601 -0.3701 -0.3692
 6937TIP3    H142446   0.892   6.092   1.331  1.1298 -0.3347  0.6723
 6937TIP3    H242447   1.013   6.184   1.337  2.7531 -2.2462 -1.2017
 6938TIP3   OH242448   1.356   3.850   2.096  0.0535 -0.0387 -0.1217
 6938TIP3    H142449   1.357   3.849   2.192 -0.1077  0.9810 -0.0912
 6938TIP3    H242450   1.385   3.763   2.070  1.2702  0.0400  0.8534
 6939TIP3   OH242451   0.931   2.965   2.738  0.0261 -0.0849 -0.3705
 6939TIP3    H142452   0.900   2.952   2.649  0.0147  1.3370 -0.5941
 6939TIP3    H242453   0.910   3.056   2.758  0.5069 -0.2300  0.8943
 6940TIP3   OH242454   1.925   5.388   8.378  0.4360  0.0297  0.1306
 6940TIP3    H142455   1.907   5.314   8.320  0.6817  0.0556  0.0230
 6940TIP3    H242456   1.838   5.423   8.399  0.3820  0.7620 -1.1861
 6941TIP3   OH242457   2.694   6.042   7.819  0.0272  0.1615 -0.6347
 6941TIP3    H142458   2.692   6.032   7.914  1.0168 -0.1993 -0.6428
 6941TIP3    H242459   2.763   6.107   7.804  0.2880 -0.2337 -1.1418
 6942TIP3   OH242460   1.508   4.928   0.568 -0.5267  0.0804  0.3886
 6942TIP3    H142461   1.547   4.910   0.654 -0.6995 -2.2844  0.0562
 6942TIP3    H242462   1.546   5.012   0.542  2.8495 -1.0893  0.9684
 6943TIP3   OH242463   5.029   0.779   7.338 -0.2472 -0.7912 -0.1032
 6943TIP3    H142464   5.000   0.827   7.415 -0.1195 -0.7793 -0.0619
 6943TIP3    H242465   5.109   0.824   7.310  1.5560 -2.6788  1.6313
 6944TIP3   OH242466   1.829   2.423   6.739  0.0319 -0.1639 -0.0556
 6944TIP3    H142467   1.886   2.483   6.692  0.2230 -1.6693 -1.8650
 6944TIP3    H242468   1.762   2.479   6.778 -0.1113  1.2186 -2.1158
 6945TIP3   OH242469   5.769   3.468   0.961 -0.2564 -0.2292 -0.3682
 6945TIP3    H142470   5.743   3.458   1.052 -1.3742  0.2790 -0.6008
 6945TIP3    H242471   5.756   3.382   0.922  2.6874 -1.1581  0.4773
 6946TIP3   OH242472   3.383   6.547   1.413  0.1765 -0.2276  0.1817
 6946TIP3    H142473   3.304   6.546   1.467  1.6192  0.9727  2.5389
 6946TIP3    H242474   3.397   6.456   1.388 -2.1798 -0.3814 -0.7101
 6947TIP3   OH242475   2.683   1.740   0.094 -0.3094 -0.3342  0.1969
 6947TIP3    H142476   2.745   1.683   0.048  1.4985  0.7966  1.1254
 6947TIP3    H242477   2.636   1.681   0.153  0.5880 -1.0748  0.1917
 6948TIP3   OH242478   5.842   4.971   3.021  0.5796 -0.1590  0.2701
 6948TIP3    H142479   5.847   5.030   3.097 -0.5507  0.7299 -0.3164
 6948TIP3    H242480   5.933   4.955   2.998  0.9288  0.7538  0.9248
 6949TIP3   OH242481   6.857   3.079   7.458  0.0662 -0.1192 -0.3802
 6949TIP3    H142482   6.829   3.047   7.373  0.3308 -1.1035 -0.1131
 6949TIP3    H242483   6.779   3.120   7.495 -0.0268  0.3880 -1.1229
 6950TIP3   OH242484   3.259   1.367   0.825  0.1748 -0.4450 -1.1111
 6950TIP3    H142485   3.280   1.420   0.902 -1.0694  0.2641 -1.2345
 6950TIP3    H242486   3.299   1.282   0.844  2.0257  0.4384 -0.8229
 6951TIP3   OH242487   2.643   3.490   2.823  0.3117 -0.0731  0.0051
 6951TIP3    H142488   2.630   3.547   2.899 -1.5949 -0.5235  0.0439
 6951TIP3    H242489   2.665   3.551   2.752  2.0248  0.3607  0.8372
 6952TIP3   OH242490   6.078   4.195   3.128 -0.1877  0.0728 -0.1809
 6952TIP3    H142491   6.071   4.120   3.187  0.5657 -0.7951 -1.1550
 6952TIP3    H242492   6.128   4.162   3.053 -0.6657  1.2901 -1.0682
 6953TIP3   OH242493   5.773   5.000   2.481  0.5249  0.2837  0.0024
 6953TIP3    H142494   5.769   5.094   2.464  2.1296  0.2038 -1.0294
 6953TIP3    H242495   5.854   4.989   2.530  0.3349 -0.5691  0.1391
 6954TIP3   OH242496   0.522   1.705   1.148 -0.0173  0.4955  0.2601
 6954TIP3    H142497   0.514   1.730   1.056  1.4009 -1.1952 -0.3688
 6954TIP3    H242498   0.535   1.788   1.193  2.1144  1.1861 -1.4424
 6955TIP3   OH242499   0.821   2.238   7.912  0.2376 -0.4930  0.2096
 6955TIP3    H142500   0.871   2.302   7.963  0.9875 -1.5602  0.8531
 6955TIP3    H242501   0.781   2.289   7.843  0.4312  0.7541  0.9882
 6956TIP3   OH242502   6.746   0.394   0.064 -0.2414  0.3040  0.2151
 6956TIP3    H142503   6.717   0.475   0.022  1.6909  1.0815  0.2248
 6956TIP3    H242504   6.744   0.328  -0.005 -1.0137  0.5717 -0.0216
 6957TIP3   OH242505   0.259   3.977   0.169  0.3500 -0.1200 -0.2424
 6957TIP3    H142506   0.200   4.035   0.120 -0.3046 -1.4087 -1.0167
 6957TIP3    H242507   0.341   3.978   0.119  0.4663  0.4091 -0.0495
 6958TIP3   OH242508   3.750   2.188   1.950  0.1170 -0.1148  0.2206
 6958TIP3    H142509   3.682   2.147   1.896 -0.5051 -2.0063  2.2806
 6958TIP3    H242510   3.711   2.272   1.977 -1.6696 -1.3325  1.6900
 6959TIP3   OH242511   2.880   0.611   1.051  0.0333  0.2445 -0.3757
 6959TIP3    H142512   2.870   0.646   0.963 -0.5311  0.6022 -0.1742
 6959TIP3    H242513   2.839   0.676   1.108 -1.4170 -0.9112 -0.0290
 6960TIP3   OH242514   6.567   3.876   1.934 -0.1363 -0.4202 -0.4767
 6960TIP3    H142515   6.614   3.900   1.854  2.7203  1.7471  1.5896
 6960TIP3    H242516   6.606   3.792   1.960 -0.2712 -0.5717 -0.7519
 6961TIP3   OH242517   4.657   2.810   7.533 -0.0594 -0.4378 -0.3153
 6961TIP3    H142518   4.588   2.765   7.485 -0.3189 -0.9331  0.4875
 6961TIP3    H242519   4.612   2.862   7.599  0.3174 -0.6322  0.1075
 6962TIP3   OH242520   2.411   2.200   1.194 -0.2036 -0.1110  0.2681
 6962TIP3    H142521   2.358   2.223   1.270 -0.3412  0.9125 -0.1310
 6962TIP3    H242522   2.491   2.252   1.204 -0.1992 -0.0139 -0.2543
 6963TIP3   OH242523   6.081   0.666   7.193 -0.8238  0.0144  0.0825
 6963TIP3    H142524   6.137   0.720   7.138  0.1182  1.4089  2.2986
 6963TIP3    H242525   5.992   0.691   7.167 -0.4058  2.1118  0.5234
 6964TIP3   OH242526   2.493   1.277   0.354  0.0298 -0.3870 -0.6377
 6964TIP3    H142527   2.527   1.225   0.281  0.1579 -1.0162 -0.1351
 6964TIP3    H242528   2.504   1.221   0.431 -1.1029 -0.1596 -0.2944
 6965TIP3   OH242529   3.908   3.386   0.545 -0.4450 -0.2673  0.0519
 6965TIP3    H142530   3.918   3.316   0.610  1.7936  0.5948  0.7655
 6965TIP3    H242531   3.823   3.425   0.565 -0.2448 -0.6468  1.8840
 6966TIP3   OH242532   3.238   0.610   8.341  0.2784 -0.5722 -0.0435
 6966TIP3    H142533   3.217   0.698   8.312 -0.2250 -1.0242 -1.1169
 6966TIP3    H242534   3.333   0.603   8.332  0.4027  0.0504  0.6588
 6967TIP3   OH242535   2.526   4.914   1.027 -0.6913 -0.2608  0.2706
 6967TIP3    H142536   2.440   4.881   1.053 -1.5701  1.9589  0.4095
 6967TIP3    H242537   2.573   4.836   0.998 -3.1502 -1.4253 -0.9819
 6968TIP3   OH242538   3.190   6.623   2.644  0.1368 -0.0466 -0.0468
 6968TIP3    H142539   3.248   6.699   2.636  0.3046 -0.1214  0.4671
 6968TIP3    H242540   3.112   6.657   2.687  0.4110 -0.2719  0.6254
 6969TIP3   OH242541   4.475   3.996   1.897  0.2604 -0.1868  0.3399
 6969TIP3    H142542   4.486   4.067   1.834  2.4854  1.5058  2.4627
 6969TIP3    H242543   4.561   3.955   1.903  0.6827  0.9163  3.5086
 6970TIP3   OH242544   3.082   2.180   6.945  0.3726 -0.6952 -1.1387
 6970TIP3    H142545   3.056   2.099   6.988 -0.8509 -0.6222 -1.6856
 6970TIP3    H242546   3.143   2.153   6.877 -0.5141 -1.2513 -1.7283
 6971TIP3   OH242547   2.894   4.238   2.834 -0.1686 -0.2491 -0.0070
 6971TIP3    H142548   2.941   4.322   2.835  0.6254 -0.6962  1.0325
 6971TIP3    H242549   2.962   4.172   2.824 -0.6683 -0.8547  0.5186
 6972TIP3   OH242550   6.103   6.230   8.542  0.1658 -0.1898 -0.0288
 6972TIP3    H142551   6.160   6.308   8.542  0.1215 -0.1306 -1.5392
 6972TIP3    H242552   6.139   6.175   8.611  1.3100  0.3982 -0.1233
 6973TIP3   OH242553   3.388   5.200   8.266  0.0845  0.2311 -0.0730
 6973TIP3    H142554   3.405   5.107   8.248 -0.9635 -0.2138  1.1313
 6973TIP3    H242555   3.376   5.239   8.179  2.1412 -0.3952 -0.7000
 6974TIP3   OH242556   0.259   1.102   8.039 -0.2095 -0.3551  0.6452
 6974TIP3    H142557   0.203   1.045   7.986  1.1816 -0.8929 -0.3328
 6974TIP3    H242558   0.342   1.054   8.046  0.5578  0.9522  0.9466
 6975TIP3   OH242559   2.197   0.089   2.411 -0.0844  0.1943 -0.5912
 6975TIP3    H142560   2.108   0.053   2.412  0.2581 -0.7957 -2.0886
 6975TIP3    H242561   2.249   0.026   2.461 -0.3568  1.2934  1.1706
 6976TIP3   OH242562   0.017   1.786   0.340 -0.2632  0.1906  0.5243
 6976TIP3    H142563   0.019   1.879   0.317  1.1653  0.3195  1.0462
 6976TIP3    H242564  -0.069   1.774   0.382 -0.4703  1.2767  0.4498
 6977TIP3   OH242565   2.213   6.790   0.956 -0.0731 -0.2991  0.3213
 6977TIP3    H142566   2.182   6.708   0.917 -0.3366 -0.3876  0.7116
 6977TIP3    H242567   2.304   6.797   0.928  0.4894 -1.5952  1.6955
 6978TIP3   OH242568   3.813   0.230   2.474 -0.4672  0.2412 -0.1456
 6978TIP3    H142569   3.800   0.311   2.523  0.5792  2.0794 -2.6832
 6978TIP3    H242570   3.897   0.196   2.505  0.1642  1.3604 -0.5558
 6979TIP3   OH242571   0.578   0.446   2.037  0.1591  0.2471  0.8926
 6979TIP3    H142572   0.668   0.415   2.046 -0.2392 -1.3158 -0.1501
 6979TIP3    H242573   0.580   0.502   1.959  0.6702  2.1703  2.2112
 6980TIP3   OH242574   1.194   0.210   1.324  0.4935  0.5540 -0.0700
 6980TIP3    H142575   1.257   0.140   1.340 -1.0492 -0.8140  0.3020
 6980TIP3    H242576   1.161   0.232   1.411 -1.2696 -0.4858 -0.4089
 6981TIP3   OH242577   4.600   6.641   0.197 -0.1889  0.4340  0.0790
 6981TIP3    H142578   4.673   6.583   0.219 -1.1226 -1.0082 -0.4657
 6981TIP3    H242579   4.638   6.708   0.141  0.4634 -1.1963 -1.5198
 6982TIP3   OH242580   2.158   6.771   0.517 -0.7672  0.1360 -0.1471
 6982TIP3    H142581   2.079   6.781   0.464 -0.0650  0.8067 -1.0991
 6982TIP3    H242582   2.221   6.729   0.458 -0.5589 -0.8784  0.7597
 6983TIP3   OH242583   5.838   6.408   2.528  0.3077 -0.2183 -0.5501
 6983TIP3    H142584   5.832   6.325   2.575 -0.5392  0.2571  0.2168
 6983TIP3    H242585   5.897   6.461   2.582 -0.8931  0.4295  0.1604
 6984TIP3   OH242586   0.001   1.088   7.524  0.5828 -0.0886  0.3742
 6984TIP3    H142587   0.013   0.995   7.545  0.1415 -0.2736 -0.2044
 6984TIP3    H242588   0.090   1.119   7.505  0.3917 -1.2969 -3.1871
 6985TIP3   OH242589   5.997   6.223   7.029 -0.2689 -0.5527 -0.2018
 6985TIP3    H142590   5.962   6.186   7.110  1.8653 -2.3281  0.0142
 6985TIP3    H242591   5.920   6.240   6.975 -1.6220 -1.3313  1.3938
 6986TIP3   OH242592   1.204   1.410   1.323 -0.3225  0.6533  0.2359
 6986TIP3    H142593   1.217   1.317   1.338 -1.4854  0.8079  2.6175
 6986TIP3    H242594   1.281   1.452   1.360 -1.3634  0.7788  2.4382
 6987TIP3   OH242595   3.734   1.078   2.437 -0.1430 -0.1902  0.5954
 6987TIP3    H142596   3.660   1.022   2.458  0.2284 -0.4052  1.3471
 6987TIP3    H242597   3.755   1.124   2.518  1.9502 -1.7970  1.0630
 6988TIP3   OH242598   2.210   4.470   2.536 -0.2216  0.4358 -0.0404
 6988TIP3    H142599   2.222   4.435   2.448  2.0006 -0.1332  0.4310
 6988TIP3    H242600   2.130   4.427   2.568 -0.2789 -0.4238 -1.2584
 6989TIP3   OH242601   2.973   3.700   2.897 -0.0299  0.5098  0.5139
 6989TIP3    H142602   2.988   3.759   2.970 -0.5642  0.4032  0.7172
 6989TIP3    H242603   2.901   3.643   2.926  0.1119  0.1160  0.1154
 6990TIP3   OH242604   6.313   3.632   2.772 -0.0763  0.1130 -0.2021
 6990TIP3    H142605   6.358   3.674   2.846 -1.0133 -0.9954  1.0402
 6990TIP3    H242606   6.227   3.609   2.806  0.1911 -2.3001 -0.9859
 6991TIP3   OH242607   4.053   4.125   2.289 -0.5178 -0.0438  0.1841
 6991TIP3    H142608   4.036   4.031   2.297  0.0602 -0.1885 -0.2219
 6991TIP3    H242609   4.022   4.147   2.202 -2.1251  0.4834  0.8526
 6992TIP3   OH242610   3.863   0.931   3.301 -0.0079 -0.1130 -0.0815
 6992TIP3    H142611   3.878   0.930   3.206 -1.0038 -0.2779 -0.2518
 6992TIP3    H242612   3.815   1.012   3.317  0.6278  0.1792  0.3684
 6993TIP3   OH242613   1.981   3.769   8.020 -0.5648  0.0978 -0.5905
 6993TIP3    H142614   2.046   3.831   8.053 -1.2514 -0.4201  1.9091
 6993TIP3    H242615   1.906   3.823   7.997 -0.2573  0.4296 -0.8324
 6994TIP3   OH242616   4.719   3.861   1.929  0.2371 -0.4582 -0.1756
 6994TIP3    H142617   4.769   3.943   1.922  1.1089 -1.1186 -2.3003
 6994TIP3    H242618   4.779   3.800   1.971  0.7702 -0.8793 -1.5167
 6995TIP3   OH242619   5.932   0.747   2.632 -0.5617 -0.9202 -0.2159
 6995TIP3    H142620   5.873   0.762   2.706  0.0934 -2.3277  0.6355
 6995TIP3    H242621   5.894   0.671   2.587 -0.3841 -0.7143 -0.7219
 6996TIP3   OH242622   0.777   1.134   0.844  1.0695  0.2258 -0.3559
 6996TIP3    H142623   0.866   1.170   0.841  0.6952  1.1245 -2.8176
 6996TIP3    H242624   0.720   1.211   0.844  0.2763 -0.3470 -0.6452
 6997TIP3   OH242625   4.360   3.770   1.277  0.0840  0.2478  0.6190
 6997TIP3    H142626   4.270   3.793   1.300  0.2065  0.1913  1.1741
 6997TIP3    H242627   4.392   3.720   1.353  0.6934  0.5594  0.5752
 6998TIP3   OH242628   3.412   0.172   8.299 -0.1438  0.1942  0.6768
 6998TIP3    H142629   3.388   0.079   8.297  2.7559 -0.6517 -0.6040
 6998TIP3    H242630   3.331   0.219   8.282 -1.3001 -2.2222 -0.9421
 6999TIP3   OH242631   3.618   4.883   0.770  0.2324  0.2165 -0.0869
 6999TIP3    H142632   3.586   4.965   0.809 -0.4599  0.5556 -1.3194
 6999TIP3    H242633   3.711   4.899   0.754  0.5518  0.0407  1.4642
 7000TIP3   OH242634   5.532   5.792   8.374  0.3298 -0.4683  0.0074
 7000TIP3    H142635   5.525   5.864   8.311 -1.1369 -1.4826 -1.0433
 7000TIP3    H242636   5.599   5.735   8.339 -0.2091 -0.8312 -0.4479
 7001TIP3   OH242637   2.088   4.787   2.065 -0.2478 -0.4458  0.3645
 7001TIP3    H142638   2.087   4.882   2.055 -0.0004 -0.6396 -2.6832
 7001TIP3    H242639   2.013   4.757   2.014  0.0902 -1.9125  0.6871
 7002TIP3   OH242640   6.584   0.418   7.105  0.2122  0.0755  0.0683
 7002TIP3    H142641   6.592   0.396   7.198 -0.0374  1.9647  0.5846
 7002TIP3    H242642   6.494   0.393   7.082  0.0115  0.3106  0.5678
 7003TIP3   OH242643   2.345   6.557   1.252 -0.8122  0.7803 -0.2704
 7003TIP3    H142644   2.334   6.475   1.300  0.3490 -0.4702 -2.0140
 7003TIP3    H242645   2.257   6.579   1.221 -1.0397 -0.1978 -0.3590
 7004TIP3   OH242646   5.437   2.912   1.242 -0.2737  0.1266  0.1693
 7004TIP3    H142647   5.505   2.895   1.307  1.6904  1.2437 -1.4996
 7004TIP3    H242648   5.423   3.007   1.247 -0.2796  0.1807 -0.8517
 7005TIP3   OH242649   3.900   6.359   8.093 -0.3417 -0.3465 -0.6263
 7005TIP3    H142650   3.975   6.396   8.046 -0.0616 -0.4538 -0.2669
 7005TIP3    H242651   3.843   6.434   8.111  0.2228 -0.0839  0.0974
 7006TIP3   OH242652   0.808   1.086   1.965  0.8633 -0.6404 -0.5366
 7006TIP3    H142653   0.884   1.137   1.940 -0.3895  0.2830 -2.6724
 7006TIP3    H242654   0.745   1.150   2.000  0.4094 -1.1469 -0.3988
 7007TIP3   OH242655   4.718   0.155   0.083 -0.3939  0.4933 -0.1940
 7007TIP3    H142656   4.731   0.243   0.117  1.0438  0.5009 -0.6992
 7007TIP3    H242657   4.636   0.126   0.122 -0.7581  1.9521  0.1798
 7008TIP3   OH242658   2.441   1.050   0.540  0.3730 -0.0704  0.4503
 7008TIP3    H142659   2.425   1.126   0.596 -1.6784 -0.5699  0.6254
 7008TIP3    H242660   2.376   1.058   0.470 -1.3506 -2.7081  1.6140
 7009TIP3   OH242661   6.699   0.849   7.231  0.4223  0.3312  0.4621
 7009TIP3    H142662   6.667   0.769   7.273 -2.2953  1.2972  0.4478
 7009TIP3    H242663   6.688   0.918   7.297 -2.3254  1.5666 -1.1016
 7010TIP3   OH242664   0.013   1.264   1.965 -0.0795  0.5757  0.0815
 7010TIP3    H142665   0.102   1.255   2.000 -0.2838 -1.1323  0.2562
 7010TIP3    H242666   0.014   1.212   1.884 -1.1377 -0.1886  0.5395
 7011TIP3   OH242667   4.926   0.241   0.974 -0.1846 -0.4397 -0.3161
 7011TIP3    H142668   4.855   0.210   0.917 -0.3817 -2.2427  0.8309
 7011TIP3    H242669   4.977   0.300   0.918 -1.9762  0.1068 -1.4781
 7012TIP3   OH242670   0.108   4.532   1.803  0.4557  0.1838 -0.7388
 7012TIP3    H142671   0.023   4.499   1.773 -0.1980  1.5813 -0.5295
 7012TIP3    H242672   0.133   4.473   1.874 -0.1997 -0.4065 -0.9825
 7013TIP3   OH242673   4.652   2.102   8.210  0.7891 -0.2145  0.2812
 7013TIP3    H142674   4.579   2.079   8.267  0.3922  0.1206 -0.0883
 7013TIP3    H242675   4.625   2.071   8.123  0.6322  0.8392 -0.0505
 7014TIP3   OH242676   2.004   2.461   8.488 -0.0757 -0.1811 -0.0769
 7014TIP3    H142677   2.027   2.546   8.450 -0.9799  0.1850  0.1722
 7014TIP3    H242678   2.083   2.408   8.477  0.9498  1.0850  0.9450
 7015TIP3   OH242679   3.783   1.190   3.339  0.1956  0.0502  0.2224
 7015TIP3    H142680   3.801   1.256   3.406 -0.5990  0.5335 -0.0189
 7015TIP3    H242681   3.816   1.228   3.258  0.0843 -0.0142  0.1463
 7016TIP3   OH242682   5.969   4.737   1.087 -0.6515 -0.0687 -1.1005
 7016TIP3    H142683   6.014   4.787   1.155  1.1437 -1.2459 -1.3286
 7016TIP3    H242684   5.959   4.650   1.124 -2.9687  0.1739 -1.0238
 7017TIP3   OH242685   3.996   5.690   0.200 -0.5474  0.1260  0.1739
 7017TIP3    H142686   4.080   5.681   0.155 -1.1645  3.9540 -2.1228
 7017TIP3    H242687   3.935   5.636   0.149 -0.6801  2.3404 -2.1847
 7018TIP3   OH242688   6.337   6.669   0.690 -0.3008 -0.3129 -0.0578
 7018TIP3    H142689   6.308   6.712   0.770  2.0018  0.8413  0.2340
 7018TIP3    H242690   6.308   6.727   0.620  2.6148  1.7950  0.3253
 7019TIP3   OH242691   4.551   1.364   6.986 -0.3573  0.2090  0.3939
 7019TIP3    H142692   4.587   1.436   6.934 -0.2839  0.2226  0.4636
 7019TIP3    H242693   4.605   1.288   6.962  0.5917  0.5155  1.4979
 7020TIP3   OH242694   5.128   5.229   1.393 -0.6622  0.3337  0.2255
 7020TIP3    H142695   5.109   5.288   1.466 -1.3793  1.0965 -0.5581
 7020TIP3    H242696   5.134   5.142   1.434 -0.6032  0.8008  1.2496
 7021TIP3   OH242697   4.713   2.770   0.271  1.2890 -0.5351  0.3114
 7021TIP3    H142698   4.663   2.725   0.204 -0.1699  1.8724 -0.3347
 7021TIP3    H242699   4.675   2.740   0.354 -1.2694  1.1360 -0.1603
 7022TIP3   OH242700   6.706   5.960   6.834 -0.1022  0.1785 -0.0819
 7022TIP3    H142701   6.682   5.873   6.800  0.6790  0.4593 -1.4112
 7022TIP3    H242702   6.692   6.019   6.760 -1.5205  1.3673  1.0759
 7023TIP3   OH242703   6.176   6.301   6.766 -0.0465 -0.1476  0.8513
 7023TIP3    H142704   6.174   6.253   6.683  1.3649  1.2482 -0.0457
 7023TIP3    H242705   6.149   6.390   6.742  1.6227  0.6011  1.6182
 7024TIP3   OH242706   6.397   1.790   1.685 -0.0352  0.3090 -0.0289
 7024TIP3    H142707   6.437   1.706   1.665 -0.3060  0.3160 -0.6183
 7024TIP3    H242708   6.418   1.805   1.777 -1.1217 -1.0481  0.4863
 7025TIP3   OH242709   3.718   2.974   3.544  0.0050  0.3834 -0.0832
 7025TIP3    H142710   3.774   2.945   3.616  0.0653 -1.7842 -0.9304
 7025TIP3    H242711   3.705   2.895   3.491 -0.7999  1.7098 -1.9360
 7026TIP3   OH242712   0.428   2.296   2.555 -0.0020  0.1428  0.0895
 7026TIP3    H142713   0.364   2.237   2.594 -0.1517 -0.5323 -1.1328
 7026TIP3    H242714   0.505   2.242   2.539  0.4372  0.6583  0.3984
 7027TIP3   OH242715   2.921   0.226   0.913  0.4635 -0.2413  0.1554
 7027TIP3    H142716   2.931   0.275   0.996  0.5909  1.1360 -0.6387
 7027TIP3    H242717   2.999   0.248   0.863  0.9889 -2.0680  0.1368
 7028TIP3   OH242718   5.557   5.293   2.934 -0.3980 -0.5358 -0.0259
 7028TIP3    H142719   5.546   5.247   3.017  1.0569  0.6402  0.8646
 7028TIP3    H242720   5.494   5.366   2.938 -0.2972 -0.4537  0.0638
 7029TIP3   OH242721   3.906   5.525   7.683  0.1439 -0.2042  0.1152
 7029TIP3    H142722   3.829   5.542   7.628  2.1185  2.1817 -2.2236
 7029TIP3    H242723   3.936   5.438   7.657 -0.5084 -0.2095 -0.6609
 7030TIP3   OH242724   2.683   5.413   2.003  0.5890  0.0355  0.2825
 7030TIP3    H142725   2.744   5.339   2.000  2.1137  1.2686 -0.8508
 7030TIP3    H242726   2.739   5.490   1.993 -1.0415  1.3023  0.6061
 7031TIP3   OH242727   6.779   3.392   7.390  0.7871 -0.3584  0.5920
 7031TIP3    H142728   6.867   3.379   7.354  0.1239  0.2250 -1.3785
 7031TIP3    H242729   6.729   3.316   7.362 -0.0790  0.7097 -0.9664
 7032TIP3   OH242730   2.281   2.105   2.526 -0.0894 -0.2528  0.1116
 7032TIP3    H142731   2.263   2.018   2.491  3.8951 -0.0991 -3.0581
 7032TIP3    H242732   2.332   2.088   2.606  0.1249 -0.8104 -0.1387
 7033TIP3   OH242733   4.985   6.768   2.637  0.6531  0.5038  0.4996
 7033TIP3    H142734   4.980   6.699   2.703 -1.1695  0.3396  0.2373
 7033TIP3    H242735   4.966   6.724   2.554  0.8759  1.0697  0.1393
 7034TIP3   OH242736   0.568   3.009   8.277  0.1821  0.5513 -0.7557
 7034TIP3    H142737   0.634   3.024   8.210 -0.7718  2.0679 -1.4050
 7034TIP3    H242738   0.574   2.915   8.296  0.6153  0.1148 -2.8070
 7035TIP3   OH242739   5.274   4.485   2.276  0.1770  0.0256  0.1157
 7035TIP3    H142740   5.341   4.551   2.258  1.5092 -1.1470  0.5971
 7035TIP3    H242741   5.237   4.464   2.190 -0.1617  1.2665 -0.0586
 7036TIP3   OH242742   4.826   1.668   1.027 -0.0799 -0.1294  0.3964
 7036TIP3    H142743   4.916   1.694   1.010  0.3657 -0.7260  1.6914
 7036TIP3    H242744   4.817   1.673   1.122 -1.3949 -0.1553  0.2975
 7037TIP3   OH242745   2.572   5.426   7.749  0.0154 -1.2211 -0.1210
 7037TIP3    H142746   2.553   5.445   7.657  0.3389  0.3648  0.1038
 7037TIP3    H242747   2.668   5.428   7.755 -0.0193  0.2102  0.5010
 7038TIP3   OH242748   6.018   0.730   0.952  0.0763  0.3904  0.6540
 7038TIP3    H142749   6.092   0.701   1.005 -0.5380 -0.8270  0.8908
 7038TIP3    H242750   6.023   0.675   0.873  0.3677  1.4505 -0.0866
 7039TIP3   OH242751   6.829   5.641   1.657  0.4666 -0.1425 -0.0853
 7039TIP3    H142752   6.823   5.575   1.588 -0.2230  0.0964 -0.2647
 7039TIP3    H242753   6.864   5.718   1.614 -0.8205  0.2955 -0.4020
 7040TIP3   OH242754   3.833   3.671   7.675 -0.2367 -0.1617  0.1232
 7040TIP3    H142755   3.739   3.666   7.662 -0.0256 -0.0750 -1.6631
 7040TIP3    H242756   3.870   3.627   7.599  1.1717  0.0179  0.6744
 7041TIP3   OH242757   3.980   1.796   0.453 -0.3269 -0.2905  0.3523
 7041TIP3    H142758   3.937   1.843   0.381 -0.0448  0.1414  0.4569
 7041TIP3    H242759   4.043   1.738   0.409 -0.3383 -0.2192  0.2391
 7042TIP3   OH242760   5.637   4.742   1.229 -0.0161 -0.2603  0.0132
 7042TIP3    H142761   5.557   4.791   1.210  0.3341  0.3871  0.1798
 7042TIP3    H242762   5.660   4.700   1.145 -2.1682 -2.9754  0.6253
 7043TIP3   OH242763   3.899   0.956   1.233 -0.2667  0.7682  0.4445
 7043TIP3    H142764   3.921   0.892   1.301 -0.0836  0.9029  0.5121
 7043TIP3    H242765   3.977   1.011   1.226 -0.9332  1.8880  1.4163
 7044TIP3   OH242766   3.034   5.681   1.720 -0.7910  0.2064 -0.1732
 7044TIP3    H142767   3.090   5.727   1.783 -0.8777  2.6073 -1.7380
 7044TIP3    H242768   3.096   5.637   1.661 -0.6180  0.4198 -0.1541
 7045TIP3   OH242769   0.012   5.883   7.782  0.0159  0.1078  0.0262
 7045TIP3    H142770   0.091   5.937   7.779 -0.6502  1.0500 -1.3844
 7045TIP3    H242771  -0.044   5.926   7.846 -0.1909  0.6578 -0.5138
 7046TIP3   OH242772   4.081   1.692   7.932 -0.2177  0.0981  0.2059
 7046TIP3    H142773   4.094   1.656   8.020  0.4645  1.5805  0.7441
 7046TIP3    H242774   4.169   1.701   7.897 -0.3975  0.8870 -0.0464
 7047TIP3   OH242775   5.942   2.421   6.667  0.3183 -0.0384 -0.2079
 7047TIP3    H142776   5.934   2.345   6.610 -1.4172 -0.4839  0.5718
 7047TIP3    H242777   5.983   2.387   6.747  1.0942  0.2214 -0.4798
 7048TIP3   OH242778   2.455   6.540   7.927 -0.1133  0.1952  0.5068
 7048TIP3    H142779   2.400   6.463   7.942 -0.9752  0.4147 -1.2444
 7048TIP3    H242780   2.485   6.531   7.837 -1.3516  2.5228 -0.2394
 7049TIP3   OH242781   0.110   4.393   7.322 -0.2381 -0.1358 -0.1818
 7049TIP3    H142782   0.184   4.336   7.341  0.6822  1.3086  0.6845
 7049TIP3    H242783   0.132   4.435   7.239 -1.2535 -1.5203 -1.2084
 7050TIP3   OH242784   4.463   5.717   8.179 -0.7736 -0.2964 -0.1454
 7050TIP3    H142785   4.443   5.810   8.173  0.4229 -0.0380 -0.3488
 7050TIP3    H242786   4.407   5.685   8.250 -0.0795  0.8980  0.9863
 7051TIP3   OH242787   6.013   4.511   1.605  0.2610 -0.3245 -0.2699
 7051TIP3    H142788   5.938   4.541   1.553  0.1740  1.4652  0.7741
 7051TIP3    H242789   6.088   4.554   1.564  0.3438  0.0868  0.2983
 7052TIP3   OH242790   6.786   0.189   1.303  0.5788  0.2194  0.7259
 7052TIP3    H142791   6.821   0.178   1.214 -1.4656 -1.4881  0.0491
 7052TIP3    H242792   6.753   0.102   1.326 -1.7124  1.3264  1.8939
 7053TIP3   OH242793   2.703   4.999   0.274  0.1800 -0.0607  0.0880
 7053TIP3    H142794   2.665   5.046   0.199  0.1614 -0.8360 -0.3997
 7053TIP3    H242795   2.678   4.908   0.260  0.4095 -0.2563  0.9035
 7054TIP3   OH242796   1.160   5.415   7.371 -0.4368 -0.5295 -0.1107
 7054TIP3    H142797   1.229   5.355   7.342 -0.6370 -1.0591  0.4903
 7054TIP3    H242798   1.084   5.359   7.384  0.0098 -0.5913  2.8277
 7055TIP3   OH242799   5.690   5.464   1.272  0.6014  0.1976  0.4172
 7055TIP3    H142800   5.659   5.375   1.252 -0.3909  0.2231  1.7051
 7055TIP3    H242801   5.758   5.481   1.207 -1.2410 -0.3603 -1.7661
 7056TIP3   OH242802   5.506   0.782   8.502 -0.2899  0.5909  0.1858
 7056TIP3    H142803   5.501   0.703   8.555 -0.0282 -0.0552 -0.7168
 7056TIP3    H242804   5.589   0.773   8.454  0.7404  2.3547  1.5061
 7057TIP3   OH242805   4.439   4.538   7.800  1.0155  0.1756 -0.1907
 7057TIP3    H142806   4.530   4.566   7.805  1.1613 -0.4315  1.5590
 7057TIP3    H242807   4.433   4.467   7.864 -0.3855 -0.6905 -1.2259
 7058TIP3   OH242808   5.496   4.214   1.613  0.4232 -0.3364  0.4673
 7058TIP3    H142809   5.501   4.289   1.673  0.5332 -0.6113  0.8075
 7058TIP3    H242810   5.495   4.253   1.526  0.3574  0.0668  0.6462
 7059TIP3   OH242811   5.226   3.019   7.874  0.5462  0.0312  0.1171
 7059TIP3    H142812   5.167   3.062   7.935  1.3573  0.5331  0.5607
 7059TIP3    H242813   5.268   3.090   7.827  1.4530 -0.2863  0.4303
 7060TIP3   OH242814   4.871   2.143   1.357 -0.5786  0.0833 -0.2548
 7060TIP3    H142815   4.899   2.071   1.301  1.0015  1.1048 -0.8484
 7060TIP3    H242816   4.875   2.221   1.301 -2.2514  0.6548  0.3601
 7061TIP3   OH242817   6.233   3.086   7.653 -0.7018  0.1324 -0.1929
 7061TIP3    H142818   6.203   2.996   7.664 -1.8207  0.3725 -1.1273
 7061TIP3    H242819   6.296   3.099   7.724 -0.9632 -1.1887  0.3100
 7062TIP3   OH242820   2.788   3.013   0.824  0.2690 -0.1379 -0.4078
 7062TIP3    H142821   2.867   3.058   0.855  0.4645 -1.3744  1.0212
 7062TIP3    H242822   2.819   2.954   0.755  0.5198 -0.3056 -0.1514
 7063TIP3   OH242823   1.751   5.450   0.083 -0.1313  0.2119 -0.6569
 7063TIP3    H142824   1.737   5.495  -0.000  1.7138 -0.9439 -1.6662
 7063TIP3    H242825   1.670   5.403   0.099 -1.2800  2.0780 -0.6888
 7064TIP3   OH242826   5.850   1.552   6.751  0.3898 -0.2355 -0.6556
 7064TIP3    H142827   5.878   1.483   6.810 -1.7328 -0.2206  0.4650
 7064TIP3    H242828   5.764   1.525   6.720  0.3364  1.0070 -1.7195
 7065TIP3   OH242829   6.252   5.482   7.392 -0.6031  0.0117  0.0281
 7065TIP3    H142830   6.319   5.428   7.435 -2.2744 -1.3092  1.1088
 7065TIP3    H242831   6.215   5.535   7.462  0.0955  1.6357 -0.7920
 7066TIP3   OH242832   6.159   3.072   1.364 -0.3923 -0.1756  0.1058
 7066TIP3    H142833   6.137   3.153   1.317  0.2152 -0.6557 -1.0405
 7066TIP3    H242834   6.254   3.075   1.374 -0.5688  0.3288  2.1424
 7067TIP3   OH242835   3.015   0.721   2.246 -0.1462  0.5208 -0.4474
 7067TIP3    H142836   3.066   0.722   2.327  0.1874 -1.1381 -0.5911
 7067TIP3    H242837   2.924   0.724   2.274 -0.0364 -0.3146  0.0243
 7068TIP3   OH242838   5.743   5.947   1.562  0.0371  0.8884 -0.2691
 7068TIP3    H142839   5.731   6.034   1.601 -2.8050  1.4535 -2.1134
 7068TIP3    H242840   5.739   5.962   1.468  1.1141 -1.0742 -0.6753
 7069TIP3   OH242841   1.853   0.898   8.418  0.5633  0.2660  0.8879
 7069TIP3    H142842   1.758   0.900   8.408  0.6249 -0.7863 -0.2180
 7069TIP3    H242843   1.886   0.958   8.351  0.6909  0.2662  0.9504
 7070TIP3   OH242844   0.238   3.111   2.888 -0.0954  0.4082 -0.1852
 7070TIP3    H142845   0.152   3.081   2.915  0.2851 -0.8157 -0.2860
 7070TIP3    H242846   0.227   3.205   2.873 -1.5018  0.2036 -0.5783
 7071TIP3   OH242847   2.444   6.464   2.423  0.2950 -1.0130  0.1928
 7071TIP3    H142848   2.487   6.509   2.350  1.6663 -0.8618  1.0550
 7071TIP3    H242849   2.363   6.513   2.437  1.3610  0.7088  0.5740
 7072TIP3   OH242850   2.884   3.629   8.513  0.3586 -0.1520  0.5316
 7072TIP3    H142851   2.923   3.542   8.526 -0.2419 -1.1141 -3.1446
 7072TIP3    H242852   2.913   3.656   8.426 -1.8799  2.0490  0.3646
 7073TIP3   OH242853   5.346   1.002   7.702  0.2291  0.0564  0.0710
 7073TIP3    H142854   5.267   0.959   7.668 -0.1636 -0.7240  1.8783
 7073TIP3    H242855   5.351   1.085   7.654 -1.9891  0.3776  0.3024
 7074TIP3   OH242856   5.632   4.833   2.330 -0.8787  0.2219 -0.1732
 7074TIP3    H142857   5.679   4.895   2.387 -0.8370  1.7043 -1.7400
 7074TIP3    H242858   5.684   4.753   2.334 -0.1337  0.7303  0.8098
 7075TIP3   OH242859   0.689   2.232   8.404  0.3103 -0.4137  0.0035
 7075TIP3    H142860   0.677   2.171   8.331  0.8761 -1.1190  0.4880
 7075TIP3    H242861   0.672   2.179   8.482 -0.7972  0.4573  0.3808
 7076TIP3   OH242862   6.499   2.492   0.327 -0.1187 -0.7056 -0.2960
 7076TIP3    H142863   6.518   2.399   0.317  0.5826 -0.6294  0.2447
 7076TIP3    H242864   6.585   2.534   0.332 -0.4070 -0.2391  1.2754
 7077TIP3   OH242865   4.696   0.537   1.505  0.1308 -0.1772 -0.3366
 7077TIP3    H142866   4.749   0.488   1.568  1.3652  0.7783 -0.5859
 7077TIP3    H242867   4.759   0.588   1.455 -1.0869  2.0607  0.2521
 7078TIP3   OH242868   3.418   2.587   2.149 -0.4588 -0.2282  0.3110
 7078TIP3    H142869   3.437   2.630   2.232 -0.7464  0.7682 -0.1209
 7078TIP3    H242870   3.347   2.639   2.111 -1.1346 -1.3654 -0.0283
 7079TIP3   OH242871   5.854   1.937   0.836 -0.3816  0.8757 -0.2260
 7079TIP3    H142872   5.799   1.937   0.757 -1.6159 -0.5812  0.5800
 7079TIP3    H242873   5.808   1.995   0.897 -1.5191 -0.9389  0.7217
 7080TIP3   OH242874   0.724   6.788   8.445  0.5004 -0.2803 -0.9797
 7080TIP3    H142875   0.747   6.754   8.358  1.9900  0.5493 -0.9393
 7080TIP3    H242876   0.782   6.740   8.505  1.4227  1.0532 -0.7497
 7081TIP3   OH242877   3.353   3.652   0.213 -0.2915  0.5675  0.0548
 7081TIP3    H142878   3.276   3.679   0.263 -0.0135  1.9430 -0.2037
 7081TIP3    H242879   3.319   3.593   0.146 -0.9320  0.1729  0.7169
 7082TIP3   OH242880   4.577   2.188   2.581  0.0204  0.1623 -0.2655
 7082TIP3    H142881   4.601   2.114   2.526 -0.7722  1.9133 -3.2057
 7082TIP3    H242882   4.487   2.171   2.607  0.1224 -0.2868 -0.1977
 7083TIP3   OH242883   0.926   4.639   7.020  0.2445  0.2860  0.8211
 7083TIP3    H142884   0.947   4.597   7.104  1.3118 -0.5779  0.1622
 7083TIP3    H242885   1.009   4.675   6.991  0.4203 -1.3847 -0.9034
 7084TIP3   OH242886   6.803   3.806   1.001 -0.1359 -0.0874 -0.0638
 7084TIP3    H142887   6.709   3.792   1.007 -0.1175 -0.7767 -1.1028
 7084TIP3    H242888   6.832   3.748   0.931  1.1860 -0.4399  0.7343
 7085TIP3   OH242889   0.259   0.319   2.124 -0.3428 -0.2061  0.2012
 7085TIP3    H142890   0.284   0.384   2.190  0.2850  0.7680 -0.9564
 7085TIP3    H242891   0.338   0.267   2.110  0.8823  2.1243 -2.5996
 7086TIP3   OH242892   0.242   0.487   8.481 -0.2863 -0.6146  0.2269
 7086TIP3    H142893   0.202   0.401   8.493  0.6887 -1.0600  0.3785
 7086TIP3    H242894   0.177   0.549   8.515 -2.1379 -1.0548 -2.2359
 7087TIP3   OH242895   6.381   2.726   2.873 -0.2477 -0.3284 -0.0944
 7087TIP3    H142896   6.296   2.769   2.883 -0.0944 -0.3389  1.5795
 7087TIP3    H242897   6.438   2.792   2.835 -1.1067 -0.4764 -1.7166
 7088TIP3   OH242898   4.517   1.353   7.921 -0.2429 -0.2298 -0.0624
 7088TIP3    H142899   4.608   1.380   7.915  0.0602 -0.9509  1.0370
 7088TIP3    H242900   4.500   1.349   8.015 -1.0312 -1.3667 -0.2431
 7089TIP3   OH242901   1.643   5.270   1.165 -0.2815 -0.3543  0.1221
 7089TIP3    H142902   1.730   5.295   1.132 -0.1621 -3.2326 -2.0474
 7089TIP3    H242903   1.634   5.319   1.247  3.2414  0.2984  0.2669
 7090TIP3   OH242904   3.472   4.159   1.144  0.5119  0.2382  0.1427
 7090TIP3    H142905   3.405   4.187   1.207  0.7729  0.6405  0.2427
 7090TIP3    H242906   3.431   4.087   1.097  0.1725  0.1816  0.5145
 7091TIP3   OH242907   5.726   1.582   0.131  0.1196  0.1105 -0.5792
 7091TIP3    H142908   5.655   1.558   0.191 -0.6693 -0.2439 -1.6080
 7091TIP3    H242909   5.699   1.667   0.096  1.6362  1.3660  1.1375
 7092TIP3   OH242910   4.127   3.773   2.030  0.0393  0.1538 -0.0445
 7092TIP3    H142911   4.073   3.700   2.000  0.3597 -0.8662  1.7291
 7092TIP3    H242912   4.090   3.796   2.115  1.5079  0.3748  0.5604
 7093TIP3   OH242913   5.116   4.451   2.041  0.3630 -0.6040  0.2914
 7093TIP3    H142914   5.092   4.494   1.959 -0.3264  1.1163  1.3369
 7093TIP3    H242915   5.037   4.402   2.066 -0.3427  0.8593  1.1070
 7094TIP3   OH242916   3.310   6.836   8.256  0.2622 -0.0147 -0.2640
 7094TIP3    H142917   3.363   6.759   8.239 -0.0795 -0.2614 -0.2158
 7094TIP3    H242918   3.249   6.840   8.183 -0.1426 -0.1566  0.0648
 7095TIP3   OH242919   2.889   1.303   1.362  0.2894 -0.1978  0.5147
 7095TIP3    H142920   2.863   1.318   1.271 -1.8710  1.3048  1.2891
 7095TIP3    H242921   2.985   1.301   1.360  0.2806 -1.1915 -1.9011
 7096TIP3   OH242922   6.400   3.346   0.341  0.3643 -0.1220  0.8731
 7096TIP3    H142923   6.398   3.257   0.376  2.9279 -0.5288  0.2357
 7096TIP3    H242924   6.394   3.335   0.246  0.4753  0.3837  0.8043
 7097TIP3   OH242925   4.008   2.723   1.862  0.2279 -0.2333 -0.1656
 7097TIP3    H142926   4.060   2.647   1.836 -1.3110 -1.8954  1.3116
 7097TIP3    H242927   3.944   2.688   1.924 -2.3355  1.7602 -1.4666
 7098TIP3   OH242928   4.956   5.821   1.576  0.0976 -0.4596  0.5171
 7098TIP3    H142929   5.002   5.753   1.526  0.0825 -0.7240  0.8566
 7098TIP3    H242930   5.022   5.890   1.588  0.2442 -0.6024  0.5379
 7099TIP3   OH242931   0.699   2.101   8.127 -0.4533 -0.2124  0.4952
 7099TIP3    H142932   0.616   2.061   8.099 -0.6346  0.8545 -0.6247
 7099TIP3    H242933   0.742   2.125   8.045  1.0126 -0.8016  1.0703
 7100TIP3   OH242934   4.322   6.056   6.875  0.4269 -0.6783  0.0450
 7100TIP3    H142935   4.244   6.005   6.853 -0.0567  0.6648 -1.5896
 7100TIP3    H242936   4.387   5.991   6.899 -1.3554 -1.8206  2.1832
 7101TIP3   OH242937   2.478   4.906   7.483 -0.0543  0.0594  0.3102
 7101TIP3    H142938   2.386   4.889   7.465  0.0695  1.1369 -1.6959
 7101TIP3    H242939   2.478   4.985   7.537 -0.2948  0.4555 -0.2629
 7102TIP3   OH242940   0.826   6.656   7.523 -0.7391  0.0845  0.2704
 7102TIP3    H142941   0.919   6.679   7.519 -1.3118  2.6084 -0.1938
 7102TIP3    H242942   0.825   6.566   7.554  2.0006 -1.5175 -3.5230
 7103TIP3   OH242943   0.550   4.967   0.293  0.1724 -0.3864 -0.3450
 7103TIP3    H142944   0.464   4.949   0.254  0.8554 -1.3879 -1.4878
 7103TIP3    H242945   0.576   5.051   0.255  0.4045 -0.8859 -1.3330
 7104TIP3   OH242946   2.860   4.806   1.503 -0.0212  0.7664  0.3253
 7104TIP3    H142947   2.931   4.858   1.465  0.8512 -0.9395 -0.4717
 7104TIP3    H242948   2.894   4.716   1.506 -2.0178 -0.0409  0.2570
 7105TIP3   OH242949   4.066   1.975   2.143 -0.1076  0.2178  0.0131
 7105TIP3    H142950   4.126   1.960   2.070 -0.4567 -1.5154  0.0412
 7105TIP3    H242951   4.064   2.070   2.152  2.2061  0.3736 -0.3363
 7106TIP3   OH242952   6.658   4.454   8.533  0.0677  0.6632  0.2317
 7106TIP3    H142953   6.702   4.496   8.460  0.0823  3.3221  1.6151
 7106TIP3    H242954   6.590   4.400   8.493  0.9503  0.9530 -1.7495
 7107TIP3   OH242955   0.389   6.539   0.301  0.2230  0.1938 -0.0547
 7107TIP3    H142956   0.449   6.472   0.335  2.3536  2.2617  0.5411
 7107TIP3    H242957   0.366   6.509   0.213 -0.6255 -2.3212  0.9550
 7108TIP3   OH242958   5.968   5.941   6.952 -0.3291  0.2296 -0.6503
 7108TIP3    H142959   5.960   6.002   6.879  0.3405  0.6770 -0.3589
 7108TIP3    H242960   5.882   5.901   6.959 -0.8702  1.3602 -0.6587
 7109TIP3   OH242961   5.781   0.959   7.988  0.0637 -0.3688 -0.1128
 7109TIP3    H142962   5.833   1.036   8.011 -0.7786  0.4395 -0.8280
 7109TIP3    H242963   5.822   0.926   7.907 -0.5697  0.3275 -0.7331
 7110TIP3   OH242964   4.448   4.175   7.819  0.0222 -0.7491 -0.0172
 7110TIP3    H142965   4.448   4.235   7.892  0.8069  0.5797 -1.0627
 7110TIP3    H242966   4.366   4.192   7.773  0.4717 -0.1002 -0.5940
 7111TIP3   OH242967   2.872   1.317   1.837 -0.1989 -0.3799 -0.1329
 7111TIP3    H142968   2.871   1.249   1.769 -0.4981 -1.5442  0.9820
 7111TIP3    H242969   2.964   1.324   1.863 -0.3937 -1.7720  1.0596
 7112TIP3   OH242970   2.939   6.270   0.092 -0.7520  0.0302  0.6893
 7112TIP3    H142971   2.955   6.363   0.107 -1.1600  0.1928  0.1722
 7112TIP3    H242972   2.877   6.268   0.019  0.6018 -0.6792 -0.5123
 7113TIP3   OH242973   1.714   5.165   7.615 -0.8718  0.7475 -0.0533
 7113TIP3    H142974   1.770   5.114   7.673  0.3969  1.7161 -0.3956
 7113TIP3    H242975   1.695   5.245   7.663 -2.7906  0.0578  0.4487
 7114TIP3   OH242976   3.572   2.702   2.920  0.7711  0.1105  0.1399
 7114TIP3    H142977   3.621   2.709   3.002  0.7084  0.9749  0.1108
 7114TIP3    H242978   3.501   2.766   2.928  0.4489 -0.1687 -0.3751
 7115TIP3   OH242979   6.451   3.071   7.832  0.5452 -0.2391  0.0696
 7115TIP3    H142980   6.464   2.990   7.881  1.1007 -1.1804 -1.5561
 7115TIP3    H242981   6.452   3.140   7.899 -2.6285 -1.7070  1.8376
 7116TIP3   OH242982   0.870   0.826   1.217  0.0505 -0.1197 -0.0335
 7116TIP3    H142983   0.803   0.843   1.151  0.0398 -0.7937 -0.2061
 7116TIP3    H242984   0.881   0.731   1.216  0.1909 -0.1182  0.7981
 7117TIP3   OH242985   5.873   0.190   1.160  0.3297  0.3677  0.3851
 7117TIP3    H142986   5.889   0.179   1.066 -1.8213 -0.2215  0.0289
 7117TIP3    H242987   5.870   0.285   1.173 -0.0086  0.4524 -0.2734
 7118TIP3   OH242988   4.930   4.834   8.199 -0.2220 -0.0236  0.1691
 7118TIP3    H142989   4.982   4.857   8.122 -0.2297 -0.5406  0.0004
 7118TIP3    H242990   4.910   4.741   8.187  0.4922 -0.3344  1.2093
 7119TIP3   OH242991   0.387   1.959   1.999 -0.2252 -1.4720 -0.0665
 7119TIP3    H142992   0.481   1.960   1.979 -0.6270 -0.1092 -2.1534
 7119TIP3    H242993   0.372   1.874   2.040  1.3543 -3.1886 -2.7607
 7120TIP3   OH242994   1.453   5.306   8.146  0.1508 -0.0306  0.1988
 7120TIP3    H142995   1.394   5.278   8.216 -0.7114  0.4158 -0.3256
 7120TIP3    H242996   1.441   5.241   8.077  0.7732 -0.3007  0.3379
 7121TIP3   OH242997   4.202   5.389   7.724 -0.0583 -0.0703  0.5182
 7121TIP3    H142998   4.254   5.415   7.648 -1.1336  0.7775  0.0359
 7121TIP3    H242999   4.123   5.350   7.687 -0.2983 -0.2513  1.2066
 7122TIP3   OH243000   4.358   5.098   0.722 -0.7461  0.8259  0.8020
 7122TIP3    H143001   4.333   5.168   0.662  0.5010  0.3350 -0.3121
 7122TIP3    H243002   4.383   5.025   0.666 -3.0506 -0.9807  1.9092
 7123TIP3   OH243003   2.846   6.453   7.988  0.2950 -0.0519  0.0488
 7123TIP3    H143004   2.794   6.422   8.062 -0.8879 -1.2187 -1.2120
 7123TIP3    H243005   2.900   6.378   7.963  1.4401  0.6475  0.3295
 7124TIP3   OH243006   1.512   5.534   2.090  0.6419 -0.9896  0.4503
 7124TIP3    H143007   1.545   5.607   2.037 -0.6763 -0.6207  0.1022
 7124TIP3    H243008   1.514   5.567   2.180 -0.3662 -0.3442  0.2471
 7125TIP3   OH243009   0.934   6.590   1.189 -0.3702  0.5139 -0.1186
 7125TIP3    H143010   0.983   6.552   1.262 -1.1741 -0.5798 -0.1355
 7125TIP3    H243011   1.001   6.612   1.124 -0.0057 -2.7697 -0.9932
 7126TIP3   OH243012   4.497   5.933   0.247 -0.0719  0.1020 -0.4551
 7126TIP3    H143013   4.532   6.011   0.205  1.3687 -0.2384  0.0232
 7126TIP3    H243014   4.550   5.924   0.326 -2.3129  0.4101  1.1745
 7127TIP3   OH243015   2.523   6.707   7.414 -0.2267  0.1656 -0.3399
 7127TIP3    H143016   2.476   6.687   7.334 -0.4439 -0.6314 -0.0217
 7127TIP3    H243017   2.611   6.670   7.401 -0.2781 -0.0123 -0.1962
 7128TIP3   OH243018   0.038   2.890   1.985 -0.3647 -0.0620  0.1334
 7128TIP3    H143019   0.011   2.825   2.050  0.8558  0.2528  1.0004
 7128TIP3    H243020   0.098   2.948   2.032  0.4430  0.2743 -1.2388
 7129TIP3   OH243021   6.128   4.839   8.108 -0.0477  0.4582 -0.2924
 7129TIP3    H143022   6.214   4.832   8.149 -0.5686  0.8176  0.9099
 7129TIP3    H243023   6.084   4.757   8.129 -0.3785  0.7144  0.0459
 7130TIP3   OH243024   5.033   1.411   8.014  0.0357  0.1248 -0.2160
 7130TIP3    H143025   5.059   1.320   8.030 -0.9618 -0.0389  0.6180
 7130TIP3    H243026   5.112   1.462   8.030  0.3122 -0.5027  0.5109
 7131TIP3   OH243027   6.080   0.718   7.680 -0.3090 -0.4344  0.2356
 7131TIP3    H143028   6.112   0.738   7.592  0.5626 -0.3124  0.5720
 7131TIP3    H243029   5.987   0.744   7.678 -0.4698 -1.0548 -0.8344
 7132TIP3   OH243030   5.372   6.413   0.976 -1.1274 -0.2439 -0.2756
 7132TIP3    H143031   5.420   6.493   0.957 -2.2455  0.3074 -0.8214
 7132TIP3    H243032   5.315   6.400   0.900 -0.5153 -1.9125 -0.4966
 7133TIP3   OH243033   1.024   2.279   2.652 -0.2137 -0.2342 -0.2222
 7133TIP3    H143034   0.956   2.333   2.692  1.1328  0.4643  1.2650
 7133TIP3    H243035   1.049   2.218   2.721 -0.1542 -1.2752 -1.1437
 7134TIP3   OH243036   3.782   3.362   7.834 -0.5503  0.5629 -0.7593
 7134TIP3    H143037   3.853   3.332   7.777  0.6959  1.9391  0.0147
 7134TIP3    H243038   3.755   3.284   7.882  0.7402  0.0953 -0.7567
 7135TIP3   OH243039   5.495   6.119   0.359 -0.0343  0.4160  0.1181
 7135TIP3    H143040   5.503   6.154   0.271  0.4912 -0.3197 -0.1366
 7135TIP3    H243041   5.421   6.058   0.353 -0.8732  1.3565  0.5311
 7136TIP3   OH243042   6.573   6.092   7.425 -0.7006 -0.0119  0.1619
 7136TIP3    H143043   6.629   6.072   7.350 -0.1814  0.3390  0.4544
 7136TIP3    H243044   6.602   6.032   7.493 -0.4535  0.4000  0.4210
 7137TIP3   OH243045   2.911   3.886   7.243 -0.3915 -0.4073  0.0523
 7137TIP3    H143046   2.882   3.963   7.292 -1.9532 -0.3606 -0.8816
 7137TIP3    H243047   3.000   3.908   7.215 -0.7357  0.9786 -0.0213
 7138TIP3   OH243048   0.004   4.559   7.921 -0.0870 -0.0891 -0.0826
 7138TIP3    H143049  -0.033   4.479   7.883  0.6976 -0.5752  0.1617
 7138TIP3    H243050  -0.013   4.550   8.015  2.1640 -1.1795  0.2889
 7139TIP3   OH243051   5.018   4.707   8.464  0.0613  0.0823  0.3077
 7139TIP3    H143052   5.013   4.755   8.381 -1.6304  0.0606  0.3529
 7139TIP3    H243053   5.112   4.695   8.479  0.4186  0.3010 -1.4730
 7140TIP3   OH243054   3.468   1.380   3.146 -0.3227  0.1690  0.1456
 7140TIP3    H143055   3.462   1.289   3.175 -2.1277  0.0098 -0.6141
 7140TIP3    H243056   3.378   1.405   3.128 -0.0603  2.6383  1.8308
 7141TIP3   OH243057   2.394   1.421   7.853  0.0094 -0.1872 -0.5466
 7141TIP3    H143058   2.427   1.485   7.916  1.7416 -0.3276 -1.2557
 7141TIP3    H243059   2.471   1.368   7.831 -1.3106 -2.4164 -0.1209
 7142TIP3   OH243060   4.947   1.418   1.075 -0.5583  0.6254 -0.9109
 7142TIP3    H143061   4.899   1.483   1.024 -0.5631 -0.2295 -2.0160
 7142TIP3    H243062   4.977   1.353   1.011  0.7209  0.3076 -0.0337
 7143TIP3   OH243063   1.932   3.232   6.836  0.3706  0.3240  0.1485
 7143TIP3    H143064   1.913   3.251   6.928 -1.7152 -1.6177  0.2065
 7143TIP3    H243065   1.908   3.313   6.790 -2.1986  0.1141  0.9625
 7144TIP3   OH243066   1.398   4.698   0.275 -0.5120  0.6085  0.3411
 7144TIP3    H143067   1.475   4.714   0.330 -0.6450 -1.3285  1.1591
 7144TIP3    H243068   1.345   4.636   0.325 -3.8731  3.6423  0.9524
 7145TIP3   OH243069   5.024   1.489   2.284  0.2935  0.1699 -0.0177
 7145TIP3    H143070   5.001   1.574   2.321 -0.7701  0.6114 -1.6149
 7145TIP3    H243071   4.955   1.470   2.220  1.1640 -1.3214 -0.5785
 7146TIP3   OH243072   1.148   1.629   7.601  0.0289 -0.5757 -0.8119
 7146TIP3    H143073   1.212   1.693   7.632 -1.0022  0.5748 -1.0042
 7146TIP3    H243074   1.178   1.546   7.639  1.1718  0.0699 -0.2352
 7147TIP3   OH243075   3.047   1.136   0.144 -0.2851  0.3334  0.4320
 7147TIP3    H143076   3.047   1.046   0.179 -3.1786 -0.2528 -0.7291
 7147TIP3    H243077   3.098   1.131   0.063  0.5383  0.0100  0.9711
 7148TIP3   OH243078   4.705   5.032   0.138  0.0593  0.0931  0.3361
 7148TIP3    H143079   4.716   5.092   0.212 -1.5402  0.7313  0.1025
 7148TIP3    H243080   4.662   5.085   0.070 -0.5376 -1.0633 -0.2230
 7149LIG     O143081   1.343   3.039   2.198 -0.1215 -0.2077 -0.1171
 7149LIG     O243082   1.458   3.011   1.991 -0.1711  0.1048  0.0928
 7149LIG     O343083   1.268   3.035   1.851 -0.2964  0.1841 -0.2686
 7149LIG     O443084   1.612   2.908   2.314 -0.0947 -0.1443  0.3781
 7149LIG     O543085   1.434   2.707   2.290 -0.0158 -0.1558  0.1384
 7149LIG     O643086   1.585   3.251   1.857  0.1213  0.6478  0.1008
 7149LIG     O743087   1.620   2.971   1.757  0.4928  0.0044  0.0940
 7149LIG     O843088   1.437   2.897   1.549  0.6942 -0.3798  0.5212
 7149LIG     O943089   1.678   3.158   2.085 -0.1485 -0.2745  0.8585
 7149LIG    O1043090   1.138   2.868   2.063  0.7050 -0.3415  0.0486
 7149LIG    O1143091   1.119   2.920   1.587  0.5882 -0.2223 -0.1613
 7149LIG     C143092   1.477   3.031   2.130 -0.3103 -0.0024 -1.2743
 7149LIG     C243093   1.547   2.903   2.185  0.1387 -0.7269 -0.3853
 7149LIG     C343094   1.418   2.817   2.199  0.3820 -0.2550  0.5473
 7149LIG     C443095   1.304   2.909   2.249 -0.0031  0.1689 -0.0889
 7149LIG     C543096   1.382   3.101   1.915  1.4077  0.1260  0.2865
 7149LIG     C643097   1.476   3.167   1.805 -0.2486 -0.1269 -0.6690
 7149LIG     C743098   1.521   3.066   1.704  0.5248 -0.0926 -0.1617
 7149LIG     C843099   1.399   2.993   1.653 -0.0213  0.7891 -0.0229
 7149LIG     C943100   1.309   2.935   1.759 -0.6160  1.1576  0.1740
 7149LIG    C1043101   1.554   3.158   2.161 -0.8033 -0.1624 -0.4084
 7149LIG    C1143102   1.163   2.855   2.205  0.2465 -0.1480 -0.7024
 7149LIG    C1243103   1.189   2.850   1.692 -0.6676  0.2873 -0.2484
 7149LIG     H143104   1.609   2.856   2.108 -0.5344  0.1846 -1.5154
 7149LIG     H243105   1.395   2.777   2.099  0.6587 -2.0486  1.1605
 7149LIG     H343106   1.326   2.916   2.357  0.6597  1.8627 -0.2964
 7149LIG     H443107   1.342   3.191   1.967  1.5818  0.8532 -0.8001
 7149LIG     H543108   1.411   3.241   1.753  0.4630  0.4983 -0.6892
 7149LIG     H643109   1.557   3.125   1.617  0.2682 -0.6636 -0.6639
 7149LIG     H743110   1.337   3.068   1.599 -2.0119 -0.6197  0.1861
 7149LIG     H843111   1.375   2.863   1.813 -0.3464  0.1343 -1.4424
 7149LIG     H943112   1.497   3.247   2.128 -1.0682  0.4856  1.6783
 7149LIG    H1043113   1.576   3.174   2.269  0.0942  2.4080 -0.8950
 7149LIG    H1143114   1.159   2.745   2.219  1.3311 -0.0719  0.4016
 7149LIG    H1243115   1.087   2.903   2.271  0.8256 -2.5708  1.9374
 7149LIG    H1343116   1.231   2.759   1.644  2.2677  1.3532  0.1012
 7149LIG    H1443117   1.106   2.827   1.762 -2.9600  0.7532 -2.6541
 7149LIG    H1543118   1.681   2.842   2.316 -1.5460 -1.8627 -1.4792
 7149LIG    H1643119   1.474   2.730   2.374  0.1058 -2.8955  0.9322
 7149LIG    H1743120   1.564   3.334   1.813 -2.1396  0.8623  1.3976
 7149LIG    H1843121   1.612   2.887   1.711  2.2855 -0.0138 -0.2563
 7149LIG    H1943122   1.478   2.935   1.471 -1.3814 -0.1131 -0.5151
 7149LIG    H2043123   1.641   3.179   1.999 -1.9609  0.4801  1.7508
 7149LIG    H2143124   1.200   2.935   2.032  0.1836 -0.5115 -1.4973
 7149LIG    H2243125   1.039   2.869   1.573  1.0116 -0.3127 -2.7069
   6.92604   6.92604   8.58527
