;;
;; Generated by CHARMM-GUI FF-Converter
;;
;; Correspondance:
;; jul316@lehigh.edu or wonpil@lehigh.edu
;;
;; The main GROMACS topology file
;;

; Include forcefield parameters
#include "./charmm36-jul2022.ff/forcefield.itp"
;#include "toppar/forcefield.itp"
; This is from CHARMM-GUI's ligand reader
#include "lig/charmm36.itp"

; Include forcefield parameters
; #include "toppar/forcefield.itp"
#include "toppar/CHL1.itp"
#include "toppar/SAPC.itp"
#include "toppar/SLPC.itp"
#include "toppar/SAPE.itp"
#include "toppar/SOPE.itp"
#include "toppar/OSM.itp"
#include "toppar/SAPS.itp"
#include "toppar/POPC.itp"
#include "toppar/SAPI.itp"
#include "toppar/SOD.itp"
#include "toppar/CLA.itp"
#include "toppar/TIP3.itp"

#include "lig/LIG.itp"

[ system ]
; Name
Title

[ molecules ]
; Compound	#mols
CHL1  	          56
SAPC  	          16
SLPC  	          16
SAPE  	          28
SOPE  	          12
OSM   	          36
SAPS  	          16
POPC  	           8
SAPI  	           4
SOD   	          37
CLA   	          17
TIP3  	        6902
LIG                1
