PSF EXT CMAP XPLOR

         2 !NTITLE
* GENERATE LIGAND                                                               
*  DATE:     4/11/25      6:55:24      CREATED BY USER: charmm-gui              

        53 !NATOM
         1 LIG      1        LIG      O1       OG301   -0.335000       15.9994           0
         2 LIG      1        LIG      O2       OG2D3   -0.457000       15.9994           0
         3 LIG      1        LIG      O3       OG2D3   -0.545000       15.9994           0
         4 LIG      1        LIG      O4       OG311   -0.549000       15.9994           0
         5 LIG      1        LIG      O5       OG2D3   -0.557000       15.9994           0
         6 LIG      1        LIG      O6       OG311   -0.508000       15.9994           0
         7 LIG      1        LIG      N        NG321   -0.936000       14.0070           0
         8 LIG      1        LIG      C1       CG311   -0.550000E-01   12.0110           0
         9 LIG      1        LIG      C2       CG311    0.680000E-01   12.0110           0
        10 LIG      1        LIG      C3       CG321   -0.232000       12.0110           0
        11 LIG      1        LIG      C4       CG311    0.160000       12.0110           0
        12 LIG      1        LIG      C5       CG2R61   0.620000E-01   12.0110           0
        13 LIG      1        LIG      C6       CG2O5    0.410000       12.0110           0
        14 LIG      1        LIG      C7       CG2R61   0.590000E-01   12.0110           0
        15 LIG      1        LIG      C8       CG2O5    0.450000       12.0110           0
        16 LIG      1        LIG      C9       CG2D1O   0.259000       12.0110           0
        17 LIG      1        LIG      C10      CG2DC1  -0.269000       12.0110           0
        18 LIG      1        LIG      C11      CG2R61    0.00000       12.0110           0
        19 LIG      1        LIG      C12      CG2R61  -0.500000E-02   12.0110           0
        20 LIG      1        LIG      C13      CG2R61   0.380000E-01   12.0110           0
        21 LIG      1        LIG      C14      CG2R61  -0.290000E-01   12.0110           0
        22 LIG      1        LIG      C15      CG331   -0.260000       12.0110           0
        23 LIG      1        LIG      C16      CG2O5    0.502000       12.0110           0
        24 LIG      1        LIG      C17      CG2R61   0.540000E-01   12.0110           0
        25 LIG      1        LIG      C18      CG2R61  -0.156000       12.0110           0
        26 LIG      1        LIG      C19      CG2R61   0.560000E-01   12.0110           0
        27 LIG      1        LIG      C20      CG2R61  -0.108000       12.0110           0
        28 LIG      1        LIG      C21      CG331   -0.230000       12.0110           0
        29 LIG      1        LIG      C22      CG331    0.120000E-01   12.0110           0
        30 LIG      1        LIG      C23      CG331   -0.263000       12.0110           0
        31 LIG      1        LIG      H1       HGA1     0.900000E-01   1.00800           0
        32 LIG      1        LIG      H2       HGA1     0.900000E-01   1.00800           0
        33 LIG      1        LIG      H3       HGA2     0.900000E-01   1.00800           0
        34 LIG      1        LIG      H4       HGA2     0.900000E-01   1.00800           0
        35 LIG      1        LIG      H5       HGA1     0.900000E-01   1.00800           0
        36 LIG      1        LIG      H6       HGPAM2   0.382000       1.00800           0
        37 LIG      1        LIG      H7       HGPAM2   0.382000       1.00800           0
        38 LIG      1        LIG      H8       HGA3     0.900000E-01   1.00800           0
        39 LIG      1        LIG      H9       HGA3     0.900000E-01   1.00800           0
        40 LIG      1        LIG      H10      HGA3     0.900000E-01   1.00800           0
        41 LIG      1        LIG      H11      HGR61    0.115000       1.00800           0
        42 LIG      1        LIG      H12      HGP1     0.420000       1.00800           0
        43 LIG      1        LIG      H13      HGR61    0.115000       1.00800           0
        44 LIG      1        LIG      H14      HGA3     0.900000E-01   1.00800           0
        45 LIG      1        LIG      H15      HGA3     0.900000E-01   1.00800           0
        46 LIG      1        LIG      H16      HGA3     0.900000E-01   1.00800           0
        47 LIG      1        LIG      H17      HGA3     0.900000E-01   1.00800           0
        48 LIG      1        LIG      H18      HGA3     0.900000E-01   1.00800           0
        49 LIG      1        LIG      H19      HGA3     0.900000E-01   1.00800           0
        50 LIG      1        LIG      H20      HGA3     0.900000E-01   1.00800           0
        51 LIG      1        LIG      H21      HGA3     0.900000E-01   1.00800           0
        52 LIG      1        LIG      H22      HGA3     0.900000E-01   1.00800           0
        53 LIG      1        LIG      H23      HGP1     0.420000       1.00800           0

        56 !NBOND: bonds
         1        16         1        29         2        13         3        15
         4        19         4        42         5        23         6        24
         6        53        11         7         7        36         7        37
         8         9         8        10         8        11         8        31
         9        13         9        15         9        32        10        12
        10        33        10        34        11        16        11        35
        12        14        12        18        13        14        14        19
        15        17        16        17        17        23        18        20
        18        22        19        21        20        21        20        25
        21        24        22        38        22        39        22        40
        23        28        24        26        25        27        25        41
        26        27        26        30        27        43        28        44
        28        45        28        46        29        47        29        48
        29        49        30        50        30        51        30        52

        99 !NTHETA: angles
        16         1        29        19         4        42        24         6        53
        11         7        36        11         7        37        36         7        37
         9         8        10         9         8        11         9         8        31
        10         8        11        10         8        31        11         8        31
         8         9        13         8         9        15         8         9        32
        13         9        15        13         9        32        15         9        32
         8        10        12         8        10        33         8        10        34
        12        10        33        12        10        34        33        10        34
         7        11         8         7        11        16         7        11        35
         8        11        16         8        11        35        16        11        35
        10        12        14        10        12        18        14        12        18
         2        13         9         2        13        14         9        13        14
        12        14        13        12        14        19        13        14        19
         3        15         9         3        15        17         9        15        17
         1        16        11         1        16        17        11        16        17
        15        17        16        15        17        23        16        17        23
        12        18        20        12        18        22        20        18        22
         4        19        14         4        19        21        14        19        21
        18        20        21        18        20        25        21        20        25
        19        21        20        19        21        24        20        21        24
        18        22        38        18        22        39        18        22        40
        38        22        39        38        22        40        39        22        40
         5        23        17         5        23        28        17        23        28
         6        24        21         6        24        26        21        24        26
        20        25        27        20        25        41        27        25        41
        24        26        27        24        26        30        27        26        30
        25        27        26        25        27        43        26        27        43
        23        28        44        23        28        45        23        28        46
        44        28        45        44        28        46        45        28        46
         1        29        47         1        29        48         1        29        49
        47        29        48        47        29        49        48        29        49
        26        30        50        26        30        51        26        30        52
        50        30        51        50        30        52        51        30        52

       144 !NPHI: dihedrals
         1        16        11         7         1        16        11         8
         1        16        11        35         1        16        17        15
         1        16        17        23         2        13         9         8
         2        13         9        15         2        13         9        32
         2        13        14        12         2        13        14        19
         3        15         9         8         3        15         9        13
         3        15         9        32         3        15        17        16
         3        15        17        23         4        19        14        12
         4        19        14        13         4        19        21        20
         4        19        21        24         5        23        17        15
         5        23        17        16         5        23        28        44
         5        23        28        45         5        23        28        46
         6        24        21        19         6        24        21        20
         6        24        26        27         6        24        26        30
         7        11         8         9         7        11         8        10
         7        11         8        31         7        11        16        17
         8         9        13        14         8         9        15        17
         8        10        12        14         8        10        12        18
         8        11         7        36         8        11         7        37
         8        11        16        17         9         8        10        12
         9         8        10        33         9         8        10        34
         9         8        11        16         9         8        11        35
         9        13        14        12         9        13        14        19
         9        15        17        16         9        15        17        23
        10         8         9        13        10         8         9        15
        10         8         9        32        10         8        11        16
        10         8        11        35        10        12        14        13
        10        12        14        19        10        12        18        20
        10        12        18        22        11         8         9        13
        11         8         9        15        11         8         9        32
        11         8        10        12        11         8        10        33
        11         8        10        34        11        16         1        29
        11        16        17        15        11        16        17        23
        12        10         8        31        12        14        19        21
        12        18        20        21        12        18        20        25
        12        18        22        38        12        18        22        39
        12        18        22        40        13         9         8        31
        13         9        15        17        13        14        12        18
        13        14        19        21        14        12        10        33
        14        12        10        34        14        12        18        20
        14        12        18        22        14        13         9        15
        14        13         9        32        14        19         4        42
        14        19        21        20        14        19        21        24
        15         9         8        31        15        17        23        28
        16         1        29        47        16         1        29        48
        16         1        29        49        16        11         7        36
        16        11         7        37        16        11         8        31
        16        17        23        28        17        15         9        32
        17        16         1        29        17        16        11        35
        17        23        28        44        17        23        28        45
        17        23        28        46        18        12        10        33
        18        12        10        34        18        12        14        19
        18        20        21        19        18        20        21        24
        18        20        25        27        18        20        25        41
        19        21        20        25        19        21        24        26
        20        18        22        38        20        18        22        39
        20        18        22        40        20        21        24        26
        20        25        27        26        20        25        27        43
        21        19         4        42        21        20        18        22
        21        20        25        27        21        20        25        41
        21        24         6        53        21        24        26        27
        21        24        26        30        22        18        20        25
        24        21        20        25        24        26        27        25
        24        26        27        43        24        26        30        50
        24        26        30        51        24        26        30        52
        25        27        26        30        26        24         6        53
        26        27        25        41        27        26        30        50
        27        26        30        51        27        26        30        52
        30        26        27        43        31         8         9        32
        31         8        10        33        31         8        10        34
        31         8        11        35        35        11         7        36
        35        11         7        37        41        25        27        43

         3 !NIMPHI: impropers
        13        14         9         2        15        17         9         3
        23        17        28         5

         0 !NDON: donors


         0 !NACC: acceptors


         0 !NNB

         0         0         0         0         0         0         0         0
         0         0         0         0         0         0         0         0
         0         0         0         0         0         0         0         0
         0         0         0         0         0         0         0         0
         0         0         0         0         0         0         0         0
         0         0         0         0         0         0         0         0
         0         0         0         0         0

         1         0 !NGRP NST2
         0         1         0

         0         0 !NUMLP NUMLPH

         0 !NCRTERM: cross-terms

