* GENERATE LIGAND
*  DATE:     4/11/25      6:55:24      CREATED BY USER: charmm-gui
*
        53  EXT
         1         1  LIG       O1             -4.9614811340        1.4143504461       -0.2806593589  LIG       1               0.0000000000
         2         1  LIG       O2             -0.0477218971       -2.7507210921       -1.1226989777  LIG       1               0.0000000000
         3         1  LIG       O3             -2.1048934568       -2.1087420206        1.1044485826  LIG       1               0.0000000000
         4         1  LIG       O4              2.5059819106       -2.4503497494       -0.5391331801  LIG       1               0.0000000000
         5         1  LIG       O5             -5.7099283136       -0.8008200827        1.5416613580  LIG       1               0.0000000000
         6         1  LIG       O6              5.0693358545       -1.9654176948       -0.0020618314  LIG       1               0.0000000000
         7         1  LIG       N              -3.7165171913        0.1340165757       -2.7830019455  LIG       1               0.0000000000
         8         1  LIG       C1             -1.6563177635        0.3572774342       -1.4705663159  LIG       1               0.0000000000
         9         1  LIG       C2             -1.6460121594       -1.0888887984       -0.9998665434  LIG       1               0.0000000000
        10         1  LIG       C3             -0.8233518981        1.2661055836       -0.5234253856  LIG       1               0.0000000000
        11         1  LIG       C4             -3.0977762375        0.8390808825       -1.6198995141  LIG       1               0.0000000000
        12         1  LIG       C5              0.6004607564        0.7526517572       -0.3390599076  LIG       1               0.0000000000
        13         1  LIG       C6             -0.2370403762       -1.5672032935       -0.8675667513  LIG       1               0.0000000000
        14         1  LIG       C7              0.8807237670       -0.6206384011       -0.5138325270  LIG       1               0.0000000000
        15         1  LIG       C8             -2.4208748275       -1.2583489445        0.2813983436  LIG       1               0.0000000000
        16         1  LIG       C9             -3.9001017024        0.5501079965       -0.3448672251  LIG       1               0.0000000000
        17         1  LIG       C10            -3.6060807749       -0.4213367775        0.5402796692  LIG       1               0.0000000000
        18         1  LIG       C11             1.6268523131        1.6544474201        0.0361857541  LIG       1               0.0000000000
        19         1  LIG       C12             2.2131033261       -1.0756662405       -0.3516900611  LIG       1               0.0000000000
        20         1  LIG       C13             2.9564093875        1.1915667467        0.1838260419  LIG       1               0.0000000000
        21         1  LIG       C14             3.2620980743       -0.1940851112       -0.0039113324  LIG       1               0.0000000000
        22         1  LIG       C15             1.2801343997        3.1245946729        0.2574098236  LIG       1               0.0000000000
        23         1  LIG       C16            -4.5048105458       -0.6219528199        1.6890230414  LIG       1               0.0000000000
        24         1  LIG       C17             4.6135303553       -0.6234644506        0.1672215698  LIG       1               0.0000000000
        25         1  LIG       C18             3.9982697941        2.0811576866        0.5122658039  LIG       1               0.0000000000
        26         1  LIG       C19             5.6188531816        0.2873695248        0.5185151767  LIG       1               0.0000000000
        27         1  LIG       C20             5.3064890401        1.6338866747        0.6883429653  LIG       1               0.0000000000
        28         1  LIG       C21            -3.9093619391       -0.5152607615        3.0514176949  LIG       1               0.0000000000
        29         1  LIG       C22            -4.7372451977        2.5603689865        0.5389889501  LIG       1               0.0000000000
        30         1  LIG       C23             7.0415624395       -0.1711173781        0.7081873285  LIG       1               0.0000000000
        31         1  LIG       H1             -1.1702011577        0.4224057091       -2.4778840192  LIG       1               0.0000000000
        32         1  LIG       H2             -2.1281573612       -1.7379897944       -1.7595900841  LIG       1               0.0000000000
        33         1  LIG       H3             -1.2750253654        1.3409993456        0.4878288445  LIG       1               0.0000000000
        34         1  LIG       H4             -0.8005380609        2.2779684626       -0.9870711129  LIG       1               0.0000000000
        35         1  LIG       H5             -3.0788979087        1.9366512739       -1.8194666376  LIG       1               0.0000000000
        36         1  LIG       H6             -4.7069743343        0.3423611849       -2.8847129707  LIG       1               0.0000000000
        37         1  LIG       H7             -3.2887454514        0.3414592010       -3.6825134915  LIG       1               0.0000000000
        38         1  LIG       H8              0.2399856452        3.2412932860        0.6252033042  LIG       1               0.0000000000
        39         1  LIG       H9              1.4065420611        3.6694964333       -0.7034791156  LIG       1               0.0000000000
        40         1  LIG       H10             1.9262203645        3.5770286022        1.0366012519  LIG       1               0.0000000000
        41         1  LIG       H11             3.8454170161        3.1417812341        0.6417049913  LIG       1               0.0000000000
        42         1  LIG       H12             3.4542881037       -2.5497398402       -0.3625736466  LIG       1               0.0000000000
        43         1  LIG       H13             6.0838636184        2.3353047655        0.9558132207  LIG       1               0.0000000000
        44         1  LIG       H14            -3.2066469022       -1.3541040971        3.2326390416  LIG       1               0.0000000000
        45         1  LIG       H15            -4.7286312615       -0.5508301510        3.7972378100  LIG       1               0.0000000000
        46         1  LIG       H16            -3.3741779945        0.4514745328        3.1466226806  LIG       1               0.0000000000
        47         1  LIG       H17            -3.9748053570        3.2274932254        0.0808372657  LIG       1               0.0000000000
        48         1  LIG       H18            -4.4159097924        2.2778912904        1.5671616682  LIG       1               0.0000000000
        49         1  LIG       H19            -5.6902519089        3.1250799629        0.6266342763  LIG       1               0.0000000000
        50         1  LIG       H20             7.4096494308       -0.6096672906       -0.2446135319  LIG       1               0.0000000000
        51         1  LIG       H21             7.0711131332       -0.9258864380        1.5244106072  LIG       1               0.0000000000
        52         1  LIG       H22             7.6903247389        0.6870469308        0.9855951837  LIG       1               0.0000000000
        53         1  LIG       H23             6.0222820145       -1.9581722504        0.0964699241  LIG       1               0.0000000000
