* GENERATED BY CHARMM-GUI (HTTP://WWW.CHARMM-GUI.ORG)
*
        30  EXT
         1         1  LIG       O1             -5.0510000000        1.3516000000       -0.2289000000  LIG       1               0.0000000000
         2         1  LIG       O2              0.1000000000       -2.7600000000       -0.9778000000  LIG       1               0.0000000000
         3         1  LIG       O3             -2.1020000000       -2.1062000000        1.1143000000  LIG       1               0.0000000000
         4         1  LIG       O4              2.4968000000       -2.3853000000       -0.5197000000  LIG       1               0.0000000000
         5         1  LIG       O5             -5.6822000000       -0.9345000000        1.4757000000  LIG       1               0.0000000000
         6         1  LIG       O6              4.9339000000       -1.9240000000        0.0141000000  LIG       1               0.0000000000
         7         1  LIG       N              -3.6887000000        0.3938000000       -2.8225000000  LIG       1               0.0000000000
         8         1  LIG       C1             -1.6215000000        0.3981000000       -1.4664000000  LIG       1               0.0000000000
         9         1  LIG       C2             -1.5904000000       -1.0580000000       -0.9912000000  LIG       1               0.0000000000
        10         1  LIG       C3             -0.7910000000        1.2867000000       -0.5217000000  LIG       1               0.0000000000
        11         1  LIG       C4             -3.0722000000        0.9127000000       -1.5946000000  LIG       1               0.0000000000
        12         1  LIG       C5              0.6100000000        0.7612000000       -0.3607000000  LIG       1               0.0000000000
        13         1  LIG       C6             -0.1622000000       -1.5653000000       -0.8614000000  LIG       1               0.0000000000
        14         1  LIG       C7              0.9099000000       -0.5956000000       -0.5199000000  LIG       1               0.0000000000
        15         1  LIG       C8             -2.4019000000       -1.2487000000        0.2836000000  LIG       1               0.0000000000
        16         1  LIG       C9             -3.9218000000        0.5640000000       -0.3907000000  LIG       1               0.0000000000
        17         1  LIG       C10            -3.6188000000       -0.4055000000        0.4907000000  LIG       1               0.0000000000
        18         1  LIG       C11             1.6372000000        1.6461000000        0.0002000000  LIG       1               0.0000000000
        19         1  LIG       C12             2.2221000000       -1.0561000000       -0.3489000000  LIG       1               0.0000000000
        20         1  LIG       C13             2.9575000000        1.2005000000        0.1772000000  LIG       1               0.0000000000
        21         1  LIG       C14             3.2542000000       -0.1689000000       -0.0028000000  LIG       1               0.0000000000
        22         1  LIG       C15             1.3073000000        3.0970000000        0.2156000000  LIG       1               0.0000000000
        23         1  LIG       C16            -4.5034000000       -0.6267000000        1.6453000000  LIG       1               0.0000000000
        24         1  LIG       C17             4.5751000000       -0.6137000000        0.1725000000  LIG       1               0.0000000000
        25         1  LIG       C18             3.9887000000        2.0869000000        0.5294000000  LIG       1               0.0000000000
        26         1  LIG       C19             5.5881000000        0.2802000000        0.5205000000  LIG       1               0.0000000000
        27         1  LIG       C20             5.2952000000        1.6286000000        0.6992000000  LIG       1               0.0000000000
        28         1  LIG       C21            -3.9148000000       -0.4725000000        3.0219000000  LIG       1               0.0000000000
        29         1  LIG       C22            -4.7496000000        2.4982000000        0.5380000000  LIG       1               0.0000000000
        30         1  LIG       C23             6.9956000000       -0.1844000000        0.7089000000  LIG       1               0.0000000000
