Title
82242
    1SAPS     N    1   2.241   5.818  11.192 -0.1809  0.3831  0.6541
    1SAPS   HN1    2   2.177   5.862  11.123 -1.1925 -0.1861  1.1957
    1SAPS   HN2    3   2.234   5.875  11.279  2.3209 -1.6719  2.3751
    1SAPS   HN3    4   2.340   5.825  11.160 -0.1201 -1.6177  0.2572
    1SAPS   C12    5   2.206   5.677  11.215 -0.5700  0.2319 -0.2518
    1SAPS  H12A    6   2.235   5.609  11.136 -1.6243 -2.1522  1.2622
    1SAPS   C13    7   2.255   5.637  11.355 -0.0869 -0.4397  0.0849
    1SAPS  O13A    8   2.324   5.717  11.431  0.0524 -0.2561 -0.3594
    1SAPS  O13B    9   2.243   5.519  11.392 -0.1364  0.1670  0.7322
    1SAPS   C11   10   2.054   5.664  11.209  0.4362  0.3482 -0.3740
    1SAPS  H11A   11   2.001   5.708  11.296  0.5509  0.1869 -0.2221
    1SAPS  H11B   12   2.030   5.556  11.219  2.3642 -0.1823 -1.1983
    1SAPS     P   13   2.007   5.647  10.943  0.2992 -0.1336 -0.1844
    1SAPS   O13   14   2.141   5.594  10.921  0.0843  0.2035 -0.1914
    1SAPS   O14   15   1.898   5.549  10.935 -0.0235 -0.3171 -1.1910
    1SAPS   O12   16   2.003   5.724  11.086  0.4080 -0.3731 -0.5395
    1SAPS   O11   17   1.974   5.764  10.842  0.1646  0.4882 -0.2050
    1SAPS    C1   18   1.845   5.815  10.816  0.2170 -0.8976  0.0562
    1SAPS    HA   19   1.762   5.767  10.873 -0.6329  0.4909  0.0283
    1SAPS    HB   20   1.842   5.922  10.845  1.2267 -1.8023  4.0891
    1SAPS    C2   21   1.802   5.804  10.667  0.3167 -0.3210 -0.8383
    1SAPS    HS   22   1.841   5.713  10.616 -0.4063 -0.7413 -0.6569
    1SAPS   O21   23   1.832   5.926  10.595  0.2545  0.4257  0.6061
    1SAPS   C21   24   1.893   5.904  10.474 -0.9810  0.3179 -0.0473
    1SAPS   O22   25   1.917   5.795  10.423 -0.1253 -0.1600  0.2182
    1SAPS   C22   26   1.925   6.039  10.410  0.1411 -0.0596  0.1998
    1SAPS   H2R   27   1.854   6.113  10.453  0.4906 -0.6004  1.7785
    1SAPS   H2S   28   2.029   6.070  10.432  0.0258  0.9521 -0.6071
    1SAPS    C3   29   1.644   5.774  10.666 -0.0276  0.0349 -0.2597
    1SAPS    HX   30   1.602   5.853  10.732  0.4205  0.5143 -0.5316
    1SAPS    HY   31   1.615   5.678  10.712 -2.7588  0.5477 -0.7567
    1SAPS   O31   32   1.599   5.788  10.532  0.6682 -0.4722 -0.6546
    1SAPS   C31   33   1.573   5.682  10.464  0.1084 -0.1160 -0.4080
    1SAPS   O32   34   1.608   5.565  10.491  0.4963 -0.1732  0.2165
    1SAPS   C32   35   1.501   5.727  10.336  0.0989  0.8212 -0.5252
    1SAPS   H2X   36   1.587   5.755  10.271  1.1922  2.2726  1.4348
    1SAPS   H2Y   37   1.439   5.815  10.364  0.7269  0.6255  1.6410
    1SAPS   C23   38   1.895   6.034  10.253  0.2152  0.0182  0.4664
    1SAPS   H3R   39   1.870   5.933  10.215 -1.1436  0.2229  0.7607
    1SAPS   H3S   40   1.983   6.079  10.201 -0.6934  0.2776 -0.9051
    1SAPS   C24   41   1.799   6.146  10.195 -0.0773  0.6213 -0.8331
    1SAPS   H4R   42   1.790   6.167  10.087 -2.6649  1.8585 -0.4530
    1SAPS   H4S   43   1.831   6.245  10.234 -2.4453  0.7277  1.0836
    1SAPS   C25   44   1.656   6.132  10.244  0.3582  0.0574  0.8770
    1SAPS   H5R   45   1.618   6.187  10.332 -1.1683 -2.1048  1.6553
    1SAPS   C26   46   1.571   6.057  10.175  0.5810 -0.0014 -0.1366
    1SAPS   H6R   47   1.465   6.059  10.207  0.2869 -0.2419 -1.0754
    1SAPS   C27   48   1.603   5.971  10.055  0.1829  0.0444  0.6286
    1SAPS   H7R   49   1.517   5.903  10.038 -0.8561  1.7595 -1.5371
    1SAPS   H7S   50   1.688   5.900  10.064 -1.8238 -2.6539 -0.3483
    1SAPS   C28   51   1.617   6.051   9.924 -0.0806 -0.1289  0.0004
    1SAPS   H8R   52   1.680   6.140   9.914 -0.0995 -0.2028 -0.8558
    1SAPS   C29   53   1.555   6.014   9.807  0.3981 -0.0823  0.7344
    1SAPS   H9R   54   1.577   6.066   9.712  1.0735 -1.9745 -0.1864
    1SAPS  C210   55   1.464   5.894   9.783 -0.4143 -0.0651 -0.1551
    1SAPS  H10R   56   1.491   5.806   9.844 -1.5084 -0.6885 -0.5388
    1SAPS  H10S   57   1.488   5.860   9.680 -1.8183  0.0732 -0.5511
    1SAPS  C211   58   1.320   5.934   9.791 -0.3930 -0.3443 -0.3620
    1SAPS  H11R   59   1.280   5.943   9.893  0.2336  0.1431 -0.1535
    1SAPS  C212   60   1.243   5.968   9.684 -0.0072  0.7943 -0.3607
    1SAPS  H12R   61   1.135   5.983   9.700 -0.7402 -2.5619 -1.3640
    1SAPS  C213   62   1.298   5.971   9.545 -0.1184 -0.3648 -0.0149
    1SAPS  H13R   63   1.383   6.042   9.556 -1.9007  1.7252  1.4130
    1SAPS  H13S   64   1.220   6.030   9.491 -0.7197  0.7743  1.9746
    1SAPS  C214   65   1.323   5.837   9.480  0.7634 -0.5282 -0.1483
    1SAPS  H14R   66   1.425   5.795   9.484  0.6907 -0.7396 -0.5081
    1SAPS  C215   67   1.240   5.771   9.402  0.2498 -0.7980  0.0923
    1SAPS  H15R   68   1.277   5.676   9.362  0.4543  0.2262 -2.3527
    1SAPS  C216   69   1.101   5.808   9.359 -0.1831 -0.2832  0.3177
    1SAPS  H16R   70   1.068   5.901   9.410 -0.0023  2.4734 -4.0929
    1SAPS  H16S   71   1.024   5.729   9.374  0.0631 -1.0927 -2.2960
    1SAPS  C217   72   1.100   5.852   9.211  0.3105 -1.2814 -0.2547
    1SAPS  H17R   73   1.180   5.925   9.188 -1.3912 -0.0300 -2.6329
    1SAPS  H17S   74   1.004   5.906   9.198 -0.5433 -2.0376  2.3495
    1SAPS  C218   75   1.116   5.732   9.118  0.2590 -0.7021 -0.0671
    1SAPS  H18R   76   1.054   5.648   9.157  0.9467 -0.1044  2.4749
    1SAPS  H18S   77   1.222   5.699   9.111  1.2062  2.3543 -2.2226
    1SAPS  C219   78   1.073   5.773   8.976  0.9615  0.2558 -0.5505
    1SAPS  H19R   79   1.083   5.692   8.901 -2.6494 -0.0321 -0.9005
    1SAPS  H19S   80   1.146   5.846   8.936  0.8727 -0.9565 -3.1418
    1SAPS  C220   81   0.937   5.844   8.958 -0.6736 -0.1533  0.5724
    1SAPS  H20R   82   0.938   5.942   9.011  3.8305 -0.3355  1.2647
    1SAPS  H20S   83   0.857   5.786   9.009 -0.4468 -0.4448  0.5969
    1SAPS  H20T   84   0.918   5.867   8.851 -0.2725 -1.2286  0.2602
    1SAPS   C33   85   1.409   5.624  10.280  0.2304 -0.0831 -0.5428
    1SAPS   H3X   86   1.325   5.614  10.351  0.7665  0.7452  0.2329
    1SAPS   H3Y   87   1.470   5.531  10.277  0.9548  0.3755 -0.5459
    1SAPS   C34   88   1.348   5.663  10.146 -0.2026 -0.4128  0.0157
    1SAPS   H4X   89   1.416   5.626  10.067  1.3716  2.0113  0.1224
    1SAPS   H4Y   90   1.337   5.774  10.144 -0.4264 -0.4400 -1.5889
    1SAPS   C35   91   1.207   5.612  10.111 -0.3315 -0.3701  0.0878
    1SAPS   H5X   92   1.129   5.636  10.187  0.5411  0.8915  0.6269
    1SAPS   H5Y   93   1.215   5.501  10.109  2.7574 -0.2249 -0.5313
    1SAPS   C36   94   1.177   5.666   9.971  0.2517  0.1824  0.6437
    1SAPS   H6X   95   1.266   5.630   9.915 -0.3796  0.1213 -0.3431
    1SAPS   H6Y   96   1.166   5.776   9.981  0.7299  0.4559 -1.3359
    1SAPS   C37   97   1.044   5.602   9.924  0.3228  0.6145  0.0172
    1SAPS   H7X   98   0.964   5.654   9.979 -1.1383 -2.7101  1.3213
    1SAPS   H7Y   99   1.043   5.497   9.961 -0.0937  0.9360  0.9490
    1SAPS   C38  100   1.029   5.593   9.773 -0.2154 -0.6925 -0.3516
    1SAPS   H8X  101   1.118   5.549   9.723  0.6666  0.2008  0.3916
    1SAPS   H8Y  102   1.004   5.696   9.738  0.9789  0.3966  1.7689
    1SAPS   C39  103   0.920   5.489   9.737 -0.0656  0.3655  0.2181
    1SAPS   H9X  104   0.826   5.537   9.771 -0.5843 -0.6217  0.1971
    1SAPS   H9Y  105   0.944   5.405   9.806  0.2396  1.0739  1.0007
    1SAPS  C310  106   0.912   5.463   9.589  0.0186  0.2212 -0.1813
    1SAPS  H10X  107   0.866   5.552   9.542 -0.9977 -0.8238 -1.2336
    1SAPS  H10Y  108   0.844   5.375   9.593 -1.8004  1.6201  1.6027
    1SAPS  C311  109   1.044   5.439   9.509 -0.5138 -0.5988 -0.1028
    1SAPS  H11X  110   1.092   5.349   9.552 -0.1859 -0.3929 -0.0286
    1SAPS  H11Y  111   1.104   5.533   9.510 -0.3186 -0.7217  1.2771
    1SAPS  C312  112   1.012   5.416   9.363 -0.3495 -0.1754 -0.5303
    1SAPS  H12X  113   0.948   5.494   9.317 -1.6869 -1.6696 -1.3377
    1SAPS  H12Y  114   0.947   5.326   9.370  1.2809 -1.2640  2.0160
    1SAPS  C313  115   1.131   5.387   9.279 -0.3617 -1.3600  0.5084
    1SAPS  H13X  116   1.194   5.304   9.320  1.1141 -1.0225 -0.9719
    1SAPS  H13Y  117   1.201   5.473   9.275  0.7221 -2.2552 -0.9397
    1SAPS  C314  118   1.105   5.359   9.125 -0.5298 -0.1038 -0.7385
    1SAPS  H14X  119   1.043   5.447   9.099 -1.3365 -0.5371 -0.3100
    1SAPS  H14Y  120   1.041   5.269   9.120  1.8775 -1.9745  0.1216
    1SAPS  C315  121   1.231   5.351   9.036 -0.1294  0.2157 -0.5691
    1SAPS  H15X  122   1.311   5.285   9.077  0.2771  0.6427 -0.6704
    1SAPS  H15Y  123   1.267   5.456   9.039 -0.3335  0.2894  2.2710
    1SAPS  C316  124   1.203   5.303   8.890 -0.0077  0.7343 -0.8430
    1SAPS  H16X  125   1.134   5.369   8.833 -2.8715 -0.4796  0.9785
    1SAPS  H16Y  126   1.156   5.202   8.886  4.5921 -1.6633 -0.7769
    1SAPS  C317  127   1.332   5.297   8.805 -0.4690  0.0886  0.3502
    1SAPS  H17X  128   1.398   5.216   8.842  0.3067  0.6008  0.1188
    1SAPS  H17Y  129   1.389   5.391   8.825  0.7626 -0.3880 -0.7538
    1SAPS  C318  130   1.317   5.284   8.653 -0.1964 -0.2447 -0.5050
    1SAPS  H18X  131   1.284   5.182   8.624  2.7618 -1.7167  0.8886
    1SAPS  H18Y  132   1.412   5.296   8.598  0.0807  1.3134  0.2501
    1SAPS  H18Z  133   1.249   5.368   8.628  0.0543  0.0487 -0.2106
    2SAPS     N  134   0.550   6.020  10.894 -0.0896 -0.2078 -0.7051
    2SAPS   HN1  135   0.573   6.102  10.954  2.2800 -0.7240 -0.8093
    2SAPS   HN2  136   0.631   5.955  10.887 -0.9077 -1.4053  0.4695
    2SAPS   HN3  137   0.511   6.048  10.802  1.5246 -2.0322 -2.0130
    2SAPS   C12  138   0.444   5.939  10.974 -0.2953  0.5247 -0.7861
    2SAPS  H12A  139   0.434   5.848  10.917 -1.3727  1.1015 -1.5542
    2SAPS   C13  140   0.480   5.894  11.124  0.1680 -0.4739  0.4392
    2SAPS  O13A  141   0.599   5.924  11.168  0.1759  0.4161 -0.3829
    2SAPS  O13B  142   0.388   5.844  11.195  0.3062 -0.4808 -0.1555
    2SAPS   C11  143   0.303   6.016  10.990 -0.2962  0.9143  0.8681
    2SAPS  H11A  144   0.313   6.102  11.061  0.6676  1.6018 -0.0636
    2SAPS  H11B  145   0.233   5.939  11.026 -0.9244  0.7268 -0.6779
    2SAPS     P  146   0.130   6.016  10.792  0.2990 -0.0774  0.2261
    2SAPS   O13  147   0.134   5.869  10.790  0.0353 -0.4789  0.1996
    2SAPS   O14  148   0.016   6.076  10.869  0.6827  0.0013  0.2115
    2SAPS   O12  149   0.263   6.068  10.860 -0.6258  0.1394  0.0410
    2SAPS   O11  150   0.134   6.077  10.642 -0.0627  0.1417 -0.0503
    2SAPS    C1  151   0.114   6.215  10.611  0.0713 -0.4892  0.0180
    2SAPS    HA  152   0.113   6.280  10.702  1.1969  0.4230 -0.5936
    2SAPS    HB  153   0.200   6.247  10.548  0.2667  0.1187  0.5760
    2SAPS    C2  154  -0.025   6.254  10.534 -0.1223  0.5462 -0.2583
    2SAPS    HS  155  -0.109   6.246  10.606  0.6814  0.2317  0.6776
    2SAPS   O21  156  -0.022   6.160  10.420  0.3147 -0.5465  0.0700
    2SAPS   C21  157  -0.148   6.120  10.377 -1.3760  0.0387  0.2209
    2SAPS   O22  158  -0.249   6.159  10.439 -0.0209  0.6015  0.3695
    2SAPS   C22  159  -0.137   6.042  10.246  0.0990 -0.5859 -0.2525
    2SAPS   H2R  160  -0.117   6.120  10.171  0.9645  1.8424  2.3383
    2SAPS   H2S  161  -0.049   5.977  10.268  0.5395  0.5471  1.5783
    2SAPS    C3  162  -0.030   6.402  10.483  0.3204  0.1048 -0.4475
    2SAPS    HX  163   0.045   6.424  10.404  3.5631 -2.2202  1.7072
    2SAPS    HY  164  -0.003   6.465  10.570  1.4094  0.7689 -1.2400
    2SAPS   O31  165  -0.167   6.436  10.457  0.6927 -0.2563  0.1546
    2SAPS   C31  166  -0.192   6.433  10.331 -0.8768  0.8930  0.1165
    2SAPS   O32  167  -0.111   6.391  10.244 -0.0306  0.1498  0.6304
    2SAPS   C32  168  -0.331   6.470  10.299  0.1027 -1.0535  0.5734
    2SAPS   H2X  169  -0.332   6.581  10.308 -0.5808 -0.7462 -2.3773
    2SAPS   H2Y  170  -0.414   6.429  10.359 -1.8973  1.0602 -0.5969
    2SAPS   C23  171  -0.264   5.962  10.224  0.3060  0.3097 -0.3689
    2SAPS   H3R  172  -0.351   6.027  10.204 -1.2802 -1.5991  0.0869
    2SAPS   H3S  173  -0.292   5.890  10.303 -0.0573  1.1121  0.2377
    2SAPS   C24  174  -0.251   5.877  10.095  0.0137  0.0948  0.3576
    2SAPS   H4R  175  -0.322   5.791  10.090  1.2005 -1.0598  2.2848
    2SAPS   H4S  176  -0.155   5.823  10.108  1.0896  2.0890  1.1792
    2SAPS   C25  177  -0.258   5.958   9.978  0.1295  0.1003  0.0445
    2SAPS   H5R  178  -0.217   6.060   9.987  0.0515  0.2090 -0.8036
    2SAPS   C26  179  -0.311   5.934   9.859 -0.4022  0.0914  0.5720
    2SAPS   H6R  180  -0.309   6.012   9.782 -1.2068  0.2488  0.7006
    2SAPS   C27  181  -0.374   5.804   9.821  0.3302 -0.0474  0.9280
    2SAPS   H7R  182  -0.362   5.732   9.904  0.1872 -0.2458  0.7792
    2SAPS   H7S  183  -0.318   5.765   9.733 -0.5565 -0.8406  0.6968
    2SAPS   C28  184  -0.520   5.818   9.779 -0.1449  0.8698  0.1271
    2SAPS   H8R  185  -0.601   5.802   9.852 -1.0119  1.4353 -0.7040
    2SAPS   C29  186  -0.563   5.860   9.662 -1.2072 -0.7369 -0.1467
    2SAPS   H9R  187  -0.671   5.863   9.643 -1.3310  0.9645  0.6361
    2SAPS  C210  188  -0.473   5.901   9.548 -0.4407  0.1401 -0.4258
    2SAPS  H10R  189  -0.470   5.811   9.483 -1.2248  0.2568 -0.6337
    2SAPS  H10S  190  -0.372   5.913   9.592 -0.2183  4.2349 -1.6934
    2SAPS  C211  191  -0.504   6.030   9.485 -0.6654 -0.1268  0.4413
    2SAPS  H11R  192  -0.461   6.120   9.531  1.1727  0.2416 -1.8395
    2SAPS  C212  193  -0.548   6.034   9.362 -0.5635  0.2508  0.0247
    2SAPS  H12R  194  -0.574   6.131   9.318 -2.4293 -0.2427 -0.0330
    2SAPS  C213  195  -0.576   5.915   9.274 -0.4221 -0.5363 -0.2270
    2SAPS  H13R  196  -0.583   5.819   9.330  2.0844 -0.6843 -0.0190
    2SAPS  H13S  197  -0.486   5.905   9.209 -0.7430 -1.8598 -0.4983
    2SAPS  C214  198  -0.703   5.932   9.186  0.4662 -0.1607 -0.9040
    2SAPS  H14R  199  -0.781   5.855   9.195 -1.3678  1.0901 -4.4457
    2SAPS  C215  200  -0.725   6.013   9.081  0.4797  0.4657  0.5464
    2SAPS  H15R  201  -0.823   6.010   9.031  1.2512 -2.8485 -0.9921
    2SAPS  C216  202  -0.621   6.106   9.021  0.1312 -1.1280 -0.1452
    2SAPS  H16R  203  -0.519   6.064   9.035  0.5328  0.0393  0.5671
    2SAPS  H16S  204  -0.639   6.204   9.070 -0.9160 -1.6566  0.5852
    2SAPS  C217  205  -0.638   6.132   8.866  0.4553 -0.3627  0.3403
    2SAPS  H17R  206  -0.742   6.160   8.839  0.3784 -1.2384 -0.2900
    2SAPS  H17S  207  -0.604   6.041   8.812  1.3233 -0.4732  1.0410
    2SAPS  C218  208  -0.536   6.245   8.816  0.1705  0.2367  0.1542
    2SAPS  H18R  209  -0.533   6.242   8.705  0.5584  0.0257  0.1685
    2SAPS  H18S  210  -0.429   6.219   8.834 -0.3617 -0.3759  2.7719
    2SAPS  C219  211  -0.563   6.383   8.870  0.0025 -0.4805 -0.8570
    2SAPS  H19R  212  -0.568   6.382   8.981  0.2151 -0.0738 -0.8384
    2SAPS  H19S  213  -0.662   6.417   8.833 -0.2056 -1.1247 -0.8900
    2SAPS  C220  214  -0.451   6.484   8.829 -1.1754  0.2576 -0.3094
    2SAPS  H20R  215  -0.458   6.569   8.900  2.1604  0.8268 -0.5121
    2SAPS  H20S  216  -0.459   6.510   8.721 -0.9660  1.5430 -0.0390
    2SAPS  H20T  217  -0.357   6.429   8.850 -2.6016 -2.6519 -0.9969
    2SAPS   C33  218  -0.378   6.446  10.147 -0.3452  0.5066 -0.3271
    2SAPS   H3X  219  -0.309   6.477  10.066  2.2744  1.9512  2.2684
    2SAPS   H3Y  220  -0.473   6.503  10.133  0.3150  1.8330  0.4262
    2SAPS   C34  221  -0.399   6.295  10.113  0.1187  0.2780 -0.9329
    2SAPS   H4X  222  -0.431   6.248  10.208 -1.6647 -1.0400 -2.1248
    2SAPS   H4Y  223  -0.303   6.250  10.079  0.0503  0.3284 -1.1963
    2SAPS   C35  224  -0.503   6.269  10.005  0.3433  0.1229 -0.1673
    2SAPS   H5X  225  -0.604   6.290  10.046  1.6662  0.4802  3.2556
    2SAPS   H5Y  226  -0.506   6.160   9.983  0.8959  0.1054 -0.1748
    2SAPS   C36  227  -0.477   6.348   9.876 -0.0035  0.5373 -0.2764
    2SAPS   H6X  228  -0.367   6.356   9.861 -0.1833  1.6420 -1.1865
    2SAPS   H6Y  229  -0.497   6.457   9.891  1.7044  1.1626 -2.0020
    2SAPS   C37  230  -0.546   6.299   9.750  0.3652  0.4813 -0.2349
    2SAPS   H7X  231  -0.557   6.189   9.743 -0.1473  0.6078 -1.9204
    2SAPS   H7Y  232  -0.483   6.330   9.664  0.0101  0.8352 -0.3705
    2SAPS   C38  233  -0.696   6.344   9.739  0.2405  0.0995 -0.1468
    2SAPS   H8X  234  -0.706   6.455   9.742 -3.2276 -0.1146  0.3999
    2SAPS   H8Y  235  -0.740   6.301   9.832  1.1944  1.2496  0.8716
    2SAPS   C39  236  -0.763   6.299   9.607 -0.1569  0.2539 -0.1632
    2SAPS   H9X  237  -0.743   6.191   9.590 -1.7114 -0.3997  1.6966
    2SAPS   H9Y  238  -0.720   6.359   9.525 -0.3266 -0.9858 -1.1869
    2SAPS  C310  239  -0.914   6.337   9.596 -0.1620  0.4268 -0.3523
    2SAPS  H10X  240  -0.918   6.448   9.595 -0.5134  0.5316  3.0766
    2SAPS  H10Y  241  -0.970   6.305   9.687 -0.4130 -1.6175 -1.1670
    2SAPS  C311  242  -0.980   6.276   9.471  0.7285 -0.1810  0.1134
    2SAPS  H11X  243  -1.083   6.320   9.473  1.4037  1.5194 -0.6673
    2SAPS  H11Y  244  -0.996   6.168   9.489  1.3925 -0.0012  1.9903
    2SAPS  C312  245  -0.924   6.313   9.330 -0.2334 -0.3011  0.1671
    2SAPS  H12X  246  -0.822   6.279   9.302  1.0538  1.7020  2.1104
    2SAPS  H12Y  247  -0.918   6.423   9.318 -2.6418 -0.1128  0.3089
    2SAPS  C313  248  -1.023   6.265   9.224 -0.8602  0.6642 -0.3802
    2SAPS  H13X  249  -1.125   6.305   9.243 -1.3983 -0.2298 -1.3033
    2SAPS  H13Y  250  -1.034   6.154   9.215 -0.6281  0.5773  0.2961
    2SAPS  C314  251  -0.966   6.314   9.088  0.2589 -0.4820 -0.8105
    2SAPS  H14X  252  -0.860   6.291   9.064  0.6341 -0.5030  0.7697
    2SAPS  H14Y  253  -0.985   6.423   9.075 -0.7637 -0.7815 -2.0457
    2SAPS  C315  254  -1.043   6.250   8.965  0.6121 -0.5381  0.8762
    2SAPS  H15X  255  -1.151   6.271   8.979 -0.0877 -4.4185  2.5752
    2SAPS  H15Y  256  -1.041   6.140   8.981  1.7499 -1.0369 -2.0355
    2SAPS  C316  257  -0.994   6.312   8.838  0.3373  0.1591 -0.0577
    2SAPS  H16X  258  -0.884   6.300   8.838  0.2424 -1.9042  3.3016
    2SAPS  H16Y  259  -1.025   6.418   8.844  0.5504  0.2514 -0.5139
    2SAPS  C317  260  -1.067   6.249   8.721  0.4054 -0.8820  0.0104
    2SAPS  H17X  261  -1.173   6.238   8.751  0.1024  0.2807 -0.5896
    2SAPS  H17Y  262  -1.020   6.150   8.701  1.0682 -1.1100  2.3790
    2SAPS  C318  263  -1.057   6.337   8.589  0.0614 -0.1665  0.4922
    2SAPS  H18X  264  -0.952   6.368   8.568 -0.1335  0.2132  0.0619
    2SAPS  H18Y  265  -1.114   6.431   8.599  0.2004  0.0006 -0.2124
    2SAPS  H18Z  266  -1.103   6.301   8.494  1.2670 -3.9050  1.1443
    3SAPS     N  267   0.150   2.266  10.839  0.6178 -0.5532 -0.5017
    3SAPS   HN1  268   0.235   2.300  10.788 -0.0741  3.7369  0.7779
    3SAPS   HN2  269   0.082   2.228  10.770  0.9958 -1.3641 -0.4333
    3SAPS   HN3  270   0.108   2.350  10.884 -1.7452 -1.8768 -0.1098
    3SAPS   C12  271   0.172   2.156  10.932 -0.4962  0.2410 -0.0176
    3SAPS  H12A  272   0.204   2.066  10.880 -1.2885 -0.0776  0.0254
    3SAPS   C13  273   0.268   2.174  11.048 -0.4203 -0.0268  0.4069
    3SAPS  O13A  274   0.322   2.291  11.063  0.0325 -0.2042  0.2729
    3SAPS  O13B  275   0.291   2.076  11.124  0.3902  0.4289  0.4729
    3SAPS   C11  276   0.036   2.122  10.995 -0.1843  0.2101  0.0218
    3SAPS  H11A  277   0.002   2.212  11.050 -0.2090  0.3036 -0.1441
    3SAPS  H11B  278   0.049   2.043  11.073  0.8826 -0.3513 -0.6998
    3SAPS     P  279  -0.092   1.922  10.864 -0.0738 -0.0414  0.0004
    3SAPS   O13  280  -0.151   1.865  10.989 -0.3113 -0.2883  0.1692
    3SAPS   O14  281  -0.155   1.907  10.731 -0.0147  0.4944 -0.2440
    3SAPS   O12  282  -0.057   2.075  10.892 -0.0337 -0.7951  0.6748
    3SAPS   O11  283   0.058   1.866  10.853 -0.5397 -0.1587 -0.7074
    3SAPS    C1  284   0.106   1.755  10.785 -0.0753 -0.5874 -0.6151
    3SAPS    HA  285   0.180   1.697  10.844  1.1371 -0.9017 -2.3910
    3SAPS    HB  286   0.022   1.688  10.756 -0.5412  0.3294 -1.4292
    3SAPS    C2  287   0.180   1.792  10.655 -0.1009 -0.0149 -0.0140
    3SAPS    HS  288   0.226   1.697  10.622 -1.5479 -0.0905 -1.9895
    3SAPS   O21  289   0.277   1.894  10.674 -0.2319  0.3010 -0.5404
    3SAPS   C21  290   0.389   1.897  10.601 -0.1424  0.1303  0.3402
    3SAPS   O22  291   0.429   1.807  10.526  0.3202 -0.0594  0.8661
    3SAPS   C22  292   0.452   2.038  10.630 -0.6785  0.1127 -0.1384
    3SAPS   H2R  293   0.384   2.124  10.614 -0.7274  0.1793  0.3880
    3SAPS   H2S  294   0.477   2.041  10.738  0.2977  1.6780 -0.3723
    3SAPS    C3  295   0.085   1.841  10.541  0.0759 -0.0853  0.5527
    3SAPS    HX  296   0.035   1.939  10.560  0.3538 -0.3265  2.7828
    3SAPS    HY  297   0.003   1.766  10.538 -0.2996  0.3538 -0.8512
    3SAPS   O31  298   0.146   1.843  10.407 -0.2548 -0.3219 -1.0047
    3SAPS   C31  299   0.154   1.714  10.357 -0.0891 -0.6221 -0.1180
    3SAPS   O32  300   0.106   1.616  10.409  0.7193 -0.1432  0.0192
    3SAPS   C32  301   0.226   1.727  10.220  0.2668 -0.5398 -0.5110
    3SAPS   H2X  302   0.332   1.742  10.248 -0.3234  1.0451  1.0535
    3SAPS   H2Y  303   0.183   1.819  10.173  0.3003  0.3747  1.1769
    3SAPS   C23  304   0.584   2.060  10.567  0.8692  0.2821  0.1935
    3SAPS   H3R  305   0.648   1.973  10.591  2.1768  0.3595 -2.6278
    3SAPS   H3S  306   0.623   2.153  10.614  1.3600  0.7268 -1.0473
    3SAPS   C24  307   0.570   2.090  10.415 -0.4846 -0.8431  0.6898
    3SAPS   H4R  308   0.552   1.988  10.374  1.6664 -1.0907  0.2468
    3SAPS   H4S  309   0.664   2.112  10.362 -2.3850  1.7965 -1.8821
    3SAPS   C25  310   0.471   2.196  10.380  0.4214  0.6643 -0.6646
    3SAPS   H5R  311   0.460   2.268  10.462 -0.5032 -1.2003  0.9281
    3SAPS   C26  312   0.393   2.196  10.271  0.1145  0.4306 -0.1423
    3SAPS   H6R  313   0.314   2.271  10.258 -0.7548 -0.5591 -0.8360
    3SAPS   C27  314   0.400   2.089  10.161  0.3399  0.4829  0.3129
    3SAPS   H7R  315   0.395   1.986  10.201  0.3243 -0.1674 -1.2929
    3SAPS   H7S  316   0.500   2.087  10.112  1.0625 -1.5153  1.7616
    3SAPS   C28  317   0.281   2.093  10.061  0.1465  0.1175 -0.0993
    3SAPS   H8R  318   0.188   2.105  10.119  0.3982  0.5458  0.2126
    3SAPS   C29  319   0.282   2.073   9.927 -0.0113  0.0705  0.2921
    3SAPS   H9R  320   0.197   2.090   9.859  1.6210  1.1688 -1.5757
    3SAPS  C210  321   0.406   2.033   9.852  0.1521 -0.2903 -0.0510
    3SAPS  H10R  322   0.454   1.956   9.916 -2.0887 -1.1345  0.6997
    3SAPS  H10S  323   0.487   2.107   9.833  2.1332 -1.9664  1.3442
    3SAPS  C211  324   0.385   1.966   9.723  0.2300 -0.0928  0.0958
    3SAPS  H11R  325   0.392   1.857   9.737 -0.2753 -0.0404  0.8204
    3SAPS  C212  326   0.347   2.017   9.603  0.5079 -0.9391 -0.2473
    3SAPS  H12R  327   0.338   1.945   9.520  3.4847 -1.2741 -0.3955
    3SAPS  C213  328   0.311   2.164   9.577  0.0755 -0.4796  0.2765
    3SAPS  H13R  329   0.381   2.211   9.504 -0.1133 -1.0637 -0.2950
    3SAPS  H13S  330   0.322   2.218   9.673 -0.8932 -1.9153  1.2380
    3SAPS  C214  331   0.170   2.188   9.517  0.3197 -0.0906 -0.0672
    3SAPS  H14R  332   0.135   2.109   9.449 -0.2251 -0.4340  0.6126
    3SAPS  C215  333   0.084   2.285   9.562 -0.0805  0.1205 -0.5008
    3SAPS  H15R  334   0.003   2.296   9.489  0.3887 -1.4897 -1.3197
    3SAPS  C216  335   0.114   2.397   9.664 -0.4736  0.1986  0.1372
    3SAPS  H16R  336   0.099   2.495   9.613  0.8935 -0.4403 -1.6187
    3SAPS  H16S  337   0.219   2.403   9.699 -1.0243  4.4343  1.5757
    3SAPS  C217  338   0.021   2.383   9.781 -0.5559 -0.1821  0.1462
    3SAPS  H17R  339   0.015   2.280   9.821 -2.9267 -0.7720 -1.5021
    3SAPS  H17S  340  -0.085   2.404   9.754 -1.1015 -3.9119 -1.0975
    3SAPS  C218  341   0.053   2.467   9.909 -0.0119 -0.0528 -0.1954
    3SAPS  H18R  342   0.077   2.567   9.868 -0.1712  0.0788  0.0309
    3SAPS  H18S  343   0.151   2.431   9.947 -0.1691  1.0392  1.3385
    3SAPS  C219  344  -0.049   2.455  10.020 -0.0096  0.2550 -0.1699
    3SAPS  H19R  345  -0.094   2.354  10.020  0.1454  0.1736 -1.3131
    3SAPS  H19S  346  -0.132   2.525   9.997 -0.6807 -0.8635 -1.2755
    3SAPS  C220  347   0.006   2.477  10.168 -0.1315  0.5945  1.4637
    3SAPS  H20R  348  -0.056   2.468  10.260 -0.2648 -1.5863  1.1997
    3SAPS  H20S  349   0.038   2.584  10.167  1.5189  0.1668 -1.1526
    3SAPS  H20T  350   0.102   2.422  10.166 -0.3993  0.0893  2.0471
    3SAPS   C33  351   0.218   1.593  10.140  0.2954  0.2790  0.7059
    3SAPS   H3X  352   0.113   1.562  10.120  0.7029 -4.0541  3.9405
    3SAPS   H3Y  353   0.248   1.509  10.205 -1.2870 -0.0116  1.1111
    3SAPS   C34  354   0.316   1.593  10.019 -0.6722  0.4507 -0.6332
    3SAPS   H4X  355   0.419   1.589  10.061 -0.2832 -0.0524 -1.6192
    3SAPS   H4Y  356   0.298   1.679   9.951  0.1745 -0.2541 -1.7879
    3SAPS   C35  357   0.296   1.469   9.935  0.2662 -0.4671  0.2974
    3SAPS   H5X  358   0.188   1.454   9.913 -0.1526  0.4063  1.6685
    3SAPS   H5Y  359   0.329   1.372   9.978  0.3263  0.3192  2.0793
    3SAPS   C36  360   0.369   1.477   9.799  0.4258  0.4472 -0.0141
    3SAPS   H6X  361   0.479   1.462   9.810  0.2391 -0.9580  0.0639
    3SAPS   H6Y  362   0.347   1.569   9.741  1.7744  1.3808  0.8858
    3SAPS   C37  363   0.335   1.361   9.708 -0.5574 -0.5402  0.3681
    3SAPS   H7X  364   0.225   1.346   9.716 -0.6076  0.4603  2.0341
    3SAPS   H7Y  365   0.386   1.269   9.744  0.5510 -0.1093 -0.0551
    3SAPS   C38  366   0.382   1.378   9.564  0.1182  0.1939 -0.1466
    3SAPS   H8X  367   0.492   1.388   9.550  0.1866 -2.1183 -1.9663
    3SAPS   H8Y  368   0.337   1.469   9.519  0.2780 -0.4503 -1.6651
    3SAPS   C39  369   0.354   1.247   9.479  0.5918  0.3610 -0.1576
    3SAPS   H9X  370   0.244   1.229   9.481  1.1408 -4.1044  1.1864
    3SAPS   H9Y  371   0.387   1.151   9.525 -0.2255 -0.2964 -0.9003
    3SAPS  C310  372   0.389   1.261   9.337  0.3941  0.3810  1.7186
    3SAPS  H10X  373   0.499   1.251   9.338  0.3823 -0.2407  0.0344
    3SAPS  H10Y  374   0.369   1.361   9.293  2.3525 -0.1328 -0.5481
    3SAPS  C311  375   0.318   1.172   9.237  0.0378 -0.0499 -0.5377
    3SAPS  H11X  376   0.207   1.170   9.242 -0.0747 -3.6098 -1.6751
    3SAPS  H11Y  377   0.337   1.064   9.256  1.1364 -0.0982 -1.7996
    3SAPS  C312  378   0.362   1.197   9.087 -0.1234 -0.9961  0.5346
    3SAPS  H12X  379   0.322   1.296   9.057  0.9930 -0.6578  0.1250
    3SAPS  H12Y  380   0.311   1.124   9.020  0.7554 -0.4125 -0.7990
    3SAPS  C313  381   0.508   1.176   9.040 -0.2082 -0.4293 -0.0210
    3SAPS  H13X  382   0.533   1.069   9.053 -0.4957 -0.2581  2.5391
    3SAPS  H13Y  383   0.580   1.234   9.103 -2.2616  1.6125  0.6098
    3SAPS  C314  384   0.531   1.199   8.893  0.2726  0.0820 -0.4481
    3SAPS  H14X  385   0.514   1.304   8.861 -1.1609 -0.1846 -0.6034
    3SAPS  H14Y  386   0.464   1.136   8.830  0.9574  0.6791 -1.8340
    3SAPS  C315  387   0.675   1.166   8.848 -0.6057  0.5891  0.2395
    3SAPS  H15X  388   0.738   1.231   8.911 -0.6881 -0.1823  1.1475
    3SAPS  H15Y  389   0.693   1.191   8.741  0.1294  3.0109  0.8704
    3SAPS  C316  390   0.706   1.009   8.854  0.3147 -0.2446 -0.8239
    3SAPS  H16X  391   0.632   0.948   8.797  0.0568 -1.3407  0.6227
    3SAPS  H16Y  392   0.705   0.977   8.961  0.2725 -0.6671 -0.9466
    3SAPS  C317  393   0.846   0.989   8.806  0.0933  0.1039 -0.2847
    3SAPS  H17X  394   0.909   1.072   8.843  0.8200 -0.3200 -0.5448
    3SAPS  H17Y  395   0.850   0.991   8.695 -0.7711 -0.0407 -0.3262
    3SAPS  C318  396   0.913   0.857   8.844 -0.2501 -1.1363  0.5098
    3SAPS  H18X  397   1.018   0.873   8.812 -0.6216 -0.7353 -0.5580
    3SAPS  H18Y  398   0.866   0.770   8.793 -0.6946  0.2228 -1.5240
    3SAPS  H18Z  399   0.899   0.843   8.954 -0.6054 -0.5105  0.5507
    4SAPS     N  400   0.984   1.568  10.908 -0.1741 -0.0402  0.1238
    4SAPS   HN1  401   1.073   1.554  10.855  0.1037 -1.6837  0.9440
    4SAPS   HN2  402   0.910   1.549  10.837 -0.3854  2.7422 -0.4865
    4SAPS   HN3  403   0.977   1.661  10.952  4.2587 -0.5355  2.5118
    4SAPS   C12  404   0.986   1.461  11.018  0.4041 -0.2984 -0.1977
    4SAPS  H12A  405   1.057   1.498  11.091 -0.3176  0.4748  0.1397
    4SAPS   C13  406   0.855   1.445  11.085 -0.4889  1.0542 -0.9369
    4SAPS  O13A  407   0.767   1.531  11.055  0.1782  0.0502  0.0848
    4SAPS  O13B  408   0.835   1.370  11.187  0.1574  0.2940 -0.5614
    4SAPS   C11  409   1.036   1.333  10.950 -0.1533  0.2578  0.3106
    4SAPS  H11A  410   0.964   1.301  10.871  1.6881 -1.6322 -0.6826
    4SAPS  H11B  411   1.040   1.244  11.018  0.4096  0.3269  0.3708
    4SAPS     P  412   1.198   1.294  10.756 -0.3105 -0.1823  0.0061
    4SAPS   O13  413   1.245   1.150  10.771  0.2386 -0.3780  0.4061
    4SAPS   O14  414   1.080   1.318  10.672  0.1046 -0.1682  0.0216
    4SAPS   O12  415   1.169   1.355  10.897 -0.4443  0.4642  0.5100
    4SAPS   O11  416   1.326   1.373  10.709  0.1822  0.3343  0.1453
    4SAPS    C1  417   1.320   1.512  10.679  0.0157 -0.1941  0.2291
    4SAPS    HA  418   1.219   1.558  10.685 -0.2791 -0.8634  0.4248
    4SAPS    HB  419   1.383   1.574  10.747  0.3745  1.4928 -1.5386
    4SAPS    C2  420   1.370   1.536  10.536  0.2703 -0.0954  0.2552
    4SAPS    HS  421   1.368   1.643  10.506  1.2063 -0.3307 -0.7114
    4SAPS   O21  422   1.306   1.450  10.436 -0.5849  0.2702  0.0066
    4SAPS   C21  423   1.185   1.479  10.417 -0.0953 -0.6074 -0.0776
    4SAPS   O22  424   1.130   1.583  10.460  0.6008 -0.4332 -0.4455
    4SAPS   C22  425   1.108   1.366  10.352  0.3742 -0.0383  0.6341
    4SAPS   H2R  426   1.166   1.333  10.263  1.9281 -0.2182  1.6672
    4SAPS   H2S  427   1.095   1.285  10.427 -0.5210  0.7758  1.3839
    4SAPS    C3  428   1.520   1.510  10.534  0.4608  0.4711 -0.3288
    4SAPS    HX  429   1.527   1.404  10.569 -2.3787  0.2314 -0.2636
    4SAPS    HY  430   1.563   1.576  10.612  1.8056  0.9748 -1.4473
    4SAPS   O31  431   1.582   1.525  10.403 -0.2187  0.5494  0.6757
    4SAPS   C31  432   1.692   1.454  10.391  0.0620  0.1172 -0.4033
    4SAPS   O32  433   1.752   1.395  10.482  0.2921  1.0755  0.0172
    4SAPS   C32  434   1.723   1.445  10.243  0.6376 -0.2291  0.6633
    4SAPS   H2X  435   1.813   1.382  10.227  0.5504  0.0669 -1.2060
    4SAPS   H2Y  436   1.754   1.550  10.225 -0.2830  0.2548  1.7772
    4SAPS   C23  437   0.968   1.399  10.300 -0.0539  0.3285 -0.1933
    4SAPS   H3R  438   0.974   1.482  10.227 -3.3099  1.0729  0.2254
    4SAPS   H3S  439   0.904   1.440  10.381 -0.9860  0.2416 -0.8790
    4SAPS   C24  440   0.903   1.275  10.238  0.4949  0.2957  0.2761
    4SAPS   H4R  441   0.892   1.202  10.321  2.7612 -0.5672 -0.1092
    4SAPS   H4S  442   0.974   1.223  10.170  0.3065 -0.8767  0.9322
    4SAPS   C25  443   0.768   1.313  10.184  0.3820 -0.6341 -0.5627
    4SAPS   H5R  444   0.711   1.354  10.268 -0.5500 -2.2599 -0.3619
    4SAPS   C26  445   0.715   1.290  10.063  0.4211 -0.0224 -0.1109
    4SAPS   H6R  446   0.613   1.329  10.051 -0.1458 -1.4739 -0.1495
    4SAPS   C27  447   0.776   1.232   9.938  0.5798  0.3237  0.1911
    4SAPS   H7R  448   0.765   1.121   9.938  1.2953  0.2387 -0.8307
    4SAPS   H7S  449   0.887   1.236   9.940  0.5523  1.1759  0.1902
    4SAPS   C28  450   0.724   1.272   9.804 -0.1187  0.1792  0.0105
    4SAPS   H8R  451   0.616   1.274   9.787 -0.2137  0.5011  0.6000
    4SAPS   C29  452   0.798   1.285   9.692 -0.6586 -0.6755 -0.0167
    4SAPS   H9R  453   0.745   1.315   9.600 -0.2507 -0.3336 -0.1400
    4SAPS  C210  454   0.944   1.275   9.676  0.9520  0.5166 -0.8815
    4SAPS  H10R  455   0.992   1.337   9.755  1.7210  1.0106 -1.7099
    4SAPS  H10S  456   0.966   1.313   9.573 -1.5252 -0.3301 -1.7880
    4SAPS  C211  457   0.984   1.136   9.704  0.3841  0.4730  0.5181
    4SAPS  H11R  458   0.918   1.059   9.664  0.1220  0.1632  1.5130
    4SAPS  C212  459   1.106   1.108   9.761  1.1366 -0.2193  0.1478
    4SAPS  H12R  460   1.130   1.006   9.795 -0.0184  0.6899  4.2216
    4SAPS  C213  461   1.202   1.207   9.819 -0.1216 -0.0978  0.0829
    4SAPS  H13R  462   1.155   1.249   9.910 -1.5443 -1.9258  0.2429
    4SAPS  H13S  463   1.209   1.292   9.747  2.3875  0.6327  1.1028
    4SAPS  C214  464   1.344   1.178   9.858  0.8093  0.3197  0.6804
    4SAPS  H14R  465   1.368   1.172   9.965 -0.3007  2.4217  1.1175
    4SAPS  C215  466   1.448   1.171   9.775  0.0305 -0.2796 -0.7052
    4SAPS  H15R  467   1.551   1.150   9.806  0.1882 -1.0716 -1.7162
    4SAPS  C216  468   1.434   1.180   9.626 -0.1816  0.0921 -0.9348
    4SAPS  H16R  469   1.487   1.267   9.582 -2.7254  1.4579 -1.4548
    4SAPS  H16S  470   1.329   1.211   9.610 -0.3125 -0.4079 -1.0572
    4SAPS  C217  471   1.459   1.034   9.584  0.0293  0.4000 -0.1772
    4SAPS  H17R  472   1.374   0.970   9.617  2.0053 -1.9653  0.6020
    4SAPS  H17S  473   1.548   0.997   9.639  0.3278  4.3647  2.4074
    4SAPS  C218  474   1.482   1.022   9.430  0.3208  0.0809 -0.3505
    4SAPS  H18R  475   1.400   1.071   9.374  0.2573  0.2772 -0.0867
    4SAPS  H18S  476   1.468   0.913   9.412  0.1943 -0.0053  0.2412
    4SAPS  C219  477   1.616   1.081   9.378 -0.1086 -0.8603  0.9509
    4SAPS  H19R  478   1.709   1.033   9.415  1.5651  0.9032 -0.7305
    4SAPS  H19S  479   1.626   1.189   9.404 -3.4882  1.0071 -3.9028
    4SAPS  C220  480   1.624   1.082   9.218  0.7102 -0.5884  0.7309
    4SAPS  H20R  481   1.542   1.152   9.190  1.2514  0.0773  0.7848
    4SAPS  H20S  482   1.593   0.981   9.183 -1.0502  0.0626  0.2965
    4SAPS  H20T  483   1.720   1.116   9.174  1.5475 -2.9646  0.6040
    4SAPS   C33  484   1.617   1.393  10.144 -0.3238  0.1079  0.2074
    4SAPS   H3X  485   1.519   1.438  10.168  1.5821  3.6764  1.9596
    4SAPS   H3Y  486   1.620   1.282  10.133  0.6443  0.2519 -1.3445
    4SAPS   C34  487   1.630   1.439   9.996 -0.7069 -0.7804 -0.2062
    4SAPS   H4X  488   1.639   1.549   9.978  1.3735 -0.8969 -0.0882
    4SAPS   H4Y  489   1.537   1.417   9.939  0.0238  0.1044 -1.7974
    4SAPS   C35  490   1.755   1.369   9.925  0.3548  0.1790 -0.1845
    4SAPS   H5X  491   1.754   1.258   9.933 -0.4438 -0.0920 -3.0453
    4SAPS   H5Y  492   1.852   1.406   9.966  0.1527  0.8021 -0.2681
    4SAPS   C36  493   1.751   1.389   9.771  0.2686 -0.0236 -0.2901
    4SAPS   H6X  494   1.655   1.374   9.717  0.7588 -0.5279 -1.0403
    4SAPS   H6Y  495   1.835   1.325   9.737  1.0808 -0.3163  2.0599
    4SAPS   C37  496   1.788   1.535   9.738 -0.3119  0.7614  0.5206
    4SAPS   H7X  497   1.858   1.572   9.816 -0.1032  2.3464 -0.3835
    4SAPS   H7Y  498   1.688   1.585   9.736 -1.8594 -1.8443  3.3391
    4SAPS   C38  499   1.843   1.542   9.597  0.0932  0.2811 -0.3017
    4SAPS   H8X  500   1.934   1.478   9.597 -0.7938 -1.1250 -2.8613
    4SAPS   H8Y  501   1.863   1.649   9.575 -0.6655  0.3916 -0.4590
    4SAPS   C39  502   1.762   1.501   9.475  0.6604 -0.0424  0.6215
    4SAPS   H9X  503   1.663   1.552   9.479  0.1768 -0.8315 -0.7069
    4SAPS   H9Y  504   1.737   1.395   9.497  1.6376 -0.2172  0.9434
    4SAPS  C310  505   1.844   1.512   9.349 -0.2380  1.0923  0.3815
    4SAPS  H10X  506   1.951   1.484   9.365  0.3124  1.5819 -2.0304
    4SAPS  H10Y  507   1.833   1.619   9.321 -0.2224  1.3669  1.3760
    4SAPS  C311  508   1.806   1.417   9.236  0.1195  0.0717  1.2321
    4SAPS  H11X  509   1.698   1.397   9.253  0.0735 -0.7178  0.1043
    4SAPS  H11Y  510   1.860   1.321   9.249 -1.3364 -1.0466 -0.4969
    4SAPS  C312  511   1.829   1.480   9.102  1.1817 -0.1016  0.1829
    4SAPS  H12X  512   1.936   1.487   9.073  1.4813  0.7497  1.4248
    4SAPS  H12Y  513   1.792   1.585   9.105 -2.8858 -1.3307 -0.4389
    4SAPS  C313  514   1.739   1.424   8.988  0.2828  0.4782  0.4627
    4SAPS  H13X  515   1.715   1.498   8.908 -2.5193 -0.7026  0.0994
    4SAPS  H13Y  516   1.641   1.396   9.031  0.8931 -1.1070  0.8721
    4SAPS  C314  517   1.794   1.291   8.920 -0.1038 -0.1560  0.0914
    4SAPS  H14X  518   1.717   1.265   8.843  1.4061 -0.4421 -1.3782
    4SAPS  H14Y  519   1.794   1.207   8.993  1.0428  0.6830  1.0909
    4SAPS  C315  520   1.923   1.301   8.836  1.5290 -0.3823 -0.5326
    4SAPS  H15X  521   1.977   1.207   8.860  0.7033 -0.9993 -1.0405
    4SAPS  H15Y  522   1.977   1.395   8.862 -2.5868  2.4350 -1.2038
    4SAPS  C316  523   1.908   1.303   8.686  0.0525  0.7159  0.0056
    4SAPS  H16X  524   1.845   1.216   8.657 -1.2912  1.0933  1.6213
    4SAPS  H16Y  525   2.010   1.303   8.643 -0.8059  1.5815 -2.1815
    4SAPS  C317  526   1.849   1.434   8.629  0.5199 -0.1221 -0.5033
    4SAPS  H17X  527   1.908   1.518   8.672  0.3255 -0.9318  1.4623
    4SAPS  H17Y  528   1.745   1.439   8.668  0.6417 -0.7361 -0.0896
    4SAPS  C318  529   1.855   1.460   8.487  0.3879  0.3785 -0.4407
    4SAPS  H18X  530   1.960   1.464   8.451  0.0601 -0.1202 -1.5063
    4SAPS  H18Y  531   1.802   1.555   8.462  0.4149  1.0094  1.6970
    4SAPS  H18Z  532   1.798   1.378   8.440 -0.5249 -0.3395  1.8062
    5SAPS     N  533   5.838   1.325  10.764 -0.4765  0.1030  0.1521
    5SAPS   HN1  534   5.834   1.428  10.756  0.5870  0.0260 -1.9050
    5SAPS   HN2  535   5.928   1.275  10.750 -1.0025 -2.2048  3.5691
    5SAPS   HN3  536   5.766   1.279  10.704  0.8090 -1.7969 -0.0390
    5SAPS   C12  537   5.796   1.279  10.907  0.2590 -0.0222 -1.0698
    5SAPS  H12A  538   5.861   1.325  10.979  0.2568  1.7686 -2.1374
    5SAPS   C13  539   5.651   1.319  10.956 -0.2652  0.0760 -0.0902
    5SAPS  O13A  540   5.556   1.324  10.875  0.3591 -0.2173 -0.1200
    5SAPS  O13B  541   5.626   1.279  11.074  0.1806 -0.3978 -0.1179
    5SAPS   C11  542   5.807   1.125  10.920 -0.0170 -0.3665  0.1871
    5SAPS  H11A  543   5.750   1.101  11.012 -0.6751  0.5605  0.0389
    5SAPS  H11B  544   5.911   1.097  10.947 -0.1587 -5.0602 -2.9432
    5SAPS     P  545   5.700   0.916  10.809 -0.3024 -0.1967  0.0173
    5SAPS   O13  546   5.745   0.861  10.940 -0.4978  0.4877  0.6892
    5SAPS   O14  547   5.559   0.928  10.782  0.1240 -0.2338  0.0038
    5SAPS   O12  548   5.764   1.062  10.804  0.1229 -0.2108  0.5349
    5SAPS   O11  549   5.766   0.837  10.682 -0.0378  0.4555 -0.3341
    5SAPS    C1  550   5.906   0.854  10.666 -0.4755 -0.2052  0.8360
    5SAPS    HA  551   5.955   0.934  10.726 -0.4127  0.1013  0.3789
    5SAPS    HB  552   5.961   0.762  10.698  1.9623  0.8762  0.0265
    5SAPS    C2  553   5.949   0.898  10.518 -0.1173  0.7955  0.2618
    5SAPS    HS  554   5.961   1.008  10.513  2.4348  0.6013  0.5577
    5SAPS   O21  555   5.860   0.842  10.422  0.4233  0.2924 -0.0078
    5SAPS   C21  556   5.761   0.919  10.399 -0.2312  0.5863 -0.7618
    5SAPS   O22  557   5.756   1.038  10.427 -0.4341  0.0755 -0.6957
    5SAPS   C22  558   5.657   0.851  10.305  0.0973  0.5785 -0.5865
    5SAPS   H2R  559   5.697   0.865  10.203  2.7185 -1.8583 -0.0255
    5SAPS   H2S  560   5.656   0.740  10.319  0.8973  0.6975  0.5364
    5SAPS    C3  561   6.095   0.831  10.494  0.5168 -0.2666  0.0708
    5SAPS    HX  562   6.084   0.720  10.490 -1.4764 -0.1990  1.7402
    5SAPS    HY  563   6.156   0.853  10.584  0.5673  0.4181 -0.1230
    5SAPS   O31  564   6.155   0.870  10.364 -0.3411 -0.1553 -0.7022
    5SAPS   C31  565   6.190   0.999  10.366 -0.0623 -0.0297 -0.1523
    5SAPS   O32  566   6.192   1.070  10.465  0.3712 -0.1906  0.1933
    5SAPS   C32  567   6.250   1.041  10.232  0.0509  0.1424  0.2081
    5SAPS   H2X  568   6.245   1.152  10.234  2.2930  0.2838  0.8933
    5SAPS   H2Y  569   6.190   0.994  10.151  0.8473 -0.3280 -0.1162
    5SAPS   C23  570   5.515   0.920  10.319 -0.4323 -0.6082 -0.5467
    5SAPS   H3R  571   5.493   0.933  10.427  0.9638  2.5207 -0.5350
    5SAPS   H3S  572   5.443   0.849  10.273 -0.4963 -1.8450  1.3181
    5SAPS   C24  573   5.508   1.056  10.253 -0.5591 -0.4225  0.1052
    5SAPS   H4R  574   5.552   1.047  10.151  1.3744 -1.4640  0.9840
    5SAPS   H4S  575   5.579   1.128  10.297 -0.2147 -0.8389  0.2406
    5SAPS   C25  576   5.371   1.108  10.256  0.7172  0.2268 -0.8816
    5SAPS   H5R  577   5.321   1.095  10.353  2.2065  2.7749  0.3455
    5SAPS   C26  578   5.298   1.150  10.154  0.0687  0.6888  0.0232
    5SAPS   H6R  579   5.202   1.194  10.183 -1.0890 -1.7845  0.2150
    5SAPS   C27  580   5.344   1.167  10.016  0.1969 -0.3657 -0.1137
    5SAPS   H7R  581   5.444   1.216  10.014 -0.8583  1.8923 -0.4685
    5SAPS   H7S  582   5.282   1.245   9.967  0.5347  1.1488  1.7623
    5SAPS   C28  583   5.346   1.044   9.928 -1.0594 -0.2520 -1.0571
    5SAPS   H8R  584   5.351   0.951   9.987 -1.8874  0.4836  0.2264
    5SAPS   C29  585   5.353   1.033   9.799  0.6655 -0.6704  0.2147
    5SAPS   H9R  586   5.324   0.939   9.749 -0.1309  0.1319 -0.8689
    5SAPS  C210  587   5.363   1.155   9.710 -0.2109 -0.1412  0.4206
    5SAPS  H10R  588   5.393   1.248   9.761 -0.1721 -0.3586  0.7948
    5SAPS  H10S  589   5.260   1.181   9.679  0.5322  0.1868 -2.0059
    5SAPS  C211  590   5.453   1.119   9.596  0.5423 -0.4534  0.6573
    5SAPS  H11R  591   5.532   1.049   9.627  1.8049  1.4211  1.8800
    5SAPS  C212  592   5.440   1.161   9.462  0.4333  0.5094  0.1058
    5SAPS  H12R  593   5.512   1.126   9.387  0.2818 -0.5700  0.4471
    5SAPS  C213  594   5.330   1.248   9.413 -0.0759  0.0516  0.8385
    5SAPS  H13R  595   5.277   1.294   9.498 -0.4074  2.3325 -0.5273
    5SAPS  H13S  596   5.251   1.191   9.359  0.1095  0.3526  0.2406
    5SAPS  C214  597   5.369   1.369   9.330 -0.9756  0.6135  0.0777
    5SAPS  H14R  598   5.390   1.461   9.386 -1.6671  1.9065 -1.7351
    5SAPS  C215  599   5.373   1.363   9.191 -0.3453  0.6821 -0.0640
    5SAPS  H15R  600   5.402   1.448   9.128  0.2583 -1.4466 -2.8680
    5SAPS  C216  601   5.330   1.243   9.108 -0.3065  0.1290 -0.0432
    5SAPS  H16R  602   5.254   1.288   9.041 -0.3870  0.0595  0.0011
    5SAPS  H16S  603   5.294   1.156   9.167  0.7163 -0.1381  0.2085
    5SAPS  C217  604   5.435   1.167   9.019 -0.1971  0.0255 -0.0613
    5SAPS  H17R  605   5.514   1.118   9.079 -1.2592 -0.6958  0.7821
    5SAPS  H17S  606   5.467   1.246   8.947 -2.0135  1.5961  0.7789
    5SAPS  C218  607   5.377   1.045   8.946  0.0149 -0.1183 -0.7504
    5SAPS  H18R  608   5.464   0.993   8.899  0.3783  0.7834 -1.1041
    5SAPS  H18S  609   5.326   0.982   9.022  1.6870  2.0316  2.4223
    5SAPS  C219  610   5.288   1.081   8.826 -0.1313  0.2433 -0.2336
    5SAPS  H19R  611   5.215   1.159   8.856 -1.0813 -0.2751 -1.1478
    5SAPS  H19S  612   5.215   1.001   8.802 -0.3916 -0.0278  1.3662
    5SAPS  C220  613   5.355   1.120   8.698 -0.0162 -0.2966  0.2053
    5SAPS  H20R  614   5.271   1.117   8.625 -0.5720  1.4626  0.7257
    5SAPS  H20S  615   5.440   1.054   8.671  1.0951  0.8608  0.7811
    5SAPS  H20T  616   5.392   1.223   8.713 -0.9253 -0.2039  2.0729
    5SAPS   C33  617   6.402   1.019  10.206  0.2780  0.1089  0.1728
    5SAPS   H3X  618   6.439   0.914  10.208 -0.6350 -0.2818 -1.3676
    5SAPS   H3Y  619   6.459   1.061  10.291  0.8595 -1.4847  0.5967
    5SAPS   C34  620   6.447   1.097  10.078  0.0683  0.8440 -0.5760
    5SAPS   H4X  621   6.385   1.189  10.085 -0.9995  0.5089 -3.9054
    5SAPS   H4Y  622   6.398   1.040   9.996  0.9188  1.0367 -1.2332
    5SAPS   C35  623   6.600   1.128  10.062 -0.1587  0.3619  0.3348
    5SAPS   H5X  624   6.656   1.033  10.078 -1.8265 -0.5135  1.2719
    5SAPS   H5Y  625   6.639   1.195  10.142  1.0328  1.6138 -1.2249
    5SAPS   C36  626   6.644   1.189   9.926 -0.1130 -0.0362  0.1929
    5SAPS   H6X  627   6.750   1.216   9.945  0.3849 -1.5704 -0.3150
    5SAPS   H6Y  628   6.593   1.288   9.929  0.2295  0.1235  0.8776
    5SAPS   C37  629   6.616   1.107   9.801  0.4848 -0.0917 -0.1167
    5SAPS   H7X  630   6.508   1.082   9.796  0.2972  0.7378 -0.3658
    5SAPS   H7Y  631   6.673   1.012   9.808  2.1879  0.8712 -0.4569
    5SAPS   C38  632   6.658   1.180   9.677 -1.2274 -0.5135 -0.4295
    5SAPS   H8X  633   6.768   1.197   9.680 -1.3766  0.4023  0.5020
    5SAPS   H8Y  634   6.608   1.279   9.682  0.3183  0.2695  0.2955
    5SAPS   C39  635   6.604   1.110   9.551 -0.6954 -0.6035  0.3965
    5SAPS   H9X  636   6.493   1.120   9.556 -0.5495  0.7584  1.3323
    5SAPS   H9Y  637   6.639   1.004   9.554 -1.3892 -0.9407 -1.7257
    5SAPS  C310  638   6.650   1.183   9.424 -0.3087 -0.6878 -0.5252
    5SAPS  H10X  639   6.760   1.168   9.418  0.3793  2.2331  2.0482
    5SAPS  H10Y  640   6.629   1.291   9.437 -0.7286 -0.9163  0.8045
    5SAPS  C311  641   6.579   1.118   9.296  0.1557  0.2481  0.6624
    5SAPS  H11X  642   6.478   1.162   9.282 -0.5909 -0.7843  2.3904
    5SAPS  H11Y  643   6.554   1.011   9.314 -1.5319  0.4242 -0.4515
    5SAPS  C312  644   6.664   1.117   9.162 -0.0873  0.3520 -0.0779
    5SAPS  H12X  645   6.599   1.082   9.079 -1.5335 -0.8538  1.4808
    5SAPS  H12Y  646   6.755   1.054   9.173 -0.8740 -0.5718  1.4364
    5SAPS  C313  647   6.709   1.257   9.126  0.1532 -0.3870 -0.5836
    5SAPS  H13X  648   6.758   1.306   9.213 -0.6593  2.7196 -1.7637
    5SAPS  H13Y  649   6.613   1.312   9.115  0.1238 -0.2714  0.2009
    5SAPS  C314  650   6.809   1.258   9.013  0.0758  0.8418  0.5144
    5SAPS  H14X  651   6.883   1.178   9.037  0.5451  0.9455 -0.5256
    5SAPS  H14Y  652   6.855   1.359   9.019 -0.2846  1.0394  0.0505
    5SAPS  C315  653   6.743   1.258   8.877 -0.0216  0.7138  0.6443
    5SAPS  H15X  654   6.682   1.165   8.870  0.3646  0.5281 -0.6034
    5SAPS  H15Y  655   6.823   1.237   8.803 -1.4057 -0.3083 -0.6360
    5SAPS  C316  656   6.649   1.366   8.839 -0.4531 -0.0710  0.5054
    5SAPS  H16X  657   6.704   1.458   8.871 -1.0852 -0.3622  2.5703
    5SAPS  H16Y  658   6.561   1.376   8.906  1.2258  0.7266  2.7347
    5SAPS  C317  659   6.611   1.361   8.691  0.3258  0.6674  0.3230
    5SAPS  H17X  660   6.531   1.435   8.667  0.0784 -0.4904 -3.0222
    5SAPS  H17Y  661   6.563   1.263   8.671 -0.3013  0.9926  0.1858
    5SAPS  C318  662   6.715   1.384   8.588  1.1493 -0.2539 -0.0824
    5SAPS  H18X  663   6.780   1.294   8.589  0.7427 -0.5550 -0.5468
    5SAPS  H18Y  664   6.784   1.467   8.613  2.4489 -0.5798 -2.2631
    5SAPS  H18Z  665   6.666   1.396   8.489 -0.1443 -0.1877  0.5494
    6SAPS     N  666   5.702   6.583  10.995 -0.2325 -0.3241  0.1188
    6SAPS   HN1  667   5.707   6.500  11.057 -0.3893  0.8116  1.7098
    6SAPS   HN2  668   5.797   6.594  10.954 -0.5355 -2.0371 -1.1597
    6SAPS   HN3  669   5.664   6.664  11.049 -1.1773 -1.0109  0.5016
    6SAPS   C12  670   5.602   6.558  10.884  0.0467 -0.6949 -0.1488
    6SAPS  H12A  671   5.595   6.451  10.873 -1.9582 -0.4421 -1.6662
    6SAPS   C13  672   5.459   6.614  10.923  0.2322 -0.1506 -0.6832
    6SAPS  O13A  673   5.445   6.664  11.040  0.1496 -0.2138  0.6795
    6SAPS  O13B  674   5.358   6.572  10.868 -0.0384 -0.0129  0.0316
    6SAPS   C11  675   5.645   6.638  10.749 -0.6544 -0.2258 -0.0554
    6SAPS  H11A  676   5.568   6.608  10.674  0.1737  1.0777 -1.4738
    6SAPS  H11B  677   5.741   6.603  10.704 -0.9080  0.1957 -0.9464
    6SAPS     P  678   5.600   6.887  10.671  0.0782 -0.0962  0.0535
    6SAPS   O13  679   5.459   6.866  10.630 -0.0622 -0.0879  0.5294
    6SAPS   O14  680   5.634   7.014  10.734  0.4018 -0.1019  0.1953
    6SAPS   O12  681   5.640   6.779  10.777 -0.4834  0.1921 -0.3598
    6SAPS   O11  682   5.697   6.849  10.554  0.4475 -0.4636  0.2176
    6SAPS    C1  683   5.694   6.911  10.428 -0.2294 -0.0966 -0.2725
    6SAPS    HA  684   5.597   6.958  10.403 -0.9247 -2.0878 -1.5076
    6SAPS    HB  685   5.779   6.983  10.425  0.7315 -1.2368 -1.0468
    6SAPS    C2  686   5.722   6.813  10.312  0.1312  0.1877 -0.1731
    6SAPS    HS  687   5.820   6.766  10.331  0.2083  1.0085  1.6103
    6SAPS   O21  688   5.723   6.878  10.182  0.6799  0.4957  0.3328
    6SAPS   C21  689   5.826   6.956  10.168 -0.3489 -0.1675  0.0047
    6SAPS   O22  690   5.921   6.967  10.246 -0.3650  0.3983  0.4999
    6SAPS   C22  691   5.798   7.032  10.032  1.0201  0.3012 -0.5461
    6SAPS   H2R  692   5.692   7.009  10.010  0.9898  0.0012 -0.0905
    6SAPS   H2S  693   5.825   7.139  10.040 -2.2193  1.3067 -1.4352
    6SAPS    C3  694   5.612   6.714  10.303 -0.4291 -0.3154  1.0194
    6SAPS    HX  695   5.614   6.675  10.407 -1.5566  2.2151  2.0745
    6SAPS    HY  696   5.618   6.643  10.218 -0.3853  1.7773 -0.8025
    6SAPS   O31  697   5.489   6.775  10.293  0.2756  0.3439 -0.0091
    6SAPS   C31  698   5.383   6.687  10.308  0.5184 -0.3826  0.2035
    6SAPS   O32  699   5.398   6.566  10.311 -0.2423 -0.3088 -0.2059
    6SAPS   C32  700   5.248   6.765  10.306 -0.0644 -0.0275 -0.3735
    6SAPS   H2X  701   5.235   6.822  10.400  1.4903  0.9353 -0.7070
    6SAPS   H2Y  702   5.162   6.696  10.292 -2.7216  3.1623 -0.9438
    6SAPS   C23  703   5.892   6.970   9.926 -0.0452 -0.2567 -0.5006
    6SAPS   H3R  704   5.883   6.860   9.938 -0.4474 -0.2043 -0.2869
    6SAPS   H3S  705   5.995   7.004   9.952  0.2417 -0.6484 -1.0906
    6SAPS   C24  706   5.843   7.007   9.785 -0.3494  0.1056 -0.1413
    6SAPS   H4R  707   5.735   6.982   9.797 -0.0329 -0.7378  1.2177
    6SAPS   H4S  708   5.899   6.934   9.723 -0.1113  0.6466 -0.5720
    6SAPS   C25  709   5.861   7.155   9.758  0.2833  0.6088  0.3115
    6SAPS   H5R  710   5.824   7.220   9.839 -0.5465  1.3512 -0.6250
    6SAPS   C26  711   5.947   7.214   9.669  0.4071  0.2737 -0.3235
    6SAPS   H6R  712   5.946   7.324   9.660  1.6084  0.2645 -0.7107
    6SAPS   C27  713   6.035   7.147   9.571  0.0117 -0.1949  0.6482
    6SAPS   H7R  714   5.994   7.153   9.468 -1.2713  0.4769  1.1701
    6SAPS   H7S  715   6.026   7.038   9.586  0.3312 -0.7226 -2.3671
    6SAPS   C28  716   6.176   7.201   9.581 -0.8596 -0.0763  0.5462
    6SAPS   H8R  717   6.222   7.202   9.681  4.1471  2.9985 -1.3956
    6SAPS   C29  718   6.245   7.265   9.481 -0.1277  0.3460 -0.5050
    6SAPS   H9R  719   6.353   7.285   9.490 -0.2745  0.7420  0.4738
    6SAPS  C210  720   6.195   7.287   9.342 -0.5344  0.7320 -0.0018
    6SAPS  H10R  721   6.265   7.359   9.293 -0.8171  1.5901  0.8036
    6SAPS  H10S  722   6.096   7.335   9.328 -0.9750  0.0955  0.8546
    6SAPS  C211  723   6.197   7.150   9.264  0.5293  0.2337  0.4038
    6SAPS  H11R  724   6.108   7.090   9.286 -0.2454  1.3829  0.4892
    6SAPS  C212  725   6.276   7.101   9.167  0.4545 -0.4145 -0.0372
    6SAPS  H12R  726   6.246   7.001   9.131 -2.6325 -0.0922  1.3140
    6SAPS  C213  727   6.397   7.171   9.103  0.3352  0.1060  0.2635
    6SAPS  H13R  728   6.488   7.107   9.109 -0.6452 -1.7646 -2.6270
    6SAPS  H13S  729   6.407   7.269   9.154 -4.7441  0.4707  1.0343
    6SAPS  C214  730   6.377   7.212   8.957 -0.2170  0.6054  0.2248
    6SAPS  H14R  731   6.354   7.319   8.946 -0.1622  0.4458 -1.8572
    6SAPS  C215  732   6.384   7.134   8.847 -0.2443  0.3857 -0.1737
    6SAPS  H15R  733   6.368   7.178   8.747  0.0174 -0.7197 -0.7167
    6SAPS  C216  734   6.415   6.983   8.846  0.3569  0.5341  0.4168
    6SAPS  H16R  735   6.331   6.920   8.810  1.7776  0.1136 -2.4713
    6SAPS  H16S  736   6.444   6.953   8.949 -0.4836  0.6394  0.6890
    6SAPS  C217  737   6.538   6.938   8.757  0.0645 -0.1004 -0.4939
    6SAPS  H17R  738   6.624   7.006   8.777 -2.5335  2.7266  2.0900
    6SAPS  H17S  739   6.509   6.935   8.650 -0.2271  0.1541 -0.4213
    6SAPS  C218  740   6.593   6.795   8.783 -0.3392  0.3018 -0.0474
    6SAPS  H18R  741   6.513   6.719   8.798 -0.1053  0.1401  0.4085
    6SAPS  H18S  742   6.655   6.792   8.875 -1.6368 -2.0544  0.8286
    6SAPS  C219  743   6.670   6.732   8.668 -0.1268  1.1500  0.0915
    6SAPS  H19R  744   6.753   6.797   8.631 -0.7338 -0.1205 -4.1119
    6SAPS  H19S  745   6.611   6.736   8.574  1.0308 -0.0081 -0.7206
    6SAPS  C220  746   6.708   6.582   8.702 -0.3540 -0.3504  0.3272
    6SAPS  H20R  747   6.765   6.574   8.797 -0.6706 -1.3534  0.4407
    6SAPS  H20S  748   6.776   6.544   8.623  0.6721  0.3960  0.8183
    6SAPS  H20T  749   6.612   6.528   8.711  0.1093 -1.0399  1.3696
    6SAPS   C33  750   5.242   6.860  10.183  0.4443 -0.4362 -0.6603
    6SAPS   H3X  751   5.322   6.936  10.197 -1.8782  2.1086 -0.5377
    6SAPS   H3Y  752   5.145   6.914  10.189  0.3811 -0.4886 -1.1738
    6SAPS   C34  753   5.251   6.783  10.054  0.5559  0.5685  0.0558
    6SAPS   H4X  754   5.183   6.695  10.051  0.8506  0.3566 -0.6878
    6SAPS   H4Y  755   5.360   6.763  10.054  0.6085  0.7665  1.3080
    6SAPS   C35  756   5.207   6.867   9.926  0.5136 -0.6202 -0.0338
    6SAPS   H5X  757   5.258   6.965   9.937  1.8530 -1.3520  0.5896
    6SAPS   H5Y  758   5.097   6.877   9.918  0.5046 -1.6393 -1.8722
    6SAPS   C36  759   5.245   6.795   9.796  0.4472 -0.4719  0.2939
    6SAPS   H6X  760   5.190   6.701   9.777  0.5527  0.0016 -3.0725
    6SAPS   H6Y  761   5.351   6.764   9.807  0.2384 -0.4253  3.2499
    6SAPS   C37  762   5.232   6.885   9.672  0.7006  0.3599 -0.2169
    6SAPS   H7X  763   5.134   6.937   9.675  0.6344  0.1695  2.0256
    6SAPS   H7Y  764   5.222   6.823   9.579 -0.0581  0.0667  0.0466
    6SAPS   C38  765   5.334   6.991   9.662  0.6126 -0.3218  0.5635
    6SAPS   H8X  766   5.432   6.966   9.709  0.5199  0.9888  1.4993
    6SAPS   H8Y  767   5.305   7.077   9.726 -2.0542  1.5587 -2.8097
    6SAPS   C39  768   5.345   7.046   9.517  0.1979 -0.1728 -0.0428
    6SAPS   H9X  769   5.247   7.093   9.495  0.2078 -0.6248 -1.1140
    6SAPS   H9Y  770   5.362   6.949   9.466 -0.1502 -0.9142  1.2048
    6SAPS  C310  771   5.463   7.145   9.497 -0.2054 -0.0845  0.6291
    6SAPS  H10X  772   5.548   7.108   9.559 -1.6138 -0.8607  2.1780
    6SAPS  H10Y  773   5.433   7.243   9.540 -0.5375  0.9712 -1.8518
    6SAPS  C311  774   5.508   7.165   9.350  0.0951  0.1346 -0.1298
    6SAPS  H11X  775   5.533   7.273   9.340  2.1919 -0.4252 -1.4523
    6SAPS  H11Y  776   5.424   7.141   9.282 -1.7199  0.2038  1.9665
    6SAPS  C312  777   5.640   7.096   9.330  0.1618 -0.1959  0.5509
    6SAPS  H12X  778   5.629   6.993   9.370 -0.4059  0.3273  1.7992
    6SAPS  H12Y  779   5.713   7.157   9.387  0.3484  0.2007 -0.1003
    6SAPS  C313  780   5.687   7.080   9.187 -0.4063  0.3412 -0.8497
    6SAPS  H13X  781   5.618   7.010   9.135 -2.2294  1.0962  0.4604
    6SAPS  H13Y  782   5.789   7.036   9.195 -0.0342  1.1316 -1.1362
    6SAPS  C314  783   5.710   7.210   9.109 -0.5316  0.0080 -0.4734
    6SAPS  H14X  784   5.754   7.277   9.185 -0.2249 -0.9784  0.2441
    6SAPS  H14Y  785   5.609   7.253   9.091 -1.6811 -1.0222  2.7122
    6SAPS  C315  786   5.800   7.184   8.992 -0.5596 -0.6346 -0.1863
    6SAPS  H15X  787   5.892   7.130   9.023 -1.2382 -4.0089 -3.4741
    6SAPS  H15Y  788   5.828   7.286   8.958  2.7650 -1.2737  0.2525
    6SAPS  C316  789   5.743   7.104   8.879  0.2562  0.2812  0.6666
    6SAPS  H16X  790   5.632   7.114   8.878  0.1385 -0.8923  0.5836
    6SAPS  H16Y  791   5.758   6.996   8.897  1.1419 -0.2175 -2.4912
    6SAPS  C317  792   5.816   7.134   8.741 -0.0837 -0.7612  0.2770
    6SAPS  H17X  793   5.791   7.242   8.740 -2.6403 -1.2820  1.3389
    6SAPS  H17Y  794   5.760   7.093   8.654 -2.1623  1.4081  0.5220
    6SAPS  C318  795   5.966   7.116   8.742  0.0643 -0.5149  0.9609
    6SAPS  H18X  796   6.020   7.190   8.679 -2.1542  0.2467 -0.1578
    6SAPS  H18Y  797   5.997   7.015   8.709 -0.2875  0.0956 -1.4944
    6SAPS  H18Z  798   5.999   7.136   8.846 -1.9528  0.7599  1.4131
    7SAPS     N  799   1.646   1.126  10.996 -0.9015 -0.0250  0.1765
    7SAPS   HN1  800   1.565   1.076  10.954 -1.4370 -1.3714  2.6097
    7SAPS   HN2  801   1.667   1.081  11.087  0.0115 -0.5348 -0.2806
    7SAPS   HN3  802   1.620   1.226  11.008  1.4922  0.5996  0.7030
    7SAPS   C12  803   1.767   1.132  10.908 -0.2129 -0.2482 -0.5109
    7SAPS  H12A  804   1.737   1.176  10.814  1.9592  2.5526 -0.0443
    7SAPS   C13  805   1.886   1.221  10.965 -0.1062  1.0784 -0.0552
    7SAPS  O13A  806   1.880   1.279  11.079  0.6903 -0.3811 -0.1225
    7SAPS  O13B  807   1.989   1.232  10.893 -0.8158  0.5527  0.4721
    7SAPS   C11  808   1.815   0.986  10.891  0.0728  0.4841  1.1787
    7SAPS  H11A  809   1.868   0.952  10.983  1.4143 -0.1736  0.2084
    7SAPS  H11B  810   1.906   0.984  10.827 -0.3291 -0.9033  0.6162
    7SAPS     P  811   1.692   0.853  10.701 -0.3619 -0.1931  0.0577
    7SAPS   O13  812   1.805   0.767  10.650  0.3012  0.1280 -0.4144
    7SAPS   O14  813   1.552   0.796  10.680  0.3299  0.2791  0.6743
    7SAPS   O12  814   1.720   0.887  10.857  0.1759 -0.6227  0.0863
    7SAPS   O11  815   1.698   0.998  10.629 -0.4270 -0.0751  0.2392
    7SAPS    C1  816   1.577   1.071  10.598 -0.4971  1.1950 -0.0280
    7SAPS    HA  817   1.495   1.033  10.663  1.0269  0.4440  1.5218
    7SAPS    HB  818   1.593   1.181  10.609 -0.9138  1.0029  5.0627
    7SAPS    C2  819   1.525   1.042  10.455  0.5605 -0.7323  0.7109
    7SAPS    HS  820   1.501   0.934  10.447  0.2645 -0.9080  3.2027
    7SAPS   O21  821   1.633   1.078  10.364  0.6341  0.4307  0.0246
    7SAPS   C21  822   1.662   0.988  10.280 -0.0716  0.9676  0.7006
    7SAPS   O22  823   1.606   0.886  10.259  0.1733 -0.1375 -0.2860
    7SAPS   C22  824   1.788   1.018  10.210 -0.6272 -0.0821 -0.3209
    7SAPS   H2R  825   1.777   1.119  10.164 -1.7803 -0.3194 -0.6130
    7SAPS   H2S  826   1.862   1.016  10.293 -1.5606  0.3185  0.5550
    7SAPS    C3  827   1.400   1.136  10.404 -0.4911 -0.1385 -0.1026
    7SAPS    HX  828   1.433   1.242  10.401 -0.8515 -0.0498 -1.2361
    7SAPS    HY  829   1.323   1.132  10.485 -1.4826  1.4964 -0.8927
    7SAPS   O31  830   1.342   1.109  10.279 -0.3782 -0.1070 -0.4489
    7SAPS   C31  831   1.265   0.997  10.280 -0.5265 -0.2008  0.1513
    7SAPS   O32  832   1.238   0.933  10.380 -1.1321  0.4451 -0.2090
    7SAPS   C32  833   1.217   0.969  10.134  0.4253 -0.2543  0.8600
    7SAPS   H2X  834   1.308   0.957  10.070 -1.5677 -0.7763 -2.1050
    7SAPS   H2Y  835   1.160   1.058  10.101  0.7613 -0.4557 -0.3349
    7SAPS   C23  836   1.830   0.915  10.109  0.1136 -1.3054  0.5901
    7SAPS   H3R  837   1.769   0.932  10.017 -1.1296  0.8511  1.7300
    7SAPS   H3S  838   1.798   0.813  10.140 -0.2175 -1.2986  0.2835
    7SAPS   C24  839   1.978   0.921  10.063 -0.1939 -0.8641 -0.3924
    7SAPS   H4R  840   1.988   0.841   9.986  0.4767 -2.5247  1.3371
    7SAPS   H4S  841   2.035   0.896  10.156 -2.1561 -0.6300  0.9304
    7SAPS   C25  842   2.016   1.058  10.013 -0.3840  0.4232  0.3267
    7SAPS   H5R  843   1.985   1.136  10.085  0.6891  0.7299  0.4673
    7SAPS   C26  844   2.079   1.084   9.898  0.2214 -0.2860  0.0188
    7SAPS   H6R  845   2.097   1.192   9.882  0.3849  0.0189  2.0255
    7SAPS   C27  846   2.133   0.979   9.801  0.8958  0.3534 -0.2114
    7SAPS   H7R  847   2.181   0.899   9.861  3.2371  3.5938  2.6295
    7SAPS   H7S  848   2.217   1.026   9.746  0.7630  0.3052 -0.4554
    7SAPS   C28  849   2.019   0.940   9.706 -0.1977 -0.6098 -0.1890
    7SAPS   H8R  850   1.931   0.898   9.757  0.7249 -1.2450  0.9222
    7SAPS   C29  851   2.012   0.968   9.576  0.3934  0.2271 -0.7545
    7SAPS   H9R  852   1.934   0.908   9.525  0.4040 -1.6686  1.3210
    7SAPS  C210  853   2.110   1.031   9.490 -0.0321  1.0279  0.0773
    7SAPS  H10R  854   2.179   0.955   9.447 -1.9378 -0.4738 -0.4637
    7SAPS  H10S  855   2.175   1.095   9.553 -1.1977  0.2139  2.1819
    7SAPS  C211  856   2.036   1.114   9.386 -0.3144 -0.2662 -0.2175
    7SAPS  H11R  857   1.990   1.204   9.431  0.5834 -0.7378  1.7577
    7SAPS  C212  858   2.025   1.093   9.252  0.0951  0.2186  0.3031
    7SAPS  H12R  859   1.968   1.171   9.199 -1.7098 -0.7819  0.6955
    7SAPS  C213  860   2.072   0.981   9.162 -0.0124 -0.1438  0.2862
    7SAPS  H13R  861   2.173   0.942   9.186 -0.0588 -0.1049  0.5423
    7SAPS  H13S  862   2.072   1.032   9.064 -0.9801  2.3256  1.5002
    7SAPS  C214  863   1.965   0.871   9.160 -0.2354 -0.4603 -0.5313
    7SAPS  H14R  864   1.950   0.832   9.262  0.3197 -1.2148 -0.7267
    7SAPS  C215  865   1.893   0.828   9.057 -0.9869 -0.1794  0.2872
    7SAPS  H15R  866   1.827   0.746   9.089 -2.8412  0.9085 -0.6012
    7SAPS  C216  867   1.894   0.871   8.915  0.0667 -0.0384  0.1360
    7SAPS  H16R  868   1.938   0.973   8.906 -1.3216  0.4934 -0.9977
    7SAPS  H16S  869   1.789   0.871   8.880  0.6409  3.0284 -2.0640
    7SAPS  C217  870   1.976   0.768   8.837 -0.2963  0.1627 -0.0268
    7SAPS  H17R  871   1.916   0.676   8.855  0.8952 -0.3704  1.4560
    7SAPS  H17S  872   2.077   0.762   8.882 -0.9847 -1.3683  1.4638
    7SAPS  C218  873   1.990   0.810   8.696  0.0455  0.2263 -0.5270
    7SAPS  H18R  874   2.056   0.899   8.691 -1.5881  1.5574  0.6990
    7SAPS  H18S  875   1.896   0.854   8.656 -0.8332  2.0423  3.1314
    7SAPS  C219  876   2.036   0.693   8.610  0.1819  0.6336 -0.4972
    7SAPS  H19R  877   1.961   0.611   8.614  1.2389 -0.3523 -0.3946
    7SAPS  H19S  878   2.129   0.654   8.656 -0.6373 -2.3023 -1.1248
    7SAPS  C220  879   2.074   0.717   8.460  0.1386  0.3403  0.3897
    7SAPS  H20R  880   2.103   0.617   8.421 -2.0203 -0.0043 -0.4639
    7SAPS  H20S  881   2.156   0.791   8.461 -0.9727  1.7120 -1.6165
    7SAPS  H20T  882   1.990   0.772   8.413 -0.0326  1.6552  2.1494
    7SAPS   C33  883   1.134   0.836  10.128  0.5514  0.4556  0.3590
    7SAPS   H3X  884   1.067   0.840  10.040 -1.1207 -1.3181  1.4816
    7SAPS   H3Y  885   1.057   0.816  10.206  0.7402 -1.2001  0.1623
    7SAPS   C34  886   1.223   0.712  10.103 -0.1897  0.6968  0.5847
    7SAPS   H4X  887   1.152   0.628  10.121  0.6240  0.0977  1.0822
    7SAPS   H4Y  888   1.293   0.696  10.187  2.3320 -1.6030 -1.7247
    7SAPS   C35  889   1.291   0.707   9.967 -0.6266  0.3489  0.0138
    7SAPS   H5X  890   1.353   0.615   9.953  0.8525  1.5146 -1.5750
    7SAPS   H5Y  891   1.363   0.792   9.967  2.3820 -1.9271  2.9556
    7SAPS   C36  892   1.195   0.703   9.844  0.0334 -0.0589 -0.2849
    7SAPS   H6X  893   1.145   0.801   9.834 -0.1984 -0.2493 -1.0562
    7SAPS   H6Y  894   1.117   0.627   9.865 -0.2359  0.4065  0.4396
    7SAPS   C37  895   1.269   0.672   9.709  0.3313 -0.0935 -0.1488
    7SAPS   H7X  896   1.326   0.579   9.727  0.4659  0.0438  0.1432
    7SAPS   H7Y  897   1.340   0.758   9.702  0.4928 -0.2088  0.0854
    7SAPS   C38  898   1.185   0.672   9.580  0.5337  0.8157 -0.2996
    7SAPS   H8X  899   1.121   0.761   9.567 -1.8202 -0.7390 -0.1044
    7SAPS   H8Y  900   1.116   0.585   9.586  0.3072  1.0897  2.0891
    7SAPS   C39  901   1.269   0.648   9.459 -0.1562 -0.2454  0.2971
    7SAPS   H9X  902   1.292   0.540   9.444 -1.0196 -0.1972 -1.6542
    7SAPS   H9Y  903   1.367   0.699   9.473 -0.7101  1.2573 -1.0385
    7SAPS  C310  904   1.207   0.689   9.328  0.1713 -0.3592  0.4564
    7SAPS  H10X  905   1.140   0.777   9.339 -0.0538 -0.5033  0.2490
    7SAPS  H10Y  906   1.137   0.613   9.288 -2.6197  1.3374  1.7297
    7SAPS  C311  907   1.305   0.729   9.214 -0.4055 -0.4378 -0.2326
    7SAPS  H11X  908   1.387   0.654   9.209 -0.3618 -0.4568  0.6831
    7SAPS  H11Y  909   1.348   0.827   9.244  0.0088 -0.6975  0.0304
    7SAPS  C312  910   1.251   0.720   9.071 -0.1910 -0.2701 -0.9526
    7SAPS  H12X  911   1.150   0.765   9.056 -0.6811 -1.2682 -0.6832
    7SAPS  H12Y  912   1.242   0.615   9.037  3.1241 -0.4536 -1.6301
    7SAPS  C313  913   1.346   0.778   8.968 -0.2297 -0.8565 -0.2730
    7SAPS  H13X  914   1.344   0.723   8.872 -0.7283 -0.7264 -0.3401
    7SAPS  H13Y  915   1.449   0.776   9.010  0.1002  2.8209 -0.5601
    7SAPS  C314  916   1.304   0.927   8.943 -0.2304 -0.5378 -0.5285
    7SAPS  H14X  917   1.325   0.996   9.028 -1.6397  1.1073 -1.4308
    7SAPS  H14Y  918   1.195   0.931   8.919 -0.4857 -0.0438  0.6507
    7SAPS  C315  919   1.386   1.001   8.835 -0.2546 -0.5528 -0.4234
    7SAPS  H15X  920   1.487   0.957   8.847 -1.6133 -3.6088  0.6618
    7SAPS  H15Y  921   1.380   1.110   8.855 -1.3698 -0.9263  1.4904
    7SAPS  C316  922   1.330   0.965   8.696 -0.0703 -0.6815  0.3472
    7SAPS  H16X  923   1.230   1.013   8.691  1.4124  2.6566 -0.0967
    7SAPS  H16Y  924   1.308   0.856   8.690  0.8914 -0.8670  0.1344
    7SAPS  C317  925   1.403   1.014   8.571  0.1889 -0.8833 -0.1954
    7SAPS  H17X  926   1.508   0.979   8.573  1.5612  2.6676 -2.1459
    7SAPS  H17Y  927   1.414   1.124   8.567 -1.1995 -0.7529 -1.9795
    7SAPS  C318  928   1.330   0.970   8.439  0.6807 -0.5438 -0.5470
    7SAPS  H18X  929   1.338   0.859   8.436  1.5886 -0.4771 -1.3283
    7SAPS  H18Y  930   1.377   1.005   8.345 -1.2834  2.1619 -0.6350
    7SAPS  H18Z  931   1.226   1.007   8.450  0.4619 -0.6661 -2.0575
    8SAPS     N  932   5.201   2.740  11.230 -0.1683 -0.5542  0.0663
    8SAPS   HN1  933   5.148   2.762  11.317  0.2022  2.5259 -0.3902
    8SAPS   HN2  934   5.135   2.726  11.151 -0.9676  0.2233  0.5814
    8SAPS   HN3  935   5.251   2.652  11.257  1.1101 -0.1961 -1.0144
    8SAPS   C12  936   5.290   2.853  11.194 -0.0895  0.2413 -0.0615
    8SAPS  H12A  937   5.222   2.934  11.211 -1.1380 -1.0821  2.4377
    8SAPS   C13  938   5.416   2.878  11.276 -1.1369  0.2468 -0.2038
    8SAPS  O13A  939   5.444   2.802  11.378 -0.6683  0.4118  0.2212
    8SAPS  O13B  940   5.498   2.970  11.243  0.0563 -0.2169  0.0981
    8SAPS   C11  941   5.329   2.841  11.045  0.6453  0.0615  0.5273
    8SAPS  H11A  942   5.381   2.744  11.030 -0.7206 -0.7239  0.7083
    8SAPS  H11B  943   5.391   2.929  11.021  1.0948  0.2521  2.2585
    8SAPS     P  944   5.173   2.887  10.831  0.0149 -0.4396 -0.2582
    8SAPS   O13  945   5.080   2.796  10.767  0.1093  0.0683  0.0457
    8SAPS   O14  946   5.125   3.030  10.840 -0.2922  0.2195 -0.1422
    8SAPS   O12  947   5.206   2.831  10.974  0.6026  0.0312 -0.3236
    8SAPS   O11  948   5.301   2.894  10.742 -0.3380  0.2388  0.0058
    8SAPS    C1  949   5.403   2.992  10.743 -0.0902 -0.3946 -0.2915
    8SAPS    HA  950   5.355   3.091  10.724 -2.3737 -1.2246  0.8047
    8SAPS    HB  951   5.460   2.995  10.838 -0.9978  0.4110  0.2394
    8SAPS    C2  952   5.507   2.964  10.631  0.5590 -0.5526  0.6766
    8SAPS    HS  953   5.570   3.052  10.609 -1.0277  0.2914 -0.7024
    8SAPS   O21  954   5.433   2.919  10.513 -0.0267  0.4781 -0.2528
    8SAPS   C21  955   5.350   3.007  10.462 -0.4125  0.0373  1.6920
    8SAPS   O22  956   5.360   3.127  10.474  0.1844  0.0190 -0.7579
    8SAPS   C22  957   5.265   2.936  10.361  0.7090 -0.4359 -0.0589
    8SAPS   H2R  958   5.332   2.890  10.285  0.7246 -1.1613  0.3830
    8SAPS   H2S  959   5.221   2.854  10.421  2.2548 -1.0584  0.2590
    8SAPS    C3  960   5.598   2.847  10.672 -0.3869  0.4832  0.0194
    8SAPS    HX  961   5.527   2.773  10.717  0.6918  1.2474  3.2919
    8SAPS    HY  962   5.667   2.847  10.759  0.3439 -0.2931 -0.5473
    8SAPS   O31  963   5.661   2.772  10.560  0.5015 -0.0062  0.0099
    8SAPS   C31  964   5.751   2.839  10.497 -0.1307  0.0351  0.4246
    8SAPS   O32  965   5.803   2.943  10.530  0.3895 -0.0120  0.1314
    8SAPS   C32  966   5.783   2.756  10.367  0.1248  0.7256  0.3175
    8SAPS   H2X  967   5.693   2.748  10.302 -1.1136 -0.3364  2.0708
    8SAPS   H2Y  968   5.822   2.656  10.396 -1.1529 -0.5978 -2.1041
    8SAPS   C23  969   5.156   3.018  10.288  0.1102  0.3328 -0.2805
    8SAPS   H3R  970   5.179   3.114  10.237 -2.3810  0.3284 -1.5453
    8SAPS   H3S  971   5.073   3.035  10.360 -0.4832 -0.4070 -0.7793
    8SAPS   C24  972   5.079   2.921  10.184 -0.0627 -0.7106 -0.8926
    8SAPS   H4R  973   4.972   2.950  10.188  0.4488  1.1680  0.5810
    8SAPS   H4S  974   5.084   2.814  10.215 -1.2105 -0.5520 -0.1021
    8SAPS   C25  975   5.130   2.940  10.045  0.0736  0.3460  0.1502
    8SAPS   H5R  976   5.165   3.042  10.023  2.3409 -0.5387 -0.6712
    8SAPS   C26  977   5.127   2.846   9.948 -0.1945 -0.1674  0.3060
    8SAPS   H6R  978   5.161   2.869   9.845  1.0820  0.9018  0.9323
    8SAPS   C27  979   5.075   2.705   9.955  0.6587 -0.2968  0.4016
    8SAPS   H7R  980   5.009   2.688   9.867  0.1876 -1.2611  0.9274
    8SAPS   H7S  981   4.994   2.704  10.031 -0.1528  1.2413 -0.3783
    8SAPS   C28  982   5.177   2.596   9.966 -0.6846 -0.2972  0.1716
    8SAPS   H8R  983   5.204   2.562  10.067  0.8284 -3.2647 -1.1129
    8SAPS   C29  984   5.249   2.542   9.861 -0.0429  0.0626 -0.8396
    8SAPS   H9R  985   5.322   2.465   9.889 -0.2959  0.5522  1.2792
    8SAPS  C210  986   5.232   2.572   9.715 -0.3363  0.0426 -0.1076
    8SAPS  H10R  987   5.317   2.623   9.663  0.2261 -0.4318  0.3421
    8SAPS  H10S  988   5.144   2.638   9.695  0.7674  1.4066 -0.6583
    8SAPS  C211  989   5.194   2.445   9.645  0.2847 -0.3503  0.5709
    8SAPS  H11R  990   5.178   2.355   9.705 -3.4436  0.8241  1.6206
    8SAPS  C212  991   5.168   2.445   9.511  0.0566  0.1566  0.4060
    8SAPS  H12R  992   5.150   2.353   9.454  0.2454  0.9688 -1.0202
    8SAPS  C213  993   5.178   2.568   9.422 -0.1658  0.6050 -0.1022
    8SAPS  H13R  994   5.133   2.656   9.472 -0.9719  0.1468 -0.0081
    8SAPS  H13S  995   5.109   2.536   9.341 -1.5881  1.2020  0.8333
    8SAPS  C214  996   5.312   2.597   9.364 -0.0413  0.1090  0.1928
    8SAPS  H14R  997   5.370   2.674   9.417 -1.3852  0.3253  1.4093
    8SAPS  C215  998   5.369   2.551   9.250  0.0073 -0.4565  0.3668
    8SAPS  H15R  999   5.467   2.595   9.227 -0.6843  0.3431 -1.1878
    8SAPS  C216 1000   5.316   2.458   9.154 -0.1433 -0.1268 -0.3168
    8SAPS  H16R 1001   5.214   2.432   9.189  1.1823  0.0313  4.2216
    8SAPS  H16S 1002   5.373   2.363   9.162  0.4014  0.1399 -0.9302
    8SAPS  C217 1003   5.317   2.507   9.010  0.5734  0.3170  0.3518
    8SAPS  H17R 1004   5.416   2.510   8.960 -0.1418  1.2258 -1.0606
    8SAPS  H17S 1005   5.281   2.612   9.011 -1.4911 -0.2471 -2.2909
    8SAPS  C218 1006   5.215   2.431   8.918  0.2402 -0.4422 -0.0477
    8SAPS  H18R 1007   5.114   2.432   8.965 -0.9169  3.1442 -2.1804
    8SAPS  H18S 1008   5.240   2.323   8.913 -0.5403 -0.5717 -1.6209
    8SAPS  C219 1009   5.201   2.489   8.779  0.3866  0.1560  0.0337
    8SAPS  H19R 1010   5.192   2.599   8.792 -1.3447 -0.0156  0.5782
    8SAPS  H19S 1011   5.104   2.463   8.732  0.3053  0.8687 -0.2113
    8SAPS  C220 1012   5.319   2.460   8.687 -0.3605 -0.1407  0.2411
    8SAPS  H20R 1013   5.291   2.490   8.584  1.4555  0.6296 -0.0674
    8SAPS  H20S 1014   5.345   2.352   8.701 -1.2709 -0.1034  2.8446
    8SAPS  H20T 1015   5.420   2.503   8.708 -0.4929 -0.2753  1.2222
    8SAPS   C33 1016   5.901   2.827  10.294 -0.1718  0.5397  1.1183
    8SAPS   H3X 1017   5.988   2.829  10.364  0.3843  0.9601  0.4366
    8SAPS   H3Y 1018   5.883   2.935  10.273 -1.5266 -0.0401 -0.9340
    8SAPS   C34 1019   5.940   2.758  10.165  0.1936 -0.2220  0.6567
    8SAPS   H4X 1020   5.968   2.651  10.181 -2.2387 -0.9365  0.6153
    8SAPS   H4Y 1021   6.028   2.810  10.122 -2.3452  1.8910 -2.3495
    8SAPS   C35 1022   5.828   2.762  10.063  0.1003 -0.1720  0.1818
    8SAPS   H5X 1023   5.782   2.862  10.052 -0.9631 -0.7741 -1.1805
    8SAPS   H5Y 1024   5.750   2.685  10.079 -0.9270  0.5682 -1.0938
    8SAPS   C36 1025   5.888   2.729   9.925  0.7277 -0.0230 -0.4828
    8SAPS   H6X 1026   5.952   2.639   9.934 -0.8619 -1.0843  0.5246
    8SAPS   H6Y 1027   5.963   2.808   9.901  0.3389  1.1323  1.8181
    8SAPS   C37 1028   5.794   2.737   9.805  0.1212 -0.6877  0.3785
    8SAPS   H7X 1029   5.747   2.837   9.797  1.2013 -0.1817  0.0802
    8SAPS   H7Y 1030   5.723   2.652   9.796  0.1158 -0.9404  2.3557
    8SAPS   C38 1031   5.882   2.725   9.678 -0.2099  0.9192  0.2594
    8SAPS   H8X 1032   5.941   2.630   9.682 -0.0203  1.0428  0.4264
    8SAPS   H8Y 1033   5.941   2.818   9.665 -0.0552  0.8883  0.7374
    8SAPS   C39 1034   5.786   2.738   9.554  0.0239  0.0112  0.5014
    8SAPS   H9X 1035   5.686   2.703   9.586  0.1005 -1.0879 -0.3883
    8SAPS   H9Y 1036   5.826   2.667   9.478  0.4700 -1.4225  2.0010
    8SAPS  C310 1037   5.776   2.881   9.499  0.0936 -0.1821  0.3333
    8SAPS  H10X 1038   5.879   2.901   9.464 -0.8733  2.7405 -1.1762
    8SAPS  H10Y 1039   5.759   2.945   9.589  2.1322 -1.4151  1.6711
    8SAPS  C311 1040   5.666   2.909   9.390  0.0305  0.1291  0.5983
    8SAPS  H11X 1041   5.663   3.017   9.361 -0.2779  1.0670  3.7502
    8SAPS  H11Y 1042   5.569   2.874   9.433 -1.0564 -0.2011 -1.9293
    8SAPS  C312 1043   5.684   2.816   9.259  0.8692  0.0266  0.2518
    8SAPS  H12X 1044   5.657   2.713   9.292  0.5170 -0.2036 -0.7300
    8SAPS  H12Y 1045   5.790   2.814   9.225  0.6713 -0.8918 -0.3517
    8SAPS  C313 1046   5.594   2.867   9.144  0.4570 -0.3474 -0.0226
    8SAPS  H13X 1047   5.619   2.974   9.132 -2.0981  0.5398  1.6202
    8SAPS  H13Y 1048   5.489   2.857   9.182  0.8102 -0.0945  1.0629
    8SAPS  C314 1049   5.603   2.791   9.011 -0.2314 -0.3051 -0.0954
    8SAPS  H14X 1050   5.526   2.817   8.935  1.1412  5.2528 -0.0356
    8SAPS  H14Y 1051   5.605   2.681   9.018  0.2905 -0.3989 -1.4664
    8SAPS  C315 1052   5.736   2.836   8.941 -0.7109  0.1069 -0.6720
    8SAPS  H15X 1053   5.812   2.788   9.006 -0.1902 -0.6385 -1.7889
    8SAPS  H15Y 1054   5.755   2.944   8.953  0.8836 -0.3982  2.2626
    8SAPS  C316 1055   5.744   2.788   8.790 -0.1117 -0.0683  0.5322
    8SAPS  H16X 1056   5.848   2.805   8.755  0.7902 -1.1049  2.5493
    8SAPS  H16Y 1057   5.693   2.862   8.725  2.8526  0.5827 -1.2735
    8SAPS  C317 1058   5.708   2.649   8.761  0.1466 -0.3925 -0.2670
    8SAPS  H17X 1059   5.704   2.639   8.651 -0.0606  4.3540 -0.8999
    8SAPS  H17Y 1060   5.604   2.622   8.787  0.6558 -2.4395 -0.1435
    8SAPS  C318 1061   5.804   2.543   8.813  0.0390 -0.2902 -0.6849
    8SAPS  H18X 1062   5.850   2.567   8.911 -1.4236  0.4166 -0.1403
    8SAPS  H18Y 1063   5.884   2.526   8.738  0.1831  2.8789 -1.3993
    8SAPS  H18Z 1064   5.746   2.449   8.829 -0.2690  0.2264  1.4759
    9SAPS     N 1065   0.181   6.210   6.415  1.0806 -0.1422  0.0651
    9SAPS   HN1 1066   0.261   6.273   6.398  0.3159  1.1776  1.2245
    9SAPS   HN2 1067   0.176   6.121   6.359  0.5075 -1.7614  2.5349
    9SAPS   HN3 1068   0.095   6.261   6.389 -0.6493 -2.2103  1.3846
    9SAPS   C12 1069   0.167   6.179   6.565 -0.0483 -0.3730  0.2083
    9SAPS  H12A 1070   0.141   6.275   6.608 -0.8020  0.0317 -1.0947
    9SAPS   C13 1071   0.059   6.090   6.609  0.5280  0.1016 -0.0618
    9SAPS  O13A 1072  -0.021   6.058   6.519  0.0780  0.9648 -0.4213
    9SAPS  O13B 1073   0.016   6.103   6.730 -0.0152 -0.3093  0.1404
    9SAPS   C11 1074   0.308   6.114   6.619  0.1673  0.0794  0.4303
    9SAPS  H11A 1075   0.289   6.084   6.724  0.3418  1.0702  0.7617
    9SAPS  H11B 1076   0.384   6.196   6.620  1.1415 -0.8013  2.2395
    9SAPS     P 1077   0.505   5.976   6.545 -0.1294  0.5170  0.1208
    9SAPS   O13 1078   0.520   5.832   6.520 -0.0336 -0.0019 -0.1016
    9SAPS   O14 1079   0.574   6.071   6.451  0.2466  0.4153 -0.0447
    9SAPS   O12 1080   0.355   6.003   6.544 -0.0947 -0.3226  0.0564
    9SAPS   O11 1081   0.550   6.006   6.695  0.0784 -0.8894  0.1559
    9SAPS    C1 1082   0.581   5.914   6.793  0.1719 -0.1313 -0.2101
    9SAPS    HA 1083   0.590   5.807   6.762  2.7347 -1.0914  3.2926
    9SAPS    HB 1084   0.682   5.939   6.830  0.1972  0.1475 -0.4652
    9SAPS    C2 1085   0.476   5.912   6.904  0.4658  0.0750 -0.6875
    9SAPS    HS 1086   0.375   5.902   6.859  0.6499 -2.5868 -0.7061
    9SAPS   O21 1087   0.502   6.026   6.990 -0.1383 -0.0538  0.2777
    9SAPS   C21 1088   0.393   6.094   7.013 -0.1268  0.3842 -0.1825
    9SAPS   O22 1089   0.278   6.062   6.991  0.3196 -0.7878 -0.3052
    9SAPS   C22 1090   0.430   6.207   7.114  0.5346 -0.7046 -0.1945
    9SAPS   H2R 1091   0.497   6.286   7.072 -0.6063  1.4823  1.8485
    9SAPS   H2S 1092   0.335   6.260   7.137  1.6027  1.5120 -0.5755
    9SAPS    C3 1093   0.495   5.783   6.991 -0.0019 -0.6563 -0.1001
    9SAPS    HX 1094   0.600   5.785   7.026  0.3547 -0.8466 -1.1219
    9SAPS    HY 1095   0.488   5.694   6.925 -1.8538 -1.5286  1.1860
    9SAPS   O31 1096   0.407   5.760   7.101 -0.2360  0.3762 -0.1544
    9SAPS   C31 1097   0.274   5.742   7.070  0.0101  0.7075  0.1288
    9SAPS   O32 1098   0.232   5.737   6.954 -0.3585 -0.0302 -0.0886
    9SAPS   C32 1099   0.194   5.712   7.197 -0.4105  0.5840  0.0182
    9SAPS   H2X 1100   0.126   5.626   7.180 -0.4038 -0.1339  3.0622
    9SAPS   H2Y 1101   0.133   5.803   7.218  0.8328  0.9574  2.3781
    9SAPS   C23 1102   0.505   6.158   7.241 -0.3707  0.7520 -0.7959
    9SAPS   H3R 1103   0.530   6.245   7.305 -0.2670 -0.0702  0.3085
    9SAPS   H3S 1104   0.604   6.124   7.203 -0.6117 -1.7600  0.6189
    9SAPS   C24 1105   0.443   6.043   7.325  0.1615  0.5100  0.5246
    9SAPS   H4R 1106   0.519   6.002   7.395 -0.1049  1.2374  1.2566
    9SAPS   H4S 1107   0.402   5.960   7.263  0.4763 -0.6615  1.8383
    9SAPS   C25 1108   0.329   6.111   7.398  0.2002  0.4326 -0.1834
    9SAPS   H5R 1109   0.261   6.174   7.340 -0.5624 -1.5347 -1.4951
    9SAPS   C26 1110   0.308   6.082   7.527  0.0915  0.0847 -0.2546
    9SAPS   H6R 1111   0.229   6.134   7.584  1.0599  0.5198  0.7501
    9SAPS   C27 1112   0.375   5.983   7.611  0.0091  0.1687 -0.3611
    9SAPS   H7R 1113   0.478   6.024   7.620 -0.3080  1.0405 -0.6036
    9SAPS   H7S 1114   0.380   5.892   7.546 -0.2385  2.1853 -3.3899
    9SAPS   C28 1115   0.319   5.956   7.752  0.2005  0.8521 -0.2279
    9SAPS   H8R 1116   0.211   5.939   7.741  0.2286  1.5206 -1.9441
    9SAPS   C29 1117   0.373   5.938   7.870  0.1261 -0.2312  0.4745
    9SAPS   H9R 1118   0.315   5.915   7.960  1.6164 -1.1262  1.2448
    9SAPS  C210 1119   0.520   5.937   7.899  0.2541  0.4581  0.2015
    9SAPS  H10R 1120   0.538   6.002   7.988 -1.5283  0.0814  0.8805
    9SAPS  H10S 1121   0.575   5.982   7.814  0.7923 -1.5910 -0.5800
    9SAPS  C211 1122   0.581   5.796   7.919  0.0870 -0.5975  0.3872
    9SAPS  H11R 1123   0.568   5.726   7.835 -0.9862  0.0501 -0.0051
    9SAPS  C212 1124   0.662   5.766   8.022  0.1644  0.5617 -0.2540
    9SAPS  H12R 1125   0.665   5.658   8.042 -2.8341  0.2389 -1.0204
    9SAPS  C213 1126   0.707   5.865   8.132 -0.1023  0.6039 -0.4885
    9SAPS  H13R 1127   0.634   5.856   8.215  2.0664  0.6572  1.5195
    9SAPS  H13S 1128   0.695   5.974   8.113 -2.3094  1.1831  3.2319
    9SAPS  C214 1129   0.852   5.840   8.174 -0.2927 -0.2462 -0.0513
    9SAPS  H14R 1130   0.929   5.826   8.096  0.6340  1.7580  0.4148
    9SAPS  C215 1131   0.917   5.835   8.290 -0.8038  0.0598  0.7257
    9SAPS  H15R 1132   1.026   5.829   8.286 -0.6923  0.0546 -4.9974
    9SAPS  C216 1133   0.851   5.858   8.422  0.3117  0.6786  0.7380
    9SAPS  H16R 1134   0.750   5.902   8.412 -0.0698  0.2812  2.4935
    9SAPS  H16S 1135   0.909   5.937   8.476  0.2266  0.3213  1.3607
    9SAPS  C217 1136   0.857   5.734   8.510  0.1463  0.1122 -0.2394
    9SAPS  H17R 1137   0.888   5.761   8.614 -1.8530  2.5984 -0.1915
    9SAPS  H17S 1138   0.945   5.675   8.476  1.0648  0.8903  0.6968
    9SAPS  C218 1139   0.732   5.640   8.501  0.1799  0.0170 -0.4084
    9SAPS  H18R 1140   0.762   5.534   8.491 -3.7820 -1.0991 -3.2350
    9SAPS  H18S 1141   0.680   5.656   8.404  3.1632 -0.9101 -2.2956
    9SAPS  C219 1142   0.634   5.644   8.624  0.1446 -0.8043 -0.4044
    9SAPS  H19R 1143   0.695   5.651   8.716 -1.6948 -1.1028  0.8735
    9SAPS  H19S 1144   0.582   5.546   8.631 -1.6036 -0.1850 -3.0952
    9SAPS  C220 1145   0.529   5.754   8.616 -0.1607  0.2151 -0.2617
    9SAPS  H20R 1146   0.573   5.855   8.630  1.6625 -0.6598  0.6372
    9SAPS  H20S 1147   0.449   5.740   8.692  0.1130 -1.1082 -0.1796
    9SAPS  H20T 1148   0.490   5.765   8.512 -0.2091 -0.6531 -0.3438
    9SAPS   C33 1149   0.290   5.681   7.322 -1.0875  0.8248 -0.1522
    9SAPS   H3X 1150   0.335   5.778   7.352 -0.8691  0.9183 -0.7763
    9SAPS   H3Y 1151   0.369   5.609   7.293 -0.3897 -0.4028  4.1568
    9SAPS   C34 1152   0.212   5.625   7.439  0.5769  0.9023 -0.2315
    9SAPS   H4X 1153   0.277   5.606   7.527  1.6441  1.3672 -0.8938
    9SAPS   H4Y 1154   0.185   5.527   7.395  0.3251  1.6748 -1.8678
    9SAPS   C35 1155   0.076   5.701   7.484 -0.1910  0.7172 -0.1838
    9SAPS   H5X 1156   0.008   5.711   7.397 -0.5589 -3.0526 -0.5244
    9SAPS   H5Y 1157   0.096   5.803   7.523  0.2731 -0.0208  1.6234
    9SAPS   C36 1158   0.012   5.610   7.594 -0.0026 -0.1794  0.5553
    9SAPS   H6X 1159   0.063   5.512   7.586 -1.5050 -0.8162 -2.4438
    9SAPS   H6Y 1160  -0.092   5.602   7.557  0.4709  0.1158 -0.9353
    9SAPS   C37 1161   0.010   5.682   7.730 -0.2068  0.1577  0.5766
    9SAPS   H7X 1162  -0.075   5.753   7.730 -0.5998 -0.2627  2.3709
    9SAPS   H7Y 1163   0.105   5.737   7.748 -0.6420  0.7651  1.0633
    9SAPS   C38 1164   0.001   5.586   7.854 -0.2699  0.0399 -0.1635
    9SAPS   H8X 1165   0.097   5.531   7.855 -0.0266  0.3842 -2.0104
    9SAPS   H8Y 1166  -0.069   5.501   7.836 -0.2454  0.2218 -1.1452
    9SAPS   C39 1167  -0.031   5.647   7.994 -0.1276 -0.4490 -0.0276
    9SAPS   H9X 1168  -0.038   5.559   8.061  3.2361 -1.5095 -0.8736
    9SAPS   H9Y 1169  -0.126   5.704   7.987  0.5497  0.6424 -0.7315
    9SAPS  C310 1170   0.079   5.732   8.055  0.1481  0.5284 -0.0942
    9SAPS  H10X 1171   0.092   5.825   7.995 -1.9089  0.8192 -0.1638
    9SAPS  H10Y 1172   0.177   5.679   8.048 -0.2017 -0.3227  1.1716
    9SAPS  C311 1173   0.057   5.765   8.202  0.2225 -0.0751 -0.5520
    9SAPS  H11X 1174   0.045   5.680   8.273 -4.5671  1.5213  0.9774
    9SAPS  H11Y 1175  -0.039   5.815   8.229  0.8862  0.8438  0.1763
    9SAPS  C312 1176   0.160   5.855   8.264  0.7668 -0.1815 -0.3603
    9SAPS  H12X 1177   0.169   5.951   8.210  1.8883 -0.5721 -0.8948
    9SAPS  H12Y 1178   0.259   5.805   8.254  0.8820  0.0164 -0.2064
    9SAPS  C313 1179   0.130   5.880   8.414 -0.8388 -0.1361  0.1198
    9SAPS  H13X 1180   0.132   5.786   8.474  0.0258  1.3813  2.5896
    9SAPS  H13Y 1181   0.033   5.928   8.439 -0.4464  0.4358  0.5765
    9SAPS  C314 1182   0.246   5.971   8.474 -0.0579  0.3726  1.1048
    9SAPS  H14X 1183   0.248   6.068   8.419  0.8951  0.0730  0.5935
    9SAPS  H14Y 1184   0.347   5.928   8.456 -0.0984  0.8114 -0.2976
    9SAPS  C315 1185   0.226   6.005   8.616  0.5139  0.5267 -0.2403
    9SAPS  H15X 1186   0.322   6.042   8.659  0.1717 -2.4698  3.6048
    9SAPS  H15Y 1187   0.209   5.915   8.678  0.2140 -0.0492 -1.1394
    9SAPS  C316 1188   0.124   6.115   8.647 -0.5816 -0.3071 -0.1193
    9SAPS  H16X 1189   0.021   6.081   8.625 -0.8682 -0.1000  0.8504
    9SAPS  H16Y 1190   0.147   6.210   8.593 -1.7183 -0.9050 -1.6996
    9SAPS  C317 1191   0.126   6.159   8.792 -0.1058  0.3097  0.8062
    9SAPS  H17X 1192   0.232   6.182   8.817 -0.1911  0.9490  0.6120
    9SAPS  H17Y 1193   0.101   6.074   8.859 -2.4332 -0.1719 -0.5756
    9SAPS  C318 1194   0.046   6.285   8.819 -0.4067  0.4006 -0.2475
    9SAPS  H18X 1195  -0.060   6.275   8.786 -0.8819  0.7042  1.1303
    9SAPS  H18Y 1196   0.092   6.372   8.767  0.9222  0.6030  1.1947
    9SAPS  H18Z 1197   0.052   6.296   8.929 -2.0285 -0.8130 -0.0059
   10SAPS     N 1198   0.360   6.735   6.469  0.1457 -0.2408  0.0602
   10SAPS   HN1 1199   0.297   6.812   6.437 -2.4439 -2.2114  0.0793
   10SAPS   HN2 1200   0.331   6.694   6.560  0.1154  1.2528  0.7529
   10SAPS   HN3 1201   0.461   6.758   6.479  0.4507 -1.1239 -0.8581
   10SAPS   C12 1202   0.357   6.620   6.380 -0.6433  0.5352  0.2537
   10SAPS  H12A 1203   0.436   6.627   6.307 -0.9207 -1.8963 -0.3550
   10SAPS   C13 1204   0.392   6.487   6.451  0.1286 -0.7370  0.3340
   10SAPS  O13A 1205   0.426   6.490   6.572  0.2370  0.3012 -0.2194
   10SAPS  O13B 1206   0.384   6.378   6.389  0.0978  0.3155  0.7519
   10SAPS   C11 1207   0.214   6.626   6.311  0.0978  0.2642 -0.1280
   10SAPS  H11A 1208   0.197   6.535   6.249  0.2454  0.0441  0.1508
   10SAPS  H11B 1209   0.208   6.718   6.249 -1.6509  1.2437  1.4230
   10SAPS     P 1210  -0.018   6.551   6.389 -0.0437 -0.5861  0.0665
   10SAPS   O13 1211  -0.058   6.601   6.258  0.0079 -0.3575  0.1321
   10SAPS   O14 1212   0.004   6.408   6.385  0.7728  0.7062 -1.0902
   10SAPS   O12 1213   0.120   6.620   6.416 -0.2699 -0.0879 -0.0447
   10SAPS   O11 1214  -0.107   6.596   6.505 -0.6802 -0.2558  0.0757
   10SAPS    C1 1215  -0.086   6.700   6.600 -0.4554  0.5792  0.7819
   10SAPS    HA 1216  -0.035   6.786   6.554  1.2046  0.8513  2.9639
   10SAPS    HB 1217  -0.187   6.730   6.637 -1.9704 -1.8052 -1.1131
   10SAPS    C2 1218   0.012   6.648   6.713  0.6941  0.1908  0.2653
   10SAPS    HS 1219   0.097   6.593   6.668  0.0065 -1.0803  0.4859
   10SAPS   O21 1220  -0.066   6.563   6.798  0.3967 -0.0262 -0.1693
   10SAPS   C21 1221  -0.009   6.474   6.873  0.3757 -1.0085  0.0712
   10SAPS   O22 1222   0.104   6.432   6.864  0.2699 -0.1748  0.3446
   10SAPS   C22 1223  -0.119   6.440   6.969  0.1193 -0.2019 -0.2346
   10SAPS   H2R 1224  -0.131   6.519   7.046  1.4987 -1.1939  1.0413
   10SAPS   H2S 1225  -0.214   6.432   6.911  0.5379 -1.7684 -0.7421
   10SAPS    C3 1226   0.049   6.773   6.798 -0.1479  0.5894 -0.0203
   10SAPS    HX 1227  -0.037   6.832   6.838  1.2485  1.0183  2.5757
   10SAPS    HY 1228   0.104   6.841   6.728  1.2995 -3.4684 -3.2089
   10SAPS   O31 1229   0.143   6.739   6.901  0.2201 -0.2798  0.0801
   10SAPS   C31 1230   0.273   6.726   6.867 -0.2602 -0.1362  0.3838
   10SAPS   O32 1231   0.318   6.738   6.754  0.0876  0.3370  0.2889
   10SAPS   C32 1232   0.356   6.690   6.992  0.7012  0.1691  0.4260
   10SAPS   H2X 1233   0.417   6.779   7.021 -0.6471  1.5386 -0.7255
   10SAPS   H2Y 1234   0.422   6.611   6.951 -0.6209 -1.4288  1.2361
   10SAPS   C23 1235  -0.083   6.291   7.034  0.8588 -0.1838 -0.4885
   10SAPS   H3R 1236  -0.036   6.230   6.954 -0.2277 -1.2297 -0.3533
   10SAPS   H3S 1237  -0.179   6.245   7.064  0.3437 -0.4447 -2.4103
   10SAPS   C24 1238   0.003   6.304   7.164 -1.1785  1.2042  0.4002
   10SAPS   H4R 1239   0.088   6.371   7.138  0.7705 -1.2850 -0.0423
   10SAPS   H4S 1240   0.042   6.200   7.173 -2.4257  0.8023  1.3864
   10SAPS   C25 1241  -0.076   6.356   7.281  0.1362 -0.5824  0.2670
   10SAPS   H5R 1242  -0.103   6.460   7.257 -0.4564 -1.0086 -0.9422
   10SAPS   C26 1243  -0.098   6.289   7.391 -0.2691  0.1936 -0.6379
   10SAPS   H6R 1244  -0.144   6.339   7.478  0.1502  1.1062 -0.9274
   10SAPS   C27 1245  -0.061   6.143   7.420 -0.5017  0.2387 -0.0027
   10SAPS   H7R 1246   0.030   6.154   7.483 -1.5966 -0.6608  1.7780
   10SAPS   H7S 1247  -0.041   6.081   7.330 -1.4609 -2.7602  1.7191
   10SAPS   C28 1248  -0.161   6.059   7.490 -0.2104 -0.3694 -0.2432
   10SAPS   H8R 1249  -0.227   6.007   7.420 -0.8838 -1.3513  1.0891
   10SAPS   C29 1250  -0.171   6.023   7.620  0.2461  0.0091  0.2746
   10SAPS   H9R 1251  -0.262   5.970   7.653 -0.7614  0.5738 -1.4467
   10SAPS  C210 1252  -0.080   6.073   7.732  0.3298  0.2823 -0.3174
   10SAPS  H10R 1253   0.012   6.116   7.688  0.9378 -0.4187  0.2264
   10SAPS  H10S 1254  -0.041   5.996   7.803  0.6707  1.5412  0.8935
   10SAPS  C211 1255  -0.148   6.186   7.805 -0.0182 -0.2869 -0.1736
   10SAPS  H11R 1256  -0.187   6.258   7.731  0.9455  1.0060  0.5223
   10SAPS  C212 1257  -0.180   6.201   7.935  0.4798 -0.5139  0.4652
   10SAPS  H12R 1258  -0.231   6.294   7.965  2.2330 -0.1422  2.5304
   10SAPS  C213 1259  -0.134   6.108   8.040  0.1645 -0.1053 -0.8741
   10SAPS  H13R 1260  -0.120   6.164   8.135 -0.8177 -0.1616 -0.6843
   10SAPS  H13S 1261  -0.042   6.052   8.012  0.4992 -0.0574  0.0774
   10SAPS  C214 1262  -0.226   5.996   8.061  0.2969 -0.2246 -0.3243
   10SAPS  H14R 1263  -0.255   5.926   7.981 -0.2813 -2.3128  1.5934
   10SAPS  C215 1264  -0.264   5.960   8.188  0.5114 -0.2272  0.1781
   10SAPS  H15R 1265  -0.331   5.875   8.208 -0.0842 -0.1587 -1.4107
   10SAPS  C216 1266  -0.218   6.021   8.319  0.4165 -0.2502 -0.1495
   10SAPS  H16R 1267  -0.122   6.075   8.310  0.2645 -0.1803 -1.5610
   10SAPS  H16S 1268  -0.188   5.946   8.395  0.8760 -0.5104 -0.5757
   10SAPS  C217 1269  -0.318   6.131   8.360  0.0162  1.0820 -0.4711
   10SAPS  H17R 1270  -0.395   6.085   8.426  0.8852 -1.2800 -1.0322
   10SAPS  H17S 1271  -0.376   6.179   8.278 -0.1991  0.3247 -0.7745
   10SAPS  C218 1272  -0.255   6.245   8.444  0.5527 -0.1574 -0.0037
   10SAPS  H18R 1273  -0.175   6.200   8.507 -0.1880 -1.0376  0.3228
   10SAPS  H18S 1274  -0.313   6.290   8.528  0.7348 -0.9746  0.5674
   10SAPS  C219 1275  -0.195   6.363   8.360  0.2209  0.7556  0.2726
   10SAPS  H19R 1276  -0.236   6.453   8.410 -0.2801  0.3278  0.6425
   10SAPS  H19S 1277  -0.230   6.358   8.255  1.5171  2.3479 -0.2775
   10SAPS  C220 1278  -0.047   6.364   8.365 -0.2322 -0.1621  0.3389
   10SAPS  H20R 1279  -0.017   6.364   8.472 -1.1767  0.8230  0.6216
   10SAPS  H20S 1280  -0.010   6.452   8.309  0.0012 -1.3650 -1.4995
   10SAPS  H20T 1281   0.006   6.277   8.321  0.8772 -0.8147  2.7476
   10SAPS   C33 1282   0.268   6.643   7.119 -0.2957  0.1483 -0.3629
   10SAPS   H3X 1283   0.208   6.557   7.083  1.3706 -1.1994 -0.0358
   10SAPS   H3Y 1284   0.193   6.715   7.156 -0.1891 -0.7163  1.6527
   10SAPS   C34 1285   0.353   6.601   7.236  0.1156 -0.0294 -0.4669
   10SAPS   H4X 1286   0.394   6.693   7.281 -0.4238 -0.4066  0.8363
   10SAPS   H4Y 1287   0.422   6.523   7.197  1.2030  0.0665  1.1681
   10SAPS   C35 1288   0.265   6.525   7.334  0.0255  0.4153  0.7237
   10SAPS   H5X 1289   0.249   6.427   7.286 -1.3655 -0.0202  1.9930
   10SAPS   H5Y 1290   0.173   6.584   7.356 -0.2742 -0.4782  1.9863
   10SAPS   C36 1291   0.328   6.502   7.470  0.1904  0.0295 -0.2628
   10SAPS   H6X 1292   0.351   6.605   7.505 -0.8646  0.7403 -1.5845
   10SAPS   H6Y 1293   0.419   6.440   7.456  1.0892  0.8215  1.6904
   10SAPS   C37 1294   0.244   6.435   7.581 -0.0387 -0.3072  0.5307
   10SAPS   H7X 1295   0.238   6.325   7.563  0.1643 -0.5867  1.9980
   10SAPS   H7Y 1296   0.142   6.478   7.577 -0.4191 -1.0958  1.4069
   10SAPS   C38 1297   0.302   6.453   7.724 -0.0911 -0.1329  0.4710
   10SAPS   H8X 1298   0.305   6.560   7.755  5.6310  0.5375 -1.1279
   10SAPS   H8Y 1299   0.412   6.445   7.711  0.2522  1.5681  1.9366
   10SAPS   C39 1300   0.237   6.356   7.825 -0.0029  0.2311 -0.1857
   10SAPS   H9X 1301   0.268   6.254   7.794  1.0281 -0.2825  2.2221
   10SAPS   H9Y 1302   0.127   6.367   7.828  0.0161  0.3788  0.0325
   10SAPS  C310 1303   0.299   6.374   7.965 -0.6200 -0.7565  0.3547
   10SAPS  H10X 1304   0.289   6.481   7.994 -1.7673 -0.6529 -0.3552
   10SAPS  H10Y 1305   0.406   6.348   7.951 -0.6217 -1.4049  1.4361
   10SAPS  C311 1306   0.248   6.276   8.077  0.6489  0.9032  0.9595
   10SAPS  H11X 1307   0.274   6.174   8.044  0.8009  0.3999  2.5532
   10SAPS  H11Y 1308   0.137   6.284   8.074  0.6421  1.1643  1.6907
   10SAPS  C312 1309   0.296   6.293   8.219 -0.1960  0.8447  0.0667
   10SAPS  H12X 1310   0.231   6.230   8.283 -0.2840  2.0455  1.1993
   10SAPS  H12Y 1311   0.295   6.396   8.262 -0.6326  1.4684 -1.3768
   10SAPS  C313 1312   0.436   6.234   8.246  0.4290 -0.0791 -0.4125
   10SAPS  H13X 1313   0.502   6.281   8.171  0.4298  1.3529  0.4496
   10SAPS  H13Y 1314   0.428   6.124   8.229 -0.7493 -0.2167  0.8585
   10SAPS  C314 1315   0.481   6.274   8.384 -0.3790  0.5248  0.2017
   10SAPS  H14X 1316   0.412   6.254   8.469 -1.3396 -1.4399 -0.9457
   10SAPS  H14Y 1317   0.489   6.384   8.377 -2.0302  0.7139  0.8631
   10SAPS  C315 1318   0.627   6.229   8.409 -0.2899 -0.2123 -0.6952
   10SAPS  H15X 1319   0.705   6.282   8.352 -0.1920  1.5502  0.9808
   10SAPS  H15Y 1320   0.624   6.121   8.382  0.7132 -0.0038 -1.6885
   10SAPS  C316 1321   0.660   6.249   8.556 -0.8420 -0.1252  0.8081
   10SAPS  H16X 1322   0.586   6.196   8.619  0.3174 -2.9374 -0.0789
   10SAPS  H16Y 1323   0.666   6.356   8.587 -1.8299 -0.2858  1.5993
   10SAPS  C317 1324   0.804   6.213   8.585  0.0237  0.1967  0.2227
   10SAPS  H17X 1325   0.860   6.289   8.527 -2.2429  1.1532 -0.8053
   10SAPS  H17Y 1326   0.831   6.112   8.548 -2.2392  0.0860 -1.2558
   10SAPS  C318 1327   0.832   6.240   8.731 -0.0916  0.1751  0.2349
   10SAPS  H18X 1328   0.917   6.184   8.777 -1.0223 -1.0889  0.4616
   10SAPS  H18Y 1329   0.749   6.200   8.792  0.6456  0.0883  1.2087
   10SAPS  H18Z 1330   0.852   6.349   8.746 -0.4463  0.3850 -0.7570
   11SAPS     N 1331   3.971   2.019   6.000 -0.4431  0.0515  0.2345
   11SAPS   HN1 1332   4.069   1.984   6.004 -0.4717  0.0658  2.4323
   11SAPS   HN2 1333   3.976   2.121   5.982 -0.7776  0.4355  2.0513
   11SAPS   HN3 1334   3.927   1.996   6.092 -0.5417 -2.2400 -0.3247
   11SAPS   C12 1335   3.894   1.950   5.893  0.6819  0.2648 -0.1136
   11SAPS  H12A 1336   3.798   1.923   5.935  0.4467  1.0672 -0.1073
   11SAPS   C13 1337   3.863   2.026   5.761  0.1763  0.1758  0.2067
   11SAPS  O13A 1338   3.886   2.144   5.758 -0.6982 -0.2867  0.1420
   11SAPS  O13B 1339   3.783   1.969   5.681 -0.3209 -0.6452 -0.1930
   11SAPS   C11 1340   3.961   1.813   5.860  0.7906 -0.2368  0.3889
   11SAPS  H11A 1341   4.053   1.834   5.801  0.4850  1.8516  0.5803
   11SAPS  H11B 1342   3.893   1.755   5.795 -0.9285  2.4126 -0.3261
   11SAPS     P 1343   3.990   1.575   5.982 -0.2325 -0.0451 -0.1780
   11SAPS   O13 1344   4.035   1.512   5.854 -0.4290 -0.1897 -0.4487
   11SAPS   O14 1345   4.058   1.529   6.104 -0.1779 -0.0114 -0.5422
   11SAPS   O12 1346   4.000   1.736   5.976  0.4078 -0.2875 -0.1425
   11SAPS   O11 1347   3.832   1.557   5.994  0.1350 -0.0207 -0.6158
   11SAPS    C1 1348   3.785   1.480   6.108  0.1339 -0.0484  0.3841
   11SAPS    HA 1349   3.683   1.442   6.086  0.8927 -0.9134 -1.9280
   11SAPS    HB 1350   3.844   1.387   6.126  1.0513  0.3960 -0.2136
   11SAPS    C2 1351   3.781   1.562   6.232  0.3375 -0.3686  0.0990
   11SAPS    HS 1352   3.884   1.582   6.268 -0.5127  1.0899  1.8575
   11SAPS   O21 1353   3.716   1.482   6.336 -0.6876 -0.0734 -0.2173
   11SAPS   C21 1354   3.791   1.397   6.401  0.1073 -0.1632 -0.0268
   11SAPS   O22 1355   3.909   1.372   6.373  0.2033 -0.1752  0.1894
   11SAPS   C22 1356   3.715   1.320   6.513 -0.1630 -0.0897 -0.3210
   11SAPS   H2R 1357   3.646   1.395   6.557  0.3583  0.8585 -1.0849
   11SAPS   H2S 1358   3.663   1.228   6.479 -0.3527  1.1351 -3.6234
   11SAPS    C3 1359   3.707   1.699   6.207  0.1915 -0.2939 -0.0546
   11SAPS    HX 1360   3.604   1.690   6.166 -0.3604  1.6660  0.7445
   11SAPS    HY 1361   3.765   1.753   6.129 -0.1951  0.1961 -0.0149
   11SAPS   O31 1362   3.716   1.774   6.327 -0.2850  0.0425 -0.1402
   11SAPS   C31 1363   3.612   1.785   6.404 -0.2761  0.0357  0.1602
   11SAPS   O32 1364   3.507   1.726   6.387  0.0962  0.3814  0.0733
   11SAPS   C32 1365   3.659   1.856   6.531  0.7794  0.8270  1.1223
   11SAPS   H2X 1366   3.661   1.961   6.496 -0.8995  0.0900 -1.3969
   11SAPS   H2Y 1367   3.760   1.833   6.571  0.0843 -2.3848  1.3036
   11SAPS   C23 1368   3.805   1.275   6.632 -0.3276 -0.1286 -0.4047
   11SAPS   H3R 1369   3.890   1.222   6.585 -0.1379  0.5478 -0.8416
   11SAPS   H3S 1370   3.746   1.206   6.696  0.2672  0.2454  0.5696
   11SAPS   C24 1371   3.862   1.394   6.715  0.0426 -0.3549 -0.5457
   11SAPS   H4R 1372   3.783   1.436   6.782  1.4641  1.6508 -0.0177
   11SAPS   H4S 1373   3.882   1.467   6.634  0.2651  1.1008  0.7637
   11SAPS   C25 1374   3.986   1.353   6.795 -0.2575  0.0675 -0.2796
   11SAPS   H5R 1375   4.068   1.320   6.730 -0.4469  0.7995 -0.9062
   11SAPS   C26 1376   4.004   1.351   6.935  0.2277  0.4942  0.7648
   11SAPS   H6R 1377   4.101   1.329   6.982  0.4386  1.6938  0.9197
   11SAPS   C27 1378   3.906   1.391   7.039 -0.3431 -0.5691 -1.0494
   11SAPS   H7R 1379   3.924   1.324   7.126  1.9041 -0.9745 -1.7551
   11SAPS   H7S 1380   3.801   1.370   7.009 -1.4173 -0.1634  2.0778
   11SAPS   C28 1381   3.903   1.537   7.074 -0.0338 -0.3717  0.2050
   11SAPS   H8R 1382   3.913   1.590   6.979  0.7037  0.0883  0.5284
   11SAPS   C29 1383   3.893   1.599   7.190  0.4686 -0.3928  0.6580
   11SAPS   H9R 1384   3.898   1.709   7.197 -1.7055 -0.3458  2.6485
   11SAPS  C210 1385   3.888   1.534   7.326  0.0320  0.3648  0.0498
   11SAPS  H10R 1386   3.992   1.540   7.365  0.1624 -0.2571 -0.1988
   11SAPS  H10S 1387   3.867   1.425   7.318  0.6980  0.3296 -1.4661
   11SAPS  C211 1388   3.791   1.599   7.421  0.1974  0.0887 -0.8694
   11SAPS  H11R 1389   3.690   1.615   7.380 -1.3731 -2.3104  1.7132
   11SAPS  C212 1390   3.812   1.632   7.550 -0.1856  0.5450  0.4155
   11SAPS  H12R 1391   3.726   1.656   7.614 -0.4932 -1.8476  1.0083
   11SAPS  C213 1392   3.936   1.586   7.627 -0.0742 -0.0311  0.0096
   11SAPS  H13R 1393   3.977   1.495   7.580 -0.8823 -1.5631  2.0904
   11SAPS  H13S 1394   3.910   1.547   7.728  0.4197 -0.2536  0.0497
   11SAPS  C214 1395   4.034   1.701   7.641  0.3260 -0.9357  1.2349
   11SAPS  H14R 1396   4.103   1.715   7.556 -2.8978  1.8060 -1.1936
   11SAPS  C215 1397   4.015   1.794   7.732 -0.1523  0.5117 -0.3844
   11SAPS  H15R 1398   4.078   1.884   7.725 -0.9738  1.1014 -0.3805
   11SAPS  C216 1399   3.906   1.810   7.836  0.8390  0.7485  0.3100
   11SAPS  H16R 1400   3.895   1.709   7.880 -1.7505  0.5754 -0.5804
   11SAPS  H16S 1401   3.813   1.849   7.790  0.7030  1.4823  1.1673
   11SAPS  C217 1402   3.945   1.912   7.950 -0.5386  0.2552 -0.5603
   11SAPS  H17R 1403   3.940   2.017   7.912 -1.6091 -0.3664 -2.2546
   11SAPS  H17S 1404   4.049   1.889   7.979 -1.0017 -2.5246 -0.8914
   11SAPS  C218 1405   3.860   1.884   8.076  0.1856 -0.4856  0.6448
   11SAPS  H18R 1406   3.851   1.774   8.091 -0.6799 -0.3891  0.8809
   11SAPS  H18S 1407   3.758   1.922   8.057  1.3507  1.7916 -1.7047
   11SAPS  C219 1408   3.923   1.943   8.206  0.5915  0.2764  0.1436
   11SAPS  H19R 1409   3.937   2.052   8.188 -1.8887  0.5344 -0.5435
   11SAPS  H19S 1410   4.021   1.895   8.226  0.3039 -0.1729  0.4871
   11SAPS  C220 1411   3.830   1.931   8.332 -0.7169 -0.7536  0.2411
   11SAPS  H20R 1412   3.801   1.824   8.334 -0.4082 -0.8571 -0.6612
   11SAPS  H20S 1413   3.749   2.004   8.312  0.7632  1.4039  1.5288
   11SAPS  H20T 1414   3.896   1.962   8.417  1.8844 -0.1937 -1.8468
   11SAPS   C33 1415   3.548   1.847   6.640 -0.7739 -0.2892 -0.0284
   11SAPS   H3X 1416   3.447   1.883   6.608  0.5903  2.6608 -1.3759
   11SAPS   H3Y 1417   3.569   1.922   6.718 -1.7143  0.7864 -0.7756
   11SAPS   C34 1418   3.530   1.715   6.717 -0.2927  0.3504 -0.3260
   11SAPS   H4X 1419   3.614   1.643   6.716 -2.0764 -1.8488 -1.0015
   11SAPS   H4Y 1420   3.440   1.663   6.677  0.5087 -1.6334  0.3589
   11SAPS   C35 1421   3.499   1.744   6.868  0.0308 -0.4080  0.5737
   11SAPS   H5X 1422   3.400   1.793   6.880  0.4046  0.5539 -0.1120
   11SAPS   H5Y 1423   3.581   1.809   6.907 -0.4561 -0.8988  2.5201
   11SAPS   C36 1424   3.501   1.618   6.958 -0.2515  0.3607 -0.3613
   11SAPS   H6X 1425   3.599   1.599   7.006 -1.0639  0.9101  1.6306
   11SAPS   H6Y 1426   3.465   1.531   6.900 -1.5529  0.4829  0.2344
   11SAPS   C37 1427   3.408   1.618   7.084  0.6218  0.0917  0.1638
   11SAPS   H7X 1428   3.417   1.514   7.124  1.4794 -0.5620 -1.6097
   11SAPS   H7Y 1429   3.301   1.640   7.065  0.2508  1.2248  3.0850
   11SAPS   C38 1430   3.449   1.722   7.189 -0.0600 -0.5934 -0.0866
   11SAPS   H8X 1431   3.444   1.822   7.141 -1.2631 -1.1387 -1.1320
   11SAPS   H8Y 1432   3.552   1.713   7.230  1.0383  1.1563 -2.2337
   11SAPS   C39 1433   3.337   1.739   7.299 -0.3201  0.5386  0.0843
   11SAPS   H9X 1434   3.340   1.649   7.364  1.4456  0.8494  0.4954
   11SAPS   H9Y 1435   3.234   1.757   7.261 -0.5588 -0.2430  0.3485
   11SAPS  C310 1436   3.375   1.845   7.410  0.1357 -0.2186  0.3895
   11SAPS  H10X 1437   3.290   1.830   7.479  0.2030 -1.5920  0.2010
   11SAPS  H10Y 1438   3.377   1.936   7.346  0.4418  0.1715  0.9549
   11SAPS  C311 1439   3.504   1.833   7.496 -0.1320  0.2084 -0.3162
   11SAPS  H11X 1440   3.593   1.879   7.448  0.8062 -1.2428 -0.0308
   11SAPS  H11Y 1441   3.524   1.726   7.519  0.1597  0.0047 -1.4587
   11SAPS  C312 1442   3.488   1.900   7.635 -0.3041  0.0390  0.1755
   11SAPS  H12X 1443   3.423   1.989   7.620  0.2657  0.4260 -0.0478
   11SAPS  H12Y 1444   3.581   1.946   7.675 -0.3853  0.2018  0.1801
   11SAPS  C313 1445   3.417   1.811   7.736  0.0109  0.5404  0.5081
   11SAPS  H13X 1446   3.488   1.726   7.746 -1.1402 -0.3604  1.1440
   11SAPS  H13Y 1447   3.317   1.780   7.700 -1.2489  1.0278  3.2728
   11SAPS  C314 1448   3.394   1.875   7.870  0.9585 -0.3020 -0.7772
   11SAPS  H14X 1449   3.335   1.968   7.856  1.1672  0.1656  1.2450
   11SAPS  H14Y 1450   3.490   1.894   7.923 -0.2104  1.1071  0.9185
   11SAPS  C315 1451   3.296   1.799   7.968 -0.0235  0.2612  0.0147
   11SAPS  H15X 1452   3.339   1.698   7.986 -0.9967 -0.1019  0.4102
   11SAPS  H15Y 1453   3.195   1.790   7.920 -0.1005 -0.2636  0.2607
   11SAPS  C316 1454   3.285   1.880   8.101  0.2047 -0.0165 -0.5681
   11SAPS  H16X 1455   3.250   1.985   8.091 -0.6436  0.1376  2.8682
   11SAPS  H16Y 1456   3.386   1.904   8.142 -0.3912  1.7414 -0.0589
   11SAPS  C317 1457   3.194   1.809   8.197  0.6146  0.1601 -0.5031
   11SAPS  H17X 1458   3.199   1.842   8.303  1.6472  2.0482 -1.0923
   11SAPS  H17Y 1459   3.222   1.702   8.211 -1.7090 -0.3602  0.5018
   11SAPS  C318 1460   3.042   1.819   8.153 -0.0589  0.2091  0.0456
   11SAPS  H18X 1461   3.007   1.714   8.152  1.1293 -0.2076 -1.2888
   11SAPS  H18Y 1462   3.035   1.853   8.047  0.0260  0.6587  0.1801
   11SAPS  H18Z 1463   2.985   1.889   8.218  1.6784 -0.6126  2.6067
   12SAPS     N 1464   2.248   3.086   5.944 -0.1923 -0.0082 -0.7098
   12SAPS   HN1 1465   2.255   3.176   5.997 -1.1179 -0.3698  0.0602
   12SAPS   HN2 1466   2.310   3.066   5.863 -0.7061  0.8020 -1.3287
   12SAPS   HN3 1467   2.146   3.096   5.928 -0.1817  1.2758 -0.0883
   12SAPS   C12 1468   2.277   2.966   6.033  0.7780  0.2388  0.1572
   12SAPS  H12A 1469   2.197   2.896   6.014  0.7076 -0.8631  3.7589
   12SAPS   C13 1470   2.425   2.917   6.014  0.3487  0.1962 -0.5540
   12SAPS  O13A 1471   2.505   2.985   5.944  0.4356  0.5252 -0.3225
   12SAPS  O13B 1472   2.474   2.824   6.089  0.2158 -0.0249  0.0878
   12SAPS   C11 1473   2.267   2.998   6.193  0.5056 -0.0863  0.4771
   12SAPS  H11A 1474   2.343   3.072   6.227 -1.0469  3.3430 -2.8310
   12SAPS  H11B 1475   2.311   2.909   6.242  0.9975 -1.2773 -1.9992
   12SAPS     P 1476   2.055   2.903   6.286  0.2782 -0.2414  0.0244
   12SAPS   O13 1477   2.010   2.835   6.166  0.3093  0.0169  0.4114
   12SAPS   O14 1478   2.132   2.817   6.377  0.2300  0.2797 -0.1637
   12SAPS   O12 1479   2.135   3.029   6.243 -0.7499 -0.0932 -0.2722
   12SAPS   O11 1480   1.929   2.960   6.360  0.0405 -0.0088  0.0514
   12SAPS    C1 1481   1.937   3.072   6.448 -0.2561 -0.4027 -0.2945
   12SAPS    HA 1482   1.948   3.169   6.396 -1.0422 -0.1450  0.0003
   12SAPS    HB 1483   1.835   3.081   6.493 -0.2601  0.2027 -0.4263
   12SAPS    C2 1484   2.031   3.074   6.569 -0.7939 -0.0484  0.1318
   12SAPS    HS 1485   2.135   3.061   6.531 -0.5733 -0.1260  0.7650
   12SAPS   O21 1486   1.981   2.972   6.657  0.1926 -0.3631  0.0244
   12SAPS   C21 1487   2.066   2.915   6.742  0.3073 -0.0152 -0.2141
   12SAPS   O22 1488   2.186   2.924   6.728 -0.9209  0.2408 -0.7586
   12SAPS   C22 1489   2.003   2.833   6.854  0.5004 -0.2052 -0.4751
   12SAPS   H2R 1490   1.893   2.833   6.839  0.5778  2.7328 -1.6942
   12SAPS   H2S 1491   2.034   2.726   6.850  3.3663  0.5661 -0.4636
   12SAPS    C3 1492   2.028   3.210   6.650 -0.4966  0.3833  0.3592
   12SAPS    HX 1493   1.926   3.221   6.692  0.6266  0.0613  3.4495
   12SAPS    HY 1494   2.053   3.297   6.585 -1.0005  0.4265  0.2193
   12SAPS   O31 1495   2.130   3.201   6.760 -0.0210  0.5619 -0.3751
   12SAPS   C31 1496   2.250   3.251   6.741 -0.5284 -0.2822 -0.5984
   12SAPS   O32 1497   2.284   3.319   6.645 -0.4438  0.2672  0.5609
   12SAPS   C32 1498   2.332   3.224   6.869 -0.3229 -0.2569 -0.0533
   12SAPS   H2X 1499   2.357   3.115   6.861 -1.4058 -0.4914 -0.4206
   12SAPS   H2Y 1500   2.265   3.243   6.955  0.5410  1.9147  0.1869
   12SAPS   C23 1501   2.043   2.882   6.994  0.4896 -0.0821  0.0051
   12SAPS   H3R 1502   2.143   2.929   7.004  0.8268 -0.9103  0.5556
   12SAPS   H3S 1503   2.045   2.789   7.055 -0.7935 -1.2058 -1.5880
   12SAPS   C24 1504   1.934   2.970   7.063 -0.4324  0.9060  1.3300
   12SAPS   H4R 1505   1.966   2.980   7.169 -0.6032 -0.0921  1.4876
   12SAPS   H4S 1506   1.845   2.904   7.076  0.3526 -0.0458  2.0872
   12SAPS   C25 1507   1.915   3.106   7.004  0.2743 -0.6987 -0.1565
   12SAPS   H5R 1508   1.893   3.126   6.899  1.8472  1.3585 -0.1403
   12SAPS   C26 1509   1.926   3.227   7.068  0.0805  0.0257 -0.2281
   12SAPS   H6R 1510   1.910   3.318   7.008  0.5652  1.2614  1.4170
   12SAPS   C27 1511   1.965   3.256   7.215 -0.2034  0.8602 -0.5521
   12SAPS   H7R 1512   1.901   3.192   7.279 -1.2950  1.4172 -1.0581
   12SAPS   H7S 1513   1.943   3.360   7.247 -1.5377  0.4144  0.0635
   12SAPS   C28 1514   2.114   3.226   7.238 -0.4691 -0.4621 -0.2695
   12SAPS   H8R 1515   2.183   3.236   7.153 -0.3379  0.7300 -0.0289
   12SAPS   C29 1516   2.166   3.204   7.357 -0.1527 -0.4231 -0.7168
   12SAPS   H9R 1517   2.271   3.174   7.371  0.5675  1.9672 -0.5078
   12SAPS  C210 1518   2.087   3.200   7.490  0.4469 -0.1360 -0.7575
   12SAPS  H10R 1519   2.092   3.093   7.519 -0.4473 -0.3599 -1.3939
   12SAPS  H10S 1520   1.978   3.212   7.471  0.3360 -3.7064 -3.6012
   12SAPS  C211 1521   2.138   3.299   7.586 -0.1557  0.3495  0.0625
   12SAPS  H11R 1522   2.156   3.398   7.541  2.6373  0.3897  1.0432
   12SAPS  C212 1523   2.169   3.281   7.714  0.2008  0.4488 -0.0791
   12SAPS  H12R 1524   2.199   3.370   7.771 -0.2741 -0.3320  1.4294
   12SAPS  C213 1525   2.154   3.156   7.797 -0.8161 -0.1475  0.0569
   12SAPS  H13R 1526   2.075   3.094   7.751  0.9665 -1.7892 -0.9341
   12SAPS  H13S 1527   2.126   3.193   7.898  2.1815 -0.1720  0.9991
   12SAPS  C214 1528   2.282   3.069   7.804  0.6131  0.7306  0.0091
   12SAPS  H14R 1529   2.266   2.964   7.774  0.9140  1.0817 -1.4604
   12SAPS  C215 1530   2.402   3.102   7.846 -0.6693 -0.2078  0.0081
   12SAPS  H15R 1531   2.471   3.017   7.858 -2.1654 -1.5814 -0.6423
   12SAPS  C216 1532   2.456   3.237   7.896 -0.6920 -0.2273 -0.0288
   12SAPS  H16R 1533   2.380   3.318   7.891  1.0527  1.4632 -0.4735
   12SAPS  H16S 1534   2.539   3.273   7.832  1.1522 -1.9864  1.2658
   12SAPS  C217 1535   2.508   3.215   8.043 -0.1564  0.2213  0.5244
   12SAPS  H17R 1536   2.429   3.169   8.107  0.4751  1.3488  2.1749
   12SAPS  H17S 1537   2.526   3.313   8.092 -1.4724  0.8053 -0.1165
   12SAPS  C218 1538   2.637   3.131   8.053  0.0607  0.1915  0.1976
   12SAPS  H18R 1539   2.713   3.174   7.984  1.2880 -1.2973  0.5428
   12SAPS  H18S 1540   2.617   3.023   8.033  1.2176  0.1268 -0.7666
   12SAPS  C219 1541   2.697   3.132   8.195 -0.0669 -0.5737 -0.9139
   12SAPS  H19R 1542   2.613   3.103   8.261  0.6594  1.0812  0.8357
   12SAPS  H19S 1543   2.726   3.236   8.221  1.0278 -1.2595  0.8024
   12SAPS  C220 1544   2.814   3.032   8.218  1.2899  0.1658  0.3387
   12SAPS  H20R 1545   2.782   2.926   8.224  0.0473  0.5046 -0.0467
   12SAPS  H20S 1546   2.874   3.060   8.308 -0.2598  1.6366  0.9730
   12SAPS  H20T 1547   2.883   3.047   8.132  0.5566  1.3875 -0.0671
   12SAPS   C33 1548   2.462   3.312   6.871 -0.2281 -0.0443  0.2199
   12SAPS   H3X 1549   2.435   3.418   6.852  1.7214  0.2716 -1.1167
   12SAPS   H3Y 1550   2.534   3.292   6.789  3.0037  2.3181  2.1907
   12SAPS   C34 1551   2.555   3.308   7.000  0.5901 -0.3479  0.3369
   12SAPS   H4X 1552   2.605   3.209   7.005 -0.9864 -1.2041 -0.1117
   12SAPS   H4Y 1553   2.488   3.304   7.089  1.0164 -1.4969  0.6142
   12SAPS   C35 1554   2.655   3.429   6.995 -0.1450 -0.0042 -0.3604
   12SAPS   H5X 1555   2.591   3.519   6.986 -0.2717 -0.1699 -1.2359
   12SAPS   H5Y 1556   2.720   3.426   6.905 -0.1875 -1.8917 -0.3771
   12SAPS   C36 1557   2.740   3.431   7.129 -0.0265  0.2862 -0.0279
   12SAPS   H6X 1558   2.823   3.504   7.118 -0.0581  0.1346 -1.5777
   12SAPS   H6Y 1559   2.798   3.336   7.125 -1.3812 -0.6107  0.8299
   12SAPS   C37 1560   2.657   3.443   7.254 -0.5222 -0.1079  0.1708
   12SAPS   H7X 1561   2.586   3.362   7.278 -2.1912  1.4618  0.7350
   12SAPS   H7Y 1562   2.605   3.541   7.242  1.6102  0.9629 -1.0007
   12SAPS   C38 1563   2.745   3.461   7.382 -0.0557 -0.1195  0.1848
   12SAPS   H8X 1564   2.828   3.534   7.370  0.6848 -1.1153 -1.0567
   12SAPS   H8Y 1565   2.781   3.366   7.427 -1.4154 -1.2968 -1.1059
   12SAPS   C39 1566   2.657   3.515   7.508  0.1233 -0.4288  0.9396
   12SAPS   H9X 1567   2.569   3.453   7.535 -0.4705  0.4483  1.0224
   12SAPS   H9Y 1568   2.600   3.603   7.472  1.3706 -0.1070 -0.3383
   12SAPS  C310 1569   2.740   3.555   7.628  0.9619 -0.2163  0.5863
   12SAPS  H10X 1570   2.823   3.615   7.585  1.5882 -1.6906 -0.3107
   12SAPS  H10Y 1571   2.796   3.465   7.660  0.1669 -2.1761 -2.9939
   12SAPS  C311 1572   2.669   3.624   7.746  0.6634  0.6683 -0.3378
   12SAPS  H11X 1573   2.571   3.576   7.769  0.2681  1.9525  0.7654
   12SAPS  H11Y 1574   2.636   3.727   7.723  1.4443  0.5422 -2.2282
   12SAPS  C312 1575   2.738   3.611   7.880  0.0113  0.1071  0.1353
   12SAPS  H12X 1576   2.672   3.666   7.950 -1.3535 -1.2659 -0.0093
   12SAPS  H12Y 1577   2.833   3.667   7.879  0.9769 -1.4568 -0.6229
   12SAPS  C313 1578   2.759   3.471   7.941  0.4623 -0.1553 -0.2671
   12SAPS  H13X 1579   2.819   3.404   7.875 -1.0786 -3.0691  1.1384
   12SAPS  H13Y 1580   2.658   3.433   7.968  0.3151 -0.1872 -0.8500
   12SAPS  C314 1581   2.835   3.483   8.069 -0.2750 -0.4471 -1.0935
   12SAPS  H14X 1582   2.935   3.519   8.039 -0.6092  0.5349 -1.0664
   12SAPS  H14Y 1583   2.847   3.389   8.127  4.4938  0.4341 -0.2049
   12SAPS  C315 1584   2.767   3.575   8.174  0.3474 -0.3191  0.5418
   12SAPS  H15X 1585   2.664   3.537   8.191 -0.2839  1.6951  1.6821
   12SAPS  H15Y 1586   2.763   3.683   8.145  0.9819 -0.2189  0.8194
   12SAPS  C316 1587   2.852   3.569   8.303 -0.0618 -0.1853  0.0997
   12SAPS  H16X 1588   2.847   3.462   8.333  1.1042 -0.7250 -1.4698
   12SAPS  H16Y 1589   2.800   3.634   8.376 -0.0538  0.4042 -0.4175
   12SAPS  C317 1590   2.996   3.616   8.286  0.9862  0.2413  0.3905
   12SAPS  H17X 1591   2.993   3.723   8.259  0.1471  0.0093 -0.4819
   12SAPS  H17Y 1592   3.046   3.574   8.196 -0.2348 -1.8098  0.6168
   12SAPS  C318 1593   3.085   3.566   8.394  0.5789  0.2835 -0.3113
   12SAPS  H18X 1594   3.039   3.590   8.493  1.6121  1.9778 -0.1906
   12SAPS  H18Y 1595   3.181   3.622   8.388  0.1211  0.9691 -1.8191
   12SAPS  H18Z 1596   3.085   3.456   8.382 -1.8012  0.2845 -0.8115
   13SAPS     N 1597   1.927   0.190   5.900  0.9256 -0.0630  0.6966
   13SAPS   HN1 1598   1.885   0.189   5.995 -1.2518 -2.7632 -0.1662
   13SAPS   HN2 1599   1.928   0.291   5.876 -1.0486 -0.3503 -0.8183
   13SAPS   HN3 1600   1.874   0.145   5.823  2.6129 -0.6221 -0.1944
   13SAPS   C12 1601   2.065   0.136   5.880  0.3110  0.1027 -0.3269
   13SAPS  H12A 1602   2.066   0.036   5.919  0.7655  1.0482  2.3506
   13SAPS   C13 1603   2.104   0.109   5.735 -0.2384  0.0920 -0.5426
   13SAPS  O13A 1604   2.018   0.095   5.643 -0.1771  0.0492  0.0371
   13SAPS  O13B 1605   2.222   0.070   5.709  0.1314  0.5721  0.0511
   13SAPS   C11 1606   2.161   0.231   5.948 -0.2575 -0.2517 -0.1235
   13SAPS  H11A 1607   2.181   0.319   5.883 -2.2851  0.2478 -0.1217
   13SAPS  H11B 1608   2.255   0.172   5.948  0.1667  0.3852  1.2921
   13SAPS     P 1609   2.138   0.201   6.207 -0.1514 -0.1571 -0.0596
   13SAPS   O13 1610   2.016   0.182   6.281 -0.8498  0.0654  0.4489
   13SAPS   O14 1611   2.202   0.068   6.173 -0.2787  0.1351 -0.2715
   13SAPS   O12 1612   2.110   0.279   6.078 -0.3050 -0.2338  0.1260
   13SAPS   O11 1613   2.247   0.293   6.271 -0.5392  0.1646  0.3668
   13SAPS    C1 1614   2.201   0.417   6.322  0.8472  0.1913 -0.6418
   13SAPS    HA 1615   2.261   0.499   6.277  0.0918  1.2245  0.2266
   13SAPS    HB 1616   2.101   0.445   6.284 -0.6756 -1.2139  1.9924
   13SAPS    C2 1617   2.190   0.421   6.471  0.5652  0.7030 -1.0008
   13SAPS    HS 1618   2.175   0.525   6.507 -1.8276  0.4871 -1.1939
   13SAPS   O21 1619   2.308   0.369   6.531 -0.3772  0.3526 -0.0595
   13SAPS   C21 1620   2.412   0.445   6.535 -0.4162  0.1812  0.1363
   13SAPS   O22 1621   2.426   0.552   6.478  0.0301 -0.1716 -0.9544
   13SAPS   C22 1622   2.510   0.361   6.611 -0.1218 -0.2223 -0.2749
   13SAPS   H2R 1623   2.464   0.355   6.712 -0.3638 -0.8809 -0.4185
   13SAPS   H2S 1624   2.531   0.264   6.560  1.0639 -0.7707  1.1621
   13SAPS    C3 1625   2.067   0.346   6.538  0.1640  0.2466  0.1516
   13SAPS    HX 1626   2.081   0.240   6.508 -1.5140  0.1541 -0.4056
   13SAPS    HY 1627   1.972   0.386   6.496 -1.8565 -1.3393  2.9312
   13SAPS   O31 1628   2.062   0.378   6.680  0.1527 -0.0906  1.0007
   13SAPS   C31 1629   2.034   0.268   6.754  0.2250 -0.5271  0.1034
   13SAPS   O32 1630   2.031   0.155   6.705 -0.0478 -0.0528 -0.8349
   13SAPS   C32 1631   2.017   0.318   6.893 -0.2483  0.7228  0.7089
   13SAPS   H2X 1632   1.920   0.372   6.894 -1.5394 -1.4400  0.3159
   13SAPS   H2Y 1633   2.103   0.380   6.926  0.2605  0.3734  0.0605
   13SAPS   C23 1634   2.654   0.427   6.625  0.5637 -0.4781 -0.2606
   13SAPS   H3R 1635   2.674   0.491   6.536  0.7556  0.1591  0.2309
   13SAPS   H3S 1636   2.732   0.348   6.619  1.2869  0.2188 -0.3607
   13SAPS   C24 1637   2.665   0.499   6.760  0.1539 -0.7972 -0.1184
   13SAPS   H4R 1638   2.771   0.533   6.772  0.2987  0.2613 -3.3493
   13SAPS   H4S 1639   2.639   0.437   6.848  0.3316  0.8588  1.1509
   13SAPS   C25 1640   2.586   0.629   6.765  0.1753 -0.2734 -0.4900
   13SAPS   H5R 1641   2.597   0.692   6.676  0.4440  1.3723  0.6574
   13SAPS   C26 1642   2.519   0.675   6.873 -0.0920 -0.2002  0.1415
   13SAPS   H6R 1643   2.457   0.765   6.869 -2.5773 -1.8213 -0.1782
   13SAPS   C27 1644   2.521   0.602   7.008 -0.2337 -0.2365  0.3277
   13SAPS   H7R 1645   2.525   0.684   7.083 -0.7331  0.7023 -0.6485
   13SAPS   H7S 1646   2.622   0.560   7.026  0.2507  0.2968 -1.0423
   13SAPS   C28 1647   2.421   0.496   7.029 -0.2728  0.4411 -1.0278
   13SAPS   H8R 1648   2.428   0.417   6.953  0.8747  0.2967 -0.7996
   13SAPS   C29 1649   2.350   0.473   7.143  0.0179  0.9413  0.3794
   13SAPS   H9R 1650   2.290   0.382   7.147  0.6869  0.3462 -1.7120
   13SAPS  C210 1651   2.357   0.556   7.271  0.0446  0.0760  0.2553
   13SAPS  H10R 1652   2.265   0.538   7.331  0.8677 -2.0283  0.9569
   13SAPS  H10S 1653   2.361   0.663   7.242  1.0152 -0.2484 -0.8797
   13SAPS  C211 1654   2.482   0.535   7.360  0.0815 -0.1761  0.2102
   13SAPS  H11R 1655   2.575   0.515   7.305 -0.7566  1.8914 -2.1161
   13SAPS  C212 1656   2.476   0.527   7.494 -0.5479  0.4358  0.0914
   13SAPS  H12R 1657   2.567   0.520   7.556 -1.1188 -1.3705  0.7697
   13SAPS  C213 1658   2.353   0.552   7.580 -0.1508  0.3111 -0.7558
   13SAPS  H13R 1659   2.360   0.490   7.671 -0.6167  2.2781  0.6845
   13SAPS  H13S 1660   2.260   0.516   7.530 -1.7052  0.2347  2.0023
   13SAPS  C214 1661   2.326   0.700   7.617 -0.0835 -0.1868  0.5816
   13SAPS  H14R 1662   2.324   0.775   7.536 -1.0886  0.1491  0.8990
   13SAPS  C215 1663   2.318   0.745   7.741  0.3618  0.2801 -0.5784
   13SAPS  H15R 1664   2.296   0.852   7.751 -2.3638 -0.2931  0.5495
   13SAPS  C216 1665   2.333   0.674   7.874  0.7688  0.6393  0.2174
   13SAPS  H16R 1666   2.404   0.588   7.870 -0.9627 -0.8265 -0.6703
   13SAPS  H16S 1667   2.235   0.627   7.895  1.6985 -0.6100  1.9790
   13SAPS  C217 1668   2.354   0.779   7.987 -0.1154  1.0390 -0.0297
   13SAPS  H17R 1669   2.291   0.870   7.977 -0.8235  0.5848  0.2619
   13SAPS  H17S 1670   2.464   0.796   7.991  0.7601 -3.5496  0.2651
   13SAPS  C218 1671   2.324   0.715   8.129  0.0060 -0.8570 -0.0712
   13SAPS  H18R 1672   2.380   0.618   8.122  1.3162 -0.4382  3.0946
   13SAPS  H18S 1673   2.215   0.701   8.139 -0.2449 -1.3359 -2.6981
   13SAPS  C219 1674   2.380   0.795   8.256  0.2509 -0.3763  0.8081
   13SAPS  H19R 1675   2.358   0.729   8.343  0.9775 -1.9067 -0.1355
   13SAPS  H19S 1676   2.339   0.898   8.253  0.7266 -0.2056 -0.4375
   13SAPS  C220 1677   2.533   0.809   8.255  0.4460 -0.4387  0.1205
   13SAPS  H20R 1678   2.591   0.714   8.261 -0.6571 -1.1555 -0.2798
   13SAPS  H20S 1679   2.553   0.872   8.344 -0.6212  0.6511 -0.3985
   13SAPS  H20T 1680   2.569   0.865   8.167 -0.9926  0.2720 -0.0298
   13SAPS   C33 1681   2.014   0.199   6.992  0.1094  0.1832 -0.0167
   13SAPS   H3X 1682   2.081   0.117   6.959  0.0964  0.2055 -0.1003
   13SAPS   H3Y 1683   1.917   0.150   6.967  1.2860 -1.1367 -2.2758
   13SAPS   C34 1684   2.044   0.229   7.142 -0.0603  0.2684  0.2838
   13SAPS   H4X 1685   2.153   0.225   7.163  0.1089  1.9555 -0.1335
   13SAPS   H4Y 1686   1.980   0.150   7.185  0.9561 -1.1362 -0.7197
   13SAPS   C35 1687   1.984   0.364   7.191  0.3065  0.0468 -0.0951
   13SAPS   H5X 1688   1.874   0.366   7.181 -0.2157  0.7565  3.9512
   13SAPS   H5Y 1689   2.025   0.446   7.129 -2.2727  0.4869 -1.3244
   13SAPS   C36 1690   2.018   0.381   7.344 -0.0951 -0.8386 -0.6424
   13SAPS   H6X 1691   1.993   0.486   7.369  1.8062 -0.7147  0.9220
   13SAPS   H6Y 1692   2.125   0.364   7.365  0.0635  2.4233  2.0512
   13SAPS   C37 1693   1.934   0.297   7.444  0.1835  0.1954 -0.6813
   13SAPS   H7X 1694   1.966   0.190   7.442 -1.2940 -0.2809 -2.0520
   13SAPS   H7Y 1695   1.824   0.290   7.424 -0.0482 -1.5250  0.9107
   13SAPS   C38 1696   1.961   0.354   7.588  0.0656  0.6824  0.0376
   13SAPS   H8X 1697   1.948   0.464   7.597 -1.4858  0.3593  2.8527
   13SAPS   H8Y 1698   2.064   0.334   7.623  0.5177  1.4002 -0.8296
   13SAPS   C39 1699   1.862   0.287   7.680  0.0183  0.1848  0.1920
   13SAPS   H9X 1700   1.859   0.177   7.668 -1.4031  0.3487 -1.4194
   13SAPS   H9Y 1701   1.766   0.339   7.659  0.9467  0.9793 -2.5158
   13SAPS  C310 1702   1.902   0.310   7.830  0.3430  0.9724 -0.2921
   13SAPS  H10X 1703   1.888   0.418   7.851 -0.5196  1.0834 -1.3493
   13SAPS  H10Y 1704   2.011   0.291   7.834  0.0664 -1.4249 -1.8365
   13SAPS  C311 1705   1.831   0.201   7.913 -0.0089 -0.5048  0.0434
   13SAPS  H11X 1706   1.867   0.100   7.884  1.4474 -0.0910  0.3320
   13SAPS  H11Y 1707   1.725   0.211   7.884  0.0378 -0.3018 -0.0605
   13SAPS  C312 1708   1.849   0.228   8.066 -0.0925  0.3963  0.3363
   13SAPS  H12X 1709   1.953   0.200   8.093 -0.5945 -0.4260  1.5272
   13SAPS  H12Y 1710   1.788   0.152   8.120 -1.7603 -0.4567 -2.5600
   13SAPS  C313 1711   1.810   0.368   8.109 -0.1957  0.6060 -0.6187
   13SAPS  H13X 1712   1.709   0.388   8.069 -1.5216 -1.0738  1.6137
   13SAPS  H13Y 1713   1.885   0.442   8.074  2.6195 -1.6771  0.1618
   13SAPS  C314 1714   1.794   0.378   8.266 -0.3208 -0.8658 -0.2150
   13SAPS  H14X 1715   1.897   0.357   8.304 -0.5737 -0.8393  0.4930
   13SAPS  H14Y 1716   1.727   0.295   8.297 -2.0988  0.6632  0.2288
   13SAPS  C315 1717   1.745   0.514   8.313 -0.4129 -0.4562  0.2838
   13SAPS  H15X 1718   1.649   0.539   8.264  0.0346  2.1260  0.5918
   13SAPS  H15Y 1719   1.816   0.585   8.265 -0.5845 -2.4875 -3.3932
   13SAPS  C316 1720   1.741   0.523   8.460 -0.0517  0.5617  0.1713
   13SAPS  H16X 1721   1.739   0.630   8.490  0.9262  0.4923  0.5163
   13SAPS  H16Y 1722   1.828   0.486   8.518 -0.5463 -0.0507  0.5359
   13SAPS  C317 1723   1.617   0.459   8.523  0.1899  0.3412 -0.1964
   13SAPS  H17X 1724   1.629   0.349   8.532  0.6125  0.2060 -2.0137
   13SAPS  H17Y 1725   1.535   0.487   8.454  1.8511  1.5718 -1.7927
   13SAPS  C318 1726   1.589   0.503   8.667  0.3054 -0.3335 -0.3615
   13SAPS  H18X 1727   1.486   0.468   8.690 -0.4999  2.9540  1.7633
   13SAPS  H18Y 1728   1.589   0.612   8.688  0.0976 -0.5287  0.6844
   13SAPS  H18Z 1729   1.652   0.450   8.741  0.8462 -0.0723 -0.6245
   14SAPS     N 1730   3.504   1.007   5.234  0.2916 -0.1589  0.0080
   14SAPS   HN1 1731   3.604   1.009   5.207  0.2704  0.8561 -0.0579
   14SAPS   HN2 1732   3.450   1.013   5.146  0.7290 -1.3204 -0.3522
   14SAPS   HN3 1733   3.490   1.098   5.284 -2.2066 -1.2152  1.4330
   14SAPS   C12 1734   3.473   0.888   5.317 -0.0309  0.2655 -0.6638
   14SAPS  H12A 1735   3.365   0.882   5.323 -0.0872  1.9544  0.3942
   14SAPS   C13 1736   3.554   0.754   5.276 -0.1916  0.2037 -0.2318
   14SAPS  O13A 1737   3.637   0.765   5.185  0.0893 -0.4537  0.1259
   14SAPS  O13B 1738   3.503   0.641   5.298  0.1460 -0.5883 -0.4368
   14SAPS   C11 1739   3.506   0.917   5.462 -0.4764  0.0065 -0.8085
   14SAPS  H11A 1740   3.617   0.923   5.467 -0.4521 -0.3142 -0.9099
   14SAPS  H11B 1741   3.469   0.837   5.530  1.4947  0.2243  0.5981
   14SAPS     P 1742   3.332   1.037   5.622 -0.3601 -0.1217 -0.3537
   14SAPS   O13 1743   3.277   1.172   5.622  0.7316  0.1988  0.3806
   14SAPS   O14 1744   3.240   0.923   5.613  0.1200  0.4365  0.4056
   14SAPS   O12 1745   3.443   1.038   5.508 -0.3374  0.1133  0.2844
   14SAPS   O11 1746   3.408   1.017   5.757 -0.5138  0.3251  0.1748
   14SAPS    C1 1747   3.516   1.104   5.778 -0.6172 -0.6956 -0.6265
   14SAPS    HA 1748   3.612   1.058   5.746 -1.0489 -0.7000 -1.9734
   14SAPS    HB 1749   3.507   1.202   5.725 -0.2929  0.3877  1.2229
   14SAPS    C2 1750   3.524   1.140   5.927  0.0312 -0.0571 -0.2429
   14SAPS    HS 1751   3.547   1.248   5.938  0.5276 -0.1176 -0.6986
   14SAPS   O21 1752   3.628   1.060   5.987 -0.2585 -0.5065  0.2538
   14SAPS   C21 1753   3.655   1.081   6.114 -0.1887  0.0148 -0.1571
   14SAPS   O22 1754   3.624   1.174   6.183  0.5371 -0.6941 -0.2014
   14SAPS   C22 1755   3.758   0.977   6.157 -0.3035  0.3469  0.0999
   14SAPS   H2R 1756   3.744   0.883   6.099 -1.3627  1.8062 -2.1196
   14SAPS   H2S 1757   3.860   1.011   6.128  0.2982 -2.1263 -0.9984
   14SAPS    C3 1758   3.382   1.116   5.991  0.5076  0.5113 -0.0728
   14SAPS    HX 1759   3.360   1.007   5.985  1.6516  0.0148  2.9478
   14SAPS    HY 1760   3.300   1.163   5.934 -1.5291 -0.4205  1.9299
   14SAPS   O31 1761   3.371   1.162   6.128 -0.7214 -0.3309 -0.2225
   14SAPS   C31 1762   3.277   1.107   6.200 -1.1991  0.1087 -0.7254
   14SAPS   O32 1763   3.196   1.020   6.160 -0.1907  0.1927  0.2382
   14SAPS   C32 1764   3.285   1.172   6.346 -0.9635  0.2506  0.7225
   14SAPS   H2X 1765   3.281   1.283   6.340 -0.9587  0.2542  0.7833
   14SAPS   H2Y 1766   3.386   1.148   6.384 -1.7482 -2.7064  1.2583
   14SAPS   C23 1767   3.755   0.939   6.309  0.3564  0.1294  0.0892
   14SAPS   H3R 1768   3.720   1.019   6.377 -0.7273  1.4664 -1.9603
   14SAPS   H3S 1769   3.855   0.899   6.336  0.4614  1.3419  1.5904
   14SAPS   C24 1770   3.668   0.808   6.328  0.1022  0.1083 -0.6344
   14SAPS   H4R 1771   3.687   0.785   6.435  0.2792  2.0434 -0.2157
   14SAPS   H4S 1772   3.706   0.726   6.263 -0.3546 -2.3004  1.9468
   14SAPS   C25 1773   3.518   0.830   6.315 -0.4759  0.3969 -0.4680
   14SAPS   H5R 1774   3.473   0.793   6.222  2.5533 -1.1941 -1.4573
   14SAPS   C26 1775   3.432   0.862   6.409 -0.0244 -0.2995 -0.5148
   14SAPS   H6R 1776   3.325   0.873   6.386  0.3769 -2.2949 -4.1202
   14SAPS   C27 1777   3.476   0.903   6.548 -0.1839  0.0839  0.9807
   14SAPS   H7R 1778   3.513   1.007   6.542 -2.0676  0.7765  0.6839
   14SAPS   H7S 1779   3.562   0.840   6.579 -0.2099 -0.9306 -0.8828
   14SAPS   C28 1780   3.364   0.894   6.652 -0.0970 -0.2732  0.5112
   14SAPS   H8R 1781   3.286   0.817   6.640 -0.8056  0.3066  1.2357
   14SAPS   C29 1782   3.356   0.971   6.762 -0.5765 -0.2152 -0.6828
   14SAPS   H9R 1783   3.279   0.946   6.836  0.6547 -1.6720  0.1578
   14SAPS  C210 1784   3.448   1.078   6.805 -0.3745 -0.7366 -0.4826
   14SAPS  H10R 1785   3.388   1.171   6.808 -1.0381 -1.1702  1.8470
   14SAPS  H10S 1786   3.534   1.096   6.737  1.2264 -2.7275  0.8582
   14SAPS  C211 1787   3.505   1.058   6.940 -0.1752  0.2100 -0.1021
   14SAPS  H11R 1788   3.604   1.011   6.929 -0.0759  0.4909 -0.4181
   14SAPS  C212 1789   3.452   1.091   7.063  0.9679 -0.2430  0.2665
   14SAPS  H12R 1790   3.512   1.097   7.155 -0.0226 -0.5160  0.9400
   14SAPS  C213 1791   3.318   1.167   7.085 -0.5599 -0.0925 -0.0146
   14SAPS  H13R 1792   3.277   1.167   6.982 -0.1322 -0.5530 -0.1843
   14SAPS  H13S 1793   3.325   1.274   7.114  1.5101  0.0000 -0.6733
   14SAPS  C214 1794   3.222   1.093   7.172  0.2801  0.7341  0.4948
   14SAPS  H14R 1795   3.136   1.050   7.119  0.6626  0.0416  0.4180
   14SAPS  C215 1796   3.228   1.094   7.309 -0.0636  0.5605  0.2390
   14SAPS  H15R 1797   3.151   1.034   7.360 -0.3755  0.4891 -0.3116
   14SAPS  C216 1798   3.331   1.164   7.398  0.7968  0.0173  0.4463
   14SAPS  H16R 1799   3.423   1.180   7.339  0.4744 -2.7475 -0.9509
   14SAPS  H16S 1800   3.365   1.099   7.481 -0.4315  0.3121  1.2271
   14SAPS  C217 1801   3.265   1.286   7.461 -0.7785  1.0803 -1.0761
   14SAPS  H17R 1802   3.196   1.250   7.540  0.2227  0.0750 -0.6439
   14SAPS  H17S 1803   3.213   1.353   7.389 -3.1935 -0.1490 -0.5693
   14SAPS  C218 1804   3.367   1.366   7.544 -0.2037  0.3607 -0.3073
   14SAPS  H18R 1805   3.430   1.428   7.477  1.0889  0.5830  1.0536
   14SAPS  H18S 1806   3.438   1.294   7.590  0.5438  0.6378 -0.9891
   14SAPS  C219 1807   3.303   1.465   7.646  0.3957  0.2560 -0.3816
   14SAPS  H19R 1808   3.211   1.417   7.686 -0.3619  2.0766  0.1980
   14SAPS  H19S 1809   3.268   1.558   7.596 -0.7862 -0.0107 -0.0922
   14SAPS  C220 1810   3.381   1.485   7.773  0.3906 -0.2418 -0.1048
   14SAPS  H20R 1811   3.392   1.385   7.822 -1.2175  0.1190  1.1047
   14SAPS  H20S 1812   3.325   1.565   7.826  0.7869  0.0461 -0.1159
   14SAPS  H20T 1813   3.483   1.522   7.751  0.6546 -1.0070 -0.2177
   14SAPS   C33 1814   3.168   1.126   6.437 -0.1596 -0.7142 -0.0711
   14SAPS   H3X 1815   3.168   1.016   6.455 -0.9406 -0.4428  1.9113
   14SAPS   H3Y 1816   3.079   1.152   6.376  0.1188  0.4191 -0.0286
   14SAPS   C34 1817   3.181   1.201   6.579 -0.1702 -0.0522  0.2098
   14SAPS   H4X 1818   3.214   1.302   6.545 -0.7054 -0.1136 -0.5330
   14SAPS   H4Y 1819   3.271   1.159   6.628 -0.3662 -0.3181  0.3409
   14SAPS   C35 1820   3.059   1.193   6.671 -0.0247 -0.1715  0.2121
   14SAPS   H5X 1821   3.061   1.096   6.725  1.5208  1.0599  2.5521
   14SAPS   H5Y 1822   2.963   1.203   6.617 -0.2854  0.6196  0.7963
   14SAPS   C36 1823   3.073   1.295   6.785  0.1346  0.0784  0.2629
   14SAPS   H6X 1824   3.075   1.396   6.741  1.6284 -0.9040 -2.1195
   14SAPS   H6Y 1825   3.179   1.283   6.815  0.0649 -0.4345  0.3267
   14SAPS   C37 1826   2.972   1.276   6.900  0.2940  0.2701  0.0146
   14SAPS   H7X 1827   2.978   1.176   6.948 -0.2425 -0.0942 -0.6535
   14SAPS   H7Y 1828   2.868   1.287   6.862  0.9512 -1.4733 -2.6172
   14SAPS   C38 1829   2.982   1.370   7.020 -0.0587  0.3559 -0.5161
   14SAPS   H8X 1830   2.976   1.475   6.982  3.0111  0.3175 -1.3839
   14SAPS   H8Y 1831   3.085   1.363   7.062  0.7036 -0.8223 -2.4521
   14SAPS   C39 1832   2.895   1.333   7.137 -1.1362 -0.3786 -0.1085
   14SAPS   H9X 1833   2.915   1.229   7.171 -2.1221 -0.2580  0.8747
   14SAPS   H9Y 1834   2.787   1.333   7.110 -1.4403  0.1594  1.0721
   14SAPS  C310 1835   2.922   1.417   7.259 -0.0694  0.4102  0.1789
   14SAPS  H10X 1836   2.881   1.519   7.244  1.0750  0.5122 -3.0255
   14SAPS  H10Y 1837   3.031   1.422   7.284 -0.0133 -0.6134  0.1664
   14SAPS  C311 1838   2.863   1.343   7.379  0.3908 -0.2978 -0.9811
   14SAPS  H11X 1839   2.912   1.243   7.384  0.0239 -0.4171  0.7653
   14SAPS  H11Y 1840   2.752   1.341   7.371  0.4843  0.1274 -2.7691
   14SAPS  C312 1841   2.884   1.412   7.519 -0.2837  0.1942  0.3389
   14SAPS  H12X 1842   2.800   1.483   7.535 -1.6161 -1.1454 -0.4729
   14SAPS  H12Y 1843   2.978   1.471   7.513 -0.5620  0.9582  2.3890
   14SAPS  C313 1844   2.911   1.334   7.654  0.1776 -0.0745  0.7728
   14SAPS  H13X 1845   3.016   1.300   7.667  0.3958  0.0928 -0.3972
   14SAPS  H13Y 1846   2.838   1.252   7.671  1.1232 -0.7793  1.5609
   14SAPS  C314 1847   2.888   1.431   7.776 -0.0227  0.6981  0.3709
   14SAPS  H14X 1848   2.784   1.471   7.774 -0.6692 -0.9164 -0.5355
   14SAPS  H14Y 1849   2.953   1.520   7.766  0.6468  0.0445 -1.6582
   14SAPS  C315 1850   2.908   1.364   7.915  0.3564  0.7247  0.2584
   14SAPS  H15X 1851   2.871   1.435   7.993  1.5222  0.9674  0.6147
   14SAPS  H15Y 1852   3.017   1.349   7.931  0.8486  0.8285 -2.4260
   14SAPS  C316 1853   2.832   1.232   7.942  0.4794 -0.1697  0.4389
   14SAPS  H16X 1854   2.891   1.157   7.885  2.4092 -0.0384  2.1437
   14SAPS  H16Y 1855   2.731   1.243   7.898  0.7868 -1.8262 -0.7712
   14SAPS  C317 1856   2.829   1.195   8.094 -0.0871 -0.6931  0.4080
   14SAPS  H17X 1857   2.791   1.284   8.149  2.3884 -0.3423  1.6678
   14SAPS  H17Y 1858   2.935   1.180   8.124 -0.0227 -0.9864  0.0421
   14SAPS  C318 1859   2.752   1.071   8.134  0.6738 -0.0434  0.4802
   14SAPS  H18X 1860   2.756   1.046   8.243  2.0815 -1.6376  0.1013
   14SAPS  H18Y 1861   2.807   0.986   8.088  0.0065 -0.2110 -0.0212
   14SAPS  H18Z 1862   2.650   1.083   8.093  0.6535  0.3952  0.6526
   15SAPS     N 1863   4.340   2.318   6.120  0.0626 -0.0393 -0.1856
   15SAPS   HN1 1864   4.393   2.320   6.210 -0.7070  2.3224  0.2835
   15SAPS   HN2 1865   4.390   2.245   6.065 -1.6963 -1.0389 -0.5487
   15SAPS   HN3 1866   4.347   2.408   6.069  0.2229 -0.9354 -1.8226
   15SAPS   C12 1867   4.206   2.273   6.142  0.2319  0.2043 -0.7645
   15SAPS  H12A 1868   4.171   2.326   6.229  1.8663 -0.4970  0.3531
   15SAPS   C13 1869   4.107   2.301   6.029 -0.8603 -0.1833  0.4667
   15SAPS  O13A 1870   4.145   2.353   5.927 -0.0971 -0.3138  0.0402
   15SAPS  O13B 1871   3.987   2.284   6.053 -0.3180 -0.1434 -0.2717
   15SAPS   C11 1872   4.211   2.118   6.172 -0.1752  0.1306  0.2166
   15SAPS  H11A 1873   4.114   2.078   6.207  0.3174  0.1759  1.6839
   15SAPS  H11B 1874   4.281   2.098   6.256  1.4296  0.5885 -0.9374
   15SAPS     P 1875   4.393   1.974   6.046 -0.0150 -0.2351 -0.1629
   15SAPS   O13 1876   4.393   1.895   5.924  0.3704 -0.0795  0.3084
   15SAPS   O14 1877   4.497   2.082   6.054  0.9438 -0.2252  0.8732
   15SAPS   O12 1878   4.250   2.037   6.059  0.0904 -0.5833  0.1741
   15SAPS   O11 1879   4.409   1.872   6.166  0.8267 -0.2599 -0.5028
   15SAPS    C1 1880   4.306   1.780   6.211  0.3991 -0.7668 -0.0667
   15SAPS    HA 1881   4.214   1.767   6.149 -1.2029 -0.0472  2.0371
   15SAPS    HB 1882   4.353   1.680   6.222  0.2844 -0.6995  1.1641
   15SAPS    C2 1883   4.253   1.818   6.356  0.4192 -0.3416  0.2412
   15SAPS    HS 1884   4.211   1.920   6.344  0.7979 -0.2966 -0.8419
   15SAPS   O21 1885   4.368   1.811   6.447  0.2208  0.5338 -0.1782
   15SAPS   C21 1886   4.385   1.921   6.520 -0.0509 -0.1659  0.0650
   15SAPS   O22 1887   4.321   2.026   6.512  0.2924 -0.3763 -0.4426
   15SAPS   C22 1888   4.490   1.896   6.628  0.3004 -0.5529  0.1077
   15SAPS   H2R 1889   4.457   1.823   6.705  1.8787  0.3991  1.7817
   15SAPS   H2S 1890   4.575   1.852   6.572  0.8096  1.6911 -0.9962
   15SAPS    C3 1891   4.144   1.716   6.402  0.2146 -0.8055 -0.2000
   15SAPS    HX 1892   4.184   1.614   6.388  1.1379 -0.4962  0.0916
   15SAPS    HY 1893   4.057   1.726   6.333 -0.4509  2.0209  0.8910
   15SAPS   O31 1894   4.113   1.726   6.547 -0.2086  0.1102  0.0480
   15SAPS   C31 1895   4.037   1.830   6.575  0.1771  0.4971 -0.8823
   15SAPS   O32 1896   3.992   1.909   6.495  0.2430 -0.1006 -0.0214
   15SAPS   C32 1897   4.003   1.829   6.723  0.1897  0.6795 -0.4000
   15SAPS   H2X 1898   3.953   1.735   6.753 -3.6068  1.9266 -2.1239
   15SAPS   H2Y 1899   3.928   1.910   6.738  0.1212  0.4892  0.3203
   15SAPS   C23 1900   4.548   2.016   6.695 -0.1972 -0.7945  0.2196
   15SAPS   H3R 1901   4.468   2.079   6.738 -1.1399 -1.1427 -0.9677
   15SAPS   H3S 1902   4.619   2.066   6.625  1.6471 -1.5767  1.4237
   15SAPS   C24 1903   4.654   1.975   6.805  0.6812  0.1285  0.4478
   15SAPS   H4R 1904   4.725   1.909   6.751  1.6245  0.4958  1.2073
   15SAPS   H4S 1905   4.600   1.911   6.878 -0.7522  2.5273  1.6038
   15SAPS   C25 1906   4.721   2.093   6.863 -0.0294 -0.6402  0.4009
   15SAPS   H5R 1907   4.768   2.156   6.786  0.0856 -2.5720 -1.1837
   15SAPS   C26 1908   4.727   2.124   6.994 -0.0763 -1.1235  1.0945
   15SAPS   H6R 1909   4.799   2.200   7.029 -0.1871 -0.5690  0.1467
   15SAPS   C27 1910   4.663   2.052   7.100 -0.1910  0.8719  0.0200
   15SAPS   H7R 1911   4.558   2.030   7.069 -0.1892  1.1334 -0.1779
   15SAPS   H7S 1912   4.643   2.123   7.183  0.3450  0.9678  0.0674
   15SAPS   C28 1913   4.720   1.922   7.135  0.4187 -0.2495 -0.1952
   15SAPS   H8R 1914   4.758   1.857   7.054 -0.4787 -1.9713  0.7112
   15SAPS   C29 1915   4.727   1.861   7.255  0.4466  0.4116  0.1257
   15SAPS   H9R 1916   4.774   1.764   7.274 -1.9772 -1.0906 -1.0861
   15SAPS  C210 1917   4.678   1.917   7.382  0.8448 -0.0541  0.5003
   15SAPS  H10R 1918   4.684   2.028   7.381  2.1163 -0.1062  0.5157
   15SAPS  H10S 1919   4.764   1.897   7.450  1.8764 -2.5392 -1.3660
   15SAPS  C211 1920   4.540   1.886   7.425  0.4438  0.2374 -0.6881
   15SAPS  H11R 1921   4.464   1.868   7.348 -0.3192 -0.2598  0.1548
   15SAPS  C212 1922   4.500   1.890   7.551  0.6779  0.6173 -0.1190
   15SAPS  H12R 1923   4.397   1.864   7.579  0.0330  1.8591 -1.2164
   15SAPS  C213 1924   4.592   1.908   7.671  0.4407 -0.3597  0.3141
   15SAPS  H13R 1925   4.602   2.018   7.686  2.5885 -0.3913 -0.6254
   15SAPS  H13S 1926   4.696   1.876   7.649  0.2436  0.2274 -1.6806
   15SAPS  C214 1927   4.545   1.848   7.794 -0.0867 -0.7140  0.1360
   15SAPS  H14R 1928   4.455   1.786   7.787 -0.3184 -0.4754  0.8613
   15SAPS  C215 1929   4.600   1.870   7.914  0.1744  0.4022 -0.5710
   15SAPS  H15R 1930   4.569   1.810   8.001  3.0490 -1.1576 -0.4805
   15SAPS  C216 1931   4.710   1.972   7.938  0.3876  0.0425 -0.9842
   15SAPS  H16R 1932   4.771   1.993   7.848  2.3472  4.3398  1.0281
   15SAPS  H16S 1933   4.784   1.929   8.010  0.4402 -0.0231 -1.0775
   15SAPS  C217 1934   4.647   2.108   7.982  0.3321  0.2094  0.7949
   15SAPS  H17R 1935   4.552   2.122   7.926  0.1135 -1.1463  0.8129
   15SAPS  H17S 1936   4.713   2.192   7.950  1.7286 -1.2100 -0.1757
   15SAPS  C218 1937   4.601   2.126   8.123 -0.2477  0.3655 -0.0460
   15SAPS  H18R 1938   4.692   2.106   8.185 -0.0451 -1.3698 -0.8624
   15SAPS  H18S 1939   4.529   2.052   8.163  1.5729  0.0187  2.9355
   15SAPS  C219 1940   4.540   2.271   8.147 -0.4531  0.1034 -0.0504
   15SAPS  H19R 1941   4.462   2.293   8.071  0.6813  1.2987 -0.9217
   15SAPS  H19S 1942   4.615   2.350   8.125 -1.8092  1.4464 -0.0347
   15SAPS  C220 1943   4.493   2.288   8.287  0.1766  0.2873 -0.6518
   15SAPS  H20R 1944   4.585   2.281   8.348  0.2698 -1.7956 -0.9409
   15SAPS  H20S 1945   4.435   2.204   8.331 -1.4380  2.2693  1.2342
   15SAPS  H20T 1946   4.441   2.384   8.306  1.7012  1.4047 -1.8134
   15SAPS   C33 1947   4.133   1.846   6.803  0.8763 -0.1355  0.2711
   15SAPS   H3X 1948   4.183   1.942   6.776  0.5395  0.0013  0.1285
   15SAPS   H3Y 1949   4.199   1.758   6.791  0.6496 -0.4678  1.3946
   15SAPS   C34 1950   4.098   1.850   6.953  0.2847 -0.0442 -0.9188
   15SAPS   H4X 1951   4.059   1.754   6.994 -0.4333  1.3607  1.9852
   15SAPS   H4Y 1952   3.999   1.901   6.962  0.5914  0.4516 -0.2418
   15SAPS   C35 1953   4.197   1.924   7.033 -0.8674 -0.7350  0.2041
   15SAPS   H5X 1954   4.241   2.014   6.985  1.1325 -1.4123  0.6810
   15SAPS   H5Y 1955   4.279   1.860   7.071 -0.7215 -1.6903 -1.5814
   15SAPS   C36 1956   4.135   1.984   7.158  0.7606 -0.4081 -0.1857
   15SAPS   H6X 1957   4.104   1.890   7.209  3.2276 -0.9576  0.4506
   15SAPS   H6Y 1958   4.051   2.048   7.124  0.5257 -0.7351 -0.2238
   15SAPS   C37 1959   4.230   2.057   7.256 -0.6994  0.4952  0.2336
   15SAPS   H7X 1960   4.225   2.163   7.223 -0.9271  0.2509 -0.5624
   15SAPS   H7Y 1961   4.334   2.019   7.246 -0.5372  0.7266  0.9831
   15SAPS   C38 1962   4.169   2.057   7.400 -0.4346  0.2283  0.2040
   15SAPS   H8X 1963   4.250   2.090   7.468  0.1228  0.9666 -0.7784
   15SAPS   H8Y 1964   4.137   1.955   7.431  0.8942 -0.2314  0.1232
   15SAPS   C39 1965   4.059   2.160   7.409 -0.4631 -0.4562 -0.6982
   15SAPS   H9X 1966   3.984   2.135   7.331 -0.2985  0.2924 -1.1076
   15SAPS   H9Y 1967   4.098   2.263   7.399 -0.3046 -0.5161 -0.7127
   15SAPS  C310 1968   3.986   2.141   7.541 -1.1196 -0.5235 -0.1928
   15SAPS  H10X 1969   4.058   2.182   7.615  0.4149  0.0657 -1.9602
   15SAPS  H10Y 1970   3.957   2.036   7.564  0.6374 -0.7466  1.2751
   15SAPS  C311 1971   3.858   2.224   7.556  0.1425  0.0780  0.9336
   15SAPS  H11X 1972   3.812   2.226   7.455  0.4082 -0.6484  0.7909
   15SAPS  H11Y 1973   3.869   2.332   7.576  1.2337  0.0148  0.7597
   15SAPS  C312 1974   3.762   2.166   7.656 -0.1978  0.5177 -0.2753
   15SAPS  H12X 1975   3.769   2.059   7.688 -1.8669  0.6317  0.5932
   15SAPS  H12Y 1976   3.664   2.174   7.604 -0.9047 -1.1030  0.7329
   15SAPS  C313 1977   3.743   2.251   7.783 -0.2905  0.0514  0.5869
   15SAPS  H13X 1978   3.723   2.348   7.732 -0.8175 -0.8339 -0.9527
   15SAPS  H13Y 1979   3.834   2.253   7.846 -0.6540  0.0250  1.1128
   15SAPS  C314 1980   3.617   2.205   7.866 -0.2032  0.1098  0.1157
   15SAPS  H14X 1981   3.631   2.102   7.906 -2.6727 -0.7805 -1.1034
   15SAPS  H14Y 1982   3.534   2.190   7.793 -0.6987 -3.4121  1.2048
   15SAPS  C315 1983   3.578   2.301   7.971  0.1560 -0.4584 -0.2131
   15SAPS  H15X 1984   3.536   2.394   7.926  0.1300  0.0563  0.8194
   15SAPS  H15Y 1985   3.674   2.336   8.015 -0.1386  2.1861 -1.4296
   15SAPS  C316 1986   3.486   2.239   8.079 -0.5169 -0.1988 -0.7689
   15SAPS  H16X 1987   3.432   2.151   8.038  0.4019 -2.0601  1.7206
   15SAPS  H16Y 1988   3.411   2.317   8.102  0.0610  0.3163 -0.6036
   15SAPS  C317 1989   3.567   2.205   8.208 -0.0199 -0.2422 -0.7949
   15SAPS  H17X 1990   3.621   2.298   8.237 -0.1197 -0.0770 -1.1354
   15SAPS  H17Y 1991   3.641   2.130   8.174  0.4248  0.2520 -0.9410
   15SAPS  C318 1992   3.480   2.151   8.321 -0.3884  0.3253 -0.9544
   15SAPS  H18X 1993   3.531   2.144   8.419 -4.5735  0.8255  1.4820
   15SAPS  H18Y 1994   3.444   2.048   8.296  0.5790 -0.3186  0.2086
   15SAPS  H18Z 1995   3.390   2.216   8.321  1.3271  2.8349 -0.4587
   16SAPS     N 1996   4.321   2.677   6.493  0.3749 -0.3248 -0.0480
   16SAPS   HN1 1997   4.378   2.659   6.578  1.9851  0.9074 -0.8002
   16SAPS   HN2 1998   4.314   2.778   6.471  0.7793 -0.0752  0.8968
   16SAPS   HN3 1999   4.225   2.639   6.504  0.3786 -0.2618  0.2102
   16SAPS   C12 2000   4.394   2.615   6.379  0.0097 -0.5048  0.8710
   16SAPS  H12A 2001   4.398   2.507   6.383 -1.1259 -0.5775  0.4095
   16SAPS   C13 2002   4.337   2.637   6.236 -0.5341  0.2631 -1.1212
   16SAPS  O13A 2003   4.225   2.690   6.237  0.4532  0.5405 -0.2566
   16SAPS  O13B 2004   4.395   2.583   6.135 -0.0373  0.6679  0.7479
   16SAPS   C11 2005   4.535   2.689   6.371  0.2201  0.6362  0.2259
   16SAPS  H11A 2006   4.521   2.797   6.349 -3.0464 -0.0145 -1.5910
   16SAPS  H11B 2007   4.596   2.642   6.290  2.4991 -0.6985  2.5631
   16SAPS     P 2008   4.648   2.549   6.563  0.2875 -0.3794  0.0621
   16SAPS   O13 2009   4.674   2.447   6.457  0.1652  0.6453 -0.2901
   16SAPS   O14 2010   4.758   2.576   6.665  0.9746 -0.3267 -0.0408
   16SAPS   O12 2011   4.605   2.680   6.492 -0.4986  0.7916 -0.4016
   16SAPS   O11 2012   4.506   2.501   6.628  0.1031  0.0388  0.1363
   16SAPS    C1 2013   4.508   2.411   6.743 -0.0297  0.1991  0.4151
   16SAPS    HA 2014   4.497   2.312   6.695  4.8869 -0.2589 -0.2420
   16SAPS    HB 2015   4.607   2.386   6.785 -0.8216 -0.0890  2.2095
   16SAPS    C2 2016   4.399   2.440   6.851  0.1483 -0.1936 -0.6151
   16SAPS    HS 2017   4.303   2.480   6.812 -0.6867  0.4438  1.8873
   16SAPS   O21 2018   4.454   2.532   6.949 -0.0530  0.5549 -0.0241
   16SAPS   C21 2019   4.433   2.660   6.921 -0.3509 -0.2165 -0.4586
   16SAPS   O22 2020   4.396   2.708   6.818 -0.1225  0.0731  0.3740
   16SAPS   C22 2021   4.484   2.739   7.047  0.2838  0.1606  0.5176
   16SAPS   H2R 2022   4.527   2.665   7.117 -0.9002 -2.8565 -1.7295
   16SAPS   H2S 2023   4.570   2.794   7.002  0.0039 -1.0564 -1.6236
   16SAPS    C3 2024   4.368   2.313   6.934  0.4195 -0.6533 -0.1586
   16SAPS    HX 2025   4.453   2.287   7.000 -0.0470  1.3882  1.3366
   16SAPS    HY 2026   4.358   2.225   6.866  1.3764 -2.8743  2.3947
   16SAPS   O31 2027   4.250   2.336   7.017 -0.1077 -0.0741  0.3418
   16SAPS   C31 2028   4.131   2.302   6.966 -0.0196 -0.2518  0.5874
   16SAPS   O32 2029   4.113   2.244   6.864 -0.1317 -0.6748 -0.0650
   16SAPS   C32 2030   4.018   2.350   7.054  0.0125 -0.0232 -0.3118
   16SAPS   H2X 2031   4.001   2.275   7.134  2.4680  1.2460  1.5460
   16SAPS   H2Y 2032   3.934   2.364   6.983 -0.9593  1.6280  1.0723
   16SAPS   C23 2033   4.374   2.834   7.105 -0.8539 -0.9529 -0.1511
   16SAPS   H3R 2034   4.325   2.886   7.020 -0.8248  0.4117  0.6384
   16SAPS   H3S 2035   4.432   2.906   7.166 -1.3275  1.2822 -2.1672
   16SAPS   C24 2036   4.271   2.763   7.195 -0.5391  0.4437  0.3321
   16SAPS   H4R 2037   4.319   2.692   7.265 -1.4858 -0.5259  0.0253
   16SAPS   H4S 2038   4.206   2.700   7.131 -0.8919 -0.9758  2.0096
   16SAPS   C25 2039   4.190   2.866   7.262  0.0073 -0.6914 -0.1187
   16SAPS   H5R 2040   4.133   2.936   7.198  0.4046 -0.2419  0.0076
   16SAPS   C26 2041   4.164   2.870   7.393  0.1543 -0.7000 -0.3280
   16SAPS   H6R 2042   4.080   2.932   7.426  0.0471 -0.5532 -0.8826
   16SAPS   C27 2043   4.215   2.780   7.509 -0.7494 -0.8587 -0.0791
   16SAPS   H7R 2044   4.212   2.834   7.605 -2.0834  3.8016 -2.4593
   16SAPS   H7S 2045   4.326   2.779   7.505 -0.6158  2.7743 -0.7916
   16SAPS   C28 2046   4.152   2.649   7.519 -0.0060  0.0708 -0.4344
   16SAPS   H8R 2047   4.202   2.567   7.465  0.2099 -1.3606  1.8081
   16SAPS   C29 2048   4.037   2.629   7.581 -0.2371 -0.2438  0.3250
   16SAPS   H9R 2049   3.995   2.528   7.584 -1.5506  0.2718 -0.0637
   16SAPS  C210 2050   3.946   2.739   7.648 -1.0750  0.3647  0.0659
   16SAPS  H10R 2051   3.884   2.796   7.576 -0.6546 -1.1952 -1.6440
   16SAPS  H10S 2052   3.996   2.821   7.703 -4.0587  0.7648  2.3720
   16SAPS  C211 2053   3.854   2.665   7.739  0.6238 -0.0902  0.5739
   16SAPS  H11R 2054   3.774   2.603   7.696  0.5495  0.7092 -0.4660
   16SAPS  C212 2055   3.863   2.674   7.872 -0.0882 -0.0499  0.0272
   16SAPS  H12R 2056   3.787   2.623   7.932 -0.4837 -1.1180 -1.3467
   16SAPS  C213 2057   3.966   2.757   7.950  0.0531 -0.4410 -1.0748
   16SAPS  H13R 2058   3.933   2.761   8.056 -1.5856 -0.2378 -1.5719
   16SAPS  H13S 2059   3.949   2.865   7.936 -3.4906 -0.3070  2.4678
   16SAPS  C214 2060   4.107   2.725   7.943  0.0790 -0.4569 -0.2298
   16SAPS  H14R 2061   4.137   2.662   7.858  0.0724 -0.0067 -0.5759
   16SAPS  C215 2062   4.212   2.776   8.022 -0.3683  0.6907 -0.6750
   16SAPS  H15R 2063   4.313   2.736   8.010 -0.2861  0.2998  1.0716
   16SAPS  C216 2064   4.197   2.875   8.134 -0.0811  0.5094 -0.2585
   16SAPS  H16R 2065   4.097   2.893   8.178  1.9877  1.6306  4.5616
   16SAPS  H16S 2066   4.232   2.976   8.104 -0.1626  1.0472  1.3793
   16SAPS  C217 2067   4.288   2.822   8.248  0.3475  0.3237  0.0157
   16SAPS  H17R 2068   4.389   2.811   8.203  0.4502 -1.8411  0.6822
   16SAPS  H17S 2069   4.253   2.722   8.279  0.2237  0.4472  0.2808
   16SAPS  C218 2070   4.280   2.915   8.367  0.1579  0.0849  0.1839
   16SAPS  H18R 2071   4.335   2.860   8.445  0.6580 -2.2824 -1.7245
   16SAPS  H18S 2072   4.172   2.924   8.392  0.0998  0.0416 -0.0525
   16SAPS  C219 2073   4.340   3.050   8.338  0.3356 -0.3443 -0.1091
   16SAPS  H19R 2074   4.295   3.118   8.414  0.5961 -0.3493  0.0483
   16SAPS  H19S 2075   4.310   3.096   8.241  2.0846 -0.3423 -0.6690
   16SAPS  C220 2076   4.486   3.061   8.355 -0.9603  0.4351  0.4281
   16SAPS  H20R 2077   4.526   3.014   8.448  0.7344  0.1183 -0.4165
   16SAPS  H20S 2078   4.526   3.164   8.356 -0.1890  0.1609 -0.6930
   16SAPS  H20T 2079   4.534   3.005   8.271 -1.5820  1.6463 -0.7709
   16SAPS   C33 2080   4.054   2.485   7.132  0.2792 -0.4506 -0.6310
   16SAPS   H3X 2081   4.108   2.543   7.055  0.0699  1.3447  0.5165
   16SAPS   H3Y 2082   4.113   2.461   7.224  0.4820  0.2618 -0.5707
   16SAPS   C34 2083   3.934   2.568   7.180  0.3875  0.3347  0.1068
   16SAPS   H4X 2084   3.978   2.635   7.257  0.3200  0.5339 -0.0270
   16SAPS   H4Y 2085   3.872   2.490   7.229  0.0032 -0.4159 -1.4939
   16SAPS   C35 2086   3.859   2.634   7.061  0.9898 -0.4292 -0.7121
   16SAPS   H5X 2087   3.820   2.555   6.993 -1.0174 -0.4475  0.3760
   16SAPS   H5Y 2088   3.931   2.704   7.013 -0.3296  0.6700 -1.1443
   16SAPS   C36 2089   3.742   2.716   7.110 -0.6505 -0.0428 -0.2604
   16SAPS   H6X 2090   3.674   2.646   7.164 -3.5225  2.0323 -0.9463
   16SAPS   H6Y 2091   3.677   2.749   7.026 -1.5198 -3.6397 -1.1585
   16SAPS   C37 2092   3.794   2.836   7.189 -0.5253 -0.4208 -0.3905
   16SAPS   H7X 2093   3.869   2.890   7.128 -0.1019 -2.1547 -1.4808
   16SAPS   H7Y 2094   3.856   2.804   7.275 -0.0610 -3.1310 -1.6530
   16SAPS   C38 2095   3.680   2.929   7.226  0.3344  0.3991  0.4414
   16SAPS   H8X 2096   3.577   2.889   7.215 -0.1652  0.9979  2.5520
   16SAPS   H8Y 2097   3.685   3.012   7.152 -0.3671 -0.6796 -0.8778
   16SAPS   C39 2098   3.683   2.985   7.370  0.5209  0.2467 -0.4236
   16SAPS   H9X 2099   3.648   3.090   7.362 -0.9288 -0.1120  0.7499
   16SAPS   H9Y 2100   3.786   2.990   7.410 -0.2198  1.0723  1.5262
   16SAPS  C310 2101   3.579   2.912   7.457 -0.2777 -0.0858 -0.1660
   16SAPS  H10X 2102   3.586   2.803   7.437  1.0035 -0.1387  0.4566
   16SAPS  H10Y 2103   3.474   2.943   7.438 -0.1034  0.1842 -0.7294
   16SAPS  C311 2104   3.599   2.937   7.603 -0.6786 -0.2064  0.7198
   16SAPS  H11X 2105   3.694   2.883   7.627 -0.0883  0.6522  0.3418
   16SAPS  H11Y 2106   3.524   2.882   7.664  0.7891 -0.4718  2.3805
   16SAPS  C312 2107   3.606   3.086   7.631 -0.5865  0.0393 -0.1211
   16SAPS  H12X 2108   3.542   3.141   7.559  2.8354  2.3266 -1.6508
   16SAPS  H12Y 2109   3.709   3.123   7.617 -0.2701 -1.1145 -1.0165
   16SAPS  C313 2110   3.555   3.112   7.778 -0.1163  0.4287 -1.2983
   16SAPS  H13X 2111   3.451   3.077   7.791 -0.0429  0.6103 -0.1538
   16SAPS  H13Y 2112   3.554   3.223   7.782  1.3811  0.4154  1.3930
   16SAPS  C314 2113   3.658   3.062   7.876 -0.7073  0.2978  0.5941
   16SAPS  H14X 2114   3.762   3.085   7.843 -0.7593  1.8636  1.4213
   16SAPS  H14Y 2115   3.663   2.951   7.882  1.8729  0.3202  0.3462
   16SAPS  C315 2116   3.632   3.107   8.018  0.0609 -0.3922  0.1480
   16SAPS  H15X 2117   3.523   3.104   8.040 -0.7146  1.0739 -2.9274
   16SAPS  H15Y 2118   3.666   3.213   8.019 -2.9318  0.6689  0.4525
   16SAPS  C316 2119   3.697   3.027   8.125 -0.1691  0.1135  0.3705
   16SAPS  H16X 2120   3.804   3.053   8.110  0.0853 -0.1807  1.6015
   16SAPS  H16Y 2121   3.681   2.918   8.105 -0.3708  0.3399 -0.8034
   16SAPS  C317 2122   3.644   3.084   8.259 -0.7537  0.0557 -0.3926
   16SAPS  H17X 2123   3.648   3.194   8.244 -1.3366 -0.0862 -1.7580
   16SAPS  H17Y 2124   3.716   3.057   8.339  0.8911 -1.1005 -2.1844
   16SAPS  C318 2125   3.515   3.022   8.311  0.0713 -0.8207 -0.0555
   16SAPS  H18X 2126   3.534   2.913   8.308  0.8060 -0.6869 -1.1895
   16SAPS  H18Y 2127   3.428   3.046   8.246  0.1220  0.9773  0.4740
   16SAPS  H18Z 2128   3.478   3.052   8.411 -1.7633 -1.5917 -0.4700
   17SAPC     N 2129   3.001   0.000  10.416 -0.1337 -0.1458 -0.0026
   17SAPC   C12 2130   3.135  -0.066  10.403 -0.4071 -0.5692 -0.6655
   17SAPC  H12A 2131   3.206   0.014  10.386  0.5565 -1.6753 -2.1293
   17SAPC  H12B 2132   3.140  -0.137  10.322 -1.1480  1.5263 -2.6789
   17SAPC   C13 2133   2.971   0.068  10.292 -0.4648 -0.1250 -1.0139
   17SAPC  H13A 2134   2.976  -0.005  10.212 -1.1064 -1.5292  0.1984
   17SAPC  H13B 2135   2.869   0.104  10.285 -1.8199 -3.5355 -0.6834
   17SAPC  H13C 2136   3.032   0.155  10.270 -2.2171  1.0986 -1.2614
   17SAPC   C14 2137   2.901  -0.108  10.429  0.0240 -0.7437 -0.3951
   17SAPC  H14A 2138   2.902  -0.176  10.346 -1.7094 -1.1926 -0.0836
   17SAPC  H14B 2139   2.918  -0.166  10.519  2.2966 -2.5888 -1.8773
   17SAPC  H14C 2140   2.802  -0.068  10.441 -0.2345 -1.4732 -0.0185
   17SAPC   C15 2141   2.977   0.083  10.535 -0.3997  0.2089  0.2416
   17SAPC  H15A 2142   2.894   0.152  10.537  0.0608  0.7877 -0.1137
   17SAPC  H15B 2143   2.974   0.041  10.634 -4.1154  2.4215  1.2769
   17SAPC  H15C 2144   3.065   0.145  10.544 -0.8724  0.7853  0.9520
   17SAPC   C11 2145   3.185  -0.141  10.528  0.2089 -0.3118  0.3418
   17SAPC  H11A 2146   3.168  -0.086  10.622 -0.6053  0.4570 -0.2350
   17SAPC  H11B 2147   3.292  -0.162  10.511  0.3772 -0.5001  1.5717
   17SAPC     P 2148   3.150  -0.388  10.452  0.1332 -0.0416 -0.1313
   17SAPC   O13 2149   3.151  -0.360  10.307 -0.0749 -0.3138 -0.5679
   17SAPC   O14 2150   3.269  -0.448  10.515 -0.3744  0.3335  0.0483
   17SAPC   O12 2151   3.108  -0.259  10.539 -0.4533  0.3915 -0.2969
   17SAPC   O11 2152   3.040  -0.488  10.494  0.0686  0.0499  0.6528
   17SAPC    C1 2153   2.925  -0.512  10.408  0.2026 -0.5383 -0.3047
   17SAPC    HA 2154   2.836  -0.533  10.472 -1.3382  2.1647 -1.3627
   17SAPC    HB 2155   2.898  -0.420  10.351 -2.0190 -0.4370  0.7804
   17SAPC    C2 2156   2.954  -0.631  10.319  0.6935  0.4744 -0.4928
   17SAPC    HS 2157   3.040  -0.609  10.252 -0.5381 -0.1628 -2.3273
   17SAPC   O21 2158   2.841  -0.676  10.239  0.0851 -0.1584  0.0392
   17SAPC   C21 2159   2.806  -0.593  10.137  0.2785  0.2988  0.3513
   17SAPC   O22 2160   2.871  -0.504  10.092 -0.0096  0.1116  0.1397
   17SAPC   C22 2161   2.670  -0.643  10.086 -0.0096  0.1498  0.1491
   17SAPC   H2R 2162   2.631  -0.714  10.162  0.5241  0.4514  0.7083
   17SAPC   H2S 2163   2.609  -0.551  10.074 -1.6351 -0.9217 -0.1743
   17SAPC    C3 2164   2.993  -0.751  10.415 -1.0516 -0.3761  0.6049
   17SAPC    HX 2165   2.907  -0.770  10.483 -1.5045  0.7453  0.3740
   17SAPC    HY 2166   3.076  -0.713  10.478 -2.2695  2.2355  0.7959
   17SAPC   O31 2167   3.019  -0.871  10.343 -0.1766 -0.9953 -0.1542
   17SAPC   C31 2168   3.144  -0.893  10.321 -0.2040  0.4103  0.4835
   17SAPC   O32 2169   3.236  -0.812  10.328 -0.3328  0.1165  0.5827
   17SAPC   C32 2170   3.163  -1.026  10.248  0.1585 -0.3873 -0.4781
   17SAPC   H2X 2171   3.074  -1.091  10.262  1.1451 -1.1935  2.8245
   17SAPC   H2Y 2172   3.250  -1.075  10.296 -0.0968 -2.3732 -1.8986
   17SAPC   C23 2173   2.690  -0.728   9.960 -0.4893 -0.1492  0.0574
   17SAPC   H3R 2174   2.594  -0.780   9.938 -1.1558  0.7660  0.7444
   17SAPC   H3S 2175   2.763  -0.810   9.974 -0.2921  0.3704  2.4813
   17SAPC   C24 2176   2.735  -0.643   9.842 -0.3738  0.4243 -0.0219
   17SAPC   H4R 2177   2.756  -0.715   9.760  0.6321  1.6888 -0.9136
   17SAPC   H4S 2178   2.826  -0.586   9.869  0.4230  0.0479 -1.7723
   17SAPC   C25 2179   2.635  -0.540   9.806  0.0692 -0.1124 -0.1879
   17SAPC   H5R 2180   2.605  -0.467   9.883  2.5211  0.9964 -0.2040
   17SAPC   C26 2181   2.588  -0.526   9.681 -0.5904 -0.3096  0.0101
   17SAPC   H6R 2182   2.504  -0.457   9.666 -0.3312 -0.2549 -1.2513
   17SAPC   C27 2183   2.615  -0.618   9.567  1.0683  0.5604 -0.1377
   17SAPC   H7R 2184   2.662  -0.715   9.592  1.7160  0.8677 -0.1178
   17SAPC   H7S 2185   2.684  -0.569   9.495  0.2375  2.2093  0.1429
   17SAPC   C28 2186   2.475  -0.641   9.498 -1.3510  0.5127 -1.0561
   17SAPC   H8R 2187   2.408  -0.723   9.529  0.2359 -0.4218  0.0390
   17SAPC   C29 2188   2.415  -0.564   9.407  0.7511 -0.3692 -0.4616
   17SAPC   H9R 2189   2.311  -0.579   9.374  0.4463  2.8597 -1.2345
   17SAPC  C210 2190   2.476  -0.441   9.335  0.1689  0.0431  0.1191
   17SAPC  H10R 2191   2.585  -0.449   9.351  0.2759 -1.3845 -1.1288
   17SAPC  H10S 2192   2.440  -0.352   9.391  0.8241 -0.4450  1.3511
   17SAPC  C211 2193   2.449  -0.403   9.189  0.5964 -0.0112 -0.7831
   17SAPC  H11R 2194   2.428  -0.295   9.179 -1.7833 -0.0714  2.2566
   17SAPC  C212 2195   2.433  -0.478   9.085 -0.7574  0.4417 -0.1801
   17SAPC  H12R 2196   2.416  -0.427   8.990  2.3092 -0.5528 -1.3975
   17SAPC  C213 2197   2.446  -0.632   9.075 -0.4679 -0.3983 -0.7354
   17SAPC  H13R 2198   2.502  -0.670   9.163 -0.0727 -1.4477 -1.4239
   17SAPC  H13S 2199   2.512  -0.647   8.987  0.5587 -0.2362 -0.0129
   17SAPC  C214 2200   2.324  -0.708   9.041  1.2367  0.9579 -0.3131
   17SAPC  H14R 2201   2.288  -0.779   9.116 -1.0449  1.4999 -0.8182
   17SAPC  C215 2202   2.259  -0.699   8.926  0.5585 -0.8048 -0.7461
   17SAPC  H15R 2203   2.158  -0.744   8.925 -0.0063  0.3841  0.2527
   17SAPC  C216 2204   2.290  -0.615   8.810  0.5899 -0.1092  0.2599
   17SAPC  H16R 2205   2.342  -0.673   8.732  1.0185  2.2789 -1.3402
   17SAPC  H16S 2206   2.371  -0.543   8.835 -0.2021  0.0604  2.6419
   17SAPC  C217 2207   2.170  -0.547   8.742  0.2441 -0.3152 -0.4666
   17SAPC  H17R 2208   2.101  -0.498   8.815  0.7037  1.0745 -0.9308
   17SAPC  H17S 2209   2.105  -0.623   8.693  0.2745 -0.8062  0.2417
   17SAPC  C218 2210   2.204  -0.443   8.637 -0.5692 -0.2041  0.4405
   17SAPC  H18R 2211   2.281  -0.369   8.670  0.0046 -0.5806 -0.0237
   17SAPC  H18S 2212   2.108  -0.390   8.617 -0.5511 -0.3520 -0.0384
   17SAPC  C219 2213   2.251  -0.493   8.498 -0.2075  0.7652 -0.3140
   17SAPC  H19R 2214   2.173  -0.554   8.448  0.8896 -1.8636  0.9731
   17SAPC  H19S 2215   2.337  -0.560   8.519  0.4321  1.4372 -0.7433
   17SAPC  C220 2216   2.298  -0.388   8.399  0.1796  1.3781 -0.0034
   17SAPC  H20R 2217   2.319  -0.432   8.299  1.5240 -4.0566  2.2687
   17SAPC  H20S 2218   2.392  -0.336   8.429  0.0921  1.8943 -0.5976
   17SAPC  H20T 2219   2.215  -0.317   8.381 -1.2660 -0.0760  0.7363
   17SAPC   C33 2220   3.200  -1.011  10.094  0.0995 -0.3692 -0.6143
   17SAPC   H3X 2221   3.243  -1.108  10.061 -0.4076 -1.4885  1.7907
   17SAPC   H3Y 2222   3.273  -0.928  10.085  1.7916 -1.2417  3.2557
   17SAPC   C34 2223   3.069  -0.996  10.010  0.5814  1.0667  0.0269
   17SAPC   H4X 2224   2.998  -0.918  10.047  1.5692  1.8775  0.2665
   17SAPC   H4Y 2225   3.017  -1.092  10.029 -1.9688  2.6279  1.6599
   17SAPC   C35 2226   3.089  -0.984   9.854  0.3233  0.4784  0.1764
   17SAPC   H5X 2227   3.155  -1.062   9.812 -0.0695  0.9835 -1.4564
   17SAPC   H5Y 2228   3.135  -0.885   9.833  0.8744  0.4003  0.9750
   17SAPC   C36 2229   2.956  -0.998   9.781  0.7492 -0.4713  0.3629
   17SAPC   H6X 2230   2.887  -0.928   9.832  0.2606 -2.1070  2.0452
   17SAPC   H6Y 2231   2.914  -1.101   9.778  0.2061 -0.2435 -0.1214
   17SAPC   C37 2232   2.958  -0.943   9.636 -0.1828  0.4560 -0.0875
   17SAPC   H7X 2233   3.038  -0.866   9.632  0.9879 -0.7450 -0.8532
   17SAPC   H7Y 2234   2.859  -0.897   9.618 -0.4621  0.4430  1.2988
   17SAPC   C38 2235   2.990  -1.036   9.519 -0.0919 -0.3768  0.3265
   17SAPC   H8X 2236   2.913  -1.116   9.519 -0.3930 -0.1123  1.5793
   17SAPC   H8Y 2237   3.091  -1.077   9.543  0.2635  0.6883  0.7128
   17SAPC   C39 2238   2.988  -0.971   9.382  0.0184 -0.2502  0.3605
   17SAPC   H9X 2239   3.026  -1.043   9.307 -0.0486 -1.0427  1.0763
   17SAPC   H9Y 2240   3.040  -0.872   9.388  1.7165 -1.0703 -0.2578
   17SAPC  C310 2241   2.847  -0.938   9.341 -0.1241  0.2393 -0.6175
   17SAPC  H10X 2242   2.825  -0.835   9.374  2.8415  0.3561  1.3581
   17SAPC  H10Y 2243   2.786  -1.013   9.395  0.7771  0.1636  0.3231
   17SAPC  C311 2244   2.814  -0.961   9.194 -0.1207 -0.5128 -0.2019
   17SAPC  H11X 2245   2.825  -1.071   9.178  1.3695 -0.2842 -0.9394
   17SAPC  H11Y 2246   2.904  -0.926   9.139  1.3418 -2.9121  0.4970
   17SAPC  C312 2247   2.679  -0.908   9.146 -0.6402 -0.4165 -0.5878
   17SAPC  H12X 2248   2.696  -0.798   9.149 -0.8308 -0.3658  2.7741
   17SAPC  H12Y 2249   2.604  -0.933   9.224 -0.6785 -0.4117 -0.6231
   17SAPC  C313 2250   2.647  -0.959   9.005  0.2056 -0.4454  0.0003
   17SAPC  H13X 2251   2.555  -0.909   8.967  0.1247 -1.9703 -1.9588
   17SAPC  H13Y 2252   2.620  -1.066   9.011 -0.2350 -0.4732 -1.7586
   17SAPC  C314 2253   2.756  -0.932   8.894 -0.3846 -0.5635  0.0556
   17SAPC  H14X 2254   2.839  -0.997   8.929 -0.8108 -0.2054  1.8628
   17SAPC  H14Y 2255   2.794  -0.828   8.899 -0.1333 -0.6898  0.9952
   17SAPC  C315 2256   2.702  -0.969   8.752  0.6901  0.4346  0.3010
   17SAPC  H15X 2257   2.780  -0.947   8.676  0.8863  0.8945  0.6316
   17SAPC  H15Y 2258   2.614  -0.909   8.720 -0.2721 -1.1936 -0.2451
   17SAPC  C316 2259   2.667  -1.124   8.739 -0.8836 -0.4506 -0.3479
   17SAPC  H16X 2260   2.667  -1.139   8.629 -0.1697  1.7931 -0.7037
   17SAPC  H16Y 2261   2.568  -1.144   8.785  0.0891 -0.5256  1.8027
   17SAPC  C317 2262   2.766  -1.229   8.799  0.1438  0.0260  0.2429
   17SAPC  H17X 2263   2.767  -1.230   8.910  2.5668 -3.6740  0.3825
   17SAPC  H17Y 2264   2.865  -1.179   8.784  0.8732 -1.0373  1.3034
   17SAPC  C318 2265   2.749  -1.373   8.749 -0.1715 -0.8493 -0.6085
   17SAPC  H18X 2266   2.777  -1.375   8.641  4.0585 -2.0250  0.3217
   17SAPC  H18Y 2267   2.821  -1.437   8.805 -1.9825 -2.4821 -0.0520
   17SAPC  H18Z 2268   2.649  -1.412   8.776  0.0336 -1.7686 -1.1233
   18SAPC     N 2269   4.232   6.384  10.874 -0.9709  0.6139  0.5643
   18SAPC   C12 2270   4.219   6.234  10.904  0.5940 -0.0933  0.0206
   18SAPC  H12A 2271   4.116   6.222  10.936  1.0631  0.5860  1.9288
   18SAPC  H12B 2272   4.278   6.197  10.986  0.7786  0.1498 -0.0035
   18SAPC   C13 2273   4.237   6.441  11.014  0.3877  0.2446 -0.1244
   18SAPC  H13A 2274   4.325   6.417  11.073  0.8518 -1.1394 -1.3202
   18SAPC  H13B 2275   4.228   6.548  11.017 -0.5328  0.2357 -1.7109
   18SAPC  H13C 2276   4.148   6.409  11.066 -0.0395  0.3420 -0.7822
   18SAPC   C14 2277   4.363   6.405  10.809  0.3513  0.5839 -0.3922
   18SAPC  H14A 2278   4.373   6.344  10.720  0.1571  1.2118 -0.8550
   18SAPC  H14B 2279   4.387   6.508  10.786  1.3157  0.2894 -0.7349
   18SAPC  H14C 2280   4.442   6.370  10.874  0.6949  0.3875 -0.9058
   18SAPC   C15 2281   4.115   6.420  10.782 -0.5257 -0.0737 -0.6604
   18SAPC  H15A 2282   4.136   6.380  10.684  0.6254  1.0119 -0.8805
   18SAPC  H15B 2283   4.023   6.377  10.819 -0.8953  0.4902 -0.9197
   18SAPC  H15C 2284   4.102   6.527  10.771  0.6133  0.0856 -0.5837
   18SAPC   C11 2285   4.237   6.144  10.786 -0.3716 -0.2965  0.9843
   18SAPC  H11A 2286   4.252   6.039  10.821  5.9299 -0.3309 -0.6552
   18SAPC  H11B 2287   4.337   6.158  10.740 -0.6959 -2.0262 -0.3566
   18SAPC     P 2288   4.089   6.072  10.581 -0.0859 -0.1475 -0.2108
   18SAPC   O13 2289   4.201   5.999  10.512  0.1017 -0.0572  1.0675
   18SAPC   O14 2290   3.978   5.996  10.643  0.1804  0.1360  0.0168
   18SAPC   O12 2291   4.146   6.172  10.685 -0.3214  0.2024  0.1257
   18SAPC   O11 2292   4.026   6.172  10.472 -0.0439 -0.2294  0.1263
   18SAPC    C1 2293   3.913   6.249  10.498 -1.1604  0.4592  0.0214
   18SAPC    HA 2294   3.829   6.180  10.523  1.1944 -1.9338  2.0251
   18SAPC    HB 2295   3.932   6.311  10.589  1.7558 -0.9325  0.4584
   18SAPC    C2 2296   3.893   6.343  10.376  0.4716 -0.4113 -0.0732
   18SAPC    HS 2297   3.802   6.404  10.389  1.9881  2.0331 -0.2912
   18SAPC   O21 2298   3.883   6.269  10.249 -0.2049 -0.2970 -0.8383
   18SAPC   C21 2299   3.765   6.203  10.236 -1.0054  0.5004  0.3085
   18SAPC   O22 2300   3.682   6.195  10.322 -0.3198 -0.2800 -0.4921
   18SAPC   C22 2301   3.767   6.140  10.092  0.5546  0.2776  0.1229
   18SAPC   H2R 2302   3.819   6.042  10.105 -0.3201 -0.2298 -0.1350
   18SAPC   H2S 2303   3.663   6.130  10.054  1.8815 -0.5751 -3.6723
   18SAPC    C3 2304   4.011   6.446  10.369 -0.3941 -0.3354 -0.2076
   18SAPC    HX 2305   4.105   6.392  10.345 -1.0345 -0.4846 -2.7102
   18SAPC    HY 2306   4.036   6.490  10.468  1.0046 -0.6095 -0.4209
   18SAPC   O31 2307   3.986   6.544  10.265 -0.2425 -0.0374 -0.1817
   18SAPC   C31 2308   3.926   6.649  10.307  0.4013 -0.3056 -0.2073
   18SAPC   O32 2309   3.910   6.681  10.425 -1.1358 -0.4373  0.0542
   18SAPC   C32 2310   3.869   6.723  10.185  1.0615 -0.5205 -0.7005
   18SAPC   H2X 2311   3.956   6.784  10.153  1.8192 -0.3830  1.4272
   18SAPC   H2Y 2312   3.779   6.780  10.216  0.4768 -1.4404 -0.6855
   18SAPC   C23 2313   3.845   6.228   9.987  0.4120 -0.3910 -0.4167
   18SAPC   H3R 2314   3.950   6.251  10.012  0.4750 -1.2836  0.1672
   18SAPC   H3S 2315   3.799   6.329   9.985 -0.5062 -0.7755 -3.0308
   18SAPC   C24 2316   3.826   6.175   9.845  0.0902  1.1958 -0.2863
   18SAPC   H4R 2317   3.870   6.073   9.847 -1.0805  0.6422 -1.5499
   18SAPC   H4S 2318   3.895   6.244   9.793  1.4754 -0.2498 -0.4526
   18SAPC   C25 2319   3.683   6.182   9.797 -0.3663  0.7424  0.2085
   18SAPC   H5R 2320   3.656   6.288   9.794  1.2530  1.2486  1.8370
   18SAPC   C26 2321   3.606   6.081   9.749 -0.1726 -0.5665 -1.2100
   18SAPC   H6R 2322   3.506   6.118   9.723  0.1509  1.3239  0.0638
   18SAPC   C27 2323   3.645   5.937   9.741  0.0335 -0.1751  0.7769
   18SAPC   H7R 2324   3.755   5.918   9.747 -0.2066 -2.0700 -0.0889
   18SAPC   H7S 2325   3.623   5.908   9.636  0.2287 -0.0899  0.7115
   18SAPC   C28 2326   3.568   5.847   9.843 -0.3580  0.1750  0.5036
   18SAPC   H8R 2327   3.570   5.884   9.947 -1.8437  0.2039  0.5512
   18SAPC   C29 2328   3.489   5.736   9.836 -0.0621 -0.1537 -0.2655
   18SAPC   H9R 2329   3.448   5.692   9.928 -1.7404 -0.7326 -1.2405
   18SAPC  C210 2330   3.457   5.660   9.711  0.2726  0.0648 -0.0185
   18SAPC  H10R 2331   3.397   5.574   9.747 -2.1264  2.0183  0.9603
   18SAPC  H10S 2332   3.552   5.621   9.668  0.5135  2.1670 -1.5575
   18SAPC  C211 2333   3.374   5.736   9.613  0.5707 -0.3875  0.3794
   18SAPC  H11R 2334   3.285   5.791   9.646 -0.8003 -2.2022 -0.1343
   18SAPC  C212 2335   3.406   5.755   9.484  0.1378 -0.3391 -0.4168
   18SAPC  H12R 2336   3.323   5.785   9.418  0.3509 -0.5883 -0.8020
   18SAPC  C213 2337   3.521   5.692   9.413  0.1674  0.6078  0.4270
   18SAPC  H13R 2338   3.614   5.686   9.473  0.1219  1.9756  0.6495
   18SAPC  H13S 2339   3.549   5.759   9.329 -2.7572  0.9017 -0.4095
   18SAPC  C214 2340   3.498   5.557   9.350 -0.3609 -0.1190 -0.0486
   18SAPC  H14R 2341   3.470   5.483   9.427 -0.2750  0.4912  0.5706
   18SAPC  C215 2342   3.501   5.526   9.217  0.7825 -0.1912  0.5450
   18SAPC  H15R 2343   3.493   5.419   9.192  0.4275 -0.3452  1.2780
   18SAPC  C216 2344   3.519   5.621   9.097  0.4726  0.7587 -0.2373
   18SAPC  H16R 2345   3.603   5.580   9.038  1.3638  0.1323  1.3827
   18SAPC  H16S 2346   3.534   5.727   9.127  0.3976  0.0350  2.6540
   18SAPC  C217 2347   3.389   5.637   9.022  0.3078 -0.1273  0.1339
   18SAPC  H17R 2348   3.316   5.684   9.091 -1.6296 -1.1992 -1.0913
   18SAPC  H17S 2349   3.347   5.542   8.982  0.4063  0.3905 -1.2727
   18SAPC  C218 2350   3.403   5.724   8.898  0.4496 -0.0658  0.0509
   18SAPC  H18R 2351   3.503   5.710   8.852  0.9034  2.1178  0.2645
   18SAPC  H18S 2352   3.416   5.830   8.928  0.3263  0.3159 -1.1898
   18SAPC  C219 2353   3.288   5.708   8.802  0.4911  0.5101  0.5983
   18SAPC  H19R 2354   3.288   5.613   8.744 -2.9821  0.6728  0.0950
   18SAPC  H19S 2355   3.314   5.784   8.725  1.6349  0.1587  0.6091
   18SAPC  C220 2356   3.146   5.738   8.847  0.1984 -0.1185  0.1191
   18SAPC  H20R 2357   3.134   5.707   8.953 -1.8048 -0.6340 -0.2279
   18SAPC  H20S 2358   3.062   5.691   8.792 -0.5020  2.1068 -0.8438
   18SAPC  H20T 2359   3.127   5.846   8.829 -0.8938 -0.2068  0.6326
   18SAPC   C33 2360   3.837   6.630  10.061  0.5483  0.4081  0.8253
   18SAPC   H3X 2361   3.778   6.543  10.098  0.7272 -0.8020 -1.5890
   18SAPC   H3Y 2362   3.932   6.590  10.020  0.5660 -0.5326  1.7335
   18SAPC   C34 2363   3.776   6.700   9.931 -0.2022  0.4696  0.5767
   18SAPC   H4X 2364   3.832   6.790   9.898  3.8801 -2.3641 -1.0183
   18SAPC   H4Y 2365   3.670   6.734   9.942 -0.5963  0.0396 -1.4816
   18SAPC   C35 2366   3.775   6.595   9.811 -0.5332 -0.7735 -0.5368
   18SAPC   H5X 2367   3.706   6.510   9.827 -1.9455  0.0561 -2.0068
   18SAPC   H5Y 2368   3.877   6.557   9.787 -1.0554 -2.6585  0.0506
   18SAPC   C36 2369   3.718   6.664   9.683  0.7009 -0.0232 -0.0428
   18SAPC   H6X 2370   3.777   6.755   9.660 -0.4562  0.6583 -0.4207
   18SAPC   H6Y 2371   3.613   6.700   9.692 -0.5676 -1.4134 -5.4942
   18SAPC   C37 2372   3.744   6.575   9.562 -0.4146  0.3956  0.1605
   18SAPC   H7X 2373   3.703   6.472   9.573 -2.7807  1.2339 -0.3141
   18SAPC   H7Y 2374   3.854   6.555   9.561 -0.8100 -2.0795 -0.0846
   18SAPC   C38 2375   3.699   6.636   9.432 -0.3795  0.3514 -0.5282
   18SAPC   H8X 2376   3.757   6.726   9.405  1.0217 -0.8367 -1.6649
   18SAPC   H8Y 2377   3.588   6.641   9.444 -0.2575 -1.6010  2.2248
   18SAPC   C39 2378   3.731   6.544   9.311 -0.4557  0.0051  0.6094
   18SAPC   H9X 2379   3.684   6.446   9.335 -0.7249  0.0348  0.2202
   18SAPC   H9Y 2380   3.840   6.524   9.309  0.1976  3.0504  1.2375
   18SAPC  C310 2381   3.682   6.598   9.182  1.1717 -0.3495  0.2296
   18SAPC  H10X 2382   3.583   6.644   9.204  1.1365 -0.9507  1.4733
   18SAPC  H10Y 2383   3.674   6.521   9.102  1.1488  0.3446 -0.4409
   18SAPC  C311 2384   3.766   6.712   9.126  0.0910 -0.0516 -0.6158
   18SAPC  H11X 2385   3.874   6.687   9.115  1.0522  2.9014  0.8669
   18SAPC  H11Y 2386   3.765   6.805   9.187 -2.0046  0.0652 -0.7744
   18SAPC  C312 2387   3.718   6.753   8.987  0.4604  0.2769 -0.4164
   18SAPC  H12X 2388   3.612   6.781   9.007  0.3342 -0.1911 -0.4298
   18SAPC  H12Y 2389   3.712   6.662   8.924 -1.3677  0.4078 -0.4755
   18SAPC  C313 2390   3.787   6.871   8.926  0.0875  0.4077 -0.3595
   18SAPC  H13X 2391   3.894   6.840   8.924 -0.1483 -0.5941  1.0817
   18SAPC  H13Y 2392   3.777   6.963   8.987 -0.4405  1.4649 -1.9859
   18SAPC  C314 2393   3.726   6.902   8.788  0.1083  0.2866 -0.2857
   18SAPC  H14X 2394   3.776   6.994   8.751 -2.6192  1.7723 -0.6166
   18SAPC  H14Y 2395   3.624   6.943   8.804  0.2123  0.2317  0.5419
   18SAPC  C315 2396   3.722   6.785   8.683  0.6025 -0.1584 -0.4414
   18SAPC  H15X 2397   3.664   6.697   8.717 -1.8638  1.2605 -0.7379
   18SAPC  H15Y 2398   3.826   6.747   8.675  1.5913  1.8656  1.6462
   18SAPC  C316 2399   3.648   6.837   8.549 -0.4250  0.4933  0.0050
   18SAPC  H16X 2400   3.719   6.914   8.512  1.9349 -1.4716  0.1457
   18SAPC  H16Y 2401   3.547   6.869   8.581  0.5262  1.1381  2.6225
   18SAPC  C317 2402   3.633   6.708   8.449 -0.5621 -0.0637  0.1627
   18SAPC  H17X 2403   3.603   6.618   8.507  0.4300 -1.0051 -0.7359
   18SAPC  H17Y 2404   3.736   6.689   8.412 -1.4152  0.6669 -2.8024
   18SAPC  C318 2405   3.539   6.737   8.332 -0.0984  0.4506 -0.1557
   18SAPC  H18X 2406   3.565   6.820   8.263 -2.7723  1.3495 -0.2299
   18SAPC  H18Y 2407   3.435   6.757   8.366  0.0976  1.6002 -0.1946
   18SAPC  H18Z 2408   3.532   6.640   8.280  1.0780 -0.9483  2.1294
   19SAPC     N 2409   3.250   0.868  10.780 -0.2418 -0.9561  0.9271
   19SAPC   C12 2410   3.287   0.861  10.632 -0.2256  0.3845 -0.0455
   19SAPC  H12A 2411   3.383   0.910  10.619 -0.3538  0.3791 -1.1253
   19SAPC  H12B 2412   3.214   0.918  10.577  2.1909  2.6756 -1.1415
   19SAPC   C13 2413   3.251   1.014  10.821  0.1009  0.7114  0.6326
   19SAPC  H13A 2414   3.173   1.064  10.766 -1.9012 -3.5925 -0.8304
   19SAPC  H13B 2415   3.231   1.028  10.927  0.8596  2.8544  0.5569
   19SAPC  H13C 2416   3.351   1.052  10.803  0.7494 -1.1987 -0.0071
   19SAPC   C14 2417   3.115   0.818  10.807 -0.2426  0.6114  0.3939
   19SAPC  H14A 2418   3.124   0.778  10.908  1.5215 -0.4784 -0.1516
   19SAPC  H14B 2419   3.041   0.896  10.798 -0.6698  0.5540  2.6407
   19SAPC  H14C 2420   3.090   0.731  10.748 -2.8438  1.0224  0.7607
   19SAPC   C15 2421   3.351   0.796  10.866  0.0397  0.0654 -0.8636
   19SAPC  H15A 2422   3.353   0.824  10.971  1.5660 -1.4909 -0.4399
   19SAPC  H15B 2423   3.357   0.690  10.851  0.0904  0.2208 -2.0565
   19SAPC  H15C 2424   3.446   0.830  10.827  0.1580 -1.4760 -1.9688
   19SAPC   C11 2425   3.294   0.725  10.561 -0.1021 -0.5651 -0.3840
   19SAPC  H11A 2426   3.362   0.644  10.595  0.1493  0.1138  0.7744
   19SAPC  H11B 2427   3.329   0.748  10.458 -1.4517 -2.4339 -1.3181
   19SAPC     P 2428   3.063   0.708  10.446 -0.0126  0.2027 -0.1072
   19SAPC   O13 2429   2.941   0.626  10.458 -0.2772  0.3956  0.3377
   19SAPC   O14 2430   3.051   0.852  10.454  0.1202  0.1349  0.1359
   19SAPC   O12 2431   3.159   0.659  10.562  0.3924  0.3678  0.4517
   19SAPC   O11 2432   3.149   0.658  10.317  0.2377 -0.2203 -0.9169
   19SAPC    C1 2433   3.148   0.761  10.215  0.3155  0.5490  0.3320
   19SAPC    HA 2434   3.050   0.814  10.207 -0.2690 -0.6780 -1.4372
   19SAPC    HB 2435   3.231   0.831  10.235  0.0113  1.4367 -1.3602
   19SAPC    C2 2436   3.163   0.698  10.074  0.2666 -0.0334 -0.9263
   19SAPC    HS 2437   3.177   0.785  10.006 -0.2990 -0.8252 -2.0745
   19SAPC   O21 2438   3.038   0.630  10.042  0.2243  0.5997  0.1321
   19SAPC   C21 2439   2.954   0.694   9.971  0.6497  0.1720  0.6822
   19SAPC   O22 2440   2.957   0.807   9.927 -0.5889 -0.4484  0.9484
   19SAPC   C22 2441   2.844   0.591   9.947  0.0990 -0.1589  0.0054
   19SAPC   H2R 2442   2.867   0.510  10.021 -1.4076  0.7007  1.4842
   19SAPC   H2S 2443   2.742   0.626   9.971  0.5297  1.6094 -0.5874
   19SAPC    C3 2444   3.288   0.601  10.078 -0.1558  0.2533  0.0874
   19SAPC    HX 2445   3.264   0.512  10.141 -1.4082  0.8188  0.4450
   19SAPC    HY 2446   3.367   0.664  10.123  0.2191 -0.5557  0.5897
   19SAPC   O31 2447   3.314   0.550   9.948  1.0983 -0.0972  0.1359
   19SAPC   C31 2448   3.392   0.626   9.873  0.3277 -1.2057 -0.4721
   19SAPC   O32 2449   3.466   0.717   9.904  0.3268 -0.2252  0.2244
   19SAPC   C32 2450   3.360   0.594   9.722 -0.2078  0.0047  0.6125
   19SAPC   H2X 2451   3.257   0.633   9.706 -0.0343 -0.4003 -1.9532
   19SAPC   H2Y 2452   3.367   0.485   9.700 -1.0191  0.1949 -0.7071
   19SAPC   C23 2453   2.857   0.524   9.811 -0.3147  0.2552 -0.5311
   19SAPC   H3R 2454   2.863   0.414   9.825 -0.9430  0.1411 -1.1202
   19SAPC   H3S 2455   2.952   0.548   9.759 -0.4960  1.2604 -0.4198
   19SAPC   C24 2456   2.736   0.545   9.720 -1.3986  0.8370  0.3483
   19SAPC   H4R 2457   2.633   0.533   9.760 -2.0342  0.5033 -1.2917
   19SAPC   H4S 2458   2.741   0.464   9.643 -2.0109  2.9165 -2.0234
   19SAPC   C25 2459   2.754   0.679   9.652 -0.4032  0.4317  0.7227
   19SAPC   H5R 2460   2.751   0.775   9.705 -1.8230  0.0209  1.4191
   19SAPC   C26 2461   2.785   0.693   9.515 -0.2759  0.4407 -0.2538
   19SAPC   H6R 2462   2.777   0.798   9.486 -1.6016  0.4198 -0.0402
   19SAPC   C27 2463   2.813   0.578   9.417  0.7023  0.5560  0.6567
   19SAPC   H7R 2464   2.823   0.481   9.470 -1.4828 -0.7674 -1.1652
   19SAPC   H7S 2465   2.917   0.591   9.377  1.6963 -2.4457  2.0314
   19SAPC   C28 2466   2.713   0.572   9.304 -0.5153  0.7306  0.1643
   19SAPC   H8R 2467   2.607   0.579   9.333 -0.7037  0.0162 -0.3277
   19SAPC   C29 2468   2.750   0.574   9.172  0.1008  0.0453  0.4585
   19SAPC   H9R 2469   2.667   0.576   9.099  0.4687 -2.2767 -0.1080
   19SAPC  C210 2470   2.891   0.590   9.116 -0.0068  0.6075  0.5494
   19SAPC  H10R 2471   2.971   0.561   9.187 -0.1470  1.0311  0.8833
   19SAPC  H10S 2472   2.918   0.696   9.095 -0.4813  0.4970 -0.7124
   19SAPC  C211 2473   2.898   0.509   8.992  0.6271  0.8771 -0.1079
   19SAPC  H11R 2474   2.886   0.401   9.007 -2.4078  1.0011 -0.8562
   19SAPC  C212 2475   2.917   0.550   8.867 -0.2310 -0.6863  0.2319
   19SAPC  H12R 2476   2.917   0.485   8.778  1.7026  1.9680 -1.8609
   19SAPC  C213 2477   2.922   0.694   8.835 -0.0768  0.0037  0.5979
   19SAPC  H13R 2478   3.017   0.745   8.863 -0.4245  0.3433  1.1862
   19SAPC  H13S 2479   2.837   0.737   8.893 -1.2798 -1.9364  0.3402
   19SAPC  C214 2480   2.909   0.719   8.683  0.2883  0.8504 -0.0379
   19SAPC  H14R 2481   3.008   0.709   8.635  0.8638  0.0368  1.2491
   19SAPC  C215 2482   2.803   0.726   8.602  0.3055  0.0908  0.0987
   19SAPC  H15R 2483   2.815   0.715   8.494 -1.1229  0.5544 -0.1252
   19SAPC  C216 2484   2.660   0.733   8.648  0.3149  0.4197  0.1043
   19SAPC  H16R 2485   2.615   0.815   8.589  0.3357 -0.3174 -0.9678
   19SAPC  H16S 2486   2.663   0.763   8.755  0.2100  0.7738  0.0089
   19SAPC  C217 2487   2.575   0.605   8.631  0.2330 -0.6754 -0.1022
   19SAPC  H17R 2488   2.619   0.523   8.692 -2.6300 -1.7860  0.6412
   19SAPC  H17S 2489   2.569   0.575   8.525 -4.7786 -1.0099  0.0575
   19SAPC  C218 2490   2.428   0.620   8.678 -0.0149  0.0699  0.1767
   19SAPC  H18R 2491   2.395   0.516   8.701 -1.4327  0.8034  1.7201
   19SAPC  H18S 2492   2.377   0.648   8.583  0.3205 -1.1741 -0.3903
   19SAPC  C219 2493   2.400   0.714   8.796 -0.1415  0.0190  0.0959
   19SAPC  H19R 2494   2.293   0.744   8.797 -0.0978  0.1882  1.3251
   19SAPC  H19S 2495   2.462   0.806   8.798 -1.2156  0.7853  2.6717
   19SAPC  C220 2496   2.430   0.641   8.925  0.0617 -0.2811 -0.3757
   19SAPC  H20R 2497   2.403   0.723   8.994 -0.5408  0.5388 -1.5458
   19SAPC  H20S 2498   2.537   0.612   8.930  0.1811  0.3541  1.2540
   19SAPC  H20T 2499   2.365   0.552   8.938 -2.2040  1.3909  0.2210
   19SAPC   C33 2500   3.462   0.658   9.621 -1.1836 -0.0850  0.2769
   19SAPC   H3X 2501   3.569   0.636   9.644 -1.1594  0.7100  0.9748
   19SAPC   H3Y 2502   3.450   0.766   9.645 -0.6340  0.3059 -1.0917
   19SAPC   C34 2503   3.430   0.639   9.470 -0.3555  0.5589  0.0624
   19SAPC   H4X 2504   3.405   0.533   9.449  1.7709  0.2931 -1.4593
   19SAPC   H4Y 2505   3.518   0.654   9.404  0.3522  2.2691  1.3119
   19SAPC   C35 2506   3.319   0.737   9.405 -0.0415 -0.5129 -0.0389
   19SAPC   H5X 2507   3.364   0.838   9.401 -0.5069 -0.2970  0.0902
   19SAPC   H5Y 2508   3.240   0.723   9.483 -1.7686 -0.7014 -1.7345
   19SAPC   C36 2509   3.263   0.688   9.272  0.2068 -0.4862  0.0794
   19SAPC   H6X 2510   3.194   0.765   9.230 -0.3088  0.1799  2.0518
   19SAPC   H6Y 2511   3.205   0.596   9.290 -2.6916  1.0407 -0.7786
   19SAPC   C37 2512   3.363   0.665   9.159  0.0813  0.3126 -0.1541
   19SAPC   H7X 2513   3.432   0.583   9.189  0.1947 -0.0331 -1.2948
   19SAPC   H7Y 2514   3.419   0.756   9.130 -0.0870 -0.1915 -2.2922
   19SAPC   C38 2515   3.290   0.627   9.031 -0.5053  1.0513 -0.2866
   19SAPC   H8X 2516   3.219   0.711   9.009  0.4107  2.7944  2.7965
   19SAPC   H8Y 2517   3.230   0.537   9.057  0.3266  1.1973  2.4017
   19SAPC   C39 2518   3.380   0.587   8.912 -0.3264  0.4830  0.6395
   19SAPC   H9X 2519   3.423   0.487   8.933 -2.1990 -1.2063 -2.7109
   19SAPC   H9Y 2520   3.463   0.660   8.909  0.0349  0.0678  0.3879
   19SAPC  C310 2521   3.311   0.591   8.776 -0.5198  0.3812 -0.2480
   19SAPC  H10X 2522   3.312   0.699   8.750  2.0451  0.2197 -1.1230
   19SAPC  H10Y 2523   3.205   0.559   8.776 -0.6213  0.5627 -2.4412
   19SAPC  C311 2524   3.390   0.517   8.658  0.0642  0.0892 -0.6303
   19SAPC  H11X 2525   3.338   0.544   8.564  1.0094 -1.3041 -1.5850
   19SAPC  H11Y 2526   3.387   0.407   8.671 -1.0250  0.1941  0.1773
   19SAPC  C312 2527   3.537   0.550   8.645 -0.8686 -0.5269 -0.2270
   19SAPC  H12X 2528   3.589   0.497   8.727  1.3116  1.6544 -0.0797
   19SAPC  H12Y 2529   3.542   0.661   8.654 -0.9189 -0.1388 -3.5162
   19SAPC  C313 2530   3.615   0.510   8.522 -1.0913  0.3079  0.2357
   19SAPC  H13X 2531   3.585   0.404   8.524 -1.9685  0.5531  1.1228
   19SAPC  H13Y 2532   3.724   0.510   8.545 -0.1938 -0.9470 -3.3364
   19SAPC  C314 2533   3.589   0.581   8.390 -0.0357  0.1061 -0.2774
   19SAPC  H14X 2534   3.488   0.555   8.352  0.5684 -1.8284 -0.6542
   19SAPC  H14Y 2535   3.656   0.535   8.314  0.9946 -1.4403  1.4934
   19SAPC  C315 2536   3.600   0.738   8.396 -0.4124 -0.9878  0.4779
   19SAPC  H15X 2537   3.699   0.766   8.439  0.9479 -1.4399 -2.1579
   19SAPC  H15Y 2538   3.517   0.779   8.457 -0.7330  0.3436 -0.7850
   19SAPC  C316 2539   3.577   0.811   8.258  0.2592 -0.9031 -0.4893
   19SAPC  H16X 2540   3.468   0.815   8.236  0.1786  3.7094 -0.1605
   19SAPC  H16Y 2541   3.623   0.757   8.172 -0.2599 -1.8317 -0.2002
   19SAPC  C317 2542   3.617   0.967   8.259  0.0880  0.2021  0.0784
   19SAPC  H17X 2543   3.726   0.975   8.278  0.2105 -1.7767  0.4491
   19SAPC  H17Y 2544   3.551   1.012   8.337 -1.1484 -1.9510  0.3597
   19SAPC  C318 2545   3.567   1.038   8.135  0.5863 -0.3218  0.2082
   19SAPC  H18X 2546   3.639   1.110   8.089 -1.8544  3.7465  2.1454
   19SAPC  H18Y 2547   3.472   1.091   8.159  0.8252 -0.5993  1.8303
   19SAPC  H18Z 2548   3.546   0.977   8.045 -1.6218  0.9866 -0.2612
   20SAPC     N 2549   4.275   4.824  11.054  0.3751 -0.3253 -0.8927
   20SAPC   C12 2550   4.234   4.770  10.915 -0.3655 -0.0752  0.3218
   20SAPC  H12A 2551   4.255   4.664  10.902 -2.5334 -0.6106  0.7123
   20SAPC  H12B 2552   4.288   4.824  10.839  1.2407 -3.0242 -0.8277
   20SAPC   C13 2553   4.266   4.973  11.052 -0.3214 -0.5319 -0.4537
   20SAPC  H13A 2554   4.290   5.019  11.146 -1.8239 -1.0172  0.1966
   20SAPC  H13B 2555   4.336   5.016  10.982  1.7644  1.1794  2.4622
   20SAPC  H13C 2556   4.169   4.995  11.010 -1.9667 -3.3013  1.6000
   20SAPC   C14 2557   4.182   4.777  11.157  0.1198 -0.1393  0.4837
   20SAPC  H14A 2558   4.222   4.773  11.257  0.0148  2.6260  0.7142
   20SAPC  H14B 2559   4.097   4.842  11.160 -0.8075 -1.2334 -0.7484
   20SAPC  H14C 2560   4.142   4.679  11.135 -1.4933 -0.0132  2.5431
   20SAPC   C15 2561   4.413   4.779  11.086  0.0927 -0.0688 -0.3091
   20SAPC  H15A 2562   4.479   4.818  11.011  1.2993  1.0839  1.2809
   20SAPC  H15B 2563   4.456   4.802  11.182  1.5972  0.2680 -1.0420
   20SAPC  H15C 2564   4.413   4.671  11.079  0.0531 -0.0649 -0.3647
   20SAPC   C11 2565   4.083   4.769  10.880 -0.2806 -0.2072 -0.1735
   20SAPC  H11A 2566   4.024   4.718  10.959 -0.5090 -0.9410 -0.7999
   20SAPC  H11B 2567   4.053   4.720  10.785 -0.7821 -2.5795  1.1219
   20SAPC     P 2568   4.059   5.010  10.760 -0.2832  0.2190  0.0515
   20SAPC   O13 2569   3.987   4.973  10.638 -0.1560 -0.2847 -0.1968
   20SAPC   O14 2570   4.028   5.149  10.806  0.0765 -0.6305 -0.1353
   20SAPC   O12 2571   4.033   4.905  10.879 -0.9288 -0.2799 -0.6639
   20SAPC   O11 2572   4.216   4.998  10.730 -0.0786  0.0126  0.3353
   20SAPC    C1 2573   4.301   5.108  10.684 -0.7986 -0.0996  0.5946
   20SAPC    HA 2574   4.272   5.208  10.722 -0.8068  0.5264 -0.9763
   20SAPC    HB 2575   4.404   5.096  10.721 -0.9731 -1.7517  0.6225
   20SAPC    C2 2576   4.316   5.112  10.529 -0.7908  0.1364  0.0844
   20SAPC    HS 2577   4.212   5.118  10.493 -1.1393  1.3367  1.2495
   20SAPC   O21 2578   4.375   4.981  10.497 -0.2470  0.3493 -0.0586
   20SAPC   C21 2579   4.310   4.916  10.407 -0.1515  0.1332  0.4786
   20SAPC   O22 2580   4.215   4.941  10.344  0.1780  0.2115 -0.4296
   20SAPC   C22 2581   4.403   4.804  10.364 -0.0570 -0.2398  0.1624
   20SAPC   H2R 2582   4.420   4.730  10.445 -1.2708  0.0110  0.6752
   20SAPC   H2S 2583   4.355   4.754  10.276 -0.1405 -0.5265  0.3700
   20SAPC    C3 2584   4.406   5.217  10.457 -0.5790  0.3943 -0.1669
   20SAPC    HX 2585   4.504   5.217  10.511 -1.5903 -0.9911  1.7926
   20SAPC    HY 2586   4.374   5.316  10.497 -0.6561  1.4073 -2.5823
   20SAPC   O31 2587   4.418   5.191  10.318  0.0402 -0.4497 -0.1227
   20SAPC   C31 2588   4.311   5.232  10.250  0.2465  0.5675 -0.0272
   20SAPC   O32 2589   4.204   5.279  10.297  0.0252  0.1978 -0.3574
   20SAPC   C32 2590   4.338   5.223  10.094  0.4950 -0.2216  0.1345
   20SAPC   H2X 2591   4.377   5.124  10.060 -1.6262 -0.1516 -2.8743
   20SAPC   H2Y 2592   4.400   5.308  10.060 -0.0367  0.0481 -0.1629
   20SAPC   C23 2593   4.531   4.866  10.297  0.2469 -0.2791 -0.3543
   20SAPC   H3R 2594   4.588   4.904  10.384 -0.8161  1.6287 -0.4284
   20SAPC   H3S 2595   4.504   4.950  10.229 -0.3224 -1.6762 -1.9278
   20SAPC   C24 2596   4.611   4.760  10.233  0.2004  0.5098  0.9392
   20SAPC   H4R 2597   4.626   4.677  10.305 -1.7842 -0.3316  0.4634
   20SAPC   H4S 2598   4.713   4.794  10.207  0.0991 -0.8042 -1.5117
   20SAPC   C25 2599   4.562   4.695  10.100 -0.3097  0.2132 -0.2275
   20SAPC   H5R 2600   4.483   4.619  10.111  1.4502 -1.9226 -1.5375
   20SAPC   C26 2601   4.608   4.729   9.978 -0.2228  0.0638  0.4958
   20SAPC   H6R 2602   4.589   4.654   9.899  1.3385 -1.2934  1.3602
   20SAPC   C27 2603   4.706   4.842   9.954 -0.1052  1.1132  0.3894
   20SAPC   H7R 2604   4.786   4.795   9.893  0.7685  4.4177 -1.2454
   20SAPC   H7S 2605   4.758   4.875  10.046  3.0993 -1.0680 -0.4515
   20SAPC   C28 2606   4.637   4.957   9.882  0.1872  0.0896  0.7475
   20SAPC   H8R 2607   4.577   5.021   9.949  0.1350  0.0091  0.7777
   20SAPC   C29 2608   4.626   4.972   9.746 -0.5229  0.5068  0.0703
   20SAPC   H9R 2609   4.571   5.062   9.715  0.5814  1.8696  1.8753
   20SAPC  C210 2610   4.689   4.892   9.633 -0.0725 -0.1998  0.8667
   20SAPC  H10R 2611   4.610   4.845   9.571  1.3342 -0.2645 -0.9425
   20SAPC  H10S 2612   4.740   4.802   9.673  1.9379  0.9054  0.9681
   20SAPC  C211 2613   4.784   4.968   9.548 -0.8617  0.4686 -0.8827
   20SAPC  H11R 2614   4.878   4.990   9.600  1.7299 -2.0543 -4.0173
   20SAPC  C212 2615   4.786   4.987   9.417 -0.3275  0.3345 -0.0225
   20SAPC  H12R 2616   4.871   5.043   9.374  1.2175 -1.9217 -0.0643
   20SAPC  C213 2617   4.667   4.941   9.335 -0.2614 -0.9099 -0.0070
   20SAPC  H13R 2618   4.578   4.972   9.395  0.4227  2.3888 -0.5230
   20SAPC  H13S 2619   4.675   4.830   9.331  1.7999 -0.8343  1.2332
   20SAPC  C214 2620   4.657   5.009   9.201  0.2808  0.2902  0.4470
   20SAPC  H14R 2621   4.754   5.017   9.150 -1.2212  1.0941 -2.5154
   20SAPC  C215 2622   4.544   5.042   9.135 -0.0327  0.8583  0.4846
   20SAPC  H15R 2623   4.557   5.086   9.035  0.6320  1.1494  0.6911
   20SAPC  C216 2624   4.403   5.014   9.167  0.3618  0.1461 -0.4944
   20SAPC  H16R 2625   4.349   5.111   9.163  2.0571  1.1846  0.3146
   20SAPC  H16S 2626   4.388   4.980   9.272 -2.7055 -0.2060 -0.9529
   20SAPC  C217 2627   4.343   4.918   9.056  0.2140  0.2940 -0.6235
   20SAPC  H17R 2628   4.316   4.825   9.109 -0.0309  0.5402 -0.3155
   20SAPC  H17S 2629   4.413   4.896   8.972 -1.1886 -1.4845 -1.3932
   20SAPC  C218 2630   4.227   4.976   8.968 -0.0184  0.1668  0.2327
   20SAPC  H18R 2631   4.257   5.062   8.904 -2.3801 -0.3244 -1.6795
   20SAPC  H18S 2632   4.149   5.020   9.034 -0.1817  4.2533 -2.3442
   20SAPC  C219 2633   4.166   4.874   8.884  0.7384  0.2747 -0.0362
   20SAPC  H19R 2634   4.119   4.798   8.950 -0.2650  2.1357  1.4743
   20SAPC  H19S 2635   4.234   4.818   8.816 -0.1284 -0.2694 -0.4797
   20SAPC  C220 2636   4.052   4.913   8.789 -0.4785 -0.0183  0.6863
   20SAPC  H20R 2637   4.094   4.974   8.706 -0.2558 -2.4914 -1.1430
   20SAPC  H20S 2638   3.979   4.959   8.859  2.4791  1.4837  3.0410
   20SAPC  H20T 2639   4.022   4.818   8.740  0.5103 -0.6499  1.2651
   20SAPC   C33 2640   4.207   5.246   9.997 -0.2134  1.2467  0.5540
   20SAPC   H3X 2641   4.221   5.339   9.938 -2.5607  0.0191 -2.2120
   20SAPC   H3Y 2642   4.112   5.263  10.053 -2.4608 -1.6198 -1.9599
   20SAPC   C34 2643   4.182   5.128   9.906 -1.0466 -0.1014  0.5442
   20SAPC   H4X 2644   4.271   5.095   9.848 -1.4181  1.4149 -0.9735
   20SAPC   H4Y 2645   4.105   5.164   9.834 -1.6499  2.2961  2.2472
   20SAPC   C35 2646   4.135   5.000   9.981 -0.1793 -0.3157 -0.8649
   20SAPC   H5X 2647   4.048   5.027  10.045  1.5358  2.9692  0.3430
   20SAPC   H5Y 2648   4.197   4.960  10.064 -2.3213 -2.7164 -0.2879
   20SAPC   C36 2649   4.101   4.880   9.887 -0.4888  0.0616  1.1072
   20SAPC   H6X 2650   4.015   4.832   9.938  0.2213 -0.7409  1.5789
   20SAPC   H6Y 2651   4.186   4.810   9.880 -1.0473 -0.5252 -0.1747
   20SAPC   C37 2652   4.056   4.911   9.747 -0.0186 -0.3554 -0.5587
   20SAPC   H7X 2653   4.152   4.910   9.690 -0.1219  1.5583 -0.8241
   20SAPC   H7Y 2654   4.012   5.012   9.732  1.6475  0.7280  1.3817
   20SAPC   C38 2655   3.961   4.808   9.696 -0.2040  0.6047  0.3986
   20SAPC   H8X 2656   3.875   4.809   9.767 -0.9784  1.7238 -0.5153
   20SAPC   H8Y 2657   4.006   4.707   9.707  1.9775  1.0120 -3.2753
   20SAPC   C39 2658   3.912   4.802   9.548  0.0692  0.2935  0.2041
   20SAPC   H9X 2659   3.833   4.875   9.523  0.1204 -0.1445 -1.3465
   20SAPC   H9Y 2660   3.872   4.701   9.522  0.2170  0.2565  0.1203
   20SAPC  C310 2661   4.025   4.821   9.443  0.3062  0.5347 -0.1985
   20SAPC  H10X 2662   4.110   4.752   9.458 -0.4256 -0.0543  1.4394
   20SAPC  H10Y 2663   4.052   4.928   9.461  0.3683  0.3231  1.0598
   20SAPC  C311 2664   3.982   4.802   9.292 -0.5930 -0.4148 -0.4960
   20SAPC  H11X 2665   3.953   4.695   9.296 -2.4242  0.0535 -0.1380
   20SAPC  H11Y 2666   4.065   4.812   9.219 -0.5696  1.1002 -0.2981
   20SAPC  C312 2667   3.871   4.892   9.241 -0.0113 -0.1715  0.2138
   20SAPC  H12X 2668   3.892   4.997   9.272  2.8448 -0.2035 -1.2159
   20SAPC  H12Y 2669   3.779   4.845   9.281 -0.5189  0.2272 -0.4476
   20SAPC  C313 2670   3.846   4.882   9.094 -0.5292  0.3602 -0.3370
   20SAPC  H13X 2671   3.840   4.777   9.060  1.8270  0.1076 -0.1156
   20SAPC  H13Y 2672   3.930   4.926   9.035 -0.0819  1.4317  1.0360
   20SAPC  C314 2673   3.710   4.943   9.052 -0.1455 -0.0413  0.3630
   20SAPC  H14X 2674   3.724   5.042   9.102  2.7463 -0.7695  1.1255
   20SAPC  H14Y 2675   3.631   4.885   9.104 -0.7010 -0.2285 -0.6524
   20SAPC  C315 2676   3.682   4.943   8.903  0.2512 -0.0350  0.7892
   20SAPC  H15X 2677   3.751   5.016   8.854 -1.5682  0.4390 -1.2162
   20SAPC  H15Y 2678   3.585   4.997   8.894 -1.0659 -2.5017 -1.0053
   20SAPC  C316 2679   3.682   4.808   8.831  0.2158  0.0492  0.6537
   20SAPC  H16X 2680   3.615   4.750   8.898 -0.6260 -0.0564 -0.2647
   20SAPC  H16Y 2681   3.780   4.757   8.819  0.0962 -0.1798  0.6457
   20SAPC  C317 2682   3.607   4.838   8.692  0.2935  0.8524 -0.5070
   20SAPC  H17X 2683   3.509   4.887   8.709 -1.4493 -2.5056  0.0486
   20SAPC  H17Y 2684   3.580   4.737   8.655  0.1986  0.5632  0.3212
   20SAPC  C318 2685   3.688   4.921   8.594 -0.2032  0.0005  1.2178
   20SAPC  H18X 2686   3.669   4.906   8.485 -0.2473  0.2832  1.1864
   20SAPC  H18Y 2687   3.792   4.887   8.613  1.3367  3.4783 -0.1421
   20SAPC  H18Z 2688   3.683   5.031   8.609  0.4096  0.0639  0.9749
   21SAPC     N 2689   1.789   3.298  10.720  0.6302 -0.3535  0.9064
   21SAPC   C12 2690   1.831   3.270  10.864  0.6166  0.5437 -0.1735
   21SAPC  H12A 2691   1.748   3.268  10.933  1.3977  0.6480  0.7872
   21SAPC  H12B 2692   1.893   3.350  10.902  1.7590 -0.3014 -0.2110
   21SAPC   C13 2693   1.670   3.219  10.685  0.2121 -0.8951 -0.8331
   21SAPC  H13A 2694   1.694   3.114  10.674  0.0161 -0.9717 -0.5481
   21SAPC  H13B 2695   1.601   3.213  10.768  1.2217 -0.6379  0.0388
   21SAPC  H13C 2696   1.620   3.248  10.593  0.4462 -0.0336 -0.6910
   21SAPC   C14 2697   1.742   3.442  10.712 -0.4874 -0.8433  0.0558
   21SAPC  H14A 2698   1.660   3.457  10.780  0.8398 -0.3917  1.6105
   21SAPC  H14B 2699   1.822   3.505  10.747 -1.3777  0.0877  0.4338
   21SAPC  H14C 2700   1.712   3.474  10.613 -0.5405 -0.1131  0.3062
   21SAPC   C15 2701   1.898   3.274  10.614  0.6937  0.9499  0.4923
   21SAPC  H15A 2702   1.931   3.173  10.634 -0.6347  0.4972  0.4974
   21SAPC  H15B 2703   1.865   3.285  10.512 -1.3274  0.0272  0.9916
   21SAPC  H15C 2704   1.980   3.340  10.638  2.5211 -1.0146 -0.0337
   21SAPC   C11 2705   1.901   3.138  10.888  0.2068 -0.3280  0.1194
   21SAPC  H11A 2706   1.922   3.142  10.997 -2.0807  1.0830  0.5864
   21SAPC  H11B 2707   1.997   3.137  10.833  0.0276 -1.7786 -0.2034
   21SAPC     P 2708   1.877   2.908  10.774 -0.6549  0.5012  0.3116
   21SAPC   O13 2709   1.991   2.860  10.853  0.1073 -0.2241  0.1310
   21SAPC   O14 2710   1.779   2.806  10.746  0.0123 -0.6748 -0.0915
   21SAPC   O12 2711   1.814   3.033  10.854  0.1478 -0.0172 -0.2710
   21SAPC   O11 2712   1.926   2.964  10.637  0.0874  0.2413  0.0099
   21SAPC    C1 2713   2.015   2.909  10.545 -0.0007 -1.0200 -0.7528
   21SAPC    HA 2714   2.035   2.801  10.566  1.8248 -0.9585 -1.9813
   21SAPC    HB 2715   1.973   2.925  10.444 -0.3062  0.2921 -0.4402
   21SAPC    C2 2716   2.157   2.970  10.547 -0.3003  0.5772 -0.0431
   21SAPC    HS 2717   2.184   2.992  10.653 -1.4364  1.0339  0.1576
   21SAPC   O21 2718   2.143   3.088  10.467 -0.6336 -0.0206  0.3143
   21SAPC   C21 2719   2.250   3.167  10.469  0.7153  0.6508 -0.3012
   21SAPC   O22 2720   2.355   3.144  10.524  0.2729 -0.0770  0.3608
   21SAPC   C22 2721   2.216   3.286  10.381 -0.1412 -0.2559  0.3103
   21SAPC   H2R 2722   2.109   3.310  10.394 -0.3858 -0.8077 -0.6196
   21SAPC   H2S 2723   2.258   3.382  10.418  1.3320 -0.5969 -0.3713
   21SAPC    C3 2724   2.255   2.869  10.482 -0.1061  0.4282 -0.0261
   21SAPC    HX 2725   2.246   2.784  10.552  0.3414 -0.2101 -0.7225
   21SAPC    HY 2726   2.359   2.909  10.493  0.9768 -2.2706  0.3180
   21SAPC   O31 2727   2.215   2.828  10.347 -0.2247  0.0071  0.1864
   21SAPC   C31 2728   2.309   2.752  10.293  0.8705  0.4959 -0.0458
   21SAPC   O32 2729   2.421   2.732  10.336  0.4496  0.4076 -0.0360
   21SAPC   C32 2730   2.240   2.690  10.172 -0.3564 -0.1998  0.0064
   21SAPC   H2X 2731   2.218   2.775  10.105 -1.3233  0.8860  1.6310
   21SAPC   H2Y 2732   2.137   2.654  10.191 -0.5815  0.3019 -0.2544
   21SAPC   C23 2733   2.240   3.254  10.233  0.2002  0.2397  0.3867
   21SAPC   H3R 2734   2.348   3.230  10.223  0.1950  0.8251 -1.4430
   21SAPC   H3S 2735   2.210   3.342  10.173 -2.4027 -0.9502 -0.2006
   21SAPC   C24 2736   2.163   3.131  10.173 -0.3617 -0.7605 -0.5763
   21SAPC   H4R 2737   2.058   3.161  10.157 -0.0102  0.6107 -0.4218
   21SAPC   H4S 2738   2.186   3.046  10.240  1.1053  0.4018  0.4656
   21SAPC   C25 2739   2.226   3.084  10.045  0.2028  0.2919 -0.4404
   21SAPC   H5R 2740   2.321   3.136  10.025  1.0865 -0.9956  0.2700
   21SAPC   C26 2741   2.174   2.991   9.961 -0.3757 -0.4871  0.2279
   21SAPC   H6R 2742   2.235   2.967   9.873 -0.3768  0.8369 -0.1439
   21SAPC   C27 2743   2.053   2.901   9.974  0.1069 -0.4228  0.5469
   21SAPC   H7R 2744   2.025   2.883  10.080 -0.1668 -0.2587  0.5050
   21SAPC   H7S 2745   2.059   2.807   9.915 -0.6412 -0.2682  0.2023
   21SAPC   C28 2746   1.930   2.964   9.912 -0.7719 -0.6344  0.0578
   21SAPC   H8R 2747   1.859   3.018   9.976 -0.2412  0.5632 -0.3163
   21SAPC   C29 2748   1.894   2.952   9.784 -0.4793 -0.4755  1.0927
   21SAPC   H9R 2749   1.793   2.989   9.761 -1.0491 -1.4102  2.0124
   21SAPC  C210 2750   1.968   2.888   9.669  0.8715  0.0187 -0.6717
   21SAPC  H10R 2751   1.950   2.780   9.650  1.3106  0.2230 -2.4202
   21SAPC  H10S 2752   2.074   2.890   9.702  0.4303 -0.1892  0.8310
   21SAPC  C211 2753   1.933   2.972   9.547 -0.0149  0.0012 -0.0632
   21SAPC  H11R 2754   1.833   2.965   9.503  0.6671 -2.9453 -1.4465
   21SAPC  C212 2755   2.018   3.043   9.477 -0.2576  0.4335 -0.3553
   21SAPC  H12R 2756   1.983   3.110   9.397  0.3847  2.4296  0.9521
   21SAPC  C213 2757   2.164   3.054   9.513 -0.2241 -0.4910  0.5669
   21SAPC  H13R 2758   2.202   2.959   9.557  2.0615  1.4669  3.2137
   21SAPC  H13S 2759   2.171   3.141   9.583  4.3441  2.1187 -2.6222
   21SAPC  C214 2760   2.257   3.098   9.394  1.3727  0.3683  0.2001
   21SAPC  H14R 2761   2.245   3.043   9.300  2.1757  0.7436 -0.1368
   21SAPC  C215 2762   2.338   3.206   9.392 -0.6315 -0.3450 -0.1151
   21SAPC  H15R 2763   2.401   3.215   9.302 -1.6238  0.8053 -0.7296
   21SAPC  C216 2764   2.362   3.307   9.504 -0.1907  0.0210  0.1277
   21SAPC  H16R 2765   2.262   3.341   9.536 -0.3004 -0.5574  0.4120
   21SAPC  H16S 2766   2.415   3.398   9.467 -0.6642 -0.2367 -1.2742
   21SAPC  C217 2767   2.437   3.245   9.625 -0.6298 -0.1901  0.6036
   21SAPC  H17R 2768   2.535   3.201   9.596 -1.5641 -0.5096 -2.3684
   21SAPC  H17S 2769   2.370   3.162   9.656  1.2535 -1.7552  0.6968
   21SAPC  C218 2770   2.456   3.342   9.744  0.8970  1.0449 -0.5688
   21SAPC  H18R 2771   2.524   3.425   9.716  1.6964  0.9354  0.9084
   21SAPC  H18S 2772   2.491   3.283   9.831  0.4534 -1.1525 -1.7972
   21SAPC  C219 2773   2.327   3.404   9.794 -0.2320 -0.7857  0.0900
   21SAPC  H19R 2774   2.246   3.339   9.833 -1.2698  0.1038 -0.5257
   21SAPC  H19S 2775   2.286   3.461   9.707  1.7037 -1.4831 -1.3501
   21SAPC  C220 2776   2.353   3.504   9.909 -0.6129 -0.2879 -0.1920
   21SAPC  H20R 2777   2.423   3.582   9.874 -0.6646  0.3657  1.1028
   21SAPC  H20S 2778   2.398   3.451   9.996 -0.6050  0.0175 -0.0106
   21SAPC  H20T 2779   2.258   3.558   9.929 -0.1099  2.1043 -3.4986
   21SAPC   C33 2780   2.335   2.587  10.110 -0.1679  0.0552  0.1307
   21SAPC   H3X 2781   2.334   2.506  10.185 -1.5170  0.6753  0.8209
   21SAPC   H3Y 2782   2.439   2.624  10.095  0.6019 -2.4487 -1.1770
   21SAPC   C34 2783   2.290   2.539   9.979  0.4878  0.3557  0.4747
   21SAPC   H4X 2784   2.179   2.541   9.990  0.5720  0.5434  1.3496
   21SAPC   H4Y 2785   2.320   2.433   9.967 -0.6994 -0.0690  1.1182
   21SAPC   C35 2786   2.335   2.619   9.857  0.1567  0.2801  1.2116
   21SAPC   H5X 2787   2.444   2.631   9.844  0.0019  1.4216  0.8785
   21SAPC   H5Y 2788   2.295   2.722   9.858  0.8990  0.8732 -3.6662
   21SAPC   C36 2789   2.281   2.559   9.724  0.4723  0.4246 -0.5351
   21SAPC   H6X 2790   2.181   2.535   9.764  1.4622 -0.3146  1.6414
   21SAPC   H6Y 2791   2.350   2.471   9.718  0.3431  0.2721  0.1498
   21SAPC   C37 2792   2.284   2.645   9.599 -0.2466 -0.1705 -0.0706
   21SAPC   H7X 2793   2.389   2.628   9.567 -0.6534 -1.2690 -0.9068
   21SAPC   H7Y 2794   2.256   2.751   9.617 -1.0299 -0.2458 -0.7938
   21SAPC   C38 2795   2.197   2.602   9.481 -0.0874  0.2237 -1.0112
   21SAPC   H8X 2796   2.089   2.622   9.496 -0.3308  0.7210 -3.1144
   21SAPC   H8Y 2797   2.214   2.493   9.469 -1.0294 -0.2877  1.5873
   21SAPC   C39 2798   2.231   2.674   9.351  0.6959  0.0949  0.3030
   21SAPC   H9X 2799   2.338   2.665   9.324  1.0358 -2.3795  2.0867
   21SAPC   H9Y 2800   2.203   2.779   9.370 -0.4569 -0.5378  2.4739
   21SAPC  C310 2801   2.147   2.615   9.230  0.0730  0.4506 -1.1752
   21SAPC  H10X 2802   2.046   2.599   9.273  1.4824 -1.8726  1.6024
   21SAPC  H10Y 2803   2.184   2.515   9.197 -1.1531  0.3135 -2.1981
   21SAPC  C311 2804   2.124   2.692   9.095 -0.3335 -1.1871  0.0895
   21SAPC  H11X 2805   2.040   2.648   9.037 -0.1564 -1.1109 -0.2327
   21SAPC  H11Y 2806   2.220   2.680   9.040 -0.8708 -0.6179 -0.9944
   21SAPC  C312 2807   2.089   2.842   9.106  0.1805 -0.4710 -0.5446
   21SAPC  H12X 2808   2.168   2.887   9.169  0.2306 -0.6484 -0.4827
   21SAPC  H12Y 2809   1.989   2.861   9.151  1.2378  2.0522  0.9380
   21SAPC  C313 2810   2.091   2.915   8.972  0.0264 -0.1050 -0.0006
   21SAPC  H13X 2811   2.008   2.894   8.902  1.4355 -2.0511 -1.1641
   21SAPC  H13Y 2812   2.181   2.882   8.917 -1.4356  0.2515 -2.7859
   21SAPC  C314 2813   2.105   3.066   8.991 -0.3779 -0.3195  0.1215
   21SAPC  H14X 2814   2.183   3.094   9.065  0.8505  1.2420 -1.6752
   21SAPC  H14Y 2815   2.004   3.099   9.023 -0.0657 -0.3248  1.1424
   21SAPC  C315 2816   2.127   3.142   8.856 -1.0828  0.6627 -0.0575
   21SAPC  H15X 2817   2.045   3.106   8.790 -1.7434  0.1574  1.0021
   21SAPC  H15Y 2818   2.228   3.125   8.813 -0.6665 -0.3725  1.2666
   21SAPC  C316 2819   2.116   3.290   8.877  0.4604  0.1209  0.9053
   21SAPC  H16X 2820   2.175   3.331   8.962  1.4379  2.2360 -0.6998
   21SAPC  H16Y 2821   2.014   3.324   8.906  0.6390  1.6763 -0.1517
   21SAPC  C317 2822   2.163   3.370   8.758  0.0856  0.0851 -0.1890
   21SAPC  H17X 2823   2.272   3.372   8.741 -0.2324  3.4986 -3.1519
   21SAPC  H17Y 2824   2.142   3.477   8.777  1.7386  0.1956  1.2792
   21SAPC  C318 2825   2.112   3.323   8.624 -0.5529  0.2376 -0.1471
   21SAPC  H18X 2826   2.002   3.311   8.610 -0.5302  1.3501 -1.5341
   21SAPC  H18Y 2827   2.157   3.221   8.620 -2.5558 -0.7073  0.0325
   21SAPC  H18Z 2828   2.159   3.387   8.546  2.2504 -1.5615 -0.0586
   22SAPC     N 2829   4.076   0.934  10.855  0.5676 -0.2118 -0.2996
   22SAPC   C12 2830   3.995   1.012  10.749  0.0621  0.5677  0.5008
   22SAPC  H12A 2831   3.993   0.940  10.668 -1.5003  1.5837 -0.4207
   22SAPC  H12B 2832   4.049   1.098  10.712 -0.7621  1.0623  0.4178
   22SAPC   C13 2833   4.087   1.008  10.988  0.4921  0.1465 -0.1419
   22SAPC  H13A 2834   3.989   1.033  11.026 -0.6272 -2.7896 -0.8286
   22SAPC  H13B 2835   4.129   0.946  11.065  0.9126  0.1581 -0.3604
   22SAPC  H13C 2836   4.151   1.095  10.988  0.0937  0.4545  0.5751
   22SAPC   C14 2837   4.007   0.802  10.886  0.0606 -0.7130  0.7266
   22SAPC  H14A 2838   4.044   0.767  10.981 -0.1061  1.1400  1.5066
   22SAPC  H14B 2839   3.901   0.820  10.896 -0.4523 -3.2493  0.6903
   22SAPC  H14C 2840   4.021   0.731  10.805  0.3342 -1.1446  1.1468
   22SAPC   C15 2841   4.214   0.903  10.814 -0.4423  0.7512  0.1413
   22SAPC  H15A 2842   4.275   0.842  10.880  0.4851  1.7156  0.2098
   22SAPC  H15B 2843   4.211   0.864  10.714  1.2758  3.4714 -1.1048
   22SAPC  H15C 2844   4.279   0.990  10.820 -0.7518  1.0308 -0.4792
   22SAPC   C11 2845   3.858   1.063  10.791  0.5297  0.0508 -0.4793
   22SAPC  H11A 2846   3.836   1.118  10.697 -0.2510 -1.7611 -1.4089
   22SAPC  H11B 2847   3.870   1.133  10.877  3.8298 -0.4578 -0.4051
   22SAPC     P 2848   3.687   0.872  10.725 -0.0211 -0.2333 -0.1383
   22SAPC   O13 2849   3.646   0.747  10.785  0.6946  0.3084 -0.4324
   22SAPC   O14 2850   3.580   0.955  10.664 -0.0081 -0.9720  0.2644
   22SAPC   O12 2851   3.767   0.962  10.836  0.1260  0.2175 -0.0670
   22SAPC   O11 2852   3.797   0.839  10.612 -0.0991 -0.0540  0.2295
   22SAPC    C1 2853   3.775   0.869  10.474  0.6728  0.1703 -0.0854
   22SAPC    HA 2854   3.759   0.978  10.457 -0.8819  0.0558  0.4080
   22SAPC    HB 2855   3.871   0.863  10.419  0.5576  2.2416 -0.6183
   22SAPC    C2 2856   3.669   0.781  10.401  0.0960 -0.1636 -0.5835
   22SAPC    HS 2857   3.573   0.808  10.449  0.6648 -1.4840  1.4594
   22SAPC   O21 2858   3.699   0.643  10.431 -0.2364 -0.1579 -0.2752
   22SAPC   C21 2859   3.618   0.552  10.381  0.4773 -0.3506 -0.1445
   22SAPC   O22 2860   3.501   0.572  10.342 -0.4392 -0.3106 -1.3071
   22SAPC   C22 2861   3.678   0.411  10.388 -0.4925 -0.4798 -0.3013
   22SAPC   H2R 2862   3.789   0.415  10.387 -0.4625  0.0307  1.5317
   22SAPC   H2S 2863   3.649   0.359  10.481  2.1538 -2.2945 -0.3788
   22SAPC    C3 2864   3.667   0.804  10.244  0.8329  0.7257 -0.5801
   22SAPC    HX 2865   3.595   0.731  10.203  1.3605  1.0039 -2.0824
   22SAPC    HY 2866   3.763   0.769  10.200  0.3239  0.2357 -1.3059
   22SAPC   O31 2867   3.657   0.943  10.210 -0.1777  0.0754 -0.3805
   22SAPC   C31 2868   3.532   0.990  10.194 -1.0082  0.0402 -0.3284
   22SAPC   O32 2869   3.431   0.934  10.235 -0.7599 -0.1910 -0.0699
   22SAPC   C32 2870   3.529   1.120  10.117 -0.4001  1.3678  0.0662
   22SAPC   H2X 2871   3.623   1.179  10.126 -0.0422  1.1011 -1.6213
   22SAPC   H2Y 2872   3.462   1.181  10.181 -0.6961  0.3164  0.7887
   22SAPC   C23 2873   3.633   0.319  10.271 -0.0442  0.4706 -0.1794
   22SAPC   H3R 2874   3.526   0.321  10.242 -0.6747 -2.8382  1.4137
   22SAPC   H3S 2875   3.649   0.217  10.311 -0.2387 -0.0190 -1.3368
   22SAPC   C24 2876   3.710   0.337  10.139  0.0827  0.4094 -0.7036
   22SAPC   H4R 2877   3.686   0.256  10.066  2.6508 -1.3047  0.2312
   22SAPC   H4S 2878   3.816   0.324  10.167  0.0157  0.7956 -0.2708
   22SAPC   C25 2879   3.694   0.462  10.065 -0.1103 -0.4456 -0.0460
   22SAPC   H5R 2880   3.594   0.505  10.060 -0.6689 -1.7301 -0.4966
   22SAPC   C26 2881   3.797   0.526  10.002  0.2099  0.4144  0.0883
   22SAPC   H6R 2882   3.787   0.622   9.949  3.5909  0.1018 -1.3911
   22SAPC   C27 2883   3.933   0.460   9.990 -0.1796 -0.4713  0.2311
   22SAPC   H7R 2884   3.939   0.350  10.000 -0.5898 -0.4873  0.3355
   22SAPC   H7S 2885   3.987   0.509  10.074  0.0766  1.2101 -0.8499
   22SAPC   C28 2886   4.015   0.499   9.864 -1.6502 -0.1931  0.6651
   22SAPC   H8R 2887   4.105   0.562   9.879 -0.5979 -1.2831 -0.7758
   22SAPC   C29 2888   3.998   0.455   9.742  0.7692  0.5213  0.1203
   22SAPC   H9R 2889   4.077   0.485   9.672 -2.0182  2.5457 -2.4557
   22SAPC  C210 2890   3.897   0.356   9.683  0.2367  0.2518 -0.0559
   22SAPC  H10R 2891   3.850   0.298   9.765  3.1248  1.1951  2.4500
   22SAPC  H10S 2892   3.952   0.289   9.613  0.6628  1.8030 -1.2688
   22SAPC  C211 2893   3.792   0.436   9.609 -0.0087  0.4854  0.0415
   22SAPC  H11R 2894   3.720   0.484   9.676 -2.9149 -1.0877 -1.7618
   22SAPC  C212 2895   3.769   0.442   9.476  0.9394 -0.1999 -0.2191
   22SAPC  H12R 2896   3.685   0.500   9.434  1.7709  0.0878 -1.5135
   22SAPC  C213 2897   3.852   0.368   9.377 -0.4479  0.2533  0.3321
   22SAPC  H13R 2898   3.864   0.260   9.400 -0.7436 -0.3245 -1.9992
   22SAPC  H13S 2899   3.950   0.419   9.367 -1.2561  1.5039 -1.8453
   22SAPC  C214 2900   3.787   0.373   9.246  0.4146  0.7113  0.0271
   22SAPC  H14R 2901   3.748   0.273   9.221  1.1183  0.8387 -1.7095
   22SAPC  C215 2902   3.770   0.474   9.164 -0.2404 -1.2164  0.7178
   22SAPC  H15R 2903   3.694   0.468   9.084  0.3386 -2.0731  0.2137
   22SAPC  C216 2904   3.806   0.612   9.193  0.1432 -0.1219  0.1749
   22SAPC  H16R 2905   3.891   0.604   9.265  1.3481  1.0653 -1.0455
   22SAPC  H16S 2906   3.722   0.664   9.244 -0.1863  0.4654 -0.9367
   22SAPC  C217 2907   3.842   0.707   9.086 -0.1793  0.0385 -0.0295
   22SAPC  H17R 2908   3.907   0.663   9.008  0.6968  1.5493 -0.1853
   22SAPC  H17S 2909   3.883   0.800   9.132  0.9949  0.4973 -1.9082
   22SAPC  C218 2910   3.723   0.745   9.006 -0.8422 -0.2737  0.3973
   22SAPC  H18R 2911   3.661   0.812   9.069 -0.7136 -1.0062  1.3183
   22SAPC  H18S 2912   3.655   0.664   8.972  0.3587 -0.2667 -2.3563
   22SAPC  C219 2913   3.767   0.823   8.874 -0.0234 -0.0068 -0.3535
   22SAPC  H19R 2914   3.849   0.892   8.904  1.6272 -1.7823 -0.5895
   22SAPC  H19S 2915   3.686   0.886   8.831  1.3294  1.8216 -0.3301
   22SAPC  C220 2916   3.834   0.736   8.759 -0.5533  0.4610  0.3209
   22SAPC  H20R 2917   3.790   0.635   8.744 -1.9866  1.0210  0.5043
   22SAPC  H20S 2918   3.942   0.731   8.780 -0.7548 -0.7734  1.1435
   22SAPC  H20T 2919   3.834   0.785   8.659 -0.0181 -2.3773 -1.1666
   22SAPC   C33 2920   3.465   1.113   9.972  0.4948 -0.3141 -0.6849
   22SAPC   H3X 2921   3.423   1.213   9.946  1.9157  0.5386  0.1682
   22SAPC   H3Y 2922   3.382   1.039   9.970  1.3036 -1.4579  2.0997
   22SAPC   C34 2923   3.574   1.077   9.868 -0.0009 -0.4774 -0.2243
   22SAPC   H4X 2924   3.622   0.983   9.901 -1.4364 -0.5283  1.8829
   22SAPC   H4Y 2925   3.647   1.159   9.856  1.9050 -2.2688 -1.5448
   22SAPC   C35 2926   3.512   1.042   9.728  0.1352  0.9718 -0.6592
   22SAPC   H5X 2927   3.451   0.950   9.724 -1.3468  1.9025 -0.2135
   22SAPC   H5Y 2928   3.599   1.012   9.666 -0.2998 -1.3940 -0.2233
   22SAPC   C36 2929   3.436   1.149   9.652  0.6240 -0.7457  0.1796
   22SAPC   H6X 2930   3.493   1.242   9.674 -0.6695 -0.1789  1.2197
   22SAPC   H6Y 2931   3.335   1.160   9.696  0.9807 -2.5819  1.5928
   22SAPC   C37 2932   3.437   1.124   9.499  0.3240 -0.1163  0.6098
   22SAPC   H7X 2933   3.390   1.027   9.471  1.1690  0.4443 -3.2703
   22SAPC   H7Y 2934   3.542   1.104   9.469  0.1611 -1.1819  0.7059
   22SAPC   C38 2935   3.369   1.231   9.407 -0.5448  0.5921  0.1884
   22SAPC   H8X 2936   3.395   1.327   9.458  1.3216 -0.8004  2.0321
   22SAPC   H8Y 2937   3.258   1.228   9.401 -0.5417 -1.6714  0.6292
   22SAPC   C39 2938   3.424   1.214   9.265 -0.3550 -0.7812  0.1270
   22SAPC   H9X 2939   3.392   1.115   9.226 -0.8131 -0.8513  0.6650
   22SAPC   H9Y 2940   3.534   1.222   9.259 -0.4569 -0.5532 -2.2740
   22SAPC  C310 2941   3.375   1.312   9.153  0.0476 -0.2481 -0.0584
   22SAPC  H10X 2942   3.446   1.396   9.169  0.2889 -0.3917 -0.3730
   22SAPC  H10Y 2943   3.269   1.344   9.165 -0.6266 -2.1545 -0.5525
   22SAPC  C311 2944   3.401   1.240   9.018 -0.4573  0.1065  0.0548
   22SAPC  H11X 2945   3.495   1.182   9.008  0.8108  2.0364  0.2368
   22SAPC  H11Y 2946   3.410   1.312   8.934  0.3219 -2.4726 -2.2140
   22SAPC  C312 2947   3.283   1.147   8.988 -0.6871 -0.2277 -0.0539
   22SAPC  H12X 2948   3.188   1.202   9.006 -0.2449  0.0929  1.4436
   22SAPC  H12Y 2949   3.282   1.063   9.061  0.9130  0.1761  0.4751
   22SAPC  C313 2950   3.282   1.097   8.846 -0.1029  0.2574 -0.0952
   22SAPC  H13X 2951   3.195   1.028   8.840 -0.0433  0.2922 -1.6340
   22SAPC  H13Y 2952   3.364   1.024   8.832 -2.5627 -2.7257 -0.0995
   22SAPC  C314 2953   3.296   1.188   8.732  0.6545  0.0419 -0.4057
   22SAPC  H14X 2954   3.388   1.249   8.745  0.1918  0.7510 -0.4183
   22SAPC  H14Y 2955   3.208   1.256   8.733 -0.3714 -1.2598 -0.2104
   22SAPC  C315 2956   3.317   1.118   8.596 -0.0931 -0.1745  1.0793
   22SAPC  H15X 2957   3.421   1.080   8.596 -0.2238 -0.6247 -0.5217
   22SAPC  H15Y 2958   3.312   1.197   8.518 -1.0400 -0.6396  0.6444
   22SAPC  C316 2959   3.208   1.009   8.558 -0.7295 -0.2280 -0.2065
   22SAPC  H16X 2960   3.111   1.062   8.568 -0.0895  1.0803 -0.6904
   22SAPC  H16Y 2961   3.218   0.929   8.635  3.1974  0.4072  0.1444
   22SAPC  C317 2962   3.222   0.939   8.420 -0.1238 -0.9110 -0.6034
   22SAPC  H17X 2963   3.329   0.908   8.415  0.1249 -0.4318  1.1276
   22SAPC  H17Y 2964   3.214   1.017   8.342  3.1537  1.9454  1.6276
   22SAPC  C318 2965   3.119   0.825   8.401  0.3610 -0.0995 -0.1839
   22SAPC  H18X 2966   3.135   0.742   8.473 -2.6785 -1.2865 -0.7328
   22SAPC  H18Y 2967   3.132   0.778   8.301 -0.7493 -1.9355  0.4739
   22SAPC  H18Z 2968   3.017   0.868   8.406  0.4720  0.0901  0.4505
   23SAPC     N 2969   3.604   2.770  11.144  1.0377 -0.2283 -0.0484
   23SAPC   C12 2970   3.528   2.681  11.045 -0.3079 -0.3292 -0.1920
   23SAPC  H12A 2971   3.443   2.737  11.008  0.9917  1.0955 -1.1745
   23SAPC  H12B 2972   3.476   2.598  11.090 -0.7714 -1.1414 -2.1464
   23SAPC   C13 2973   3.729   2.711  11.183 -0.0712  0.7972 -0.3655
   23SAPC  H13A 2974   3.726   2.607  11.210  1.5456 -0.6458 -4.8277
   23SAPC  H13B 2975   3.795   2.699  11.099  0.3043 -0.5455  0.0957
   23SAPC  H13C 2976   3.768   2.772  11.264 -2.0489 -1.4050  2.4625
   23SAPC   C14 2977   3.642   2.905  11.094 -0.0166  0.1204  0.5142
   23SAPC  H14A 2978   3.681   2.898  10.993  0.4596  0.9070  0.6399
   23SAPC  H14B 2979   3.552   2.963  11.080 -0.6038 -1.0270 -0.7843
   23SAPC  H14C 2980   3.711   2.953  11.162  0.5214  1.6168 -1.0261
   23SAPC   C15 2981   3.510   2.778  11.265  0.2512 -0.7680 -0.1745
   23SAPC  H15A 2982   3.561   2.823  11.349 -0.9167 -0.8586  0.6112
   23SAPC  H15B 2983   3.421   2.835  11.242 -0.4227 -1.5647  0.3703
   23SAPC  H15C 2984   3.481   2.680  11.301  0.6755  0.1270  2.8957
   23SAPC   C11 2985   3.596   2.622  10.923  0.2229  0.0347 -0.6230
   23SAPC  H11A 2986   3.516   2.582  10.857  0.8067 -1.3850 -0.5129
   23SAPC  H11B 2987   3.649   2.530  10.959 -2.2794 -0.5215  1.9456
   23SAPC     P 2988   3.778   2.657  10.744 -0.1160  0.1681  0.1629
   23SAPC   O13 2989   3.875   2.754  10.685 -0.0844  0.5858  0.4620
   23SAPC   O14 2990   3.842   2.534  10.801 -0.3061 -0.1108 -0.0330
   23SAPC   O12 2991   3.683   2.716  10.858 -0.3938 -0.1479  0.2335
   23SAPC   O11 2992   3.677   2.598  10.629 -0.6327 -0.6820 -0.1204
   23SAPC    C1 2993   3.638   2.691  10.524  0.5997  0.0390 -0.6364
   23SAPC    HA 2994   3.656   2.796  10.557 -0.8372 -0.0419  0.5049
   23SAPC    HB 2995   3.695   2.677  10.429  3.4099  0.4699  0.8708
   23SAPC    C2 2996   3.487   2.671  10.478  0.2809 -0.5950 -0.0154
   23SAPC    HS 2997   3.426   2.680  10.570  1.0042  0.4886  0.3766
   23SAPC   O21 2998   3.468   2.537  10.414 -0.7161 -0.0654 -0.3521
   23SAPC   C21 2999   3.352   2.479  10.438 -0.2133  0.5760 -0.6252
   23SAPC   O22 3000   3.265   2.515  10.516  0.4612  0.3317  0.0558
   23SAPC   C22 3001   3.333   2.357  10.344  0.0038 -0.3861 -0.3631
   23SAPC   H2R 3002   3.323   2.399  10.241  0.2260 -0.0676 -0.2565
   23SAPC   H2S 3003   3.424   2.294  10.340  0.1721 -0.2151  0.6372
   23SAPC    C3 3004   3.446   2.782  10.378 -0.5520  0.7308 -0.1617
   23SAPC    HX 3005   3.431   2.882  10.424 -4.7519  0.3855 -0.3405
   23SAPC    HY 3006   3.339   2.761  10.356 -0.4179 -1.4787  0.9795
   23SAPC   O31 3007   3.529   2.783  10.263  0.1188 -0.9490  0.2507
   23SAPC   C31 3008   3.495   2.739  10.149  0.0928  0.1591  0.6427
   23SAPC   O32 3009   3.383   2.702  10.114  0.3039  0.2078 -0.2896
   23SAPC   C32 3010   3.623   2.731  10.057 -0.1591 -0.1323 -0.4394
   23SAPC   H2X 3011   3.650   2.624  10.050 -0.2791 -0.3458  1.7937
   23SAPC   H2Y 3012   3.701   2.801  10.094  0.1153  0.2191 -1.6326
   23SAPC   C23 3013   3.221   2.269  10.386  0.1324 -0.6961  0.2220
   23SAPC   H3R 3014   3.128   2.329  10.380  0.5470 -0.1789 -3.6230
   23SAPC   H3S 3015   3.232   2.245  10.494  1.0017 -1.3449  0.0005
   23SAPC   C24 3016   3.213   2.140  10.293 -0.1894  0.1989  0.1536
   23SAPC   H4R 3017   3.222   2.167  10.185  1.2440 -1.7185 -0.2560
   23SAPC   H4S 3018   3.112   2.103  10.320 -0.0984  0.8001  1.4018
   23SAPC   C25 3019   3.306   2.024  10.320 -0.4944 -1.0620  0.0283
   23SAPC   H5R 3020   3.314   1.998  10.427 -0.2314  3.0276  1.1602
   23SAPC   C26 3021   3.364   1.935  10.240 -0.7798  0.6460  0.9294
   23SAPC   H6R 3022   3.434   1.871  10.297  2.1503 -0.7821 -3.6793
   23SAPC   C27 3023   3.359   1.913  10.092  0.2777 -0.3319 -0.0981
   23SAPC   H7R 3024   3.318   2.006  10.048 -3.3675 -1.1041  1.2246
   23SAPC   H7S 3025   3.286   1.832  10.070  0.6079 -0.4554 -0.7315
   23SAPC   C28 3026   3.502   1.899  10.042  0.1057 -0.0080 -0.5476
   23SAPC   H8R 3027   3.588   1.911  10.108  1.4312  0.1180 -2.2245
   23SAPC   C29 3028   3.514   1.871   9.912 -0.0572 -0.5631  0.0664
   23SAPC   H9R 3029   3.621   1.860   9.889  0.4824  1.3745  1.3654
   23SAPC  C210 3030   3.403   1.852   9.810 -0.3177  0.2742 -0.9004
   23SAPC  H10R 3031   3.325   1.929   9.829  0.4240  0.6909  0.6221
   23SAPC  H10S 3032   3.364   1.748   9.801 -0.6646  0.4013 -0.8758
   23SAPC  C211 3033   3.440   1.907   9.678  0.0246 -0.0428 -0.7966
   23SAPC  H11R 3034   3.535   1.963   9.674  0.0242 -0.0939 -1.8955
   23SAPC  C212 3035   3.368   1.875   9.565  0.0986  0.0816 -0.7655
   23SAPC  H12R 3036   3.400   1.904   9.464 -0.7098  4.6771  0.0644
   23SAPC  C213 3037   3.240   1.801   9.569  0.3030  0.0522 -0.2133
   23SAPC  H13R 3038   3.185   1.844   9.482  0.4827 -3.6742 -2.3638
   23SAPC  H13S 3039   3.189   1.826   9.664 -0.1399  1.3916 -0.7682
   23SAPC  C214 3040   3.248   1.656   9.549 -0.2536 -0.3538 -0.2772
   23SAPC  H14R 3041   3.327   1.603   9.605  0.9673 -1.1170 -2.5695
   23SAPC  C215 3042   3.164   1.584   9.474  1.3234  0.2088 -0.1055
   23SAPC  H15R 3043   3.170   1.474   9.463 -2.0632  0.0408 -1.2945
   23SAPC  C216 3044   3.033   1.642   9.412 -0.3805 -0.4925 -0.1338
   23SAPC  H16R 3045   2.988   1.722   9.473  0.7585 -0.9144  1.3347
   23SAPC  H16S 3046   2.962   1.558   9.400 -1.1836  0.0076  1.0247
   23SAPC  C217 3047   3.062   1.716   9.276  1.0928  0.0602  0.4194
   23SAPC  H17R 3048   3.115   1.814   9.282 -0.7314  1.1271 -0.0616
   23SAPC  H17S 3049   2.959   1.734   9.236  0.6817 -0.7302  1.0980
   23SAPC  C218 3050   3.127   1.624   9.170 -0.2678  0.3436 -0.1333
   23SAPC  H18R 3051   3.073   1.528   9.165 -0.9615  0.7166  0.1643
   23SAPC  H18S 3052   3.228   1.607   9.214 -0.5125  0.1350  0.3449
   23SAPC  C219 3053   3.135   1.677   9.022 -0.3381 -0.1887 -0.2816
   23SAPC  H19R 3054   3.028   1.683   8.992 -0.4587 -2.5780 -0.5269
   23SAPC  H19S 3055   3.188   1.608   8.954  2.7379  1.4929  0.2053
   23SAPC  C220 3056   3.194   1.825   9.013 -0.1632  1.1034  0.3250
   23SAPC  H20R 3057   3.254   1.836   8.920  0.3942  1.7883  0.7495
   23SAPC  H20S 3058   3.267   1.837   9.096 -1.1879  1.6971  1.1659
   23SAPC  H20T 3059   3.114   1.902   9.014 -0.9129  0.4238 -1.6252
   23SAPC   C33 3060   3.594   2.761   9.914  0.0148 -0.4041 -0.1883
   23SAPC   H3X 3061   3.552   2.863   9.906  1.7395  0.2914 -0.8683
   23SAPC   H3Y 3062   3.526   2.682   9.875 -0.5663 -1.3173  2.4469
   23SAPC   C34 3063   3.726   2.751   9.840 -0.0838 -0.3852  0.0442
   23SAPC   H4X 3064   3.775   2.651   9.846 -0.8900 -0.6837  2.4733
   23SAPC   H4Y 3065   3.796   2.822   9.889  1.5291 -0.7721 -1.5509
   23SAPC   C35 3066   3.705   2.791   9.692 -0.2164  0.1915 -0.2204
   23SAPC   H5X 3067   3.672   2.897   9.689  0.5937  0.4836  0.5687
   23SAPC   H5Y 3068   3.617   2.741   9.646 -1.3828  1.8080  0.1334
   23SAPC   C36 3069   3.840   2.782   9.613  0.3534  0.7096 -0.3509
   23SAPC   H6X 3070   3.881   2.678   9.617  0.7754  0.9140  1.6088
   23SAPC   H6Y 3071   3.903   2.844   9.681 -1.1920  1.1288  0.7420
   23SAPC   C37 3072   3.841   2.833   9.473 -0.7334  0.5357  0.0917
   23SAPC   H7X 3073   3.929   2.892   9.441 -0.5591  0.1111 -0.2219
   23SAPC   H7Y 3074   3.759   2.907   9.457 -1.1528  0.2822  1.0241
   23SAPC   C38 3075   3.817   2.721   9.374  0.1618 -0.6735  0.2235
   23SAPC   H8X 3076   3.726   2.666   9.406 -0.5281  0.3224  0.0022
   23SAPC   H8Y 3077   3.895   2.645   9.397  0.4358 -0.3938  0.2285
   23SAPC   C39 3078   3.817   2.774   9.232 -0.5673  0.4812  0.5489
   23SAPC   H9X 3079   3.919   2.812   9.209 -0.6613 -0.9665 -2.8476
   23SAPC   H9Y 3080   3.751   2.863   9.224  1.0757  1.6659 -0.5596
   23SAPC  C310 3081   3.779   2.672   9.133  0.1892 -0.5414  0.4049
   23SAPC  H10X 3082   3.709   2.599   9.179 -1.2640  0.5891  0.0821
   23SAPC  H10Y 3083   3.862   2.608   9.097 -1.1776 -2.8344  1.1316
   23SAPC  C311 3084   3.715   2.744   9.007 -0.1598  0.0280  0.0188
   23SAPC  H11X 3085   3.777   2.826   8.964 -1.5838  1.6889  1.0102
   23SAPC  H11Y 3086   3.626   2.798   9.045  0.7105  0.8321  1.0042
   23SAPC  C312 3087   3.664   2.649   8.895 -0.1752 -0.3987  0.3712
   23SAPC  H12X 3088   3.586   2.586   8.943 -2.1713  1.8496  0.2679
   23SAPC  H12Y 3089   3.749   2.590   8.854  1.2420  1.4939  0.4677
   23SAPC  C313 3090   3.584   2.723   8.788  0.0145  0.1496  0.0911
   23SAPC  H13X 3091   3.659   2.777   8.726 -0.0701  0.2184  0.0480
   23SAPC  H13Y 3092   3.521   2.802   8.836 -0.2033 -0.8974  1.6036
   23SAPC  C314 3093   3.498   2.636   8.699  0.1926  0.4293 -0.3039
   23SAPC  H14X 3094   3.431   2.569   8.757 -0.1740 -0.0429 -1.2669
   23SAPC  H14Y 3095   3.560   2.562   8.644 -1.7877 -1.9300  0.4225
   23SAPC  C315 3096   3.422   2.727   8.593  0.1790 -0.1726 -0.3237
   23SAPC  H15X 3097   3.488   2.796   8.537 -1.8392 -1.5253 -4.8229
   23SAPC  H15Y 3098   3.355   2.788   8.657 -2.4519 -2.4552 -0.6765
   23SAPC  C316 3099   3.328   2.646   8.492  0.5542  0.1861  0.2374
   23SAPC  H16X 3100   3.261   2.707   8.429  0.0704  0.8782  1.3941
   23SAPC  H16Y 3101   3.264   2.594   8.566 -0.1911  2.3818  1.2023
   23SAPC  C317 3102   3.412   2.540   8.415  0.3771 -0.2825 -0.3652
   23SAPC  H17X 3103   3.351   2.480   8.346 -1.0358 -1.3016  1.6727
   23SAPC  H17Y 3104   3.451   2.475   8.496 -2.4820 -1.0339  0.5320
   23SAPC  C318 3105   3.522   2.590   8.327 -0.6495  0.3956 -0.1617
   23SAPC  H18X 3106   3.575   2.509   8.272  1.8460  3.2244 -2.2224
   23SAPC  H18Y 3107   3.611   2.626   8.383  0.5605 -2.1864 -0.2634
   23SAPC  H18Z 3108   3.486   2.661   8.250 -1.7677  0.5347  0.4555
   24SAPC     N 3109   5.958   3.089  10.909  0.1599 -0.1535  0.7781
   24SAPC   C12 3110   6.106   3.066  10.894  1.2809  0.2347 -0.0387
   24SAPC  H12A 3111   6.129   2.990  10.821 -0.4165  0.2642 -0.6631
   24SAPC  H12B 3112   6.144   3.026  10.987  0.8540 -1.0038 -0.3798
   24SAPC   C13 3113   5.924   3.176  11.025  0.2950  0.1498 -0.2328
   24SAPC  H13A 3114   5.904   3.109  11.108  2.2087  0.0484  0.1992
   24SAPC  H13B 3115   5.993   3.257  11.044  0.7983 -0.0084 -1.3229
   24SAPC  H13C 3116   5.824   3.212  11.008  0.2058 -0.0943 -0.2199
   24SAPC   C14 3117   5.913   3.146  10.780 -0.2935 -0.2901 -1.0916
   24SAPC  H14A 3118   5.969   3.238  10.765  0.5164 -0.2840  1.5636
   24SAPC  H14B 3119   5.917   3.085  10.691  1.2269 -0.0587 -1.2032
   24SAPC  H14C 3120   5.809   3.177  10.791 -0.3690 -0.7133 -0.6330
   24SAPC   C15 3121   5.889   2.956  10.933 -0.6016 -0.8910 -0.2571
   24SAPC  H15A 3122   5.933   2.921  11.025 -1.2519 -1.2100 -0.0610
   24SAPC  H15B 3123   5.784   2.976  10.952 -0.0921  1.1420  0.6815
   24SAPC  H15C 3124   5.902   2.898  10.843 -0.1440 -1.8892  0.4342
   24SAPC   C11 3125   6.188   3.188  10.850 -0.3299 -0.5197  0.0338
   24SAPC  H11A 3126   6.159   3.212  10.745  1.9007  0.4929 -0.3991
   24SAPC  H11B 3127   6.292   3.149  10.850 -0.8418 -1.9870 -1.4058
   24SAPC     P 3128   6.269   3.411  10.946 -0.0443  0.0122 -0.2490
   24SAPC   O13 3129   6.222   3.523  11.025  0.1667  0.0707  0.0508
   24SAPC   O14 3130   6.401   3.360  10.988 -0.3087  0.6892 -0.4433
   24SAPC   O12 3131   6.164   3.297  10.938 -0.4344  0.5601  0.4937
   24SAPC   O11 3132   6.281   3.470  10.799  0.0819  0.0533 -0.5425
   24SAPC    C1 3133   6.176   3.546  10.739  0.0346  1.0761 -0.0184
   24SAPC    HA 3134   6.100   3.583  10.811  0.9518  0.5644  1.2691
   24SAPC    HB 3135   6.221   3.630  10.681  1.3812  0.4728  0.1216
   24SAPC    C2 3136   6.080   3.474  10.639 -0.4921 -0.2823  1.0618
   24SAPC    HS 3137   6.060   3.374  10.683  1.6226 -2.2711 -2.0855
   24SAPC   O21 3138   6.147   3.458  10.515  0.1491 -0.1168  1.0482
   24SAPC   C21 3139   6.129   3.340  10.451 -0.1987  0.8697  0.0579
   24SAPC   O22 3140   6.076   3.239  10.499  0.2591 -0.1273  0.4007
   24SAPC   C22 3141   6.192   3.340  10.317  0.0827 -0.1386 -0.7044
   24SAPC   H2R 3142   6.189   3.440  10.268 -1.4131  0.1423 -0.0922
   24SAPC   H2S 3143   6.291   3.292  10.328  0.0131 -0.5580 -1.7656
   24SAPC    C3 3144   5.943   3.547  10.629  0.6905  0.0937  0.8068
   24SAPC    HX 3145   5.972   3.652  10.613  0.3622  0.3517  1.8133
   24SAPC    HY 3146   5.894   3.542  10.729 -0.5577  0.3328  0.2302
   24SAPC   O31 3147   5.853   3.496  10.527  0.4827  0.6027  0.7154
   24SAPC   C31 3148   5.758   3.414  10.568  0.3200 -0.0003 -0.1560
   24SAPC   O32 3149   5.743   3.371  10.680  0.1784 -0.3882 -0.4386
   24SAPC   C32 3150   5.675   3.362  10.454 -0.3921  0.1466  0.1468
   24SAPC   H2X 3151   5.668   3.444  10.379 -0.7798  2.0255  2.1281
   24SAPC   H2Y 3152   5.572   3.341  10.489 -1.7284 -2.2362 -4.4318
   24SAPC   C23 3153   6.121   3.263  10.211  0.7040  0.2307  0.8452
   24SAPC   H3R 3154   6.166   3.292  10.114 -1.0773  0.0991 -0.0711
   24SAPC   H3S 3155   6.012   3.286  10.203  1.2101  2.9260  0.7589
   24SAPC   C24 3156   6.148   3.110  10.214 -0.6527 -0.3168 -0.1574
   24SAPC   H4R 3157   6.075   3.071  10.140 -2.0511 -0.6791  1.3608
   24SAPC   H4S 3158   6.126   3.071  10.315  3.3189 -1.4897  0.4298
   24SAPC   C25 3159   6.288   3.067  10.190 -0.4661  0.5054  0.1904
   24SAPC   H5R 3160   6.345   3.033  10.277 -0.8659  0.9241  0.6205
   24SAPC   C26 3161   6.350   3.073  10.077 -0.3934  0.4513  0.0226
   24SAPC   H6R 3162   6.459   3.056  10.078  0.1235  3.2376  0.0980
   24SAPC   C27 3163   6.291   3.117   9.952 -0.0693 -0.0111  0.6824
   24SAPC   H7R 3164   6.315   3.225   9.938  1.1673 -0.5859 -2.8793
   24SAPC   H7S 3165   6.180   3.118   9.949 -0.1853  4.2301  0.4724
   24SAPC   C28 3166   6.360   3.047   9.831 -0.2119  0.0289  0.1315
   24SAPC   H8R 3167   6.434   2.970   9.858  0.4958  1.3298  2.0656
   24SAPC   C29 3168   6.323   3.059   9.700  0.6315 -0.2421 -0.3294
   24SAPC   H9R 3169   6.373   3.012   9.613 -0.4149  0.9230 -1.6145
   24SAPC  C210 3170   6.209   3.149   9.654  0.1996  0.7140  0.3247
   24SAPC  H10R 3171   6.138   3.172   9.736 -0.3290 -3.2629  1.1896
   24SAPC  H10S 3172   6.151   3.096   9.575 -1.7307  2.7963  0.2592
   24SAPC  C211 3173   6.268   3.270   9.584  0.2600 -0.6389  0.0638
   24SAPC  H11R 3174   6.367   3.305   9.617 -1.5045  3.4062  1.8009
   24SAPC  C212 3175   6.213   3.334   9.477 -0.0994 -0.2295 -0.1965
   24SAPC  H12R 3176   6.251   3.426   9.431  1.5835 -1.3490 -1.1931
   24SAPC  C213 3177   6.082   3.295   9.408  0.0921  0.7713 -0.2710
   24SAPC  H13R 3178   6.045   3.395   9.378 -1.7218  0.2842  0.2475
   24SAPC  H13S 3179   6.009   3.267   9.487  0.8927  5.4025  2.4527
   24SAPC  C214 3180   6.078   3.195   9.290  0.0802 -0.7271  0.1246
   24SAPC  H14R 3181   6.145   3.108   9.302  3.1661  1.3366 -0.7499
   24SAPC  C215 3182   5.995   3.191   9.185  0.1775  0.2173  0.1485
   24SAPC  H15R 3183   6.008   3.123   9.100  0.1364  0.4172 -0.0205
   24SAPC  C216 3184   5.886   3.299   9.164  0.7030 -0.3483 -0.1751
   24SAPC  H16R 3185   5.862   3.360   9.254 -1.3159  0.0004 -0.8828
   24SAPC  H16S 3186   5.793   3.251   9.126  0.1728 -0.5047  1.2468
   24SAPC  C217 3187   5.928   3.399   9.054 -0.2559  0.4689 -0.2021
   24SAPC  H17R 3188   5.933   3.354   8.952  1.5306 -1.5412  0.7116
   24SAPC  H17S 3189   6.018   3.462   9.069  0.7691 -0.5322 -1.7561
   24SAPC  C218 3190   5.832   3.527   9.048  0.2864  0.4252 -0.4033
   24SAPC  H18R 3191   5.846   3.573   9.148  0.7649  1.4353 -0.9111
   24SAPC  H18S 3192   5.728   3.491   9.039  0.9230 -1.4594 -0.7347
   24SAPC  C219 3193   5.857   3.624   8.925  0.3892  0.0772  0.2731
   24SAPC  H19R 3194   5.967   3.641   8.912  0.6309 -0.8701  0.9878
   24SAPC  H19S 3195   5.812   3.722   8.954  1.3221  0.2464  1.2181
   24SAPC  C220 3196   5.782   3.574   8.800 -0.3774  0.1202 -0.2913
   24SAPC  H20R 3197   5.825   3.616   8.707  0.9880 -1.6088 -0.5035
   24SAPC  H20S 3198   5.675   3.603   8.813 -0.1144  1.4619 -1.0104
   24SAPC  H20T 3199   5.783   3.463   8.807 -0.9734  0.1463  0.4813
   24SAPC   C33 3200   5.741   3.247  10.370  0.2455  0.1493  0.4453
   24SAPC   H3X 3201   5.746   3.156  10.434  0.9734 -0.5985 -0.6377
   24SAPC   H3Y 3202   5.840   3.269  10.324 -0.0282 -0.4278 -0.4565
   24SAPC   C34 3203   5.652   3.220  10.245  0.2147 -0.1590  0.1852
   24SAPC   H4X 3204   5.630   3.320  10.202  0.6635 -0.0116  0.2911
   24SAPC   H4Y 3205   5.559   3.168  10.276  1.2435 -1.7968  0.6435
   24SAPC   C35 3206   5.717   3.135  10.135 -0.4675 -0.2696  0.3489
   24SAPC   H5X 3207   5.738   3.035  10.180 -1.8268  0.4474  2.7613
   24SAPC   H5Y 3208   5.812   3.189  10.117  0.0142 -0.6320  1.6876
   24SAPC   C36 3209   5.637   3.120  10.002  0.5344  0.0396  0.0534
   24SAPC   H6X 3210   5.708   3.083   9.926 -0.1960 -1.7957  0.2121
   24SAPC   H6Y 3211   5.609   3.225   9.977 -0.5907 -0.1353  0.5136
   24SAPC   C37 3212   5.525   3.022   9.996 -0.2253  0.3036  0.3301
   24SAPC   H7X 3213   5.442   3.049  10.064  0.0191 -0.3366  0.8987
   24SAPC   H7Y 3214   5.552   2.918  10.025 -0.7396  0.2727  0.7089
   24SAPC   C38 3215   5.486   2.996   9.849 -0.0773 -0.4303 -0.1216
   24SAPC   H8X 3216   5.426   2.903   9.844  0.7420 -0.9834  0.1758
   24SAPC   H8Y 3217   5.565   2.994   9.771  1.7974  3.2826  1.4426
   24SAPC   C39 3218   5.389   3.104   9.799  0.1779 -0.4027  0.1302
   24SAPC   H9X 3219   5.439   3.202   9.812 -1.2649  0.3916 -0.0720
   24SAPC   H9Y 3220   5.304   3.114   9.871 -0.0966 -0.3147 -0.2022
   24SAPC  C310 3221   5.316   3.076   9.660 -0.3391 -0.0741 -0.1088
   24SAPC  H10X 3222   5.261   2.980   9.667 -1.2035  0.4813  1.2956
   24SAPC  H10Y 3223   5.388   3.075   9.575  1.0835 -0.4455  1.0628
   24SAPC  C311 3224   5.212   3.186   9.631  0.5095 -0.5031  0.1818
   24SAPC  H11X 3225   5.276   3.272   9.657  1.3687 -1.2111  0.4481
   24SAPC  H11Y 3226   5.128   3.167   9.702 -1.7655 -2.6371 -2.8186
   24SAPC  C312 3227   5.170   3.188   9.487 -0.3670 -0.0964  0.6629
   24SAPC  H12X 3228   5.129   3.086   9.473  2.1570 -1.2977  1.4195
   24SAPC  H12Y 3229   5.261   3.202   9.424 -0.4548 -1.3659  0.2229
   24SAPC  C313 3230   5.067   3.300   9.448 -0.4218 -0.5233  0.0075
   24SAPC  H13X 3231   5.105   3.403   9.461  1.1070 -0.7579 -2.1310
   24SAPC  H13Y 3232   4.976   3.273   9.506 -1.1416 -0.1775 -0.9446
   24SAPC  C314 3233   5.026   3.281   9.301 -0.3396  0.1715 -0.8868
   24SAPC  H14X 3234   5.038   3.172   9.284 -2.4439 -0.4667  1.2694
   24SAPC  H14Y 3235   5.099   3.337   9.238 -0.0192 -0.7737 -1.3705
   24SAPC  C315 3236   4.879   3.323   9.274  0.2146 -0.1297  0.2850
   24SAPC  H15X 3237   4.873   3.434   9.277  2.1004 -0.0006  0.5203
   24SAPC  H15Y 3238   4.808   3.282   9.350  0.3059 -1.2983 -0.2407
   24SAPC  C316 3239   4.823   3.284   9.142  0.2938  0.8107 -1.0024
   24SAPC  H16X 3240   4.721   3.326   9.127 -0.5389 -0.8596 -0.3139
   24SAPC  H16Y 3241   4.821   3.174   9.128  2.4836  0.8417 -1.8408
   24SAPC  C317 3242   4.908   3.340   9.026  0.6375 -0.7904  0.2632
   24SAPC  H17X 3243   5.004   3.285   9.034  0.8555 -0.4778 -0.1873
   24SAPC  H17Y 3244   4.921   3.448   9.046  0.2224 -0.6783 -0.0518
   24SAPC  C318 3245   4.834   3.315   8.890  1.1714  0.5244 -0.1859
   24SAPC  H18X 3246   4.911   3.345   8.815  0.5970  1.8182 -0.2917
   24SAPC  H18Y 3247   4.755   3.389   8.867  0.9514 -0.0649 -1.3922
   24SAPC  H18Z 3248   4.794   3.212   8.879 -0.0629  1.2747 -5.4383
   25SAPC     N 3249   2.362   1.240   5.869  0.3130 -0.7935  0.0914
   25SAPC   C12 3250   2.275   1.314   5.973 -0.2908  0.8428  0.4018
   25SAPC  H12A 3251   2.180   1.320   5.923  1.1978  1.4157 -2.5933
   25SAPC  H12B 3252   2.301   1.417   5.998 -0.8211  0.6948  1.6643
   25SAPC   C13 3253   2.317   1.106   5.845  0.3550 -1.3124  0.2865
   25SAPC  H13A 3254   2.318   1.045   5.934  0.3807 -1.5078  0.1516
   25SAPC  H13B 3255   2.211   1.104   5.822  0.4020 -2.6408  0.1387
   25SAPC  H13C 3256   2.376   1.060   5.769 -0.8088 -0.0918 -1.4428
   25SAPC   C14 3257   2.362   1.317   5.739 -0.7082 -0.0678  0.1719
   25SAPC  H14A 3258   2.260   1.342   5.713 -0.2063  3.1418  0.8378
   25SAPC  H14B 3259   2.413   1.411   5.753  0.0591 -0.4119 -0.2614
   25SAPC  H14C 3260   2.422   1.266   5.665 -1.8888 -0.1852 -0.7312
   25SAPC   C15 3261   2.503   1.235   5.923  0.0597 -0.6320  0.1487
   25SAPC  H15A 3262   2.556   1.155   5.876  0.0496 -0.4099 -0.2414
   25SAPC  H15B 3263   2.559   1.328   5.920 -0.6450 -0.1540  0.9861
   25SAPC  H15C 3264   2.500   1.210   6.028 -1.0930 -2.4577 -0.2797
   25SAPC   C11 3265   2.247   1.253   6.109  0.0095  0.1491 -0.4303
   25SAPC  H11A 3266   2.329   1.289   6.174 -0.3965  0.9047 -0.3178
   25SAPC  H11B 3267   2.240   1.142   6.107  1.7140  0.0261 -1.0804
   25SAPC     P 3268   1.985   1.287   6.114 -0.0596  0.6923  0.3431
   25SAPC   O13 3269   1.904   1.397   6.159 -0.6892  0.4467  0.6767
   25SAPC   O14 3270   1.980   1.258   5.970 -0.1588  0.0722  0.0979
   25SAPC   O12 3271   2.127   1.321   6.149 -0.7932 -0.3580 -0.1476
   25SAPC   O11 3272   1.953   1.160   6.196 -0.1647  0.0818 -0.0050
   25SAPC    C1 3273   1.906   1.173   6.330 -0.0837 -0.0928 -0.4165
   25SAPC    HA 3274   1.843   1.263   6.347 -2.6544 -1.7485 -0.5572
   25SAPC    HB 3275   1.851   1.077   6.343  1.4439 -0.8071  1.1190
   25SAPC    C2 3276   2.018   1.175   6.434 -0.0492  0.2257  0.0495
   25SAPC    HS 3277   2.076   1.269   6.439  0.8717 -0.3815  1.8089
   25SAPC   O21 3278   2.101   1.064   6.406 -0.0976  0.4843  0.1629
   25SAPC   C21 3279   2.218   1.050   6.463 -0.1152  0.5010 -0.1215
   25SAPC   O22 3280   2.285   1.136   6.514 -0.0869 -0.2125 -0.2382
   25SAPC   C22 3281   2.258   0.900   6.443  0.1657  0.1520  0.5746
   25SAPC   H2R 3282   2.178   0.844   6.391  0.2859 -2.5143  2.9866
   25SAPC   H2S 3283   2.350   0.908   6.381 -0.1828 -0.3705 -0.0079
   25SAPC    C3 3284   1.956   1.150   6.576 -0.1992  0.7378  0.5303
   25SAPC    HX 3285   1.920   1.045   6.575 -2.5288  1.3992 -2.9505
   25SAPC    HY 3286   1.866   1.213   6.591  0.3323  1.4392  0.8776
   25SAPC   O31 3287   2.046   1.160   6.681  0.1168  0.2877  0.1669
   25SAPC   C31 3288   2.070   1.274   6.727  0.0801 -1.0764 -0.1503
   25SAPC   O32 3289   2.001   1.374   6.709  0.5988 -0.0968 -0.5243
   25SAPC   C32 3290   2.184   1.275   6.810  0.0164  0.5957 -1.0621
   25SAPC   H2X 3291   2.281   1.271   6.757  1.2975 -0.5932  1.1911
   25SAPC   H2Y 3292   2.170   1.189   6.880 -0.7572  1.0932 -0.5784
   25SAPC   C23 3293   2.286   0.826   6.573  0.0361 -0.7033 -0.6188
   25SAPC   H3R 3294   2.384   0.860   6.615 -0.6644  2.8935 -1.5411
   25SAPC   H3S 3295   2.307   0.720   6.547  0.0671 -0.5010 -1.4504
   25SAPC   C24 3296   2.176   0.814   6.684 -0.3495  0.6371  0.1937
   25SAPC   H4R 3297   2.089   0.778   6.625 -1.0543 -1.2302  2.2497
   25SAPC   H4S 3298   2.159   0.919   6.716  0.4730  0.5638  0.8945
   25SAPC   C25 3299   2.194   0.717   6.805 -0.0854  0.3967 -0.1020
   25SAPC   H5R 3300   2.246   0.622   6.785 -1.1506 -1.0398  3.1948
   25SAPC   C26 3301   2.135   0.739   6.926 -0.2158 -0.1312 -0.2110
   25SAPC   H6R 3302   2.152   0.666   7.007 -1.9304  2.0097  2.2479
   25SAPC   C27 3303   2.051   0.855   6.978  0.2246  0.8190  0.3332
   25SAPC   H7R 3304   1.958   0.819   7.026 -0.6351  2.4460 -0.0024
   25SAPC   H7S 3305   2.019   0.907   6.885 -1.3205 -2.3189 -1.0296
   25SAPC   C28 3306   2.129   0.948   7.055  0.1817 -0.5452 -0.0538
   25SAPC   H8R 3307   2.204   0.996   6.991 -1.3390  0.0916 -1.4304
   25SAPC   C29 3308   2.107   0.984   7.182 -0.6809 -0.6940  0.6466
   25SAPC   H9R 3309   2.185   1.033   7.240  0.4382 -1.1358 -0.4356
   25SAPC  C210 3310   2.002   0.929   7.275  0.2668 -0.1551  0.4335
   25SAPC  H10R 3311   1.921   0.875   7.222  0.0728 -1.0941  1.6325
   25SAPC  H10S 3312   1.954   1.005   7.340 -0.8422 -2.2455  2.1808
   25SAPC  C211 3313   2.054   0.815   7.363 -0.6180 -0.5815  0.4007
   25SAPC  H11R 3314   2.114   0.739   7.312 -1.5092 -1.5790  0.7784
   25SAPC  C212 3315   2.037   0.802   7.493 -0.4785  0.4663  0.4663
   25SAPC  H12R 3316   2.063   0.702   7.531  0.1810 -0.7419 -2.8190
   25SAPC  C213 3317   1.965   0.904   7.586 -0.1608 -0.0948  0.1758
   25SAPC  H13R 3318   1.944   0.850   7.680  0.0326  2.8462  2.0316
   25SAPC  H13S 3319   1.863   0.922   7.547  0.4975 -0.7622 -1.9941
   25SAPC  C214 3320   2.032   1.036   7.612  0.3109  0.2387 -0.0397
   25SAPC  H14R 3321   2.073   1.087   7.524 -1.7633  0.3129 -1.0199
   25SAPC  C215 3322   2.033   1.098   7.727  0.0940 -0.3601 -0.1998
   25SAPC  H15R 3323   2.090   1.190   7.741  0.1655 -0.3129 -0.7783
   25SAPC  C216 3324   1.965   1.080   7.862 -0.1821 -0.3812  0.1059
   25SAPC  H16R 3325   1.902   0.989   7.860 -0.5114 -0.3158  3.0518
   25SAPC  H16S 3326   1.894   1.164   7.878  0.9085  0.1836  2.2654
   25SAPC  C217 3327   2.059   1.063   7.982  0.6099 -0.1181  0.0074
   25SAPC  H17R 3328   2.110   1.161   7.995  1.4021 -0.1868 -2.1772
   25SAPC  H17S 3329   2.135   0.983   7.967 -0.0766 -0.6540 -0.7159
   25SAPC  C218 3330   1.989   1.028   8.110  0.1859  0.3553 -0.4298
   25SAPC  H18R 3331   2.060   1.030   8.195 -1.6686  0.6384  1.1839
   25SAPC  H18S 3332   1.943   0.927   8.100 -0.2225  0.2548  1.8828
   25SAPC  C219 3333   1.877   1.132   8.136 -0.3324  0.9115 -0.3844
   25SAPC  H19R 3334   1.802   1.120   8.056 -1.4299 -0.5945  0.8107
   25SAPC  H19S 3335   1.937   1.224   8.117  2.5275 -1.0120 -1.3913
   25SAPC  C220 3336   1.810   1.126   8.273  0.0264 -0.1002  0.0880
   25SAPC  H20R 3337   1.744   1.214   8.283  0.0426 -0.0896  0.1021
   25SAPC  H20S 3338   1.882   1.114   8.357 -1.6707 -0.7148  1.5131
   25SAPC  H20T 3339   1.741   1.039   8.272 -0.1681  0.0544 -0.7682
   25SAPC   C33 3340   2.193   1.405   6.898  0.4178 -0.9185  0.0382
   25SAPC   H3X 3341   2.191   1.499   6.840 -0.3754 -1.0483 -0.1574
   25SAPC   H3Y 3342   2.287   1.399   6.957  1.3897 -1.2992 -1.4886
   25SAPC   C34 3343   2.073   1.397   6.998 -0.2290 -0.5255  0.3827
   25SAPC   H4X 3344   2.093   1.310   7.063  0.2786 -0.2736  0.5703
   25SAPC   H4Y 3345   1.976   1.377   6.948  1.3680 -2.0571 -2.3314
   25SAPC   C35 3346   2.060   1.525   7.090  0.4662  0.5098  0.4672
   25SAPC   H5X 3347   2.026   1.612   7.030 -0.0202  0.0179  0.0180
   25SAPC   H5Y 3348   2.158   1.560   7.130  1.4347 -1.3648 -0.1837
   25SAPC   C36 3349   1.940   1.503   7.187  0.1621  0.2376 -0.1232
   25SAPC   H6X 3350   1.956   1.419   7.259 -1.5880  1.6165  2.0243
   25SAPC   H6Y 3351   1.849   1.481   7.127 -0.7548  0.2422  1.2169
   25SAPC   C37 3352   1.917   1.621   7.282  0.2791 -0.2210  0.0424
   25SAPC   H7X 3353   1.834   1.595   7.352  0.1428  0.2333  0.0502
   25SAPC   H7Y 3354   1.875   1.708   7.228  1.2181 -0.3246 -0.8839
   25SAPC   C38 3355   2.047   1.667   7.355 -0.3834 -0.4805 -0.3621
   25SAPC   H8X 3356   2.027   1.757   7.416  1.1203 -0.8824  0.7732
   25SAPC   H8Y 3357   2.126   1.707   7.288 -0.0163 -0.2358  0.2098
   25SAPC   C39 3358   2.105   1.562   7.453  0.4778  0.2333 -0.2870
   25SAPC   H9X 3359   2.181   1.598   7.525 -1.9572 -1.2569  3.2992
   25SAPC   H9Y 3360   2.153   1.478   7.398 -0.7316 -0.7779  0.1576
   25SAPC  C310 3361   1.999   1.490   7.539  0.3708  0.2734 -0.0484
   25SAPC  H10X 3362   2.040   1.414   7.609 -1.1539  0.4800  1.1358
   25SAPC  H10Y 3363   1.922   1.452   7.469 -0.9247  2.4372  0.1233
   25SAPC  C311 3364   1.926   1.576   7.643  0.4345  0.1159  0.0075
   25SAPC  H11X 3365   1.845   1.530   7.704  1.6247 -1.3503  0.5236
   25SAPC  H11Y 3366   1.884   1.655   7.577 -2.7326 -1.7446 -0.4270
   25SAPC  C312 3367   2.015   1.656   7.753 -0.2187 -0.2773  0.7178
   25SAPC  H12X 3368   1.961   1.752   7.771 -2.0499 -1.2981  0.9552
   25SAPC  H12Y 3369   2.115   1.684   7.714 -0.6197  1.0864  0.6128
   25SAPC  C313 3370   2.025   1.588   7.890  0.9978  0.3156  0.0199
   25SAPC  H13X 3371   2.113   1.521   7.883 -0.9335 -2.5576  1.1573
   25SAPC  H13Y 3372   1.941   1.516   7.899  1.2184 -0.2047 -1.7521
   25SAPC  C314 3373   2.016   1.686   8.008  0.0921  0.7453  0.4787
   25SAPC  H14X 3374   1.915   1.728   8.024  0.4873  0.8309  3.2190
   25SAPC  H14Y 3375   2.093   1.765   7.996  1.2485 -0.1756  1.5438
   25SAPC  C315 3376   2.046   1.612   8.138  0.2574 -0.1658  0.4108
   25SAPC  H15X 3377   2.153   1.580   8.130 -0.2631 -1.8049 -0.7375
   25SAPC  H15Y 3378   1.976   1.527   8.152 -0.7179 -0.0317 -2.8316
   25SAPC  C316 3379   2.032   1.706   8.260  0.0287  0.9379  0.6052
   25SAPC  H16X 3380   2.115   1.778   8.242  1.3254 -0.9036 -1.0908
   25SAPC  H16Y 3381   2.062   1.644   8.348  3.4821  1.3887 -0.0984
   25SAPC  C317 3382   1.896   1.768   8.281 -0.4430  0.1290  0.9658
   25SAPC  H17X 3383   1.813   1.695   8.289 -1.4806  1.0385 -0.8347
   25SAPC  H17Y 3384   1.872   1.826   8.190 -2.9879 -0.2997  1.3035
   25SAPC  C318 3385   1.886   1.859   8.398  0.4153  0.5884  0.0535
   25SAPC  H18X 3386   1.872   1.802   8.492  0.0504 -0.3173 -0.5324
   25SAPC  H18Y 3387   1.794   1.921   8.405 -1.0160 -1.5296  1.2617
   25SAPC  H18Z 3388   1.979   1.921   8.405  1.4204 -1.0718  3.9717
   26SAPC     N 3389   1.450   3.319   6.248 -1.2988 -0.2811  0.2488
   26SAPC   C12 3390   1.590   3.266   6.299 -0.1991 -1.3215 -0.0792
   26SAPC  H12A 3391   1.572   3.170   6.345 -0.1607 -0.5046  1.7002
   26SAPC  H12B 3392   1.636   3.333   6.370 -0.4676  2.3121 -2.9800
   26SAPC   C13 3393   1.464   3.447   6.170 -0.6704  0.2538  0.5173
   26SAPC  H13A 3394   1.513   3.525   6.228  0.1977 -1.4815  2.2252
   26SAPC  H13B 3395   1.522   3.424   6.082 -3.9854 -1.2940 -1.4563
   26SAPC  H13C 3396   1.368   3.487   6.141 -0.7339  1.2834  2.0126
   26SAPC   C14 3397   1.382   3.218   6.157  0.6645  0.1887  1.3628
   26SAPC  H14A 3398   1.355   3.128   6.211 -2.0656 -0.7133 -1.2525
   26SAPC  H14B 3399   1.289   3.264   6.125  0.3607  1.2629  3.5755
   26SAPC  H14C 3400   1.448   3.183   6.080 -0.7708 -5.4369  2.2765
   26SAPC   C15 3401   1.371   3.341   6.366 -0.2112  0.4620 -0.0756
   26SAPC  H15A 3402   1.427   3.401   6.436  0.6335  0.0948 -0.4365
   26SAPC  H15B 3403   1.284   3.401   6.342  0.2850  1.1147 -0.2838
   26SAPC  H15C 3404   1.337   3.251   6.414  0.7904  0.0307 -0.1572
   26SAPC   C11 3405   1.700   3.245   6.190  0.0720  0.4548 -0.1443
   26SAPC  H11A 3406   1.642   3.192   6.112 -0.8307  1.4389 -0.1739
   26SAPC  H11B 3407   1.781   3.188   6.240 -0.8663  0.8486  1.9368
   26SAPC     P 3408   1.880   3.437   6.206  0.4466 -0.0749 -0.1601
   26SAPC   O13 3409   1.999   3.354   6.166 -0.3143  0.2809 -0.0013
   26SAPC   O14 3410   1.881   3.578   6.159  0.1266 -0.2223 -0.2250
   26SAPC   O12 3411   1.752   3.366   6.141 -0.1901  0.3750 -0.1136
   26SAPC   O11 3412   1.848   3.427   6.358 -0.4476 -0.1168 -0.0332
   26SAPC    C1 3413   1.813   3.543   6.433 -0.2146 -0.3086  0.7173
   26SAPC    HA 3414   1.911   3.591   6.455  0.5137 -1.6222  0.4477
   26SAPC    HB 3415   1.746   3.615   6.381 -2.3147 -3.0004 -0.5453
   26SAPC    C2 3416   1.771   3.532   6.578  0.5537 -0.4446  0.5297
   26SAPC    HS 3417   1.867   3.502   6.627  1.5040 -2.3274 -2.2338
   26SAPC   O21 3418   1.678   3.429   6.589 -0.3863 -0.1769 -0.2785
   26SAPC   C21 3419   1.674   3.371   6.708 -0.0006 -0.6003  0.0755
   26SAPC   O22 3420   1.767   3.367   6.789 -0.0253  0.6929 -0.4256
   26SAPC   C22 3421   1.545   3.284   6.713 -0.6334  0.5262 -0.4368
   26SAPC   H2R 3422   1.530   3.269   6.822 -1.1506  2.8010 -0.1469
   26SAPC   H2S 3423   1.460   3.346   6.679 -1.7371 -0.0178  1.2092
   26SAPC    C3 3424   1.713   3.664   6.638  0.2117 -0.6382 -0.7400
   26SAPC    HX 3425   1.642   3.708   6.565 -1.1514  2.1592  2.0230
   26SAPC    HY 3426   1.806   3.722   6.656 -0.7065  0.2693  1.4316
   26SAPC   O31 3427   1.639   3.639   6.758 -0.2715  0.2259  0.2127
   26SAPC   C31 3428   1.618   3.737   6.842 -0.2503 -0.3476  0.1563
   26SAPC   O32 3429   1.650   3.854   6.821  0.0498  0.5438 -0.0729
   26SAPC   C32 3430   1.552   3.682   6.966 -0.2310  0.6407  0.2394
   26SAPC   H2X 3431   1.460   3.626   6.942 -0.2816  0.1364  1.5167
   26SAPC   H2Y 3432   1.524   3.768   7.030  0.3149  0.3596  0.8844
   26SAPC   C23 3433   1.558   3.149   6.643 -0.5231  0.1397 -0.6683
   26SAPC   H3R 3434   1.618   3.174   6.553  0.0369 -1.2937 -0.7206
   26SAPC   H3S 3435   1.468   3.096   6.604 -1.7403  2.9406 -1.8913
   26SAPC   C24 3436   1.642   3.048   6.719  0.4636 -0.1376  0.2538
   26SAPC   H4R 3437   1.597   3.025   6.818  0.5970  0.7278  0.5295
   26SAPC   H4S 3438   1.745   3.089   6.732 -0.1972  2.2190 -1.3320
   26SAPC   C25 3439   1.660   2.922   6.638 -0.2218  0.5871  0.2676
   26SAPC   H5R 3440   1.705   2.929   6.538  1.2449 -1.8124  0.6869
   26SAPC   C26 3441   1.627   2.799   6.676 -0.3059 -0.0408 -0.1145
   26SAPC   H6R 3442   1.626   2.715   6.604 -2.4322 -0.1501 -0.0019
   26SAPC   C27 3443   1.571   2.755   6.807  1.0235 -0.5624 -0.2248
   26SAPC   H7R 3444   1.619   2.809   6.892 -0.5842 -0.7830  0.8591
   26SAPC   H7S 3445   1.602   2.649   6.822  1.8120 -0.3752 -0.4559
   26SAPC   C28 3446   1.423   2.770   6.824 -0.2421 -0.3845  0.3615
   26SAPC   H8R 3447   1.378   2.850   6.763 -0.3945  0.7413  1.8671
   26SAPC   C29 3448   1.342   2.721   6.919 -0.0658  0.3442  0.3809
   26SAPC   H9R 3449   1.236   2.721   6.892 -0.4830 -0.8350  1.8897
   26SAPC  C210 3450   1.370   2.629   7.037 -0.0378 -0.0745 -0.3852
   26SAPC  H10R 3451   1.335   2.670   7.134 -0.4759 -2.1489  0.3960
   26SAPC  H10S 3452   1.479   2.615   7.051 -0.0585  0.7430  0.7116
   26SAPC  C211 3453   1.315   2.486   7.013 -0.0259 -0.4876 -0.2182
   26SAPC  H11R 3454   1.242   2.469   6.933  0.4204  1.9193 -1.2101
   26SAPC  C212 3455   1.343   2.380   7.092 -0.2414 -0.2204  0.6097
   26SAPC  H12R 3456   1.300   2.281   7.074  2.5568 -1.4209  0.0480
   26SAPC  C213 3457   1.437   2.373   7.210 -0.2726  0.6258 -0.0553
   26SAPC  H13R 3458   1.440   2.475   7.255  0.1104  0.6988 -0.2419
   26SAPC  H13S 3459   1.539   2.343   7.177 -0.5888  0.3073 -0.7451
   26SAPC  C214 3460   1.409   2.272   7.315  0.1793 -0.4501  0.5065
   26SAPC  H14R 3461   1.346   2.187   7.286 -2.1227  1.8565 -1.7592
   26SAPC  C215 3462   1.438   2.284   7.441 -0.0192 -0.3674  0.1790
   26SAPC  H15R 3463   1.405   2.208   7.514 -0.7090  1.3129  1.7088
   26SAPC  C216 3464   1.506   2.401   7.497 -0.6953 -0.3918  0.4845
   26SAPC  H16R 3465   1.447   2.494   7.508  2.6449  1.6700  2.8172
   26SAPC  H16S 3466   1.594   2.428   7.435 -0.7187 -0.4874  0.4088
   26SAPC  C217 3467   1.565   2.353   7.631 -0.8574 -0.5578  1.1704
   26SAPC  H17R 3468   1.645   2.424   7.660  1.1316 -2.7561  1.3515
   26SAPC  H17S 3469   1.613   2.253   7.638  0.1290 -0.2638 -0.6918
   26SAPC  C218 3470   1.476   2.385   7.748 -0.2064  0.1650  1.1154
   26SAPC  H18R 3471   1.379   2.423   7.708 -0.4132 -1.3824  0.0318
   26SAPC  H18S 3472   1.524   2.463   7.810 -0.1229 -0.2095  1.5288
   26SAPC  C219 3473   1.451   2.267   7.833  0.0455 -0.4192 -0.2035
   26SAPC  H19R 3474   1.423   2.171   7.783 -1.6298  0.8352 -1.7991
   26SAPC  H19S 3475   1.362   2.292   7.894 -0.7553  0.7142 -1.7741
   26SAPC  C220 3476   1.574   2.222   7.923 -0.2454  0.4394  0.3886
   26SAPC  H20R 3477   1.676   2.233   7.881  0.1606  0.9076  1.4636
   26SAPC  H20S 3478   1.562   2.114   7.948 -2.6590  0.8175  1.1340
   26SAPC  H20T 3479   1.574   2.268   8.024 -2.9156  1.3023  0.0749
   26SAPC   C33 3480   1.631   3.582   7.044 -0.3072  0.3242 -0.5616
   26SAPC   H3X 3481   1.737   3.615   7.052 -0.0159 -1.0650  3.1819
   26SAPC   H3Y 3482   1.632   3.488   6.986 -1.6107 -1.6665  2.4093
   26SAPC   C34 3483   1.569   3.556   7.182 -0.2140  0.9999  0.5612
   26SAPC   H4X 3484   1.476   3.496   7.172  0.2059  0.5021 -0.4531
   26SAPC   H4Y 3485   1.555   3.657   7.227  1.3104  1.8352 -0.7168
   26SAPC   C35 3486   1.669   3.481   7.263  0.7936 -0.4212  0.0303
   26SAPC   H5X 3487   1.766   3.533   7.246  0.7269 -0.7240 -1.4810
   26SAPC   H5Y 3488   1.685   3.373   7.239 -0.8980 -0.6679 -0.0751
   26SAPC   C36 3489   1.653   3.491   7.416 -0.3172 -0.3964  0.4702
   26SAPC   H6X 3490   1.566   3.429   7.446  0.1357 -0.8681  0.8238
   26SAPC   H6Y 3491   1.642   3.598   7.444 -0.1387  0.2894 -1.8404
   26SAPC   C37 3492   1.773   3.466   7.507 -0.9000  0.0931  0.3094
   26SAPC   H7X 3493   1.862   3.517   7.466 -0.7231  0.1810  0.7928
   26SAPC   H7Y 3494   1.812   3.362   7.512 -0.8909  0.1502  2.9081
   26SAPC   C38 3495   1.774   3.516   7.659  0.4493  0.1152 -0.5006
   26SAPC   H8X 3496   1.719   3.611   7.673 -0.7550 -0.7313  0.7312
   26SAPC   H8Y 3497   1.878   3.514   7.697  0.2483 -0.1695  0.0449
   26SAPC   C39 3498   1.693   3.411   7.740  0.2616  0.6840  0.6985
   26SAPC   H9X 3499   1.731   3.307   7.742 -1.2276  0.1009  0.2038
   26SAPC   H9Y 3500   1.588   3.412   7.701  0.2983  1.5854  0.6020
   26SAPC  C310 3501   1.672   3.455   7.886  0.5073  0.2913 -0.6599
   26SAPC  H10X 3502   1.634   3.364   7.937  1.1765 -1.1175 -2.5477
   26SAPC  H10Y 3503   1.591   3.531   7.894  1.6234  1.4330 -0.0547
   26SAPC  C311 3504   1.791   3.516   7.953  0.0556 -0.1767 -0.4422
   26SAPC  H11X 3505   1.804   3.619   7.912  1.4139  0.1634  0.7574
   26SAPC  H11Y 3506   1.872   3.446   7.920 -1.0517 -1.6834 -0.0611
   26SAPC  C312 3507   1.778   3.515   8.109 -0.3173  0.2249  0.7494
   26SAPC  H12X 3508   1.790   3.410   8.145  1.4549  0.5265  1.1272
   26SAPC  H12Y 3509   1.677   3.555   8.133  0.1232  0.8539  1.5967
   26SAPC  C313 3510   1.894   3.578   8.183 -0.5094 -0.2093  0.0250
   26SAPC  H13X 3511   1.884   3.574   8.293 -1.2588 -2.0162 -0.0683
   26SAPC  H13Y 3512   1.898   3.683   8.148  0.8260 -0.0918  0.4813
   26SAPC  C314 3513   2.032   3.505   8.149  0.5944 -0.0978  0.0322
   26SAPC  H14X 3514   2.049   3.533   8.043 -2.4010  1.0532 -0.2300
   26SAPC  H14Y 3515   2.016   3.396   8.162  1.4639 -0.2480 -0.1003
   26SAPC  C315 3516   2.147   3.542   8.240  0.2604  0.0198  0.6934
   26SAPC  H15X 3517   2.124   3.518   8.346 -0.5669 -0.4018  0.4220
   26SAPC  H15Y 3518   2.160   3.650   8.217  0.1823 -0.2041 -0.4442
   26SAPC  C316 3519   2.270   3.458   8.207 -0.1199 -0.0764 -0.4376
   26SAPC  H16X 3520   2.310   3.493   8.109  0.6574 -3.0342 -1.2726
   26SAPC  H16Y 3521   2.243   3.351   8.196 -1.0837  0.1197 -0.0875
   26SAPC  C317 3522   2.373   3.480   8.315 -0.0297  0.3124  0.1291
   26SAPC  H17X 3523   2.459   3.421   8.276 -1.3108 -0.0226 -2.4184
   26SAPC  H17Y 3524   2.339   3.434   8.410 -1.1318 -0.7180 -0.7348
   26SAPC  C318 3525   2.418   3.620   8.346 -0.1047  0.5436 -0.2038
   26SAPC  H18X 3526   2.335   3.692   8.359 -0.6846 -0.3261  1.1620
   26SAPC  H18Y 3527   2.481   3.660   8.263 -1.2663 -1.1783 -1.9857
   26SAPC  H18Z 3528   2.483   3.618   8.437  2.6340 -0.3696 -2.0448
   27SAPC     N 3529   5.027   2.639   6.387  0.7354  0.1115  0.3425
   27SAPC   C12 3530   4.999   2.698   6.521  0.4056  0.9004 -0.6669
   27SAPC  H12A 3531   4.894   2.692   6.543  0.5052 -0.2922 -0.4326
   27SAPC  H12B 3532   5.022   2.803   6.530 -2.8430  1.6765 -0.3248
   27SAPC   C13 3533   4.915   2.691   6.293 -0.7884  0.0532 -0.3090
   27SAPC  H13A 3534   4.899   2.798   6.283  2.3952  0.5016 -1.9090
   27SAPC  H13B 3535   4.917   2.647   6.195 -2.6880  0.5791 -0.6237
   27SAPC  H13C 3536   4.832   2.632   6.327  0.1897 -1.0532  0.2097
   27SAPC   C14 3537   5.157   2.685   6.328 -0.4834  0.0577 -0.4932
   27SAPC  H14A 3538   5.174   2.649   6.228 -1.2922  2.0117 -1.3672
   27SAPC  H14B 3539   5.161   2.792   6.322 -3.3269  0.3473  1.0072
   27SAPC  H14C 3540   5.236   2.641   6.387 -1.0552 -0.8196 -0.3522
   27SAPC   C15 3541   5.022   2.491   6.385 -0.5611 -0.9188  0.5497
   27SAPC  H15A 3542   4.931   2.453   6.429 -1.7900  0.5648 -0.5832
   27SAPC  H15B 3543   5.016   2.457   6.283  0.4866  1.2520 -0.2862
   27SAPC  H15C 3544   5.106   2.451   6.438  0.4878  1.1817  0.5813
   27SAPC   C11 3545   5.083   2.636   6.639 -0.5384  0.5691 -0.3003
   27SAPC  H11A 3546   5.062   2.527   6.644  0.0074  0.4967  1.1187
   27SAPC  H11B 3547   5.053   2.666   6.742  0.0417 -1.5408  0.5597
   27SAPC     P 3548   5.290   2.794   6.636 -0.1903 -0.3700  0.2074
   27SAPC   O13 3549   5.425   2.781   6.575  0.0841  0.5929  0.1223
   27SAPC   O14 3550   5.197   2.888   6.569 -0.1045  0.0670 -0.7302
   27SAPC   O12 3551   5.222   2.648   6.616 -0.2911 -0.2300 -0.6138
   27SAPC   O11 3552   5.299   2.818   6.793  0.1517 -0.8174  0.1939
   27SAPC    C1 3553   5.386   2.728   6.873  0.0293  0.5440 -0.4803
   27SAPC    HA 3554   5.469   2.686   6.811 -0.2755 -0.4949 -0.2010
   27SAPC    HB 3555   5.422   2.781   6.964 -1.5976  0.1855  0.3987
   27SAPC    C2 3556   5.314   2.599   6.932 -0.2602 -0.2284  0.0850
   27SAPC    HS 3557   5.293   2.539   6.841  2.2539 -1.7239  0.3909
   27SAPC   O21 3558   5.191   2.631   7.007 -0.3506 -0.0449  0.1332
   27SAPC   C21 3559   5.095   2.544   6.994  0.4178  0.4199 -0.4146
   27SAPC   O22 3560   5.095   2.448   6.922 -0.2564 -0.8101 -0.2238
   27SAPC   C22 3561   4.984   2.571   7.094 -0.0838  0.0720 -0.8169
   27SAPC   H2R 3562   5.036   2.538   7.187  1.2167  3.8858 -0.0110
   27SAPC   H2S 3563   4.953   2.677   7.105  0.2397  0.1240 -0.3548
   27SAPC    C3 3564   5.406   2.525   7.028  0.4504  0.0926 -0.4076
   27SAPC    HX 3565   5.501   2.501   6.976  1.7501  0.9670  1.4514
   27SAPC    HY 3566   5.353   2.434   7.063  0.1416  1.3595  2.7618
   27SAPC   O31 3567   5.449   2.618   7.138  0.0098  0.4971  0.1102
   27SAPC   C31 3568   5.369   2.607   7.246 -0.7448 -0.0596  0.2192
   27SAPC   O32 3569   5.276   2.531   7.262 -0.1899  0.6049  0.7076
   27SAPC   C32 3570   5.419   2.706   7.353 -0.3438  0.5098  0.2172
   27SAPC   H2X 3571   5.417   2.807   7.306 -0.9395  1.2827  1.8039
   27SAPC   H2Y 3572   5.525   2.679   7.372 -0.8477 -1.1652  0.8454
   27SAPC   C23 3573   4.850   2.492   7.085 -0.5160 -0.2736  0.0927
   27SAPC   H3R 3574   4.864   2.383   7.074 -1.0935 -0.2476 -0.9989
   27SAPC   H3S 3575   4.784   2.538   7.008 -1.2068  0.6566  1.1993
   27SAPC   C24 3576   4.771   2.509   7.217 -0.1648 -0.3634  0.4586
   27SAPC   H4R 3577   4.739   2.615   7.220 -2.9779 -1.1233 -0.1514
   27SAPC   H4S 3578   4.839   2.492   7.303  1.5535 -1.1286 -0.9578
   27SAPC   C25 3579   4.655   2.413   7.223  0.4408 -0.4215  0.4566
   27SAPC   H5R 3580   4.655   2.341   7.140 -3.0457  0.8015 -0.7815
   27SAPC   C26 3581   4.546   2.418   7.304 -0.3530  0.1177 -0.1335
   27SAPC   H6R 3582   4.477   2.332   7.298  1.6606 -1.6112  0.2346
   27SAPC   C27 3583   4.519   2.525   7.407  0.3670 -0.3428 -0.6064
   27SAPC   H7R 3584   4.410   2.542   7.410 -0.0288 -2.4973 -0.9881
   27SAPC   H7S 3585   4.558   2.622   7.369 -2.8925  1.9448  1.4272
   27SAPC   C28 3586   4.573   2.501   7.543 -0.1325 -0.1888  0.2506
   27SAPC   H8R 3587   4.675   2.535   7.562  0.0186 -0.1544 -0.5706
   27SAPC   C29 3588   4.521   2.405   7.631  0.0958 -0.4789  0.5647
   27SAPC   H9R 3589   4.563   2.390   7.731  0.1122  1.2597  0.8487
   27SAPC  C210 3590   4.401   2.319   7.593  0.3094  0.4949 -0.0216
   27SAPC  H10R 3591   4.412   2.273   7.493  2.0126 -0.9777  0.7928
   27SAPC  H10S 3592   4.311   2.384   7.583 -2.3541 -2.2458  3.4725
   27SAPC  C211 3593   4.361   2.215   7.696 -0.2704  0.0218 -0.3077
   27SAPC  H11R 3594   4.388   2.110   7.678 -0.3769  0.3256 -2.5497
   27SAPC  C212 3595   4.298   2.231   7.814  0.3819 -0.1488  0.3100
   27SAPC  H12R 3596   4.276   2.145   7.880  0.0854 -0.2095  0.1334
   27SAPC  C213 3597   4.241   2.355   7.881 -0.3342  0.4479 -0.6880
   27SAPC  H13R 3598   4.259   2.443   7.815 -2.1924  1.1018 -0.3878
   27SAPC  H13S 3599   4.296   2.374   7.975 -1.1163  0.2559 -0.1762
   27SAPC  C214 3600   4.093   2.350   7.917 -0.4476 -0.0968  0.1228
   27SAPC  H14R 3601   4.028   2.357   7.829 -0.8703  0.1318  0.4471
   27SAPC  C215 3602   4.039   2.330   8.038  0.5399 -0.5690  0.1969
   27SAPC  H15R 3603   3.930   2.335   8.048  0.3124  0.0186 -2.0586
   27SAPC  C216 3604   4.098   2.308   8.176  0.2625 -0.2745 -0.4035
   27SAPC  H16R 3605   4.208   2.325   8.177  0.6235 -2.2605  1.4165
   27SAPC  H16S 3606   4.095   2.202   8.210 -1.1151  0.0467  0.5492
   27SAPC  C217 3607   4.051   2.400   8.286 -0.0399 -0.5149 -0.2397
   27SAPC  H17R 3608   4.086   2.506   8.279 -1.2123 -0.0044  1.0947
   27SAPC  H17S 3609   4.106   2.359   8.373  2.9702 -0.0624 -1.8074
   27SAPC  C218 3610   3.905   2.405   8.322 -0.0860 -0.1770  0.2014
   27SAPC  H18R 3611   3.864   2.302   8.308 -0.6208  0.2906 -2.1680
   27SAPC  H18S 3612   3.861   2.458   8.235  0.4389 -0.0877 -0.0076
   27SAPC  C219 3613   3.860   2.479   8.445  0.1603 -0.0972  0.1135
   27SAPC  H19R 3614   3.888   2.421   8.536 -0.0187 -0.1973  0.1048
   27SAPC  H19S 3615   3.751   2.496   8.458 -0.1090  0.5695 -2.4853
   27SAPC  C220 3616   3.930   2.617   8.471 -0.1035  0.9668 -0.0707
   27SAPC  H20R 3617   3.892   2.658   8.567  0.0814  1.1904 -0.0915
   27SAPC  H20S 3618   3.910   2.698   8.398  2.2583  3.5524  1.9011
   27SAPC  H20T 3619   4.040   2.600   8.476 -0.3883 -1.0997  0.0410
   27SAPC   C33 3620   5.339   2.700   7.482  0.6109 -0.2132  0.5554
   27SAPC   H3X 3621   5.229   2.694   7.468  0.6758  0.7943 -0.4754
   27SAPC   H3Y 3622   5.341   2.799   7.532 -1.7394  0.4306 -0.5006
   27SAPC   C34 3623   5.391   2.592   7.578  0.8058 -0.0642  0.0846
   27SAPC   H4X 3624   5.500   2.607   7.591  0.5927  1.0401  0.6255
   27SAPC   H4Y 3625   5.372   2.488   7.542 -1.2373  0.0940  0.5998
   27SAPC   C35 3626   5.314   2.601   7.709  0.3635 -0.8512 -0.9297
   27SAPC   H5X 3627   5.204   2.596   7.697  0.5688  1.2470 -5.2384
   27SAPC   H5Y 3628   5.320   2.701   7.757 -0.7652 -0.4442 -1.6187
   27SAPC   C36 3629   5.370   2.505   7.816 -0.3926 -0.0495 -0.0372
   27SAPC   H6X 3630   5.478   2.513   7.790 -0.4676 -2.2192 -1.2450
   27SAPC   H6Y 3631   5.331   2.401   7.810 -0.0893 -0.1576 -0.1582
   27SAPC   C37 3632   5.340   2.544   7.961  0.4507  0.0248 -0.2776
   27SAPC   H7X 3633   5.232   2.563   7.973  0.9689  2.6931  0.7790
   27SAPC   H7Y 3634   5.390   2.642   7.975  1.1187 -0.3173 -0.1782
   27SAPC   C38 3635   5.377   2.435   8.064 -0.9706 -0.2556  0.2028
   27SAPC   H8X 3636   5.487   2.421   8.052 -0.8979  0.3591  0.1028
   27SAPC   H8Y 3637   5.335   2.337   8.035  1.6688 -1.3876 -0.1395
   27SAPC   C39 3638   5.359   2.469   8.216 -0.4713  0.2152 -0.1994
   27SAPC   H9X 3639   5.420   2.394   8.270 -0.5163  1.1914  1.2679
   27SAPC   H9Y 3640   5.253   2.469   8.249  0.1509 -0.0058  1.9771
   27SAPC  C310 3641   5.416   2.606   8.258 -0.1474  0.0192 -0.7012
   27SAPC  H10X 3642   5.381   2.623   8.363 -2.4906  0.0305 -1.4400
   27SAPC  H10Y 3643   5.389   2.695   8.198  1.5141  1.7765  1.0007
   27SAPC  C311 3644   5.570   2.603   8.268 -0.0440 -0.7659  0.0252
   27SAPC  H11X 3645   5.606   2.598   8.163  1.8165  2.3128  0.3958
   27SAPC  H11Y 3646   5.592   2.508   8.321  0.6429 -2.3903 -2.9015
   27SAPC  C312 3647   5.627   2.729   8.338 -0.7018  0.0083  0.4593
   27SAPC  H12X 3648   5.588   2.739   8.441  0.1528  0.2216  0.7769
   27SAPC  H12Y 3649   5.577   2.808   8.278  0.2599  0.1598 -0.1710
   27SAPC  C313 3650   5.779   2.753   8.334  0.5784  0.7410 -0.3414
   27SAPC  H13X 3651   5.793   2.822   8.421 -1.7960  1.2538 -0.2954
   27SAPC  H13Y 3652   5.815   2.801   8.241 -0.6039  2.2884 -0.0572
   27SAPC  C314 3653   5.857   2.624   8.347 -0.4604  0.0527 -0.6463
   27SAPC  H14X 3654   5.851   2.567   8.252  0.7207  0.1854 -0.8259
   27SAPC  H14Y 3655   5.809   2.565   8.427 -2.2919  2.3507  0.0474
   27SAPC  C315 3656   6.010   2.658   8.377  0.2667  0.4883 -0.0272
   27SAPC  H15X 3657   6.034   2.687   8.482  0.9856  1.1739 -0.3643
   27SAPC  H15Y 3658   6.038   2.746   8.315  2.0481 -1.1561 -1.6876
   27SAPC  C316 3659   6.107   2.546   8.333  0.5154  0.1303  1.2610
   27SAPC  H16X 3660   6.064   2.445   8.348  1.7315 -0.4718  0.7388
   27SAPC  H16Y 3661   6.192   2.546   8.404  1.1316 -0.4499  0.5443
   27SAPC  C317 3662   6.150   2.551   8.184 -0.4278  0.0681  0.4693
   27SAPC  H17X 3663   6.200   2.650   8.172  1.1661 -0.0080  4.6681
   27SAPC  H17Y 3664   6.063   2.548   8.115  0.6031 -0.0422 -0.8618
   27SAPC  C318 3665   6.250   2.448   8.141  0.4131 -0.2703  0.0167
   27SAPC  H18X 3666   6.298   2.476   8.045 -1.3639 -1.7868 -1.3993
   27SAPC  H18Y 3667   6.183   2.362   8.119 -0.7507  0.8024 -0.8417
   27SAPC  H18Z 3668   6.326   2.420   8.217  0.0868 -0.4210  0.2920
   28SAPC     N 3669   3.142   6.087   5.913 -0.4316 -0.9915  0.5950
   28SAPC   C12 3670   3.219   6.211   5.975  0.5359  0.3484 -0.2977
   28SAPC  H12A 3671   3.238   6.280   5.894 -0.0426 -0.4994 -1.1699
   28SAPC  H12B 3672   3.311   6.169   6.012  0.0698 -0.6375 -0.2426
   28SAPC   C13 3673   3.014   6.135   5.846 -0.0900 -0.5170  0.1391
   28SAPC  H13A 3674   3.030   6.180   5.749 -3.4431 -1.4331 -0.9680
   28SAPC  H13B 3675   2.945   6.053   5.831 -2.2096  0.8001  1.9676
   28SAPC  H13C 3676   2.965   6.210   5.906  2.0613  0.7643  0.3975
   28SAPC   C14 3677   3.226   6.019   5.812  0.0551 -0.0386 -0.1167
   28SAPC  H14A 3678   3.208   6.072   5.720 -2.5803 -1.2818 -0.3958
   28SAPC  H14B 3679   3.333   6.025   5.829  0.5431  2.0853 -3.0968
   28SAPC  H14C 3680   3.200   5.915   5.796  4.6871 -1.7565  1.6339
   28SAPC   C15 3681   3.110   5.995   6.027 -0.6584  0.3835 -1.3981
   28SAPC  H15A 3682   3.056   5.914   5.980 -0.4267  0.6350 -2.1075
   28SAPC  H15B 3683   3.195   5.981   6.093 -1.3539  0.2148 -0.5164
   28SAPC  H15C 3684   3.043   6.042   6.098 -1.6865 -0.1608 -1.9893
   28SAPC   C11 3685   3.157   6.286   6.095 -0.4981 -0.4685 -0.2962
   28SAPC  H11A 3686   3.047   6.288   6.083 -0.8419 -2.4187  1.8408
   28SAPC  H11B 3687   3.190   6.392   6.097  2.1557 -1.2333  0.1152
   28SAPC     P 3688   3.325   6.228   6.291  0.0304  0.1546  0.2282
   28SAPC   O13 3689   3.409   6.124   6.248  0.0023 -0.1860 -0.1253
   28SAPC   O14 3690   3.369   6.368   6.280 -0.2364  0.5986 -0.5668
   28SAPC   O12 3691   3.180   6.216   6.222 -0.2332  0.8886  0.1656
   28SAPC   O11 3692   3.292   6.199   6.444 -0.1995 -0.3123  0.2732
   28SAPC    C1 3693   3.241   6.291   6.534 -0.3332 -0.2836 -0.6480
   28SAPC    HA 3694   3.322   6.361   6.565 -0.4387  0.1376 -1.3141
   28SAPC    HB 3695   3.150   6.344   6.500 -0.6283 -1.4966 -1.8514
   28SAPC    C2 3696   3.199   6.217   6.666  0.1586 -0.3672 -0.4886
   28SAPC    HS 3697   3.295   6.195   6.719 -0.3163  1.3947  1.2230
   28SAPC   O21 3698   3.120   6.108   6.623  0.0905  0.0811 -0.1198
   28SAPC   C21 3699   3.139   5.994   6.697 -0.0191 -1.2748 -0.2663
   28SAPC   O22 3700   3.220   5.985   6.786 -0.3854 -0.1208  0.0790
   28SAPC   C22 3701   3.060   5.876   6.638  0.2472 -0.2184  0.3964
   28SAPC   H2R 3702   3.023   5.905   6.537 -0.5581 -1.0923  0.4325
   28SAPC   H2S 3703   3.130   5.792   6.618 -0.5227 -0.5374 -1.1282
   28SAPC    C3 3704   3.122   6.308   6.767  0.6447 -0.2723  0.2786
   28SAPC    HX 3705   3.033   6.342   6.709  0.3436 -1.8352 -0.2292
   28SAPC    HY 3706   3.183   6.400   6.781  0.2284  0.6110 -2.8010
   28SAPC   O31 3707   3.080   6.252   6.890 -0.3278  0.3742 -0.3520
   28SAPC   C31 3708   3.171   6.206   6.974  0.5540  0.2363 -0.7817
   28SAPC   O32 3709   3.291   6.221   6.965  0.2279  0.9199  1.1097
   28SAPC   C32 3710   3.097   6.147   7.099  0.2241 -0.2960  0.0855
   28SAPC   H2X 3711   3.079   6.038   7.086 -0.9489 -0.4136  2.2083
   28SAPC   H2Y 3712   3.001   6.200   7.117  0.2922 -0.0755 -0.1990
   28SAPC   C23 3713   2.951   5.824   6.727  0.5510 -0.4201 -0.1525
   28SAPC   H3R 3714   3.005   5.796   6.820  1.6852 -0.4733 -0.8196
   28SAPC   H3S 3715   2.898   5.741   6.674 -0.0200 -1.2212  1.5978
   28SAPC   C24 3716   2.826   5.918   6.746  0.1997 -0.0840 -0.9171
   28SAPC   H4R 3717   2.775   5.930   6.648 -0.4942  1.6427 -0.3914
   28SAPC   H4S 3718   2.756   5.856   6.805  0.0034  3.4578  3.0797
   28SAPC   C25 3719   2.844   6.060   6.803 -0.1082  1.0686 -1.0447
   28SAPC   H5R 3720   2.912   6.128   6.749  3.2477 -0.7906  0.5119
   28SAPC   C26 3721   2.786   6.102   6.919  0.3453 -0.0191 -0.7556
   28SAPC   H6R 3722   2.802   6.208   6.945 -1.3214  0.1995 -0.4624
   28SAPC   C27 3723   2.693   6.025   7.013  0.3989  0.1865 -0.0505
   28SAPC   H7R 3724   2.670   5.924   6.974  0.3359 -0.7343  2.2519
   28SAPC   H7S 3725   2.597   6.080   7.001 -0.4260 -1.4069 -1.0482
   28SAPC   C28 3726   2.743   6.026   7.158  1.0011 -0.3440 -0.4382
   28SAPC   H8R 3727   2.798   5.938   7.195  2.2094  1.0095  1.1506
   28SAPC   C29 3728   2.727   6.120   7.253  0.3926 -0.0173 -0.0090
   28SAPC   H9R 3729   2.788   6.108   7.343  1.0984 -0.9104 -0.5884
   28SAPC  C210 3730   2.660   6.253   7.230 -0.3921 -0.4269  1.1081
   28SAPC  H10R 3731   2.585   6.243   7.149  0.7328  2.6891 -0.4770
   28SAPC  H10S 3732   2.723   6.333   7.186  1.2107 -2.8865 -1.4047
   28SAPC  C211 3733   2.565   6.286   7.335 -0.2787 -0.1985 -1.0990
   28SAPC  H11R 3734   2.497   6.200   7.348 -0.2872 -0.1969 -1.1370
   28SAPC  C212 3735   2.560   6.386   7.420 -0.0561  0.5047 -0.0606
   28SAPC  H12R 3736   2.475   6.384   7.490 -1.2657  2.9149 -1.3552
   28SAPC  C213 3737   2.646   6.511   7.427 -0.0847 -0.5984 -0.7083
   28SAPC  H13R 3738   2.589   6.606   7.433  0.6324 -0.2752  3.2917
   28SAPC  H13S 3739   2.701   6.522   7.331  3.1887 -0.8600  0.9894
   28SAPC  C214 3740   2.754   6.509   7.537  0.7769  0.7887 -0.2943
   28SAPC  H14R 3741   2.851   6.464   7.508  0.9504  0.9736 -0.0051
   28SAPC  C215 3742   2.741   6.555   7.661  0.0632 -0.9361 -0.2147
   28SAPC  H15R 3743   2.821   6.564   7.735 -0.1626  1.3190 -0.1607
   28SAPC  C216 3744   2.610   6.617   7.714  0.2749 -0.1548 -0.0475
   28SAPC  H16R 3745   2.528   6.547   7.686 -0.7390  1.1576 -0.4897
   28SAPC  H16S 3746   2.582   6.713   7.666  0.4845  0.4067  0.9223
   28SAPC  C217 3747   2.596   6.645   7.869 -0.2687 -0.2219  1.1799
   28SAPC  H17R 3748   2.503   6.703   7.882  0.9559  1.9170  0.8585
   28SAPC  H17S 3749   2.682   6.714   7.883  0.3413 -0.4469 -1.0279
   28SAPC  C218 3750   2.602   6.512   7.943 -0.3194 -0.5352 -0.1098
   28SAPC  H18R 3751   2.686   6.447   7.911  1.2914  0.6464  1.4883
   28SAPC  H18S 3752   2.515   6.451   7.912 -1.1642  0.6418 -0.1298
   28SAPC  C219 3753   2.595   6.528   8.092  0.3541  0.1231 -0.2420
   28SAPC  H19R 3754   2.523   6.608   8.118  0.6072 -0.4725  2.5550
   28SAPC  H19S 3755   2.692   6.566   8.131  1.2162 -0.7826 -1.4047
   28SAPC  C220 3756   2.564   6.388   8.147 -0.7739  0.4127 -0.0739
   28SAPC  H20R 3757   2.578   6.395   8.257 -1.6427 -0.3177  0.1024
   28SAPC  H20S 3758   2.637   6.308   8.122 -0.9603 -0.2885  1.4932
   28SAPC  H20T 3759   2.457   6.365   8.126 -0.3495 -0.5276 -1.3317
   28SAPC   C33 3760   3.189   6.177   7.218  0.8416  0.6506 -0.0454
   28SAPC   H3X 3761   3.252   6.268   7.214  0.5387  1.2923  4.4626
   28SAPC   H3Y 3762   3.273   6.103   7.222  1.6710  1.2801 -3.1493
   28SAPC   C34 3763   3.112   6.189   7.348  0.0230 -0.1724 -0.1587
   28SAPC   H4X 3764   3.084   6.091   7.390 -1.2112 -0.9285 -2.5705
   28SAPC   H4Y 3765   3.016   6.243   7.331  0.0746  0.4768  1.4225
   28SAPC   C35 3766   3.187   6.267   7.466  0.3046 -0.8028  0.6621
   28SAPC   H5X 3767   3.204   6.374   7.444  0.9746 -0.4654  2.6270
   28SAPC   H5Y 3768   3.285   6.216   7.480 -0.6578 -2.7208  0.7181
   28SAPC   C36 3769   3.102   6.265   7.594 -0.6723  0.2914  0.6213
   28SAPC   H6X 3770   3.086   6.158   7.621  1.6264 -0.0249  0.9029
   28SAPC   H6Y 3771   3.011   6.329   7.592 -1.7132 -1.1458  0.1799
   28SAPC   C37 3772   3.182   6.335   7.712 -0.5859 -0.2151  0.3453
   28SAPC   H7X 3773   3.287   6.302   7.699 -0.2155  1.3054 -0.7556
   28SAPC   H7Y 3774   3.139   6.299   7.808  0.6114 -1.9964  0.2469
   28SAPC   C38 3775   3.172   6.492   7.705  0.8596 -0.3152 -0.0760
   28SAPC   H8X 3776   3.063   6.514   7.707  0.8454 -0.2760  2.3047
   28SAPC   H8Y 3777   3.216   6.538   7.614  2.0946 -2.3171 -0.5560
   28SAPC   C39 3778   3.250   6.552   7.826 -0.2136  0.2511  0.8034
   28SAPC   H9X 3779   3.213   6.657   7.837 -1.6323 -0.0852 -0.3742
   28SAPC   H9Y 3780   3.355   6.554   7.791 -0.3858 -0.7375  0.1906
   28SAPC  C310 3781   3.226   6.481   7.961 -0.8744  0.4198 -0.2171
   28SAPC  H10X 3782   3.266   6.377   7.961  0.0917  0.7687 -1.4735
   28SAPC  H10Y 3783   3.119   6.470   7.988 -0.9333 -0.8627 -0.8831
   28SAPC  C311 3784   3.312   6.544   8.075 -0.0185  0.4242  0.6018
   28SAPC  H11X 3785   3.276   6.648   8.086  1.2850  0.9146  0.4695
   28SAPC  H11Y 3786   3.418   6.549   8.042  1.7381  0.8133  5.5106
   28SAPC  C312 3787   3.318   6.463   8.208 -0.5232  0.0220  1.0124
   28SAPC  H12X 3788   3.212   6.454   8.239 -1.1543  0.8647 -0.7578
   28SAPC  H12Y 3789   3.371   6.530   8.279  0.3005 -2.1740  2.5856
   28SAPC  C313 3790   3.368   6.322   8.213 -0.0721 -0.1942 -0.5248
   28SAPC  H13X 3791   3.473   6.324   8.178 -0.1248 -0.2103 -0.6892
   28SAPC  H13Y 3792   3.300   6.264   8.146  1.2545 -1.9135 -0.4484
   28SAPC  C314 3793   3.362   6.284   8.368 -0.1434 -0.5719 -0.1069
   28SAPC  H14X 3794   3.252   6.287   8.387 -0.7880 -1.1078 -3.3073
   28SAPC  H14Y 3795   3.408   6.369   8.424 -0.4897 -0.8304  0.5856
   28SAPC  C315 3796   3.427   6.157   8.399 -0.0782  0.7431 -0.0991
   28SAPC  H15X 3797   3.532   6.163   8.364 -0.3077 -1.7341 -1.4006
   28SAPC  H15Y 3798   3.362   6.082   8.350 -0.4027  0.6008  0.5446
   28SAPC  C316 3799   3.418   6.116   8.550 -1.1440  0.8714 -0.2762
   28SAPC  H16X 3800   3.494   6.174   8.606 -0.6689 -0.7553  0.8312
   28SAPC  H16Y 3801   3.437   6.008   8.567 -2.5760  0.8258  1.2468
   28SAPC  C317 3802   3.277   6.148   8.622  0.2947 -0.0175 -0.3134
   28SAPC  H17X 3803   3.196   6.081   8.585  0.9087 -0.2460 -1.2774
   28SAPC  H17Y 3804   3.261   6.255   8.596  2.0404  0.2005 -0.6008
   28SAPC  C318 3805   3.280   6.139   8.773 -0.1283  0.1631 -0.2446
   28SAPC  H18X 3806   3.178   6.170   8.806 -1.5742  0.7117 -4.5367
   28SAPC  H18Y 3807   3.353   6.216   8.803 -0.2782  0.8493 -1.5406
   28SAPC  H18Z 3808   3.305   6.035   8.804 -1.7130 -0.0867  0.3151
   29SAPC     N 3809   5.968   3.824   6.351 -0.0011  0.2224  0.6480
   29SAPC   C12 3810   6.088   3.744   6.296  0.5122 -0.1015  0.1488
   29SAPC  H12A 3811   6.077   3.723   6.191 -1.4029  2.0956 -0.1739
   29SAPC  H12B 3812   6.085   3.645   6.339 -0.3383 -0.1859 -0.0738
   29SAPC   C13 3813   5.852   3.728   6.360  0.7965  1.2430  0.3266
   29SAPC  H13A 3814   5.827   3.687   6.263 -0.5634  1.8500  0.3965
   29SAPC  H13B 3815   5.868   3.648   6.431 -1.3789  0.5999  0.1679
   29SAPC  H13C 3816   5.768   3.779   6.404 -0.8281 -2.0291  1.3040
   29SAPC   C14 3817   5.991   3.872   6.489 -0.0524  0.2271 -0.0434
   29SAPC  H14A 3818   5.999   3.793   6.562  1.3673 -0.1826 -0.5859
   29SAPC  H14B 3819   6.082   3.931   6.484  0.8498 -1.1671 -3.3355
   29SAPC  H14C 3820   5.903   3.930   6.509 -0.4726 -1.8388  5.9710
   29SAPC   C15 3821   5.939   3.936   6.263  0.1644 -0.0675  0.4733
   29SAPC  H15A 3822   5.860   3.997   6.304 -0.3532 -0.3002 -0.1628
   29SAPC  H15B 3823   6.036   3.985   6.263 -0.8515  2.0504  0.4006
   29SAPC  H15C 3824   5.916   3.912   6.161  1.0577  3.0620 -0.5771
   29SAPC   C11 3825   6.230   3.792   6.316 -0.4183 -0.0135 -0.1796
   29SAPC  H11A 3826   6.301   3.718   6.272  0.3911  0.8337 -0.3278
   29SAPC  H11B 3827   6.263   3.803   6.421 -0.0687 -2.3304  0.0111
   29SAPC     P 3828   6.320   4.039   6.296 -0.1624  0.2518  0.0190
   29SAPC   O13 3829   6.467   4.019   6.322 -0.3080  0.1440 -0.0420
   29SAPC   O14 3830   6.292   4.147   6.206 -0.1691 -0.4219 -0.2399
   29SAPC   O12 3831   6.248   3.911   6.239 -0.6614  0.5163  0.0523
   29SAPC   O11 3832   6.250   4.069   6.435  0.3643 -0.0379 -0.0177
   29SAPC    C1 3833   6.319   4.118   6.549 -0.2083  0.3936  0.3898
   29SAPC    HA 3834   6.404   4.182   6.517  0.5503 -0.3253  0.9135
   29SAPC    HB 3835   6.248   4.175   6.612 -0.4694 -0.2737  0.7037
   29SAPC    C2 3836   6.390   4.004   6.624 -0.1289 -0.3955 -0.6731
   29SAPC    HS 3837   6.455   3.961   6.545  0.2492  0.0238 -0.5985
   29SAPC   O21 3838   6.299   3.912   6.692  0.4184 -0.2265 -0.1001
   29SAPC   C21 3839   6.333   3.782   6.689 -0.3812  1.0269 -0.7307
   29SAPC   O22 3840   6.436   3.731   6.640 -0.1032  0.3456  0.2562
   29SAPC   C22 3841   6.213   3.700   6.727  0.7796  0.6970 -0.4356
   29SAPC   H2R 3842   6.123   3.758   6.696 -0.3907 -0.5782  0.4408
   29SAPC   H2S 3843   6.215   3.603   6.671 -0.8412  0.0410  0.5720
   29SAPC    C3 3844   6.492   4.066   6.731 -0.2466  0.5295  0.4872
   29SAPC    HX 3845   6.564   4.133   6.680  1.5555 -1.3188  0.4646
   29SAPC    HY 3846   6.552   3.985   6.779 -1.6191 -0.7192  0.1370
   29SAPC   O31 3847   6.422   4.134   6.834  0.0429  0.7278  0.8078
   29SAPC   C31 3848   6.443   4.264   6.851 -0.0861 -0.7729  0.5486
   29SAPC   O32 3849   6.525   4.326   6.788 -0.2489 -0.0135  0.2975
   29SAPC   C32 3850   6.355   4.330   6.960  0.0396 -0.0940 -0.5013
   29SAPC   H2X 3851   6.255   4.286   6.940 -0.3089  0.5960 -0.3158
   29SAPC   H2Y 3852   6.343   4.438   6.940  0.6611 -0.3288 -2.3660
   29SAPC   C23 3853   6.205   3.656   6.874 -0.0527 -1.5374  0.1503
   29SAPC   H3R 3854   6.095   3.649   6.883 -0.5861  1.7088 -1.9925
   29SAPC   H3S 3855   6.237   3.745   6.932  0.6028 -1.3138 -0.5293
   29SAPC   C24 3856   6.306   3.546   6.898  0.5861 -0.0114  0.3872
   29SAPC   H4R 3857   6.410   3.583   6.883  0.7680  0.5209  2.7025
   29SAPC   H4S 3858   6.301   3.461   6.825 -0.2637 -0.5290  1.0327
   29SAPC   C25 3859   6.283   3.491   7.030 -0.2705 -0.1497 -0.5906
   29SAPC   H5R 3860   6.193   3.427   7.029  0.8877 -1.8072 -0.9304
   29SAPC   C26 3861   6.369   3.488   7.132 -1.1640  0.0508 -0.3256
   29SAPC   H6R 3862   6.336   3.454   7.231 -1.7000 -0.8432 -0.8015
   29SAPC   C27 3863   6.511   3.555   7.135  0.0653 -0.4254  0.4384
   29SAPC   H7R 3864   6.507   3.657   7.179 -0.3877 -1.4220  2.8574
   29SAPC   H7S 3865   6.570   3.572   7.043 -1.4690  0.5085 -0.4109
   29SAPC   C28 3866   6.611   3.485   7.229 -0.3667 -0.2606  0.5114
   29SAPC   H8R 3867   6.672   3.412   7.174 -2.3804 -0.5634 -1.4898
   29SAPC   C29 3868   6.613   3.491   7.361  0.0058  0.0787 -0.8247
   29SAPC   H9R 3869   6.691   3.442   7.421 -1.8533  0.8793  2.5313
   29SAPC  C210 3870   6.527   3.559   7.460 -0.7610  0.9349 -0.1734
   29SAPC  H10R 3871   6.442   3.612   7.412 -1.1472 -0.2738 -0.8683
   29SAPC  H10S 3872   6.576   3.635   7.526 -2.8433  0.5467  1.9449
   29SAPC  C211 3873   6.456   3.446   7.533 -0.1384  0.1468  0.1560
   29SAPC  H11R 3874   6.368   3.392   7.494 -0.9068 -2.0859  4.3426
   29SAPC  C212 3875   6.482   3.412   7.662  0.3866  0.1754 -0.2235
   29SAPC  H12R 3876   6.417   3.334   7.705 -0.6297  0.4971 -1.1219
   29SAPC  C213 3877   6.574   3.480   7.761 -0.1270 -0.3306 -0.6480
   29SAPC  H13R 3878   6.520   3.533   7.842 -0.6740 -0.1010 -1.1633
   29SAPC  H13S 3879   6.634   3.556   7.707  0.1956 -1.4461 -1.9246
   29SAPC  C214 3880   6.675   3.390   7.819 -0.6545  0.5514  0.1297
   29SAPC  H14R 3881   6.770   3.391   7.764 -0.1655 -0.0852  0.9427
   29SAPC  C215 3882   6.669   3.314   7.934  0.5749  0.0485 -0.0841
   29SAPC  H15R 3883   6.760   3.260   7.965  0.0005 -0.2399  1.1890
   29SAPC  C216 3884   6.554   3.312   8.028 -0.3316  0.1956 -0.1739
   29SAPC  H16R 3885   6.523   3.205   8.032  1.3897 -0.4109 -1.7476
   29SAPC  H16S 3886   6.465   3.363   7.987 -0.8337  1.4397  2.2673
   29SAPC  C217 3887   6.580   3.360   8.169  0.5742  0.2063  0.1334
   29SAPC  H17R 3888   6.489   3.342   8.230 -0.3719  0.2729 -1.2079
   29SAPC  H17S 3889   6.618   3.464   8.171 -0.6489  0.6820 -0.3633
   29SAPC  C218 3890   6.686   3.274   8.242 -0.2137  0.6510 -0.5360
   29SAPC  H18R 3891   6.781   3.270   8.184  0.5604 -1.7656  0.7501
   29SAPC  H18S 3892   6.650   3.170   8.258 -0.4640  0.8409  0.1564
   29SAPC  C219 3893   6.705   3.328   8.389 -0.5131  0.2144  1.0018
   29SAPC  H19R 3894   6.745   3.428   8.364  0.5859 -0.8136 -1.7818
   29SAPC  H19S 3895   6.781   3.256   8.427  0.4421 -0.6626 -2.2427
   29SAPC  C220 3896   6.580   3.330   8.474  0.1667  0.3997  0.2497
   29SAPC  H20R 3897   6.597   3.347   8.582 -1.7301  1.6162  0.4088
   29SAPC  H20S 3898   6.538   3.228   8.459  0.7729  0.3011 -0.8830
   29SAPC  H20T 3899   6.510   3.409   8.440  0.2095 -0.6275 -2.4482
   29SAPC   C33 3900   6.381   4.272   7.104  0.3743 -0.5629 -0.1042
   29SAPC   H3X 3901   6.490   4.280   7.119  0.6678 -2.1526 -1.1468
   29SAPC   H3Y 3902   6.351   4.166   7.118  1.3675 -0.8104  0.1658
   29SAPC   C34 3903   6.296   4.352   7.200 -0.2182 -0.2364 -0.7349
   29SAPC   H4X 3904   6.191   4.363   7.166 -0.0681  1.2458 -0.7660
   29SAPC   H4Y 3905   6.333   4.455   7.215  0.1235 -0.3642 -0.6940
   29SAPC   C35 3906   6.273   4.282   7.332  0.1070  0.1734  0.2981
   29SAPC   H5X 3907   6.375   4.255   7.366 -0.2692 -1.5007  0.1879
   29SAPC   H5Y 3908   6.227   4.185   7.303  1.7099 -0.7083  0.5934
   29SAPC   C36 3909   6.187   4.347   7.437  0.3443  0.1839 -0.5613
   29SAPC   H6X 3910   6.086   4.366   7.395 -0.5986 -0.2475  1.3710
   29SAPC   H6Y 3911   6.236   4.445   7.456  2.1478 -0.7666 -0.0025
   29SAPC   C37 3912   6.165   4.261   7.564  0.0239 -0.3274 -0.0432
   29SAPC   H7X 3913   6.268   4.252   7.605 -0.9632 -1.1169  2.4312
   29SAPC   H7Y 3914   6.121   4.167   7.525  0.4774  0.5532 -2.8484
   29SAPC   C38 3915   6.072   4.338   7.656  0.5251  0.4374 -0.0257
   29SAPC   H8X 3916   5.973   4.354   7.608  0.9035  3.0436 -0.0610
   29SAPC   H8Y 3917   6.128   4.433   7.665  0.7111  0.3854 -0.5467
   29SAPC   C39 3918   6.037   4.262   7.787  0.4189  0.2370 -0.0285
   29SAPC   H9X 3919   5.983   4.171   7.755 -0.7318  1.3123 -1.2555
   29SAPC   H9Y 3920   5.966   4.329   7.839  0.8821 -0.7370  1.9941
   29SAPC  C310 3921   6.156   4.222   7.871 -0.1117  0.0254  0.8545
   29SAPC  H10X 3922   6.226   4.306   7.884  1.1277 -1.0541  1.3397
   29SAPC  H10Y 3923   6.217   4.146   7.818  0.4450 -0.0735  1.6230
   29SAPC  C311 3924   6.116   4.165   8.009 -1.1085  0.1675 -0.1604
   29SAPC  H11X 3925   6.072   4.065   7.988  1.0692 -0.5457 -1.7629
   29SAPC  H11Y 3926   6.039   4.221   8.065 -1.7461 -0.2994 -0.5589
   29SAPC  C312 3927   6.240   4.132   8.108  0.3654 -0.6222 -0.0191
   29SAPC  H12X 3928   6.307   4.221   8.109 -1.4981  0.8625  1.1639
   29SAPC  H12Y 3929   6.314   4.057   8.073  0.5291 -0.0723 -0.8776
   29SAPC  C313 3930   6.179   4.116   8.246  1.2454  0.8004  0.0668
   29SAPC  H13X 3931   6.112   4.029   8.228  0.7587  0.5961  2.4611
   29SAPC  H13Y 3932   6.124   4.210   8.267  0.3685 -0.1268  2.3529
   29SAPC  C314 3933   6.265   4.089   8.373 -0.1992  0.2434  0.0927
   29SAPC  H14X 3934   6.323   3.996   8.357 -0.3356  0.3735 -1.2490
   29SAPC  H14Y 3935   6.195   4.074   8.458  0.7913 -0.8031  0.7553
   29SAPC  C315 3936   6.360   4.207   8.404  0.1736 -0.4564  0.6722
   29SAPC  H15X 3937   6.311   4.303   8.377  0.0535 -0.0529  2.2412
   29SAPC  H15Y 3938   6.438   4.190   8.327  0.0652  0.4503  0.3571
   29SAPC  C316 3939   6.417   4.193   8.550  0.9715 -0.7914  0.2409
   29SAPC  H16X 3940   6.457   4.089   8.557  0.9174 -1.0544 -2.2009
   29SAPC  H16Y 3941   6.341   4.204   8.630  1.5544  1.1471  0.5903
   29SAPC  C317 3942   6.523   4.301   8.582 -0.6687  0.4715  0.1557
   29SAPC  H17X 3943   6.484   4.394   8.534 -0.5381  0.1551 -0.5805
   29SAPC  H17Y 3944   6.615   4.277   8.524 -2.0989  0.4153 -2.2425
   29SAPC  C318 3945   6.558   4.312   8.729  0.2712 -0.1494  0.3896
   29SAPC  H18X 3946   6.474   4.349   8.792 -0.7024 -0.7784 -0.5130
   29SAPC  H18Y 3947   6.640   4.386   8.742  0.4686 -0.4061  0.6015
   29SAPC  H18Z 3948   6.592   4.214   8.767  3.0261 -0.2862 -2.0188
   30SAPC     N 3949   2.133   4.154   6.226 -0.3167 -0.0609 -0.8234
   30SAPC   C12 3950   2.012   4.067   6.262  0.2205 -0.5852 -0.0767
   30SAPC  H12A 3951   1.930   4.130   6.292  0.2315  0.3790 -1.9780
   30SAPC  H12B 3952   2.030   4.011   6.353 -3.2837 -1.3010  0.3226
   30SAPC   C13 3953   2.117   4.231   6.103 -0.2469  0.0030 -0.7806
   30SAPC  H13A 3954   2.210   4.277   6.072 -0.5410  2.3291  1.4283
   30SAPC  H13B 3955   2.078   4.166   6.026  1.2294  1.1196 -2.5721
   30SAPC  H13C 3956   2.058   4.321   6.109 -0.2889 -0.0509 -0.4011
   30SAPC   C14 3957   2.154   4.244   6.343 -0.5820 -0.2295 -0.3891
   30SAPC  H14A 3958   2.074   4.316   6.351  1.1351  1.7146  0.0669
   30SAPC  H14B 3959   2.171   4.190   6.434  1.0966  0.9205  0.0370
   30SAPC  H14C 3960   2.249   4.295   6.334 -1.4886  1.6928  0.4411
   30SAPC   C15 3961   2.255   4.069   6.207 -0.5643  0.4080  0.0169
   30SAPC  H15A 3962   2.276   4.033   6.307  1.2985 -0.3218 -0.6018
   30SAPC  H15B 3963   2.239   3.988   6.138 -1.8544 -0.1703  0.9458
   30SAPC  H15C 3964   2.339   4.126   6.171  1.1656 -2.0097 -0.0235
   30SAPC   C11 3965   1.952   3.977   6.152 -0.2864  0.3011  0.4170
   30SAPC  H11A 3966   1.889   3.895   6.193 -0.9311  0.8716  0.5865
   30SAPC  H11B 3967   2.041   3.934   6.102 -0.2469  0.1580  0.6107
   30SAPC     P 3968   1.744   4.090   6.052 -0.1443  0.4843  0.0801
   30SAPC   O13 3969   1.739   4.219   5.976  0.3738  0.1884 -0.2921
   30SAPC   O14 3970   1.656   3.978   6.003 -0.1473 -0.0197 -0.3683
   30SAPC   O12 3971   1.891   4.041   6.041  0.2255 -0.4915  0.2915
   30SAPC   O11 3972   1.729   4.124   6.210 -0.0571  0.0647 -0.4600
   30SAPC    C1 3973   1.691   4.025   6.301 -0.8297  0.5976 -0.3011
   30SAPC    HA 3974   1.638   3.936   6.260  2.9742 -0.1426 -4.3397
   30SAPC    HB 3975   1.781   3.981   6.349  0.2343 -0.2079 -2.8737
   30SAPC    C2 3976   1.614   4.076   6.427 -0.1759  0.9067  0.0027
   30SAPC    HS 3977   1.601   4.185   6.410  1.3825  0.9486 -1.1864
   30SAPC   O21 3978   1.693   4.053   6.547  0.1478 -0.2920 -0.2946
   30SAPC   C21 3979   1.793   4.126   6.567 -0.0128  0.6156  0.4779
   30SAPC   O22 3980   1.841   4.209   6.491  0.3640  0.5936 -0.2792
   30SAPC   C22 3981   1.849   4.101   6.705  0.2520 -0.2288 -0.0860
   30SAPC   H2R 3982   1.861   3.990   6.705  0.0437 -0.2601 -0.9307
   30SAPC   H2S 3983   1.952   4.140   6.711  1.4917 -3.1685 -0.5395
   30SAPC    C3 3984   1.477   4.011   6.457 -0.4789  0.3560 -0.4824
   30SAPC    HX 3985   1.497   3.902   6.470  2.1501  0.8141 -0.0950
   30SAPC    HY 3986   1.422   4.028   6.362 -3.5619  0.5939  1.2356
   30SAPC   O31 3987   1.413   4.077   6.566 -0.0237  0.4065 -0.1417
   30SAPC   C31 3988   1.359   3.996   6.656 -0.6140 -0.4271 -0.2481
   30SAPC   O32 3989   1.362   3.875   6.648  0.1213 -0.6259 -0.2730
   30SAPC   C32 3990   1.317   4.072   6.780 -0.2717  0.7391  0.4612
   30SAPC   H2X 3991   1.220   4.117   6.750 -1.2200 -1.0025  0.7549
   30SAPC   H2Y 3992   1.403   4.135   6.809  0.4008  0.7325 -1.3594
   30SAPC   C23 3993   1.767   4.167   6.823  0.5347 -0.0974  0.0583
   30SAPC   H3R 3994   1.662   4.134   6.816 -0.1886  1.7353  1.4469
   30SAPC   H3S 3995   1.758   4.277   6.815 -0.8975 -0.2886 -1.6447
   30SAPC   C24 3996   1.826   4.115   6.949  0.6058 -0.4907 -0.5823
   30SAPC   H4R 3997   1.937   4.127   6.951  0.3353  3.6000 -0.0764
   30SAPC   H4S 3998   1.790   4.011   6.964 -0.4276 -0.3170 -1.7466
   30SAPC   C25 3999   1.775   4.197   7.064  0.1445 -0.3159  0.2549
   30SAPC   H5R 4000   1.801   4.303   7.063 -1.8346  0.2206 -1.7511
   30SAPC   C26 4001   1.695   4.153   7.167  0.6710 -0.5168  0.7372
   30SAPC   H6R 4002   1.667   4.229   7.241  1.7357  1.2640 -0.6135
   30SAPC   C27 4003   1.638   4.014   7.179  0.3834  0.1781  0.0076
   30SAPC   H7R 4004   1.580   3.987   7.088 -0.5156 -0.0503  0.6331
   30SAPC   H7S 4005   1.572   4.025   7.268  1.8139  0.6194  1.0431
   30SAPC   C28 4006   1.729   3.894   7.203  0.5550  0.8735  0.2145
   30SAPC   H8R 4007   1.739   3.825   7.118 -3.5600 -1.5588  1.3926
   30SAPC   C29 4008   1.784   3.867   7.323  0.2323  0.2086  0.3566
   30SAPC   H9R 4009   1.854   3.783   7.328  0.9541  0.7296 -0.5925
   30SAPC  C210 4010   1.779   3.943   7.450 -0.2329 -0.2482  0.1224
   30SAPC  H10R 4011   1.740   4.045   7.432  1.3678  0.4654  0.5872
   30SAPC  H10S 4012   1.881   3.948   7.493  0.1113 -2.4559 -0.2999
   30SAPC  C211 4013   1.687   3.895   7.566  0.7701  0.0447  0.4031
   30SAPC  H11R 4014   1.596   3.842   7.533  1.5101 -1.9390  1.4024
   30SAPC  C212 4015   1.703   3.898   7.700 -0.3594  0.1715  0.0378
   30SAPC  H12R 4016   1.626   3.854   7.765 -0.4398 -1.1808 -0.9204
   30SAPC  C213 4017   1.816   3.957   7.782 -0.1367 -0.6199  0.2633
   30SAPC  H13R 4018   1.905   3.988   7.722  1.7615 -0.8606  2.8065
   30SAPC  H13S 4019   1.860   3.885   7.853 -0.1792  0.1177  1.0542
   30SAPC  C214 4020   1.757   4.065   7.871  0.6403  0.5462  0.2618
   30SAPC  H14R 4021   1.736   4.162   7.825 -2.5391  0.2569  0.8329
   30SAPC  C215 4022   1.702   4.054   7.998  0.0334  0.1617 -0.1815
   30SAPC  H15R 4023   1.688   4.150   8.050  0.3843 -0.2987  0.7838
   30SAPC  C216 4024   1.692   3.931   8.081  0.3479 -0.0818  0.0438
   30SAPC  H16R 4025   1.756   3.851   8.036  0.7260 -0.5125  1.3113
   30SAPC  H16S 4026   1.586   3.897   8.074 -0.1439  1.4668 -0.3439
   30SAPC  C217 4027   1.748   3.964   8.219 -0.5169  0.3364 -0.3836
   30SAPC  H17R 4028   1.842   4.023   8.221  0.3972 -0.7819 -3.9307
   30SAPC  H17S 4029   1.773   3.864   8.262  1.6291  0.1606 -1.8629
   30SAPC  C218 4030   1.653   4.030   8.326  0.5605  0.2847 -0.8219
   30SAPC  H18R 4031   1.585   3.944   8.342  2.3900 -1.9411 -3.9100
   30SAPC  H18S 4032   1.598   4.111   8.275  1.3087  1.1043 -0.3550
   30SAPC  C219 4033   1.717   4.058   8.464  0.1812  0.9039 -0.1115
   30SAPC  H19R 4034   1.646   4.056   8.550 -0.0175 -1.9137 -0.2410
   30SAPC  H19S 4035   1.760   4.160   8.459 -1.0857  1.3910 -1.7724
   30SAPC  C220 4036   1.816   3.949   8.508 -0.1760  0.3878 -0.3920
   30SAPC  H20R 4037   1.918   3.979   8.475 -0.3723  1.1904 -0.2889
   30SAPC  H20S 4038   1.790   3.845   8.478 -0.5419  0.0286  1.0843
   30SAPC  H20T 4039   1.815   3.949   8.619 -2.1002 -1.4685 -0.3573
   30SAPC   C33 4040   1.312   3.963   6.891  0.4482 -0.3336 -0.5799
   30SAPC   H3X 4041   1.407   3.905   6.897  0.6682  0.1552  0.8957
   30SAPC   H3Y 4042   1.230   3.895   6.859  1.6923 -1.8700 -0.5989
   30SAPC   C34 4043   1.280   4.028   7.028 -0.0245 -0.7389 -0.0342
   30SAPC   H4X 4044   1.190   4.093   7.037 -1.7111 -2.8602 -0.6924
   30SAPC   H4Y 4045   1.375   4.080   7.054  0.3121 -1.6597  0.6188
   30SAPC   C35 4046   1.263   3.930   7.141 -0.1280  0.3668 -1.1823
   30SAPC   H5X 4047   1.346   3.857   7.130 -1.1173 -1.3584  1.6374
   30SAPC   H5Y 4048   1.172   3.870   7.118  0.3829 -1.9353  2.0527
   30SAPC   C36 4049   1.258   3.979   7.286  0.5498 -0.9750  0.1244
   30SAPC   H6X 4050   1.168   4.040   7.312  1.3802  1.0060 -1.3916
   30SAPC   H6Y 4051   1.341   4.052   7.292 -0.6557  0.5733 -1.2069
   30SAPC   C37 4052   1.296   3.877   7.392  0.3361 -0.6204  0.0219
   30SAPC   H7X 4053   1.393   3.838   7.354  0.3280  0.7067 -1.5096
   30SAPC   H7Y 4054   1.236   3.784   7.394  0.6459 -0.8116  1.4631
   30SAPC   C38 4055   1.311   3.927   7.535 -0.0142  0.3209 -0.1839
   30SAPC   H8X 4056   1.361   4.026   7.534  1.9155 -0.6211 -0.0996
   30SAPC   H8Y 4057   1.378   3.863   7.596  0.2459  0.2536 -0.5420
   30SAPC   C39 4058   1.178   3.933   7.611 -0.0664  0.0282  0.1384
   30SAPC   H9X 4059   1.141   3.831   7.637 -3.5574  1.3446  0.8348
   30SAPC   H9Y 4060   1.101   3.974   7.543  0.2632  0.4581  0.0196
   30SAPC  C310 4061   1.178   4.009   7.743  0.3494  0.5040 -0.0110
   30SAPC  H10X 4062   1.070   4.003   7.769 -0.1423 -1.1990 -2.1058
   30SAPC  H10Y 4063   1.211   4.115   7.742  3.9000 -0.4612  0.8035
   30SAPC  C311 4064   1.267   3.940   7.855 -0.2646  0.2764 -0.1875
   30SAPC  H11X 4065   1.367   3.989   7.857 -0.4404  0.8552 -2.5472
   30SAPC  H11Y 4066   1.292   3.836   7.827  0.3943  0.3218  0.2058
   30SAPC  C312 4067   1.203   3.934   7.992  0.4123 -0.1191 -0.1889
   30SAPC  H12X 4068   1.269   3.870   8.053  0.5051 -1.2493 -1.4356
   30SAPC  H12Y 4069   1.111   3.873   7.985  0.0589  0.4490 -0.6340
   30SAPC  C313 4070   1.166   4.069   8.061  0.3088 -0.3990 -0.2909
   30SAPC  H13X 4071   1.074   4.106   8.011 -0.4894 -1.2398  0.5252
   30SAPC  H13Y 4072   1.246   4.147   8.056  0.1381  0.0277  2.1960
   30SAPC  C314 4073   1.112   4.060   8.209  0.9538 -0.2247  0.1449
   30SAPC  H14X 4074   1.037   3.979   8.223  1.2332 -0.3691  0.8219
   30SAPC  H14Y 4075   1.066   4.159   8.229  0.7318  0.5953 -3.7117
   30SAPC  C315 4076   1.237   4.047   8.294 -0.1130 -0.3288 -0.1021
   30SAPC  H15X 4077   1.294   4.142   8.285  0.9923 -0.3443  4.4117
   30SAPC  H15Y 4078   1.295   3.959   8.260  0.6420  1.2815 -3.3928
   30SAPC  C316 4079   1.205   4.026   8.450  0.1016 -0.5280  0.7935
   30SAPC  H16X 4080   1.143   4.116   8.474  0.5924 -0.1717  0.7272
   30SAPC  H16Y 4081   1.303   4.042   8.499  0.2905  1.4534 -0.1290
   30SAPC  C317 4082   1.146   3.890   8.491 -0.7323  0.2369  0.6337
   30SAPC  H17X 4083   1.230   3.818   8.500 -1.3073 -0.3472  1.6041
   30SAPC  H17Y 4084   1.075   3.842   8.421  0.1341 -0.3631  0.1496
   30SAPC  C318 4085   1.083   3.899   8.632  0.7539 -0.0843 -0.5832
   30SAPC  H18X 4086   1.045   3.798   8.661 -0.6446  0.6378  0.1848
   30SAPC  H18Y 4087   0.992   3.962   8.630 -1.1757 -2.6655 -0.2782
   30SAPC  H18Z 4088   1.152   3.948   8.703  1.7170 -1.6521 -0.3856
   31SAPC     N 4089   3.483   5.315   6.107  0.1304 -0.0753 -0.2042
   31SAPC   C12 4090   3.337   5.295   6.082 -0.2086 -0.0950 -0.4633
   31SAPC  H12A 4091   3.307   5.193   6.104  0.6218  0.3858  3.8823
   31SAPC  H12B 4092   3.311   5.324   5.982 -1.0550  1.1123  0.0825
   31SAPC   C13 4093   3.528   5.290   6.247  0.1646  0.2273 -0.4403
   31SAPC  H13A 4094   3.518   5.193   6.293  0.2957  1.5594  2.6232
   31SAPC  H13B 4095   3.631   5.324   6.248  0.3139 -0.2280 -0.3778
   31SAPC  H13C 4096   3.474   5.355   6.315  2.8924  3.0766 -0.7388
   31SAPC   C14 4097   3.565   5.211   6.034  0.7484  0.0455  0.1313
   31SAPC  H14A 4098   3.555   5.116   6.084  1.0882  0.6007  1.2854
   31SAPC  H14B 4099   3.534   5.215   5.930 -1.0972  0.8399  0.6694
   31SAPC  H14C 4100   3.670   5.237   6.034  0.9901 -0.4380 -3.0040
   31SAPC   C15 4101   3.536   5.451   6.070 -0.1990 -0.4251  0.2338
   31SAPC  H15A 4102   3.503   5.482   5.972 -2.5078 -0.8706  0.8133
   31SAPC  H15B 4103   3.511   5.524   6.146  0.2164 -0.8574  0.8035
   31SAPC  H15C 4104   3.644   5.447   6.072 -0.1449 -0.9769 -1.7201
   31SAPC   C11 4105   3.249   5.381   6.176  0.4674 -0.7102  0.2089
   31SAPC  H11A 4106   3.155   5.374   6.118 -1.4269  4.4018  2.0765
   31SAPC  H11B 4107   3.261   5.491   6.178 -1.2696 -0.4912  0.0070
   31SAPC     P 4108   3.134   5.227   6.366 -0.3128 -0.1527 -0.0121
   31SAPC   O13 4109   3.102   5.128   6.259  0.1631 -0.6601  0.5020
   31SAPC   O14 4110   3.188   5.182   6.497  0.3964  0.1054  0.4450
   31SAPC   O12 4111   3.243   5.333   6.314  0.8832  0.2189 -0.1219
   31SAPC   O11 4112   3.009   5.322   6.383 -0.4646  0.2697 -0.6665
   31SAPC    C1 4113   3.022   5.442   6.464 -0.6185  0.3530 -0.0625
   31SAPC    HA 4114   3.114   5.461   6.523 -1.2949 -0.7847  1.4419
   31SAPC    HB 4115   3.002   5.535   6.406 -0.6470  2.1301  2.6210
   31SAPC    C2 4116   2.921   5.429   6.582  0.2889  0.4013  0.5548
   31SAPC    HS 4117   2.904   5.536   6.608 -0.7865  1.4128 -3.5918
   31SAPC   O21 4118   2.963   5.342   6.691  0.1392 -0.2053 -0.1721
   31SAPC   C21 4119   3.037   5.402   6.778 -0.1220 -0.5762  0.1971
   31SAPC   O22 4120   3.076   5.517   6.765 -0.1393 -0.5026  0.3679
   31SAPC   C22 4121   3.033   5.318   6.909 -0.3377 -0.2086 -0.0178
   31SAPC   H2R 4122   2.930   5.279   6.925 -0.8589  1.9922  2.7511
   31SAPC   H2S 4123   3.086   5.224   6.881 -2.0121 -1.1111 -0.3143
   31SAPC    C3 4124   2.781   5.395   6.522  0.2442  0.2104 -0.7861
   31SAPC    HX 4125   2.765   5.291   6.488 -0.7372  0.7090 -1.9473
   31SAPC    HY 4126   2.762   5.460   6.434  1.1449  0.4796 -0.7897
   31SAPC   O31 4127   2.693   5.446   6.626  0.4596 -0.2895  0.9728
   31SAPC   C31 4128   2.563   5.466   6.587  0.7632 -0.4214 -0.5349
   31SAPC   O32 4129   2.522   5.444   6.474  0.6993  0.1343  0.2935
   31SAPC   C32 4130   2.494   5.526   6.702  0.0799  0.2764  0.4440
   31SAPC   H2X 4131   2.383   5.524   6.689  0.0864 -0.7213  0.4533
   31SAPC   H2Y 4132   2.528   5.632   6.708 -0.3266  0.4775 -0.5005
   31SAPC   C23 4133   3.083   5.388   7.038  0.0807  0.3943  0.3257
   31SAPC   H3R 4134   3.011   5.464   7.075  0.4769  1.7235 -1.5546
   31SAPC   H3S 4135   3.177   5.436   7.006  1.6935 -1.9478  1.2395
   31SAPC   C24 4136   3.126   5.289   7.153  0.4796 -0.1548 -0.1214
   31SAPC   H4R 4137   3.139   5.345   7.248  2.2237 -0.7171  0.0077
   31SAPC   H4S 4138   3.228   5.255   7.122  0.5502  1.6252 -2.0917
   31SAPC   C25 4139   3.035   5.170   7.166  0.4322 -0.1327 -0.0590
   31SAPC   H5R 4140   3.024   5.115   7.071  0.6412  0.9710 -0.7371
   31SAPC   C26 4141   2.965   5.130   7.273 -0.2007  0.0531  0.1611
   31SAPC   H6R 4142   2.907   5.038   7.259 -0.5115  0.0131  1.5957
   31SAPC   C27 4143   2.978   5.196   7.407 -0.0385 -1.0081  0.0429
   31SAPC   H7R 4144   2.913   5.286   7.402  0.0440 -1.0200 -1.5821
   31SAPC   H7S 4145   3.083   5.227   7.426 -0.3684 -0.3595  0.8592
   31SAPC   C28 4146   2.925   5.118   7.526  0.0304  0.3994  0.3370
   31SAPC   H8R 4147   2.860   5.035   7.495  0.2041  0.2876  0.2677
   31SAPC   C29 4148   2.930   5.162   7.655 -0.5093  0.3079  0.3815
   31SAPC   H9R 4149   2.878   5.099   7.729 -1.8991  0.4541 -0.4463
   31SAPC  C210 4150   2.998   5.285   7.693  0.4115  0.0327 -0.8576
   31SAPC  H10R 4151   2.936   5.377   7.685  0.9124  0.4077 -0.5686
   31SAPC  H10S 4152   3.091   5.307   7.636 -0.6096  1.8023 -1.9266
   31SAPC  C211 4153   3.044   5.280   7.839 -0.1519  0.0984  0.0048
   31SAPC  H11R 4154   3.065   5.178   7.876 -1.3127 -1.0135 -2.1709
   31SAPC  C212 4155   3.066   5.387   7.917 -0.6081 -0.7376 -0.4589
   31SAPC  H12R 4156   3.117   5.376   8.014  0.0554 -0.6497 -0.7878
   31SAPC  C213 4157   3.051   5.532   7.872  0.0871 -0.0763 -0.0287
   31SAPC  H13R 4158   3.064   5.595   7.963 -0.2978 -1.2067  0.8339
   31SAPC  H13S 4159   2.947   5.543   7.834  0.3149  1.3427 -0.3001
   31SAPC  C214 4160   3.155   5.559   7.770  0.0216  0.7753  0.1087
   31SAPC  H14R 4161   3.251   5.517   7.801  1.5352  2.4870 -1.9937
   31SAPC  C215 4162   3.161   5.625   7.657  0.4760  0.3358 -0.3076
   31SAPC  H15R 4163   3.252   5.619   7.596  1.5105 -0.8851  1.2659
   31SAPC  C216 4164   3.041   5.699   7.606 -0.0636 -0.2493  0.2519
   31SAPC  H16R 4165   3.068   5.805   7.629  1.6589 -0.7870  0.8539
   31SAPC  H16S 4166   2.953   5.656   7.658 -0.1660  0.3761  0.6109
   31SAPC  C217 4167   3.011   5.685   7.457  0.1034  0.4941 -0.5210
   31SAPC  H17R 4168   2.906   5.720   7.446 -0.2929 -0.1596  0.9524
   31SAPC  H17S 4169   2.994   5.579   7.428 -1.6130  0.8185 -0.8470
   31SAPC  C218 4170   3.106   5.757   7.362  0.2474  0.3432  0.2672
   31SAPC  H18R 4171   3.214   5.736   7.375  0.4521  0.0812 -1.5120
   31SAPC  H18S 4172   3.107   5.867   7.381  0.0447  0.0704  1.9444
   31SAPC  C219 4173   3.073   5.734   7.213  0.2719  0.3130  0.1609
   31SAPC  H19R 4174   3.003   5.816   7.190  1.8277  1.7170  0.2532
   31SAPC  H19S 4175   3.018   5.638   7.201 -0.1221  0.5591 -0.0220
   31SAPC  C220 4176   3.196   5.728   7.119 -0.5084 -0.2951 -1.2657
   31SAPC  H20R 4177   3.235   5.832   7.117 -2.3541  0.5982  2.0758
   31SAPC  H20S 4178   3.172   5.696   7.015 -0.5927  0.4962 -1.4972
   31SAPC  H20T 4179   3.273   5.655   7.153  0.8777  1.4499 -0.5294
   31SAPC   C33 4180   2.529   5.453   6.832 -0.1145 -0.2999 -0.1745
   31SAPC   H3X 4181   2.637   5.461   6.856  0.0810 -0.3777 -0.9781
   31SAPC   H3Y 4182   2.504   5.346   6.822 -3.8127  0.6044 -3.5750
   31SAPC   C34 4183   2.445   5.506   6.954  0.4002  0.2736 -0.2586
   31SAPC   H4X 4184   2.345   5.463   6.932 -0.8863  3.3673 -0.9465
   31SAPC   H4Y 4185   2.431   5.616   6.958 -0.8619  0.0980  1.3561
   31SAPC   C35 4186   2.509   5.476   7.083  0.1589 -0.2407 -0.5914
   31SAPC   H5X 4187   2.539   5.370   7.094  1.2709  0.2916  2.7447
   31SAPC   H5Y 4188   2.424   5.477   7.154  0.1503 -2.2899 -0.5358
   31SAPC   C36 4189   2.623   5.576   7.129  0.3762  0.0008 -0.0530
   31SAPC   H6X 4190   2.590   5.676   7.093 -1.2381 -0.1320  0.9452
   31SAPC   H6Y 4191   2.716   5.548   7.075 -0.9045 -2.5370 -1.0534
   31SAPC   C37 4192   2.658   5.576   7.284  0.0261  0.9466 -0.4620
   31SAPC   H7X 4193   2.585   5.647   7.329  0.9491  1.4438  0.2645
   31SAPC   H7Y 4194   2.761   5.613   7.298  0.8203 -1.7738  2.0312
   31SAPC   C38 4195   2.626   5.443   7.360  0.6894  0.5706 -0.2039
   31SAPC   H8X 4196   2.658   5.354   7.303  0.1353 -0.1931  0.6361
   31SAPC   H8Y 4197   2.516   5.433   7.371  0.6256 -1.3416 -1.9971
   31SAPC   C39 4198   2.685   5.444   7.501  0.7158  0.2030 -0.2100
   31SAPC   H9X 4199   2.792   5.475   7.502  1.1721 -0.9863 -3.0131
   31SAPC   H9Y 4200   2.696   5.344   7.549 -1.5430  0.4014  0.8474
   31SAPC  C310 4201   2.603   5.536   7.592 -0.0703  0.1081 -0.5148
   31SAPC  H10X 4202   2.494   5.521   7.572  0.1190 -0.6777 -0.9808
   31SAPC  H10Y 4203   2.632   5.641   7.569 -0.5391  0.4396  0.3688
   31SAPC  C311 4204   2.628   5.506   7.740 -0.4793 -0.3872 -0.3105
   31SAPC  H11X 4205   2.735   5.517   7.766 -0.1197 -4.1022  0.3821
   31SAPC  H11Y 4206   2.611   5.399   7.763  0.6170 -0.7587 -1.1275
   31SAPC  C312 4207   2.532   5.582   7.836  0.2463  0.3057  0.1828
   31SAPC  H12X 4208   2.440   5.520   7.823  0.4706 -0.2191  0.9848
   31SAPC  H12Y 4209   2.518   5.688   7.810  0.3412  0.1610 -0.4704
   31SAPC  C313 4210   2.578   5.549   7.978  0.0354  0.7194 -0.5109
   31SAPC  H13X 4211   2.677   5.597   7.994 -0.2591  1.0574  0.3545
   31SAPC  H13Y 4212   2.600   5.441   7.993  2.9976  1.4632  1.3022
   31SAPC  C314 4213   2.506   5.603   8.097  0.6700 -0.7869 -0.2064
   31SAPC  H14X 4214   2.531   5.552   8.193  1.0420 -1.3072 -0.5733
   31SAPC  H14Y 4215   2.399   5.583   8.078 -0.0348  0.0764  2.4880
   31SAPC  C315 4216   2.536   5.750   8.108 -0.6369 -0.2976 -0.5398
   31SAPC  H15X 4217   2.518   5.800   8.010 -1.3677 -0.2432 -0.3876
   31SAPC  H15Y 4218   2.641   5.774   8.135 -0.9725  1.7224 -0.8921
   31SAPC  C316 4219   2.461   5.827   8.217  0.6886  0.1586 -0.2869
   31SAPC  H16X 4220   2.486   5.788   8.318  2.3791  0.6859 -0.4636
   31SAPC  H16Y 4221   2.354   5.806   8.198  1.3754 -3.0352 -1.3243
   31SAPC  C317 4222   2.482   5.977   8.215  0.0327  0.0060  0.2071
   31SAPC  H17X 4223   2.458   6.019   8.115 -0.3179  0.1617  0.3577
   31SAPC  H17Y 4224   2.586   6.006   8.241 -0.5161 -0.0938  2.7572
   31SAPC  C318 4225   2.401   6.039   8.325 -0.3610 -0.6699  0.4821
   31SAPC  H18X 4226   2.433   6.016   8.429 -1.4493  3.3262  1.8527
   31SAPC  H18Y 4227   2.294   6.010   8.314 -0.2841 -0.1078 -2.9607
   31SAPC  H18Z 4228   2.397   6.149   8.319 -0.5663 -0.7337 -0.7215
   32SAPC     N 4229   3.407   4.376   6.085 -0.1718 -0.1882  0.4563
   32SAPC   C12 4230   3.450   4.508   6.146 -0.9195 -0.1723  0.4952
   32SAPC  H12A 4231   3.508   4.488   6.234  0.1852  2.3181  0.4152
   32SAPC  H12B 4232   3.366   4.573   6.166  0.5576  2.2785 -0.7677
   32SAPC   C13 4233   3.304   4.407   5.987 -0.2249 -0.1643  0.1833
   32SAPC  H13A 4234   3.214   4.446   6.032  0.0191 -0.4524  0.9353
   32SAPC  H13B 4235   3.340   4.471   5.908 -0.5725 -0.5439 -0.2909
   32SAPC  H13C 4236   3.267   4.314   5.945  1.5951 -1.5306  1.4404
   32SAPC   C14 4237   3.520   4.305   6.021  0.0147  0.1676  0.5912
   32SAPC  H14A 4238   3.593   4.284   6.097 -0.6876  0.8269  1.4757
   32SAPC  H14B 4239   3.495   4.213   5.969 -1.1222 -0.3309  1.9457
   32SAPC  H14C 4240   3.578   4.375   5.962  0.9254 -1.0792 -0.0381
   32SAPC   C15 4241   3.361   4.286   6.192  0.3625 -0.4253 -0.2188
   32SAPC  H15A 4242   3.316   4.196   6.153  0.5083 -0.8800  0.6415
   32SAPC  H15B 4243   3.436   4.258   6.264 -0.9080  1.0845  1.8249
   32SAPC  H15C 4244   3.286   4.330   6.257  1.3416 -0.3812  0.9034
   32SAPC   C11 4245   3.552   4.586   6.049  0.1406  0.0327  0.1408
   32SAPC  H11A 4246   3.563   4.692   6.080 -1.0325  0.1014  0.3798
   32SAPC  H11B 4247   3.507   4.594   5.948  0.7666  0.6587 -0.0960
   32SAPC     P 4248   3.793   4.573   6.130  0.0019 -0.0610  0.1836
   32SAPC   O13 4249   3.912   4.494   6.096  0.6275 -0.3629 -0.1674
   32SAPC   O14 4250   3.799   4.725   6.109  0.6566  1.1272  0.0679
   32SAPC   O12 4251   3.679   4.519   6.032  0.4132 -0.2603  0.0148
   32SAPC   O11 4252   3.744   4.541   6.273  0.3952  0.1592 -0.0060
   32SAPC    C1 4253   3.761   4.403   6.312 -0.4738  0.0403  0.8473
   32SAPC    HA 4254   3.694   4.335   6.255 -0.9952 -0.5531  2.1208
   32SAPC    HB 4255   3.867   4.369   6.305 -0.6712 -0.5203  0.5307
   32SAPC    C2 4256   3.731   4.387   6.460 -0.6094 -0.2826 -0.2895
   32SAPC    HS 4257   3.744   4.281   6.488  1.4645 -0.5088 -1.9031
   32SAPC   O21 4258   3.602   4.443   6.484 -0.5696  0.3086  0.1199
   32SAPC   C21 4259   3.548   4.397   6.590 -0.0704  0.1052  0.1009
   32SAPC   O22 4260   3.580   4.296   6.648  0.3024  0.3589 -0.4782
   32SAPC   C22 4261   3.431   4.479   6.643 -0.6792  0.0320  0.7214
   32SAPC   H2R 4262   3.389   4.557   6.577 -0.3604  0.1334  0.6349
   32SAPC   H2S 4263   3.354   4.399   6.652  1.2491 -2.1974 -1.0270
   32SAPC    C3 4264   3.848   4.471   6.540  0.2200  0.1473 -0.2819
   32SAPC    HX 4265   3.832   4.575   6.504 -0.4923 -0.7023 -2.6213
   32SAPC    HY 4266   3.937   4.422   6.495 -0.6807 -0.6744 -1.2012
   32SAPC   O31 4267   3.837   4.459   6.686 -0.0531  0.3317  0.0750
   32SAPC   C31 4268   3.904   4.356   6.745 -0.4125  0.3237 -0.7982
   32SAPC   O32 4269   3.970   4.278   6.684 -0.1353 -0.3334 -0.1327
   32SAPC   C32 4270   3.868   4.343   6.896 -0.2381 -0.5161 -0.5737
   32SAPC   H2X 4271   3.767   4.296   6.898  0.7602 -2.8407 -1.3419
   32SAPC   H2Y 4272   3.869   4.448   6.934  4.9253 -0.1497 -1.0100
   32SAPC   C23 4273   3.461   4.546   6.783 -0.4982 -0.3091 -0.7525
   32SAPC   H3R 4274   3.545   4.617   6.764  0.1409 -0.5369  1.0710
   32SAPC   H3S 4275   3.504   4.471   6.852  1.3131 -1.1571 -2.6662
   32SAPC   C24 4276   3.354   4.634   6.830  0.9906  0.5472  0.1471
   32SAPC   H4R 4277   3.331   4.715   6.758  2.0996  1.4666  0.7964
   32SAPC   H4S 4278   3.392   4.693   6.916  1.7486  0.5798 -0.2037
   32SAPC   C25 4279   3.218   4.565   6.876 -1.1324 -0.8474  0.1541
   32SAPC   H5R 4280   3.169   4.536   6.782  1.5376  0.3332 -1.7194
   32SAPC   C26 4281   3.180   4.541   7.001  0.1449 -0.9347 -0.0914
   32SAPC   H6R 4282   3.085   4.491   7.025  0.1712 -0.5074  0.9162
   32SAPC   C27 4283   3.255   4.573   7.125 -0.1561  0.1552 -0.3788
   32SAPC   H7R 4284   3.363   4.595   7.110 -0.5777  1.5687 -1.6430
   32SAPC   H7S 4285   3.245   4.493   7.201  0.0429  0.8428  0.3795
   32SAPC   C28 4286   3.211   4.701   7.186  0.0551  0.3561 -0.4201
   32SAPC   H8R 4287   3.205   4.784   7.115 -3.9641  0.4132 -0.2345
   32SAPC   C29 4288   3.168   4.721   7.310  0.5738  0.2503 -0.1191
   32SAPC   H9R 4289   3.163   4.824   7.350  1.0116 -0.5788  2.2614
   32SAPC  C210 4290   3.146   4.621   7.419 -0.3118  0.3210 -0.0638
   32SAPC  H10R 4291   3.142   4.520   7.372 -1.3877  0.8533 -1.1829
   32SAPC  H10S 4292   3.043   4.632   7.460 -0.3061  1.1253 -0.2457
   32SAPC  C211 4293   3.250   4.623   7.525  0.3203  0.4798 -0.6385
   32SAPC  H11R 4294   3.346   4.574   7.504  0.0523 -1.0481  1.4007
   32SAPC  C212 4295   3.237   4.666   7.651  0.0712  0.1739  0.3199
   32SAPC  H12R 4296   3.326   4.643   7.711 -0.7016  1.5988  2.1432
   32SAPC  C213 4297   3.123   4.741   7.721  1.1348  0.3159 -0.1276
   32SAPC  H13R 4298   3.074   4.667   7.787 -0.6316  0.9656 -0.6298
   32SAPC  H13S 4299   3.034   4.759   7.656  0.2033 -1.6455  0.5221
   32SAPC  C214 4300   3.149   4.866   7.798  0.0806 -0.0573  0.4852
   32SAPC  H14R 4301   3.125   4.956   7.740  0.4842 -1.8008 -2.6055
   32SAPC  C215 4302   3.213   4.878   7.916  0.4434  0.0318  0.7414
   32SAPC  H15R 4303   3.247   4.974   7.958 -1.2806 -0.0497  2.4527
   32SAPC  C216 4304   3.252   4.757   8.002  0.1134 -0.4748 -0.0858
   32SAPC  H16R 4305   3.313   4.692   7.937  0.0715  0.0220 -0.6390
   32SAPC  H16S 4306   3.156   4.702   8.014 -0.0926  0.2044  1.8529
   32SAPC  C217 4307   3.315   4.774   8.140  1.0374  0.3411  0.8497
   32SAPC  H17R 4308   3.394   4.852   8.138  0.5476  0.8345 -0.3986
   32SAPC  H17S 4309   3.365   4.679   8.167  1.4689  0.2683 -0.1467
   32SAPC  C218 4310   3.215   4.801   8.250 -0.3705  0.1167 -0.6116
   32SAPC  H18R 4311   3.154   4.709   8.261  0.5129 -0.3591  0.4601
   32SAPC  H18S 4312   3.148   4.881   8.210  1.2886  1.2375 -1.2611
   32SAPC  C219 4313   3.295   4.837   8.369 -0.1484  0.4930  0.6300
   32SAPC  H19R 4314   3.382   4.769   8.381 -0.6387  0.0019  1.5053
   32SAPC  H19S 4315   3.228   4.821   8.457 -0.7005 -0.8979 -0.0222
   32SAPC  C220 4316   3.335   4.979   8.361 -0.7514 -0.2265 -0.2369
   32SAPC  H20R 4317   3.376   5.019   8.457 -0.1810  0.3183 -0.6992
   32SAPC  H20S 4318   3.254   5.049   8.331 -0.0031  0.3093 -1.0687
   32SAPC  H20T 4319   3.413   4.994   8.283 -0.1851  0.1035  0.3776
   32SAPC   C33 4320   3.957   4.252   6.982  0.1649  0.1066 -0.0463
   32SAPC   H3X 4321   4.060   4.294   6.979 -0.6233  2.2250  0.6148
   32SAPC   H3Y 4322   3.960   4.151   6.936 -0.5518  0.1010 -0.0851
   32SAPC   C34 4323   3.913   4.229   7.128  0.3557 -0.5516  0.7786
   32SAPC   H4X 4324   3.808   4.191   7.132  0.6211 -1.3552  0.3960
   32SAPC   H4Y 4325   3.917   4.327   7.180  0.5424 -0.6231  0.9008
   32SAPC   C35 4326   4.000   4.126   7.201  0.7547 -0.0608  0.0062
   32SAPC   H5X 4327   4.103   4.165   7.210  1.1038 -1.1077  0.7980
   32SAPC   H5Y 4328   3.989   4.031   7.143 -1.5245 -0.4907  1.0309
   32SAPC   C36 4329   3.956   4.098   7.341  0.6418  0.2749 -0.0213
   32SAPC   H6X 4330   4.007   4.008   7.381  0.1040  0.2038  0.5310
   32SAPC   H6Y 4331   3.849   4.074   7.325  1.1066 -0.5357 -2.1652
   32SAPC   C37 4332   3.967   4.213   7.440  0.8508  0.1924  0.2064
   32SAPC   H7X 4333   3.897   4.298   7.427  0.9389 -0.0045 -2.0533
   32SAPC   H7Y 4334   4.072   4.249   7.436  1.1901 -0.8067 -0.8493
   32SAPC   C38 4335   3.943   4.155   7.585  0.1592  0.0248  0.8233
   32SAPC   H8X 4336   4.027   4.083   7.600 -1.3250 -2.0255 -0.1444
   32SAPC   H8Y 4337   3.847   4.100   7.595  0.7297 -0.6661  2.8881
   32SAPC   C39 4338   3.945   4.259   7.696  0.0696 -0.0471  0.6752
   32SAPC   H9X 4339   3.858   4.326   7.677  2.1844  2.4262 -1.0532
   32SAPC   H9Y 4340   4.040   4.316   7.685 -0.0759  0.4577  1.9704
   32SAPC  C310 4341   3.931   4.184   7.830 -0.0860 -0.6127  0.4344
   32SAPC  H10X 4342   3.996   4.094   7.838  0.0095 -0.4043  2.6616
   32SAPC  H10Y 4343   3.827   4.145   7.828 -0.1678 -0.4901  1.8439
   32SAPC  C311 4344   3.958   4.265   7.957 -0.6781 -0.0064 -0.3615
   32SAPC  H11X 4345   3.939   4.375   7.949  3.2468  0.9147  0.6933
   32SAPC  H11Y 4346   4.066   4.262   7.984 -1.0524 -0.1140  1.2478
   32SAPC  C312 4347   3.870   4.206   8.069  0.4365 -0.0881  1.1356
   32SAPC  H12X 4348   3.893   4.099   8.092  0.8265 -0.2681  0.0028
   32SAPC  H12Y 4349   3.768   4.206   8.025  0.7066  2.3430  0.3867
   32SAPC  C313 4350   3.854   4.289   8.188 -0.2806  0.1616 -0.9187
   32SAPC  H13X 4351   3.832   4.395   8.165  0.0012  0.2539 -0.7713
   32SAPC  H13Y 4352   3.959   4.295   8.223  0.2003  0.4897 -2.3306
   32SAPC  C314 4353   3.767   4.233   8.295 -0.5690 -0.0477  0.0425
   32SAPC  H14X 4354   3.789   4.128   8.326 -1.2997 -0.2640 -0.1419
   32SAPC  H14Y 4355   3.664   4.234   8.253 -1.0217  0.0711  1.1264
   32SAPC  C315 4356   3.773   4.325   8.419  0.3747  0.0784  0.0062
   32SAPC  H15X 4357   3.736   4.426   8.392 -3.9679 -1.6091 -1.1265
   32SAPC  H15Y 4358   3.882   4.326   8.439  0.3390 -1.6072  0.4546
   32SAPC  C316 4359   3.703   4.265   8.539  0.7047 -0.5920  0.5320
   32SAPC  H16X 4360   3.738   4.161   8.550 -0.1680 -0.8729  0.7846
   32SAPC  H16Y 4361   3.594   4.261   8.515  0.3761 -0.2326  1.8910
   32SAPC  C317 4362   3.735   4.341   8.672 -0.9929  0.5184 -0.5551
   32SAPC  H17X 4363   3.845   4.357   8.666 -0.8722 -0.6035 -2.4448
   32SAPC  H17Y 4364   3.714   4.272   8.757  4.9990  0.2010  1.0964
   32SAPC  C318 4365   3.658   4.475   8.676 -0.7022  0.3493  1.1046
   32SAPC  H18X 4366   3.672   4.521   8.776 -0.1404  0.8588  0.8011
   32SAPC  H18Y 4367   3.549   4.461   8.658 -0.3557 -1.6746  0.3374
   32SAPC  H18Z 4368   3.701   4.533   8.591 -1.9043  0.2820  0.4185
   33POPC     N 4369   3.486   5.134  10.645 -0.3448  0.1410  0.1762
   33POPC   C12 4370   3.495   5.052  10.512  0.1618 -0.5540 -0.4027
   33POPC  H12A 4371   3.529   5.133  10.450  0.5134  1.5228  2.3280
   33POPC  H12B 4372   3.398   5.031  10.470 -0.4785  3.7707 -1.5802
   33POPC   C13 4373   3.441   5.272  10.596  0.0629  0.0810 -1.2708
   33POPC  H13A 4374   3.350   5.260  10.539 -0.9927 -1.1089  0.5694
   33POPC  H13B 4375   3.412   5.338  10.676  0.6650 -0.8936 -0.2226
   33POPC  H13C 4376   3.522   5.321  10.543 -0.1553 -1.8841 -3.5895
   33POPC   C14 4377   3.377   5.083  10.740  0.0537  0.1658 -0.5445
   33POPC  H14A 4378   3.387   5.148  10.826 -0.8881 -1.7702  1.1000
   33POPC  H14B 4379   3.283   5.079  10.687  0.7287 -1.0531 -1.6985
   33POPC  H14C 4380   3.403   4.984  10.773 -1.0860 -0.7328 -2.1949
   33POPC   C15 4381   3.617   5.148  10.709 -0.3346  0.0887 -0.5543
   33POPC  H15A 4382   3.682   5.211  10.649  1.7142  0.5559  1.9775
   33POPC  H15B 4383   3.665   5.052  10.723  1.2527  0.5910 -2.1251
   33POPC  H15C 4384   3.617   5.196  10.805 -1.6183  1.8807 -1.4017
   33POPC   C11 4385   3.591   4.928  10.502 -0.1295 -0.1929  1.1247
   33POPC  H11A 4386   3.697   4.964  10.499  0.0692 -0.7708  1.1285
   33POPC  H11B 4387   3.591   4.874  10.405  2.4301 -1.0958  1.5404
   33POPC     P 4388   3.461   4.750  10.626  0.1282 -0.0756 -0.1800
   33POPC   O13 4389   3.423   4.763  10.768  0.0830 -0.1725  0.0131
   33POPC   O14 4390   3.482   4.616  10.570 -0.2872 -0.3425 -0.1946
   33POPC   O12 4391   3.585   4.846  10.619  0.1250  0.2149 -0.0001
   33POPC   O11 4392   3.347   4.823  10.550  0.6129  0.4317  0.2208
   33POPC    C1 4393   3.219   4.781  10.543  0.0078  0.2867  0.1469
   33POPC    HA 4394   3.216   4.671  10.525 -1.8281  0.4133 -0.6156
   33POPC    HB 4395   3.169   4.795  10.641 -0.3209  0.8619 -0.0976
   33POPC    C2 4396   3.142   4.855  10.431 -0.0613 -0.7682  0.5100
   33POPC    HS 4397   3.039   4.813  10.427 -0.2435 -0.2304 -1.2718
   33POPC   O21 4398   3.214   4.842  10.304 -0.2338 -0.3922  0.3096
   33POPC   C21 4399   3.230   4.721  10.267  0.5373 -0.0143 -0.7459
   33POPC   O22 4400   3.168   4.624  10.304 -0.2780 -0.4989 -0.3387
   33POPC   C22 4401   3.349   4.725  10.171  0.0940  0.4672 -0.3338
   33POPC   H2R 4402   3.437   4.702  10.235 -0.1226  1.3689  0.3008
   33POPC   H2S 4403   3.366   4.829  10.138  0.3175  0.4425 -0.2986
   33POPC    C3 4404   3.113   5.007  10.452  0.0808 -0.4079  0.2624
   33POPC    HX 4405   3.199   5.050  10.508  0.2038 -0.8859  0.4383
   33POPC    HY 4406   3.029   5.026  10.522 -0.0664 -1.6081  0.4327
   33POPC   O31 4407   3.093   5.080  10.330 -0.2940  0.2995  0.1692
   33POPC   C31 4408   3.194   5.157  10.282  0.2728 -0.1982  0.0440
   33POPC   O32 4409   3.295   5.176  10.346 -0.3304 -0.5052 -0.3259
   33POPC   C32 4410   3.163   5.198  10.138 -0.5369  0.2030 -0.1801
   33POPC   H2X 4411   3.053   5.188  10.126 -0.6293  0.1590  0.6361
   33POPC   H2Y 4412   3.200   5.115  10.074 -1.2436  0.8541 -1.4580
   33POPC   C23 4413   3.349   4.611  10.060 -0.3515 -0.8794 -0.1283
   33POPC   H3R 4414   3.316   4.517  10.108  0.2453 -1.2260 -0.3877
   33POPC   H3S 4415   3.450   4.596  10.016  0.6304  1.7699  0.9522
   33POPC   C24 4416   3.247   4.632   9.954  0.4773 -0.0157  0.5436
   33POPC   H4R 4417   3.272   4.728   9.905  2.4021 -1.3324 -1.2641
   33POPC   H4S 4418   3.140   4.640   9.981  0.4389  1.5290  0.0178
   33POPC   C25 4419   3.251   4.519   9.839  0.3444  0.1150  0.0454
   33POPC   H5R 4420   3.198   4.430   9.879  0.5366  0.4666  1.1163
   33POPC   H5S 4421   3.357   4.488   9.824 -0.4119 -1.6529 -2.1247
   33POPC   C26 4422   3.206   4.564   9.697  0.3215  0.0351 -0.4848
   33POPC   H6R 4423   3.234   4.672   9.697  0.8062 -0.0857  0.0028
   33POPC   H6S 4424   3.095   4.571   9.691  0.1749 -1.9844 -0.7067
   33POPC   C27 4425   3.264   4.476   9.589  0.3912  0.4635 -0.5571
   33POPC   H7R 4426   3.247   4.369   9.614  0.4468  0.4945 -0.3893
   33POPC   H7S 4427   3.374   4.495   9.589  0.3788  0.5681  0.5794
   33POPC   C28 4428   3.206   4.485   9.449  0.2240 -0.2212 -0.8146
   33POPC   H8R 4429   3.204   4.593   9.423  0.4625 -0.2416 -0.9173
   33POPC   H8S 4430   3.099   4.454   9.453  0.2742 -0.2734  2.7092
   33POPC   C29 4431   3.288   4.421   9.345  0.4214  0.4651  0.3753
   33POPC   H91 4432   3.396   4.440   9.350  0.4694  0.5586 -0.7810
   33POPC  C210 4433   3.245   4.330   9.255  0.3228  0.1213 -0.0798
   33POPC  H101 4434   3.314   4.292   9.178 -0.5081  2.4106 -2.1272
   33POPC  C211 4435   3.105   4.275   9.243  1.1026  1.1502 -0.1754
   33POPC  H11R 4436   3.033   4.309   9.321 -1.5490  0.6590 -2.2723
   33POPC  H11S 4437   3.109   4.165   9.257 -0.4276  1.1446  0.4671
   33POPC  C212 4438   3.023   4.318   9.116  0.1557 -0.2940 -0.6282
   33POPC  H12R 4439   3.086   4.327   9.026  1.2228 -2.0127 -0.1067
   33POPC  H12S 4440   2.989   4.422   9.137 -1.9868 -1.3208  1.6376
   33POPC  C213 4441   2.892   4.238   9.083 -0.1886 -0.3763  0.5137
   33POPC  H13R 4442   2.825   4.255   9.170 -1.9724 -0.7328 -0.7296
   33POPC  H13S 4443   2.915   4.130   9.071 -1.3226 -0.4098 -1.9434
   33POPC  C214 4444   2.831   4.287   8.951  0.5299  0.4151 -0.0509
   33POPC  H14R 4445   2.913   4.297   8.876  0.4886 -1.0482 -0.3289
   33POPC  H14S 4446   2.784   4.385   8.970 -1.5369 -0.3144 -1.1833
   33POPC  C215 4447   2.737   4.182   8.887  0.5321 -0.1725 -0.9472
   33POPC  H15R 4448   2.642   4.182   8.945  1.5450  0.9653  0.8387
   33POPC  H15S 4449   2.782   4.080   8.891 -2.4135 -1.5269  0.2126
   33POPC  C216 4450   2.701   4.226   8.742 -0.5010 -0.9257 -0.7876
   33POPC  H16R 4451   2.789   4.197   8.681  1.1774  1.1533  0.5115
   33POPC  H16S 4452   2.680   4.335   8.745  1.9433 -0.4237 -0.0772
   33POPC  C217 4453   2.580   4.160   8.686  0.5569  0.2489  0.7860
   33POPC  H17R 4454   2.575   4.188   8.578 -0.0062  0.7678  0.9411
   33POPC  H17S 4455   2.486   4.201   8.729  0.9253  2.4790 -0.3783
   33POPC  C218 4456   2.575   4.005   8.690  0.1206  0.6504 -0.1322
   33POPC  H18R 4457   2.674   3.957   8.682 -0.4708 -0.9523  1.3403
   33POPC  H18S 4458   2.511   3.972   8.605  0.5972  0.2943 -0.3523
   33POPC  H18T 4459   2.530   3.970   8.786 -1.4715 -0.6554 -1.2905
   33POPC   C33 4460   3.215   5.335  10.100 -0.2308 -0.4751 -0.5212
   33POPC   H3X 4461   3.325   5.333  10.114  0.2152  1.5129 -3.0513
   33POPC   H3Y 4462   3.175   5.410  10.172  1.2949  1.3767 -1.5284
   33POPC   C34 4463   3.193   5.374   9.955  0.5293  0.1737  1.2475
   33POPC   H4X 4464   3.272   5.320   9.897 -0.1867  0.9393 -0.4982
   33POPC   H4Y 4465   3.209   5.483   9.939  0.3742 -0.1318 -1.4828
   33POPC   C35 4466   3.057   5.334   9.898  0.4185 -0.6339  0.9053
   33POPC   H5X 4467   2.986   5.371   9.974 -0.8683 -0.4955 -0.3326
   33POPC   H5Y 4468   3.040   5.226   9.879  2.5337 -0.8271 -0.3053
   33POPC   C36 4469   3.037   5.404   9.752 -0.4554  0.2094 -0.6117
   33POPC   H6X 4470   3.058   5.513   9.754  2.4994 -0.2812  0.5264
   33POPC   H6Y 4471   2.932   5.392   9.719  0.1984 -0.3126 -2.6526
   33POPC   C37 4472   3.121   5.332   9.655 -0.3446  0.9411 -0.4172
   33POPC   H7X 4473   3.103   5.222   9.647 -1.9881  1.1644 -0.1164
   33POPC   H7Y 4474   3.228   5.344   9.684 -0.8219  2.1052  0.9638
   33POPC   C38 4475   3.107   5.402   9.522  0.1195  0.5422  0.5289
   33POPC   H8X 4476   3.186   5.382   9.447 -0.8149  0.6369 -0.5002
   33POPC   H8Y 4477   3.128   5.509   9.548  4.2065 -0.6235  3.0121
   33POPC   C39 4478   2.969   5.375   9.459 -0.2836 -0.2827 -0.3666
   33POPC   H9X 4479   2.902   5.436   9.524  0.6798  1.3295 -0.8357
   33POPC   H9Y 4480   2.954   5.265   9.457 -1.6515 -0.1212 -0.1516
   33POPC  C310 4481   2.949   5.437   9.317 -0.2427  0.0909  0.5493
   33POPC  H10X 4482   2.996   5.537   9.312 -0.5587  0.3185  1.7417
   33POPC  H10Y 4483   2.843   5.461   9.292  0.1281  0.0941 -1.1730
   33POPC  C311 4484   3.014   5.349   9.209 -0.3014 -0.4122  0.1958
   33POPC  H11X 4485   2.942   5.266   9.188 -2.2329  1.6365 -1.8770
   33POPC  H11Y 4486   3.112   5.308   9.242 -0.3553 -1.5107 -0.9504
   33POPC  C312 4487   3.025   5.408   9.073  0.4494 -0.6659  0.1768
   33POPC  H12X 4488   3.104   5.485   9.078  0.2770 -0.4778  0.0124
   33POPC  H12Y 4489   2.930   5.456   9.039  1.1769  1.4637  1.0000
   33POPC  C313 4490   3.066   5.301   8.971  0.0352 -0.0528 -0.4796
   33POPC  H13X 4491   2.983   5.231   8.947 -0.1517 -0.6356  1.6536
   33POPC  H13Y 4492   3.143   5.238   9.021  0.1048 -0.3924 -1.0027
   33POPC  C314 4493   3.123   5.361   8.845  0.1433 -0.7993 -0.0927
   33POPC  H14X 4494   3.208   5.429   8.866  0.3764 -0.5948 -1.5615
   33POPC  H14Y 4495   3.036   5.421   8.809  1.8289  1.0858 -1.2432
   33POPC  C315 4496   3.173   5.252   8.754  0.1357 -0.1669 -0.4020
   33POPC  H15X 4497   3.092   5.176   8.748 -0.6570  0.5078  1.0982
   33POPC  H15Y 4498   3.261   5.201   8.800  0.5272  2.4587  2.0681
   33POPC  C316 4499   3.215   5.293   8.614  0.8375  0.0194 -0.5911
   33POPC  H16X 4500   3.230   5.205   8.549 -1.7844  0.8910 -2.5853
   33POPC  H16Y 4501   3.300   5.365   8.611 -0.1586  1.2630 -0.0953
   33POPC  H16Z 4502   3.135   5.358   8.571 -0.5543 -1.7015 -0.6991
   34POPC     N 4503   2.877   5.838  11.122  0.1261  0.1650 -0.0653
   34POPC   C12 4504   2.815   5.825  10.983 -0.7300  0.0222  0.1526
   34POPC  H12A 4505   2.730   5.762  11.004 -1.9618  1.6444  0.1862
   34POPC  H12B 4506   2.879   5.767  10.918  0.6020  1.3508  0.2377
   34POPC   C13 4507   2.788   5.933  11.197 -0.1058 -0.0110 -0.0988
   34POPC  H13A 4508   2.703   5.877  11.231  0.1771 -0.8596 -0.7605
   34POPC  H13B 4509   2.836   5.964  11.289  0.2282  1.5306 -0.7520
   34POPC  H13C 4510   2.756   6.020  11.142 -2.6345 -0.4778  0.5317
   34POPC   C14 4511   2.889   5.707  11.195 -0.3137 -0.2039 -0.4656
   34POPC  H14A 4512   2.927   5.619  11.144  1.3560 -0.7035  1.4764
   34POPC  H14B 4513   2.958   5.722  11.277  0.7858 -3.5299 -0.6079
   34POPC  H14C 4514   2.795   5.688  11.244 -0.2514  0.5116 -0.0491
   34POPC   C15 4515   3.017   5.892  11.107  0.0774 -1.3336  0.7613
   34POPC  H15A 4516   3.055   5.927  11.202 -0.5618  1.1068  0.1832
   34POPC  H15B 4517   3.012   5.982  11.048 -1.5616 -0.5501  2.0070
   34POPC  H15C 4518   3.090   5.826  11.062  1.2464  1.1383 -1.2310
   34POPC   C11 4519   2.772   5.951  10.902 -0.6130 -0.0693  0.3344
   34POPC  H11A 4520   2.747   5.936  10.795  1.5111  3.8051 -0.8984
   34POPC  H11B 4521   2.862   6.016  10.902 -0.2255 -0.5981  0.0832
   34POPC     P 4522   2.515   5.977  10.962 -0.1427 -0.3402 -0.3075
   34POPC   O13 4523   2.424   6.095  10.994 -0.4119  0.1529 -0.7695
   34POPC   O14 4524   2.490   5.854  11.043  0.1554 -0.0548  0.4519
   34POPC   O12 4525   2.664   6.028  10.956  0.1779 -0.2178 -0.1358
   34POPC   O11 4526   2.503   5.948  10.811  0.2592 -0.1165 -0.2634
   34POPC    C1 4527   2.379   5.936  10.737  0.4094 -0.5546  0.3387
   34POPC    HA 4528   2.371   5.994  10.643 -2.4250 -2.1665 -0.5089
   34POPC    HB 4529   2.292   5.943  10.805 -0.2782  1.5751 -0.6679
   34POPC    C2 4530   2.367   5.790  10.681 -0.4621 -0.4677  1.1856
   34POPC    HS 4531   2.373   5.732  10.776  0.6318 -1.2482  0.6608
   34POPC   O21 4532   2.481   5.762  10.597 -0.1504 -0.3396  0.1505
   34POPC   C21 4533   2.551   5.650  10.625  0.4542  0.1684 -0.0603
   34POPC   O22 4534   2.533   5.586  10.729  0.7867 -0.4655  0.0522
   34POPC   C22 4535   2.652   5.615  10.513  0.0206 -0.0707  0.6114
   34POPC   H2R 4536   2.615   5.524  10.460  0.1718  1.0333 -1.5067
   34POPC   H2S 4537   2.752   5.592  10.556  0.8562  0.8922 -0.7147
   34POPC    C3 4538   2.232   5.779  10.614 -0.4301  0.7322 -0.0919
   34POPC    HX 4539   2.149   5.812  10.680 -0.5102  0.2819  0.0338
   34POPC    HY 4540   2.220   5.669  10.602  0.4276  0.3062  2.4472
   34POPC   O31 4541   2.224   5.846  10.483 -0.9199  0.3829  0.2871
   34POPC   C31 4542   2.273   5.785  10.373 -0.1773 -0.1413  0.2982
   34POPC   O32 4543   2.312   5.669  10.356  0.0985 -0.1674  0.2387
   34POPC   C32 4544   2.295   5.895  10.263 -0.2327 -0.3201 -0.1461
   34POPC   H2X 4545   2.401   5.880  10.233 -0.2306 -1.8608  0.5366
   34POPC   H2Y 4546   2.263   5.989  10.313  0.5950 -0.8714  1.5084
   34POPC   C23 4547   2.671   5.725  10.410 -0.5718  0.5369 -0.1477
   34POPC   H3R 4548   2.728   5.804  10.462 -0.0462 -0.0857  0.2383
   34POPC   H3S 4549   2.568   5.762  10.387 -0.5619  0.5303 -0.2022
   34POPC   C24 4550   2.748   5.678  10.285 -0.3103 -0.6327 -0.1035
   34POPC   H4R 4551   2.831   5.613  10.320 -0.7833 -0.5000  1.3245
   34POPC   H4S 4552   2.782   5.775  10.243 -3.3408  0.5632 -0.0820
   34POPC   C25 4553   2.670   5.605  10.177  0.3734  0.0464 -1.1163
   34POPC   H5R 4554   2.569   5.649  10.164  0.5909  0.8894 -0.0565
   34POPC   H5S 4555   2.650   5.504  10.218 -0.0551  1.4119  2.4131
   34POPC   C26 4556   2.752   5.601  10.043  0.4955 -0.0977 -0.6238
   34POPC   H6R 4557   2.841   5.545  10.080 -0.5913 -1.8332 -0.5159
   34POPC   H6S 4558   2.789   5.701  10.013  1.3462  0.3789  1.7292
   34POPC   C27 4559   2.687   5.528   9.927  0.0709  0.1633 -0.3753
   34POPC   H7R 4560   2.655   5.439   9.986 -0.5211  1.3566  1.1772
   34POPC   H7S 4561   2.759   5.495   9.849 -0.1738 -2.6059  0.4685
   34POPC   C28 4562   2.562   5.601   9.866 -1.0731  0.3585  0.3220
   34POPC   H8R 4563   2.495   5.609   9.955 -2.0346 -1.8186 -0.1568
   34POPC   H8S 4564   2.514   5.541   9.786  0.5264  0.5511 -0.8277
   34POPC   C29 4565   2.598   5.739   9.810  0.6634  0.5532 -0.3750
   34POPC   H91 4566   2.594   5.819   9.884  2.4238 -0.0278  0.3945
   34POPC  C210 4567   2.594   5.786   9.686 -0.8130  0.2647 -0.0862
   34POPC  H101 4568   2.639   5.886   9.674 -0.5050  0.1720  0.2532
   34POPC  C211 4569   2.561   5.715   9.560  0.3146  0.1399  0.9048
   34POPC  H11R 4570   2.499   5.624   9.580 -1.1951  0.2770 -2.5110
   34POPC  H11S 4571   2.651   5.687   9.501  0.3896 -1.9833  1.9116
   34POPC  C212 4572   2.489   5.802   9.455 -0.2055  0.7252  0.1285
   34POPC  H12R 4573   2.480   5.742   9.362 -3.6912 -0.9311  1.3479
   34POPC  H12S 4574   2.548   5.895   9.442  0.2872  0.2254 -1.4807
   34POPC  C213 4575   2.345   5.830   9.486  0.4940 -0.0479 -0.1225
   34POPC  H13R 4576   2.323   5.893   9.575 -0.8507 -1.7379  0.7867
   34POPC  H13S 4577   2.299   5.733   9.511 -3.0349  1.3186 -0.7575
   34POPC  C214 4578   2.270   5.889   9.364 -0.1426 -0.1494  0.3302
   34POPC  H14R 4579   2.309   5.831   9.277  2.5493 -0.7069  1.7905
   34POPC  H14S 4580   2.299   5.990   9.327  0.1782 -1.5238 -3.6359
   34POPC  C215 4581   2.121   5.876   9.359  0.3906  0.1822  0.0752
   34POPC  H15R 4582   2.057   5.966   9.344 -1.0772 -1.1988 -2.8450
   34POPC  H15S 4583   2.101   5.838   9.461  0.3488 -0.5139 -0.1843
   34POPC  C216 4584   2.068   5.779   9.247 -0.4148 -0.0061 -0.7282
   34POPC  H16R 4585   1.960   5.765   9.270 -0.1343  1.3462  1.8408
   34POPC  H16S 4586   2.134   5.690   9.247  1.0521  1.0373 -1.5978
   34POPC  C217 4587   2.063   5.841   9.100  0.0431  0.4735 -0.0860
   34POPC  H17R 4588   2.008   5.765   9.040  1.5520  0.2908 -1.2884
   34POPC  H17S 4589   2.165   5.855   9.060 -0.0146  1.3118  0.0407
   34POPC  C218 4590   1.981   5.973   9.087  0.5758 -0.1553 -0.7080
   34POPC  H18R 4591   2.022   6.056   9.149  0.2720 -0.5693  0.0595
   34POPC  H18S 4592   1.877   5.957   9.121 -0.1774 -0.6884 -3.1157
   34POPC  H18T 4593   1.965   6.005   8.982 -1.7652  1.0536 -0.0415
   34POPC   C33 4594   2.204   5.869  10.147  0.2531 -0.4257 -0.5006
   34POPC   H3X 4595   2.181   5.968  10.102  3.2517 -0.2883 -2.0089
   34POPC   H3Y 4596   2.110   5.829  10.190  1.8796 -2.7161  1.2133
   34POPC   C34 4597   2.259   5.764  10.048  0.4872 -0.9292 -0.7530
   34POPC   H4X 4598   2.226   5.666  10.089 -1.4579  0.0200  0.0709
   34POPC   H4Y 4599   2.370   5.759  10.058  0.4559 -2.0845 -0.9015
   34POPC   C35 4600   2.219   5.781   9.894 -0.1199 -0.1233 -0.4039
   34POPC   H5X 4601   2.274   5.702   9.838  1.9241 -0.1001  1.4116
   34POPC   H5Y 4602   2.257   5.881   9.866 -2.6982  1.3722  1.0510
   34POPC   C36 4603   2.064   5.786   9.876 -0.2477  0.5901  0.0508
   34POPC   H6X 4604   2.030   5.876   9.932 -2.5654 -0.2388  0.0743
   34POPC   H6Y 4605   2.000   5.705   9.918 -0.7147  0.0450 -1.6235
   34POPC   C37 4606   2.009   5.788   9.734 -0.6037 -0.0712 -0.8722
   34POPC   H7X 4607   2.038   5.697   9.678  0.1978 -0.9575  0.9002
   34POPC   H7Y 4608   2.046   5.873   9.672  2.0407 -2.0856 -2.2583
   34POPC   C38 4609   1.854   5.776   9.732 -0.0747 -0.5188  0.4033
   34POPC   H8X 4610   1.808   5.845   9.806  1.1673  0.5659  0.1908
   34POPC   H8Y 4611   1.819   5.675   9.764  1.3026 -1.6357 -1.4273
   34POPC   C39 4612   1.805   5.800   9.594 -0.2991 -0.3141 -0.0113
   34POPC   H9X 4613   1.701   5.762   9.589 -0.0734 -0.7885 -2.0599
   34POPC   H9Y 4614   1.877   5.761   9.519  0.4547  0.0916  0.4870
   34POPC  C310 4615   1.799   5.949   9.554 -0.0564  0.3382 -1.1359
   34POPC  H10X 4616   1.901   5.991   9.536 -0.0922  0.9905  0.0661
   34POPC  H10Y 4617   1.773   6.019   9.636  1.5109  1.9556 -1.9494
   34POPC  C311 4618   1.710   5.978   9.436 -0.8159  0.6987  0.7505
   34POPC  H11X 4619   1.605   5.944   9.449 -1.2791  0.8353 -2.0474
   34POPC  H11Y 4620   1.754   5.928   9.347  0.6821  0.4586  1.5977
   34POPC  C312 4621   1.714   6.135   9.403 -0.0164  0.2998 -0.1132
   34POPC  H12X 4622   1.818   6.173   9.391  0.1172  0.4348  1.3534
   34POPC  H12Y 4623   1.666   6.190   9.487 -0.0302  3.4422 -1.9971
   34POPC  C313 4624   1.657   6.174   9.264  0.0835  0.1886  0.4043
   34POPC  H13X 4625   1.698   6.095   9.197  0.4363 -1.7169  2.7546
   34POPC  H13Y 4626   1.677   6.278   9.228 -2.9195  0.2754 -1.3057
   34POPC  C314 4627   1.504   6.171   9.266  0.0478 -0.5561  0.1454
   34POPC  H14X 4628   1.478   6.251   9.338 -0.4450 -1.0343  0.5062
   34POPC  H14Y 4629   1.460   6.075   9.302 -3.0474  0.2868 -1.0293
   34POPC  C315 4630   1.434   6.204   9.134 -0.0761 -0.1172  0.5519
   34POPC  H15X 4631   1.469   6.145   9.047 -0.6610 -1.5182  1.2348
   34POPC  H15Y 4632   1.460   6.307   9.102 -2.1655 -0.7915 -4.2907
   34POPC  C316 4633   1.282   6.195   9.152  0.1919  0.1165  0.9712
   34POPC  H16X 4634   1.243   6.266   9.077  1.1600 -0.4130 -0.0657
   34POPC  H16Y 4635   1.262   6.241   9.251  2.8891 -0.0071  1.6530
   34POPC  H16Z 4636   1.246   6.091   9.140  2.4280 -0.4594 -1.7177
   35POPC     N 4637   2.293   4.707  11.150  0.7942  0.7033 -0.0652
   35POPC   C12 4638   2.204   4.738  11.035  0.0373  0.6896  0.1450
   35POPC  H12A 4639   2.199   4.657  10.964  0.4799  0.8433 -0.0660
   35POPC  H12B 4640   2.238   4.829  10.988 -0.3546  0.8227  0.1189
   35POPC   C13 4641   2.247   4.580  11.220 -0.3602 -0.3750 -0.8228
   35POPC  H13A 4642   2.235   4.500  11.149 -1.5594  1.0514 -2.3285
   35POPC  H13B 4643   2.316   4.549  11.296 -1.2875  1.0009  0.6652
   35POPC  H13C 4644   2.144   4.604  11.244 -1.0128  0.2228 -3.7475
   35POPC   C14 4645   2.426   4.683  11.094 -0.0626 -0.4416 -0.1968
   35POPC  H14A 4646   2.488   4.658  11.179 -0.2138 -2.9423 -0.7442
   35POPC  H14B 4647   2.429   4.589  11.042 -0.2349 -0.0381 -0.9484
   35POPC  H14C 4648   2.471   4.764  11.038  0.5384  0.0758  0.9775
   35POPC   C15 4649   2.285   4.815  11.257 -0.4114  0.1809  0.9718
   35POPC  H15A 4650   2.184   4.846  11.278 -0.5292 -1.2132  2.6997
   35POPC  H15B 4651   2.349   4.895  11.222 -0.1945 -1.2073 -2.0772
   35POPC  H15C 4652   2.330   4.783  11.350  2.8567 -0.8842 -0.8229
   35POPC   C11 4653   2.052   4.777  11.055 -1.0600  0.2960 -0.1744
   35POPC  H11A 4654   2.008   4.790  10.953 -0.6375 -0.9879 -0.5389
   35POPC  H11B 4655   2.041   4.869  11.115 -2.9258 -0.8265  1.3349
   35POPC     P 4656   1.923   4.542  11.046 -0.1443 -0.2928 -0.2825
   35POPC   O13 4657   1.785   4.512  11.101  0.3088  0.7395  0.3380
   35POPC   O14 4658   2.024   4.434  11.062  0.2675 -0.3249 -1.0967
   35POPC   O12 4659   1.978   4.671  11.118  0.1355  0.3091  0.4923
   35POPC   O11 4660   1.904   4.577  10.890 -0.3911 -0.4200 -0.7163
   35POPC    C1 4661   1.800   4.668  10.864  0.2704 -0.3219  0.8115
   35POPC    HA 4662   1.811   4.762  10.922 -0.6871  0.8873 -0.8774
   35POPC    HB 4663   1.703   4.619  10.888 -0.6351  0.2056 -1.5112
   35POPC    C2 4664   1.780   4.677  10.708 -0.2418 -0.4271 -0.0326
   35POPC    HS 4665   1.780   4.570  10.679 -1.3093 -0.1339 -1.1860
   35POPC   O21 4666   1.892   4.739  10.652  0.4798  0.0789  0.4690
   35POPC   C21 4667   1.942   4.686  10.547 -0.6843  0.6193  0.5979
   35POPC   O22 4668   1.904   4.575  10.501  0.5215  0.0299 -0.1411
   35POPC   C22 4669   2.039   4.785  10.483  0.1980  0.1175 -0.1254
   35POPC   H2R 4670   2.110   4.802  10.567  1.1169 -2.0712 -0.3968
   35POPC   H2S 4671   1.982   4.879  10.467  0.5658  0.3339 -0.1988
   35POPC    C3 4672   1.650   4.743  10.660 -0.4424 -0.5051  0.7759
   35POPC    HX 4673   1.617   4.828  10.724 -0.1289 -1.0320  1.6631
   35POPC    HY 4674   1.560   4.680  10.676 -2.1732  0.7702 -2.8295
   35POPC   O31 4675   1.654   4.780  10.521  0.7069  0.0653 -0.6362
   35POPC   C31 4676   1.559   4.846  10.467  0.0224  0.0261 -0.4519
   35POPC   O32 4677   1.463   4.895  10.528 -0.4113  0.1267  0.5450
   35POPC   C32 4678   1.581   4.850  10.319  0.4365  0.6451  0.7823
   35POPC   H2X 4679   1.499   4.915  10.282 -2.6786 -1.6804  2.9294
   35POPC   H2Y 4680   1.580   4.747  10.277  0.3135  1.2150 -0.6553
   35POPC   C23 4681   2.106   4.718  10.362 -0.0249 -0.6587 -0.6259
   35POPC   H3R 4682   2.064   4.625  10.318 -2.6156  0.3761 -0.5170
   35POPC   H3S 4683   2.210   4.692  10.390 -0.0732 -1.6034 -1.2775
   35POPC   C24 4684   2.124   4.816  10.241  0.4477 -0.1314 -0.1727
   35POPC   H4R 4685   2.133   4.918  10.284  1.9285  0.8699 -2.6633
   35POPC   H4S 4686   2.034   4.803  10.178 -0.2413 -1.8439  1.0856
   35POPC   C25 4687   2.249   4.790  10.158  0.3280  0.6356 -0.1861
   35POPC   H5R 4688   2.267   4.680  10.151  2.6444  0.9970 -0.7885
   35POPC   H5S 4689   2.339   4.823  10.215  2.2860  1.0945 -3.2786
   35POPC   C26 4690   2.243   4.853  10.020 -0.1310  0.2047  0.0703
   35POPC   H6R 4691   2.349   4.862   9.985  0.1172 -0.1711  0.7120
   35POPC   H6S 4692   2.208   4.959  10.017 -1.9768 -0.3647  0.5414
   35POPC   C27 4693   2.172   4.774   9.898  0.2722 -0.4818 -0.4718
   35POPC   H7R 4694   2.062   4.791   9.900  0.4086  0.4679 -0.7523
   35POPC   H7S 4695   2.190   4.666   9.920  1.1548 -0.4264 -0.8952
   35POPC   C28 4696   2.253   4.795   9.767  0.1670  0.7784  0.0969
   35POPC   H8R 4697   2.214   4.715   9.700 -1.4824  1.0809  0.6519
   35POPC   H8S 4698   2.363   4.785   9.779  0.1333 -0.1307 -0.2428
   35POPC   C29 4699   2.219   4.920   9.695  0.5833  0.5868 -0.4484
   35POPC   H91 4700   2.180   5.008   9.749 -1.6721 -0.6473  0.0539
   35POPC  C210 4701   2.223   4.931   9.558  0.7922 -0.7707  0.1898
   35POPC  H101 4702   2.198   5.027   9.510 -4.1514 -1.7968  0.2119
   35POPC  C211 4703   2.262   4.832   9.444  0.4519 -0.4251 -0.3887
   35POPC  H11R 4704   2.254   4.724   9.468 -3.0697 -0.3136 -0.5207
   35POPC  H11S 4705   2.371   4.841   9.421  0.6237 -1.4316 -0.0093
   35POPC  C212 4706   2.174   4.847   9.319 -0.4424  1.1133 -0.2760
   35POPC  H12R 4707   2.065   4.861   9.332 -1.1480 -0.6946 -3.3221
   35POPC  H12S 4708   2.187   4.761   9.251 -1.9787  0.2040  0.5303
   35POPC  C213 4709   2.232   4.954   9.229  0.3048 -0.5016  0.6549
   35POPC  H13R 4710   2.343   4.956   9.237  0.2305  0.4086  1.6715
   35POPC  H13S 4711   2.198   5.049   9.277 -1.2242 -1.6291  1.8964
   35POPC  C214 4712   2.193   4.947   9.078 -0.4114 -0.5153 -0.0741
   35POPC  H14R 4713   2.087   4.976   9.061 -0.5265  1.6447  3.3806
   35POPC  H14S 4714   2.213   4.845   9.040 -0.6558 -0.4512 -0.3729
   35POPC  C215 4715   2.299   5.041   9.004  0.7037 -0.4247 -0.1059
   35POPC  H15R 4716   2.401   4.998   9.002  0.4938 -0.9262 -1.8016
   35POPC  H15S 4717   2.292   5.144   9.043 -0.2260 -0.8152  0.7993
   35POPC  C216 4718   2.247   5.062   8.859 -0.3466  0.0283 -0.1131
   35POPC  H16R 4719   2.136   5.063   8.852 -0.3473 -2.5432 -1.4474
   35POPC  H16S 4720   2.262   4.964   8.808 -1.7668  0.0291 -0.5729
   35POPC  C217 4721   2.317   5.172   8.773 -0.5734 -0.0952 -0.0748
   35POPC  H17R 4722   2.323   5.261   8.839 -1.1935  1.4926 -2.0881
   35POPC  H17S 4723   2.251   5.201   8.689  0.2408 -0.3477 -0.8202
   35POPC  C218 4724   2.457   5.143   8.719 -0.1714  0.1898  0.3109
   35POPC  H18R 4725   2.532   5.146   8.801  1.0269  0.9311 -0.7685
   35POPC  H18S 4726   2.488   5.213   8.639 -0.3730 -0.1149 -0.0356
   35POPC  H18T 4727   2.470   5.047   8.665 -0.5991  0.6311 -0.5834
   35POPC   C33 4728   1.716   4.912  10.271 -0.1233 -0.5769 -0.2323
   35POPC   H3X 4729   1.787   4.854  10.334 -0.1430  1.0843  1.3960
   35POPC   H3Y 4730   1.709   5.018  10.302 -0.2856 -0.8112  0.5507
   35POPC   C34 4731   1.742   4.891  10.117  0.1817 -0.9439 -0.5901
   35POPC   H4X 4732   1.640   4.887  10.073  0.0371  0.3938 -0.4099
   35POPC   H4Y 4733   1.776   4.788  10.093  1.1049 -1.2920  1.9164
   35POPC   C35 4734   1.804   5.014  10.057 -0.6888 -0.1746 -0.2813
   35POPC   H5X 4735   1.894   5.041  10.115  0.8433 -2.1516 -1.5882
   35POPC   H5Y 4736   1.732   5.098  10.067 -1.5677 -0.8878 -0.4574
   35POPC   C36 4737   1.837   5.002   9.909 -0.2542  0.3306  0.4827
   35POPC   H6X 4738   1.894   4.909   9.892 -0.0189  0.4752  0.4831
   35POPC   H6Y 4739   1.912   5.076   9.876 -0.9421  0.4358 -0.9101
   35POPC   C37 4740   1.713   5.002   9.820 -0.0220 -0.3069 -0.0833
   35POPC   H7X 4741   1.655   5.097   9.826 -0.8746 -0.8347  0.2196
   35POPC   H7Y 4742   1.646   4.925   9.864  0.9976 -0.9740  0.3416
   35POPC   C38 4743   1.733   4.969   9.673 -0.3829 -0.0051  0.1764
   35POPC   H8X 4744   1.786   4.872   9.664  1.2843  0.8310  0.6126
   35POPC   H8Y 4745   1.797   5.048   9.629  2.1281 -0.7630  2.2243
   35POPC   C39 4746   1.608   4.962   9.582  0.2861 -0.2426  1.2879
   35POPC   H9X 4747   1.553   4.868   9.607 -0.9576  0.9936  3.4959
   35POPC   H9Y 4748   1.632   4.959   9.473  1.1708  3.5215  1.2627
   35POPC  C310 4749   1.495   5.068   9.599 -0.3501  0.3557  0.4863
   35POPC  H10X 4750   1.540   5.169   9.590  0.6920 -0.1810 -0.5169
   35POPC  H10Y 4751   1.456   5.062   9.703 -1.9230 -1.8163 -0.1570
   35POPC  C311 4752   1.375   5.038   9.512  0.0961 -0.1500 -0.1212
   35POPC  H11X 4753   1.301   5.118   9.535 -1.9247 -2.1653  0.7919
   35POPC  H11Y 4754   1.331   4.943   9.548 -1.3229  1.0639  1.5303
   35POPC  C312 4755   1.397   5.026   9.360  0.2770  0.2248 -0.4870
   35POPC  H12X 4756   1.469   4.944   9.336  0.4538  0.4735 -0.8137
   35POPC  H12Y 4757   1.429   5.126   9.325  1.1016  0.9441  2.1276
   35POPC  C313 4758   1.269   4.985   9.282 -1.0248 -0.4389  0.0278
   35POPC  H13X 4759   1.209   5.079   9.278 -1.5543 -0.7857 -0.5663
   35POPC  H13Y 4760   1.218   4.905   9.339 -3.7279 -0.0129 -1.5969
   35POPC  C314 4761   1.283   4.929   9.139 -0.1665  0.8434  0.0647
   35POPC  H14X 4762   1.352   4.842   9.139 -0.4692  0.5935 -0.6873
   35POPC  H14Y 4763   1.336   5.000   9.071 -1.1559 -0.2267 -1.9152
   35POPC  C315 4764   1.147   4.894   9.080  0.2002  1.0665  0.0146
   35POPC  H15X 4765   1.081   4.981   9.097 -1.8691 -0.4458  0.2074
   35POPC  H15Y 4766   1.100   4.803   9.123 -1.3324  0.8899 -1.8991
   35POPC  C316 4767   1.160   4.850   8.935  0.4217  0.7796 -0.2279
   35POPC  H16X 4768   1.217   4.930   8.883 -0.5640  0.6626 -1.5486
   35POPC  H16Y 4769   1.057   4.855   8.892 -0.4132  1.4039  1.7109
   35POPC  H16Z 4770   1.202   4.748   8.933 -0.3517  0.4683 -1.6600
   36POPC     N 4771   1.488   1.984  11.109 -0.4338  0.5511 -0.0584
   36POPC   C12 4772   1.390   1.920  11.014 -0.9320 -0.2008 -0.5870
   36POPC  H12A 4773   1.301   1.890  11.067 -0.0543  0.2611  1.2305
   36POPC  H12B 4774   1.426   1.823  10.983  0.5026  0.2546 -0.4181
   36POPC   C13 4775   1.628   1.997  11.054 -0.1984  0.1651 -0.3026
   36POPC  H13A 4776   1.631   2.079  10.984  0.2683  1.7847  1.5614
   36POPC  H13B 4777   1.704   2.016  11.128  1.3355  2.0188 -2.2202
   36POPC  H13C 4778   1.661   1.911  10.996 -0.4550  1.1844 -2.0220
   36POPC   C14 4779   1.437   2.117  11.153  0.4238  0.4989  0.6194
   36POPC  H14A 4780   1.470   2.194  11.086 -1.1985 -0.4550 -1.3811
   36POPC  H14B 4781   1.329   2.121  11.148  0.4030 -0.5773 -0.2621
   36POPC  H14C 4782   1.467   2.129  11.256 -1.5549 -1.1440  1.4706
   36POPC   C15 4783   1.495   1.889  11.232  0.0115 -0.6065  0.6656
   36POPC  H15A 4784   1.584   1.919  11.286 -0.0594 -0.4508  0.6963
   36POPC  H15B 4785   1.501   1.785  11.202 -0.2938  0.0215 -1.7835
   36POPC  H15C 4786   1.410   1.909  11.296 -0.9707 -0.2517 -0.7087
   36POPC   C11 4787   1.353   1.995  10.889 -0.0423 -0.0056  0.4810
   36POPC  H11A 4788   1.446   2.038  10.845 -1.4435  1.0038 -1.6999
   36POPC  H11B 4789   1.294   2.085  10.918  0.6910  0.2852  1.0870
   36POPC     P 4790   1.134   1.906  10.781 -0.1785 -0.1632  0.2134
   36POPC   O13 4791   1.075   1.956  10.905 -0.0239 -0.7604  0.3324
   36POPC   O14 4792   1.091   1.770  10.734  0.1243  0.4334  0.2717
   36POPC   O12 4793   1.293   1.902  10.794  0.0690 -0.2233 -0.1320
   36POPC   O11 4794   1.101   2.007  10.663 -0.0846 -0.3240  0.0643
   36POPC    C1 4795   1.177   2.128  10.647  0.1134 -0.7497  0.5041
   36POPC    HA 4796   1.271   2.119  10.587  0.4712  3.1652  0.2110
   36POPC    HB 4797   1.212   2.165  10.746  3.6809  0.1478 -0.9290
   36POPC    C2 4798   1.087   2.245  10.579  0.0599 -0.4237  0.1387
   36POPC    HS 4799   1.001   2.265  10.647  0.8273 -2.2260  1.7424
   36POPC   O21 4800   1.049   2.209  10.444 -0.0687 -0.0504 -0.2876
   36POPC   C21 4801   0.943   2.273  10.403  0.3549  0.4613 -1.0310
   36POPC   O22 4802   0.868   2.347  10.465 -0.5215 -0.5407 -0.2074
   36POPC   C22 4803   0.928   2.250  10.255 -0.5184 -0.0234 -0.4367
   36POPC   H2R 4804   0.942   2.143  10.231 -2.6230 -0.8546  1.6554
   36POPC   H2S 4805   1.009   2.308  10.205 -0.2855 -0.1376 -0.1940
   36POPC    C3 4806   1.175   2.370  10.568  0.0069 -0.0242  0.6255
   36POPC    HX 4807   1.217   2.399  10.667  0.1494 -2.3078  1.2853
   36POPC    HY 4808   1.114   2.459  10.541  1.3831  0.8874  0.4118
   36POPC   O31 4809   1.296   2.354  10.491 -0.0316  0.2017  0.2234
   36POPC   C31 4810   1.291   2.408  10.368  0.1870 -0.3786  0.9059
   36POPC   O32 4811   1.195   2.465  10.323 -0.1221 -0.3410  0.2627
   36POPC   C32 4812   1.422   2.374  10.298  0.2214 -0.2693  0.3076
   36POPC   H2X 4813   1.459   2.275  10.333  3.0090 -0.1183 -1.8599
   36POPC   H2Y 4814   1.487   2.455  10.337  0.5199 -1.0669  1.5550
   36POPC   C23 4815   0.798   2.298  10.190  0.3328 -0.2331  0.4098
   36POPC   H3R 4816   0.808   2.406  10.165  3.0913 -0.8049 -1.4307
   36POPC   H3S 4817   0.708   2.289  10.254  0.1840  2.1279  0.6323
   36POPC   C24 4818   0.786   2.236  10.048 -0.4218  0.1021  0.0694
   36POPC   H4R 4819   0.690   2.281  10.013  0.4428  0.0984 -2.4482
   36POPC   H4S 4820   0.776   2.126  10.054 -0.1220 -0.0487 -1.8449
   36POPC   C25 4821   0.903   2.265   9.956 -0.1585 -0.8526  0.4826
   36POPC   H5R 4822   0.996   2.226  10.001 -0.3736 -1.1081  0.7094
   36POPC   H5S 4823   0.918   2.375   9.965 -4.7503  0.2439 -2.0497
   36POPC   C26 4824   0.894   2.196   9.818 -0.8971  0.5090 -0.1893
   36POPC   H6R 4825   0.862   2.092   9.839  0.2697 -0.6996 -3.7136
   36POPC   H6S 4826   0.997   2.191   9.776 -1.2464 -0.5787 -0.9477
   36POPC   C27 4827   0.795   2.272   9.731  0.2773  0.6772  0.0955
   36POPC   H7R 4828   0.822   2.380   9.732 -2.2615  1.3715  1.8605
   36POPC   H7S 4829   0.694   2.265   9.776 -0.5052  5.0230 -0.5642
   36POPC   C28 4830   0.803   2.211   9.587  0.5664  0.1374 -0.3745
   36POPC   H8R 4831   0.820   2.101   9.589 -0.7014 -0.0990  2.1692
   36POPC   H8S 4832   0.897   2.251   9.543  0.1072  1.7503  0.0456
   36POPC   C29 4833   0.678   2.245   9.510  0.3380  0.9999 -0.5531
   36POPC   H91 4834   0.584   2.229   9.566  1.2595 -2.6981  0.2237
   36POPC  C210 4835   0.680   2.292   9.387 -0.1802  0.1006 -0.0798
   36POPC  H101 4836   0.589   2.316   9.330 -0.6629 -0.8559  0.2551
   36POPC  C211 4837   0.812   2.340   9.324  0.2635  0.0649  0.1874
   36POPC  H11R 4838   0.904   2.280   9.343  1.3083  2.0736  1.9167
   36POPC  H11S 4839   0.838   2.445   9.349  0.4767  0.3522 -1.1621
   36POPC  C212 4840   0.788   2.348   9.172 -0.0029 -0.0101 -0.0429
   36POPC  H12R 4841   0.694   2.404   9.151 -0.0767  0.4681  1.4423
   36POPC  H12S 4842   0.779   2.243   9.137  1.2417 -0.7059  1.5876
   36POPC  C213 4843   0.894   2.429   9.094 -0.3315  0.2068 -0.2514
   36POPC  H13R 4844   0.991   2.379   9.116 -0.8943  0.2919  2.7900
   36POPC  H13S 4845   0.902   2.527   9.146  2.5445  0.1020 -0.3284
   36POPC  C214 4846   0.877   2.467   8.949  0.3078  0.1191  0.6686
   36POPC  H14R 4847   0.789   2.535   8.947 -0.6423 -1.0664  1.0554
   36POPC  H14S 4848   0.859   2.378   8.885  1.1363  0.5083 -0.1212
   36POPC  C215 4849   1.001   2.543   8.897 -0.1190 -0.4732  0.7304
   36POPC  H15R 4850   1.091   2.480   8.913  2.5825  2.9442  0.2781
   36POPC  H15S 4851   1.018   2.629   8.965 -0.2129  0.2878 -0.1897
   36POPC  C216 4852   1.002   2.580   8.746  1.0066 -0.0120 -0.4659
   36POPC  H16R 4853   0.935   2.669   8.740  1.4274  0.4317  1.0021
   36POPC  H16S 4854   0.951   2.502   8.687  1.7009 -0.5640 -0.3484
   36POPC  C217 4855   1.138   2.586   8.698 -0.9113 -1.0289  0.2821
   36POPC  H17R 4856   1.188   2.488   8.716 -1.3838 -1.3416 -0.0874
   36POPC  H17S 4857   1.200   2.660   8.754 -0.2310 -0.0164 -1.6946
   36POPC  C218 4858   1.153   2.641   8.554 -0.0652  0.3560  1.5932
   36POPC  H18R 4859   1.139   2.752   8.557 -0.6472  0.2716  2.2163
   36POPC  H18S 4860   1.068   2.599   8.496  1.0070  0.2775  0.0141
   36POPC  H18T 4861   1.245   2.610   8.500  0.0269  0.9095  1.4237
   36POPC   C33 4862   1.428   2.385  10.145 -0.0896  0.3408 -0.0996
   36POPC   H3X 4863   1.537   2.382  10.126 -0.1315 -0.2920 -0.2606
   36POPC   H3Y 4864   1.401   2.486  10.105  1.3190 -0.1058 -2.3508
   36POPC   C34 4865   1.347   2.285  10.065  0.1672  0.3830 -0.2639
   36POPC   H4X 4866   1.238   2.309  10.066 -0.6195 -2.7189  1.4666
   36POPC   H4Y 4867   1.351   2.184  10.111 -1.7947  0.9762  1.3800
   36POPC   C35 4868   1.408   2.276   9.919 -0.8705 -0.0131  0.4991
   36POPC   H5X 4869   1.352   2.194   9.869 -0.5715 -0.0548  0.2299
   36POPC   H5Y 4870   1.513   2.244   9.935 -0.8651 -0.5518 -0.5662
   36POPC   C36 4871   1.416   2.403   9.833  0.1159 -0.3386 -0.2734
   36POPC   H6X 4872   1.481   2.393   9.744 -0.4324  1.3614 -0.9031
   36POPC   H6Y 4873   1.460   2.481   9.899 -2.6712  0.5026  0.7724
   36POPC   C37 4874   1.279   2.442   9.775  0.3684 -0.4569 -0.1569
   36POPC   H7X 4875   1.283   2.539   9.722 -0.7739  0.4750  1.3767
   36POPC   H7Y 4876   1.217   2.456   9.866  0.4458 -1.1497  0.0140
   36POPC   C38 4877   1.220   2.337   9.684 -0.1954  0.3667  0.8430
   36POPC   H8X 4878   1.113   2.365   9.673 -0.5938 -0.7844  1.6168
   36POPC   H8Y 4879   1.221   2.236   9.729  2.1228 -0.7375 -1.4272
   36POPC   C39 4880   1.283   2.342   9.543  0.0577 -0.0681 -0.0798
   36POPC   H9X 4881   1.389   2.309   9.541  0.0426 -0.1227 -0.0030
   36POPC   H9Y 4882   1.282   2.450   9.516  0.4713  0.6476  2.4813
   36POPC  C310 4883   1.201   2.265   9.439  0.0801 -0.8620  0.0729
   36POPC  H10X 4884   1.102   2.316   9.443  0.0004 -0.9557 -0.5773
   36POPC  H10Y 4885   1.178   2.163   9.476 -2.2025 -0.9101 -1.2612
   36POPC  C311 4886   1.258   2.256   9.302 -0.4089 -0.6804 -0.3742
   36POPC  H11X 4887   1.365   2.236   9.282 -0.4825  1.0851 -3.0878
   36POPC  H11Y 4888   1.244   2.358   9.259  0.2983  0.3182  1.6416
   36POPC  C312 4889   1.193   2.162   9.201  0.1079  0.2545  0.0645
   36POPC  H12X 4890   1.086   2.191   9.191 -0.3712 -1.2567  0.5623
   36POPC  H12Y 4891   1.195   2.058   9.240 -1.3467 -0.1052 -0.7209
   36POPC  C313 4892   1.272   2.150   9.064 -1.4761 -0.0445 -0.4675
   36POPC  H13X 4893   1.379   2.122   9.081 -1.5512  0.5739  1.2041
   36POPC  H13Y 4894   1.260   2.239   8.999 -1.6666  0.9775  0.9274
   36POPC  C314 4895   1.200   2.048   8.977 -0.5831 -0.6299 -0.5603
   36POPC  H14X 4896   1.093   2.075   8.968 -0.1735  0.6202 -2.0552
   36POPC  H14Y 4897   1.209   1.946   9.022 -3.0505 -0.3007  0.9005
   36POPC  C315 4898   1.266   2.052   8.832 -0.4237  0.3773 -0.2190
   36POPC  H15X 4899   1.376   2.043   8.846 -0.2107 -0.2382 -2.0666
   36POPC  H15Y 4900   1.238   2.149   8.786 -0.8239 -0.0498 -0.8943
   36POPC  C316 4901   1.220   1.932   8.748  0.3979  0.3041  0.0164
   36POPC  H16X 4902   1.261   1.944   8.646 -2.3222  0.5522 -1.1477
   36POPC  H16Y 4903   1.109   1.933   8.747  0.3695 -0.8177  0.4702
   36POPC  H16Z 4904   1.249   1.836   8.795 -1.0970  0.3834  1.1657
   37POPC     N 4905   4.874   5.226   6.350  0.2753  0.8045  0.3961
   37POPC   C12 4906   4.724   5.205   6.374 -0.2758 -0.2399 -0.3657
   37POPC  H12A 4907   4.696   5.119   6.316 -0.6228 -1.0157  0.9194
   37POPC  H12B 4908   4.675   5.287   6.322  2.2958  1.4002 -0.3985
   37POPC   C13 4909   4.943   5.331   6.426  0.0405 -0.6609 -0.4504
   37POPC  H13A 4910   5.050   5.325   6.436  0.0241 -0.9811 -0.4605
   37POPC  H13B 4911   4.910   5.432   6.401  1.3205  0.5315  2.2589
   37POPC  H13C 4912   4.915   5.312   6.529  0.7543 -1.5675 -0.4150
   37POPC   C14 4913   4.950   5.095   6.371  0.5592 -0.0321  0.4243
   37POPC  H14A 4914   4.897   5.008   6.334  0.2070 -1.0824  3.1031
   37POPC  H14B 4915   5.044   5.098   6.318  0.0194 -1.2332 -0.6529
   37POPC  H14C 4916   4.968   5.078   6.477  1.4587 -0.9889  0.1336
   37POPC   C15 4917   4.885   5.252   6.202  0.6817 -0.4690  0.6381
   37POPC  H15A 4918   4.850   5.350   6.174  0.1011 -1.2297 -1.4600
   37POPC  H15B 4919   4.827   5.175   6.152  0.2281 -0.9532  1.8609
   37POPC  H15C 4920   4.989   5.248   6.173  0.3380  0.3273 -0.7237
   37POPC   C11 4921   4.665   5.190   6.523 -0.3132  0.4336  0.4247
   37POPC  H11A 4922   4.721   5.104   6.566 -2.4901 -1.6247 -0.6382
   37POPC  H11B 4923   4.560   5.157   6.511 -0.0848  0.5221 -2.2691
   37POPC     P 4924   4.718   5.320   6.746 -0.4518 -0.1922  0.0768
   37POPC   O13 4925   4.681   5.195   6.813  0.0888  0.3974 -0.2731
   37POPC   O14 4926   4.659   5.446   6.798 -0.2221 -0.1502 -0.4641
   37POPC   O12 4927   4.686   5.313   6.592 -0.5959 -0.3248 -0.1164
   37POPC   O11 4928   4.880   5.327   6.738  0.1774 -0.0661 -0.3578
   37POPC    C1 4929   4.949   5.212   6.763  0.1694  0.0076  0.3597
   37POPC    HA 4930   5.041   5.216   6.700 -0.4205 -1.4435 -0.6423
   37POPC    HB 4931   4.895   5.119   6.735  0.3376 -0.1598  0.5909
   37POPC    C2 4932   4.989   5.202   6.909 -0.0629  0.1397 -0.2220
   37POPC    HS 4933   4.889   5.195   6.957 -0.2801 -0.4837 -0.7552
   37POPC   O21 4934   5.067   5.322   6.949  0.3796  0.1148 -0.1118
   37POPC   C21 4935   5.065   5.346   7.080 -0.5272 -0.0068 -0.4389
   37POPC   O22 4936   4.995   5.287   7.162 -0.0778 -0.2556  0.1097
   37POPC   C22 4937   5.158   5.465   7.121 -0.2594 -0.0674 -0.9690
   37POPC   H2R 4938   5.100   5.534   7.186  0.8440 -0.3833  0.3887
   37POPC   H2S 4939   5.194   5.508   7.025  0.9818  0.5198 -0.2605
   37POPC    C3 4940   5.074   5.079   6.924  0.4314 -0.2043  0.7002
   37POPC    HX 4941   5.166   5.099   6.866 -1.1420  1.6999 -1.2929
   37POPC    HY 4942   5.028   4.995   6.868  0.3759  0.2917 -0.0022
   37POPC   O31 4943   5.097   5.040   7.066 -0.0952  0.7592 -0.2086
   37POPC   C31 4944   5.001   4.974   7.125  0.4767  0.3098 -0.6554
   37POPC   O32 4945   4.893   4.938   7.082 -0.1700  0.3220 -0.2312
   37POPC   C32 4946   5.054   4.952   7.272 -0.1520  0.5887  0.3243
   37POPC   H2X 4947   5.013   5.041   7.325 -0.6951  0.0287  0.8589
   37POPC   H2Y 4948   5.165   4.948   7.270 -0.1933 -0.4084 -0.4638
   37POPC   C23 4949   5.280   5.424   7.206 -0.3936 -0.2071  0.7106
   37POPC   H3R 4950   5.362   5.498   7.212  0.6272 -1.2164 -0.4155
   37POPC   H3S 4951   5.319   5.330   7.162  0.8513  1.1007 -1.1035
   37POPC   C24 4952   5.243   5.388   7.350 -0.3053 -0.2631  0.1263
   37POPC   H4R 4953   5.156   5.319   7.348 -0.3927 -0.1354 -0.7873
   37POPC   H4S 4954   5.205   5.475   7.409  1.4054 -0.0993  1.0397
   37POPC   C25 4955   5.365   5.333   7.427  0.4085 -0.0957  0.7412
   37POPC   H5R 4956   5.458   5.379   7.389  0.8997 -0.9587  0.8675
   37POPC   H5S 4957   5.373   5.225   7.400  1.0586  0.2531 -0.5477
   37POPC   C26 4958   5.351   5.344   7.573  0.2065  0.1767 -0.0341
   37POPC   H6R 4959   5.358   5.446   7.615  0.0948  0.4546 -0.6800
   37POPC   H6S 4960   5.443   5.298   7.615  0.8622  0.7012 -0.8608
   37POPC   C27 4961   5.232   5.270   7.638  0.4027 -0.3265 -0.0705
   37POPC   H7R 4962   5.214   5.178   7.579 -3.0912 -0.0905  0.4198
   37POPC   H7S 4963   5.146   5.338   7.619 -2.7742 -2.1263  5.3516
   37POPC   C28 4964   5.246   5.247   7.786 -0.4232 -0.2932 -0.1473
   37POPC   H8R 4965   5.343   5.193   7.794  0.2506  0.7344 -1.0899
   37POPC   H8S 4966   5.162   5.182   7.819 -0.5478  1.2739  3.0694
   37POPC   C29 4967   5.244   5.371   7.871  0.3498  0.1641 -0.1542
   37POPC   H91 4968   5.282   5.463   7.823 -1.0411  0.6938 -0.2663
   37POPC  C210 4969   5.189   5.384   7.994  0.5334  0.2349  0.0980
   37POPC  H101 4970   5.187   5.482   8.044 -0.4041  0.1787  0.1813
   37POPC  C211 4971   5.118   5.279   8.080 -0.0730 -0.6712 -0.3832
   37POPC  H11R 4972   5.165   5.276   8.180  1.0196  1.3098 -0.7847
   37POPC  H11S 4973   5.118   5.181   8.027 -3.0281 -1.3348  0.6495
   37POPC  C212 4974   4.975   5.336   8.104 -0.2554  0.2384  0.3626
   37POPC  H12R 4975   4.925   5.366   8.010  1.1531 -0.6499 -0.7189
   37POPC  H12S 4976   4.981   5.422   8.174 -0.0717 -0.2542  0.9747
   37POPC  C213 4977   4.893   5.218   8.165  0.9991 -0.2386  0.0044
   37POPC  H13R 4978   4.948   5.179   8.253  0.5425  0.2374  0.5088
   37POPC  H13S 4979   4.893   5.141   8.085 -1.1355 -0.0611 -0.2339
   37POPC  C214 4980   4.741   5.259   8.199 -0.5965  0.2513 -0.0213
   37POPC  H14R 4981   4.678   5.170   8.216 -1.6485  0.7908 -0.9738
   37POPC  H14S 4982   4.696   5.305   8.109  0.9327  1.9605  0.0259
   37POPC  C215 4983   4.731   5.355   8.320 -0.5258  0.2430  0.1026
   37POPC  H15R 4984   4.627   5.394   8.308 -0.6378 -0.4440 -1.4082
   37POPC  H15S 4985   4.795   5.444   8.305  0.1666 -0.0972  0.9475
   37POPC  C216 4986   4.761   5.285   8.455 -0.2376  0.2396  0.6316
   37POPC  H16R 4987   4.872   5.285   8.449 -0.2889 -0.0667 -0.9203
   37POPC  H16S 4988   4.711   5.185   8.457 -1.4382  0.7916 -0.5423
   37POPC  C217 4989   4.721   5.370   8.575  0.6697  0.2223  0.5930
   37POPC  H17R 4990   4.614   5.391   8.559  0.4462 -0.8148  0.6514
   37POPC  H17S 4991   4.785   5.461   8.570  1.7183 -0.4427  1.3877
   37POPC  C218 4992   4.747   5.285   8.698 -0.9493  0.0777 -0.3390
   37POPC  H18R 4993   4.752   5.349   8.790  0.6829 -2.2467  1.3088
   37POPC  H18S 4994   4.849   5.241   8.700 -0.6609  0.6957  1.8665
   37POPC  H18T 4995   4.671   5.211   8.730 -0.4306 -0.5966 -0.6551
   37POPC   C33 4996   4.998   4.817   7.333 -0.3226 -0.2322  0.5026
   37POPC   H3X 4997   5.049   4.733   7.280  1.8640  0.9454  0.6270
   37POPC   H3Y 4998   4.889   4.808   7.312 -0.0519 -0.6906 -0.8272
   37POPC   C34 4999   5.030   4.806   7.479 -0.7840  0.3932  0.0153
   37POPC   H4X 5000   5.139   4.809   7.500 -0.8643 -1.9491  1.0659
   37POPC   H4Y 5001   5.004   4.705   7.516  2.3327 -1.3209 -2.0385
   37POPC   C35 5002   4.958   4.917   7.559  0.2447  0.1535  0.4774
   37POPC   H5X 5003   4.847   4.904   7.557  0.2222 -0.1348  2.1012
   37POPC   H5Y 5004   4.976   5.012   7.505  0.6587 -0.8450 -1.2223
   37POPC   C36 5005   5.006   4.935   7.701 -0.0169 -0.5709 -0.1037
   37POPC   H6X 5006   4.942   5.007   7.757 -0.2834 -0.2651 -0.7917
   37POPC   H6Y 5007   5.106   4.983   7.704  0.3211 -1.2845  0.1988
   37POPC   C37 5008   5.023   4.812   7.798 -0.6409 -0.0204  0.0907
   37POPC   H7X 5009   5.118   4.763   7.770  0.3622  2.7524 -1.7927
   37POPC   H7Y 5010   4.926   4.758   7.795 -0.1581 -0.9092  0.2330
   37POPC   C38 5011   5.028   4.876   7.937  0.2966  0.3365 -0.0312
   37POPC   H8X 5012   4.925   4.918   7.943  0.8369  1.6202  0.6854
   37POPC   H8Y 5013   5.087   4.969   7.945 -0.9203  1.2503 -1.2440
   37POPC   C39 5014   5.052   4.780   8.047 -0.1066  0.0324 -0.4704
   37POPC   H9X 5015   5.153   4.736   8.033 -0.1530 -0.8095  1.5530
   37POPC   H9Y 5016   4.978   4.698   8.056  0.8716 -1.0948 -2.2236
   37POPC  C310 5017   5.046   4.840   8.189 -0.3082  1.2086  0.7056
   37POPC  H10X 5018   4.946   4.885   8.203 -0.1242  2.2628 -0.9396
   37POPC  H10Y 5019   5.113   4.929   8.199 -0.0020  1.1563 -0.6553
   37POPC  C311 5020   5.074   4.734   8.301 -0.2461 -0.5145 -0.4718
   37POPC  H11X 5021   5.000   4.653   8.282 -1.4326  0.6314 -0.9636
   37POPC  H11Y 5022   5.050   4.776   8.401 -0.3584  0.1003 -0.7495
   37POPC  C312 5023   5.218   4.689   8.309 -0.0416 -0.1751  0.5003
   37POPC  H12X 5024   5.282   4.772   8.344 -0.4189  1.4030 -2.2647
   37POPC  H12Y 5025   5.267   4.677   8.210 -1.0542  2.9329 -0.5120
   37POPC  C313 5026   5.226   4.574   8.404 -0.3393  0.0621 -0.1970
   37POPC  H13X 5027   5.164   4.486   8.375 -0.5430 -0.8641  2.7386
   37POPC  H13Y 5028   5.173   4.606   8.496  2.3725  1.4194  0.9931
   37POPC  C314 5029   5.364   4.522   8.436 -0.3610 -0.4645  0.2141
   37POPC  H14X 5030   5.418   4.602   8.491  2.4156 -0.8796 -1.6844
   37POPC  H14Y 5031   5.422   4.514   8.341 -0.9051 -2.6800  0.0222
   37POPC  C315 5032   5.366   4.401   8.524  0.1717  1.1809  0.4109
   37POPC  H15X 5033   5.332   4.316   8.462  0.5618  0.1330  1.5942
   37POPC  H15Y 5034   5.308   4.411   8.618  2.8793  3.2323  2.0368
   37POPC  C316 5035   5.506   4.360   8.572  0.0557  0.2401 -0.0654
   37POPC  H16X 5036   5.544   4.451   8.623 -0.7803 -0.7283  2.4939
   37POPC  H16Y 5037   5.564   4.340   8.480  1.2787 -0.8306  0.8937
   37POPC  H16Z 5038   5.507   4.280   8.650  0.5084 -1.6689 -1.9241
   38POPC     N 5039   0.408   3.617   6.290 -0.1898 -0.1067 -0.2050
   38POPC   C12 5040   0.449   3.512   6.400 -0.3598 -0.4654 -0.3544
   38POPC  H12A 5041   0.363   3.501   6.465  0.3725 -4.0045  0.1792
   38POPC  H12B 5042   0.524   3.566   6.456 -1.8398  0.9149  0.3752
   38POPC   C13 5043   0.530   3.670   6.227 -0.3624  0.3624  0.0542
   38POPC  H13A 5044   0.506   3.745   6.153  1.3039  0.6987 -0.2019
   38POPC  H13B 5045   0.600   3.702   6.303 -1.3696 -0.4003  1.3430
   38POPC  H13C 5046   0.590   3.597   6.175 -1.5632 -1.5186  1.1935
   38POPC   C14 5047   0.313   3.552   6.197 -0.1823  0.1264  0.7899
   38POPC  H14A 5048   0.219   3.553   6.249  0.5178 -0.1155  2.1007
   38POPC  H14B 5049   0.297   3.610   6.107  0.4378 -0.7081  0.1177
   38POPC  H14C 5050   0.344   3.451   6.173  0.0940  0.5015 -0.5048
   38POPC   C15 5051   0.345   3.737   6.359  0.1520  0.6167  0.4725
   38POPC  H15A 5052   0.290   3.791   6.283 -1.2647 -2.4465 -0.8610
   38POPC  H15B 5053   0.420   3.795   6.411 -0.6144  0.3448  1.9328
   38POPC  H15C 5054   0.271   3.702   6.430  0.2850  0.3966  0.5045
   38POPC   C11 5055   0.513   3.381   6.371  0.3795  0.6170  0.1742
   38POPC  H11A 5056   0.554   3.323   6.456 -2.0740  0.3057  1.2439
   38POPC  H11B 5057   0.600   3.411   6.309  0.5908  2.1413  1.1412
   38POPC     P 5058   0.330   3.194   6.363  0.0388 -0.1970  0.2264
   38POPC   O13 5059   0.400   3.078   6.419  0.1413 -0.3291 -0.0858
   38POPC   O14 5060   0.218   3.167   6.277  0.2748 -0.7807  0.0458
   38POPC   O12 5061   0.430   3.291   6.294 -0.0173 -0.2610 -0.2541
   38POPC   O11 5062   0.288   3.285   6.483 -0.1057  0.1990 -0.2049
   38POPC    C1 5063   0.314   3.257   6.618  0.1943  0.2512  0.2229
   38POPC    HA 5064   0.425   3.252   6.626  0.4571  2.2656 -1.2702
   38POPC    HB 5065   0.273   3.158   6.649 -2.9980  1.5795  0.6004
   38POPC    C2 5066   0.258   3.354   6.718 -0.7786  0.0814 -0.2400
   38POPC    HS 5067   0.151   3.365   6.691 -1.8921 -2.1176  2.7753
   38POPC   O21 5068   0.327   3.476   6.709  0.6265  0.0807 -0.4664
   38POPC   C21 5069   0.262   3.578   6.767  0.3854 -0.4345 -0.0132
   38POPC   O22 5070   0.150   3.579   6.815 -0.0644 -0.1907  0.4486
   38POPC   C22 5071   0.348   3.707   6.757  0.1978  0.5668 -0.2717
   38POPC   H2R 5072   0.317   3.751   6.659  1.2324  2.0128  0.0121
   38POPC   H2S 5073   0.454   3.676   6.744 -0.0240  0.2723 -1.5674
   38POPC    C3 5074   0.248   3.299   6.868 -0.2441  0.0761  0.3687
   38POPC    HX 5075   0.195   3.381   6.921 -2.3800  0.2072 -1.7984
   38POPC    HY 5076   0.352   3.294   6.905 -0.0764  0.8971  0.0330
   38POPC   O31 5077   0.181   3.173   6.879 -0.3536  0.1252 -0.4373
   38POPC   C31 5078   0.053   3.182   6.877  0.7064 -0.4234  1.1452
   38POPC   O32 5079  -0.011   3.283   6.865 -0.2339 -0.2493 -0.2988
   38POPC   C32 5080  -0.009   3.044   6.873 -1.0830 -0.1264  0.4592
   38POPC   H2X 5081   0.072   2.969   6.886 -0.3387  0.0554 -2.4780
   38POPC   H2Y 5082  -0.063   3.040   6.776  0.1508  0.3229 -0.2691
   38POPC   C23 5083   0.335   3.800   6.882 -0.1281  1.0945 -0.2948
   38POPC   H3R 5084   0.226   3.821   6.883 -0.0782  1.3624  1.5669
   38POPC   H3S 5085   0.394   3.893   6.876  2.2588 -0.3522 -0.8779
   38POPC   C24 5086   0.364   3.734   7.020  0.4942 -0.1235  0.2065
   38POPC   H4R 5087   0.467   3.695   7.029 -0.6132 -3.1472  1.1018
   38POPC   H4S 5088   0.289   3.652   7.027  1.7182 -1.3571 -0.5764
   38POPC   C25 5089   0.340   3.826   7.142  0.1406 -0.6866 -0.5530
   38POPC   H5R 5090   0.237   3.868   7.136 -1.1717 -3.4281  0.8182
   38POPC   H5S 5091   0.411   3.911   7.138 -0.6767 -0.0316 -2.3867
   38POPC   C26 5092   0.351   3.748   7.271 -0.4807  0.4452  0.5237
   38POPC   H6R 5093   0.391   3.806   7.357  0.4240  1.0986 -0.3069
   38POPC   H6S 5094   0.418   3.662   7.251  1.4163  2.0933 -0.6565
   38POPC   C27 5095   0.212   3.702   7.315  0.4453  0.4551 -0.3275
   38POPC   H7R 5096   0.140   3.671   7.235 -1.0283 -0.1009  1.1644
   38POPC   H7S 5097   0.163   3.790   7.363 -0.8575 -0.3097 -0.1945
   38POPC   C28 5098   0.219   3.605   7.439 -0.0220 -0.1007  0.2242
   38POPC   H8R 5099   0.116   3.583   7.476 -0.4653  3.6484  1.6658
   38POPC   H8S 5100   0.263   3.669   7.518 -0.2105  1.9101 -1.2332
   38POPC   C29 5101   0.282   3.469   7.403 -0.3759 -0.3780 -0.1362
   38POPC   H91 5102   0.237   3.425   7.313 -0.3846  1.2706 -0.9547
   38POPC  C210 5103   0.396   3.421   7.459  0.0160 -0.1834  0.2688
   38POPC  H101 5104   0.421   3.316   7.439 -2.8585 -1.1445  1.1400
   38POPC  C211 5105   0.478   3.487   7.568 -0.2194  0.2087 -0.2807
   38POPC  H11R 5106   0.437   3.585   7.600  0.3866  0.1443  0.7335
   38POPC  H11S 5107   0.580   3.501   7.526 -1.2765  0.1487 -3.0780
   38POPC  C212 5108   0.462   3.387   7.682 -0.3545 -0.3996  0.6018
   38POPC  H12R 5109   0.519   3.293   7.663  4.6927  2.2461  0.9065
   38POPC  H12S 5110   0.353   3.388   7.704 -0.2266  2.6571  1.4785
   38POPC  C213 5111   0.538   3.437   7.803  0.6277 -0.0164  0.3003
   38POPC  H13R 5112   0.535   3.544   7.831 -0.5002 -0.3395  1.5327
   38POPC  H13S 5113   0.643   3.425   7.770 -0.5648 -0.6199 -3.8327
   38POPC  C214 5114   0.512   3.349   7.925 -0.4252  0.2507  0.4567
   38POPC  H14R 5115   0.546   3.246   7.901  0.0730 -0.4444  3.6329
   38POPC  H14S 5116   0.402   3.349   7.939 -0.5300 -2.0558  0.0027
   38POPC  C215 5117   0.592   3.393   8.047 -0.0907  0.1054 -0.6056
   38POPC  H15R 5118   0.577   3.499   8.078  2.0500  0.5347 -0.9128
   38POPC  H15S 5119   0.699   3.389   8.019  0.1132 -0.9010  0.2735
   38POPC  C216 5120   0.589   3.291   8.163  0.2915  0.0774  0.3462
   38POPC  H16R 5121   0.639   3.197   8.130 -0.9279  0.2649 -2.3633
   38POPC  H16S 5122   0.482   3.285   8.192  0.3641  2.5349  1.3083
   38POPC  C217 5123   0.656   3.338   8.290  0.1767 -0.7004  0.0896
   38POPC  H17R 5124   0.633   3.263   8.368  0.2433 -0.2285  0.5750
   38POPC  H17S 5125   0.595   3.429   8.313 -0.6793 -0.3396 -3.0859
   38POPC  C218 5126   0.805   3.369   8.272 -0.0679 -0.5357  0.5328
   38POPC  H18R 5127   0.854   3.396   8.368  0.7260  1.4817 -0.3635
   38POPC  H18S 5128   0.818   3.457   8.205 -0.2511 -1.4821 -0.7856
   38POPC  H18T 5129   0.857   3.294   8.209  0.8753  1.9302 -1.8536
   38POPC   C33 5130  -0.110   3.037   6.989 -0.2947 -0.0949 -0.9970
   38POPC   H3X 5131  -0.161   2.938   6.995 -2.5525  1.0095 -1.0830
   38POPC   H3Y 5132  -0.188   3.112   6.967 -0.8382 -0.2344  0.3913
   38POPC   C34 5133  -0.060   3.083   7.126 -1.0715 -0.2709 -0.2591
   38POPC   H4X 5134  -0.011   3.182   7.118 -1.4762  0.0534  1.0279
   38POPC   H4Y 5135   0.003   3.004   7.173  0.2941 -0.8545 -2.9236
   38POPC   C35 5136  -0.166   3.108   7.234 -1.1121 -0.2250 -0.1691
   38POPC   H5X 5137  -0.226   3.021   7.268  0.1567 -0.1060  2.5846
   38POPC   H5Y 5138  -0.232   3.180   7.180 -1.0276 -0.2763 -0.3445
   38POPC   C36 5139  -0.103   3.184   7.359  0.0834 -0.7727  1.0843
   38POPC   H6X 5140  -0.195   3.210   7.416 -0.1648 -1.0700  0.8233
   38POPC   H6Y 5141  -0.038   3.271   7.335 -0.4043 -0.8745 -0.7875
   38POPC   C37 5142  -0.012   3.101   7.440  0.0362  0.3985  0.0485
   38POPC   H7X 5143   0.089   3.087   7.397  0.0378  0.7375 -0.0640
   38POPC   H7Y 5144  -0.062   3.002   7.453  2.0047 -0.5431  0.7889
   38POPC   C38 5145   0.016   3.154   7.577 -0.3817 -0.0682 -0.2461
   38POPC   H8X 5146  -0.081   3.165   7.630  0.7194 -0.5140  1.9771
   38POPC   H8Y 5147   0.068   3.252   7.571  1.2796 -0.6694  2.4454
   38POPC   C39 5148   0.107   3.069   7.659 -0.6662 -0.6692 -0.8734
   38POPC   H9X 5149   0.206   3.050   7.612 -0.0344  1.6522 -0.6127
   38POPC   H9Y 5150   0.060   2.969   7.658 -0.2003 -0.9538 -3.8817
   38POPC  C310 5151   0.129   3.121   7.810 -1.1594  0.9740 -0.3275
   38POPC  H10X 5152   0.033   3.109   7.865 -0.3174  0.3518  1.0315
   38POPC  H10Y 5153   0.153   3.229   7.798  0.7166  0.3994 -2.4147
   38POPC  C311 5154   0.254   3.069   7.882 -0.1036  0.0713  0.1550
   38POPC  H11X 5155   0.342   3.094   7.819 -0.8221  0.8873 -0.5470
   38POPC  H11Y 5156   0.253   2.958   7.886  1.7743 -0.0851 -1.6943
   38POPC  C312 5157   0.268   3.103   8.028  0.1318  0.5708 -0.0827
   38POPC  H12X 5158   0.258   3.213   8.034 -1.1949  0.4954 -0.5057
   38POPC  H12Y 5159   0.372   3.073   8.052  0.0963  0.0272 -0.5834
   38POPC  C313 5160   0.167   3.025   8.115 -0.3773 -0.0498 -0.4337
   38POPC  H13X 5161   0.168   2.917   8.089 -2.4325  0.2172 -1.9078
   38POPC  H13Y 5162   0.067   3.063   8.087 -1.0027  3.2294  4.9738
   38POPC  C314 5163   0.186   3.049   8.270 -0.1287  0.5030  0.2490
   38POPC  H14X 5164   0.102   2.998   8.323 -1.0463  0.6670 -0.9837
   38POPC  H14Y 5165   0.176   3.157   8.293 -0.7879  0.8024 -1.3471
   38POPC  C315 5166   0.309   2.990   8.322  0.0910 -0.0311 -0.1993
   38POPC  H15X 5167   0.398   3.025   8.266 -0.8241  1.0027 -1.0690
   38POPC  H15Y 5168   0.289   2.881   8.317 -3.8298  0.4779  0.6942
   38POPC  C316 5169   0.333   3.012   8.469 -0.4456  0.1963  0.0602
   38POPC  H16X 5170   0.241   2.984   8.525 -1.1603  0.7498 -0.8132
   38POPC  H16Y 5171   0.363   3.117   8.492  0.1560  0.1372 -0.4148
   38POPC  H16Z 5172   0.421   2.952   8.502  1.1523  1.8316 -0.9987
   39POPC     N 5173   4.250   4.597   6.047  0.0212 -0.4947  0.2421
   39POPC   C12 5174   4.204   4.723   6.124 -0.4016 -0.2815 -1.1017
   39POPC  H12A 5175   4.098   4.705   6.119 -0.7039  1.4552 -1.5375
   39POPC  H12B 5176   4.219   4.809   6.061  1.8093 -0.7276 -1.2573
   39POPC   C13 5177   4.401   4.605   6.032 -0.1731  0.0258 -0.1611
   39POPC  H13A 5178   4.418   4.690   5.968 -0.4385 -0.8140 -1.3871
   39POPC  H13B 5179   4.449   4.607   6.129 -0.6257  2.2556  0.0647
   39POPC  H13C 5180   4.440   4.525   5.971  0.1865 -0.1726  0.3232
   39POPC   C14 5181   4.208   4.476   6.124 -0.3477 -0.3959 -0.1593
   39POPC  H14A 5182   4.278   4.456   6.204  0.8000  0.0668 -1.0205
   39POPC  H14B 5183   4.114   4.492   6.176 -1.6839  0.4988 -2.6842
   39POPC  H14C 5184   4.202   4.394   6.054 -0.5572 -0.7015  0.2110
   39POPC   C15 5185   4.181   4.593   5.913 -0.5600  0.5420 -0.1958
   39POPC  H15A 5186   4.210   4.517   5.842 -1.2230  0.7696 -0.7254
   39POPC  H15B 5187   4.185   4.689   5.865 -1.8015  0.1439 -1.1631
   39POPC  H15C 5188   4.074   4.580   5.928 -0.4602  0.9501  0.9968
   39POPC   C11 5189   4.248   4.750   6.266 -0.0420 -0.1926  0.4362
   39POPC  H11A 5190   4.234   4.661   6.331 -0.9458 -0.8846 -0.6667
   39POPC  H11B 5191   4.180   4.825   6.311  1.7480  2.3855 -0.9141
   39POPC     P 5192   4.411   4.949   6.291  0.1357 -0.0201  0.2450
   39POPC   O13 5193   4.323   5.024   6.200 -0.1718  0.0009 -0.6462
   39POPC   O14 5194   4.554   4.971   6.270  0.1732 -0.2903 -0.2325
   39POPC   O12 5195   4.383   4.792   6.281 -0.5645  0.7461 -0.1091
   39POPC   O11 5196   4.382   4.991   6.438 -0.2120  0.3614  0.6621
   39POPC    C1 5197   4.435   4.936   6.555 -0.3313  0.2676  0.1420
   39POPC    HA 5198   4.438   5.016   6.632 -0.3475  0.9825 -0.5904
   39POPC    HB 5199   4.541   4.905   6.542  0.7612  2.9320  1.7476
   39POPC    C2 5200   4.359   4.817   6.615  0.0655  0.0093 -0.9438
   39POPC    HS 5201   4.356   4.745   6.530  1.9204 -0.2290 -0.8513
   39POPC   O21 5202   4.232   4.859   6.649 -0.4395  0.2102  0.2731
   39POPC   C21 5203   4.132   4.771   6.642  0.0811  1.5851  0.7854
   39POPC   O22 5204   4.140   4.659   6.593 -0.2039  0.1986  0.1319
   39POPC   C22 5205   4.015   4.812   6.713 -0.1716  0.5357  0.3205
   39POPC   H2R 5206   3.930   4.758   6.666  1.8903 -1.2578 -1.6087
   39POPC   H2S 5207   4.009   4.923   6.720  1.3300  0.5333  2.5734
   39POPC    C3 5208   4.444   4.760   6.734 -0.1993 -0.3878 -0.3766
   39POPC    HX 5209   4.473   4.847   6.798  1.0097 -0.3237 -0.9731
   39POPC    HY 5210   4.545   4.729   6.698  0.0284  0.5837 -0.6031
   39POPC   O31 5211   4.362   4.667   6.810  0.5887  0.5201 -0.0452
   39POPC   C31 5212   4.416   4.547   6.816  0.0084 -0.1917 -0.1420
   39POPC   O32 5213   4.517   4.502   6.766  0.5054  0.6643  0.3156
   39POPC   C32 5214   4.303   4.456   6.870  0.4835 -0.2024 -0.0624
   39POPC   H2X 5215   4.222   4.477   6.797 -0.2621 -0.2885  0.7331
   39POPC   H2Y 5216   4.333   4.349   6.863 -0.3678 -0.4062 -0.9060
   39POPC   C23 5217   4.031   4.772   6.865 -0.4458  0.2031  0.6026
   39POPC   H3R 5218   4.104   4.838   6.917 -1.6905 -0.8061  3.8248
   39POPC   H3S 5219   4.072   4.669   6.873 -2.1614 -0.6287 -0.6126
   39POPC   C24 5220   3.892   4.767   6.927  0.4353 -0.0377 -0.4926
   39POPC   H4R 5221   3.837   4.679   6.888  0.1701 -0.5987  1.0633
   39POPC   H4S 5222   3.824   4.855   6.920  0.5631  0.2294  1.2910
   39POPC   C25 5223   3.910   4.724   7.069  0.2170 -0.4768  0.4819
   39POPC   H5R 5224   3.986   4.789   7.116 -1.2433  1.0252  0.8724
   39POPC   H5S 5225   3.946   4.619   7.075 -1.1504 -1.0533 -0.7567
   39POPC   C26 5226   3.774   4.715   7.150  1.0615  0.0186  0.0228
   39POPC   H6R 5227   3.705   4.647   7.096  0.4983 -0.2493  1.0468
   39POPC   H6S 5228   3.720   4.811   7.165  1.2348  0.0251  0.6594
   39POPC   C27 5229   3.792   4.661   7.291  0.2498 -0.1240  0.0842
   39POPC   H7R 5230   3.832   4.743   7.355 -1.1637  2.2416 -1.8810
   39POPC   H7S 5231   3.875   4.587   7.286  1.2451  0.7742  2.2359
   39POPC   C28 5232   3.660   4.603   7.358  0.6676  0.1613  0.1142
   39POPC   H8R 5233   3.621   4.519   7.297  0.0932  0.6262 -0.1780
   39POPC   H8S 5234   3.578   4.678   7.352  0.4779  0.0854  1.5500
   39POPC   C29 5235   3.693   4.564   7.499  0.8280  0.2967  0.5302
   39POPC   H91 5236   3.700   4.456   7.517 -2.8323  0.3100  3.0177
   39POPC  C210 5237   3.700   4.636   7.615  0.0066 -0.1481  0.1996
   39POPC  H101 5238   3.715   4.577   7.707 -4.2837  0.9535  1.8459
   39POPC  C211 5239   3.668   4.782   7.638 -0.1138 -0.2817 -0.2212
   39POPC  H11R 5240   3.599   4.820   7.560  0.7278  1.7602 -0.0259
   39POPC  H11S 5241   3.762   4.836   7.616  0.0955 -0.8056 -0.6289
   39POPC  C212 5242   3.607   4.831   7.769  0.2618 -0.3564 -0.6624
   39POPC  H12R 5243   3.660   4.793   7.859 -1.2624  0.0953  0.4608
   39POPC  H12S 5244   3.502   4.798   7.784 -0.1166  0.3227 -1.7206
   39POPC  C213 5245   3.602   4.984   7.783 -0.6163  0.3052 -0.1447
   39POPC  H13R 5246   3.517   5.009   7.717 -1.1482  0.6033  0.6432
   39POPC  H13S 5247   3.697   5.032   7.753 -0.7953  0.0420 -1.1763
   39POPC  C214 5248   3.574   5.022   7.927  0.3559  0.0898  0.1433
   39POPC  H14R 5249   3.659   4.999   7.994 -0.1112 -1.5463  0.2218
   39POPC  H14S 5250   3.491   4.953   7.952  2.0039 -2.1328 -0.2150
   39POPC  C215 5251   3.534   5.175   7.944 -0.1773  1.0037  0.0209
   39POPC  H15R 5252   3.450   5.197   7.874 -1.9085 -2.6534  0.6817
   39POPC  H15S 5253   3.627   5.234   7.934  0.9138 -0.1657  2.5795
   39POPC  C216 5254   3.486   5.189   8.088 -0.6735  0.0349 -0.1157
   39POPC  H16R 5255   3.564   5.156   8.160  0.6430 -0.8229 -1.8582
   39POPC  H16S 5256   3.398   5.121   8.085 -1.5262  1.0968  0.3682
   39POPC  C217 5257   3.452   5.335   8.106 -0.1016  0.1803 -0.3573
   39POPC  H17R 5258   3.399   5.369   8.015 -0.4076 -0.6011 -0.4811
   39POPC  H17S 5259   3.549   5.387   8.119 -1.6619  3.0693  0.5757
   39POPC  C218 5260   3.365   5.340   8.233 -0.2113  0.0525 -0.1791
   39POPC  H18R 5261   3.407   5.285   8.319 -0.3184  0.6283  0.2463
   39POPC  H18S 5262   3.268   5.290   8.210  1.0994 -1.9524 -1.7500
   39POPC  H18T 5263   3.332   5.445   8.248 -0.8015  0.4676 -3.5804
   39POPC   C33 5264   4.266   4.487   7.014  0.5632  0.0665 -0.3252
   39POPC   H3X 5265   4.162   4.451   7.031  1.0394 -0.6802  1.3080
   39POPC   H3Y 5266   4.259   4.596   7.036  1.4070  0.6157 -2.4931
   39POPC   C34 5267   4.357   4.430   7.122  0.3404  0.6586 -0.4232
   39POPC   H4X 5268   4.458   4.477   7.126  0.0905  1.9642 -4.6187
   39POPC   H4Y 5269   4.377   4.323   7.099 -0.6604  0.1211  1.0427
   39POPC   C35 5270   4.300   4.427   7.261 -0.5222 -0.1514 -0.6006
   39POPC   H5X 5271   4.367   4.379   7.337  0.9517  1.1743 -1.0050
   39POPC   H5Y 5272   4.206   4.368   7.253 -2.0330  2.0050  0.3212
   39POPC   C36 5273   4.259   4.570   7.314  0.0113 -0.1491  0.3170
   39POPC   H6X 5274   4.182   4.602   7.241 -0.5664 -3.1867 -0.5674
   39POPC   H6Y 5275   4.346   4.638   7.324 -2.0926  2.7816  0.1735
   39POPC   C37 5276   4.201   4.580   7.457 -0.2884  0.0959  0.0516
   39POPC   H7X 5277   4.270   4.537   7.532 -1.1016 -0.8875  0.2517
   39POPC   H7Y 5278   4.112   4.514   7.458 -1.1837  1.2671  0.1795
   39POPC   C38 5279   4.143   4.720   7.486 -0.8864 -0.2263 -0.2034
   39POPC   H8X 5280   4.069   4.745   7.407  0.7108  0.4571 -1.5227
   39POPC   H8Y 5281   4.211   4.802   7.456 -1.4266 -0.5452 -2.5166
   39POPC   C39 5282   4.067   4.722   7.619 -0.2311  0.3974  0.3860
   39POPC   H9X 5283   3.995   4.638   7.623  1.5790 -1.3877 -1.6517
   39POPC   H9Y 5284   4.026   4.825   7.625  0.5540  0.9403 -2.0940
   39POPC  C310 5285   4.166   4.712   7.739  0.3115  0.0529  0.1824
   39POPC  H10X 5286   4.209   4.815   7.740  0.2757  0.0724  1.0678
   39POPC  H10Y 5287   4.244   4.636   7.715 -0.8036 -0.9686 -0.3016
   39POPC  C311 5288   4.098   4.686   7.875 -0.3428 -0.7586 -0.1583
   39POPC  H11X 5289   4.167   4.690   7.962 -1.9097  1.5487  1.0984
   39POPC  H11Y 5290   4.048   4.587   7.879 -1.1230 -0.3601  0.1161
   39POPC  C312 5291   3.985   4.783   7.914 -0.4954  0.1025  0.5160
   39POPC  H12X 5292   3.917   4.807   7.830  0.2991 -1.3651 -0.6006
   39POPC  H12Y 5293   4.040   4.873   7.948 -2.3552  0.9044  1.5532
   39POPC  C313 5294   3.899   4.730   8.036  0.0681 -0.4398 -0.2167
   39POPC  H13X 5295   3.840   4.639   8.010  0.5183 -0.6782 -0.4168
   39POPC  H13Y 5296   3.824   4.810   8.055  0.8730 -0.3522  3.1271
   39POPC  C314 5297   3.980   4.697   8.161 -0.2720  0.2226  0.0225
   39POPC  H14X 5298   4.055   4.618   8.140  1.1402  1.3294  0.7039
   39POPC  H14Y 5299   3.908   4.660   8.238  0.2046 -0.4009  0.1708
   39POPC  C315 5300   4.036   4.815   8.241 -0.3594 -0.7537  0.1804
   39POPC  H15X 5301   4.116   4.861   8.178  0.0332 -1.6654  0.0041
   39POPC  H15Y 5302   4.098   4.781   8.327  2.4737  0.3473 -1.2835
   39POPC  C316 5303   3.943   4.930   8.294 -0.6790  0.6333  0.8168
   39POPC  H16X 5304   3.869   4.885   8.363 -0.4529  0.4057  0.9135
   39POPC  H16Y 5305   3.898   4.970   8.201 -1.9722  1.3574  1.7282
   39POPC  H16Z 5306   4.006   5.012   8.335  1.0622  0.4275 -1.2232
   40POPC     N 5307   2.740   4.851   6.295  0.1570 -1.2277  0.1150
   40POPC   C12 5308   2.825   4.729   6.326 -0.1653 -0.3560  0.6957
   40POPC  H12A 5309   2.911   4.761   6.382 -0.4423  0.0372  0.9046
   40POPC  H12B 5310   2.875   4.689   6.239 -0.4584 -1.7990  1.1538
   40POPC   C13 5311   2.636   4.815   6.184 -0.4046  0.3820 -0.5150
   40POPC  H13A 5312   2.580   4.731   6.225 -1.6050  1.9090  1.1332
   40POPC  H13B 5313   2.573   4.902   6.176  1.2270  1.5628 -0.7959
   40POPC  H13C 5314   2.685   4.805   6.089  2.7579 -0.3470  1.0678
   40POPC   C14 5315   2.672   4.903   6.415  0.0096 -1.1090 -0.1176
   40POPC  H14A 5316   2.595   4.976   6.394  0.4907 -0.6796 -0.4030
   40POPC  H14B 5317   2.635   4.827   6.483  0.2199  0.9100  2.3833
   40POPC  H14C 5318   2.742   4.952   6.481 -0.3858 -0.5329 -0.1216
   40POPC   C15 5319   2.839   4.954   6.242  0.3406 -0.5043  0.4023
   40POPC  H15A 5320   2.880   4.915   6.150 -0.6025 -2.2679  0.6861
   40POPC  H15B 5321   2.913   4.978   6.316  0.7040  1.1234 -0.4303
   40POPC  H15C 5322   2.787   5.045   6.212  0.8112 -1.1131 -2.6264
   40POPC   C11 5323   2.747   4.614   6.397  0.1073  0.6434  0.4655
   40POPC  H11A 5324   2.725   4.642   6.503 -1.5238  1.8080 -0.1392
   40POPC  H11B 5325   2.827   4.538   6.408 -0.2762 -0.0639 -1.3047
   40POPC     P 5326   2.503   4.501   6.370 -0.8746 -0.0321 -0.1461
   40POPC   O13 5327   2.465   4.416   6.254  0.5167  0.1883  0.2212
   40POPC   O14 5328   2.404   4.601   6.409  0.3327 -0.4649 -0.3581
   40POPC   O12 5329   2.638   4.570   6.321 -0.1221 -0.0052  1.0467
   40POPC   O11 5330   2.557   4.419   6.494  0.2744 -0.0903 -0.5625
   40POPC    C1 5331   2.541   4.276   6.503  0.0519 -0.2129 -0.5503
   40POPC    HA 5332   2.577   4.222   6.414  1.2927 -2.8640  1.4306
   40POPC    HB 5333   2.433   4.254   6.514 -0.5500  1.9027 -1.7362
   40POPC    C2 5334   2.629   4.217   6.615  0.3411 -0.5274  0.4035
   40POPC    HS 5335   2.603   4.109   6.611 -0.1603 -0.3690 -1.4595
   40POPC   O21 5336   2.606   4.276   6.743 -0.3615 -0.2176 -0.4560
   40POPC   C21 5337   2.496   4.226   6.804  0.3632  0.3496 -0.4104
   40POPC   O22 5338   2.432   4.133   6.755  0.0449 -0.0115  0.0428
   40POPC   C22 5339   2.472   4.302   6.925  0.2579  0.3598 -0.1751
   40POPC   H2R 5340   2.365   4.301   6.953  0.9329 -1.1609  2.7288
   40POPC   H2S 5341   2.507   4.408   6.923 -2.5367  1.3589 -0.2914
   40POPC    C3 5342   2.775   4.236   6.588  0.5772  0.0319 -0.2531
   40POPC    HX 5343   2.788   4.346   6.575  0.0610  0.0230 -0.8939
   40POPC    HY 5344   2.800   4.188   6.491  0.0690  0.4103 -0.5802
   40POPC   O31 5345   2.852   4.181   6.693  0.6603  0.0357 -0.4683
   40POPC   C31 5346   2.897   4.267   6.791 -0.3013 -1.6865  0.3476
   40POPC   O32 5347   2.869   4.385   6.803  0.2615  0.0406  0.0296
   40POPC   C32 5348   2.989   4.204   6.893  0.3891  0.0692  0.0596
   40POPC   H2X 5349   3.091   4.247   6.896 -0.1836  1.4615  0.1362
   40POPC   H2Y 5350   2.999   4.097   6.864 -2.0543 -0.1450 -0.2305
   40POPC   C23 5351   2.528   4.218   7.044  0.3486 -1.0079 -0.3213
   40POPC   H3R 5352   2.639   4.221   7.051  0.2771 -0.9077  1.1641
   40POPC   H3S 5353   2.494   4.112   7.040  0.4410 -1.0730  0.4208
   40POPC   C24 5354   2.475   4.272   7.182  0.1738 -0.1312  0.4676
   40POPC   H4R 5355   2.490   4.196   7.261 -0.4605  1.9310  2.6934
   40POPC   H4S 5356   2.368   4.300   7.175 -0.5120 -2.9601 -2.1934
   40POPC   C25 5357   2.553   4.387   7.230  0.2755 -0.0912 -0.2641
   40POPC   H5R 5358   2.548   4.471   7.157  0.6504  1.1213  1.0571
   40POPC   H5S 5359   2.659   4.351   7.229  0.2100 -0.3581  0.9085
   40POPC   C26 5360   2.502   4.416   7.366 -0.1751  0.5680  0.2169
   40POPC   H6R 5361   2.395   4.442   7.370  0.0008  1.2008  1.0255
   40POPC   H6S 5362   2.549   4.512   7.396  1.8945 -0.5782  0.8942
   40POPC   C27 5363   2.533   4.306   7.484 -0.1054 -0.2505  0.4208
   40POPC   H7R 5364   2.631   4.254   7.479 -0.6103 -1.1399 -0.6985
   40POPC   H7S 5365   2.459   4.223   7.490  0.7099 -1.0163 -0.0146
   40POPC   C28 5366   2.538   4.378   7.619  0.4787  0.3519  0.1641
   40POPC   H8R 5367   2.618   4.455   7.628  1.3754 -0.7264  2.3066
   40POPC   H8S 5368   2.556   4.300   7.697 -1.0536  0.3369  0.5456
   40POPC   C29 5369   2.409   4.448   7.661 -0.1935 -0.3074 -0.4406
   40POPC   H91 5370   2.379   4.535   7.600 -0.6265 -0.9248 -1.1260
   40POPC  C210 5371   2.329   4.416   7.759 -0.1957  0.1154 -0.2677
   40POPC  H101 5372   2.237   4.473   7.776 -0.5035 -0.4211 -0.1133
   40POPC  C211 5373   2.337   4.298   7.857 -0.3923  0.3463  0.0755
   40POPC  H11R 5374   2.381   4.206   7.811  0.9634  1.3852 -0.7779
   40POPC  H11S 5375   2.243   4.255   7.899 -0.2576  0.5463  0.5836
   40POPC  C212 5376   2.430   4.348   7.963  0.2228 -0.9469 -0.3070
   40POPC  H12R 5377   2.530   4.364   7.917  0.0479 -1.6359 -0.9382
   40POPC  H12S 5378   2.437   4.266   8.038 -2.3029 -1.7486 -0.8353
   40POPC  C213 5379   2.379   4.468   8.040 -0.0834  0.2189 -0.7614
   40POPC  H13R 5380   2.268   4.476   8.047  0.1075  4.3384  0.4158
   40POPC  H13S 5381   2.408   4.562   7.987  0.1479  1.5564  1.5771
   40POPC  C214 5382   2.432   4.466   8.180 -0.3972  0.0986 -0.8721
   40POPC  H14R 5383   2.538   4.433   8.180  0.6146  3.0379 -0.7739
   40POPC  H14S 5384   2.377   4.391   8.241  0.4452  0.0352 -0.1719
   40POPC  C215 5385   2.431   4.603   8.242  0.5456 -0.1568 -0.1249
   40POPC  H15R 5386   2.344   4.656   8.199  0.9560 -0.0597 -0.8427
   40POPC  H15S 5387   2.519   4.665   8.216 -0.5807  0.4133 -2.8602
   40POPC  C216 5388   2.405   4.592   8.396 -0.7332  0.3565 -0.4542
   40POPC  H16R 5389   2.488   4.526   8.429 -1.2257  0.6211  1.4756
   40POPC  H16S 5390   2.317   4.535   8.435  0.3908 -1.2844 -0.2405
   40POPC  C217 5391   2.415   4.719   8.476  0.0679 -0.4386  0.8486
   40POPC  H17R 5392   2.313   4.760   8.462 -0.4941 -2.5220 -2.2946
   40POPC  H17S 5393   2.468   4.798   8.419 -2.2684  0.0235 -0.8672
   40POPC  C218 5394   2.476   4.715   8.613  0.0563  0.1974 -1.4038
   40POPC  H18R 5395   2.478   4.818   8.656  1.0829  0.2458 -1.5419
   40POPC  H18S 5396   2.579   4.675   8.621  0.0503  0.1733 -1.4497
   40POPC  H18T 5397   2.406   4.660   8.680 -1.1800  2.0591 -1.0679
   40POPC   C33 5398   2.911   4.209   7.029  0.0994 -0.0207 -0.3676
   40POPC   H3X 5399   2.837   4.127   7.040  2.2337 -2.1037 -0.6014
   40POPC   H3Y 5400   2.876   4.314   7.037  1.1470  0.2672  0.5980
   40POPC   C34 5401   3.003   4.185   7.146 -0.2814  0.4165  0.2516
   40POPC   H4X 5402   3.094   4.249   7.133 -0.0993 -0.2849 -2.6908
   40POPC   H4Y 5403   3.025   4.080   7.173  0.9530  0.5732 -0.0845
   40POPC   C35 5404   2.935   4.239   7.272  0.0735  0.5848 -0.6716
   40POPC   H5X 5405   2.840   4.181   7.283 -0.0997  0.9429 -0.2255
   40POPC   H5Y 5406   2.909   4.345   7.251 -0.8670  0.3080 -0.9522
   40POPC   C36 5407   3.009   4.248   7.412  0.4466  0.4767 -0.7660
   40POPC   H6X 5408   3.107   4.295   7.392 -0.2514  2.5189  0.3366
   40POPC   H6Y 5409   3.026   4.145   7.449 -1.1070  0.2913 -0.4725
   40POPC   C37 5410   2.943   4.344   7.516 -0.3652 -0.0411  0.6068
   40POPC   H7X 5411   2.832   4.334   7.523 -0.8073  2.0388 -2.1258
   40POPC   H7Y 5412   2.947   4.442   7.466 -0.9762 -0.0139  0.6024
   40POPC   C38 5413   3.000   4.322   7.658 -0.1354  0.0367  0.4036
   40POPC   H8X 5414   3.109   4.339   7.648 -0.3249  0.1843 -2.1053
   40POPC   H8Y 5415   2.991   4.215   7.688 -1.2645  0.2200  0.7704
   40POPC   C39 5416   2.936   4.399   7.773 -0.3982 -0.2716  0.2100
   40POPC   H9X 5417   2.826   4.384   7.783 -0.7363  1.8772  0.1756
   40POPC   H9Y 5418   2.947   4.505   7.744 -2.7790 -0.2378 -0.8273
   40POPC  C310 5419   2.999   4.378   7.907 -0.1030  0.4941 -0.5529
   40POPC  H10X 5420   3.108   4.368   7.889 -0.3873 -2.1419 -1.1380
   40POPC  H10Y 5421   2.965   4.281   7.948  1.3378  1.5281  3.5543
   40POPC  C311 5422   2.979   4.486   8.017  0.1447  0.1807 -0.0398
   40POPC  H11X 5423   2.996   4.587   7.976 -1.4157  0.4441 -0.1002
   40POPC  H11Y 5424   3.049   4.465   8.102  3.7161  2.0925 -2.2707
   40POPC  C312 5425   2.834   4.480   8.073  0.1270 -0.2811 -0.0087
   40POPC  H12X 5426   2.816   4.377   8.111 -0.0029 -0.7643 -1.3295
   40POPC  H12Y 5427   2.766   4.510   7.991 -1.0496 -0.6369  0.8050
   40POPC  C313 5428   2.809   4.572   8.191  0.0628 -0.4160 -0.0773
   40POPC  H13X 5429   2.700   4.592   8.177  0.3990  0.7052 -1.1885
   40POPC  H13Y 5430   2.862   4.662   8.156  0.3259 -0.8331 -0.7709
   40POPC  C314 5431   2.858   4.524   8.324  0.0285 -0.1506  0.2130
   40POPC  H14X 5432   2.959   4.476   8.321 -0.2821 -0.8833  1.1299
   40POPC  H14Y 5433   2.788   4.443   8.352  0.7722 -1.5146 -1.6380
   40POPC  C315 5434   2.862   4.616   8.450 -0.9268  0.3803  0.2954
   40POPC  H15X 5435   2.761   4.642   8.489 -0.8926 -1.1012  1.4830
   40POPC  H15Y 5436   2.917   4.707   8.417  0.6317 -0.6883 -0.1786
   40POPC  C316 5437   2.939   4.538   8.564  0.4014 -0.2566  0.4090
   40POPC  H16X 5438   2.892   4.441   8.592 -0.5720 -0.1664 -0.8267
   40POPC  H16Y 5439   2.938   4.598   8.657  2.5531  1.7549 -0.7569
   40POPC  H16Z 5440   3.041   4.519   8.525  0.1019  1.0859 -1.1440
   41CHL1    C3 5441   3.387   0.015  10.036  0.6964 -0.4554  0.0563
   41CHL1    H3 5442   3.444  -0.073  10.001 -0.2136 -1.5533  1.2424
   41CHL1    O3 5443   3.409   0.023  10.172 -0.3811  0.2828 -0.1680
   41CHL1   H3' 5444   3.365   0.102  10.204  2.0795  1.4859  0.5006
   41CHL1    C4 5445   3.435   0.149   9.971 -0.2416  0.7755  0.5360
   41CHL1   H4A 5446   3.380   0.229  10.026  0.7283  1.6733  0.2486
   41CHL1   H4B 5447   3.545   0.160   9.985  0.0635 -1.2020 -0.1342
   41CHL1    C5 5448   3.408   0.145   9.817  0.0658  0.1031 -0.8853
   41CHL1    C6 5449   3.512   0.145   9.724 -0.1907  0.9036  0.5494
   41CHL1    H6 5450   3.613   0.155   9.765 -0.4377  0.5563  1.2756
   41CHL1    C7 5451   3.492   0.138   9.577 -0.6043  0.6336  0.0818
   41CHL1   H7A 5452   3.550   0.217   9.525 -0.8677 -0.6449 -2.2947
   41CHL1   H7B 5453   3.532   0.041   9.540  0.7156  1.5676 -1.0285
   41CHL1    C8 5454   3.352   0.172   9.547 -0.1174  0.7156  0.5092
   41CHL1    H8 5455   3.340   0.283   9.555  0.4418  0.8722 -0.6623
   41CHL1   C14 5456   3.332   0.136   9.394 -0.3670 -0.2504  0.0464
   41CHL1   H14 5457   3.352   0.026   9.393 -0.6035 -0.2906 -0.9771
   41CHL1   C15 5458   3.434   0.194   9.299 -0.8098 -0.1736  0.0643
   41CHL1  H15A 5459   3.467   0.298   9.318  1.4311 -0.5642 -1.2643
   41CHL1  H15B 5460   3.521   0.124   9.294 -1.3539 -0.8437 -0.2873
   41CHL1   C16 5461   3.374   0.185   9.156 -0.1491 -0.4119 -0.2471
   41CHL1  H16A 5462   3.371   0.286   9.110 -0.1229 -0.2313  0.1401
   41CHL1  H16B 5463   3.436   0.115   9.097  0.6605 -0.0883  0.2076
   41CHL1   C17 5464   3.233   0.132   9.188  0.5494 -0.5502 -0.7993
   41CHL1   H17 5465   3.238   0.022   9.199  0.4282 -0.3746  1.5546
   41CHL1   C13 5466   3.199   0.171   9.334  0.5162 -0.0134 -0.2250
   41CHL1   C18 5467   3.169   0.320   9.348 -0.4741 -0.8181 -0.1024
   41CHL1  H18A 5468   3.162   0.355   9.453 -2.1535  1.5484 -0.9153
   41CHL1  H18B 5469   3.247   0.387   9.305 -0.5569 -1.4787 -1.3318
   41CHL1  H18C 5470   3.069   0.338   9.304 -0.8288 -0.0788  0.9770
   41CHL1   C12 5471   3.096   0.083   9.421  0.8231  0.0467  0.5231
   41CHL1  H12A 5472   2.990   0.096   9.389  0.3778  0.4238  2.0554
   41CHL1  H12B 5473   3.122  -0.022   9.398  0.6193 -0.0422  0.6974
   41CHL1   C11 5474   3.109   0.119   9.567 -0.7043 -0.1811  0.5987
   41CHL1  H11A 5475   3.083   0.226   9.577 -2.2181 -0.6819  2.7348
   41CHL1  H11B 5476   3.043   0.049   9.623 -1.8864  0.9601  0.6604
   41CHL1    C9 5477   3.250   0.102   9.627  0.6280  0.6056 -0.0757
   41CHL1    H9 5478   3.264  -0.008   9.622 -2.3425  0.0683  1.3894
   41CHL1   C10 5479   3.264   0.126   9.780  0.3513  0.1574  0.0904
   41CHL1   C19 5480   3.191   0.260   9.817  0.6327 -0.2352 -0.2058
   41CHL1  H19A 5481   3.209   0.287   9.923  0.3413  0.8887 -0.4317
   41CHL1  H19B 5482   3.213   0.344   9.748 -2.2588  0.2734 -0.6479
   41CHL1  H19C 5483   3.081   0.246   9.810  0.7308 -1.7105  0.6383
   41CHL1    C1 5484   3.203   0.009   9.859 -0.4588 -0.4469  0.3420
   41CHL1   H1A 5485   3.093   0.017   9.842 -0.1854  0.9133 -0.9633
   41CHL1   H1B 5486   3.243  -0.090   9.827 -1.5743 -0.9537  0.4717
   41CHL1    C2 5487   3.240   0.013  10.008 -0.6637  0.3840  0.0939
   41CHL1   H2A 5488   3.183  -0.067  10.061 -1.9118  0.4892 -1.0437
   41CHL1   H2B 5489   3.202   0.105  10.058  2.8065  1.8646  0.2454
   41CHL1   C20 5490   3.125   0.175   9.086 -0.0816  0.5586 -0.8869
   41CHL1   H20 5491   3.122   0.286   9.086 -2.9209  0.5680 -0.1833
   41CHL1   C21 5492   2.986   0.114   9.119 -0.5767  0.3132  0.7137
   41CHL1  H21A 5493   2.908   0.111   9.040  0.1585 -2.5317 -0.0268
   41CHL1  H21B 5494   2.937   0.177   9.197 -0.8306  3.5444 -1.8225
   41CHL1  H21C 5495   2.999   0.005   9.138 -0.0705  0.0031 -1.2103
   41CHL1   C22 5496   3.173   0.125   8.948 -0.6109 -0.0873  0.3159
   41CHL1  H22A 5497   3.103   0.153   8.866  1.7857  1.3092 -1.3991
   41CHL1  H22B 5498   3.265   0.184   8.923 -2.7132  2.5056 -2.0352
   41CHL1   C23 5499   3.189  -0.030   8.926  0.5549 -0.5884 -0.0030
   41CHL1  H23A 5500   3.277  -0.070   8.981  0.3760 -0.3505  0.4607
   41CHL1  H23B 5501   3.098  -0.082   8.964 -1.3787  2.5736  0.1287
   41CHL1   C24 5502   3.201  -0.071   8.780  0.5066 -0.5345  0.1210
   41CHL1  H24A 5503   3.100  -0.070   8.734 -0.4588 -1.3397  2.0954
   41CHL1  H24B 5504   3.264   0.003   8.725  1.3396 -0.8759  0.5903
   41CHL1   C25 5505   3.239  -0.214   8.749  0.2281  0.2787 -0.2658
   41CHL1   H25 5506   3.166  -0.292   8.779 -1.9002  2.3762  0.2889
   41CHL1   C26 5507   3.247  -0.235   8.595 -0.1181  0.2171 -0.4020
   41CHL1  H26A 5508   3.150  -0.219   8.544  0.5429  2.3672 -1.1107
   41CHL1  H26B 5509   3.314  -0.157   8.553  0.0736  0.7189  0.8029
   41CHL1  H26C 5510   3.295  -0.330   8.563 -2.1941  0.2312 -4.0889
   41CHL1   C27 5511   3.377  -0.259   8.803  0.1203  0.2632 -0.6547
   41CHL1  H27A 5512   3.394  -0.245   8.912  2.0366 -0.3054 -0.8412
   41CHL1  H27B 5513   3.400  -0.365   8.779  0.7156 -0.0278  1.0350
   41CHL1  H27C 5514   3.462  -0.212   8.748 -0.7613 -1.1054 -3.3165
   42CHL1    C3 5515   2.055   0.222   9.797 -0.2177 -0.3691  0.1331
   42CHL1    H3 5516   1.971   0.163   9.841 -1.2632 -0.3607 -1.7610
   42CHL1    O3 5517   2.107   0.302   9.904 -0.1932  0.8751  0.2412
   42CHL1   H3' 5518   2.112   0.390   9.866 -0.8340 -0.0699 -2.2568
   42CHL1    C4 5519   2.164   0.130   9.744 -0.0613  0.2984  0.6508
   42CHL1   H4A 5520   2.244   0.194   9.701  1.0412 -0.5080  1.4686
   42CHL1   H4B 5521   2.211   0.072   9.826 -0.7030  2.1402  2.4030
   42CHL1    C5 5522   2.106   0.042   9.634 -0.4968  0.9934 -0.1147
   42CHL1    C6 5523   2.125  -0.090   9.638 -0.0586 -0.2200 -0.4765
   42CHL1    H6 5524   2.179  -0.139   9.720  0.9152 -0.5198 -1.2742
   42CHL1    C7 5525   2.088  -0.184   9.535  0.0830 -0.4592  0.6873
   42CHL1   H7A 5526   2.172  -0.254   9.514 -0.0111  0.0099 -1.5249
   42CHL1   H7B 5527   2.011  -0.258   9.566  1.8831 -1.6419  2.6362
   42CHL1    C8 5528   2.035  -0.113   9.402  0.0432 -0.3928  0.3584
   42CHL1    H8 5529   2.127  -0.089   9.344 -1.2400  1.7550 -0.9400
   42CHL1   C14 5530   1.950  -0.205   9.312  0.0511 -0.0376 -0.0026
   42CHL1   H14 5531   1.859  -0.234   9.368  1.0309 -0.6596  1.3535
   42CHL1   C15 5532   2.012  -0.339   9.273 -0.2795 -0.2381 -0.3015
   42CHL1  H15A 5533   2.117  -0.328   9.238  0.2371 -3.1601  0.0876
   42CHL1  H15B 5534   2.011  -0.411   9.358  1.3407 -0.9178 -0.8201
   42CHL1   C16 5535   1.926  -0.384   9.156  0.0469  0.7171 -0.2466
   42CHL1  H16A 5536   1.990  -0.421   9.073 -2.8010 -2.1635 -1.3718
   42CHL1  H16B 5537   1.854  -0.464   9.181  0.3089 -0.1916 -2.2724
   42CHL1   C17 5538   1.844  -0.260   9.099 -0.0750 -0.5823 -0.4995
   42CHL1   H17 5539   1.747  -0.269   9.152 -0.3586  0.0922 -0.9016
   42CHL1   C13 5540   1.907  -0.138   9.176  0.0052  0.3783 -0.8518
   42CHL1   C18 5541   2.035  -0.092   9.096  0.1613 -0.3325 -0.4016
   42CHL1  H18A 5542   2.005  -0.056   8.995 -1.4306 -0.3581  0.0496
   42CHL1  H18B 5543   2.093  -0.011   9.147  2.6189 -0.4316 -2.7481
   42CHL1  H18C 5544   2.111  -0.171   9.079  1.0623  0.4801 -0.3047
   42CHL1   C12 5545   1.815  -0.020   9.211  0.7458 -0.1190 -0.6007
   42CHL1  H12A 5546   1.769   0.039   9.129  0.6227  1.3501  0.4874
   42CHL1  H12B 5547   1.730  -0.062   9.270  2.4032 -0.6022  1.5634
   42CHL1   C11 5548   1.888   0.079   9.302  0.5767 -0.1373  0.1816
   42CHL1  H11A 5549   1.962   0.135   9.240  0.7971  0.5756  1.0583
   42CHL1  H11B 5550   1.821   0.162   9.332 -0.0188 -0.4061 -0.3962
   42CHL1    C9 5551   1.953   0.014   9.430 -0.4037  0.7577 -0.2621
   42CHL1    H9 5552   1.869  -0.022   9.493  1.2629 -1.4941  0.7869
   42CHL1   C10 5553   2.031   0.113   9.519  1.0684 -0.3111  0.4497
   42CHL1   C19 5554   2.138   0.183   9.432  0.2854 -0.0342 -0.1043
   42CHL1  H19A 5555   2.216   0.109   9.404 -0.3729 -1.1785  1.0023
   42CHL1  H19B 5556   2.094   0.220   9.337  1.5617  0.2871 -0.5894
   42CHL1  H19C 5557   2.186   0.270   9.481  3.4919 -0.0730 -2.8424
   42CHL1    C1 5558   1.934   0.220   9.576  0.8812  0.8120 -0.1856
   42CHL1   H1A 5559   1.889   0.290   9.501  0.8419 -0.5729 -1.4987
   42CHL1   H1B 5560   1.843   0.170   9.616  0.7722  0.7466 -0.5115
   42CHL1    C2 5561   1.993   0.308   9.684 -0.3375  0.0764  0.3815
   42CHL1   H2A 5562   1.920   0.374   9.736  1.2076  1.3112  1.0469
   42CHL1   H2B 5563   2.082   0.359   9.642  1.7851 -2.4205  1.5429
   42CHL1   C20 5564   1.832  -0.263   8.957 -0.1012 -0.3871 -0.0638
   42CHL1   H20 5565   1.929  -0.233   8.912 -1.0158  2.7456 -0.2218
   42CHL1   C21 5566   1.726  -0.156   8.910 -0.0748  0.2639 -0.3473
   42CHL1  H21A 5567   1.700  -0.155   8.803  0.5391 -2.0770 -0.5630
   42CHL1  H21B 5568   1.769  -0.056   8.935  0.3152 -0.1267  0.5979
   42CHL1  H21C 5569   1.636  -0.169   8.973 -0.7906 -0.4291 -1.4896
   42CHL1   C22 5570   1.781  -0.400   8.902  0.2609 -0.4204  0.0892
   42CHL1  H22A 5571   1.844  -0.479   8.948  0.9294  0.2650  0.3716
   42CHL1  H22B 5572   1.680  -0.408   8.947  1.3060  1.3735  3.0313
   42CHL1   C23 5573   1.783  -0.414   8.748  0.4517 -0.3232  0.0219
   42CHL1  H23A 5574   1.752  -0.322   8.694 -0.0502  0.1035  1.0118
   42CHL1  H23B 5575   1.888  -0.437   8.720  1.1075  0.6668  1.5281
   42CHL1   C24 5576   1.709  -0.537   8.696 -0.0588 -0.1910  0.2270
   42CHL1  H24A 5577   1.763  -0.633   8.714  0.3187 -0.5605 -2.4519
   42CHL1  H24B 5578   1.609  -0.541   8.743 -0.9596  1.9002 -1.3855
   42CHL1   C25 5579   1.694  -0.517   8.547  0.4368 -0.2877 -0.5795
   42CHL1   H25 5580   1.636  -0.424   8.534 -0.3289 -0.2198  2.6064
   42CHL1   C26 5581   1.818  -0.497   8.464 -0.2885 -0.5287 -0.2128
   42CHL1  H26A 5582   1.879  -0.589   8.447 -0.8642 -1.0521  0.4895
   42CHL1  H26B 5583   1.790  -0.478   8.358  1.1470 -1.5291 -0.8125
   42CHL1  H26C 5584   1.865  -0.402   8.497 -2.3825  0.2710  0.6535
   42CHL1   C27 5585   1.617  -0.630   8.482  0.1009  0.0622 -0.9194
   42CHL1  H27A 5586   1.586  -0.610   8.377 -1.6517  0.6272 -0.3387
   42CHL1  H27B 5587   1.681  -0.721   8.486  0.5800  0.4206 -0.2601
   42CHL1  H27C 5588   1.524  -0.650   8.538  1.1363 -0.8578  0.5268
   43CHL1    C3 5589   2.734   0.034   9.833  0.1345 -0.3621  0.1530
   43CHL1    H3 5590   2.809   0.104   9.790 -1.3615  0.5696 -0.9975
   43CHL1    O3 5591   2.759   0.015   9.969  0.0885 -0.1890  0.2606
   43CHL1   H3' 5592   2.784   0.097  10.014 -0.3849 -0.4301  0.9815
   43CHL1    C4 5593   2.599   0.088   9.813  0.6129  0.0676  0.3272
   43CHL1   H4A 5594   2.520   0.019   9.852  1.5144 -0.7863  0.6745
   43CHL1   H4B 5595   2.584   0.183   9.869 -1.4121  0.1675 -0.2902
   43CHL1    C5 5596   2.574   0.102   9.663  0.0401 -0.4453  0.0024
   43CHL1    C6 5597   2.548   0.220   9.611 -0.2836 -0.5798  0.3765
   43CHL1    H6 5598   2.531   0.304   9.681 -1.2725 -0.7771  0.3949
   43CHL1    C7 5599   2.535   0.265   9.471 -0.4565 -0.0085  0.3526
   43CHL1   H7A 5600   2.453   0.339   9.466 -0.0580  0.4228  0.2018
   43CHL1   H7B 5601   2.635   0.306   9.446  0.7764 -2.0266  1.6641
   43CHL1    C8 5602   2.519   0.140   9.383 -0.3429  0.7452  0.1051
   43CHL1    H8 5603   2.413   0.106   9.382  0.3551 -1.6554 -1.1168
   43CHL1   C14 5604   2.548   0.177   9.238  0.5777  0.9370  0.4180
   43CHL1   H14 5605   2.656   0.204   9.237  1.2797 -1.5220 -1.4927
   43CHL1   C15 5606   2.466   0.291   9.184  0.2677  0.2945  0.2548
   43CHL1  H15A 5607   2.361   0.257   9.200  0.9225 -2.5811 -0.9657
   43CHL1  H15B 5608   2.471   0.398   9.215 -1.3370  0.9384 -1.4936
   43CHL1   C16 5609   2.498   0.279   9.034  0.0412 -0.6507 -0.1671
   43CHL1  H16A 5610   2.402   0.286   8.979 -1.1150 -0.3933  1.8144
   43CHL1  H16B 5611   2.574   0.358   9.011  1.8025 -2.6139 -1.4778
   43CHL1   C17 5612   2.576   0.142   9.006  0.0859 -0.2478  0.2116
   43CHL1   H17 5613   2.685   0.160   9.008 -0.0928  0.8554  1.2935
   43CHL1   C13 5614   2.544   0.063   9.132  0.4920  0.5222 -0.0290
   43CHL1   C18 5615   2.401   0.010   9.125 -0.3106 -0.0013 -0.3592
   43CHL1  H18A 5616   2.390  -0.069   9.048  0.5239 -0.2570 -0.2258
   43CHL1  H18B 5617   2.363  -0.039   9.217 -1.5374 -0.0028 -0.8512
   43CHL1  H18C 5618   2.332   0.084   9.080  0.8430  1.2926 -0.0668
   43CHL1   C12 5619   2.643  -0.049   9.171  0.0043 -0.0610 -0.4941
   43CHL1  H12A 5620   2.625  -0.135   9.102 -0.5472  0.4325 -0.9817
   43CHL1  H12B 5621   2.748  -0.016   9.159  0.0652  1.0111  2.3366
   43CHL1   C11 5622   2.630  -0.087   9.323 -0.1409 -0.0382  0.4365
   43CHL1  H11A 5623   2.539  -0.151   9.333  0.0424  0.0291  3.2905
   43CHL1  H11B 5624   2.716  -0.155   9.341  1.8812  1.5441 -2.5123
   43CHL1    C9 5625   2.622   0.033   9.423  0.3900  0.4021 -0.4810
   43CHL1    H9 5626   2.720   0.086   9.417 -0.2335  1.4717 -1.6352
   43CHL1   C10 5627   2.605  -0.012   9.569 -0.0250 -0.1107 -0.0186
   43CHL1   C19 5628   2.489  -0.116   9.590 -0.2127  0.3777  0.9506
   43CHL1  H19A 5629   2.392  -0.075   9.554 -0.3298 -1.2244 -0.7315
   43CHL1  H19B 5630   2.509  -0.204   9.525  1.2322  1.0431  0.4441
   43CHL1  H19C 5631   2.481  -0.154   9.695  0.7257 -0.2286  0.8141
   43CHL1    C1 5632   2.743  -0.071   9.612 -0.3992 -0.0322  0.2792
   43CHL1   H1A 5633   2.745  -0.168   9.558 -2.3958  1.0249 -1.8644
   43CHL1   H1B 5634   2.830  -0.009   9.579  0.6264 -1.0409  1.0064
   43CHL1    C2 5635   2.751  -0.100   9.758  0.6932 -0.8836 -0.0139
   43CHL1   H2A 5636   2.845  -0.151   9.788  0.6833 -1.7812 -1.4022
   43CHL1   H2B 5637   2.667  -0.159   9.801 -0.3810  0.3822 -0.3371
   43CHL1   C20 5638   2.538   0.091   8.865  0.3509 -0.0241 -0.4275
   43CHL1   H20 5639   2.429   0.070   8.851  0.2205  0.0215  0.4513
   43CHL1   C21 5640   2.603  -0.047   8.847  0.5383  0.7904 -0.5992
   43CHL1  H21A 5641   2.547  -0.124   8.905  1.0822  1.4391  0.8272
   43CHL1  H21B 5642   2.712  -0.041   8.868  0.1770 -0.7132  2.1693
   43CHL1  H21C 5643   2.602  -0.088   8.743 -0.4269  1.3041 -0.8126
   43CHL1   C22 5644   2.583   0.194   8.745 -0.0699  0.4134 -0.3044
   43CHL1  H22A 5645   2.560   0.299   8.773 -1.4117 -0.4536  2.2036
   43CHL1  H22B 5646   2.692   0.179   8.734 -0.3064 -1.7235 -0.1912
   43CHL1   C23 5647   2.519   0.158   8.607  0.0291  0.1646  0.7819
   43CHL1  H23A 5648   2.577   0.220   8.535  0.3569  1.1281  1.8455
   43CHL1  H23B 5649   2.530   0.055   8.566 -1.3849  0.5475 -0.6756
   43CHL1   C24 5650   2.372   0.203   8.601 -0.1906 -0.0351 -0.2445
   43CHL1  H24A 5651   2.312   0.158   8.683 -2.1105 -0.6618 -1.9019
   43CHL1  H24B 5652   2.377   0.313   8.611  0.7898 -0.0047 -0.8985
   43CHL1   C25 5653   2.301   0.167   8.462 -0.4749  0.6421 -0.9145
   43CHL1   H25 5654   2.371   0.166   8.376  0.0272 -1.1808 -0.5199
   43CHL1   C26 5655   2.259   0.021   8.475  1.1730  0.6562 -0.3656
   43CHL1  H26A 5656   2.198  -0.009   8.387  0.0182  0.1128  0.5920
   43CHL1  H26B 5657   2.350  -0.042   8.467 -0.3999 -1.6784 -1.0331
   43CHL1  H26C 5658   2.203  -0.003   8.568  0.3611 -0.8624 -1.2072
   43CHL1   C27 5659   2.190   0.268   8.436  0.5424  0.1060  0.8937
   43CHL1  H27A 5660   2.230   0.371   8.419  0.4271 -0.1496 -1.2341
   43CHL1  H27B 5661   2.130   0.234   8.349  2.1849  1.5409 -0.9044
   43CHL1  H27C 5662   2.125   0.275   8.526 -1.7869 -3.1654 -0.3553
   44CHL1    C3 5663   4.006   1.059  10.281  0.5639 -0.4499  0.0913
   44CHL1    H3 5664   3.895   1.056  10.283  0.4441  1.2432 -1.4921
   44CHL1    O3 5665   4.054   1.039  10.412  0.5115 -0.0972 -0.0120
   44CHL1   H3' 5666   4.070   1.124  10.456  1.5272 -1.0317  1.5309
   44CHL1    C4 5667   4.063   0.949  10.189  0.1394  0.1769  0.0728
   44CHL1   H4A 5668   4.173   0.946  10.205  0.5429 -1.9727 -2.3153
   44CHL1   H4B 5669   4.018   0.857  10.233 -1.0683  1.5168  1.7479
   44CHL1    C5 5670   4.028   0.960  10.045  0.6119 -0.1327  0.3949
   44CHL1    C6 5671   3.955   0.868   9.983 -0.8347  0.4494  0.2055
   44CHL1    H6 5672   3.924   0.780  10.041 -2.2937  1.8763  1.6983
   44CHL1    C7 5673   3.928   0.873   9.842  0.2897  0.2027 -0.3694
   44CHL1   H7A 5674   3.945   0.779   9.785  2.7690  0.9508 -0.9954
   44CHL1   H7B 5675   3.818   0.884   9.831 -0.2026 -0.4082  2.9098
   44CHL1    C8 5676   4.001   0.986   9.754 -0.1917  0.5077 -0.9739
   44CHL1    H8 5677   4.106   0.957   9.734  0.2668  1.7508 -0.4478
   44CHL1   C14 5678   3.926   1.019   9.620 -0.3004 -0.1465 -0.4802
   44CHL1   H14 5679   3.820   1.049   9.631 -0.4162 -0.2729 -1.2056
   44CHL1   C15 5680   3.898   0.905   9.518  0.3136 -0.2076 -0.3514
   44CHL1  H15A 5681   3.985   0.838   9.505 -0.1161 -0.9107  0.3262
   44CHL1  H15B 5682   3.820   0.830   9.544  1.1932 -1.2662 -0.6821
   44CHL1   C16 5683   3.858   0.982   9.397  0.4766 -0.6863  0.1544
   44CHL1  H16A 5684   3.912   0.935   9.312 -0.4732 -2.1013  0.3001
   44CHL1  H16B 5685   3.750   0.968   9.375  0.8919 -1.0847 -1.8022
   44CHL1   C17 5686   3.901   1.134   9.421  0.4698  0.0964 -0.1572
   44CHL1   H17 5687   3.804   1.178   9.454  0.3962  0.4011 -0.7650
   44CHL1   C13 5688   3.994   1.134   9.544  0.1622 -0.3205 -0.1630
   44CHL1   C18 5689   4.140   1.101   9.504  0.2971 -0.2463  0.2146
   44CHL1  H18A 5690   4.184   1.194   9.463 -0.7477  0.9099  1.6244
   44CHL1  H18B 5691   4.205   1.075   9.590 -0.4330  2.1072  1.5445
   44CHL1  H18C 5692   4.147   1.018   9.430 -1.0230 -0.1325 -0.0550
   44CHL1   C12 5693   3.991   1.259   9.643  0.3951 -0.3115  0.6499
   44CHL1  H12A 5694   4.017   1.352   9.588  1.2068 -1.3682 -0.8268
   44CHL1  H12B 5695   3.886   1.266   9.678  0.5643  0.4490  1.0184
   44CHL1   C11 5696   4.074   1.237   9.765  0.1341  0.1191  0.5004
   44CHL1  H11A 5697   4.180   1.233   9.732 -0.0692 -1.8189 -0.0844
   44CHL1  H11B 5698   4.059   1.329   9.825 -0.7524  0.1549  0.2429
   44CHL1    C9 5699   4.014   1.112   9.841  0.2348  0.4470 -0.5357
   44CHL1    H9 5700   3.910   1.137   9.868 -0.0504 -1.6282  0.4316
   44CHL1   C10 5701   4.078   1.096   9.982 -0.8468  0.0510 -0.4875
   44CHL1   C19 5702   4.233   1.092   9.969  0.3737  0.3704 -0.3314
   44CHL1  H19A 5703   4.278   1.185   9.925  3.8203 -1.5917 -1.3545
   44CHL1  H19B 5704   4.280   1.065  10.065 -0.6775 -2.8364 -0.6075
   44CHL1  H19C 5705   4.256   1.011   9.897 -1.9325 -0.8228  0.1969
   44CHL1    C1 5706   4.043   1.215  10.080  0.4586 -0.6161  0.1430
   44CHL1   H1A 5707   4.081   1.316  10.051 -0.8716 -0.0680  0.2000
   44CHL1   H1B 5708   3.936   1.235  10.057  0.5175  0.2307  0.5564
   44CHL1    C2 5709   4.061   1.201  10.229  0.5222  0.3102  0.2309
   44CHL1   H2A 5710   4.005   1.280  10.282  1.9494  0.8173  1.0283
   44CHL1   H2B 5711   4.169   1.205  10.256  0.1724  0.9529  1.5948
   44CHL1   C20 5712   3.951   1.209   9.296 -0.5009 -0.2186  1.1024
   44CHL1   H20 5713   4.061   1.199   9.288 -0.6707 -1.2455 -0.4525
   44CHL1   C21 5714   3.915   1.361   9.320  0.1743 -0.0734 -0.8573
   44CHL1  H21A 5715   3.973   1.420   9.246  1.8443 -1.2096 -0.5147
   44CHL1  H21B 5716   3.938   1.396   9.424  1.0236 -1.8634 -0.3994
   44CHL1  H21C 5717   3.808   1.375   9.295  0.2893  0.7394 -0.9361
   44CHL1   C22 5718   3.879   1.166   9.154 -0.3726  0.6699  0.3082
   44CHL1  H22A 5719   3.891   1.060   9.125 -3.5313  0.8236 -2.2060
   44CHL1  H22B 5720   3.770   1.175   9.175 -0.6448 -1.4939  0.0637
   44CHL1   C23 5721   3.909   1.265   9.033 -0.5201  0.2130 -0.1061
   44CHL1  H23A 5722   3.857   1.359   9.058  1.0406  0.7364  1.3900
   44CHL1  H23B 5723   4.017   1.291   9.036 -1.2776  3.7647  0.0507
   44CHL1   C24 5724   3.869   1.209   8.902 -0.3326 -0.7250  0.8728
   44CHL1  H24A 5725   3.910   1.107   8.889 -0.5867 -0.6956 -0.2370
   44CHL1  H24B 5726   3.761   1.186   8.914 -0.3288 -1.2053  0.0299
   44CHL1   C25 5727   3.899   1.291   8.768  0.4498 -0.3994  0.5523
   44CHL1   H25 5728   3.853   1.392   8.766  1.0707 -0.1083  0.6382
   44CHL1   C26 5729   4.051   1.323   8.737  0.0855  0.5139  0.6878
   44CHL1  H26A 5730   4.106   1.375   8.818 -0.5754  2.6509 -0.1727
   44CHL1  H26B 5731   4.094   1.220   8.733  1.2164  1.0084 -1.1466
   44CHL1  H26C 5732   4.059   1.378   8.641 -0.2627 -1.0726 -0.2954
   44CHL1   C27 5733   3.838   1.221   8.647  0.8269  0.3490  0.3322
   44CHL1  H27A 5734   3.907   1.141   8.613  0.7028  0.0260  0.8397
   44CHL1  H27B 5735   3.738   1.174   8.660 -0.2757  0.6717 -4.8281
   44CHL1  H27C 5736   3.819   1.292   8.563 -0.6166 -0.1816  0.1752
   45CHL1    C3 5737   0.066   5.434  10.323  0.2144  0.5869  0.3076
   45CHL1    H3 5738  -0.035   5.459  10.363  0.6958  0.4579  1.6556
   45CHL1    O3 5739   0.148   5.400  10.433 -0.1665 -0.1635  0.0095
   45CHL1   H3' 5740   0.220   5.345  10.401 -1.2825 -1.3978 -0.4628
   45CHL1    C4 5741   0.064   5.309  10.234  0.7349 -0.3204  0.8353
   45CHL1   H4A 5742   0.167   5.276  10.210  0.9077  0.1993  0.8589
   45CHL1   H4B 5743   0.031   5.223  10.296 -0.5149  0.3051  1.0803
   45CHL1    C5 5744  -0.019   5.319  10.108 -0.2399 -1.2321  1.4135
   45CHL1    C6 5745  -0.129   5.253  10.083  0.1108 -0.2886  0.5330
   45CHL1    H6 5746  -0.164   5.178  10.157 -1.8847 -2.3864 -2.3288
   45CHL1    C7 5747  -0.220   5.281   9.971 -0.5587  1.0573 -0.0012
   45CHL1   H7A 5748  -0.256   5.181   9.939  2.5271 -0.0021 -0.4846
   45CHL1   H7B 5749  -0.304   5.336  10.018  0.3026 -0.0117  3.0532
   45CHL1    C8 5750  -0.159   5.376   9.858 -0.0537 -0.4450  0.5082
   45CHL1    H8 5751  -0.237   5.428   9.798  0.3079 -1.1929 -0.6455
   45CHL1   C14 5752  -0.086   5.302   9.753  0.4978  0.9465  0.1160
   45CHL1   H14 5753  -0.016   5.232   9.803 -0.4985 -2.0492 -2.3875
   45CHL1   C15 5754  -0.171   5.205   9.667  0.7314 -0.6147 -0.8474
   45CHL1  H15A 5755  -0.116   5.109   9.663  0.4747 -0.8378  0.4401
   45CHL1  H15B 5756  -0.269   5.190   9.716 -0.0397  2.2601 -1.3053
   45CHL1   C16 5757  -0.186   5.269   9.530 -0.3521 -0.1082  0.1386
   45CHL1  H16A 5758  -0.142   5.193   9.463 -1.3446 -0.2262 -0.4062
   45CHL1  H16B 5759  -0.288   5.283   9.487  0.0583  1.9879 -0.3030
   45CHL1   C17 5760  -0.113   5.406   9.542  0.8750  0.1657  0.0115
   45CHL1   H17 5761  -0.181   5.479   9.590 -1.2382 -0.1865 -2.2910
   45CHL1   C13 5762  -0.008   5.389   9.651  0.6252  0.4367  0.4083
   45CHL1   C18 5763   0.107   5.298   9.598 -0.0999 -0.2098 -1.1451
   45CHL1  H18A 5764   0.073   5.196   9.572 -1.6931 -0.1214  0.3907
   45CHL1  H18B 5765   0.158   5.348   9.513  0.7849  1.1913  0.1487
   45CHL1  H18C 5766   0.184   5.288   9.678 -3.6395 -0.3764  2.5970
   45CHL1   C12 5767   0.059   5.525   9.690 -0.0108  0.6311 -0.2519
   45CHL1  H12A 5768   0.167   5.521   9.714  1.0602  4.2834 -3.4125
   45CHL1  H12B 5769   0.080   5.590   9.602 -2.2990  1.9237  0.0655
   45CHL1   C11 5770  -0.019   5.590   9.809 -0.3425 -0.3665  0.0129
   45CHL1  H11A 5771   0.053   5.668   9.844  0.8069 -1.8846  1.1650
   45CHL1  H11B 5772  -0.108   5.645   9.771  0.1071  0.0619 -0.4405
   45CHL1    C9 5773  -0.072   5.493   9.917 -0.0636  1.2258 -0.5580
   45CHL1    H9 5774  -0.149   5.546   9.977 -2.6653 -2.2275 -0.5066
   45CHL1   C10 5775   0.025   5.443  10.024  0.5039 -0.2535  0.6588
   45CHL1   C19 5776   0.170   5.414   9.960  1.0027  0.0327 -0.2429
   45CHL1  H19A 5777   0.211   5.513   9.932  0.3252  0.7573  1.2003
   45CHL1  H19B 5778   0.237   5.369  10.036  0.0288 -0.1710  0.5273
   45CHL1  H19C 5779   0.164   5.336   9.881 -1.9420 -0.1440  0.0440
   45CHL1    C1 5780   0.052   5.571  10.114  0.0146 -0.6290  0.4002
   45CHL1   H1A 5781   0.104   5.645  10.049 -1.2187  0.8421  1.0206
   45CHL1   H1B 5782  -0.041   5.618  10.151 -0.1591 -0.1389 -0.6208
   45CHL1    C2 5783   0.132   5.547  10.247 -0.5166 -0.2216  0.6529
   45CHL1   H2A 5784   0.125   5.646  10.297 -2.1405  0.7704 -1.3607
   45CHL1   H2B 5785   0.239   5.524  10.229 -0.3511  2.0067 -1.7753
   45CHL1   C20 5786  -0.072   5.474   9.408  0.2386  0.3983  0.1610
   45CHL1   H20 5787   0.015   5.541   9.426  1.0920 -0.0973 -1.8230
   45CHL1   C21 5788  -0.180   5.564   9.352 -0.2740  0.1828 -0.2673
   45CHL1  H21A 5789  -0.261   5.501   9.309  1.4620 -0.2819 -3.0982
   45CHL1  H21B 5790  -0.162   5.628   9.263 -0.2821  1.7447  0.8104
   45CHL1  H21C 5791  -0.222   5.639   9.423 -1.6088 -1.5801  0.8821
   45CHL1   C22 5792  -0.026   5.376   9.301 -0.1635  0.1520  0.8829
   45CHL1  H22A 5793   0.059   5.322   9.347  0.8987  2.0196  1.1989
   45CHL1  H22B 5794  -0.108   5.307   9.272  0.2777 -0.5180  1.2027
   45CHL1   C23 5795   0.033   5.441   9.169 -0.1599 -0.0211 -0.3533
   45CHL1  H23A 5796  -0.043   5.517   9.140 -1.3448  0.0714  2.6301
   45CHL1  H23B 5797   0.126   5.501   9.181 -0.2455 -0.0413  0.4736
   45CHL1   C24 5798   0.070   5.341   9.061  0.3815  0.2045 -0.7458
   45CHL1  H24A 5799   0.139   5.266   9.105 -1.8254 -1.3988  0.1478
   45CHL1  H24B 5800  -0.020   5.277   9.054 -1.0597  2.1112 -0.4051
   45CHL1   C25 5801   0.124   5.407   8.926 -0.5455  1.4067 -0.9107
   45CHL1   H25 5802   0.210   5.472   8.952 -0.4792  0.2572  2.2166
   45CHL1   C26 5803   0.152   5.299   8.823  0.5319  0.1334  0.3034
   45CHL1  H26A 5804   0.056   5.256   8.788  0.9673  1.5857 -3.1363
   45CHL1  H26B 5805   0.203   5.345   8.735  0.9624  0.8119  0.8968
   45CHL1  H26C 5806   0.204   5.207   8.858  1.0857 -0.4467 -1.8586
   45CHL1   C27 5807   0.021   5.515   8.875  0.1815  0.6505  0.7003
   45CHL1  H27A 5808  -0.081   5.471   8.871  1.3412 -2.1938  0.0898
   45CHL1  H27B 5809   0.029   5.605   8.939 -0.3734  1.8040 -0.7940
   45CHL1  H27C 5810   0.047   5.542   8.770  1.9951 -0.4197  0.8334
   46CHL1    C3 5811   2.822   2.871  10.140  0.4328  0.2289 -0.4733
   46CHL1    H3 5812   2.921   2.822  10.125 -0.6834 -1.6190 -2.4580
   46CHL1    O3 5813   2.798   2.887  10.282  0.5416  0.4857  0.0316
   46CHL1   H3' 5814   2.801   2.793  10.302  0.9818  0.4598 -0.1409
   46CHL1    C4 5815   2.817   3.002  10.068  0.1297  0.1546 -0.2786
   46CHL1   H4A 5816   2.718   3.043  10.098  0.5839  1.8781 -1.0024
   46CHL1   H4B 5817   2.907   3.054  10.107  0.9622 -0.3330 -1.5077
   46CHL1    C5 5818   2.816   3.007   9.915 -0.1921 -0.4234  0.2437
   46CHL1    C6 5819   2.896   3.081   9.837  0.2409 -0.4408 -1.1307
   46CHL1    H6 5820   2.962   3.151   9.891  0.2146  0.2039 -1.9032
   46CHL1    C7 5821   2.906   3.086   9.687  0.4393 -0.0964 -0.0385
   46CHL1   H7A 5822   2.907   3.190   9.647  1.0029 -1.1754 -3.1530
   46CHL1   H7B 5823   3.005   3.043   9.659  0.9016  0.9954 -0.1526
   46CHL1    C8 5824   2.795   2.995   9.619 -0.2769 -0.2748 -0.3277
   46CHL1    H8 5825   2.695   3.042   9.606 -0.2927 -0.4680 -0.9881
   46CHL1   C14 5826   2.846   2.951   9.480  0.1318 -0.1571 -0.6289
   46CHL1   H14 5827   2.936   2.889   9.498 -0.1073 -0.6719 -1.1531
   46CHL1   C15 5828   2.889   3.067   9.382 -0.2421  0.0552 -0.1767
   46CHL1  H15A 5829   2.809   3.143   9.392  0.9376  1.1856  1.1524
   46CHL1  H15B 5830   2.984   3.108   9.422  1.6423 -2.7272 -1.4782
   46CHL1   C16 5831   2.896   2.994   9.247 -0.1528 -0.4600  0.1317
   46CHL1  H16A 5832   2.845   3.064   9.178 -1.2791 -0.3673  1.0224
   46CHL1  H16B 5833   2.999   2.958   9.227 -0.3039 -1.9208  1.7167
   46CHL1   C17 5834   2.822   2.856   9.265 -0.8582  0.3018  0.1330
   46CHL1   H17 5835   2.897   2.776   9.274 -1.4043 -0.3896 -1.1689
   46CHL1   C13 5836   2.750   2.861   9.398  0.2332 -0.2276  0.7632
   46CHL1   C18 5837   2.613   2.930   9.367  0.9887 -0.0307 -0.0244
   46CHL1  H18A 5838   2.573   2.970   9.463 -0.7455 -0.7224 -0.4136
   46CHL1  H18B 5839   2.627   3.021   9.306  2.3060  0.0561  0.3732
   46CHL1  H18C 5840   2.539   2.859   9.323  1.0203  0.0229 -0.1626
   46CHL1   C12 5841   2.730   2.733   9.485 -0.0954  0.0194 -0.2485
   46CHL1  H12A 5842   2.670   2.652   9.438 -0.3109  0.5315 -0.8619
   46CHL1  H12B 5843   2.826   2.680   9.502  0.0047  0.5265  0.8515
   46CHL1   C11 5844   2.683   2.764   9.625 -0.0251 -0.1062 -0.0106
   46CHL1  H11A 5845   2.579   2.797   9.604  0.1126 -1.4455 -3.4451
   46CHL1  H11B 5846   2.676   2.680   9.697  0.9979  1.2721  1.7595
   46CHL1    C9 5847   2.768   2.873   9.699 -0.2078 -0.0890  0.4221
   46CHL1    H9 5848   2.871   2.832   9.706  1.6664  2.8874 -4.5728
   46CHL1   C10 5849   2.724   2.902   9.850  0.3893 -0.4539  0.1828
   46CHL1   C19 5850   2.587   2.969   9.848  0.9621 -0.5650  0.0419
   46CHL1  H19A 5851   2.556   2.999   9.951  0.8061 -3.1305  0.8039
   46CHL1  H19B 5852   2.591   3.064   9.790 -0.1329  1.3281  2.8297
   46CHL1  H19C 5853   2.510   2.903   9.803  0.8184 -0.9965  0.9123
   46CHL1    C1 5854   2.710   2.770   9.934 -0.9258 -0.4302  0.1962
   46CHL1   H1A 5855   2.619   2.717   9.899 -1.8348  1.8648 -1.2141
   46CHL1   H1B 5856   2.800   2.710   9.908  0.1556  0.6052  1.3613
   46CHL1    C2 5857   2.708   2.781  10.090  0.1769 -0.5415 -0.6081
   46CHL1   H2A 5858   2.711   2.679  10.134 -0.4423 -0.5279 -0.5244
   46CHL1   H2B 5859   2.613   2.819  10.135  1.0333 -1.5912  2.3358
   46CHL1   C20 5860   2.747   2.819   9.137  0.3900  0.2799  0.2132
   46CHL1   H20 5861   2.650   2.874   9.128 -2.1045 -2.7495  4.5790
   46CHL1   C21 5862   2.689   2.678   9.153 -0.9061 -0.1892  0.6656
   46CHL1  H21A 5863   2.607   2.672   9.229 -0.8045  0.4055  0.8258
   46CHL1  H21B 5864   2.761   2.597   9.176  0.3891  0.8953  0.4854
   46CHL1  H21C 5865   2.638   2.660   9.056  2.1317 -1.2355 -0.8632
   46CHL1   C22 5866   2.829   2.840   9.011 -0.0767 -0.0674  0.0862
   46CHL1  H22A 5867   2.841   2.948   8.987 -0.2867 -0.4993 -2.2354
   46CHL1  H22B 5868   2.931   2.796   9.015 -0.3451 -0.6676  0.5131
   46CHL1   C23 5869   2.765   2.772   8.890 -0.0661 -0.0986  0.4299
   46CHL1  H23A 5870   2.756   2.662   8.903 -1.5878  0.2487  3.2224
   46CHL1  H23B 5871   2.663   2.814   8.873 -0.3370 -1.0352 -0.3525
   46CHL1   C24 5872   2.840   2.820   8.762 -0.1321  0.3874  0.4192
   46CHL1  H24A 5873   2.828   2.930   8.767  2.5048  0.7889 -0.6576
   46CHL1  H24B 5874   2.949   2.804   8.782  0.1036  0.8116 -0.4929
   46CHL1   C25 5875   2.806   2.757   8.634  0.1634  0.1189  0.2328
   46CHL1   H25 5876   2.696   2.767   8.619  0.1090  1.9427  1.6407
   46CHL1   C26 5877   2.877   2.829   8.516  0.3310 -0.3814  0.1828
   46CHL1  H26A 5878   2.832   2.807   8.417  2.7582  0.8678 -1.3003
   46CHL1  H26B 5879   2.863   2.937   8.538  0.8823  0.0534 -1.4671
   46CHL1  H26C 5880   2.988   2.816   8.512  0.4934  0.9022  0.1840
   46CHL1   C27 5881   2.837   2.608   8.628  0.3118  0.0538 -0.6397
   46CHL1  H27A 5882   2.941   2.574   8.649 -0.6033 -0.8409  3.1144
   46CHL1  H27B 5883   2.774   2.556   8.702 -0.5254 -2.0748 -2.7085
   46CHL1  H27C 5884   2.802   2.571   8.529 -1.7927 -0.4465  0.2527
   47CHL1    C3 5885   4.204   0.095  10.078 -0.0179  1.1999 -0.5249
   47CHL1    H3 5886   4.104   0.143  10.063 -1.5797 -1.5531  0.4029
   47CHL1    O3 5887   4.223   0.051  10.212  0.4116 -0.1861  0.1940
   47CHL1   H3' 5888   4.314   0.018  10.214  0.0947 -1.0684  0.3203
   47CHL1    C4 5889   4.225  -0.027   9.988  0.0743  0.1033  0.3348
   47CHL1   H4A 5890   4.323  -0.072  10.015 -0.6091 -0.6251  1.7161
   47CHL1   H4B 5891   4.154  -0.101  10.031  1.5559  0.8339  4.5763
   47CHL1    C5 5892   4.212  -0.006   9.843  0.4035 -0.1695 -0.0902
   47CHL1    C6 5893   4.109  -0.057   9.775  0.1102  0.1542  0.2262
   47CHL1    H6 5894   4.047  -0.136   9.821 -1.2157  1.4735  0.7954
   47CHL1    C7 5895   4.089  -0.019   9.630 -0.5549  0.3254 -0.2833
   47CHL1   H7A 5896   4.062  -0.101   9.559  0.2017 -0.3610  0.2064
   47CHL1   H7B 5897   4.009   0.058   9.633  0.1482  1.0379  1.4866
   47CHL1    C8 5898   4.214   0.043   9.566  0.4609 -0.4042  0.1548
   47CHL1    H8 5899   4.284  -0.040   9.538 -0.5430 -1.1322 -0.2600
   47CHL1   C14 5900   4.163   0.108   9.432  0.1386  0.7881 -0.6313
   47CHL1   H14 5901   4.092   0.188   9.461  0.1062  0.7367 -0.5701
   47CHL1   C15 5902   4.087   0.021   9.336  0.0509  0.3126 -0.0234
   47CHL1  H15A 5903   4.143  -0.072   9.316  0.2804 -0.2640  2.8827
   47CHL1  H15B 5904   3.984   0.001   9.374  0.9701 -0.1537  2.4235
   47CHL1   C16 5905   4.085   0.103   9.210 -0.1657 -0.2440 -1.0149
   47CHL1  H16A 5906   4.112   0.042   9.122  2.6016  0.7798 -0.9963
   47CHL1  H16B 5907   3.983   0.145   9.197  0.1763  1.0666  0.2300
   47CHL1   C17 5908   4.182   0.224   9.225  0.4096 -0.3002 -1.2281
   47CHL1   H17 5909   4.119   0.309   9.258 -2.1287 -2.9532  1.3594
   47CHL1   C13 5910   4.272   0.184   9.351 -0.3181 -0.0841 -0.2565
   47CHL1   C18 5911   4.387   0.083   9.302  0.0775 -0.9072 -0.4807
   47CHL1  H18A 5912   4.443   0.038   9.386  1.7967 -0.8752 -1.5608
   47CHL1  H18B 5913   4.344   0.005   9.236  1.3750 -0.5478 -1.7998
   47CHL1  H18C 5914   4.468   0.141   9.253  2.3336 -1.3100  2.5049
   47CHL1   C12 5915   4.331   0.294   9.442  0.0050  0.1395 -0.2093
   47CHL1  H12A 5916   4.419   0.340   9.391 -0.7564  0.2170 -1.4790
   47CHL1  H12B 5917   4.257   0.372   9.469  0.8878  0.9542 -0.0733
   47CHL1   C11 5918   4.379   0.230   9.579  0.8186 -0.1068  0.6058
   47CHL1  H11A 5919   4.468   0.168   9.554  2.0361  2.5434 -2.4259
   47CHL1  H11B 5920   4.421   0.310   9.644 -0.2107 -0.3539  1.6065
   47CHL1    C9 5921   4.265   0.153   9.654 -0.2614 -0.2451  0.4324
   47CHL1    H9 5922   4.182   0.223   9.679  0.0320  0.7178 -1.1508
   47CHL1   C10 5923   4.302   0.102   9.795  0.1573 -0.7058  0.5427
   47CHL1   C19 5924   4.436   0.028   9.793  0.0326 -0.3483  0.3780
   47CHL1  H19A 5925   4.515   0.101   9.764  0.4038 -0.9516 -0.1657
   47CHL1  H19B 5926   4.468  -0.024   9.886 -0.7445  0.2011  0.9613
   47CHL1  H19C 5927   4.435  -0.043   9.707  0.1537  0.5692 -0.3950
   47CHL1    C1 5928   4.311   0.225   9.896  0.1746  0.1234  1.2768
   47CHL1   H1A 5929   4.399   0.284   9.864  0.8250 -2.0112 -1.2685
   47CHL1   H1B 5930   4.225   0.295   9.886  1.5647  1.6164 -1.5572
   47CHL1    C2 5931   4.310   0.198  10.041  0.2670  0.5465 -0.1262
   47CHL1   H2A 5932   4.292   0.294  10.095 -0.6322  1.3223 -1.7491
   47CHL1   H2B 5933   4.407   0.154  10.073  0.1318  0.0308 -0.4116
   47CHL1   C20 5934   4.247   0.269   9.095  0.5229  0.9128  0.7416
   47CHL1   H20 5935   4.302   0.182   9.051 -0.8452  1.0984 -1.5411
   47CHL1   C21 5936   4.351   0.377   9.120 -0.8437  0.0941  0.2619
   47CHL1  H21A 5937   4.387   0.431   9.030 -1.0752 -0.0820  0.0611
   47CHL1  H21B 5938   4.434   0.334   9.180 -0.8938  1.0265  1.0188
   47CHL1  H21C 5939   4.301   0.456   9.179 -2.4377 -0.2198 -0.6060
   47CHL1   C22 5940   4.135   0.313   8.993 -1.0933 -0.2836 -0.7674
   47CHL1  H22A 5941   4.064   0.228   8.979 -0.8778 -0.2866 -1.8997
   47CHL1  H22B 5942   4.070   0.391   9.038 -0.8885 -0.4572 -0.1597
   47CHL1   C23 5943   4.190   0.347   8.851  0.2340  0.6811  0.0888
   47CHL1  H23A 5944   4.235   0.449   8.849 -1.8674  1.7133  1.1084
   47CHL1  H23B 5945   4.263   0.269   8.823  0.1652  0.1279  1.3944
   47CHL1   C24 5946   4.083   0.372   8.749  0.0648  0.1832  0.1799
   47CHL1  H24A 5947   3.997   0.303   8.765 -1.6827  2.1217 -0.3711
   47CHL1  H24B 5948   4.041   0.472   8.771  1.0797  0.3235  1.5729
   47CHL1   C25 5949   4.128   0.381   8.596  0.2813 -0.4599  0.7529
   47CHL1   H25 5950   4.173   0.283   8.570  0.7200 -0.4897  1.5806
   47CHL1   C26 5951   4.005   0.433   8.522  0.0846  0.6359  0.9034
   47CHL1  H26A 5952   4.025   0.447   8.413 -2.6632 -0.2622  0.1990
   47CHL1  H26B 5953   3.966   0.529   8.563  0.9876  0.4236  2.3113
   47CHL1  H26C 5954   3.924   0.357   8.518 -0.2133  0.9944 -0.3353
   47CHL1   C27 5955   4.241   0.493   8.596  0.5205  0.0789  0.7637
   47CHL1  H27A 5956   4.302   0.507   8.505  0.2863  0.9859  0.7317
   47CHL1  H27B 5957   4.199   0.596   8.609 -0.1391  0.0773 -1.0476
   47CHL1  H27C 5958   4.315   0.488   8.679 -0.6155  2.6043  2.0562
   48CHL1    C3 5959   5.426   1.553  10.168 -0.6242  0.0885 -0.0091
   48CHL1    H3 5960   5.467   1.451  10.154  2.1768  1.0128  0.7716
   48CHL1    O3 5961   5.368   1.562  10.298  0.1295 -0.1084  0.2419
   48CHL1   H3' 5962   5.372   1.477  10.341 -2.5635  0.3204  1.5274
   48CHL1    C4 5963   5.549   1.658  10.156  0.5295 -0.1596 -0.1453
   48CHL1   H4A 5964   5.504   1.759  10.167  0.4761 -0.3094  1.1446
   48CHL1   H4B 5965   5.613   1.650  10.246  0.9683  2.1354 -0.1976
   48CHL1    C5 5966   5.614   1.650  10.016  0.5717 -0.0572 -0.2595
   48CHL1    C6 5967   5.743   1.616   9.994 -0.3785  0.1478  0.1863
   48CHL1    H6 5968   5.804   1.568  10.072  0.4190  0.7653 -0.0521
   48CHL1    C7 5969   5.812   1.623   9.860  0.6602  0.2966  0.3796
   48CHL1   H7A 5970   5.913   1.669   9.867  0.9886 -0.3824  0.1526
   48CHL1   H7B 5971   5.829   1.517   9.833 -1.2649 -0.2388  1.1492
   48CHL1    C8 5972   5.717   1.694   9.747  0.3310 -1.1784 -0.1272
   48CHL1    H8 5973   5.727   1.805   9.757 -0.9223 -1.2443  3.2800
   48CHL1   C14 5974   5.766   1.661   9.605  0.2313  1.0498  0.0142
   48CHL1   H14 5975   5.748   1.553   9.586  0.7635  1.2297 -1.7016
   48CHL1   C15 5976   5.918   1.673   9.581  0.2087 -0.0815 -0.0365
   48CHL1  H15A 5977   5.948   1.748   9.658 -3.1311  2.8904 -1.3566
   48CHL1  H15B 5978   5.970   1.576   9.593  0.8706  0.0674 -1.5177
   48CHL1   C16 5979   5.928   1.690   9.430 -0.2567 -0.1456  0.7731
   48CHL1  H16A 5980   5.969   1.791   9.407  2.1451 -1.5028 -1.3842
   48CHL1  H16B 5981   5.990   1.616   9.376 -0.1177 -0.3506  1.2147
   48CHL1   C17 5982   5.782   1.682   9.369 -0.4392 -0.3323  0.5000
   48CHL1   H17 5983   5.762   1.574   9.355 -1.7147 -0.3539  2.1512
   48CHL1   C13 5984   5.698   1.730   9.486  0.5308 -0.0408  1.0487
   48CHL1   C18 5985   5.717   1.884   9.500 -0.3189 -0.2257  0.6178
   48CHL1  H18A 5986   5.822   1.919   9.515  0.5083 -1.0455 -2.4399
   48CHL1  H18B 5987   5.671   1.941   9.417 -0.5917  0.2724  1.1102
   48CHL1  H18C 5988   5.644   1.916   9.577 -0.9685  0.7430 -0.3730
   48CHL1   C12 5989   5.553   1.678   9.493  0.1037  0.0540  0.3685
   48CHL1  H12A 5990   5.487   1.723   9.416 -0.6965 -0.6763  0.6255
   48CHL1  H12B 5991   5.547   1.568   9.485  1.0686 -0.1642  2.1319
   48CHL1   C11 5992   5.485   1.703   9.634 -0.1036  0.1893  0.0793
   48CHL1  H11A 5993   5.469   1.813   9.642  2.4189  0.5064  1.6975
   48CHL1  H11B 5994   5.386   1.653   9.641  1.1128 -2.0398  4.0999
   48CHL1    C9 5995   5.574   1.650   9.754 -0.0931  0.3778 -0.3469
   48CHL1    H9 5996   5.585   1.540   9.744  0.6988  0.5494 -1.6953
   48CHL1   C10 5997   5.511   1.669   9.899 -0.1124  0.2082 -0.0280
   48CHL1   C19 5998   5.469   1.816   9.910 -0.3698 -0.1291  0.4882
   48CHL1  H19A 5999   5.562   1.877   9.913  0.6420 -1.6076 -0.0673
   48CHL1  H19B 6000   5.404   1.843   9.824 -1.4792 -1.8489  0.7489
   48CHL1  H19C 6001   5.406   1.833  10.001 -0.0608 -1.4022  0.9495
   48CHL1    C1 6002   5.383   1.578   9.920 -0.6050 -0.4220  0.3229
   48CHL1   H1A 6003   5.315   1.613   9.839  2.0196  1.1104 -1.3559
   48CHL1   H1B 6004   5.414   1.476   9.890 -1.4045 -0.5947  0.0467
   48CHL1    C2 6005   5.327   1.575  10.058 -0.0032 -0.1294 -0.6681
   48CHL1   H2A 6006   5.251   1.494  10.070  1.0531 -1.0966 -0.3267
   48CHL1   H2B 6007   5.275   1.667  10.092 -0.9546 -0.8952  0.0395
   48CHL1   C20 6008   5.765   1.735   9.225 -0.2299  0.3929 -0.3903
   48CHL1   H20 6009   5.789   1.843   9.221  2.8127 -0.2191 -1.1375
   48CHL1   C21 6010   5.620   1.715   9.192  0.0711  0.4121 -0.4440
   48CHL1  H21A 6011   5.612   1.743   9.085  0.5159  2.1501 -0.0379
   48CHL1  H21B 6012   5.552   1.783   9.247 -0.2824 -1.5902  1.7742
   48CHL1  H21C 6013   5.576   1.613   9.204  0.9842  0.2128  1.6990
   48CHL1   C22 6014   5.854   1.663   9.124 -0.3135  0.1218  0.6205
   48CHL1  H22A 6015   5.963   1.672   9.144 -0.1468  0.8915 -0.5243
   48CHL1  H22B 6016   5.825   1.557   9.111 -0.0912  0.0441  0.7582
   48CHL1   C23 6017   5.842   1.725   8.980  0.5636 -0.4339 -0.2022
   48CHL1  H23A 6018   5.740   1.704   8.941  0.4530 -1.2862  0.5124
   48CHL1  H23B 6019   5.848   1.836   8.981 -3.1697 -0.0689 -1.7393
   48CHL1   C24 6020   5.947   1.664   8.889  0.6415 -0.2268 -0.5362
   48CHL1  H24A 6021   6.039   1.645   8.948  0.2318  1.0535  0.5911
   48CHL1  H24B 6022   5.911   1.562   8.863  0.6249 -0.9066  1.9289
   48CHL1   C25 6023   5.978   1.739   8.757 -0.1888 -0.1411  0.5422
   48CHL1   H25 6024   6.028   1.834   8.785 -0.8366  0.1825  0.6290
   48CHL1   C26 6025   6.088   1.649   8.685  0.4160 -0.4643  0.0144
   48CHL1  H26A 6026   6.036   1.552   8.669 -2.0314  1.1489 -3.2617
   48CHL1  H26B 6027   6.120   1.697   8.590 -2.0890 -0.8545 -1.1260
   48CHL1  H26C 6028   6.169   1.633   8.758  1.1017  2.4736  0.0552
   48CHL1   C27 6029   5.854   1.745   8.667 -1.1104 -0.3857  0.1942
   48CHL1  H27A 6030   5.881   1.747   8.559  1.0912  1.1232  0.7089
   48CHL1  H27B 6031   5.804   1.645   8.666 -1.2535 -0.3145  0.3071
   48CHL1  H27C 6032   5.792   1.833   8.692 -0.7528 -0.4749  1.4538
   49CHL1    C3 6033   3.072   2.587   9.986 -0.7213 -0.1108  0.8062
   49CHL1    H3 6034   2.962   2.576   9.977 -0.4356 -2.8130 -0.6787
   49CHL1    O3 6035   3.108   2.642  10.111  0.2243 -0.2645 -0.0354
   49CHL1   H3' 6036   3.200   2.659  10.092 -0.2105  0.9852 -1.1985
   49CHL1    C4 6037   3.150   2.457   9.970 -0.7233 -0.4755 -0.1794
   49CHL1   H4A 6038   3.259   2.474   9.985 -0.4005 -1.8964 -0.7270
   49CHL1   H4B 6039   3.110   2.385  10.045 -2.0696  1.4555  1.0235
   49CHL1    C5 6040   3.128   2.391   9.835 -0.3769  0.4900  0.9708
   49CHL1    C6 6041   3.094   2.259   9.824  0.5442 -0.2641 -0.2386
   49CHL1    H6 6042   3.070   2.203   9.916  0.8727 -2.6726 -1.5364
   49CHL1    C7 6043   3.070   2.195   9.693 -0.0206  0.3244 -0.5266
   49CHL1   H7A 6044   3.112   2.092   9.685 -1.5211 -0.4260  0.6275
   49CHL1   H7B 6045   2.962   2.186   9.671 -0.2649  1.1189  0.2711
   49CHL1    C8 6046   3.114   2.281   9.568  0.4648 -0.1434 -0.2825
   49CHL1    H8 6047   3.221   2.258   9.547  0.1371 -1.1202 -0.9631
   49CHL1   C14 6048   3.044   2.228   9.448  0.7728 -0.2689 -0.5605
   49CHL1   H14 6049   2.937   2.252   9.467  1.2535  1.6692 -0.1369
   49CHL1   C15 6050   3.047   2.078   9.405 -0.3378  0.2639 -0.1885
   49CHL1  H15A 6051   3.151   2.040   9.421  0.4443  1.3591 -2.4130
   49CHL1  H15B 6052   2.972   2.027   9.469  1.3452 -0.6874  1.1212
   49CHL1   C16 6053   3.015   2.079   9.261 -0.3068  0.7007 -0.2263
   49CHL1  H16A 6054   3.103   2.042   9.204  1.3772  1.7197  1.5868
   49CHL1  H16B 6055   2.928   2.014   9.235  1.8454 -1.8191 -1.6375
   49CHL1   C17 6056   3.000   2.226   9.217  0.6765 -0.5832 -0.5353
   49CHL1   H17 6057   2.897   2.261   9.240  1.0328 -1.8809  4.0787
   49CHL1   C13 6058   3.085   2.305   9.320 -0.3378  0.9672 -0.0123
   49CHL1   C18 6059   3.234   2.282   9.282 -0.0303 -0.4771  0.0918
   49CHL1  H18A 6060   3.299   2.337   9.355  0.3736 -1.3312  0.3826
   49CHL1  H18B 6061   3.264   2.176   9.290 -1.1736 -0.9149 -1.1780
   49CHL1  H18C 6062   3.254   2.321   9.180 -3.2217  0.5536 -0.2418
   49CHL1   C12 6063   3.050   2.453   9.332  1.0275  0.1654  0.5002
   49CHL1  H12A 6064   3.079   2.525   9.252 -2.7326  2.0263  0.6144
   49CHL1  H12B 6065   2.940   2.464   9.346  1.2276  0.2967  2.1862
   49CHL1   C11 6066   3.117   2.509   9.449  0.4151 -0.4012  0.0889
   49CHL1  H11A 6067   3.227   2.512   9.439  0.4570 -0.5254  0.4902
   49CHL1  H11B 6068   3.076   2.612   9.461 -0.9590 -0.2651 -4.1159
   49CHL1    C9 6069   3.088   2.433   9.584  0.0988 -0.2075 -0.1437
   49CHL1    H9 6070   2.977   2.444   9.591  0.1319  0.6061 -0.6631
   49CHL1   C10 6071   3.143   2.493   9.716  0.0615  0.1572 -0.8347
   49CHL1   C19 6072   3.299   2.514   9.699 -0.5096 -0.4128 -0.7645
   49CHL1  H19A 6073   3.351   2.552   9.790  0.9092  0.3694 -1.8595
   49CHL1  H19B 6074   3.343   2.421   9.659 -1.7334 -0.4793 -2.0386
   49CHL1  H19C 6075   3.325   2.575   9.610 -1.2366  0.3957 -0.4394
   49CHL1    C1 6076   3.079   2.635   9.740 -0.2246  0.0040  0.2900
   49CHL1   H1A 6077   3.106   2.703   9.657  0.5195 -0.4095  0.1820
   49CHL1   H1B 6078   2.969   2.626   9.746 -0.1029 -0.9403  1.4714
   49CHL1    C2 6079   3.108   2.690   9.880  0.3774 -0.6179 -0.2711
   49CHL1   H2A 6080   3.040   2.774   9.905 -1.0330 -1.5061 -1.0113
   49CHL1   H2B 6081   3.211   2.731   9.889  0.1087  0.5841 -2.1709
   49CHL1   C20 6082   3.022   2.239   9.068  0.1357 -0.4216  0.1095
   49CHL1   H20 6083   3.124   2.201   9.046  0.5831 -0.2281  1.7265
   49CHL1   C21 6084   3.017   2.384   9.025 -0.2328 -0.1237  0.7857
   49CHL1  H21A 6085   3.104   2.437   9.070  0.4356 -1.2516  0.8476
   49CHL1  H21B 6086   2.921   2.435   9.052 -0.4717 -0.3875  0.4418
   49CHL1  H21C 6087   3.033   2.384   8.915  2.4727  0.3387  1.1075
   49CHL1   C22 6088   2.928   2.151   8.981 -0.4226 -0.7093 -0.4898
   49CHL1  H22A 6089   2.928   2.044   9.010  0.0760 -0.3854  0.7771
   49CHL1  H22B 6090   2.831   2.192   9.016  1.5549  1.2799  3.3874
   49CHL1   C23 6091   2.946   2.165   8.832  0.2503  0.0146  0.0679
   49CHL1  H23A 6092   2.874   2.096   8.781  1.2275 -1.4537  0.5947
   49CHL1  H23B 6093   2.907   2.261   8.793  0.1668  0.0471  0.2303
   49CHL1   C24 6094   3.078   2.128   8.764  0.1022 -0.2518 -0.0414
   49CHL1  H24A 6095   3.162   2.195   8.789  0.7826 -0.7158 -1.0361
   49CHL1  H24B 6096   3.120   2.030   8.796  3.2188  0.5431 -1.3558
   49CHL1   C25 6097   3.071   2.111   8.617 -0.1367 -0.2408 -0.2822
   49CHL1   H25 6098   3.015   2.199   8.576  1.8055  2.2338  2.0269
   49CHL1   C26 6099   3.215   2.132   8.558  0.2275 -0.4927 -0.7035
   49CHL1  H26A 6100   3.280   2.043   8.575  0.4649  0.0924  1.8007
   49CHL1  H26B 6101   3.209   2.140   8.447 -3.1077 -3.6444 -0.9534
   49CHL1  H26C 6102   3.258   2.224   8.604 -1.1070 -0.3914  0.4054
   49CHL1   C27 6103   3.002   1.979   8.579 -0.2778 -0.5196  0.1039
   49CHL1  H27A 6104   3.069   1.893   8.602  0.3033  0.1505  0.9652
   49CHL1  H27B 6105   2.906   1.976   8.634  1.2083  2.3347  3.1358
   49CHL1  H27C 6106   2.992   1.986   8.468 -0.8327  0.4003  0.2051
   50CHL1    C3 6107   0.590   4.828  10.176  0.2643 -0.0052 -0.3506
   50CHL1    H3 6108   0.525   4.912  10.144 -0.7554 -0.4345  0.5329
   50CHL1    O3 6109   0.610   4.836  10.313 -0.2942 -0.3335  0.1107
   50CHL1   H3' 6110   0.597   4.744  10.338 -2.5294  0.1925  1.1088
   50CHL1    C4 6111   0.534   4.689  10.130 -0.2397  0.4891  0.2600
   50CHL1   H4A 6112   0.600   4.610  10.174  1.3871  1.6825  0.0481
   50CHL1   H4B 6113   0.433   4.678  10.175  0.3933  2.5062  2.3434
   50CHL1    C5 6114   0.544   4.665   9.983 -0.1513 -0.3687 -0.0497
   50CHL1    C6 6115   0.436   4.659   9.904 -0.0213  0.6572  0.1954
   50CHL1    H6 6116   0.342   4.684   9.955 -0.4835  1.7568 -1.1309
   50CHL1    C7 6117   0.435   4.640   9.763 -0.5290 -1.1266  0.1928
   50CHL1   H7A 6118   0.362   4.567   9.723  1.0054 -2.4812 -0.2448
   50CHL1   H7B 6119   0.414   4.740   9.719 -1.3434 -1.3712  0.0081
   50CHL1    C8 6120   0.576   4.593   9.717 -0.1530 -0.0812 -0.1971
   50CHL1    H8 6121   0.595   4.492   9.759 -1.5139 -0.0988  0.4448
   50CHL1   C14 6122   0.583   4.596   9.561 -0.3261  0.1772  0.4010
   50CHL1   H14 6123   0.552   4.698   9.529 -2.6476  0.0704  2.0982
   50CHL1   C15 6124   0.481   4.508   9.479  1.0500 -0.1925 -0.0581
   50CHL1  H15A 6125   0.493   4.410   9.529 -0.3495  0.5255  1.7894
   50CHL1  H15B 6126   0.377   4.538   9.505  0.6201 -2.7772  1.6061
   50CHL1   C16 6127   0.532   4.500   9.341  0.3538  0.1090  0.3618
   50CHL1  H16A 6128   0.533   4.393   9.313  0.9670  0.5505 -1.5054
   50CHL1  H16B 6129   0.463   4.556   9.273  0.0041  0.2030  0.7867
   50CHL1   C17 6130   0.669   4.577   9.340  0.6180 -0.3774  0.9822
   50CHL1   H17 6131   0.644   4.683   9.319 -0.7893 -1.2885 -2.7948
   50CHL1   C13 6132   0.710   4.565   9.489  0.2201  0.0114 -0.3216
   50CHL1   C18 6133   0.745   4.416   9.517  0.4720 -0.3992  0.0843
   50CHL1  H18A 6134   0.682   4.345   9.459 -0.4267  2.0471 -2.0990
   50CHL1  H18B 6135   0.847   4.379   9.493  0.9139  2.0487 -2.2788
   50CHL1  H18C 6136   0.731   4.381   9.622 -1.4244  1.3868  0.4789
   50CHL1   C12 6137   0.808   4.666   9.543  1.7419 -0.6420 -0.3309
   50CHL1  H12A 6138   0.908   4.663   9.494  1.3534 -0.3592 -1.1644
   50CHL1  H12B 6139   0.771   4.768   9.520 -0.9364 -1.8521 -1.9422
   50CHL1   C11 6140   0.820   4.668   9.695  0.0326  0.2788 -0.1418
   50CHL1  H11A 6141   0.858   4.570   9.729 -0.7723 -0.0061 -0.0321
   50CHL1  H11B 6142   0.896   4.742   9.730 -1.2365  0.6066  2.1154
   50CHL1    C9 6143   0.686   4.690   9.772  0.0674  0.4852 -0.2075
   50CHL1    H9 6144   0.645   4.788   9.741 -1.0006 -0.0095 -0.4015
   50CHL1   C10 6145   0.685   4.689   9.926  1.1033 -0.6261 -0.2511
   50CHL1   C19 6146   0.780   4.578   9.970 -1.1019 -0.3044  0.5341
   50CHL1  H19A 6147   0.766   4.542  10.075 -0.7629  0.1391  0.7344
   50CHL1  H19B 6148   0.773   4.480   9.917  4.1291 -1.9616  2.2331
   50CHL1  H19C 6149   0.885   4.614   9.972 -1.2082  0.0122  0.3467
   50CHL1    C1 6150   0.732   4.826   9.966 -0.2630  0.0979  0.0710
   50CHL1   H1A 6151   0.839   4.827   9.935 -0.6308 -0.8776 -1.2793
   50CHL1   H1B 6152   0.668   4.898   9.911 -2.0206 -2.1337 -0.9693
   50CHL1    C2 6153   0.726   4.838  10.113 -0.3022 -0.4005 -0.7349
   50CHL1   H2A 6154   0.761   4.938  10.145 -1.1869 -0.7166  1.4088
   50CHL1   H2B 6155   0.793   4.759  10.153 -2.5481 -1.9898  0.1359
   50CHL1   C20 6156   0.762   4.528   9.232  0.6976 -0.5932  0.7678
   50CHL1   H20 6157   0.773   4.419   9.250  1.1633 -0.6071  0.4104
   50CHL1   C21 6158   0.909   4.590   9.228  0.0963  0.0999  0.1467
   50CHL1  H21A 6159   0.970   4.564   9.316 -1.3574  1.3511  1.5933
   50CHL1  H21B 6160   0.906   4.699   9.205 -0.1551 -0.3760 -2.4281
   50CHL1  H21C 6161   0.965   4.531   9.152  2.2808  0.7618  1.1677
   50CHL1   C22 6162   0.699   4.544   9.088  0.1235 -0.2085  0.7387
   50CHL1  H22A 6163   0.593   4.509   9.092 -0.1402  0.5851  1.0066
   50CHL1  H22B 6164   0.691   4.652   9.061 -1.1349 -0.4491  0.0856
   50CHL1   C23 6165   0.780   4.460   8.984  0.9286  0.5869 -0.3865
   50CHL1  H23A 6166   0.882   4.498   8.963  0.0789  2.2031 -1.8843
   50CHL1  H23B 6167   0.795   4.356   9.019 -1.6746 -0.1527 -1.2471
   50CHL1   C24 6168   0.727   4.473   8.838 -0.1949  0.0727  0.4324
   50CHL1  H24A 6169   0.626   4.425   8.842 -0.9983  1.3135 -2.3803
   50CHL1  H24B 6170   0.717   4.582   8.820  1.0340  0.7683  3.4357
   50CHL1   C25 6171   0.807   4.394   8.732 -0.3436  0.1084  0.1399
   50CHL1   H25 6172   0.800   4.285   8.747 -2.9442  0.1512 -0.2665
   50CHL1   C26 6173   0.734   4.424   8.599  0.4323  0.5565 -0.5702
   50CHL1  H26A 6174   0.776   4.362   8.517 -0.8101 -1.5437  0.3068
   50CHL1  H26B 6175   0.628   4.392   8.604  1.2103 -2.1008  0.1819
   50CHL1  H26C 6176   0.736   4.534   8.578 -1.6740  0.5497 -1.0157
   50CHL1   C27 6177   0.950   4.437   8.709 -1.0592 -0.5485 -0.4104
   50CHL1  H27A 6178   0.997   4.416   8.611  2.7718  0.0096  1.1470
   50CHL1  H27B 6179   0.951   4.548   8.717  0.9432 -0.4978 -0.9834
   50CHL1  H27C 6180   1.015   4.391   8.786  0.2625 -0.2545 -1.3200
   51CHL1    C3 6181   6.445   1.869  10.295 -0.2313  0.3556  0.0689
   51CHL1    H3 6182   6.360   1.820  10.244  2.0679 -0.6907 -3.0816
   51CHL1    O3 6183   6.424   1.894  10.435 -0.1557  0.2089 -0.2048
   51CHL1   H3' 6184   6.338   1.936  10.443  0.0919  0.5246  0.9754
   51CHL1    C4 6185   6.572   1.781  10.287  0.2699  0.0634  0.1395
   51CHL1   H4A 6186   6.654   1.835  10.338 -0.4163 -0.7069  2.1500
   51CHL1   H4B 6187   6.557   1.695  10.356  0.2641 -0.9683 -1.1044
   51CHL1    C5 6188   6.609   1.756  10.149 -0.0010 -0.3720 -0.0459
   51CHL1    C6 6189   6.624   1.626  10.103 -0.3071  0.3409 -0.2770
   51CHL1    H6 6190   6.617   1.544  10.176 -1.5535 -0.9451 -1.7604
   51CHL1    C7 6191   6.661   1.588   9.962 -0.4348 -0.0295 -0.0458
   51CHL1   H7A 6192   6.740   1.510   9.952 -1.9859 -1.6820  0.0319
   51CHL1   H7B 6193   6.572   1.551   9.908 -0.0520  0.2874 -0.9084
   51CHL1    C8 6194   6.722   1.709   9.884  0.0762 -0.0481  0.9587
   51CHL1    H8 6195   6.826   1.730   9.914  0.7452  1.3341 -2.0105
   51CHL1   C14 6196   6.718   1.677   9.739  1.1181  0.3899 -0.6075
   51CHL1   H14 6197   6.613   1.657   9.706  1.2262 -2.2742  0.3951
   51CHL1   C15 6198   6.778   1.550   9.683  0.1942  0.1332  0.5018
   51CHL1  H15A 6199   6.884   1.541   9.715  0.0138 -1.6647  0.6866
   51CHL1  H15B 6200   6.734   1.454   9.717  1.7680 -0.6978  0.2828
   51CHL1   C16 6201   6.785   1.568   9.533 -0.5831  0.1528 -0.5195
   51CHL1  H16A 6202   6.889   1.532   9.514 -0.3769 -1.2485  2.6195
   51CHL1  H16B 6203   6.718   1.504   9.472  1.8284 -1.4843 -1.6227
   51CHL1   C17 6204   6.754   1.711   9.505  0.5897 -0.3218 -0.3993
   51CHL1   H17 6205   6.646   1.709   9.476  1.0850 -0.2637 -2.4399
   51CHL1   C13 6206   6.772   1.780   9.643  0.4909 -0.8153 -0.2134
   51CHL1   C18 6207   6.918   1.811   9.675  0.8282 -0.8673  0.0488
   51CHL1  H18A 6208   6.927   1.832   9.784 -3.9236 -0.2264  0.5489
   51CHL1  H18B 6209   6.990   1.727   9.666  1.2731 -0.6599  1.5016
   51CHL1  H18C 6210   6.936   1.909   9.626 -2.8876  1.2540  2.4870
   51CHL1   C12 6211   6.692   1.921   9.669 -0.8033 -0.9822 -0.1643
   51CHL1  H12A 6212   6.727   2.003   9.604  0.5466 -1.7265 -0.3999
   51CHL1  H12B 6213   6.590   1.899   9.631 -1.0541 -0.3897  0.1421
   51CHL1   C11 6214   6.681   1.968   9.814 -0.3741 -0.1406 -0.0154
   51CHL1  H11A 6215   6.785   1.984   9.848 -1.4914  0.5081  3.4302
   51CHL1  H11B 6216   6.624   2.062   9.833 -0.0874 -0.4683  2.7807
   51CHL1    C9 6217   6.638   1.843   9.906  0.1097 -0.4935 -0.7135
   51CHL1    H9 6218   6.534   1.810   9.884  0.2065 -0.7021 -0.8690
   51CHL1   C10 6219   6.633   1.883  10.057 -0.0029 -0.3574 -0.0796
   51CHL1   C19 6220   6.767   1.943  10.098  0.1754 -0.2245  0.0270
   51CHL1  H19A 6221   6.845   1.903  10.030 -0.3784  1.6257 -1.7733
   51CHL1  H19B 6222   6.783   2.052  10.088 -2.0485  0.0806 -0.7640
   51CHL1  H19C 6223   6.794   1.907  10.200 -1.5692 -3.4700 -0.5277
   51CHL1    C1 6224   6.511   1.982  10.086 -0.2378  0.6060  0.3810
   51CHL1   H1A 6225   6.550   2.079  10.048  4.0849 -1.0895 -0.0144
   51CHL1   H1B 6226   6.416   1.952  10.037  1.3397 -0.0730 -2.4941
   51CHL1    C2 6227   6.481   2.001  10.231  0.1239 -1.0688 -0.0586
   51CHL1   H2A 6228   6.392   2.067  10.238  0.5333 -0.1638 -2.4208
   51CHL1   H2B 6229   6.563   2.056  10.280 -0.4700 -0.6672  0.4968
   51CHL1   C20 6230   6.820   1.778   9.384 -0.4505 -0.0316 -0.6061
   51CHL1   H20 6231   6.923   1.815   9.403  1.0589 -3.6343 -0.9564
   51CHL1   C21 6232   6.728   1.899   9.324 -0.2082 -0.2131  0.1484
   51CHL1  H21A 6233   6.770   1.919   9.223  0.8689 -1.7797  0.2300
   51CHL1  H21B 6234   6.730   1.992   9.384 -0.9528 -0.7935  1.1081
   51CHL1  H21C 6235   6.629   1.851   9.313 -0.5824  1.0754 -3.0522
   51CHL1   C22 6236   6.841   1.676   9.267 -0.2411 -0.0605 -0.1642
   51CHL1  H22A 6237   6.883   1.579   9.305  1.7062  1.3313  1.4859
   51CHL1  H22B 6238   6.740   1.646   9.234 -1.0957  1.9477  0.4750
   51CHL1   C23 6239   6.943   1.722   9.152 -0.2246 -0.5800 -0.1700
   51CHL1  H23A 6240   6.899   1.818   9.117 -1.9862 -1.1461  0.3762
   51CHL1  H23B 6241   7.042   1.744   9.198  0.2432 -1.5393 -0.6845
   51CHL1   C24 6242   6.973   1.608   9.052  0.5968  0.0489 -0.4805
   51CHL1  H24A 6243   7.018   1.522   9.106 -2.2179 -1.8797 -0.9599
   51CHL1  H24B 6244   6.877   1.569   9.013  1.7262 -2.7447 -0.6739
   51CHL1   C25 6245   7.065   1.634   8.932 -0.6525 -0.2648  0.1046
   51CHL1   H25 6246   7.021   1.720   8.877 -2.2121  0.8338  2.8328
   51CHL1   C26 6247   7.200   1.684   8.977  0.8617  0.1938 -0.2862
   51CHL1  H26A 6248   7.273   1.715   8.899  2.2684 -0.3463  0.7930
   51CHL1  H26B 6249   7.186   1.782   9.029 -2.5938  0.2867 -1.1031
   51CHL1  H26C 6250   7.251   1.606   9.036  1.0958 -0.5720 -1.4633
   51CHL1   C27 6251   7.090   1.515   8.834 -0.2016 -0.0195 -0.3245
   51CHL1  H27A 6252   7.127   1.430   8.896 -3.4689 -0.5522  1.1360
   51CHL1  H27B 6253   6.995   1.487   8.783 -1.6004  1.6651  1.2160
   51CHL1  H27C 6254   7.172   1.532   8.761  0.1470 -0.8747 -0.1495
   52CHL1    C3 6255   3.363   6.322  10.050  0.3719 -0.1435  0.4804
   52CHL1    H3 6256   3.439   6.256  10.002  2.8037  2.1971  0.8601
   52CHL1    O3 6257   3.396   6.332  10.187  1.1689 -0.6994  0.0506
   52CHL1   H3' 6258   3.312   6.366  10.221  1.7462  0.9292 -0.0782
   52CHL1    C4 6259   3.360   6.456   9.984  0.1958 -0.2319 -0.3236
   52CHL1   H4A 6260   3.281   6.511  10.039  0.2661  1.1825 -1.6046
   52CHL1   H4B 6261   3.464   6.494   9.994 -0.2275  0.8845 -0.0876
   52CHL1    C5 6262   3.315   6.445   9.837 -0.8390 -0.4523  0.3260
   52CHL1    C6 6263   3.399   6.499   9.740 -0.4318  0.0599  0.0460
   52CHL1    H6 6264   3.485   6.559   9.773  0.5084 -0.4748 -1.3096
   52CHL1    C7 6265   3.363   6.496   9.594 -0.1731  0.2299  0.7120
   52CHL1   H7A 6266   3.380   6.597   9.552 -0.2140 -0.8029 -1.9878
   52CHL1   H7B 6267   3.419   6.420   9.535 -1.9050 -1.8951  1.6427
   52CHL1    C8 6268   3.205   6.467   9.573 -0.9924 -0.5936 -0.1736
   52CHL1    H8 6269   3.146   6.555   9.604 -0.9275 -0.4572 -0.4323
   52CHL1   C14 6270   3.198   6.428   9.435  0.3959  0.0625  0.4731
   52CHL1   H14 6271   3.253   6.332   9.426  2.4698  0.9161  2.9264
   52CHL1   C15 6272   3.251   6.520   9.328 -0.6486 -0.1401  0.1549
   52CHL1  H15A 6273   3.249   6.624   9.367  2.4758  0.6695 -1.4622
   52CHL1  H15B 6274   3.356   6.485   9.316  0.0686  1.4566  1.3204
   52CHL1   C16 6275   3.180   6.496   9.196  0.1856  0.8387 -0.1921
   52CHL1  H16A 6276   3.134   6.592   9.165  0.2978  0.7998 -0.4824
   52CHL1  H16B 6277   3.244   6.455   9.115 -0.5502  0.1187 -0.4184
   52CHL1   C17 6278   3.072   6.389   9.233 -0.4173  0.3898  0.3201
   52CHL1   H17 6279   3.122   6.293   9.206 -0.8357  0.2869 -0.0973
   52CHL1   C13 6280   3.053   6.392   9.387 -0.6293  0.5424 -0.2924
   52CHL1   C18 6281   2.960   6.510   9.422 -0.6083 -0.3637 -0.1218
   52CHL1  H18A 6282   2.853   6.483   9.408 -0.9573  0.3540  1.0278
   52CHL1  H18B 6283   2.967   6.544   9.528  0.2082  2.4366 -0.9810
   52CHL1  H18C 6284   2.991   6.588   9.350 -1.3195 -1.3541 -1.5575
   52CHL1   C12 6285   3.009   6.260   9.462  0.1572  0.6544 -0.3131
   52CHL1  H12A 6286   2.910   6.214   9.442  0.5229 -1.0490  1.4933
   52CHL1  H12B 6287   3.089   6.189   9.429 -1.3774 -1.1725 -0.2715
   52CHL1   C11 6288   3.022   6.286   9.616  0.1160  0.3455  0.7229
   52CHL1  H11A 6289   2.940   6.351   9.652 -0.2097  0.5410 -0.3364
   52CHL1  H11B 6290   3.022   6.188   9.669  1.5680 -0.1921 -0.2093
   52CHL1    C9 6291   3.157   6.350   9.659 -0.2769  0.1405 -0.2251
   52CHL1    H9 6292   3.230   6.273   9.625  2.4081  2.0013  0.9760
   52CHL1   C10 6293   3.182   6.372   9.804 -0.2029  0.4430 -0.5087
   52CHL1   C19 6294   3.080   6.464   9.859 -0.1447  0.2599 -0.2043
   52CHL1  H19A 6295   2.972   6.436   9.856 -0.3817  1.1521 -0.4572
   52CHL1  H19B 6296   3.102   6.490   9.965  1.1422 -0.1112 -0.3711
   52CHL1  H19C 6297   3.083   6.560   9.803  1.1321  1.6464  2.1100
   52CHL1    C1 6298   3.194   6.235   9.890  0.2982 -0.6955 -0.0788
   52CHL1   H1A 6299   3.095   6.187   9.897 -0.1202  0.3712  2.3206
   52CHL1   H1B 6300   3.274   6.174   9.843 -0.6469 -1.5995 -0.5326
   52CHL1    C2 6301   3.226   6.254  10.037  0.2663 -0.2225  0.2909
   52CHL1   H2A 6302   3.221   6.159  10.093  2.6574  1.4624  3.7006
   52CHL1   H2B 6303   3.150   6.317  10.089  0.7945  0.7097 -0.0385
   52CHL1   C20 6304   2.937   6.401   9.153  0.1044 -0.6850 -0.0636
   52CHL1   H20 6305   2.895   6.504   9.159  2.8583  0.7902 -2.9221
   52CHL1   C21 6306   2.833   6.304   9.204  0.2409 -0.4684  0.2775
   52CHL1  H21A 6307   2.780   6.340   9.294  1.1496  0.8800  0.3043
   52CHL1  H21B 6308   2.878   6.207   9.235  2.7219  0.0083 -1.4998
   52CHL1  H21C 6309   2.752   6.284   9.130  0.8176  1.6795 -1.0470
   52CHL1   C22 6310   2.964   6.375   9.004 -0.3759 -0.0989  0.4291
   52CHL1  H22A 6311   3.035   6.451   8.965 -2.1187  0.0421 -2.8253
   52CHL1  H22B 6312   3.035   6.290   8.996 -1.5090 -1.1287  0.9014
   52CHL1   C23 6313   2.842   6.357   8.908  0.3479 -0.1122  0.1443
   52CHL1  H23A 6314   2.792   6.260   8.924 -1.5001  0.8333  0.4365
   52CHL1  H23B 6315   2.754   6.421   8.931  1.5025  1.6180  0.0232
   52CHL1   C24 6316   2.873   6.371   8.757  0.7248 -0.2841  0.1584
   52CHL1  H24A 6317   2.958   6.440   8.739  0.3130 -0.0345 -0.8702
   52CHL1  H24B 6318   2.914   6.271   8.730 -0.0581 -0.2487 -1.2730
   52CHL1   C25 6319   2.745   6.412   8.678 -0.1670  0.7342 -0.1943
   52CHL1   H25 6320   2.693   6.483   8.746  2.9284  1.3101  1.7688
   52CHL1   C26 6321   2.785   6.483   8.553 -0.6378  0.1721  0.3708
   52CHL1  H26A 6322   2.855   6.428   8.487 -0.6322  0.8839 -0.2305
   52CHL1  H26B 6323   2.699   6.516   8.492  0.0124 -0.7374 -1.0917
   52CHL1  H26C 6324   2.841   6.577   8.577  0.2826 -0.4679  0.8299
   52CHL1   C27 6325   2.648   6.293   8.661 -0.5907 -0.0685  1.2818
   52CHL1  H27A 6326   2.687   6.236   8.574  2.0158  1.9620  0.9783
   52CHL1  H27B 6327   2.646   6.223   8.747 -0.9818 -0.7473  0.7263
   52CHL1  H27C 6328   2.543   6.326   8.653 -0.0099  2.3726  2.6226
   53CHL1    C3 6329   5.673   5.404  10.256 -0.4092 -0.0164  0.9251
   53CHL1    H3 6330   5.579   5.348  10.234 -0.0512 -0.5958  0.8527
   53CHL1    O3 6331   5.707   5.394  10.394  0.2881  0.8303  0.4412
   53CHL1   H3' 6332   5.720   5.300  10.407 -1.0935  0.4521 -0.6330
   53CHL1    C4 6333   5.790   5.341  10.170  0.0013 -0.0039 -0.3683
   53CHL1   H4A 6334   5.883   5.389  10.206 -0.5036  1.5840 -1.0974
   53CHL1   H4B 6335   5.810   5.237  10.203  0.6740  1.0604  2.8856
   53CHL1    C5 6336   5.781   5.357  10.019 -0.2145  0.1888  0.2936
   53CHL1    C6 6337   5.783   5.250   9.941 -0.3664 -0.2281  0.0721
   53CHL1    H6 6338   5.805   5.151   9.982  0.5638  0.8315  2.2524
   53CHL1    C7 6339   5.791   5.258   9.791  0.4739  0.1998 -0.3843
   53CHL1   H7A 6340   5.885   5.216   9.748  0.5741  0.7855 -0.7711
   53CHL1   H7B 6341   5.698   5.215   9.750 -0.2696  2.1890 -0.9110
   53CHL1    C8 6342   5.800   5.409   9.739 -0.4750  0.0830 -0.6562
   53CHL1    H8 6343   5.908   5.433   9.740 -0.7494  1.4584  1.6290
   53CHL1   C14 6344   5.736   5.419   9.600 -0.1053  0.1547  0.7554
   53CHL1   H14 6345   5.629   5.388   9.607  0.0534 -0.6553 -0.2911
   53CHL1   C15 6346   5.810   5.333   9.493  0.6300  0.1443  0.6515
   53CHL1  H15A 6347   5.919   5.345   9.478  0.8723 -2.9733 -0.9273
   53CHL1  H15B 6348   5.787   5.227   9.518 -0.1224  0.3633  0.9163
   53CHL1   C16 6349   5.749   5.384   9.363 -0.2027 -0.1896  0.3652
   53CHL1  H16A 6350   5.839   5.397   9.298  1.0020 -1.1073  1.7839
   53CHL1  H16B 6351   5.675   5.322   9.308 -0.0954  2.7197 -3.5265
   53CHL1   C17 6352   5.682   5.520   9.395  0.0609 -0.0787  0.6370
   53CHL1   H17 6353   5.575   5.498   9.416 -0.2643  0.7998  0.0154
   53CHL1   C13 6354   5.732   5.560   9.534 -0.3285  0.0323 -0.1435
   53CHL1   C18 6355   5.875   5.613   9.529 -0.3931 -0.7572 -0.0659
   53CHL1  H18A 6356   5.892   5.709   9.475  3.8043 -2.0420 -1.3794
   53CHL1  H18B 6357   5.916   5.621   9.631 -1.8900  0.3903  0.4872
   53CHL1  H18C 6358   5.939   5.550   9.463 -0.3083  0.4388 -1.1762
   53CHL1   C12 6359   5.647   5.651   9.626 -0.1351 -1.1252 -0.4693
   53CHL1  H12A 6360   5.638   5.755   9.589  2.5005 -0.6329  0.0978
   53CHL1  H12B 6361   5.546   5.605   9.626 -0.6113 -0.1119 -0.7567
   53CHL1   C11 6362   5.707   5.653   9.770  0.2126  0.2869 -0.3056
   53CHL1  H11A 6363   5.802   5.710   9.768 -1.9172  4.2180  0.5089
   53CHL1  H11B 6364   5.648   5.715   9.841 -0.2668 -0.9576  0.4295
   53CHL1    C9 6365   5.721   5.507   9.824 -0.1345  0.0746 -0.0685
   53CHL1    H9 6366   5.615   5.474   9.819 -0.3281  0.7637 -0.7423
   53CHL1   C10 6367   5.756   5.498   9.974  0.1784  0.2339 -0.1427
   53CHL1   C19 6368   5.883   5.582   9.988  0.2333  0.0725 -1.0695
   53CHL1  H19A 6369   5.869   5.691   9.968 -1.2989  0.3205  1.0785
   53CHL1  H19B 6370   5.920   5.580  10.093  0.2214  1.4555 -1.0173
   53CHL1  H19C 6371   5.952   5.540   9.912 -0.9452 -1.8534 -1.1421
   53CHL1    C1 6372   5.639   5.556  10.058  0.0439  0.6159  0.1806
   53CHL1   H1A 6373   5.631   5.664  10.032 -0.4741  0.5112 -0.1095
   53CHL1   H1B 6374   5.545   5.513  10.019  1.4425 -1.1889 -1.4438
   53CHL1    C2 6375   5.649   5.550  10.214  0.4467  0.5903 -0.3519
   53CHL1   H2A 6376   5.553   5.590  10.254  0.3965  0.2400 -0.1147
   53CHL1   H2B 6377   5.733   5.615  10.246 -0.1124  2.1223 -1.8499
   53CHL1   C20 6378   5.677   5.628   9.285 -0.1958 -0.1190 -0.0062
   53CHL1   H20 6379   5.782   5.654   9.261  0.9066 -1.9016  2.4698
   53CHL1   C21 6380   5.598   5.761   9.321 -0.7932  0.2338  0.1392
   53CHL1  H21A 6381   5.495   5.735   9.352 -0.6768  0.1289  0.4433
   53CHL1  H21B 6382   5.588   5.829   9.234  1.8558  0.3494 -0.1521
   53CHL1  H21C 6383   5.647   5.816   9.404 -1.0530 -0.8032  0.9989
   53CHL1   C22 6384   5.613   5.566   9.156 -0.1007 -0.4980 -0.4307
   53CHL1  H22A 6385   5.564   5.474   9.193 -0.5636  0.1538  0.6479
   53CHL1  H22B 6386   5.524   5.619   9.117  1.1714  0.5769 -2.0364
   53CHL1   C23 6387   5.706   5.538   9.038  0.4764  0.1404  0.6880
   53CHL1  H23A 6388   5.747   5.636   9.002  2.2608 -0.1593  1.8118
   53CHL1  H23B 6389   5.793   5.477   9.070  0.5011 -1.1249 -1.5338
   53CHL1   C24 6390   5.623   5.466   8.933  0.8558  0.3420  0.1715
   53CHL1  H24A 6391   5.572   5.383   8.986 -2.3534  0.0799 -2.9788
   53CHL1  H24B 6392   5.552   5.538   8.887  0.1384  1.2980  2.6591
   53CHL1   C25 6393   5.689   5.401   8.801 -0.1333  0.0010 -0.4073
   53CHL1   H25 6394   5.756   5.319   8.836 -0.2538  0.9012  2.0762
   53CHL1   C26 6395   5.585   5.350   8.707 -0.0181  0.6405  0.3603
   53CHL1  H26A 6396   5.524   5.274   8.760 -0.5105  0.9219  0.2013
   53CHL1  H26B 6397   5.510   5.425   8.673 -0.2436 -0.1147 -0.8471
   53CHL1  H26C 6398   5.627   5.291   8.623 -1.8346 -1.5432  0.8922
   53CHL1   C27 6399   5.774   5.494   8.723 -0.3579 -0.4096 -0.7367
   53CHL1  H27A 6400   5.708   5.569   8.674  0.2664 -1.0382 -2.6460
   53CHL1  H27B 6401   5.854   5.535   8.788 -1.6206  2.4470 -0.8224
   53CHL1  H27C 6402   5.832   5.437   8.648  1.8061 -0.1926  0.6846
   54CHL1    C3 6403   4.775   0.802  10.058  0.0265  0.4899  1.0134
   54CHL1    H3 6404   4.741   0.702  10.023 -0.1783  1.4422 -1.8061
   54CHL1    O3 6405   4.732   0.832  10.188  0.4393  0.4339 -0.1149
   54CHL1   H3' 6406   4.799   0.798  10.248 -1.0348  1.5211  2.3199
   54CHL1    C4 6407   4.927   0.809  10.046  0.1614  0.5697  0.1754
   54CHL1   H4A 6408   4.966   0.907  10.079  0.2175  0.9865 -1.0799
   54CHL1   H4B 6409   4.969   0.727  10.109  0.6172  1.7161  1.3989
   54CHL1    C5 6410   4.973   0.791   9.906  0.0927  0.0711 -0.1621
   54CHL1    C6 6411   5.061   0.697   9.885 -0.0928  0.3413  0.5410
   54CHL1    H6 6412   5.097   0.641   9.972  0.3526 -1.1322 -0.5505
   54CHL1    C7 6413   5.126   0.669   9.751 -0.2230 -0.5046  0.4358
   54CHL1   H7A 6414   5.236   0.671   9.763 -0.1166 -0.6632 -0.3932
   54CHL1   H7B 6415   5.097   0.568   9.714  0.3663  0.3069 -2.5452
   54CHL1    C8 6416   5.080   0.769   9.644  0.0115 -0.3502 -0.0310
   54CHL1    H8 6417   5.136   0.864   9.651  0.3906 -0.5349 -0.5482
   54CHL1   C14 6418   5.100   0.702   9.508 -0.3560  0.0663  0.6285
   54CHL1   H14 6419   5.025   0.622   9.491  0.9586 -0.7257 -1.8460
   54CHL1   C15 6420   5.234   0.628   9.483 -0.1949 -0.7292 -0.4114
   54CHL1  H15A 6421   5.307   0.703   9.521  0.1332  0.6676 -3.5292
   54CHL1  H15B 6422   5.238   0.536   9.545  0.9986  1.3531  2.9493
   54CHL1   C16 6423   5.238   0.592   9.335 -0.5112  0.4777  0.5002
   54CHL1  H16A 6424   5.336   0.627   9.296 -0.9811  2.5653  1.0566
   54CHL1  H16B 6425   5.218   0.486   9.310  0.3973  0.8136 -1.8689
   54CHL1   C17 6426   5.118   0.678   9.277  0.0222  0.2812  0.1166
   54CHL1   H17 6427   5.033   0.607   9.271 -0.4939  0.6065  2.4690
   54CHL1   C13 6428   5.085   0.787   9.386  0.5089 -0.5381 -0.1039
   54CHL1   C18 6429   5.193   0.900   9.382 -0.6886 -0.8283  0.1880
   54CHL1  H18A 6430   5.186   0.969   9.469  0.9536  1.9466 -1.7189
   54CHL1  H18B 6431   5.299   0.867   9.375 -0.5629 -0.1703 -1.1678
   54CHL1  H18C 6432   5.171   0.953   9.287 -1.2212 -2.0038 -0.3644
   54CHL1   C12 6433   4.934   0.838   9.395 -0.0956  0.2262  0.5810
   54CHL1  H12A 6434   4.916   0.915   9.317  1.7079  0.5322  0.4299
   54CHL1  H12B 6435   4.860   0.758   9.371  0.4147  0.4688 -2.2059
   54CHL1   C11 6436   4.892   0.901   9.531  0.1985 -0.2191  0.7051
   54CHL1  H11A 6437   4.946   0.998   9.541  0.5943 -0.2250 -1.1179
   54CHL1  H11B 6438   4.784   0.921   9.546  0.5536 -0.4353  4.7822
   54CHL1    C9 6439   4.931   0.812   9.653 -0.3326 -0.7880 -0.2565
   54CHL1    H9 6440   4.872   0.718   9.643 -0.0079 -0.9810 -0.3786
   54CHL1   C10 6441   4.893   0.869   9.793  0.8593 -0.0558 -0.4196
   54CHL1   C19 6442   4.936   1.019   9.806 -0.0252  0.1860  0.2739
   54CHL1  H19A 6443   4.946   1.063   9.908  0.6669  0.6754 -0.0046
   54CHL1  H19B 6444   5.038   1.033   9.766  0.4191  1.3051  1.7061
   54CHL1  H19C 6445   4.856   1.079   9.757  0.0296  1.2593  1.4375
   54CHL1    C1 6446   4.737   0.863   9.816  0.9341  0.4287  0.4155
   54CHL1   H1A 6447   4.684   0.934   9.750  0.9504  1.5012  1.5154
   54CHL1   H1B 6448   4.701   0.760   9.797  2.6395 -0.1343  0.0189
   54CHL1    C2 6449   4.701   0.901   9.960 -0.4392  0.5497 -0.2076
   54CHL1   H2A 6450   4.591   0.887   9.972 -0.8302  0.1520 -3.3212
   54CHL1   H2B 6451   4.746   1.000   9.983  1.2800 -0.3643  0.5230
   54CHL1   C20 6452   5.152   0.733   9.136 -0.1895  0.0598 -0.3289
   54CHL1   H20 6453   5.241   0.799   9.141 -0.4090  0.5181 -2.0384
   54CHL1   C21 6454   5.038   0.815   9.097  0.3315  0.3735 -0.1725
   54CHL1  H21A 6455   4.946   0.753   9.094  0.6180 -0.0198 -1.1020
   54CHL1  H21B 6456   5.035   0.854   8.993 -0.7353 -3.5817 -1.7980
   54CHL1  H21C 6457   5.012   0.903   9.160  0.7815  0.4411 -0.0771
   54CHL1   C22 6458   5.169   0.628   9.017 -0.1856  0.2274 -0.1371
   54CHL1  H22A 6459   5.249   0.555   9.040 -1.6920 -1.6062 -0.4779
   54CHL1  H22B 6460   5.085   0.555   9.010  1.7259 -1.9705 -1.1627
   54CHL1   C23 6461   5.181   0.696   8.879 -0.0466  0.1605 -0.4702
   54CHL1  H23A 6462   5.080   0.724   8.843  0.6077  0.7403 -1.8989
   54CHL1  H23B 6463   5.241   0.789   8.880 -2.8587  2.1144  0.4793
   54CHL1   C24 6464   5.245   0.603   8.774 -0.7388 -0.2370 -0.0756
   54CHL1  H24A 6465   5.338   0.549   8.803  0.8556  1.4700 -1.7268
   54CHL1  H24B 6466   5.168   0.525   8.755 -0.0116 -0.7161 -1.0973
   54CHL1   C25 6467   5.273   0.661   8.637 -0.0552 -0.1061 -0.0003
   54CHL1   H25 6468   5.327   0.758   8.636 -0.0837 -0.0935 -1.0654
   54CHL1   C26 6469   5.344   0.561   8.543  0.1259 -0.7747 -0.4778
   54CHL1  H26A 6470   5.447   0.541   8.579 -0.2760  0.0346  1.2441
   54CHL1  H26B 6471   5.280   0.471   8.529 -0.9979 -0.4173  1.8633
   54CHL1  H26C 6472   5.355   0.601   8.440  0.0422  2.3951  0.6184
   54CHL1   C27 6473   5.134   0.697   8.577 -0.2000 -0.5245  0.5738
   54CHL1  H27A 6474   5.077   0.603   8.560  2.0711 -1.7903 -0.4405
   54CHL1  H27B 6475   5.074   0.778   8.624 -2.8102 -1.3859 -1.0477
   54CHL1  H27C 6476   5.149   0.747   8.479 -0.8426  1.8150  1.6058
   55CHL1    C3 6477   5.364   5.066  10.149  0.1678 -0.2491 -0.0232
   55CHL1    H3 6478   5.332   4.960  10.158  0.1354 -0.2204  0.2116
   55CHL1    O3 6479   5.389   5.123  10.275 -1.0356  0.2403  0.0126
   55CHL1   H3' 6480   5.484   5.124  10.290 -1.3379  1.6076  2.3149
   55CHL1    C4 6481   5.489   5.071  10.059  0.0628 -0.2913  0.3581
   55CHL1   H4A 6482   5.532   5.172  10.079 -1.6711  0.7083 -0.6974
   55CHL1   H4B 6483   5.559   4.992  10.093 -1.2819 -3.2911 -3.1589
   55CHL1    C5 6484   5.472   5.059   9.910 -0.3706 -0.0918 -0.1913
   55CHL1    C6 6485   5.539   4.968   9.834  0.3717  0.1042 -0.2017
   55CHL1    H6 6486   5.623   4.906   9.870  0.8112  1.3988  1.0905
   55CHL1    C7 6487   5.519   4.964   9.686 -0.0574 -0.3141 -0.9485
   55CHL1   H7A 6488   5.620   4.956   9.640  1.3679  3.8099  0.9639
   55CHL1   H7B 6489   5.460   4.873   9.663 -0.3859 -0.4667  0.4069
   55CHL1    C8 6490   5.437   5.079   9.625 -0.1881 -0.0947 -0.5868
   55CHL1    H8 6491   5.506   5.166   9.630  0.7430 -0.8553  2.9691
   55CHL1   C14 6492   5.400   5.036   9.478 -0.3065  0.0407 -0.2364
   55CHL1   H14 6493   5.351   4.937   9.489 -0.2976  0.0566 -0.0325
   55CHL1   C15 6494   5.512   4.998   9.390 -0.5760 -0.2824 -0.3390
   55CHL1  H15A 6495   5.590   5.077   9.390  0.5120 -1.3313  0.2662
   55CHL1  H15B 6496   5.568   4.907   9.418  0.3975  0.6391  0.8128
   55CHL1   C16 6497   5.430   4.992   9.254  0.3862 -0.7339  0.4553
   55CHL1  H16A 6498   5.501   5.029   9.176 -1.7403 -1.8084 -2.1836
   55CHL1  H16B 6499   5.417   4.883   9.236 -2.3002 -0.0689 -2.7241
   55CHL1   C17 6500   5.286   5.061   9.274 -0.0776  0.0586  0.7887
   55CHL1   H17 6501   5.218   4.975   9.292 -0.6647  0.1198 -0.9650
   55CHL1   C13 6502   5.304   5.134   9.408  0.4330 -0.1094  0.0045
   55CHL1   C18 6503   5.374   5.267   9.387  0.0429 -0.1823  0.4812
   55CHL1  H18A 6504   5.405   5.307   9.486 -0.7695  0.2589  0.5643
   55CHL1  H18B 6505   5.467   5.256   9.327 -0.7622  1.7306 -1.2190
   55CHL1  H18C 6506   5.309   5.336   9.330 -1.0856 -1.4788  0.1362
   55CHL1   C12 6507   5.179   5.152   9.492  0.6332  0.1472 -0.7129
   55CHL1  H12A 6508   5.107   5.222   9.444  1.1289 -0.2492 -2.0672
   55CHL1  H12B 6509   5.132   5.054   9.516  1.9834 -0.3331  0.0584
   55CHL1   C11 6510   5.213   5.205   9.635  0.7819  0.7920 -0.7888
   55CHL1  H11A 6511   5.247   5.311   9.624  1.7677  0.5113 -0.4953
   55CHL1  H11B 6512   5.121   5.218   9.696  1.9025  2.2258  0.6926
   55CHL1    C9 6513   5.309   5.105   9.710 -0.9181  0.4084  0.0711
   55CHL1    H9 6514   5.258   5.007   9.720  0.9133 -0.5381  0.6076
   55CHL1   C10 6515   5.353   5.143   9.854 -0.3334 -0.2419  0.0258
   55CHL1   C19 6516   5.400   5.294   9.853  0.1408  0.4177  0.0558
   55CHL1  H19A 6517   5.449   5.324   9.757 -1.1776  1.0954 -0.4294
   55CHL1  H19B 6518   5.309   5.358   9.851  0.3581  0.7294  0.0262
   55CHL1  H19C 6519   5.463   5.330   9.937  0.4441  1.3189 -0.5417
   55CHL1    C1 6520   5.229   5.114   9.935  0.3433 -0.2664 -0.1500
   55CHL1   H1A 6521   5.139   5.168   9.898 -0.0885 -0.3268  0.7779
   55CHL1   H1B 6522   5.200   5.007   9.928 -2.8457  0.3294  1.6844
   55CHL1    C2 6523   5.242   5.140  10.089  0.7128 -0.1848 -0.0484
   55CHL1   H2A 6524   5.152   5.117  10.150  1.6733 -0.7768  1.2118
   55CHL1   H2B 6525   5.270   5.246  10.107  2.0830 -0.3350 -1.0938
   55CHL1   C20 6526   5.235   5.130   9.145  0.6261  0.4071  0.6486
   55CHL1   H20 6527   5.288   5.225   9.122  0.8818  0.6807  2.2280
   55CHL1   C21 6528   5.092   5.175   9.169  0.5199  0.0715  0.0955
   55CHL1  H21A 6529   5.089   5.250   9.251 -1.5670  0.7728 -0.5812
   55CHL1  H21B 6530   5.042   5.081   9.201  0.5909  0.8827  2.8181
   55CHL1  H21C 6531   5.042   5.218   9.080 -3.8951 -0.2391  2.1686
   55CHL1   C22 6532   5.260   5.045   9.016  0.5825 -0.3931  0.1427
   55CHL1  H22A 6533   5.371   5.033   9.018  0.6688  0.3539  0.0282
   55CHL1  H22B 6534   5.224   4.940   9.018  1.0267 -0.5631  2.6026
   55CHL1   C23 6535   5.223   5.113   8.887  0.1418 -0.1094 -0.3267
   55CHL1  H23A 6536   5.114   5.133   8.884 -0.1503 -1.2194  1.2031
   55CHL1  H23B 6537   5.267   5.214   8.875  1.4022 -0.7235 -1.1384
   55CHL1   C24 6538   5.270   5.029   8.768 -0.0948 -0.3010 -0.6389
   55CHL1  H24A 6539   5.381   5.019   8.761 -0.0486 -0.5766  0.3108
   55CHL1  H24B 6540   5.232   4.926   8.784  0.4066 -0.5524 -1.0285
   55CHL1   C25 6541   5.226   5.088   8.636  0.3331 -0.7000 -0.3710
   55CHL1   H25 6542   5.222   5.199   8.634  1.3286 -0.6023 -3.9709
   55CHL1   C26 6543   5.297   5.051   8.506  0.0027 -0.3542  0.1817
   55CHL1  H26A 6544   5.248   5.113   8.428  0.6857 -0.7135 -0.5475
   55CHL1  H26B 6545   5.404   5.078   8.515 -0.1620  0.2027  0.4628
   55CHL1  H26C 6546   5.293   4.940   8.496 -0.2738 -0.3684  0.4489
   55CHL1   C27 6547   5.079   5.039   8.620 -0.6438 -0.3531  0.3224
   55CHL1  H27A 6548   5.009   5.091   8.690 -2.4662 -0.3036 -1.4374
   55CHL1  H27B 6549   5.049   5.047   8.513 -0.5718  3.3232  0.4418
   55CHL1  H27C 6550   5.078   4.930   8.644 -0.5681 -0.7294 -1.2796
   56CHL1    C3 6551   2.398   1.888  10.111 -0.4618 -0.4135 -0.5713
   56CHL1    H3 6552   2.485   1.949  10.080 -2.4127  3.3127  0.6809
   56CHL1    O3 6553   2.417   1.845  10.245 -0.1504 -0.1708 -0.4598
   56CHL1   H3' 6554   2.509   1.819  10.249 -0.2720 -0.5507  0.1828
   56CHL1    C4 6555   2.266   1.969  10.110  0.4209 -0.0705 -0.2283
   56CHL1   H4A 6556   2.189   1.904  10.156 -0.1478  1.5806  1.2488
   56CHL1   H4B 6557   2.294   2.059  10.169 -0.4192 -0.6736  1.1340
   56CHL1    C5 6558   2.238   2.018   9.969  0.2308 -0.4357 -0.2712
   56CHL1    C6 6559   2.207   2.145   9.934 -0.4026  0.4727 -0.2485
   56CHL1    H6 6560   2.180   2.217  10.012 -0.6189 -2.1267  2.2567
   56CHL1    C7 6561   2.175   2.185   9.791  0.5596 -0.2126 -0.0920
   56CHL1   H7A 6562   2.083   2.248   9.794  0.5613 -0.1007 -1.4988
   56CHL1   H7B 6563   2.253   2.251   9.748  2.1086 -1.3289  0.9122
   56CHL1    C8 6564   2.148   2.068   9.686  0.3713  0.0086 -1.0435
   56CHL1    H8 6565   2.046   2.024   9.697  0.9282 -0.7901  1.7736
   56CHL1   C14 6566   2.168   2.125   9.549 -0.8005 -0.7234  0.1877
   56CHL1   H14 6567   2.275   2.152   9.541 -1.0055 -0.0402 -0.4100
   56CHL1   C15 6568   2.078   2.246   9.505 -0.0359  0.4195  0.1363
   56CHL1  H15A 6569   1.974   2.217   9.530  0.7372 -0.3512  2.8763
   56CHL1  H15B 6570   2.101   2.343   9.554 -1.5966  0.2894  1.1809
   56CHL1   C16 6571   2.104   2.248   9.351 -0.5127 -0.4803 -0.6827
   56CHL1  H16A 6572   2.012   2.246   9.289  0.1007 -3.7446 -1.6691
   56CHL1  H16B 6573   2.153   2.343   9.321 -1.4660  0.3883  0.3900
   56CHL1   C17 6574   2.166   2.115   9.313 -0.3958  0.0103 -0.3829
   56CHL1   H17 6575   2.275   2.135   9.302 -0.6063  1.7887  0.4744
   56CHL1   C13 6576   2.152   2.027   9.434 -1.0100 -0.4373 -0.4110
   56CHL1   C18 6577   2.015   1.958   9.441 -0.3178  0.0862  0.2973
   56CHL1  H18A 6578   1.927   2.027   9.448 -0.7011 -0.3079 -0.4888
   56CHL1  H18B 6579   1.988   1.898   9.351 -0.2983 -0.8839  0.9292
   56CHL1  H18C 6580   2.002   1.895   9.531 -2.1162 -1.8976 -1.2187
   56CHL1   C12 6581   2.265   1.922   9.452  0.3714 -0.2766  0.2975
   56CHL1  H12A 6582   2.246   1.848   9.372 -0.7954 -0.2523  0.5338
   56CHL1  H12B 6583   2.362   1.974   9.440 -0.2637  0.8192 -0.2786
   56CHL1   C11 6584   2.267   1.862   9.592 -0.2644 -0.0862  0.4001
   56CHL1  H11A 6585   2.182   1.790   9.595 -0.9070  0.5778 -1.0523
   56CHL1  H11B 6586   2.361   1.803   9.591 -0.2059  0.0112  0.3057
   56CHL1    C9 6587   2.254   1.964   9.711 -0.0188 -0.5475  0.4788
   56CHL1    H9 6588   2.354   2.014   9.707 -0.2757 -0.0151  0.5797
   56CHL1   C10 6589   2.238   1.911   9.862  0.4162  0.0205  0.3020
   56CHL1   C19 6590   2.115   1.814   9.876  0.1455  0.0729  0.2895
   56CHL1  H19A 6591   2.134   1.709   9.843 -0.5838 -0.5454  1.7277
   56CHL1  H19B 6592   2.112   1.790   9.985  1.3854 -1.4618  0.0198
   56CHL1  H19C 6593   2.019   1.861   9.846  0.2892 -0.0396 -0.3615
   56CHL1    C1 6594   2.357   1.816   9.888  0.1321  0.1915  0.7777
   56CHL1   H1A 6595   2.351   1.727   9.822  2.1374 -0.5073  1.4524
   56CHL1   H1B 6596   2.450   1.872   9.860  0.2087  0.1039  0.8558
   56CHL1    C2 6597   2.390   1.767  10.032 -0.7116  0.1011 -0.5366
   56CHL1   H2A 6598   2.491   1.721  10.024 -0.4654  0.4575  0.3584
   56CHL1   H2B 6599   2.308   1.697  10.060  2.2941 -3.3161  0.5247
   56CHL1   C20 6600   2.120   2.060   9.178 -0.3813 -0.0405  0.4719
   56CHL1   H20 6601   2.010   2.042   9.174 -0.1966 -1.1382 -0.3087
   56CHL1   C21 6602   2.185   1.927   9.141 -0.1292  0.6816  0.2467
   56CHL1  H21A 6603   2.295   1.937   9.150 -0.1017 -0.8194  2.4502
   56CHL1  H21B 6604   2.150   1.893   9.041 -0.7601 -0.1710  0.7397
   56CHL1  H21C 6605   2.155   1.840   9.203 -0.5932 -0.8847 -2.0079
   56CHL1   C22 6606   2.157   2.154   9.057 -0.8628  0.3615  1.2388
   56CHL1  H22A 6607   2.139   2.259   9.087 -2.7818  0.2066  0.7705
   56CHL1  H22B 6608   2.267   2.152   9.038 -1.2320 -0.4878 -1.1485
   56CHL1   C23 6609   2.093   2.135   8.917  0.0498 -0.4827 -0.5387
   56CHL1  H23A 6610   2.109   2.031   8.882  2.5685 -0.7755  1.1960
   56CHL1  H23B 6611   1.987   2.159   8.941 -0.0167  1.3267 -2.4273
   56CHL1   C24 6612   2.140   2.225   8.807 -0.0555 -0.3297 -0.4758
   56CHL1  H24A 6613   2.139   2.332   8.835  1.6860 -0.1765 -0.8754
   56CHL1  H24B 6614   2.249   2.213   8.791 -0.3490  0.1279 -3.4620
   56CHL1   C25 6615   2.058   2.211   8.671 -1.6683  0.2132  0.6722
   56CHL1   H25 6616   1.991   2.123   8.676 -2.1048  0.2931 -2.1459
   56CHL1   C26 6617   1.979   2.338   8.663 -0.0882 -0.0750  0.9530
   56CHL1  H26A 6618   1.906   2.344   8.747 -1.6572  1.5695 -0.4390
   56CHL1  H26B 6619   2.039   2.431   8.662 -1.4462  0.9095 -2.5089
   56CHL1  H26C 6620   1.927   2.335   8.565  0.7792  1.0846  0.4375
   56CHL1   C27 6621   2.160   2.196   8.558 -0.5066 -0.3945 -0.3224
   56CHL1  H27A 6622   2.218   2.290   8.544  0.8720 -1.2076 -0.2108
   56CHL1  H27B 6623   2.232   2.112   8.554 -3.7227 -3.4482  0.6365
   56CHL1  H27C 6624   2.105   2.181   8.463 -0.0004 -0.1211 -0.6626
   57CHL1    C3 6625   6.418   4.899  10.325  0.4889  0.6648  0.4411
   57CHL1    H3 6626   6.383   5.004  10.329  0.5823  0.6870  0.7001
   57CHL1    O3 6627   6.487   4.868  10.445 -0.0578  0.2936 -0.1539
   57CHL1   H3' 6628   6.484   4.775  10.465  0.9234  0.6566  1.9249
   57CHL1    C4 6629   6.294   4.806  10.299  0.0027  0.2337 -0.1265
   57CHL1   H4A 6630   6.339   4.705  10.311  1.6507  0.9393 -0.1854
   57CHL1   H4B 6631   6.223   4.813  10.385  0.9017  0.0233  0.6429
   57CHL1    C5 6632   6.238   4.812  10.164  0.2998 -0.6047  0.4574
   57CHL1    C6 6633   6.115   4.846  10.151 -0.0252  0.6641  0.1869
   57CHL1    H6 6634   6.046   4.847  10.236 -2.2898 -0.8401 -1.5173
   57CHL1    C7 6635   6.041   4.878  10.027 -0.1382 -0.1686  0.5783
   57CHL1   H7A 6636   5.941   4.831  10.028  0.9260 -2.7216 -1.8441
   57CHL1   H7B 6637   6.024   4.988  10.018 -0.8785 -0.4057 -1.4014
   57CHL1    C8 6638   6.116   4.821   9.909  0.0613  0.0550  0.6276
   57CHL1    H8 6639   6.104   4.710   9.911  0.7655 -0.0865 -1.2050
   57CHL1   C14 6640   6.059   4.883   9.780 -0.3653 -0.5112 -0.2259
   57CHL1   H14 6641   6.074   4.992   9.793 -1.0525  0.0650 -3.3883
   57CHL1   C15 6642   5.907   4.886   9.755  0.4318  0.2268 -0.0766
   57CHL1  H15A 6643   5.873   4.782   9.776 -0.6897  0.4953 -0.5133
   57CHL1  H15B 6644   5.846   4.960   9.810 -1.8506 -1.4887 -0.1363
   57CHL1   C16 6645   5.893   4.903   9.601  0.1102 -0.1340  0.2150
   57CHL1  H16A 6646   5.860   4.803   9.567  1.6866 -0.5082 -0.2944
   57CHL1  H16B 6647   5.822   4.982   9.570  0.1773  0.0778  0.5809
   57CHL1   C17 6648   6.041   4.930   9.555  0.0070 -0.9063  0.1849
   57CHL1   H17 6649   6.070   5.035   9.577  2.2890 -1.2669 -0.7511
   57CHL1   C13 6650   6.132   4.847   9.652 -0.9547  0.1736 -0.0507
   57CHL1   C18 6651   6.120   4.691   9.613  0.5010  0.6308  0.0127
   57CHL1  H18A 6652   6.143   4.633   9.705 -1.3223 -0.9410 -0.4707
   57CHL1  H18B 6653   6.014   4.667   9.590  0.1565 -0.1105  2.1985
   57CHL1  H18C 6654   6.197   4.665   9.537  0.7060 -1.3734  0.8459
   57CHL1   C12 6655   6.281   4.882   9.661 -0.2103  0.0197  0.4086
   57CHL1  H12A 6656   6.322   4.850   9.563 -2.1342 -0.3849 -0.3078
   57CHL1  H12B 6657   6.310   4.989   9.664 -0.1444 -0.0220  1.7770
   57CHL1   C11 6658   6.350   4.818   9.783 -1.2332  0.0368 -0.3844
   57CHL1  H11A 6659   6.348   4.707   9.774  1.7590 -0.2975  1.4976
   57CHL1  H11B 6660   6.459   4.838   9.792 -0.8152 -1.0692 -2.3745
   57CHL1    C9 6661   6.273   4.859   9.919  0.7519  0.3938  0.0508
   57CHL1    H9 6662   6.271   4.970   9.918 -0.4262  0.3755 -0.3346
   57CHL1   C10 6663   6.335   4.810  10.044  0.5948  0.6742 -0.2049
   57CHL1   C19 6664   6.381   4.659  10.045  0.1425  0.5694 -0.1457
   57CHL1  H19A 6665   6.306   4.585  10.008  0.9057  0.0543 -0.6902
   57CHL1  H19B 6666   6.463   4.662   9.971 -1.8436  2.7031 -2.4489
   57CHL1  H19C 6667   6.406   4.630  10.149 -0.9488  3.7035  1.1041
   57CHL1    C1 6668   6.455   4.908  10.069 -0.3855 -0.3938  0.2318
   57CHL1   H1A 6669   6.527   4.905   9.985 -0.9803 -1.9286 -0.2746
   57CHL1   H1B 6670   6.418   5.012  10.069 -0.5757 -0.4416 -1.7386
   57CHL1    C2 6671   6.521   4.885  10.213  1.0899 -0.6207  0.1001
   57CHL1   H2A 6672   6.604   4.959  10.223  0.7533  0.3070 -3.0860
   57CHL1   H2B 6673   6.572   4.786  10.214  0.3265 -1.0177  0.7448
   57CHL1   C20 6674   6.058   4.917   9.408 -0.5218 -0.3261  0.3849
   57CHL1   H20 6675   6.057   4.809   9.384  1.1198  0.0091 -1.4533
   57CHL1   C21 6676   6.186   4.986   9.355 -0.0533  0.0951  0.3777
   57CHL1  H21A 6677   6.189   4.965   9.246 -0.6283  1.1687  0.1388
   57CHL1  H21B 6678   6.276   4.945   9.407 -0.4980  1.7005  2.5983
   57CHL1  H21C 6679   6.194   5.094   9.384  0.8214  0.0526  0.3388
   57CHL1   C22 6680   5.934   4.972   9.330  0.3425 -0.4510 -0.4029
   57CHL1  H22A 6681   5.836   4.937   9.370 -0.6114  2.7415  0.3626
   57CHL1  H22B 6682   5.924   5.082   9.320  1.8888 -0.3770 -1.3761
   57CHL1   C23 6683   5.939   4.926   9.186 -0.1416 -0.6006  0.3246
   57CHL1  H23A 6684   6.024   4.972   9.130  0.3192 -1.6812  0.1052
   57CHL1  H23B 6685   5.966   4.819   9.189  0.9006 -0.3704 -0.1984
   57CHL1   C24 6686   5.814   4.957   9.113  0.5672  0.7328 -0.0850
   57CHL1  H24A 6687   5.727   4.906   9.160 -0.1900  0.3168 -1.8379
   57CHL1  H24B 6688   5.809   5.068   9.118 -0.8058  0.6496  3.6257
   57CHL1   C25 6689   5.822   4.904   8.970  0.0367 -0.1478 -0.4674
   57CHL1   H25 6690   5.810   4.794   8.979  3.0818 -0.3934  3.0910
   57CHL1   C26 6691   5.718   4.970   8.875  0.2708  0.4081 -0.3121
   57CHL1  H26A 6692   5.703   4.898   8.792  0.3703  0.2998 -0.2381
   57CHL1  H26B 6693   5.621   4.969   8.930  0.4137  0.7120 -0.0488
   57CHL1  H26C 6694   5.743   5.073   8.843 -3.0291  1.7954  1.0986
   57CHL1   C27 6695   5.955   4.917   8.893 -0.0234  1.2896 -0.5159
   57CHL1  H27A 6696   5.945   4.879   8.789  0.1099 -1.6685  0.4339
   57CHL1  H27B 6697   5.991   5.022   8.886  1.9442  0.7538  0.6553
   57CHL1  H27C 6698   6.039   4.856   8.934  0.3232  0.3952 -2.4343
   58CHL1    C3 6699   1.742   4.339  10.291 -0.2863 -0.0684 -0.1604
   58CHL1    H3 6700   1.663   4.262  10.278 -1.8125  1.1867  1.2109
   58CHL1    O3 6701   1.757   4.359  10.429  0.2673 -0.2637  0.7625
   58CHL1   H3' 6702   1.831   4.419  10.433 -0.3795  0.5365  1.1043
   58CHL1    C4 6703   1.867   4.280  10.223  0.2263 -0.4709 -0.1622
   58CHL1   H4A 6704   1.956   4.323  10.275  0.0171  1.0261 -0.9720
   58CHL1   H4B 6705   1.869   4.172  10.247  1.4465 -0.4259  0.0366
   58CHL1    C5 6706   1.876   4.290  10.067 -0.1012 -0.6899 -0.5824
   58CHL1    C6 6707   1.918   4.191   9.982  0.0145 -0.1408  0.4710
   58CHL1    H6 6708   1.935   4.093  10.029  1.8276  0.6580  1.5880
   58CHL1    C7 6709   1.944   4.205   9.836 -0.6761 -0.1326 -0.2360
   58CHL1   H7A 6710   2.047   4.172   9.811 -0.1143 -0.0646  1.7982
   58CHL1   H7B 6711   1.861   4.144   9.794 -0.3437 -2.3322  2.0042
   58CHL1    C8 6712   1.927   4.345   9.782  0.3100 -0.1158 -0.1899
   58CHL1    H8 6713   2.015   4.409   9.802 -0.6495  1.3638 -0.5316
   58CHL1   C14 6714   1.899   4.344   9.637  0.4623 -0.3052 -0.1836
   58CHL1   H14 6715   1.795   4.314   9.611  0.1625  1.2322 -0.8911
   58CHL1   C15 6716   1.998   4.266   9.547 -0.3358  0.2064  0.1176
   58CHL1  H15A 6717   2.092   4.246   9.602 -0.7482  2.7087  1.8836
   58CHL1  H15B 6718   1.951   4.168   9.521  0.0651  0.2492 -0.8150
   58CHL1   C16 6719   2.004   4.342   9.417  0.7046 -0.9062  0.0171
   58CHL1  H16A 6720   2.102   4.393   9.403  0.8665 -0.8805  1.1362
   58CHL1  H16B 6721   1.984   4.284   9.325 -0.9722  1.6315 -1.3359
   58CHL1   C17 6722   1.898   4.451   9.421  0.9208  0.3595  0.0624
   58CHL1   H17 6723   1.799   4.406   9.398  1.7145 -1.2721 -0.3281
   58CHL1   C13 6724   1.894   4.487   9.570  0.1863  0.8181 -0.4079
   58CHL1   C18 6725   2.018   4.561   9.602 -0.3000 -0.4478  0.4795
   58CHL1  H18A 6726   2.110   4.500   9.598  1.2202  1.7885 -1.0174
   58CHL1  H18B 6727   2.033   4.650   9.538 -0.6204 -0.4387  0.4127
   58CHL1  H18C 6728   2.024   4.605   9.704 -0.2021 -0.8036  0.6307
   58CHL1   C12 6729   1.763   4.543   9.634 -0.2069  0.0033 -1.2029
   58CHL1  H12A 6730   1.753   4.642   9.586  1.8939  0.5093 -0.7077
   58CHL1  H12B 6731   1.683   4.470   9.607 -1.9788  0.9960  1.0076
   58CHL1   C11 6732   1.774   4.555   9.788  0.5994 -0.4388  0.2125
   58CHL1  H11A 6733   1.849   4.635   9.807  0.3391  0.3871 -1.9079
   58CHL1  H11B 6734   1.676   4.602   9.812  0.8371 -0.8166  2.0363
   58CHL1    C9 6735   1.806   4.422   9.857 -0.5092  0.4419 -0.1254
   58CHL1    H9 6736   1.711   4.366   9.850 -2.1451  3.0138  0.0346
   58CHL1   C10 6737   1.829   4.431  10.010  0.3134 -0.1409 -0.6559
   58CHL1   C19 6738   1.936   4.532  10.040  0.1978 -0.5396 -0.2069
   58CHL1  H19A 6739   1.954   4.539  10.150  0.3126 -1.0201 -0.1901
   58CHL1  H19B 6740   2.028   4.508   9.982  0.5562 -1.8215  0.8345
   58CHL1  H19C 6741   1.906   4.633  10.007 -0.2179 -0.5440  0.1422
   58CHL1    C1 6742   1.687   4.467  10.073 -0.4355  0.1974 -0.0617
   58CHL1   H1A 6743   1.655   4.569  10.041  0.5767  0.3667 -0.5926
   58CHL1   H1B 6744   1.614   4.396  10.030  0.3558 -0.1475 -0.8732
   58CHL1    C2 6745   1.690   4.468  10.231  0.0232  0.8136  0.1947
   58CHL1   H2A 6746   1.592   4.508  10.265 -1.3720 -1.1584 -1.3147
   58CHL1   H2B 6747   1.762   4.549  10.259 -0.8153  1.7089 -0.1759
   58CHL1   C20 6748   1.922   4.564   9.318 -0.3104  0.3566 -0.1717
   58CHL1   H20 6749   2.025   4.597   9.345 -0.6865 -1.3135  4.0817
   58CHL1   C21 6750   1.811   4.664   9.331 -0.0107 -0.0033 -0.5359
   58CHL1  H21A 6751   1.719   4.602   9.338  0.8921 -1.3120 -0.0325
   58CHL1  H21B 6752   1.804   4.743   9.252 -1.3845 -1.2407 -1.7177
   58CHL1  H21C 6753   1.833   4.719   9.425  4.0059 -1.4224 -0.4594
   58CHL1   C22 6754   1.936   4.503   9.175  0.3879  0.3408  0.1234
   58CHL1  H22A 6755   1.998   4.411   9.173  0.8309  0.6557 -0.9957
   58CHL1  H22B 6756   1.837   4.466   9.139  1.0616  0.2339 -1.7086
   58CHL1   C23 6757   1.978   4.602   9.066  0.1277  1.0019 -0.4001
   58CHL1  H23A 6758   1.925   4.699   9.067 -1.1415  0.3855 -2.0692
   58CHL1  H23B 6759   2.081   4.618   9.104 -0.2838 -1.1646  1.9430
   58CHL1   C24 6760   1.969   4.550   8.921  0.0291 -0.4470 -0.4199
   58CHL1  H24A 6761   2.003   4.445   8.908  0.7285 -0.4800  1.4116
   58CHL1  H24B 6762   1.863   4.555   8.890  0.0883 -1.4533 -0.7970
   58CHL1   C25 6763   2.044   4.638   8.826  0.4651  1.1066  0.0233
   58CHL1   H25 6764   2.148   4.646   8.865 -0.0695 -1.3226  2.2217
   58CHL1   C26 6765   2.059   4.584   8.681 -0.0519  0.4353 -0.3863
   58CHL1  H26A 6766   1.963   4.549   8.637  0.5963 -0.5991 -1.0076
   58CHL1  H26B 6767   2.098   4.666   8.616  0.1268 -0.3511 -1.2861
   58CHL1  H26C 6768   2.132   4.501   8.675  0.1817  0.5544  0.7042
   58CHL1   C27 6769   1.984   4.780   8.820 -0.3162 -0.7150  0.4552
   58CHL1  H27A 6770   2.054   4.843   8.761 -0.2221 -0.9331  0.3349
   58CHL1  H27B 6771   1.896   4.773   8.752 -0.5983 -3.2243  0.9861
   58CHL1  H27C 6772   1.959   4.821   8.920 -0.5449  2.7844 -0.8909
   59CHL1    C3 6773   1.395   3.941  10.330 -0.3495  1.5554  0.3072
   59CHL1    H3 6774   1.287   3.947  10.307  0.1246  1.2775 -2.2809
   59CHL1    O3 6775   1.425   3.929  10.469 -0.3364 -0.1346 -0.3750
   59CHL1   H3' 6776   1.520   3.937  10.480  0.2282 -3.2178 -1.9420
   59CHL1    C4 6777   1.448   3.818  10.261 -0.8020  0.5963  0.3172
   59CHL1   H4A 6778   1.554   3.800  10.289 -0.9665 -1.6406 -0.3186
   59CHL1   H4B 6779   1.393   3.731  10.300 -0.3115  0.5042  0.8210
   59CHL1    C5 6780   1.439   3.833  10.107  0.5393  0.3093  0.7113
   59CHL1    C6 6781   1.383   3.742  10.023 -0.0562  0.6911  0.0401
   59CHL1    H6 6782   1.352   3.641  10.054  2.3862  0.0868  0.7171
   59CHL1    C7 6783   1.353   3.770   9.877  0.2922 -0.8379 -0.2577
   59CHL1   H7A 6784   1.336   3.678   9.817 -0.6544 -1.7339  1.3314
   59CHL1   H7B 6785   1.250   3.811   9.869  0.3355 -0.8618 -1.0593
   59CHL1    C8 6786   1.446   3.870   9.809  0.1770 -0.1055  0.4641
   59CHL1    H8 6787   1.549   3.828   9.809  0.5108  0.7030  0.3534
   59CHL1   C14 6788   1.406   3.915   9.666  1.0427 -0.2366 -0.7118
   59CHL1   H14 6789   1.311   3.970   9.679  1.7729  0.7397  0.7480
   59CHL1   C15 6790   1.389   3.797   9.574  0.9888  0.4983  0.8043
   59CHL1  H15A 6791   1.464   3.715   9.577  0.8387  0.1372 -2.3674
   59CHL1  H15B 6792   1.290   3.748   9.589  0.1948  1.4974 -0.9009
   59CHL1   C16 6793   1.403   3.864   9.433  0.0634 -0.1400  0.2019
   59CHL1  H16A 6794   1.471   3.798   9.374  1.4321  1.1024  0.3159
   59CHL1  H16B 6795   1.303   3.864   9.385  0.7497  0.5833 -1.2900
   59CHL1   C17 6796   1.455   4.007   9.453  0.2285 -0.1526  0.2460
   59CHL1   H17 6797   1.372   4.081   9.457  0.0302 -0.3388 -0.3558
   59CHL1   C13 6798   1.510   4.007   9.597  1.4053 -0.1064 -0.1718
   59CHL1   C18 6799   1.652   3.951   9.589  0.0765  0.0001 -0.2494
   59CHL1  H18A 6800   1.720   4.036   9.566 -3.2973  2.9950 -0.1568
   59CHL1  H18B 6801   1.689   3.912   9.686 -2.7238 -0.8940  0.5661
   59CHL1  H18C 6802   1.658   3.871   9.512  0.2868 -2.6255  2.3208
   59CHL1   C12 6803   1.495   4.136   9.682 -1.0345  0.2623 -0.7198
   59CHL1  H12A 6804   1.562   4.210   9.633  0.3029 -0.6439 -0.3226
   59CHL1  H12B 6805   1.391   4.175   9.676 -1.0345  1.1085  2.6417
   59CHL1   C11 6806   1.535   4.116   9.835 -0.0390 -0.1322  0.8564
   59CHL1  H11A 6807   1.641   4.086   9.819 -0.1687  0.3885 -1.2794
   59CHL1  H11B 6808   1.524   4.207   9.898 -1.0785 -0.4610  1.1620
   59CHL1    C9 6809   1.463   3.999   9.903  0.0414  0.1719  0.1865
   59CHL1    H9 6810   1.357   4.033   9.903  0.3829  1.2775  1.0065
   59CHL1   C10 6811   1.499   3.971  10.052  0.2484  0.0270 -0.3271
   59CHL1   C19 6812   1.646   3.931  10.056  0.2170  0.2129 -0.5983
   59CHL1  H19A 6813   1.685   3.912  10.158 -1.6615  0.5288  0.2078
   59CHL1  H19B 6814   1.673   3.845   9.990  0.7352  1.2906 -1.8388
   59CHL1  H19C 6815   1.706   4.018  10.021 -0.7474  1.8693  1.6464
   59CHL1    C1 6816   1.466   4.099  10.138 -0.3971  0.4155  0.6187
   59CHL1   H1A 6817   1.537   4.179  10.109 -0.8154  0.2813 -0.8801
   59CHL1   H1B 6818   1.363   4.128  10.109 -0.7763 -1.0723  0.3990
   59CHL1    C2 6819   1.463   4.072  10.280  0.3207 -0.8917  0.7906
   59CHL1   H2A 6820   1.419   4.155  10.339 -0.5088  0.2718 -1.3637
   59CHL1   H2B 6821   1.569   4.074  10.312 -0.4210  1.3381  3.4723
   59CHL1   C20 6822   1.539   4.060   9.333 -0.1440  0.6728  0.4785
   59CHL1   H20 6823   1.627   3.993   9.316  0.2167  1.1526  0.4389
   59CHL1   C21 6824   1.589   4.203   9.369 -0.0983  0.4733  0.0017
   59CHL1  H21A 6825   1.509   4.267   9.412 -1.0418 -1.0004  0.4963
   59CHL1  H21B 6826   1.634   4.249   9.279  0.7890 -5.3668 -2.9982
   59CHL1  H21C 6827   1.668   4.190   9.446  0.6234 -1.5608 -1.0007
   59CHL1   C22 6828   1.455   4.062   9.198 -0.3376 -0.2747  0.2804
   59CHL1  H22A 6829   1.402   3.965   9.186  1.1819 -1.0693 -0.3793
   59CHL1  H22B 6830   1.381   4.145   9.196 -0.8883 -0.7662 -0.1444
   59CHL1   C23 6831   1.541   4.094   9.072  0.2860 -0.6583 -0.3250
   59CHL1  H23A 6832   1.625   4.163   9.095  0.1453 -0.2455 -1.0185
   59CHL1  H23B 6833   1.585   4.000   9.031 -0.7102 -1.1092 -0.3861
   59CHL1   C24 6834   1.454   4.148   8.952  1.3314  0.0596 -0.0520
   59CHL1  H24A 6835   1.369   4.080   8.931  2.9181 -1.7898 -0.7771
   59CHL1  H24B 6836   1.402   4.244   8.976 -0.8137 -0.2998 -2.7020
   59CHL1   C25 6837   1.525   4.187   8.824 -0.0039 -0.3214 -0.1431
   59CHL1   H25 6838   1.592   4.106   8.788  0.1313  0.0034 -0.6475
   59CHL1   C26 6839   1.420   4.230   8.727  0.3187 -0.0492 -0.0774
   59CHL1  H26A 6840   1.351   4.147   8.702 -1.9941  0.5985  3.4753
   59CHL1  H26B 6841   1.357   4.308   8.775 -0.8586 -1.4634  0.7274
   59CHL1  H26C 6842   1.462   4.264   8.629  0.1056 -0.4342 -0.3066
   59CHL1   C27 6843   1.635   4.294   8.843 -0.2468 -0.5565  0.4739
   59CHL1  H27A 6844   1.711   4.300   8.763 -0.7080 -0.9976 -0.0081
   59CHL1  H27B 6845   1.601   4.399   8.837  1.9697  0.1288 -1.5360
   59CHL1  H27C 6846   1.695   4.282   8.936  2.1791 -1.0667 -1.0710
   60CHL1    C3 6847   0.819   0.487  10.369  0.0895 -0.0862 -0.5523
   60CHL1    H3 6848   0.908   0.553  10.379 -0.7696  0.7902  2.0159
   60CHL1    O3 6849   0.797   0.420  10.495 -0.0952 -0.0713 -0.3317
   60CHL1   H3' 6850   0.798   0.494  10.556  0.3740 -0.6163  0.3300
   60CHL1    C4 6851   0.699   0.577  10.338  0.5561 -0.6250  0.3495
   60CHL1   H4A 6852   0.606   0.521  10.359 -0.4479  1.1894  0.9681
   60CHL1   H4B 6853   0.706   0.655  10.418  0.2167 -1.4137  1.1718
   60CHL1    C5 6854   0.707   0.625  10.194  0.2165  0.0028 -0.0637
   60CHL1    C6 6855   0.686   0.757  10.168  0.4778 -0.7167  0.5855
   60CHL1    H6 6856   0.660   0.824  10.250 -1.2793 -0.2459 -0.2955
   60CHL1    C7 6857   0.674   0.819  10.035  0.4620 -0.3797  0.2445
   60CHL1   H7A 6858   0.578   0.876  10.035 -0.3403 -1.6707 -1.1448
   60CHL1   H7B 6859   0.759   0.890  10.024 -0.8619  0.9680 -2.1290
   60CHL1    C8 6860   0.691   0.719   9.908 -0.4618  0.6344  0.3697
   60CHL1    H8 6861   0.591   0.678   9.884  0.6069 -1.5577 -0.5619
   60CHL1   C14 6862   0.716   0.789   9.783 -0.9029  0.3595 -0.3980
   60CHL1   H14 6863   0.822   0.823   9.791 -0.1092 -1.7199 -1.3032
   60CHL1   C15 6864   0.631   0.910   9.746 -0.0158  0.4983 -0.6971
   60CHL1  H15A 6865   0.530   0.875   9.776  0.1920 -1.4834 -2.0781
   60CHL1  H15B 6866   0.655   1.002   9.802 -0.6059  1.4562 -1.9584
   60CHL1   C16 6867   0.648   0.922   9.593  0.0654 -0.6889 -0.4770
   60CHL1  H16A 6868   0.549   0.904   9.546  0.2736  0.0300 -1.2148
   60CHL1  H16B 6869   0.699   1.012   9.552 -1.7942 -0.3532 -2.2382
   60CHL1   C17 6870   0.739   0.805   9.554  0.7028 -0.5407 -0.5763
   60CHL1   H17 6871   0.840   0.848   9.574  0.8184 -1.0774  0.0433
   60CHL1   C13 6872   0.714   0.696   9.659 -0.4240  0.9414 -0.3615
   60CHL1   C18 6873   0.571   0.636   9.625 -0.1549 -0.0378  0.0344
   60CHL1  H18A 6874   0.516   0.589   9.710 -1.1362 -1.9165 -1.5384
   60CHL1  H18B 6875   0.495   0.707   9.587 -1.0829 -0.0493  1.7592
   60CHL1  H18C 6876   0.584   0.546   9.560 -1.6196  0.7140 -1.3629
   60CHL1   C12 6877   0.813   0.584   9.684  0.4312 -0.5343  0.0502
   60CHL1  H12A 6878   0.811   0.510   9.602 -1.5690  0.0624 -0.4891
   60CHL1  H12B 6879   0.919   0.618   9.690  1.0382 -2.4658  0.7378
   60CHL1   C11 6880   0.781   0.513   9.813 -0.2319  0.1930 -0.1078
   60CHL1  H11A 6881   0.687   0.456   9.800  0.4724 -1.0501  0.1278
   60CHL1  H11B 6882   0.854   0.431   9.826 -1.3045 -0.7718  0.0161
   60CHL1    C9 6883   0.779   0.599   9.944 -0.1155 -0.0459 -0.5154
   60CHL1    H9 6884   0.880   0.640   9.967 -0.6754  1.8687 -1.2038
   60CHL1   C10 6885   0.741   0.533  10.075  1.1752  0.1026 -0.0613
   60CHL1   C19 6886   0.624   0.437  10.046 -0.4867  1.5118  0.3218
   60CHL1  H19A 6887   0.647   0.336  10.007 -3.6937  0.7435  0.1597
   60CHL1  H19B 6888   0.566   0.413  10.138  2.1364 -0.8022  1.5150
   60CHL1  H19C 6889   0.555   0.478   9.970  0.2256  0.3416 -0.9987
   60CHL1    C1 6890   0.855   0.444  10.129  0.9542  0.7314 -0.6598
   60CHL1   H1A 6891   0.884   0.373  10.049  0.1348  1.6860 -1.8440
   60CHL1   H1B 6892   0.941   0.514  10.141 -0.7392  2.6393  1.2951
   60CHL1    C2 6893   0.846   0.379  10.267 -0.2732 -0.0165  0.2191
   60CHL1   H2A 6894   0.937   0.322  10.292 -0.6771 -0.4620  0.6901
   60CHL1   H2B 6895   0.763   0.305  10.269 -0.1204 -0.1783  2.5293
   60CHL1   C20 6896   0.725   0.763   9.407 -0.6622  0.2689  1.0127
   60CHL1   H20 6897   0.626   0.715   9.394 -0.4807 -0.2010  1.3634
   60CHL1   C21 6898   0.833   0.669   9.354  0.2240 -0.6716 -0.6593
   60CHL1  H21A 6899   0.822   0.566   9.392  1.9130 -0.4754  0.4714
   60CHL1  H21B 6900   0.937   0.706   9.371  0.4678 -1.3908 -0.5380
   60CHL1  H21C 6901   0.818   0.659   9.244 -3.4011 -0.3870 -0.2870
   60CHL1   C22 6902   0.724   0.883   9.305  0.2729 -0.8761 -0.3326
   60CHL1  H22A 6903   0.692   0.839   9.208  0.0958  0.4877 -0.9187
   60CHL1  H22B 6904   0.643   0.952   9.337  1.5871  0.6348 -0.1237
   60CHL1   C23 6905   0.846   0.965   9.292 -0.4920  0.3759 -0.3392
   60CHL1  H23A 6906   0.883   0.992   9.394  0.3208  1.1922 -0.8318
   60CHL1  H23B 6907   0.925   0.906   9.241  0.7202  0.2496  1.5663
   60CHL1   C24 6908   0.838   1.105   9.231 -0.4243  0.2692  0.1887
   60CHL1  H24A 6909   0.831   1.108   9.120  1.9070 -2.4423 -0.1334
   60CHL1  H24B 6910   0.741   1.145   9.269  0.2173 -0.4271  2.6853
   60CHL1   C25 6911   0.952   1.198   9.277  0.1048  0.1182 -0.2709
   60CHL1   H25 6912   0.935   1.227   9.383 -2.6881 -2.1715  0.0309
   60CHL1   C26 6913   1.084   1.126   9.260  0.0735 -0.8539 -0.0718
   60CHL1  H26A 6914   1.090   1.037   9.327  3.1279 -0.1517  0.7446
   60CHL1  H26B 6915   1.101   1.093   9.156 -0.0068 -1.7517  0.1946
   60CHL1  H26C 6916   1.172   1.192   9.276 -0.0347 -1.0262  1.3569
   60CHL1   C27 6917   0.946   1.332   9.201 -0.2882 -0.0677  0.3460
   60CHL1  H27A 6918   1.033   1.398   9.222 -0.8919  0.7272  0.3876
   60CHL1  H27B 6919   0.929   1.314   9.092  0.4622  1.9483 -0.1431
   60CHL1  H27C 6920   0.856   1.377   9.249 -0.9165 -1.3720  0.4279
   61CHL1    C3 6921   5.344   4.332  10.468 -0.3472 -0.2934 -0.4238
   61CHL1    H3 6922   5.373   4.434  10.436  0.5580  0.1538  1.6717
   61CHL1    O3 6923   5.305   4.350  10.602 -0.1748 -0.3382 -0.4177
   61CHL1   H3' 6924   5.242   4.419  10.582 -0.1038 -0.3748 -0.7849
   61CHL1    C4 6925   5.226   4.264  10.393  0.9351 -0.9398 -0.0465
   61CHL1   H4A 6926   5.223   4.166  10.444  2.0561 -1.9084 -1.7187
   61CHL1   H4B 6927   5.132   4.322  10.405  0.3843 -1.9684  0.7245
   61CHL1    C5 6928   5.267   4.234  10.248  0.2218 -0.7084  0.0116
   61CHL1    C6 6929   5.195   4.285  10.149 -0.7242 -0.7709  0.1183
   61CHL1    H6 6930   5.105   4.346  10.163 -0.7583 -1.1254  1.6512
   61CHL1    C7 6931   5.237   4.268  10.009  0.0138  0.1296 -0.6097
   61CHL1   H7A 6932   5.145   4.233   9.956  0.1550  1.5437 -1.8563
   61CHL1   H7B 6933   5.264   4.367   9.966  3.3909 -0.2007  0.5153
   61CHL1    C8 6934   5.351   4.165   9.982 -0.4374  1.0861  0.2071
   61CHL1    H8 6935   5.297   4.069   9.996 -0.6794  1.3498  1.2038
   61CHL1   C14 6936   5.402   4.175   9.841 -0.0913  0.5250  0.3422
   61CHL1   H14 6937   5.460   4.268   9.825 -0.2131  0.7980  1.3936
   61CHL1   C15 6938   5.295   4.167   9.731 -0.7302 -0.5783  0.6705
   61CHL1  H15A 6939   5.213   4.092   9.737 -1.9495  0.6517 -0.0253
   61CHL1  H15B 6940   5.251   4.269   9.719 -0.0682  0.0114  2.7486
   61CHL1   C16 6941   5.379   4.141   9.607  0.8042  0.5045 -0.1440
   61CHL1  H16A 6942   5.339   4.071   9.530  1.8403 -1.2478  0.8487
   61CHL1  H16B 6943   5.387   4.240   9.557 -0.7954  1.5190  1.4888
   61CHL1   C17 6944   5.519   4.094   9.655  0.0756  0.2056  0.6066
   61CHL1   H17 6945   5.578   4.188   9.647 -0.9310  0.7555 -0.5926
   61CHL1   C13 6946   5.510   4.070   9.801  0.4053  0.0501 -0.0771
   61CHL1   C18 6947   5.457   3.934   9.828  1.1199 -0.6004 -0.5685
   61CHL1  H18A 6948   5.467   3.904   9.935 -0.5845 -0.9510 -0.4796
   61CHL1  H18B 6949   5.349   3.925   9.806  0.5924  1.2829  0.9890
   61CHL1  H18C 6950   5.499   3.853   9.763 -2.4846 -2.3738 -0.9184
   61CHL1   C12 6951   5.633   4.107   9.889 -0.0275 -0.5305 -0.3951
   61CHL1  H12A 6952   5.711   4.035   9.856 -1.4957 -1.5975 -1.7009
   61CHL1  H12B 6953   5.658   4.210   9.855 -1.3647 -0.0895 -0.1227
   61CHL1   C11 6954   5.601   4.105  10.043  0.8902 -0.2024 -0.6951
   61CHL1  H11A 6955   5.598   3.999  10.074  0.2655  0.4302  1.6928
   61CHL1  H11B 6956   5.682   4.158  10.097  0.8654  0.1653 -1.0144
   61CHL1    C9 6957   5.469   4.181  10.083 -0.6114 -0.6042 -0.1605
   61CHL1    H9 6958   5.501   4.287  10.082 -2.9096  0.1662  1.3366
   61CHL1   C10 6959   5.410   4.166  10.228  0.5160 -0.3165  0.7936
   61CHL1   C19 6960   5.393   4.018  10.258 -0.7058  0.5111  0.0534
   61CHL1  H19A 6961   5.331   3.975  10.177 -1.7735  0.6429  0.7689
   61CHL1  H19B 6962   5.490   3.970  10.233 -1.0407 -0.3687  0.3928
   61CHL1  H19C 6963   5.352   3.988  10.357  2.9785  0.5998  1.7589
   61CHL1    C1 6964   5.515   4.218  10.326  0.0319 -0.1911 -0.9900
   61CHL1   H1A 6965   5.602   4.149  10.333  0.1207  0.1015  1.2696
   61CHL1   H1B 6966   5.563   4.309  10.284 -0.4809 -0.7004 -2.7817
   61CHL1    C2 6967   5.460   4.238  10.472  0.5651 -0.1981  0.4275
   61CHL1   H2A 6968   5.548   4.270  10.532  1.2441 -3.8394  1.6320
   61CHL1   H2B 6969   5.435   4.137  10.513  0.3057 -0.8364 -1.2013
   61CHL1   C20 6970   5.582   3.990   9.558 -0.0023 -0.3745 -0.3253
   61CHL1   H20 6971   5.508   3.908   9.549 -1.6914  1.2749 -2.5155
   61CHL1   C21 6972   5.714   3.926   9.600 -0.3025 -0.2507 -0.3930
   61CHL1  H21A 6973   5.700   3.843   9.672 -0.8685  0.4520  0.3284
   61CHL1  H21B 6974   5.778   4.002   9.649 -1.0284  1.0261 -1.3558
   61CHL1  H21C 6975   5.769   3.901   9.507  2.0366  1.4271  0.4567
   61CHL1   C22 6976   5.578   4.057   9.418  0.2914  0.0409  0.0446
   61CHL1  H22A 6977   5.490   4.119   9.389  1.4188  1.0117 -1.4672
   61CHL1  H22B 6978   5.661   4.130   9.413  0.5273 -0.2660 -0.6491
   61CHL1   C23 6979   5.568   3.949   9.314  0.4280  0.3011  0.4200
   61CHL1  H23A 6980   5.655   3.881   9.321  0.0243 -0.0916  2.0560
   61CHL1  H23B 6981   5.474   3.889   9.318  0.3520  0.2370 -1.4619
   61CHL1   C24 6982   5.563   4.007   9.169  1.0331  0.2277  0.1993
   61CHL1  H24A 6983   5.464   4.052   9.147 -0.2188 -0.9000  3.0097
   61CHL1  H24B 6984   5.639   4.087   9.163  0.7068  0.4761 -0.8537
   61CHL1   C25 6985   5.596   3.903   9.063 -0.1840  0.2253  0.2109
   61CHL1   H25 6986   5.687   3.849   9.100 -0.8999  0.4440  2.4475
   61CHL1   C26 6987   5.478   3.811   9.025 -0.2436  0.5536  0.5896
   61CHL1  H26A 6988   5.448   3.765   9.122 -0.4620  1.8052  1.1297
   61CHL1  H26B 6989   5.394   3.864   8.976  0.1669 -0.3912 -1.2175
   61CHL1  H26C 6990   5.502   3.731   8.952 -1.6197 -1.6169  2.3680
   61CHL1   C27 6991   5.632   3.970   8.927  0.1500 -0.3539 -0.2544
   61CHL1  H27A 6992   5.696   4.057   8.952 -1.2118 -0.3189  3.9566
   61CHL1  H27B 6993   5.685   3.901   8.858 -0.8234 -1.1162 -0.2610
   61CHL1  H27C 6994   5.542   4.011   8.876 -0.9825  0.6264  2.3521
   62CHL1    C3 6995   4.967   6.116   9.827  0.1009  0.2500 -0.8996
   62CHL1    H3 6996   5.019   6.214   9.818  0.8065  0.0354  0.5753
   62CHL1    O3 6997   4.961   6.091   9.966 -0.2180  0.4874 -0.2747
   62CHL1   H3' 6998   4.930   6.000   9.970  1.0795  0.0436  0.4589
   62CHL1    C4 6999   4.820   6.115   9.783 -0.2471 -0.6172 -0.4814
   62CHL1   H4A 7000   4.774   6.020   9.818  2.0673 -0.5832  3.1306
   62CHL1   H4B 7001   4.776   6.204   9.832 -0.6249  0.5972 -2.8574
   62CHL1    C5 7002   4.814   6.132   9.636  0.0488  0.0684 -0.1443
   62CHL1    C6 7003   4.750   6.236   9.576 -0.2368  0.3722  0.3486
   62CHL1    H6 7004   4.707   6.316   9.638 -0.0768  0.8127 -0.1002
   62CHL1    C7 7005   4.735   6.251   9.426  0.1292  0.6075  0.1923
   62CHL1   H7A 7006   4.626   6.245   9.404  0.1622  0.3394  0.1089
   62CHL1   H7B 7007   4.789   6.343   9.393 -1.3937  1.4115 -0.1726
   62CHL1    C8 7008   4.789   6.138   9.340 -0.4321  0.2796  0.6311
   62CHL1    H8 7009   4.719   6.055   9.317 -0.6265  0.9620 -1.4468
   62CHL1   C14 7010   4.820   6.187   9.192  0.0584  0.5274 -0.4290
   62CHL1   H14 7011   4.909   6.253   9.200  0.2980  0.7443 -3.6725
   62CHL1   C15 7012   4.715   6.253   9.108  0.1231 -0.8420  0.7486
   62CHL1  H15A 7013   4.619   6.196   9.100 -0.6821  0.4728  0.8067
   62CHL1  H15B 7014   4.686   6.352   9.148  0.0373 -0.2990 -0.6100
   62CHL1   C16 7015   4.782   6.272   8.975 -0.0160 -0.1464  0.5208
   62CHL1  H16A 7016   4.719   6.241   8.888 -0.6787 -1.0871  1.3144
   62CHL1  H16B 7017   4.821   6.375   8.960 -0.4968  0.1548  1.2946
   62CHL1   C17 7018   4.902   6.170   8.972  0.9534 -0.4365  0.7719
   62CHL1   H17 7019   4.995   6.228   8.987 -0.0692  1.6315 -0.3903
   62CHL1   C13 7020   4.883   6.087   9.099 -0.5362  0.8742  0.0610
   62CHL1   C18 7021   4.785   5.968   9.068  1.0829  0.0164 -0.2411
   62CHL1  H18A 7022   4.824   5.892   8.997  1.9167 -1.7422  1.9716
   62CHL1  H18B 7023   4.769   5.927   9.170  4.4576  1.1454  0.8660
   62CHL1  H18C 7024   4.690   6.008   9.027  1.0337  1.4019  1.1428
   62CHL1   C12 7025   5.010   6.023   9.159  0.4073  0.3037 -0.2871
   62CHL1  H12A 7026   5.047   5.929   9.114  1.1074 -0.4199  1.6871
   62CHL1  H12B 7027   5.090   6.100   9.170  0.2159  0.5623 -0.7118
   62CHL1   C11 7028   4.976   5.976   9.307  0.1391 -0.1344 -0.3619
   62CHL1  H11A 7029   4.909   5.888   9.295  0.4934 -0.4233 -0.2193
   62CHL1  H11B 7030   5.061   5.933   9.363 -1.5008 -0.1266  2.3433
   62CHL1    C9 7031   4.912   6.080   9.402 -0.1404  0.2869 -0.6684
   62CHL1    H9 7032   4.983   6.166   9.405  1.7685 -1.0759 -2.8411
   62CHL1   C10 7033   4.905   6.033   9.552  0.7612 -0.6342  0.2092
   62CHL1   C19 7034   4.832   5.901   9.556  0.3538 -0.1590  0.7542
   62CHL1  H19A 7035   4.735   5.896   9.503  1.7744  1.0302 -2.2211
   62CHL1  H19B 7036   4.895   5.815   9.526 -1.5150 -1.9132  1.7026
   62CHL1  H19C 7037   4.804   5.873   9.660  2.0466 -2.1297  0.7315
   62CHL1    C1 7038   5.053   6.037   9.610 -0.3253 -0.3884  0.7209
   62CHL1   H1A 7039   5.125   5.968   9.560  0.5839 -0.2364  1.7757
   62CHL1   H1B 7040   5.098   6.137   9.591  0.3224 -0.5447  1.3892
   62CHL1    C2 7041   5.056   6.013   9.762 -0.4587  0.1434 -0.7133
   62CHL1   H2A 7042   5.155   6.024   9.812  0.3339 -0.9551 -1.9687
   62CHL1   H2B 7043   5.022   5.908   9.774 -1.1482  0.3050 -1.2088
   62CHL1   C20 7044   4.924   6.109   8.833 -0.2589  0.2198  0.3495
   62CHL1   H20 7045   4.831   6.052   8.812 -0.9952  1.4173  0.2945
   62CHL1   C21 7046   5.049   6.015   8.842  0.5405  0.1754  0.3925
   62CHL1  H21A 7047   5.139   6.065   8.883  0.7404  0.2422 -0.1138
   62CHL1  H21B 7048   5.083   5.973   8.745 -0.8405 -1.6563  0.6573
   62CHL1  H21C 7049   5.031   5.921   8.899 -0.4435 -0.1153 -0.3653
   62CHL1   C22 7050   4.943   6.218   8.724  0.5273 -1.2457  0.2496
   62CHL1  H22A 7051   4.860   6.293   8.725  1.7591  0.2024  2.2569
   62CHL1  H22B 7052   5.027   6.286   8.750 -1.1300  1.0802 -0.0471
   62CHL1   C23 7053   4.957   6.171   8.576  0.4251 -0.8449 -0.5847
   62CHL1  H23A 7054   5.044   6.102   8.570  0.2388 -1.2209  0.7163
   62CHL1  H23B 7055   4.858   6.125   8.553 -0.2864 -0.2325  1.0802
   62CHL1   C24 7056   4.970   6.291   8.473 -0.3643 -0.7937 -0.1205
   62CHL1  H24A 7057   4.897   6.374   8.486 -1.3284 -1.7003  0.4176
   62CHL1  H24B 7058   5.071   6.335   8.491 -1.8632  1.8582  2.7168
   62CHL1   C25 7059   4.962   6.245   8.326 -0.5127  0.0849 -0.6258
   62CHL1   H25 7060   4.871   6.182   8.316  1.4647 -2.7097 -2.6917
   62CHL1   C26 7061   4.970   6.358   8.225  0.0728  0.0128 -0.7966
   62CHL1  H26A 7062   4.894   6.438   8.228  0.4708  0.3685  1.3849
   62CHL1  H26B 7063   5.066   6.409   8.248 -0.6489  1.4670 -0.9032
   62CHL1  H26C 7064   4.976   6.302   8.129 -0.5904  0.0042 -0.8373
   62CHL1   C27 7065   5.082   6.150   8.291  0.4284  0.5023  0.2595
   62CHL1  H27A 7066   5.067   6.121   8.184  0.4755  0.7904  0.1731
   62CHL1  H27B 7067   5.172   6.214   8.282  0.6511  0.0231 -1.2024
   62CHL1  H27C 7068   5.092   6.064   8.360 -1.3388 -0.8392 -1.0452
   63CHL1    C3 7069   0.572   6.734  10.420 -0.7025 -0.7999  0.2521
   63CHL1    H3 7070   0.624   6.661  10.354 -1.0669 -0.3097 -0.6032
   63CHL1    O3 7071   0.653   6.763  10.535  0.4709  0.2089  0.2241
   63CHL1   H3' 7072   0.658   6.676  10.575 -1.5231 -1.4283 -2.7066
   63CHL1    C4 7073   0.556   6.876  10.338  0.5523  0.7866  0.1067
   63CHL1   H4A 7074   0.504   6.945  10.408  0.8146  1.0261  0.0652
   63CHL1   H4B 7075   0.658   6.910  10.313  1.7233 -1.3957  1.5754
   63CHL1    C5 7076   0.466   6.854  10.214  0.4453 -0.4393  0.1987
   63CHL1    C6 7077   0.514   6.878  10.092 -0.1810 -0.1547  0.0319
   63CHL1    H6 7078   0.609   6.934  10.093  0.8233 -1.6652  3.2664
   63CHL1    C7 7079   0.438   6.844   9.963 -0.7213  0.5390 -0.2087
   63CHL1   H7A 7080   0.447   6.922   9.884  1.7335  0.1128 -0.4457
   63CHL1   H7B 7081   0.475   6.749   9.917 -1.2757  0.7468 -1.1198
   63CHL1    C8 7082   0.287   6.814   9.984  0.0888 -0.0697  0.9036
   63CHL1    H8 7083   0.240   6.914  10.000  0.5324  0.3817 -0.4427
   63CHL1   C14 7084   0.223   6.758   9.864  0.7144  0.3539 -0.0881
   63CHL1   H14 7085   0.273   6.659   9.857  0.9452  0.5065 -0.6953
   63CHL1   C15 7086   0.251   6.804   9.722  0.5432  0.0397 -0.1772
   63CHL1  H15A 7087   0.242   6.914   9.721 -1.4706 -0.0316  1.9431
   63CHL1  H15B 7088   0.357   6.783   9.699  0.5340  3.4663 -4.6903
   63CHL1   C16 7089   0.147   6.734   9.637  0.2525  0.2789 -0.8870
   63CHL1  H16A 7090   0.094   6.822   9.593 -0.1669 -0.4553 -1.8785
   63CHL1  H16B 7091   0.180   6.668   9.554 -1.4515 -0.1252 -1.2938
   63CHL1   C17 7092   0.040   6.668   9.735 -0.0232  0.1645 -0.8927
   63CHL1   H17 7093   0.074   6.562   9.740 -3.8017 -1.1927  0.0064
   63CHL1   C13 7094   0.068   6.737   9.877  0.1936  0.3117 -0.6761
   63CHL1   C18 7095   0.001   6.880   9.893 -0.8432 -0.6505 -0.0370
   63CHL1  H18A 7096   0.036   6.954   9.818 -0.4524 -0.1574  0.6230
   63CHL1  H18B 7097  -0.109   6.864   9.900 -0.9201 -0.9097 -1.5035
   63CHL1  H18C 7098   0.024   6.920   9.994 -0.1773  1.0524 -0.8370
   63CHL1   C12 7099   0.046   6.640   9.997 -0.2688  0.5144  0.0001
   63CHL1  H12A 7100  -0.061   6.630  10.026 -0.5056  0.4426 -0.8746
   63CHL1  H12B 7101   0.074   6.534   9.982 -1.7293  0.1658 -0.4758
   63CHL1   C11 7102   0.105   6.696  10.124 -0.0692 -0.1750  0.2172
   63CHL1  H11A 7103   0.049   6.778  10.174 -0.2383 -0.7186  0.9380
   63CHL1  H11B 7104   0.090   6.613  10.197 -0.3750 -0.2314  0.0939
   63CHL1    C9 7105   0.259   6.729  10.109 -0.9094  0.3334  0.8270
   63CHL1    H9 7106   0.306   6.632  10.082 -0.9911  0.3114  0.7615
   63CHL1   C10 7107   0.339   6.778  10.236  0.7143  0.0208 -0.3288
   63CHL1   C19 7108   0.240   6.877  10.308 -0.0774 -0.4345  0.3779
   63CHL1  H19A 7109   0.279   6.924  10.400 -1.1383  1.2371  0.0162
   63CHL1  H19B 7110   0.221   6.956  10.231 -1.2547 -2.7847 -1.9187
   63CHL1  H19C 7111   0.143   6.830  10.337 -1.1665  0.8214 -1.0331
   63CHL1    C1 7112   0.358   6.650  10.329  0.6292 -0.5381  0.4503
   63CHL1   H1A 7113   0.256   6.610  10.346 -1.4612  2.5932 -3.1336
   63CHL1   H1B 7114   0.426   6.589  10.266  0.0324 -1.1237  0.3602
   63CHL1    C2 7115   0.432   6.681  10.457 -0.2748  0.5170  0.5060
   63CHL1   H2A 7116   0.445   6.587  10.515  0.1244 -0.7204 -1.4736
   63CHL1   H2B 7117   0.385   6.756  10.523 -0.5683 -1.1491  2.2943
   63CHL1   C20 7118  -0.104   6.666   9.678 -0.2363  1.0377 -0.7100
   63CHL1   H20 7119  -0.144   6.770   9.673 -1.6800  0.5194 -0.4577
   63CHL1   C21 7120  -0.196   6.585   9.777 -0.6234 -0.4797  0.6335
   63CHL1  H21A 7121  -0.303   6.575   9.747 -0.9688  2.0408  0.8110
   63CHL1  H21B 7122  -0.205   6.647   9.869  0.1154 -0.7569  0.8999
   63CHL1  H21C 7123  -0.152   6.485   9.801 -1.5903 -0.6509  1.8043
   63CHL1   C22 7124  -0.102   6.607   9.536 -0.1576  0.5344  0.4330
   63CHL1  H22A 7125  -0.054   6.682   9.470  1.2486  0.0616  0.8993
   63CHL1  H22B 7126  -0.045   6.511   9.540 -1.2600 -0.1196  3.8276
   63CHL1   C23 7127  -0.250   6.577   9.483 -0.1175 -0.4434 -0.1890
   63CHL1  H23A 7128  -0.313   6.527   9.560  0.2765 -1.4215 -0.4832
   63CHL1  H23B 7129  -0.285   6.680   9.461  0.8696 -0.2720 -1.0439
   63CHL1   C24 7130  -0.267   6.503   9.352  0.7438  0.5823 -0.0683
   63CHL1  H24A 7131  -0.237   6.399   9.373 -0.9771  0.1828  0.5463
   63CHL1  H24B 7132  -0.377   6.501   9.333  0.7699 -1.8272 -0.1658
   63CHL1   C25 7133  -0.191   6.551   9.231 -0.6158  0.1555 -0.0668
   63CHL1   H25 7134  -0.102   6.599   9.276 -0.2510 -1.8418  1.4780
   63CHL1   C26 7135  -0.148   6.438   9.136  0.9426  0.5790  0.3429
   63CHL1  H26A 7136  -0.087   6.358   9.181 -0.6031 -1.2021 -0.5962
   63CHL1  H26B 7137  -0.246   6.394   9.107  2.3041 -1.2295 -1.8303
   63CHL1  H26C 7138  -0.099   6.476   9.044  0.8840  0.8533  0.4227
   63CHL1   C27 7139  -0.264   6.665   9.163  0.2897  0.2168  0.0670
   63CHL1  H27A 7140  -0.183   6.715   9.106  0.2441  0.4274  0.1866
   63CHL1  H27B 7141  -0.342   6.635   9.090  0.5204 -0.6346  0.1583
   63CHL1  H27C 7142  -0.299   6.733   9.244  0.8633 -0.8400  1.2346
   64CHL1    C3 7143   0.330   6.179  10.170 -0.6522  0.4305  0.2466
   64CHL1    H3 7144   0.361   6.270  10.116 -0.2399  0.6550  0.8545
   64CHL1    O3 7145   0.367   6.176  10.306 -0.5682  0.4165 -0.3342
   64CHL1   H3' 7146   0.315   6.105  10.344 -2.0510  0.8498 -1.4543
   64CHL1    C4 7147   0.176   6.160  10.153  0.1337  0.2035  0.3469
   64CHL1   H4A 7148   0.137   6.072  10.208 -0.8388  0.7864  0.6059
   64CHL1   H4B 7149   0.131   6.248  10.202  1.5053  0.1985  1.6961
   64CHL1    C5 7150   0.137   6.150  10.009  0.9076  0.2234  0.3683
   64CHL1    C6 7151   0.043   6.237   9.962  0.5047  0.4919 -0.1009
   64CHL1    H6 7152   0.011   6.317  10.029 -0.9158  1.2434 -1.6080
   64CHL1    C7 7153  -0.014   6.226   9.825 -0.2747  0.4988 -0.6619
   64CHL1   H7A 7154  -0.125   6.229   9.817 -0.4997 -3.8470 -1.6776
   64CHL1   H7B 7155   0.019   6.312   9.763 -0.6456 -0.3015 -2.0136
   64CHL1    C8 7156   0.024   6.091   9.748 -0.5116  0.6052  0.4156
   64CHL1    H8 7157  -0.044   6.012   9.788 -0.2589 -0.1877 -0.6775
   64CHL1   C14 7158   0.011   6.110   9.594  0.7467  0.5611  0.0974
   64CHL1   H14 7159   0.093   6.178   9.562  1.7925 -1.3704 -1.5988
   64CHL1   C15 7160  -0.120   6.159   9.529  0.5415  0.1306  0.1958
   64CHL1  H15A 7161  -0.201   6.101   9.578 -1.6294  0.4014 -2.7445
   64CHL1  H15B 7162  -0.151   6.260   9.564  0.4093  0.4627 -0.8485
   64CHL1   C16 7163  -0.116   6.120   9.387 -0.0844 -0.3069  0.0754
   64CHL1  H16A 7164  -0.212   6.069   9.364 -0.7071  0.4422  0.9261
   64CHL1  H16B 7165  -0.100   6.198   9.310 -0.1295 -1.5240 -1.2136
   64CHL1   C17 7166   0.006   6.029   9.375 -0.2363  0.1085  0.4020
   64CHL1   H17 7167   0.094   6.079   9.331  1.3143 -1.8440  1.1381
   64CHL1   C13 7168   0.044   5.985   9.522  0.0887 -0.3032 -0.0482
   64CHL1   C18 7169  -0.044   5.867   9.565 -0.0350  0.7031  0.4808
   64CHL1  H18A 7170  -0.015   5.832   9.666  0.5220 -0.5717 -0.1004
   64CHL1  H18B 7171  -0.154   5.878   9.553  0.0890  0.7223 -0.7643
   64CHL1  H18C 7172  -0.019   5.777   9.505  0.7155  0.6797  0.8164
   64CHL1   C12 7173   0.194   5.960   9.533  0.2795  0.1714 -0.2409
   64CHL1  H12A 7174   0.226   5.863   9.490 -1.0031  0.1566 -1.2202
   64CHL1  H12B 7175   0.264   6.034   9.490 -0.6406  0.6711 -0.9162
   64CHL1   C11 7176   0.235   5.951   9.679 -0.3368 -0.1796  0.0109
   64CHL1  H11A 7177   0.211   5.851   9.720  1.4554 -0.6659 -0.0370
   64CHL1  H11B 7178   0.346   5.962   9.674 -0.5399  2.5591  0.0796
   64CHL1    C9 7179   0.177   6.058   9.771  0.6242 -0.0114  0.1200
   64CHL1    H9 7180   0.223   6.152   9.733 -1.3757  0.3876 -1.4752
   64CHL1   C10 7181   0.207   6.049   9.923  0.1379  0.6537 -0.1995
   64CHL1   C19 7182   0.163   5.906   9.966 -0.2890  0.2220  0.0877
   64CHL1  H19A 7183   0.198   5.877  10.067  3.7716 -1.1970 -1.5141
   64CHL1  H19B 7184   0.057   5.878   9.952 -0.0575 -0.7847  0.2736
   64CHL1  H19C 7185   0.198   5.826   9.898 -2.1718 -1.3167  0.8515
   64CHL1    C1 7186   0.356   6.071   9.942 -0.0492  0.3143  0.2575
   64CHL1   H1A 7187   0.411   5.991   9.889  1.9289  1.9673 -0.3487
   64CHL1   H1B 7188   0.389   6.167   9.896  2.7115  0.1045  1.5512
   64CHL1    C2 7189   0.396   6.070  10.093  0.2370 -0.3197 -0.5409
   64CHL1   H2A 7190   0.502   6.102  10.095 -0.1431  1.0672 -1.6629
   64CHL1   H2B 7191   0.371   5.972  10.140  0.0818  1.0435  2.4853
   64CHL1   C20 7192  -0.027   5.921   9.269 -1.0443 -0.4471  0.3000
   64CHL1   H20 7193  -0.110   5.856   9.306 -1.0196 -0.5814  0.1195
   64CHL1   C21 7194   0.094   5.830   9.248 -0.2137  0.6135  0.1567
   64CHL1  H21A 7195   0.106   5.761   9.334 -1.9347  0.0314 -0.0275
   64CHL1  H21B 7196   0.187   5.887   9.228  0.5984 -0.5830  0.3924
   64CHL1  H21C 7197   0.087   5.759   9.162  1.3297  1.6861 -0.9179
   64CHL1   C22 7198  -0.072   5.985   9.137  0.1802  0.5918  0.2804
   64CHL1  H22A 7199  -0.173   6.024   9.159 -0.1309  0.1291 -0.3125
   64CHL1  H22B 7200  -0.002   6.062   9.099 -0.7970  1.0983 -0.5089
   64CHL1   C23 7201  -0.103   5.886   9.026  0.4810 -0.1332 -0.0043
   64CHL1  H23A 7202  -0.010   5.858   8.971  0.5140 -0.6414  0.3049
   64CHL1  H23B 7203  -0.147   5.793   9.068  2.9951 -1.0331  0.8517
   64CHL1   C24 7204  -0.198   5.948   8.915  0.2935  0.2749  0.7034
   64CHL1  H24A 7205  -0.277   6.008   8.965  0.1846  0.9227 -0.2184
   64CHL1  H24B 7206  -0.135   6.012   8.851  0.4246  1.1493  1.6856
   64CHL1   C25 7207  -0.268   5.838   8.832  0.8914  0.2751 -0.8180
   64CHL1   H25 7208  -0.197   5.755   8.813  0.9581 -0.2407  1.4311
   64CHL1   C26 7209  -0.378   5.779   8.919  0.1324 -0.9115 -0.0213
   64CHL1  H26A 7210  -0.336   5.711   8.997 -0.5420 -0.3891  0.8147
   64CHL1  H26B 7211  -0.456   5.843   8.964  1.3989 -0.5598  1.8215
   64CHL1  H26C 7212  -0.442   5.718   8.852  1.1994 -0.0496 -1.8932
   64CHL1   C27 7213  -0.325   5.902   8.708  0.3560 -0.1083 -0.5176
   64CHL1  H27A 7214  -0.394   5.987   8.728 -1.7495 -1.2282 -2.6109
   64CHL1  H27B 7215  -0.239   5.937   8.647  1.2010  0.9619  1.2011
   64CHL1  H27C 7216  -0.387   5.834   8.646 -0.3603  0.7411 -0.7368
   65CHL1    C3 7217   1.782   3.255  10.170  0.0424  0.1327 -0.5401
   65CHL1    H3 7218   1.839   3.162  10.147 -1.9349 -1.4054  0.5033
   65CHL1    O3 7219   1.780   3.272  10.311  0.1729  0.1580 -0.2147
   65CHL1   H3' 7220   1.741   3.358  10.328  1.3903  0.8762 -0.9635
   65CHL1    C4 7221   1.848   3.377  10.117 -0.0346 -0.1218  0.4015
   65CHL1   H4A 7222   1.806   3.471  10.158  0.7611 -0.0813  1.1523
   65CHL1   H4B 7223   1.953   3.377  10.152  0.0521  1.5148  0.2322
   65CHL1    C5 7224   1.848   3.376   9.965  0.6092  0.4088 -0.4901
   65CHL1    C6 7225   1.963   3.357   9.895 -0.7046 -0.5025 -0.5531
   65CHL1    H6 7226   2.054   3.338   9.954 -0.1960  1.7159 -0.5312
   65CHL1    C7 7227   1.966   3.357   9.746 -0.3137  0.3881 -0.8520
   65CHL1   H7A 7228   2.052   3.414   9.706  1.4898 -0.3268  1.7326
   65CHL1   H7B 7229   1.966   3.248   9.722 -0.9125  0.2675 -0.3454
   65CHL1    C8 7230   1.834   3.398   9.675 -0.0364 -0.4012  0.0557
   65CHL1    H8 7231   1.835   3.509   9.679 -0.9905 -0.4191  0.9269
   65CHL1   C14 7232   1.825   3.358   9.528  0.4013  0.4514 -0.0825
   65CHL1   H14 7233   1.820   3.247   9.525 -1.3251  0.5182 -1.4446
   65CHL1   C15 7234   1.956   3.395   9.451  0.4990 -0.7800 -0.5709
   65CHL1  H15A 7235   1.985   3.499   9.473  1.8695 -1.3912  0.6633
   65CHL1  H15B 7236   2.040   3.330   9.483 -0.2667 -1.0699  0.9467
   65CHL1   C16 7237   1.911   3.384   9.299 -0.3651  0.4964  0.4721
   65CHL1  H16A 7238   1.940   3.475   9.242  0.8255 -0.2485 -0.1530
   65CHL1  H16B 7239   1.955   3.292   9.255  0.1670 -0.2547  2.4943
   65CHL1   C17 7240   1.753   3.376   9.303 -0.1482 -0.3255  0.0715
   65CHL1   H17 7241   1.740   3.266   9.302  2.9460 -0.8133 -2.4967
   65CHL1   C13 7242   1.710   3.412   9.449 -0.3623 -0.4804 -0.2413
   65CHL1   C18 7243   1.714   3.569   9.453 -0.2731 -0.2236  0.0828
   65CHL1  H18A 7244   1.697   3.612   9.554  0.2998  1.5483 -0.5370
   65CHL1  H18B 7245   1.811   3.620   9.437 -0.4011  0.0527  0.1786
   65CHL1  H18C 7246   1.635   3.618   9.392  0.4771 -0.9279 -1.4888
   65CHL1   C12 7247   1.586   3.349   9.514  0.0593 -0.2971  1.0632
   65CHL1  H12A 7248   1.494   3.390   9.466  0.3691 -1.4976 -0.6642
   65CHL1  H12B 7249   1.592   3.240   9.492  1.1141  0.1575 -1.2144
   65CHL1   C11 7250   1.578   3.382   9.667 -0.0986 -0.4367 -0.0925
   65CHL1  H11A 7251   1.556   3.490   9.674  4.2189  0.5780  0.4438
   65CHL1  H11B 7252   1.489   3.334   9.714 -1.1120  0.5972 -0.8886
   65CHL1    C9 7253   1.710   3.343   9.745  0.0009 -0.0081 -0.2713
   65CHL1    H9 7254   1.722   3.233   9.737 -3.2145 -0.3800 -1.3214
   65CHL1   C10 7255   1.713   3.376   9.902  0.0407 -0.3512  0.4210
   65CHL1   C19 7256   1.656   3.522   9.913  0.2769  0.3580 -0.0529
   65CHL1  H19A 7257   1.709   3.597   9.851  0.3397  2.0386  1.9387
   65CHL1  H19B 7258   1.548   3.515   9.887  0.2682 -2.1700  0.3947
   65CHL1  H19C 7259   1.672   3.563  10.015  0.7445 -1.7971  0.7974
   65CHL1    C1 7260   1.624   3.272   9.971  0.3999  0.7105  0.0940
   65CHL1   H1A 7261   1.519   3.289   9.940  0.7031  0.4851 -1.1124
   65CHL1   H1B 7262   1.653   3.171   9.935 -0.7476 -0.0107  1.1025
   65CHL1    C2 7263   1.634   3.261  10.121  0.4696  0.6679 -0.6482
   65CHL1   H2A 7264   1.585   3.167  10.153 -0.5548  1.1371 -0.7852
   65CHL1   H2B 7265   1.577   3.349  10.158 -2.0930 -1.1797  0.0310
   65CHL1   C20 7266   1.683   3.436   9.183  0.3477 -0.0857 -0.4104
   65CHL1   H20 7267   1.693   3.546   9.193  1.0061 -0.0468 -1.3182
   65CHL1   C21 7268   1.531   3.409   9.186  0.0101  0.5196  0.3352
   65CHL1  H21A 7269   1.512   3.300   9.201  0.4438  0.4218  0.1749
   65CHL1  H21B 7270   1.495   3.440   9.086  1.3638  3.0336  0.5510
   65CHL1  H21C 7271   1.475   3.471   9.259 -1.6992 -0.7542  0.1909
   65CHL1   C22 7272   1.756   3.395   9.051  0.1974  0.2161 -0.4362
   65CHL1  H22A 7273   1.863   3.424   9.050  0.4469 -0.7059 -1.4649
   65CHL1  H22B 7274   1.768   3.289   9.021 -0.8994 -0.0029 -0.1657
   65CHL1   C23 7275   1.688   3.461   8.929 -0.0325 -0.2964 -0.2975
   65CHL1  H23A 7276   1.586   3.417   8.925 -0.5137  0.4934  1.9369
   65CHL1  H23B 7277   1.679   3.570   8.946  3.1409 -0.0545  0.4489
   65CHL1   C24 7278   1.770   3.438   8.796  1.1340  0.0740  0.5076
   65CHL1  H24A 7279   1.873   3.479   8.804  0.7054  1.1977  0.4933
   65CHL1  H24B 7280   1.770   3.328   8.780 -1.2513 -0.4449  3.1211
   65CHL1   C25 7281   1.698   3.494   8.670 -0.6336  0.1583 -0.2988
   65CHL1   H25 7282   1.686   3.604   8.679  0.1314  0.2055  0.1977
   65CHL1   C26 7283   1.772   3.458   8.544  0.6239  0.6418  0.2361
   65CHL1  H26A 7284   1.791   3.351   8.520 -1.2134  0.4857 -0.6762
   65CHL1  H26B 7285   1.728   3.512   8.458 -2.0680  1.2144  1.8495
   65CHL1  H26C 7286   1.876   3.491   8.564  0.8343 -0.0190  0.2348
   65CHL1   C27 7287   1.552   3.437   8.659  0.0389  0.0682  0.7144
   65CHL1  H27A 7288   1.537   3.327   8.666  3.6032 -0.8480 -2.4358
   65CHL1  H27B 7289   1.480   3.487   8.728  0.1847  1.4795 -0.1196
   65CHL1  H27C 7290   1.516   3.475   8.561  0.7953 -0.4358  0.2301
   66CHL1    C3 7291   6.275   2.505  10.505 -0.5452  0.5621  0.6387
   66CHL1    H3 7292   6.369   2.564  10.504 -0.5723  0.6050  0.6041
   66CHL1    O3 7293   6.230   2.502  10.638 -0.0089 -0.6023 -0.4727
   66CHL1   H3' 7294   6.174   2.425  10.652 -0.2069 -0.6092 -1.2761
   66CHL1    C4 7295   6.174   2.580  10.409  0.7908 -0.2314  0.9806
   66CHL1   H4A 7296   6.080   2.524  10.429  0.3117  0.7088  1.4279
   66CHL1   H4B 7297   6.152   2.683  10.444 -2.2920 -0.4334 -0.0592
   66CHL1    C5 7298   6.225   2.572  10.264  0.8010  0.2039  0.6781
   66CHL1    C6 7299   6.265   2.679  10.197  0.2656  0.8037  0.4667
   66CHL1    H6 7300   6.244   2.777  10.242  0.0315  0.2873  1.5098
   66CHL1    C7 7301   6.316   2.690  10.049  0.5556 -0.4621 -0.3589
   66CHL1   H7A 7302   6.263   2.776  10.002 -0.4340 -1.5504 -1.2895
   66CHL1   H7B 7303   6.421   2.713  10.024  0.5422 -0.6524 -0.5906
   66CHL1    C8 7304   6.281   2.560   9.981  0.2396 -0.7054  0.1438
   66CHL1    H8 7305   6.172   2.553   9.960  0.5727 -1.2084 -1.6437
   66CHL1   C14 7306   6.371   2.552   9.849 -0.5880  0.5043  0.5533
   66CHL1   H14 7307   6.472   2.545   9.894 -0.0451  1.9067 -0.3657
   66CHL1   C15 7308   6.367   2.671   9.751  0.7683  0.6619 -0.8077
   66CHL1  H15A 7309   6.263   2.710   9.755  0.1156 -1.0465  0.0419
   66CHL1  H15B 7310   6.445   2.745   9.776  0.9961 -0.2550  1.4286
   66CHL1   C16 7311   6.401   2.613   9.615 -0.6899  0.8678 -0.2843
   66CHL1  H16A 7312   6.307   2.634   9.559 -0.3544 -1.2674 -1.7616
   66CHL1  H16B 7313   6.482   2.665   9.560  2.1687 -1.5830  1.3232
   66CHL1   C17 7314   6.433   2.460   9.647 -0.1523  0.0221  0.2284
   66CHL1   H17 7315   6.538   2.441   9.681 -0.7593 -0.5314  1.9114
   66CHL1   C13 7316   6.354   2.420   9.771 -0.6638 -0.2149 -0.3320
   66CHL1   C18 7317   6.204   2.403   9.723 -0.1991  0.0507 -0.0402
   66CHL1  H18A 7318   6.124   2.426   9.797 -1.0791  0.2763 -1.0300
   66CHL1  H18B 7319   6.175   2.473   9.643 -2.1792 -1.5252 -0.8098
   66CHL1  H18C 7320   6.181   2.298   9.694 -0.0796 -0.0221  0.1269
   66CHL1   C12 7321   6.399   2.304   9.863  0.1364  0.1376  0.0029
   66CHL1  H12A 7322   6.382   2.204   9.818 -0.3815  0.1964  0.0560
   66CHL1  H12B 7323   6.506   2.327   9.877  0.2709  0.3469 -1.2849
   66CHL1   C11 7324   6.324   2.303  10.004  0.1956 -0.1443 -0.0756
   66CHL1  H11A 7325   6.220   2.278   9.972  0.6637  0.6901 -2.4523
   66CHL1  H11B 7326   6.358   2.219  10.068 -0.0944  0.4833  0.9223
   66CHL1    C9 7327   6.323   2.438  10.071  0.1584 -0.3940  0.8938
   66CHL1    H9 7328   6.428   2.461  10.098  0.4109 -0.0454 -0.3113
   66CHL1   C10 7329   6.246   2.435  10.203 -0.3975  0.9186  0.5686
   66CHL1   C19 7330   6.099   2.383  10.185  0.5772 -0.0293  0.2947
   66CHL1  H19A 7331   6.037   2.438  10.111 -0.9604 -0.9877  0.8062
   66CHL1  H19B 7332   6.108   2.281  10.142 -1.3520 -0.5875  1.1230
   66CHL1  H19C 7333   6.039   2.381  10.278 -0.0399  0.1819 -0.0897
   66CHL1    C1 7334   6.322   2.348  10.309  0.6011 -0.3836  0.3736
   66CHL1   H1A 7335   6.289   2.243  10.291  1.0320 -0.4889  0.1794
   66CHL1   H1B 7336   6.430   2.369  10.294  0.6095  1.7633  2.7394
   66CHL1    C2 7337   6.292   2.362  10.460  0.2982 -0.5672 -0.0338
   66CHL1   H2A 7338   6.377   2.309  10.508  0.3573 -0.8865 -0.4806
   66CHL1   H2B 7339   6.205   2.295  10.473  0.1103 -1.7024 -4.9585
   66CHL1   C20 7340   6.426   2.372   9.524  0.2930  0.5540  0.1624
   66CHL1   H20 7341   6.323   2.359   9.484  1.1918 -2.1684 -1.5147
   66CHL1   C21 7342   6.472   2.228   9.548 -0.0328  0.5064  0.0638
   66CHL1  H21A 7343   6.458   2.164   9.459  1.0611  0.1434  0.1441
   66CHL1  H21B 7344   6.411   2.189   9.633 -1.6097 -1.3838 -1.8366
   66CHL1  H21C 7345   6.582   2.227   9.563  0.5602  0.6683 -3.5355
   66CHL1   C22 7346   6.522   2.424   9.416 -0.5577 -0.3312  0.1517
   66CHL1  H22A 7347   6.513   2.534   9.398  0.1727  0.0970  2.1185
   66CHL1  H22B 7348   6.623   2.394   9.452 -0.3906  2.9177  2.9996
   66CHL1   C23 7349   6.505   2.354   9.273 -0.4707 -0.3320  1.0729
   66CHL1  H23A 7350   6.497   2.245   9.292  2.1200 -0.2505  3.1772
   66CHL1  H23B 7351   6.404   2.375   9.232  0.8607 -0.2181 -2.4796
   66CHL1   C24 7352   6.607   2.382   9.169 -0.9544  0.0179 -0.3887
   66CHL1  H24A 7353   6.592   2.486   9.132 -0.8351 -0.0207 -0.5509
   66CHL1  H24B 7354   6.714   2.377   9.201 -0.9381  1.8213 -0.0685
   66CHL1   C25 7355   6.589   2.289   9.043 -0.2089 -0.4988  0.1591
   66CHL1   H25 7356   6.479   2.290   9.026 -0.2134 -1.7070  0.0442
   66CHL1   C26 7357   6.676   2.342   8.929  0.4906  0.7882 -0.3112
   66CHL1  H26A 7358   6.670   2.292   8.831  2.0051  0.6485 -0.3488
   66CHL1  H26B 7359   6.635   2.445   8.917 -2.8061 -0.4900 -1.0297
   66CHL1  H26C 7360   6.782   2.346   8.962  0.4692 -0.7643  0.0133
   66CHL1   C27 7361   6.634   2.147   9.089 -0.5463 -0.3043  0.0175
   66CHL1  H27A 7362   6.628   2.081   9.000 -0.7746  2.4617 -2.1753
   66CHL1  H27B 7363   6.735   2.137   9.134 -0.6285  0.8325  0.5018
   66CHL1  H27C 7364   6.562   2.104   9.160  0.5165 -2.7883 -0.3246
   67CHL1    C3 7365   3.761   2.194  10.394 -0.1288 -0.6209 -0.5879
   67CHL1    H3 7366   3.673   2.129  10.375 -0.1042 -0.4052 -1.4735
   67CHL1    O3 7367   3.794   2.201  10.536 -0.2491  0.1095  0.0143
   67CHL1   H3' 7368   3.860   2.270  10.539 -1.1590  1.1571 -1.9752
   67CHL1    C4 7369   3.879   2.141  10.307 -0.3358  0.5030 -0.4713
   67CHL1   H4A 7370   3.966   2.202  10.338  0.8085 -1.1807 -0.2810
   67CHL1   H4B 7371   3.897   2.038  10.344  0.6313  0.7190 -0.3317
   67CHL1    C5 7372   3.864   2.143  10.161  1.1676 -0.2012 -0.8208
   67CHL1    C6 7373   3.897   2.043  10.080  0.2214  0.4272  0.3153
   67CHL1    H6 7374   3.941   1.954  10.127  0.6293 -0.2918 -1.3679
   67CHL1    C7 7375   3.880   2.028   9.926 -0.4229 -0.3641 -0.0047
   67CHL1   H7A 7376   3.979   2.005   9.880  0.0284  1.2475  0.1107
   67CHL1   H7B 7377   3.817   1.943   9.893  3.3486 -2.6431 -2.1785
   67CHL1    C8 7378   3.824   2.158   9.859 -0.3484 -0.7499 -0.4240
   67CHL1    H8 7379   3.911   2.227   9.862  0.6049 -1.9676  1.0966
   67CHL1   C14 7380   3.765   2.133   9.725 -0.1062  0.0005 -0.4698
   67CHL1   H14 7381   3.664   2.093   9.744 -0.0352  0.4358  0.9236
   67CHL1   C15 7382   3.844   2.037   9.631  0.7189 -0.4365 -0.7865
   67CHL1  H15A 7383   3.954   2.049   9.641  0.5634  0.6023 -0.1455
   67CHL1  H15B 7384   3.811   1.933   9.651 -2.0553  0.5161 -0.0414
   67CHL1   C16 7385   3.787   2.075   9.497  0.3896 -0.2113 -0.6121
   67CHL1  H16A 7386   3.875   2.092   9.432 -0.2314  0.7631 -1.2201
   67CHL1  H16B 7387   3.731   1.992   9.448 -1.1223  0.4770 -0.1074
   67CHL1   C17 7388   3.693   2.198   9.516  0.2324 -0.0659 -0.1196
   67CHL1   H17 7389   3.590   2.158   9.528 -0.4467  0.9262 -2.0848
   67CHL1   C13 7390   3.735   2.260   9.648  0.4648  0.0032  0.3820
   67CHL1   C18 7391   3.862   2.343   9.630  0.4645 -0.4251  0.0101
   67CHL1  H18A 7392   3.946   2.277   9.598  0.1705 -0.4789 -0.6578
   67CHL1  H18B 7393   3.850   2.432   9.564 -0.4530 -0.4630  0.1161
   67CHL1  H18C 7394   3.888   2.383   9.730 -0.5763  0.5747 -0.0961
   67CHL1   C12 7395   3.629   2.336   9.732  0.1013  0.1405 -0.5700
   67CHL1  H12A 7396   3.617   2.436   9.685  2.2631  1.6926  1.8781
   67CHL1  H12B 7397   3.533   2.281   9.738 -0.6920  1.5173 -0.2686
   67CHL1   C11 7398   3.678   2.366   9.879  0.5638  0.3164 -0.1923
   67CHL1  H11A 7399   3.742   2.456   9.891 -0.3960  0.9726  0.1848
   67CHL1  H11B 7400   3.582   2.389   9.930  0.8370  1.9522 -0.3794
   67CHL1    C9 7401   3.733   2.248   9.952  0.7946 -0.0848 -0.2694
   67CHL1    H9 7402   3.649   2.177   9.967 -0.7421  1.6032 -0.5077
   67CHL1   C10 7403   3.797   2.272  10.094  0.4120 -0.2463  0.4864
   67CHL1   C19 7404   3.913   2.374  10.078  0.2838  0.0280  0.0541
   67CHL1  H19A 7405   3.879   2.470  10.032  0.9811  0.2188 -0.0778
   67CHL1  H19B 7406   3.953   2.397  10.178 -1.8209 -1.1394  1.2437
   67CHL1  H19C 7407   3.992   2.334  10.012 -0.3326 -0.8929 -0.1354
   67CHL1    C1 7408   3.693   2.329  10.196 -0.7508 -0.7225  0.4947
   67CHL1   H1A 7409   3.663   2.429  10.159  0.4865 -0.0514  1.2220
   67CHL1   H1B 7410   3.603   2.264  10.192 -0.7900 -0.6317 -0.1027
   67CHL1    C2 7411   3.734   2.336  10.339 -0.5962  0.1029 -0.7150
   67CHL1   H2A 7412   3.664   2.386  10.408  0.3317 -1.1670  1.2290
   67CHL1   H2B 7413   3.827   2.395  10.352 -0.7838  0.7787 -2.1725
   67CHL1   C20 7414   3.687   2.289   9.390 -0.1839 -0.4567 -0.2295
   67CHL1   H20 7415   3.787   2.335   9.375 -0.2092 -0.8174 -1.5821
   67CHL1   C21 7416   3.596   2.410   9.411 -0.0513 -0.2380  0.0283
   67CHL1  H21A 7417   3.586   2.467   9.316  2.8886  0.5877  0.0973
   67CHL1  H21B 7418   3.636   2.480   9.487  0.1402  0.0259 -0.3157
   67CHL1  H21C 7419   3.501   2.365   9.446  0.3429 -0.9297  0.2294
   67CHL1   C22 7420   3.651   2.206   9.261 -0.2160  0.5239 -0.4867
   67CHL1  H22A 7421   3.728   2.127   9.251 -1.3405 -0.5499 -0.8631
   67CHL1  H22B 7422   3.559   2.145   9.270 -1.1843  1.7921 -1.4028
   67CHL1   C23 7423   3.628   2.279   9.126  0.2135 -0.2869 -0.2737
   67CHL1  H23A 7424   3.526   2.322   9.136 -0.3318 -1.7076  0.4498
   67CHL1  H23B 7425   3.691   2.371   9.124  1.5294 -1.1707 -0.5383
   67CHL1   C24 7426   3.649   2.195   9.001  0.0938 -0.5142  0.2557
   67CHL1  H24A 7427   3.758   2.175   9.004 -0.1806 -2.0762  0.4647
   67CHL1  H24B 7428   3.596   2.100   9.024  0.2734 -1.2359 -2.0982
   67CHL1   C25 7429   3.600   2.261   8.871  0.2592 -0.1767 -0.3752
   67CHL1   H25 7430   3.643   2.363   8.877  0.2579 -0.2530  1.0799
   67CHL1   C26 7431   3.660   2.189   8.748 -0.5016  0.3303 -0.5513
   67CHL1  H26A 7432   3.641   2.083   8.772 -0.8802  0.9315  2.0990
   67CHL1  H26B 7433   3.617   2.206   8.647 -1.1996  0.8913 -0.1640
   67CHL1  H26C 7434   3.770   2.201   8.734  0.0038  0.4884  2.8572
   67CHL1   C27 7435   3.452   2.272   8.859  0.5932 -0.2887 -0.4148
   67CHL1  H27A 7436   3.400   2.174   8.852 -0.6484  0.4336 -1.9890
   67CHL1  H27B 7437   3.401   2.333   8.937 -1.8708 -0.0543 -2.0912
   67CHL1  H27C 7438   3.431   2.337   8.771 -1.4867 -0.0682  0.1907
   68CHL1    C3 7439   1.340   1.897  10.228  0.0279 -0.0135  0.8288
   68CHL1    H3 7440   1.420   1.961  10.185 -1.3935  0.7889 -0.7434
   68CHL1    O3 7441   1.323   1.937  10.367  0.3183 -0.0678 -0.2848
   68CHL1   H3' 7442   1.234   1.910  10.392  0.0944  2.3171  1.8106
   68CHL1    C4 7443   1.211   1.926  10.157  0.3194  0.4487  0.3979
   68CHL1   H4A 7444   1.132   1.864  10.205  0.9716  0.1271  1.0734
   68CHL1   H4B 7445   1.189   2.034  10.172  0.8314  0.6534 -0.2579
   68CHL1    C5 7446   1.224   1.881  10.013  0.8173  0.2333 -0.7884
   68CHL1    C6 7447   1.194   1.967   9.918  0.0136 -0.3696 -0.1562
   68CHL1    H6 7448   1.162   2.070   9.941  2.5039  0.5659 -0.5964
   68CHL1    C7 7449   1.184   1.937   9.769 -0.9143 -0.1255  0.4645
   68CHL1   H7A 7450   1.091   1.982   9.728  0.0574 -0.4538 -2.3138
   68CHL1   H7B 7451   1.271   1.985   9.718 -0.1096 -1.5573  0.4495
   68CHL1    C8 7452   1.193   1.789   9.735 -0.5954  0.9661 -0.4470
   68CHL1    H8 7453   1.093   1.748   9.758 -0.8233  1.2434 -0.9452
   68CHL1   C14 7454   1.232   1.779   9.586 -0.5531  0.0568 -0.2173
   68CHL1   H14 7455   1.336   1.817   9.578  0.8113 -3.4593 -0.9541
   68CHL1   C15 7456   1.152   1.868   9.479  0.8479  0.8521  0.6928
   68CHL1  H15A 7457   1.044   1.879   9.503  0.4118 -1.7575  0.2331
   68CHL1  H15B 7458   1.211   1.961   9.466  1.1624  0.5385 -0.1967
   68CHL1   C16 7459   1.157   1.783   9.349  0.1453 -0.7134 -0.1864
   68CHL1  H16A 7460   1.058   1.732   9.344 -0.3323  0.1761 -0.1275
   68CHL1  H16B 7461   1.184   1.833   9.254 -0.1916 -0.0294  0.0646
   68CHL1   C17 7462   1.260   1.672   9.376  0.0031  0.0481 -0.1082
   68CHL1   H17 7463   1.362   1.716   9.374  1.2702 -2.6698  0.5481
   68CHL1   C13 7464   1.246   1.638   9.529  0.6807 -0.0037  0.2286
   68CHL1   C18 7465   1.115   1.553   9.550  0.6561  0.2512 -0.1405
   68CHL1  H18A 7466   1.141   1.450   9.518  0.4930 -0.8537  2.9402
   68CHL1  H18B 7467   1.092   1.540   9.658 -0.3723 -1.5692 -0.5493
   68CHL1  H18C 7468   1.029   1.594   9.494 -1.8469 -0.2183  3.0526
   68CHL1   C12 7469   1.359   1.575   9.604  0.0358 -0.6920 -0.0933
   68CHL1  H12A 7470   1.364   1.465   9.589  2.9373 -0.6144 -0.2621
   68CHL1  H12B 7471   1.463   1.604   9.580  0.2318 -0.1010  1.3757
   68CHL1   C11 7472   1.338   1.584   9.759 -0.0950 -0.4789 -0.6597
   68CHL1  H11A 7473   1.259   1.509   9.782 -0.2285  0.1172  1.0172
   68CHL1  H11B 7474   1.433   1.548   9.804 -0.4073  0.3588  0.7534
   68CHL1    C9 7475   1.306   1.721   9.818 -0.4036  0.0054  0.3317
   68CHL1    H9 7476   1.397   1.780   9.795 -1.0911  0.8741 -0.2571
   68CHL1   C10 7477   1.274   1.743   9.974 -0.5715  0.1525  0.3037
   68CHL1   C19 7478   1.155   1.643  10.008 -0.4115  0.9877  0.5437
   68CHL1  H19A 7479   1.132   1.634  10.117  0.5616 -3.5825  0.5801
   68CHL1  H19B 7480   1.061   1.667   9.955 -0.9744 -1.2836  0.3975
   68CHL1  H19C 7481   1.186   1.540   9.980 -0.9715  1.5751 -2.6160
   68CHL1    C1 7482   1.393   1.705  10.063 -1.1075  0.8370  0.5059
   68CHL1   H1A 7483   1.421   1.598  10.054 -1.8660  0.6947 -0.2066
   68CHL1   H1B 7484   1.487   1.755  10.032 -0.6770 -0.5405 -0.4522
   68CHL1    C2 7485   1.378   1.742  10.217  0.0726 -0.2410  0.3026
   68CHL1   H2A 7486   1.475   1.715  10.263  1.6846  0.0130 -2.6795
   68CHL1   H2B 7487   1.311   1.674  10.273  1.2902  0.6896  3.0750
   68CHL1   C20 7488   1.265   1.559   9.269  0.4893 -0.1836  0.2385
   68CHL1   H20 7489   1.182   1.492   9.300  1.1132 -1.9658 -1.7251
   68CHL1   C21 7490   1.394   1.484   9.283  0.1151  0.1476 -0.2431
   68CHL1  H21A 7491   1.409   1.450   9.388  0.8725 -2.6653 -1.1558
   68CHL1  H21B 7492   1.484   1.548   9.272 -2.3619  3.6426 -1.8089
   68CHL1  H21C 7493   1.403   1.393   9.219  1.2737  1.1392 -1.5581
   68CHL1   C22 7494   1.242   1.606   9.124 -0.4466 -0.3316 -0.2117
   68CHL1  H22A 7495   1.141   1.648   9.107  0.4296  1.2372 -1.9778
   68CHL1  H22B 7496   1.314   1.688   9.101  0.0864 -1.1187 -1.4957
   68CHL1   C23 7497   1.247   1.499   9.019  0.4581  0.8838 -0.4269
   68CHL1  H23A 7498   1.348   1.454   9.007 -0.5711 -1.6834 -0.1241
   68CHL1  H23B 7499   1.181   1.412   9.039  0.1534  0.7026 -2.1254
   68CHL1   C24 7500   1.210   1.557   8.881 -0.1036 -0.0679  0.1602
   68CHL1  H24A 7501   1.104   1.591   8.884 -1.0797 -2.5739 -1.9268
   68CHL1  H24B 7502   1.272   1.648   8.866 -0.1600 -0.1318 -0.4852
   68CHL1   C25 7503   1.224   1.458   8.763  0.5106  0.2834  0.0176
   68CHL1   H25 7504   1.214   1.513   8.667 -3.4055 -1.5893 -0.8628
   68CHL1   C26 7505   1.364   1.392   8.753 -0.1287  0.0919  0.0845
   68CHL1  H26A 7506   1.369   1.330   8.660 -0.7740  0.6147 -0.3081
   68CHL1  H26B 7507   1.449   1.463   8.748  0.5864 -0.5045  2.4390
   68CHL1  H26C 7508   1.389   1.323   8.837 -0.5196  0.6199  0.6407
   68CHL1   C27 7509   1.111   1.354   8.761 -0.0189 -0.7000 -0.1903
   68CHL1  H27A 7510   1.015   1.409   8.754  0.1794 -0.4476 -1.1029
   68CHL1  H27B 7511   1.118   1.304   8.662 -0.1860 -0.2604 -0.4266
   68CHL1  H27C 7512   1.127   1.277   8.838  2.9428 -0.6949 -0.6766
   69CHL1    C3 7513   0.647   1.768   6.744 -0.3299  0.6478  0.3708
   69CHL1    H3 7514   0.575   1.846   6.713 -0.4476  0.4673  0.1821
   69CHL1    O3 7515   0.706   1.717   6.628 -0.0763  0.9743 -0.2834
   69CHL1   H3' 7516   0.749   1.638   6.662 -0.6123  1.7419  2.4704
   69CHL1    C4 7517   0.758   1.832   6.830  0.2485 -0.8486 -0.3759
   69CHL1   H4A 7518   0.850   1.770   6.834  0.6184 -0.2960 -0.3876
   69CHL1   H4B 7519   0.801   1.917   6.774  3.2038 -1.5386  0.6507
   69CHL1    C5 7520   0.703   1.875   6.966  0.2312 -0.2026  0.4741
   69CHL1    C6 7521   0.717   1.998   7.002 -0.3169  0.0682  0.5473
   69CHL1    H6 7522   0.772   2.074   6.944 -0.8420 -0.6152 -0.8791
   69CHL1    C7 7523   0.674   2.047   7.139  0.4194 -0.4436  0.2441
   69CHL1   H7A 7524   0.749   2.118   7.180 -0.1295 -0.6343  1.6254
   69CHL1   H7B 7525   0.569   2.083   7.135 -0.1116 -1.6307  2.1717
   69CHL1    C8 7526   0.649   1.929   7.230  0.3493 -0.3775 -0.7594
   69CHL1    H8 7527   0.743   1.887   7.271 -1.4019 -2.3334  1.5968
   69CHL1   C14 7528   0.559   1.982   7.345 -0.1238  0.3594 -0.0715
   69CHL1   H14 7529   0.461   2.001   7.295 -2.1676  1.7727  4.0643
   69CHL1   C15 7530   0.596   2.119   7.411  0.1265 -0.1392 -0.4338
   69CHL1  H15A 7531   0.702   2.108   7.441 -0.5024  0.9216  2.5119
   69CHL1  H15B 7532   0.580   2.208   7.346  1.1438  0.3659 -0.0007
   69CHL1   C16 7533   0.511   2.115   7.537  0.2023 -0.2915  0.5054
   69CHL1  H16A 7534   0.585   2.130   7.618 -0.6677  1.4662  1.0424
   69CHL1  H16B 7535   0.438   2.199   7.527  0.0775 -0.3864  0.6090
   69CHL1   C17 7536   0.442   1.976   7.555 -0.4356  0.8538 -0.2854
   69CHL1   H17 7537   0.343   1.977   7.505 -0.1557 -0.7314 -0.9375
   69CHL1   C13 7538   0.523   1.886   7.456  0.3964 -0.1167 -0.6226
   69CHL1   C18 7539   0.665   1.842   7.516  0.6393 -0.2092 -0.8766
   69CHL1  H18A 7540   0.727   1.933   7.533  0.2570 -0.3016  1.3193
   69CHL1  H18B 7541   0.655   1.779   7.607 -1.1470 -0.7070 -1.3809
   69CHL1  H18C 7542   0.715   1.771   7.447 -0.5227 -1.0493 -0.8726
   69CHL1   C12 7543   0.448   1.767   7.397  0.6268 -0.0377 -0.7611
   69CHL1  H12A 7544   0.446   1.678   7.464 -1.5263 -0.2985 -1.0927
   69CHL1  H12B 7545   0.341   1.787   7.376  0.6881  0.6248 -0.4621
   69CHL1   C11 7546   0.519   1.708   7.268  0.1637  0.8931 -1.1844
   69CHL1  H11A 7547   0.606   1.646   7.301 -0.0968  0.8894 -0.4770
   69CHL1  H11B 7548   0.465   1.623   7.221  2.4984 -1.3466 -0.0856
   69CHL1    C9 7549   0.562   1.813   7.172 -0.2757  0.4106  0.9681
   69CHL1    H9 7550   0.463   1.851   7.140 -0.3050 -1.1121 -0.9316
   69CHL1   C10 7551   0.624   1.763   7.036  0.1947  0.0965 -0.2790
   69CHL1   C19 7552   0.716   1.644   7.068  0.1233 -1.0270  0.0943
   69CHL1  H19A 7553   0.653   1.553   7.077 -1.6883 -0.2603 -3.2170
   69CHL1  H19B 7554   0.791   1.622   6.988 -0.0598 -0.2863 -0.2840
   69CHL1  H19C 7555   0.781   1.656   7.157  0.8343  0.1144 -0.5452
   69CHL1    C1 7556   0.506   1.716   6.942  0.4270 -0.1362 -0.0941
   69CHL1   H1A 7557   0.446   1.632   6.985 -1.5974  0.3790 -1.7502
   69CHL1   H1B 7558   0.435   1.800   6.929  2.2319  1.4735 -0.0264
   69CHL1    C2 7559   0.558   1.661   6.813 -0.2454 -0.2320  1.1199
   69CHL1   H2A 7560   0.476   1.638   6.741  0.2296  0.0740  0.4641
   69CHL1   H2B 7561   0.620   1.573   6.840 -1.5925 -1.2603  0.9811
   69CHL1   C20 7562   0.412   1.937   7.698  0.4271 -0.5107 -0.2259
   69CHL1   H20 7563   0.506   1.952   7.755  0.3020 -1.4536  0.2430
   69CHL1   C21 7564   0.358   1.797   7.723 -0.0488 -0.6763  0.9628
   69CHL1  H21A 7565   0.421   1.716   7.680  0.6458  1.6027 -2.8178
   69CHL1  H21B 7566   0.254   1.790   7.683  0.6990  0.7625 -1.4535
   69CHL1  H21C 7567   0.366   1.774   7.831 -1.4150  1.8822  1.6941
   69CHL1   C22 7568   0.302   2.034   7.759  0.1396  0.0553  0.3620
   69CHL1  H22A 7569   0.328   2.139   7.737  1.4917 -0.1183  1.0396
   69CHL1  H22B 7570   0.207   2.019   7.702 -0.7759  2.1407  1.2724
   69CHL1   C23 7571   0.277   2.021   7.911 -0.0572  0.5028  0.4562
   69CHL1  H23A 7572   0.198   2.095   7.937  1.8653  2.7521  0.2294
   69CHL1  H23B 7573   0.248   1.917   7.936  2.1381 -0.1299  0.6318
   69CHL1   C24 7574   0.409   2.054   7.983  0.1904 -0.1838 -0.0778
   69CHL1  H24A 7575   0.495   1.997   7.942  0.9762 -0.9081  2.4188
   69CHL1  H24B 7576   0.434   2.162   7.984  0.6052 -0.2663 -0.6919
   69CHL1   C25 7577   0.403   1.996   8.127  0.7076  0.6372  0.7380
   69CHL1   H25 7578   0.379   1.888   8.118 -3.5416  1.4491  0.3780
   69CHL1   C26 7579   0.535   2.017   8.205 -0.1214  0.0065  0.7651
   69CHL1  H26A 7580   0.550   2.126   8.223  1.1444 -0.1269  0.5655
   69CHL1  H26B 7581   0.535   1.968   8.304  1.7966  3.3152  2.5986
   69CHL1  H26C 7582   0.621   1.981   8.145  1.1834  1.5920  1.5993
   69CHL1   C27 7583   0.286   2.057   8.206  0.1846 -1.0667  0.5148
   69CHL1  H27A 7584   0.188   2.021   8.166  0.7483 -3.3467  1.0557
   69CHL1  H27B 7585   0.286   2.014   8.308  0.3460 -3.7682 -0.5469
   69CHL1  H27C 7586   0.292   2.168   8.208  0.7827 -1.0607 -0.6783
   70CHL1    C3 7587   6.196   5.650   7.069 -0.1417 -0.0063  0.0193
   70CHL1    H3 7588   6.094   5.694   7.068  0.0546  0.5268  1.3851
   70CHL1    O3 7589   6.250   5.637   6.936 -0.7806  0.3882  0.0885
   70CHL1   H3' 7590   6.345   5.627   6.940 -1.0076 -1.8526  1.0976
   70CHL1    C4 7591   6.284   5.750   7.134 -0.4447 -0.4778 -0.4117
   70CHL1   H4A 7592   6.393   5.726   7.132 -0.5040 -0.7588 -2.3043
   70CHL1   H4B 7593   6.277   5.848   7.082 -1.3019  0.1133  0.7704
   70CHL1    C5 7594   6.252   5.765   7.282 -0.1191  1.1214 -0.2030
   70CHL1    C6 7595   6.206   5.883   7.334 -0.3470 -0.0931 -0.8883
   70CHL1    H6 7596   6.194   5.976   7.276 -1.2640  1.1988  1.2518
   70CHL1    C7 7597   6.179   5.904   7.482  0.3152 -0.0495 -0.5740
   70CHL1   H7A 7598   6.226   5.997   7.521 -0.0524  0.8918 -2.2883
   70CHL1   H7B 7599   6.069   5.912   7.499  0.3269  1.3921 -1.0146
   70CHL1    C8 7600   6.235   5.786   7.571 -0.4880 -0.6196  0.2582
   70CHL1    H8 7601   6.346   5.796   7.568 -0.3477 -1.0856  2.2910
   70CHL1   C14 7602   6.191   5.798   7.723  0.7400 -0.3284  0.4527
   70CHL1   H14 7603   6.081   5.809   7.710  0.7217 -0.5727  0.4088
   70CHL1   C15 7604   6.234   5.930   7.805 -0.7979  1.2462 -0.5116
   70CHL1  H15A 7605   6.333   5.964   7.769 -0.0697  0.8037  0.9957
   70CHL1  H15B 7606   6.165   6.013   7.778  0.0156  2.1026  0.0075
   70CHL1   C16 7607   6.212   5.885   7.952 -0.4870 -0.0625 -0.2186
   70CHL1  H16A 7608   6.313   5.892   7.997 -0.6119 -1.3795  0.3162
   70CHL1  H16B 7609   6.152   5.944   8.024 -0.4517 -1.7228  1.2391
   70CHL1   C17 7610   6.165   5.736   7.951 -0.1166  0.1383 -0.1064
   70CHL1   H17 7611   6.056   5.733   7.926  0.1119  0.5387 -1.1950
   70CHL1   C13 7612   6.216   5.678   7.815  0.3768 -0.3121 -0.9849
   70CHL1   C18 7613   6.368   5.653   7.818 -0.9353  0.2499  0.0635
   70CHL1  H18A 7614   6.420   5.639   7.721 -3.0550 -2.5557 -0.7959
   70CHL1  H18B 7615   6.415   5.742   7.865 -0.9925  0.4739 -0.2951
   70CHL1  H18C 7616   6.390   5.572   7.890 -0.7509 -1.8429 -2.2003
   70CHL1   C12 7617   6.134   5.562   7.754 -0.7119 -0.7400  0.2800
   70CHL1  H12A 7618   6.137   5.474   7.823  3.7174 -1.7485 -0.8660
   70CHL1  H12B 7619   6.029   5.596   7.755 -0.1943  0.9729  0.4746
   70CHL1   C11 7620   6.191   5.534   7.609  0.3261  0.0383  0.1879
   70CHL1  H11A 7621   6.294   5.496   7.628  1.1850  1.4722 -1.3287
   70CHL1  H11B 7622   6.145   5.442   7.565  2.0754 -0.3866 -0.8567
   70CHL1    C9 7623   6.194   5.653   7.514 -0.4861 -0.1023  0.2909
   70CHL1    H9 7624   6.086   5.669   7.498 -0.4404  1.2863  1.1833
   70CHL1   C10 7625   6.249   5.635   7.371 -0.3039 -0.7055  0.3759
   70CHL1   C19 7626   6.399   5.581   7.380  0.0289 -0.0745  0.1135
   70CHL1  H19A 7627   6.407   5.493   7.447  2.4650 -1.1825 -1.5082
   70CHL1  H19B 7628   6.425   5.535   7.282  0.1049  1.2906 -0.5417
   70CHL1  H19C 7629   6.472   5.659   7.410 -1.1444  1.1603 -0.0988
   70CHL1    C1 7630   6.163   5.529   7.295  0.2679 -0.5696  0.1981
   70CHL1   H1A 7631   6.179   5.431   7.344 -1.1257  0.2372  2.3922
   70CHL1   H1B 7632   6.057   5.549   7.320  1.0241  1.7284  1.8736
   70CHL1    C2 7633   6.187   5.517   7.141 -0.3027  0.1099 -0.2029
   70CHL1   H2A 7634   6.099   5.457   7.109 -0.2701 -0.6185  1.0214
   70CHL1   H2B 7635   6.279   5.457   7.131 -1.6542 -2.1414  0.2067
   70CHL1   C20 7636   6.193   5.648   8.074 -0.1185 -0.1428  0.2227
   70CHL1   H20 7637   6.224   5.546   8.042  1.7574  0.5508 -0.3060
   70CHL1   C21 7638   6.053   5.642   8.135 -0.5090  0.0293 -0.1055
   70CHL1  H21A 7639   5.983   5.581   8.073 -1.1817  0.9246 -0.2437
   70CHL1  H21B 7640   6.002   5.740   8.134 -0.8043 -0.0900  1.1007
   70CHL1  H21C 7641   6.056   5.595   8.236  1.0929  0.5497  0.1184
   70CHL1   C22 7642   6.287   5.694   8.173  0.0795 -0.0889 -0.4639
   70CHL1  H22A 7643   6.376   5.744   8.127 -0.4262  0.9175 -0.3717
   70CHL1  H22B 7644   6.251   5.770   8.246  1.8132 -0.9027  1.3485
   70CHL1   C23 7645   6.326   5.583   8.270 -0.1599  0.2782 -0.5103
   70CHL1  H23A 7646   6.244   5.527   8.319 -1.8277  2.8080 -0.2424
   70CHL1  H23B 7647   6.381   5.511   8.206  2.9480  1.1542  0.9744
   70CHL1   C24 7648   6.431   5.630   8.376 -0.5939 -0.7902  0.1884
   70CHL1  H24A 7649   6.507   5.690   8.320 -0.2300 -0.9907  0.4648
   70CHL1  H24B 7650   6.389   5.699   8.452  2.6293 -1.7600  3.0895
   70CHL1   C25 7651   6.509   5.510   8.435 -0.6663  0.5526 -0.2593
   70CHL1   H25 7652   6.569   5.449   8.364 -2.0655 -3.0213  1.3569
   70CHL1   C26 7653   6.615   5.560   8.535 -0.2138 -0.2881 -0.1569
   70CHL1  H26A 7654   6.673   5.478   8.582  1.5308  2.4184  2.8543
   70CHL1  H26B 7655   6.691   5.622   8.483  0.5651 -1.4812 -0.4732
   70CHL1  H26C 7656   6.570   5.620   8.617  1.1471  0.1366  0.3065
   70CHL1   C27 7657   6.422   5.398   8.498  0.9232 -0.6057 -0.0129
   70CHL1  H27A 7658   6.379   5.466   8.575 -1.1130  0.8264 -2.2832
   70CHL1  H27B 7659   6.340   5.373   8.427 -1.8051  0.7361  2.4244
   70CHL1  H27C 7660   6.482   5.310   8.530 -2.2524 -3.0647 -0.3103
   71CHL1    C3 7661   0.289   0.300   6.994  0.4864  0.0629  0.2547
   71CHL1    H3 7662   0.364   0.219   7.003 -0.0620 -0.4518  0.2324
   71CHL1    O3 7663   0.240   0.301   6.860 -0.2366 -0.3141  0.5969
   71CHL1   H3' 7664   0.155   0.344   6.856  0.4435  0.9919 -0.6648
   71CHL1    C4 7665   0.162   0.272   7.073  0.1368  0.0154  0.0398
   71CHL1   H4A 7666   0.083   0.347   7.056  0.3153  0.2508  0.2518
   71CHL1   H4B 7667   0.126   0.176   7.029  0.6001 -0.8632  1.5122
   71CHL1    C5 7668   0.204   0.258   7.219  0.2654 -0.0180  0.4172
   71CHL1    C6 7669   0.174   0.141   7.284  0.3483 -0.0752 -0.0732
   71CHL1    H6 7670   0.120   0.057   7.239  0.0243 -0.9624  1.8690
   71CHL1    C7 7671   0.210   0.120   7.430  1.1711  0.5199  0.9858
   71CHL1   H7A 7672   0.135   0.060   7.486  1.7561  0.5399  1.8169
   71CHL1   H7B 7673   0.303   0.059   7.435 -0.2312 -1.6419  2.3190
   71CHL1    C8 7674   0.244   0.247   7.504 -0.1116 -0.5756 -0.0945
   71CHL1    H8 7675   0.147   0.299   7.518 -0.6215 -1.3766 -0.5713
   71CHL1   C14 7676   0.305   0.202   7.637  0.0210  0.4955 -0.3188
   71CHL1   H14 7677   0.398   0.150   7.606 -0.3505 -1.3191  1.4175
   71CHL1   C15 7678   0.239   0.101   7.732 -0.4329  0.1259  0.4086
   71CHL1  H15A 7679   0.131   0.125   7.731 -0.5683 -0.4329 -1.1913
   71CHL1  H15B 7680   0.258  -0.002   7.696  0.9682 -0.0574  1.5706
   71CHL1   C16 7681   0.303   0.131   7.867 -0.1829 -0.1624 -0.5226
   71CHL1  H16A 7682   0.220   0.152   7.938 -0.1520  1.9600 -1.0402
   71CHL1  H16B 7683   0.358   0.038   7.890 -1.0729 -1.0192 -1.7026
   71CHL1   C17 7684   0.395   0.252   7.851  0.1290 -0.3443  0.8310
   71CHL1   H17 7685   0.492   0.215   7.812  0.3003 -0.0612  0.9797
   71CHL1   C13 7686   0.338   0.323   7.730 -0.8843 -0.7805  0.0819
   71CHL1   C18 7687   0.211   0.399   7.773  0.5145  0.4539  0.6963
   71CHL1  H18A 7688   0.244   0.482   7.838 -2.3101  2.1260  0.1789
   71CHL1  H18B 7689   0.157   0.455   7.693 -1.3363 -1.2105  0.6983
   71CHL1  H18C 7690   0.134   0.343   7.831  0.3937  0.8952  0.9596
   71CHL1   C12 7691   0.430   0.427   7.658 -0.1813 -0.3422  0.8263
   71CHL1  H12A 7692   0.427   0.517   7.723 -2.3302 -0.9937  1.7328
   71CHL1  H12B 7693   0.535   0.391   7.646 -0.0539  0.5019 -0.8837
   71CHL1   C11 7694   0.381   0.463   7.509 -0.0153 -0.1571 -0.2551
   71CHL1  H11A 7695   0.299   0.537   7.519 -0.1234 -0.0801 -1.5073
   71CHL1  H11B 7696   0.454   0.526   7.455 -1.5298  0.3839 -1.7835
   71CHL1    C9 7697   0.329   0.344   7.419  0.1544  0.1360  0.4325
   71CHL1    H9 7698   0.422   0.285   7.405  0.5401  0.9343 -0.5537
   71CHL1   C10 7699   0.282   0.380   7.282  0.7287 -0.5110  0.5539
   71CHL1   C19 7700   0.171   0.494   7.302 -0.7456  0.0002  1.0382
   71CHL1  H19A 7701   0.220   0.585   7.341 -0.5209  0.3964 -0.1356
   71CHL1  H19B 7702   0.125   0.522   7.204  2.4630 -0.4375 -0.7099
   71CHL1  H19C 7703   0.083   0.454   7.357 -1.2429 -0.5459 -0.1239
   71CHL1    C1 7704   0.395   0.433   7.194  1.0020  0.3420  0.3923
   71CHL1   H1A 7705   0.425   0.534   7.230  1.2316 -0.7274  3.5176
   71CHL1   H1B 7706   0.480   0.363   7.203  0.1863 -0.4478  2.5686
   71CHL1    C2 7707   0.344   0.436   7.042 -0.1047  0.2328 -0.1174
   71CHL1   H2A 7708   0.440   0.466   6.994  0.8261 -0.6847  1.1126
   71CHL1   H2B 7709   0.265   0.514   7.036  0.4967  0.8419 -0.2529
   71CHL1   C20 7710   0.432   0.331   7.978 -0.2558  0.1769  0.0678
   71CHL1   H20 7711   0.333   0.378   8.000  0.7985  1.9340  1.4330
   71CHL1   C21 7712   0.548   0.433   7.969 -0.3491  0.4376  0.8622
   71CHL1  H21A 7713   0.590   0.467   8.066  1.4850  1.8738 -0.3488
   71CHL1  H21B 7714   0.520   0.511   7.895  0.2177  0.1467  0.3356
   71CHL1  H21C 7715   0.632   0.371   7.930 -0.6298 -0.5133  1.7347
   71CHL1   C22 7716   0.467   0.235   8.099 -0.4369 -0.1280 -1.0523
   71CHL1  H22A 7717   0.500   0.301   8.182 -1.1569 -1.0999  0.0477
   71CHL1  H22B 7718   0.372   0.180   8.120 -1.3763  1.7571 -0.0846
   71CHL1   C23 7719   0.572   0.128   8.069  0.7819 -0.1373  0.2734
   71CHL1  H23A 7720   0.605   0.121   7.963 -0.6275  0.1541 -0.2081
   71CHL1  H23B 7721   0.668   0.152   8.121 -0.0596  1.9152  1.0105
   71CHL1   C24 7722   0.533  -0.011   8.120 -0.6774  0.9405  0.2277
   71CHL1  H24A 7723   0.535  -0.001   8.231  2.6092  1.1795  0.2349
   71CHL1  H24B 7724   0.434  -0.035   8.077  0.1117 -0.2472 -1.0068
   71CHL1   C25 7725   0.627  -0.134   8.084 -0.1448  0.7390  0.0185
   71CHL1   H25 7726   0.729  -0.095   8.102  0.4026  0.2798 -1.8551
   71CHL1   C26 7727   0.595  -0.262   8.163 -0.1611 -0.3607  0.2008
   71CHL1  H26A 7728   0.487  -0.282   8.147 -1.1027  2.4303  2.2859
   71CHL1  H26B 7729   0.656  -0.346   8.124  0.1226 -0.0348 -0.0627
   71CHL1  H26C 7730   0.611  -0.255   8.273  0.4214 -1.6120  0.2090
   71CHL1   C27 7731   0.618  -0.154   7.939 -0.7424 -0.3491 -0.2037
   71CHL1  H27A 7732   0.675  -0.077   7.883  1.1738 -1.4925  0.0869
   71CHL1  H27B 7733   0.661  -0.252   7.907  0.9795  0.1355  0.5194
   71CHL1  H27C 7734   0.518  -0.138   7.892 -1.1570  2.0934  1.3595
   72CHL1    C3 7735   6.210   6.223   7.033 -0.4748 -0.0087  0.4754
   72CHL1    H3 7736   6.186   6.117   7.052 -0.8766 -0.0314 -0.1507
   72CHL1    O3 7737   6.212   6.222   6.887  0.7356  0.1728 -0.1751
   72CHL1   H3' 7738   6.284   6.167   6.857 -0.2302 -0.3145 -1.6624
   72CHL1    C4 7739   6.095   6.327   7.086  0.4132  0.4042 -0.9215
   72CHL1   H4A 7740   6.132   6.425   7.048  2.4667  0.1297  0.1930
   72CHL1   H4B 7741   6.000   6.300   7.037 -0.0288 -1.2028  0.7373
   72CHL1    C5 7742   6.093   6.313   7.237 -0.0124 -0.5057  0.2093
   72CHL1    C6 7743   5.986   6.264   7.309 -0.2263 -0.0352 -0.5428
   72CHL1    H6 7744   5.895   6.229   7.259 -0.6312  0.7633 -0.3745
   72CHL1    C7 7745   5.986   6.238   7.457  0.6494  0.0513  0.2023
   72CHL1   H7A 7746   5.890   6.264   7.508  0.6473  2.7141 -1.0110
   72CHL1   H7B 7747   6.020   6.136   7.486  0.5292  0.3874  1.6293
   72CHL1    C8 7748   6.095   6.335   7.520 -0.2836  0.1241 -0.4768
   72CHL1    H8 7749   6.070   6.443   7.510  2.5783  1.0513  1.3992
   72CHL1   C14 7750   6.108   6.290   7.665 -0.2343 -0.2408 -0.2122
   72CHL1   H14 7751   6.161   6.192   7.666  0.7553  0.2776  0.4038
   72CHL1   C15 7752   5.981   6.286   7.748 -0.1732 -0.1379  0.1313
   72CHL1  H15A 7753   5.911   6.363   7.709 -0.2614 -0.5859 -0.6182
   72CHL1  H15B 7754   5.945   6.181   7.739 -2.6776  0.7111 -0.6512
   72CHL1   C16 7755   6.023   6.321   7.890 -0.5166 -0.8188  0.7482
   72CHL1  H16A 7756   5.979   6.413   7.935  1.8071  0.6630  0.1580
   72CHL1  H16B 7757   6.013   6.231   7.954 -1.9327  0.2045  2.0560
   72CHL1   C17 7758   6.180   6.338   7.879 -0.0866  0.3214  0.1695
   72CHL1   H17 7759   6.219   6.234   7.882 -1.3247 -0.2638 -1.8945
   72CHL1   C13 7760   6.200   6.386   7.737 -0.2739  0.1564  0.1306
   72CHL1   C18 7761   6.166   6.535   7.723  0.1869  0.0178  0.2393
   72CHL1  H18A 7762   6.064   6.562   7.759 -1.1218 -1.2773 -2.2361
   72CHL1  H18B 7763   6.246   6.595   7.772  2.5353 -1.8846 -1.0626
   72CHL1  H18C 7764   6.170   6.570   7.618  0.4114  0.6277  0.4495
   72CHL1   C12 7765   6.345   6.362   7.682  0.3025 -0.7352  0.7285
   72CHL1  H12A 7766   6.420   6.428   7.731 -0.0480  0.0265  0.2592
   72CHL1  H12B 7767   6.375   6.260   7.713  0.4289 -0.6838  0.7775
   72CHL1   C11 7768   6.352   6.390   7.531  0.0761 -0.3571 -0.1133
   72CHL1  H11A 7769   6.333   6.499   7.529  1.9126 -0.0005  0.3580
   72CHL1  H11B 7770   6.452   6.365   7.489  0.3329  0.9952 -0.3319
   72CHL1    C9 7771   6.233   6.319   7.453 -0.2251  0.1190 -0.4951
   72CHL1    H9 7772   6.249   6.209   7.460 -0.5022 -0.1351 -2.9780
   72CHL1   C10 7773   6.229   6.353   7.305 -0.1879  0.6270 -1.2711
   72CHL1   C19 7774   6.241   6.500   7.283  0.8451 -0.7591  0.1054
   72CHL1  H19A 7775   6.337   6.538   7.324  0.4513  2.1550 -1.4189
   72CHL1  H19B 7776   6.247   6.535   7.178 -3.5374  2.3160  0.5899
   72CHL1  H19C 7777   6.157   6.564   7.318  0.9539 -0.5557  0.0004
   72CHL1    C1 7778   6.349   6.258   7.238  0.3730 -0.2343  0.2352
   72CHL1   H1A 7779   6.442   6.300   7.281  0.2126 -1.3966  1.8029
   72CHL1   H1B 7780   6.321   6.156   7.274 -0.2088  0.0176  0.5125
   72CHL1    C2 7781   6.354   6.260   7.085  0.9934  0.0827  0.8332
   72CHL1   H2A 7782   6.424   6.178   7.057  0.2378 -0.6981  1.2004
   72CHL1   H2B 7783   6.379   6.364   7.055  1.0200 -0.1182  0.1269
   72CHL1   C20 7784   6.248   6.419   7.987  0.5540  0.0849  0.3280
   72CHL1   H20 7785   6.351   6.441   7.955  1.2961 -3.4828 -0.2156
   72CHL1   C21 7786   6.280   6.310   8.095 -0.2100 -0.2481  0.1617
   72CHL1  H21A 7787   6.190   6.252   8.124 -0.7604  1.5740  2.3969
   72CHL1  H21B 7788   6.313   6.372   8.181  0.0103  0.4791 -0.4454
   72CHL1  H21C 7789   6.364   6.246   8.063  0.3579  0.5279  0.0787
   72CHL1   C22 7790   6.169   6.544   8.042  0.2581  0.7568 -0.2492
   72CHL1  H22A 7791   6.103   6.583   7.961 -1.2681 -1.5700 -0.2109
   72CHL1  H22B 7792   6.098   6.514   8.121  1.7485 -1.9320  0.1762
   72CHL1   C23 7793   6.264   6.646   8.096 -0.1046 -0.8709 -0.3642
   72CHL1  H23A 7794   6.349   6.584   8.131  2.4224  1.7214 -1.5164
   72CHL1  H23B 7795   6.299   6.709   8.011 -1.0771  1.1429  0.6600
   72CHL1   C24 7796   6.206   6.733   8.216  0.0962  0.5440  0.0525
   72CHL1  H24A 7797   6.279   6.816   8.231 -1.2084  1.9430 -1.0253
   72CHL1  H24B 7798   6.104   6.763   8.187  0.2911 -0.4539 -1.8626
   72CHL1   C25 7799   6.193   6.670   8.362 -0.0171 -0.0011  0.1669
   72CHL1   H25 7800   6.129   6.580   8.352  0.8939 -0.5435 -0.9007
   72CHL1   C26 7801   6.326   6.616   8.414  0.2173  0.2064 -0.3001
   72CHL1  H26A 7802   6.310   6.573   8.515  2.8151  0.3120  0.2365
   72CHL1  H26B 7803   6.354   6.536   8.342 -1.6569 -0.4289 -0.3773
   72CHL1  H26C 7804   6.405   6.692   8.434  0.3126  0.3405 -1.1423
   72CHL1   C27 7805   6.144   6.768   8.469  0.3536  0.1312  0.3130
   72CHL1  H27A 7806   6.041   6.806   8.454  0.3006 -0.7594 -1.8673
   72CHL1  H27B 7807   6.155   6.722   8.570  0.2342 -0.4876  0.0432
   72CHL1  H27C 7808   6.210   6.856   8.487 -2.1380  1.8977  1.3980
   73CHL1    C3 7809   6.546   1.189   7.018 -0.1802 -0.2715  0.0053
   73CHL1    H3 7810   6.601   1.284   7.040 -0.0350 -1.0020  3.2214
   73CHL1    O3 7811   6.461   1.207   6.898 -0.1004  0.2009  0.0015
   73CHL1   H3' 7812   6.428   1.297   6.900  0.0601  0.2523  0.7206
   73CHL1    C4 7813   6.649   1.077   6.997 -0.6961  0.1563 -0.2008
   73CHL1   H4A 7814   6.594   0.981   6.983 -0.0060 -0.1122 -1.1860
   73CHL1   H4B 7815   6.702   1.109   6.905 -1.0583  2.1688  0.2480
   73CHL1    C5 7816   6.737   1.060   7.123  0.2521 -0.0692 -0.3303
   73CHL1    C6 7817   6.869   1.080   7.116 -1.1460  0.0180 -0.3156
   73CHL1    H6 7818   6.906   1.107   7.017 -3.0543 -0.2166 -1.1470
   73CHL1    C7 7819   6.965   1.065   7.231 -0.4983 -0.9549  0.5103
   73CHL1   H7A 7820   7.057   1.006   7.211 -0.5773 -0.7505 -0.5399
   73CHL1   H7B 7821   7.008   1.166   7.251  1.2638 -1.0786 -2.1372
   73CHL1    C8 7822   6.895   0.999   7.349 -0.0322 -0.5304 -0.3093
   73CHL1    H8 7823   6.886   0.892   7.321 -0.6619 -0.9475  1.3597
   73CHL1   C14 7824   6.979   1.012   7.472  0.1127 -0.2399  0.3161
   73CHL1   H14 7825   6.989   1.119   7.500 -0.7872 -0.5609  2.0101
   73CHL1   C15 7826   7.131   0.971   7.458 -0.0196 -0.3257 -0.2586
   73CHL1  H15A 7827   7.124   0.862   7.436 -1.1119 -0.4001  0.3505
   73CHL1  H15B 7828   7.187   1.038   7.389  1.0666  0.7025  1.5393
   73CHL1   C16 7829   7.178   0.987   7.599 -0.0037 -0.1515 -0.0459
   73CHL1  H16A 7830   7.256   0.913   7.627 -0.6922 -1.2092 -0.8670
   73CHL1  H16B 7831   7.218   1.090   7.611  1.1480 -0.4337 -1.2851
   73CHL1   C17 7832   7.043   0.979   7.690  0.0370 -0.9751  0.3491
   73CHL1   H17 7833   7.018   1.087   7.706 -2.5910 -1.6979  1.7509
   73CHL1   C13 7834   6.926   0.939   7.602  0.4063  0.0672 -0.3821
   73CHL1   C18 7835   6.923   0.785   7.578  0.7851 -0.3695  0.3571
   73CHL1  H18A 7836   6.857   0.756   7.493  1.5495  0.2184 -0.4431
   73CHL1  H18B 7837   7.021   0.734   7.568  0.3134 -0.9097 -2.1800
   73CHL1  H18C 7838   6.878   0.733   7.665 -2.2236  1.6508  0.1779
   73CHL1   C12 7839   6.783   0.990   7.627 -0.1899 -0.1049 -0.4578
   73CHL1  H12A 7840   6.737   0.937   7.713  0.9047 -0.6809 -0.2091
   73CHL1  H12B 7841   6.792   1.095   7.662  0.7329  0.1347 -1.3673
   73CHL1   C11 7842   6.693   0.979   7.507  0.6135 -0.4278 -0.2377
   73CHL1  H11A 7843   6.668   0.873   7.484 -1.0185  0.2345 -1.7858
   73CHL1  H11B 7844   6.601   1.040   7.524  0.9532 -0.4100  1.7428
   73CHL1    C9 7845   6.748   1.041   7.375 -0.2032 -0.1786  0.2115
   73CHL1    H9 7846   6.757   1.150   7.397  1.1578 -0.1714 -0.2928
   73CHL1   C10 7847   6.657   1.027   7.248  0.1587  0.1894 -0.2594
   73CHL1   C19 7848   6.618   0.882   7.237  0.9831  0.2019  0.4127
   73CHL1  H19A 7849   6.709   0.825   7.267  1.5110  0.7933 -0.0303
   73CHL1  H19B 7850   6.536   0.850   7.304 -0.1085  1.1194 -0.4440
   73CHL1  H19C 7851   6.573   0.854   7.140 -0.7347  0.5198  1.0914
   73CHL1    C1 7852   6.540   1.127   7.260  0.7666 -0.6052 -0.0887
   73CHL1   H1A 7853   6.470   1.080   7.333  1.4909 -2.7695 -0.7193
   73CHL1   H1B 7854   6.575   1.229   7.286  0.5461 -0.9070  1.4609
   73CHL1    C2 7855   6.455   1.147   7.130 -0.1507  0.6395  0.5653
   73CHL1   H2A 7856   6.379   1.226   7.148 -2.1618 -1.3618  1.1583
   73CHL1   H2B 7857   6.405   1.054   7.097  0.9943 -0.5774  2.0854
   73CHL1   C20 7858   7.056   0.903   7.828 -0.5099  0.5545  0.5450
   73CHL1   H20 7859   7.091   0.800   7.805 -0.0465  0.5515  1.2267
   73CHL1   C21 7860   6.923   0.900   7.912 -0.4136  0.1279  0.4452
   73CHL1  H21A 7861   6.906   1.006   7.940  0.8237  0.1934  0.9982
   73CHL1  H21B 7862   6.935   0.837   8.003  0.7292 -1.1885 -0.5757
   73CHL1  H21C 7863   6.836   0.853   7.859  1.5607 -2.5773 -0.6403
   73CHL1   C22 7864   7.168   0.953   7.925 -0.3803 -1.1250  0.0683
   73CHL1  H22A 7865   7.186   0.879   8.006 -2.2869 -1.2359  0.4298
   73CHL1  H22B 7866   7.266   0.949   7.871 -0.2675  2.0669 -0.1518
   73CHL1   C23 7867   7.156   1.098   7.978 -0.7803 -0.0670  0.5247
   73CHL1  H23A 7868   7.159   1.175   7.898 -0.0174 -0.3353  0.2859
   73CHL1  H23B 7869   7.059   1.103   8.032 -1.2605  0.1375 -0.3354
   73CHL1   C24 7870   7.269   1.141   8.070  0.3016 -0.7459  0.3302
   73CHL1  H24A 7871   7.361   1.153   8.008  0.2435 -2.7737 -0.2038
   73CHL1  H24B 7872   7.245   1.245   8.101  0.6354 -0.0014 -1.7208
   73CHL1   C25 7873   7.291   1.056   8.197  0.8143 -0.3478 -0.7856
   73CHL1   H25 7874   7.297   0.946   8.181 -0.0080 -0.6278  0.7093
   73CHL1   C26 7875   7.429   1.099   8.260  0.3250 -0.0636  0.4934
   73CHL1  H26A 7876   7.513   1.077   8.192  1.1262  0.4408  1.3037
   73CHL1  H26B 7877   7.417   1.206   8.288 -2.0508 -0.1928  0.2312
   73CHL1  H26C 7878   7.443   1.047   8.358 -1.0190 -1.2846  0.0843
   73CHL1   C27 7879   7.190   1.081   8.316  0.0724  0.2235  0.2203
   73CHL1  H27A 7880   7.232   1.038   8.409 -0.1350 -0.0910  0.1717
   73CHL1  H27B 7881   7.175   1.191   8.326 -0.9917 -0.0132  1.3493
   73CHL1  H27C 7882   7.088   1.042   8.296 -0.1888  0.1102  1.6629
   74CHL1    C3 7883   6.114   0.310   6.948 -0.0638 -0.5914 -0.7617
   74CHL1    H3 7884   6.224   0.316   6.966 -0.0914 -1.5761 -0.2042
   74CHL1    O3 7885   6.075   0.300   6.809 -0.0206 -0.2781 -0.3030
   74CHL1   H3' 7886   5.987   0.332   6.789  0.9349  0.9950 -2.8882
   74CHL1    C4 7887   6.062   0.188   7.031  1.1581  0.5029  0.9564
   74CHL1   H4A 7888   5.956   0.162   7.006  0.8553  1.5936  1.0863
   74CHL1   H4B 7889   6.097   0.092   6.985  0.5585 -0.2913  2.1066
   74CHL1    C5 7890   6.088   0.188   7.183 -0.0570 -0.5173 -0.0226
   74CHL1    C6 7891   6.157   0.093   7.239 -0.1041  1.3884  0.1255
   74CHL1    H6 7892   6.182  -0.001   7.187  1.7848  0.8572  1.8511
   74CHL1    C7 7893   6.180   0.088   7.385 -0.1425 -0.0167  0.4556
   74CHL1   H7A 7894   6.170  -0.018   7.418  1.2296  0.1416  1.4325
   74CHL1   H7B 7895   6.285   0.117   7.404 -0.1547 -0.8570  1.9722
   74CHL1    C8 7896   6.096   0.188   7.470 -0.4216 -0.5639  1.0801
   74CHL1    H8 7897   5.989   0.157   7.465 -1.2135  2.0505  0.4592
   74CHL1   C14 7898   6.146   0.204   7.613 -0.3949  0.6907 -1.1146
   74CHL1   H14 7899   6.253   0.233   7.607  0.7179 -2.3950  1.2085
   74CHL1   C15 7900   6.141   0.091   7.712  0.5228  0.6823  0.3106
   74CHL1  H15A 7901   6.044   0.036   7.714  0.7545  0.1469 -1.5122
   74CHL1  H15B 7902   6.213   0.013   7.680  1.0758  0.8162  1.1872
   74CHL1   C16 7903   6.176   0.160   7.846 -0.4582  0.2315  0.1601
   74CHL1  H16A 7904   6.103   0.125   7.923  0.6051  1.3715  1.7455
   74CHL1  H16B 7905   6.280   0.135   7.874 -0.8412 -1.8573 -0.0797
   74CHL1   C17 7906   6.150   0.308   7.832 -0.0011 -0.7982  0.0912
   74CHL1   H17 7907   6.248   0.351   7.802 -0.2429  0.7005  1.3321
   74CHL1   C13 7908   6.074   0.317   7.702  0.1220  0.4726  0.5459
   74CHL1   C18 7909   5.921   0.275   7.730 -0.1333 -0.0153 -0.0998
   74CHL1  H18A 7910   5.918   0.192   7.804  0.8260  1.4278  1.6268
   74CHL1  H18B 7911   5.862   0.359   7.773 -0.6412  0.2317 -1.2457
   74CHL1  H18C 7912   5.865   0.248   7.638  0.1245  0.5973 -0.4406
   74CHL1   C12 7913   6.089   0.449   7.616  0.4443  0.2687  0.6326
   74CHL1  H12A 7914   6.026   0.528   7.663 -1.9108 -0.1855 -1.5689
   74CHL1  H12B 7915   6.190   0.496   7.610 -0.6139  2.6030 -0.2703
   74CHL1   C11 7916   6.024   0.431   7.477 -0.0263  0.7389  0.1516
   74CHL1  H11A 7917   5.915   0.412   7.478  0.2289 -0.8666  1.0704
   74CHL1  H11B 7918   6.045   0.517   7.410 -1.7346  0.5531 -0.6693
   74CHL1    C9 7919   6.098   0.322   7.391  0.0587 -0.0144 -0.0059
   74CHL1    H9 7920   6.204   0.355   7.393  0.3114 -0.8159  0.5400
   74CHL1   C10 7921   6.044   0.320   7.248  0.5850  0.0442 -1.1343
   74CHL1   C19 7922   5.890   0.312   7.247 -0.2357 -0.0860  0.3724
   74CHL1  H19A 7923   5.845   0.406   7.286  1.5227  1.0945 -0.3106
   74CHL1  H19B 7924   5.859   0.304   7.141 -1.3139  1.7080  0.5184
   74CHL1  H19C 7925   5.851   0.232   7.314 -1.5844  0.5575  0.3859
   74CHL1    C1 7926   6.086   0.444   7.164  0.0454 -0.9998  0.1593
   74CHL1   H1A 7927   6.036   0.536   7.201 -1.0977 -1.0220 -1.2727
   74CHL1   H1B 7928   6.197   0.455   7.165 -0.0023 -0.4010 -0.4802
   74CHL1    C2 7929   6.048   0.440   7.012 -0.7065  0.7138 -0.6994
   74CHL1   H2A 7930   6.110   0.522   6.969  1.7858 -0.7582 -0.1395
   74CHL1   H2B 7931   5.939   0.446   6.991 -1.3183  0.2733  2.0401
   74CHL1   C20 7932   6.100   0.375   7.965  0.3035  0.1473  0.9914
   74CHL1   H20 7933   5.995   0.346   7.986 -0.0295  0.9897  0.5331
   74CHL1   C21 7934   6.107   0.527   7.953  0.0712  0.7789  0.6471
   74CHL1  H21A 7935   6.036   0.553   7.871 -0.7285 -0.9673  0.7316
   74CHL1  H21B 7936   6.212   0.561   7.940 -0.1767  1.1007 -0.6158
   74CHL1  H21C 7937   6.070   0.577   8.045 -0.1128  0.0611  0.9748
   74CHL1   C22 7938   6.176   0.332   8.094 -0.8255  0.6890  0.4397
   74CHL1  H22A 7939   6.198   0.223   8.092 -1.4947  0.5438 -1.9225
   74CHL1  H22B 7940   6.275   0.382   8.087 -0.0419 -0.9563 -0.9848
   74CHL1   C23 7941   6.090   0.357   8.215  0.3004 -0.9669 -0.0794
   74CHL1  H23A 7942   6.040   0.455   8.226 -0.7733 -1.4563 -0.4607
   74CHL1  H23B 7943   6.002   0.290   8.228  0.4504 -0.8628  1.6437
   74CHL1   C24 7944   6.175   0.331   8.341 -0.3679  0.6534 -0.1060
   74CHL1  H24A 7945   6.108   0.323   8.429  0.0302 -3.2779  0.0019
   74CHL1  H24B 7946   6.215   0.229   8.323  3.5769  2.1567 -0.9402
   74CHL1   C25 7947   6.289   0.424   8.371 -0.3542  0.1640 -0.8172
   74CHL1   H25 7948   6.332   0.465   8.277  0.6577 -1.3642 -1.0628
   74CHL1   C26 7949   6.259   0.544   8.464 -0.1786  0.3462 -0.2781
   74CHL1  H26A 7950   6.190   0.615   8.412  1.3132  0.6884 -1.8801
   74CHL1  H26B 7951   6.209   0.504   8.554  1.1607 -2.4286 -0.6745
   74CHL1  H26C 7952   6.353   0.591   8.499 -0.5313 -0.3486  1.6815
   74CHL1   C27 7953   6.407   0.346   8.437  0.3845 -0.5527  0.8879
   74CHL1  H27A 7954   6.504   0.391   8.408 -0.3487  1.0877  0.8989
   74CHL1  H27B 7955   6.406   0.333   8.547 -1.8432 -1.9648  0.7732
   74CHL1  H27C 7956   6.431   0.249   8.386  1.1398  1.1626 -2.2890
   75CHL1    C3 7957   1.548   1.160   6.776  0.5213  0.8477 -0.1180
   75CHL1    H3 7958   1.444   1.199   6.781  0.8789  1.7901  0.3465
   75CHL1    O3 7959   1.577   1.136   6.642 -0.0835  0.1609 -0.0750
   75CHL1   H3' 7960   1.572   1.224   6.604 -1.6308  1.3625  2.5976
   75CHL1    C4 7961   1.638   1.271   6.836  0.2159  0.4145 -0.8104
   75CHL1   H4A 7962   1.745   1.242   6.823 -0.2063 -1.0061 -1.1681
   75CHL1   H4B 7963   1.615   1.359   6.772 -1.7004  1.2394  0.9073
   75CHL1    C5 7964   1.611   1.294   6.987  0.1814 -0.0889 -0.0364
   75CHL1    C6 7965   1.566   1.415   7.033  0.0472  0.3525  0.6055
   75CHL1    H6 7966   1.557   1.497   6.960  1.3317 -1.5248 -1.8011
   75CHL1    C7 7967   1.549   1.444   7.182  0.6389  0.1043  0.3524
   75CHL1   H7A 7968   1.594   1.538   7.221 -0.4531 -0.0463  2.0806
   75CHL1   H7B 7969   1.443   1.463   7.208  0.7667  0.8034  0.3899
   75CHL1    C8 7970   1.593   1.328   7.275  0.6117 -0.0325 -0.8733
   75CHL1    H8 7971   1.703   1.333   7.290  0.3779  0.3262  0.9959
   75CHL1   C14 7972   1.523   1.343   7.413  0.2894  0.5305  0.4172
   75CHL1   H14 7973   1.421   1.315   7.377  0.1219  0.0608  1.2164
   75CHL1   C15 7974   1.508   1.477   7.484  0.1303 -0.2015 -0.4952
   75CHL1  H15A 7975   1.601   1.537   7.484  0.1190 -0.1782 -0.0653
   75CHL1  H15B 7976   1.428   1.538   7.435  1.3495  1.9791  0.0941
   75CHL1   C16 7977   1.469   1.449   7.628 -0.6527  0.7251 -0.3351
   75CHL1  H16A 7978   1.550   1.499   7.687  0.7003 -0.1721 -1.3654
   75CHL1  H16B 7979   1.377   1.495   7.668 -1.1368  0.1262 -0.7418
   75CHL1   C17 7980   1.480   1.296   7.643 -0.7934  0.8932 -1.2443
   75CHL1   H17 7981   1.378   1.263   7.613 -0.3503 -1.3155 -0.5313
   75CHL1   C13 7982   1.572   1.242   7.523  0.6269  0.6127  1.0594
   75CHL1   C18 7983   1.719   1.260   7.558 -0.4230  0.2496  0.2005
   75CHL1  H18A 7984   1.755   1.186   7.633  1.2602  1.6727  0.8669
   75CHL1  H18B 7985   1.788   1.243   7.472 -0.1911 -0.0281  0.4391
   75CHL1  H18C 7986   1.718   1.367   7.587 -2.1689  0.7779 -1.5643
   75CHL1   C12 7987   1.540   1.104   7.466  0.5126  0.7177  0.0497
   75CHL1  H12A 7988   1.573   1.026   7.537 -2.5503 -0.2919  0.5407
   75CHL1  H12B 7989   1.431   1.083   7.461  0.5408  0.7134 -0.6954
   75CHL1   C11 7990   1.599   1.077   7.325 -0.1433 -1.3348 -0.0249
   75CHL1  H11A 7991   1.710   1.077   7.334  0.3262 -0.8924 -3.8092
   75CHL1  H11B 7992   1.571   0.979   7.281  0.8228 -0.3908 -3.0310
   75CHL1    C9 7993   1.567   1.191   7.222 -0.5356 -0.2623  0.9054
   75CHL1    H9 7994   1.457   1.186   7.210 -0.3495 -1.2263 -0.7516
   75CHL1   C10 7995   1.624   1.172   7.074  0.5821 -0.1414 -0.6254
   75CHL1   C19 7996   1.778   1.139   7.086  0.0505 -0.8489 -0.7857
   75CHL1  H19A 7997   1.837   1.221   7.132 -0.6465 -0.5090 -0.4993
   75CHL1  H19B 7998   1.792   1.045   7.145  0.7306  0.6580  1.6013
   75CHL1  H19C 7999   1.824   1.132   6.985  1.0135  2.2329 -0.6576
   75CHL1    C1 8000   1.549   1.054   7.009  0.3454  0.7001  0.8918
   75CHL1   H1A 8001   1.568   0.953   7.050  0.1545  0.1504 -0.3362
   75CHL1   H1B 8002   1.440   1.071   7.021  0.1738  0.3353 -0.0811
   75CHL1    C2 8003   1.564   1.029   6.859  0.1792 -0.0654 -0.3508
   75CHL1   H2A 8004   1.484   0.957   6.834  0.0979 -0.0806 -0.0483
   75CHL1   H2B 8005   1.659   0.977   6.835 -0.3363 -1.3249  0.2774
   75CHL1   C20 8006   1.508   1.243   7.790  0.2096  0.2004  0.1746
   75CHL1   H20 8007   1.607   1.285   7.817  0.6292  0.0864 -1.1284
   75CHL1   C21 8008   1.516   1.091   7.806 -0.3621  0.8495 -1.0876
   75CHL1  H21A 8009   1.593   1.056   7.735  0.4086  4.0225 -1.9717
   75CHL1  H21B 8010   1.420   1.037   7.791 -0.1781 -0.3316  1.4303
   75CHL1  H21C 8011   1.544   1.061   7.910 -2.5920 -0.1774 -0.7153
   75CHL1   C22 8012   1.407   1.304   7.892 -0.0245  0.4431 -0.8468
   75CHL1  H22A 8013   1.377   1.409   7.872  2.1396  1.4198  0.7514
   75CHL1  H22B 8014   1.319   1.236   7.900  0.8065 -0.6788 -0.8793
   75CHL1   C23 8015   1.459   1.311   8.038  0.4843  0.0120  0.6371
   75CHL1  H23A 8016   1.491   1.209   8.069  0.3115  0.5430  2.7186
   75CHL1  H23B 8017   1.554   1.369   8.034  0.9302 -0.5640  2.2164
   75CHL1   C24 8018   1.352   1.360   8.126 -0.0505 -0.6353 -0.4163
   75CHL1  H24A 8019   1.318   1.457   8.083  0.0345 -0.6414 -0.4972
   75CHL1  H24B 8020   1.264   1.293   8.114 -1.4137  1.2057 -1.3091
   75CHL1   C25 8021   1.393   1.376   8.275 -0.1104 -0.4905 -0.0499
   75CHL1   H25 8022   1.416   1.270   8.301  0.9348 -0.3852 -0.4977
   75CHL1   C26 8023   1.524   1.460   8.305  0.3488  0.4943 -0.0820
   75CHL1  H26A 8024   1.614   1.454   8.240  1.1298 -0.7322  1.0674
   75CHL1  H26B 8025   1.500   1.568   8.292  1.2043  0.6197 -0.7081
   75CHL1  H26C 8026   1.550   1.446   8.412  0.1888  1.9347  0.1588
   75CHL1   C27 8027   1.279   1.432   8.360 -0.9381 -0.5056 -0.1817
   75CHL1  H27A 8028   1.181   1.413   8.311 -2.2882  1.2458  1.6772
   75CHL1  H27B 8029   1.287   1.420   8.470  0.2954 -1.5882 -0.3527
   75CHL1  H27C 8030   1.283   1.541   8.343  1.3948 -0.2707  1.3564
   76CHL1    C3 8031   4.956   2.992   7.239 -0.1511  0.2617 -0.3331
   76CHL1    H3 8032   4.963   2.886   7.205  1.8874  0.2610 -0.0242
   76CHL1    O3 8033   4.976   3.078   7.128 -0.4318  0.2353 -0.7577
   76CHL1   H3' 8034   5.024   3.018   7.071 -0.0172 -0.8361  0.6456
   76CHL1    C4 8035   4.818   3.029   7.305  0.4368  0.6693 -0.0159
   76CHL1   H4A 8036   4.817   3.137   7.332 -0.1315 -0.2970  4.5701
   76CHL1   H4B 8037   4.733   3.013   7.236  0.5108  2.0134 -0.4546
   76CHL1    C5 8038   4.801   2.964   7.443 -0.1801  0.3244  0.0436
   76CHL1    C6 8039   4.694   2.893   7.482  0.5417  0.5241  0.4207
   76CHL1    H6 8040   4.616   2.868   7.408  0.2082 -1.3126  1.3481
   76CHL1    C7 8041   4.661   2.833   7.611 -0.3712 -0.7024  1.3390
   76CHL1   H7A 8042   4.554   2.853   7.633 -1.1884 -1.2870 -1.7065
   76CHL1   H7B 8043   4.678   2.723   7.602 -0.6296 -0.6601  0.1598
   76CHL1    C8 8044   4.760   2.878   7.713  0.2617  0.2582 -0.7547
   76CHL1    H8 8045   4.729   2.981   7.742 -1.4912 -0.5147  0.2631
   76CHL1   C14 8046   4.753   2.779   7.832 -0.0677 -0.1556  0.4037
   76CHL1   H14 8047   4.794   2.683   7.795  3.8101 -0.2995  4.1734
   76CHL1   C15 8048   4.610   2.758   7.896  0.3707 -0.5858  0.3176
   76CHL1  H15A 8049   4.549   2.850   7.910 -0.0686 -0.8120 -0.0558
   76CHL1  H15B 8050   4.539   2.698   7.835  2.1242 -0.3348 -2.0869
   76CHL1   C16 8051   4.644   2.688   8.028  0.4447 -0.3466 -0.0084
   76CHL1  H16A 8052   4.583   2.746   8.101  0.1224  0.7309 -1.1148
   76CHL1  H16B 8053   4.611   2.582   8.032  0.4155 -0.3598 -0.5171
   76CHL1   C17 8054   4.799   2.690   8.041 -0.2690 -0.3115 -0.1678
   76CHL1   H17 8055   4.821   2.592   7.993 -4.2012 -2.0671  1.1677
   76CHL1   C13 8056   4.847   2.806   7.952  0.2519  0.2742 -0.0111
   76CHL1   C18 8057   4.809   2.938   8.034  0.0299 -0.2527  0.9025
   76CHL1  H18A 8058   4.887   2.966   8.109  1.9639 -3.0435  0.1028
   76CHL1  H18B 8059   4.801   3.021   7.961 -0.5267 -0.0515  1.1853
   76CHL1  H18C 8060   4.712   2.924   8.087 -0.6802 -0.9673 -0.5222
   76CHL1   C12 8061   4.991   2.801   7.888  0.2098 -0.3071  0.0089
   76CHL1  H12A 8062   5.064   2.821   7.969 -1.3148 -0.8718  1.5885
   76CHL1  H12B 8063   5.016   2.697   7.856 -0.6992 -0.5722  0.1416
   76CHL1   C11 8064   5.004   2.896   7.769  0.4990 -0.0859  0.1298
   76CHL1  H11A 8065   4.986   2.996   7.814  0.2719 -1.0428  2.2856
   76CHL1  H11B 8066   5.105   2.879   7.727  0.6141  1.7842 -0.4425
   76CHL1    C9 8067   4.898   2.874   7.654  0.0892  0.3099 -0.0575
   76CHL1    H9 8068   4.922   2.776   7.608  2.6655  1.9271 -2.5320
   76CHL1   C10 8069   4.917   2.984   7.546 -0.6078 -0.4412  0.3194
   76CHL1   C19 8070   4.931   3.134   7.590  0.3589  0.0465 -0.4099
   76CHL1  H19A 8071   4.929   3.204   7.504  1.5297  2.2827  1.2811
   76CHL1  H19B 8072   4.858   3.166   7.667 -1.3183 -2.5224 -0.7819
   76CHL1  H19C 8073   5.026   3.149   7.645  0.1640 -1.5727  0.4347
   76CHL1    C1 8074   5.052   2.953   7.471  0.3534  0.1614 -0.2396
   76CHL1   H1A 8075   5.125   3.003   7.538 -0.8082  1.9697 -0.2529
   76CHL1   H1B 8076   5.068   2.843   7.464 -1.4769 -0.0840 -1.1473
   76CHL1    C2 8077   5.073   3.022   7.335  0.5593  0.2940 -0.4529
   76CHL1   H2A 8078   5.167   2.987   7.289  1.3179 -0.5355  1.6302
   76CHL1   H2B 8079   5.076   3.131   7.356 -0.1961  0.1839  0.2843
   76CHL1   C20 8080   4.845   2.683   8.187  0.3802  0.5705  0.0659
   76CHL1   H20 8081   4.857   2.783   8.236  0.4580  1.1908 -1.1820
   76CHL1   C21 8082   4.983   2.627   8.182 -0.8419 -0.0863  0.3847
   76CHL1  H21A 8083   5.056   2.676   8.114  1.0803 -1.5685  1.2545
   76CHL1  H21B 8084   4.982   2.519   8.157 -1.3448  0.4604 -2.2069
   76CHL1  H21C 8085   5.036   2.629   8.280  0.2301 -3.7516  0.0193
   76CHL1   C22 8086   4.761   2.596   8.283 -0.0845 -0.3254  0.4109
   76CHL1  H22A 8087   4.660   2.642   8.285  0.0478 -0.0097  0.0239
   76CHL1  H22B 8088   4.763   2.492   8.244  2.5587 -0.4054  0.5566
   76CHL1   C23 8089   4.807   2.598   8.432  0.0450  0.1210 -0.0618
   76CHL1  H23A 8090   4.740   2.541   8.500 -1.1668  0.1462 -1.1762
   76CHL1  H23B 8091   4.910   2.557   8.439  1.3396  2.8871 -1.3018
   76CHL1   C24 8092   4.807   2.746   8.485  0.6191 -0.0159  0.5422
   76CHL1  H24A 8093   4.911   2.780   8.463  0.4910 -0.2565 -0.4855
   76CHL1  H24B 8094   4.742   2.810   8.421  4.5378  0.8475 -3.1077
   76CHL1   C25 8095   4.772   2.765   8.635 -0.6963 -0.1684 -0.6691
   76CHL1   H25 8096   4.663   2.745   8.645 -0.9383  0.6049 -1.6380
   76CHL1   C26 8097   4.864   2.684   8.724  0.8804  0.0753  0.1053
   76CHL1  H26A 8098   4.828   2.704   8.827  2.1709 -1.2127  0.8375
   76CHL1  H26B 8099   4.846   2.576   8.708  0.9393  0.0765  0.0329
   76CHL1  H26C 8100   4.968   2.722   8.722  1.2185 -0.6446  1.9511
   76CHL1   C27 8101   4.763   2.920   8.676  0.0221 -0.0545  0.2891
   76CHL1  H27A 8102   4.724   2.924   8.781  0.6515  1.1616  0.4952
   76CHL1  H27B 8103   4.865   2.960   8.697 -0.0888  0.6459 -0.4740
   76CHL1  H27C 8104   4.705   2.988   8.611  1.6505  0.3689 -0.7570
   77CHL1    C3 8105   0.015   2.599   6.874 -0.2522  0.7545  0.7942
   77CHL1    H3 8106   0.077   2.688   6.849 -0.6081  1.0651  1.0062
   77CHL1    O3 8107  -0.059   2.553   6.755  0.2484 -0.2890  0.2811
   77CHL1   H3' 8108  -0.107   2.474   6.782 -1.1035  1.2392  2.8065
   77CHL1    C4 8109   0.087   2.480   6.934  0.0703 -0.4995  0.3640
   77CHL1   H4A 8110   0.011   2.400   6.944 -0.3047 -0.1266  0.5166
   77CHL1   H4B 8111   0.143   2.452   6.842 -1.3850  2.7233 -1.6738
   77CHL1    C5 8112   0.155   2.513   7.066 -0.0626  0.2722  0.1828
   77CHL1    C6 8113   0.289   2.499   7.083  1.1119  0.1683  0.4403
   77CHL1    H6 8114   0.345   2.460   6.997  0.3921 -2.4005  1.0787
   77CHL1    C7 8115   0.350   2.529   7.217 -0.3326 -0.2333 -0.0733
   77CHL1   H7A 8116   0.432   2.457   7.235 -2.1085 -2.8911 -1.9054
   77CHL1   H7B 8117   0.400   2.629   7.216  1.3262 -1.0443 -1.0425
   77CHL1    C8 8118   0.248   2.528   7.337 -0.4905 -0.7784 -0.0349
   77CHL1    H8 8119   0.223   2.420   7.351  1.7761 -1.2813  0.5029
   77CHL1   C14 8120   0.313   2.575   7.466 -0.1237  0.5250 -0.1231
   77CHL1   H14 8121   0.324   2.685   7.454  1.0772  0.6166  1.4641
   77CHL1   C15 8122   0.454   2.529   7.506 -0.3074 -0.0770  0.1404
   77CHL1  H15A 8123   0.470   2.422   7.479  2.8945  0.6496 -1.4200
   77CHL1  H15B 8124   0.527   2.592   7.450 -1.8552 -0.1939 -2.1627
   77CHL1   C16 8125   0.462   2.571   7.654  0.5480  0.0888 -0.5008
   77CHL1  H16A 8126   0.477   2.479   7.715  0.3499 -0.2016 -0.8892
   77CHL1  H16B 8127   0.542   2.643   7.684  0.5742  0.0060 -0.3709
   77CHL1   C17 8128   0.314   2.618   7.706  0.3004 -0.4467 -0.2642
   77CHL1   H17 8129   0.315   2.728   7.693  1.3818 -0.3601  0.3925
   77CHL1   C13 8130   0.219   2.559   7.594 -0.5332  0.2189  0.5271
   77CHL1   C18 8131   0.197   2.409   7.629 -1.0102 -0.0698  0.3237
   77CHL1  H18A 8132   0.129   2.394   7.715 -2.0910  2.9924  0.1008
   77CHL1  H18B 8133   0.161   2.358   7.537 -0.6704  0.0738  0.1095
   77CHL1  H18C 8134   0.294   2.359   7.651 -1.5661 -0.9816  0.7393
   77CHL1   C12 8135   0.097   2.640   7.563  0.3961 -0.0393  0.1308
   77CHL1  H12A 8136   0.016   2.617   7.635 -0.4520 -2.4985 -1.4519
   77CHL1  H12B 8137   0.116   2.749   7.575  0.4108  0.0761 -0.8229
   77CHL1   C11 8138   0.030   2.598   7.429  0.3142  0.4548  0.9761
   77CHL1  H11A 8139  -0.011   2.496   7.447  0.1934 -0.0878 -1.9504
   77CHL1  H11B 8140  -0.062   2.656   7.404  0.9749  0.5587 -1.4341
   77CHL1    C9 8141   0.120   2.597   7.304 -0.6046 -0.5218  0.4773
   77CHL1    H9 8142   0.159   2.699   7.282 -1.4580 -0.2904 -0.0315
   77CHL1   C10 8143   0.054   2.555   7.176  0.1535  0.4783  0.0744
   77CHL1   C19 8144  -0.049   2.439   7.211  0.3655 -0.2328  0.0964
   77CHL1  H19A 8145  -0.004   2.356   7.269  0.4713  0.5846  1.1996
   77CHL1  H19B 8146  -0.132   2.484   7.268  1.9208 -1.1613  3.3155
   77CHL1  H19C 8147  -0.094   2.404   7.115  2.0712  2.8754 -1.9966
   77CHL1    C1 8148  -0.020   2.676   7.113 -0.2053  0.4477 -0.9809
   77CHL1   H1A 8149  -0.096   2.711   7.185 -0.3885 -2.7993  0.5672
   77CHL1   H1B 8150   0.050   2.758   7.085 -1.5059  1.4834 -1.3370
   77CHL1    C2 8151  -0.091   2.648   6.983 -0.0824 -0.4351  0.4912
   77CHL1   H2A 8152  -0.132   2.739   6.934  2.0403 -0.1231 -0.8343
   77CHL1   H2B 8153  -0.174   2.575   6.996  1.2737 -1.7573  2.2691
   77CHL1   C20 8154   0.281   2.585   7.857 -0.6720  0.1763  0.5982
   77CHL1   H20 8155   0.264   2.476   7.859 -1.8644  0.3506  2.9416
   77CHL1   C21 8156   0.144   2.641   7.900 -0.0949 -0.9153 -0.0451
   77CHL1  H21A 8157   0.123   2.612   8.005  0.3456  0.3194  0.4032
   77CHL1  H21B 8158   0.069   2.583   7.841  0.3977 -0.1678 -1.4632
   77CHL1  H21C 8159   0.138   2.751   7.886 -1.5827 -1.0276 -0.3794
   77CHL1   C22 8160   0.400   2.617   7.947  0.2944  0.1970 -0.8521
   77CHL1  H22A 8161   0.472   2.535   7.926  0.1662 -0.1501  0.0127
   77CHL1  H22B 8162   0.436   2.720   7.926 -1.3704  1.5216  2.0829
   77CHL1   C23 8163   0.360   2.606   8.094 -0.6455 -0.1992  0.0100
   77CHL1  H23A 8164   0.295   2.692   8.122 -4.1966 -2.5253 -0.3785
   77CHL1  H23B 8165   0.316   2.508   8.122 -0.1473 -0.3756  0.1787
   77CHL1   C24 8166   0.493   2.621   8.177  0.1446  0.0152  0.4074
   77CHL1  H24A 8167   0.571   2.560   8.126 -0.6020 -1.7495  1.2905
   77CHL1  H24B 8168   0.537   2.722   8.170 -1.8028  0.8221 -1.1160
   77CHL1   C25 8169   0.496   2.553   8.310 -0.0279  0.0271 -0.5302
   77CHL1   H25 8170   0.401   2.566   8.366  0.6819  1.4273  0.3936
   77CHL1   C26 8171   0.529   2.402   8.303  0.0203  0.0114  0.3513
   77CHL1  H26A 8172   0.483   2.348   8.218 -0.2061  0.5404  0.1390
   77CHL1  H26B 8173   0.638   2.391   8.282  0.2472  3.7447 -1.1258
   77CHL1  H26C 8174   0.499   2.341   8.391 -1.5686  1.1739  0.6595
   77CHL1   C27 8175   0.603   2.618   8.396  0.3883 -0.7035 -0.7131
   77CHL1  H27A 8176   0.571   2.721   8.422  3.2981  0.5681 -1.8119
   77CHL1  H27B 8177   0.614   2.561   8.490 -0.6588  1.1968  0.6378
   77CHL1  H27C 8178   0.695   2.616   8.335  2.1364  2.0509  1.5607
   78CHL1    C3 8179   0.625   2.553   6.740 -0.2249  0.2149 -0.0585
   78CHL1    H3 8180   0.551   2.628   6.775  0.3462  0.0215  1.6601
   78CHL1    O3 8181   0.593   2.524   6.606  0.0315  0.1907 -0.2263
   78CHL1   H3' 8182   0.628   2.435   6.601  0.9386  0.5311 -0.2038
   78CHL1    C4 8183   0.775   2.590   6.752  0.4672 -0.0584 -0.6634
   78CHL1   H4A 8184   0.838   2.511   6.706  2.9413  1.0425  0.6619
   78CHL1   H4B 8185   0.781   2.679   6.686 -1.7982  0.2015 -0.6047
   78CHL1    C5 8186   0.820   2.623   6.896 -0.3164  0.7333 -0.3348
   78CHL1    C6 8187   0.867   2.747   6.924 -0.3664  0.6110 -0.5449
   78CHL1    H6 8188   0.883   2.825   6.848  1.2271  0.6197 -0.2449
   78CHL1    C7 8189   0.913   2.786   7.062 -0.8399  0.3946  0.1929
   78CHL1   H7A 8190   1.015   2.830   7.059 -0.6517 -0.0982 -0.9552
   78CHL1   H7B 8191   0.846   2.859   7.113 -1.2244  0.5497 -0.5342
   78CHL1    C8 8192   0.931   2.655   7.152 -0.6952  0.2576  0.1258
   78CHL1    H8 8193   1.021   2.604   7.111 -0.9394  1.1464 -1.6251
   78CHL1   C14 8194   0.959   2.685   7.296  0.0043  0.5366  0.4450
   78CHL1   H14 8195   0.862   2.732   7.325 -2.8784 -3.4295 -1.8014
   78CHL1   C15 8196   1.073   2.791   7.320  0.0217  0.4243  0.0871
   78CHL1  H15A 8197   1.164   2.751   7.270 -0.4602  1.1197 -1.4188
   78CHL1  H15B 8198   1.052   2.895   7.287 -3.9169 -0.1326  0.3518
   78CHL1   C16 8199   1.101   2.773   7.475  0.7368 -0.3387  0.1407
   78CHL1  H16A 8200   1.207   2.741   7.486  0.7099 -0.3830  0.2771
   78CHL1  H16B 8201   1.084   2.872   7.522  3.2077  0.0686  0.3131
   78CHL1   C17 8202   1.000   2.658   7.519  0.2221  0.3998  0.5601
   78CHL1   H17 8203   0.906   2.716   7.532 -1.4167 -1.6912 -1.0521
   78CHL1   C13 8204   0.976   2.575   7.392 -0.4913  0.5330 -0.5144
   78CHL1   C18 8205   1.104   2.489   7.353 -0.7453 -0.5368 -0.1200
   78CHL1  H18A 8206   1.084   2.448   7.251 -2.0365 -0.3319  0.0371
   78CHL1  H18B 8207   1.200   2.545   7.348 -0.6630 -0.7068 -0.4713
   78CHL1  H18C 8208   1.114   2.397   7.414 -0.5659 -2.0835 -2.3377
   78CHL1   C12 8209   0.846   2.494   7.394 -0.2895 -0.4875 -0.0046
   78CHL1  H12A 8210   0.868   2.405   7.457 -0.6109 -0.7880 -0.3140
   78CHL1  H12B 8211   0.769   2.561   7.436 -0.3156  0.9513 -2.1965
   78CHL1   C11 8212   0.813   2.454   7.255 -0.0243  0.4570  0.6792
   78CHL1  H11A 8213   0.894   2.386   7.221 -0.2558 -0.9003  2.6862
   78CHL1  H11B 8214   0.727   2.383   7.253  0.5887 -0.2920 -1.0832
   78CHL1    C9 8215   0.814   2.565   7.146 -0.1643 -0.0195  0.3145
   78CHL1    H9 8216   0.723   2.627   7.154 -0.4869  0.5058 -4.4176
   78CHL1   C10 8217   0.792   2.511   7.003  0.1255  0.3024  0.2444
   78CHL1   C19 8218   0.887   2.395   6.964  0.2409  0.2026 -0.7771
   78CHL1  H19A 8219   0.991   2.430   6.978  0.1775 -0.2369  1.0197
   78CHL1  H19B 8220   0.867   2.301   7.019 -1.3724  0.1259 -1.4239
   78CHL1  H19C 8221   0.874   2.363   6.858 -0.6556 -0.0448 -0.6071
   78CHL1    C1 8222   0.645   2.465   6.984 -0.4115 -0.0196  0.5130
   78CHL1   H1A 8223   0.621   2.390   7.061 -2.6069  0.8232  0.7154
   78CHL1   H1B 8224   0.577   2.547   7.015 -1.4236 -0.3634 -0.6875
   78CHL1    C2 8225   0.595   2.430   6.832 -0.4914 -0.4614  1.0339
   78CHL1   H2A 8226   0.484   2.418   6.832 -0.5258 -0.2367  0.1615
   78CHL1   H2B 8227   0.655   2.342   6.800  2.6092  1.5079  0.9795
   78CHL1   C20 8228   1.040   2.585   7.643 -0.1365 -0.3056  0.0022
   78CHL1   H20 8229   1.098   2.493   7.618  0.5968 -0.2217  1.3017
   78CHL1   C21 8230   0.918   2.542   7.721  0.2536 -0.3354 -0.1875
   78CHL1  H21A 8231   0.938   2.495   7.819  0.5957  1.2535  0.5256
   78CHL1  H21B 8232   0.858   2.466   7.665  0.2249  0.9156 -1.9537
   78CHL1  H21C 8233   0.846   2.626   7.734 -1.1435 -1.3905 -0.8612
   78CHL1   C22 8234   1.129   2.678   7.731  0.2779  0.0164  0.3215
   78CHL1  H22A 8235   1.225   2.680   7.675 -0.1088 -1.6318 -0.4531
   78CHL1  H22B 8236   1.064   2.768   7.738  0.3331  0.1060 -0.2510
   78CHL1   C23 8237   1.173   2.627   7.869  1.0276  0.4367 -0.4633
   78CHL1  H23A 8238   1.086   2.619   7.937  0.4185  0.2548 -1.2554
   78CHL1  H23B 8239   1.208   2.522   7.857  0.1678  0.0775  0.0739
   78CHL1   C24 8240   1.283   2.717   7.937 -1.0180  0.1514 -0.3023
   78CHL1  H24A 8241   1.376   2.700   7.878  0.7429  0.1415  2.2831
   78CHL1  H24B 8242   1.262   2.825   7.920  1.3727  0.3664 -2.5306
   78CHL1   C25 8243   1.305   2.685   8.087  0.0335  0.2836 -0.3629
   78CHL1   H25 8244   1.209   2.710   8.138 -0.2323  0.0850 -0.7578
   78CHL1   C26 8245   1.328   2.542   8.117  0.4900 -0.2461 -0.4734
   78CHL1  H26A 8246   1.246   2.480   8.075 -1.0341  0.8457  0.7313
   78CHL1  H26B 8247   1.429   2.511   8.083  1.4028  0.8896  1.0431
   78CHL1  H26C 8248   1.330   2.523   8.226 -0.4750  0.2950 -0.3449
   78CHL1   C27 8249   1.418   2.776   8.140  0.3510  0.5283 -0.1224
   78CHL1  H27A 8250   1.397   2.885   8.136  1.0258  0.8335  2.5112
   78CHL1  H27B 8251   1.439   2.753   8.247 -2.5338  1.5963  0.7792
   78CHL1  H27C 8252   1.511   2.769   8.079  0.8393  2.4607  0.3298
   79CHL1    C3 8253   6.089   3.215   7.182  0.5661  0.1831  0.5404
   79CHL1    H3 8254   6.200   3.217   7.191  0.5669  2.0248  0.6212
   79CHL1    O3 8255   6.037   3.226   7.052 -0.5631 -0.5708  0.0032
   79CHL1   H3' 8256   5.948   3.190   7.059 -0.3771 -1.0071  0.1402
   79CHL1    C4 8257   6.044   3.077   7.230  0.2306  0.1321 -0.0525
   79CHL1   H4A 8258   5.935   3.072   7.210  0.2188  1.2809 -0.3155
   79CHL1   H4B 8259   6.096   3.004   7.165  0.3108 -0.3302  0.5208
   79CHL1    C5 8260   6.073   3.057   7.382  0.1745 -0.1305  0.1645
   79CHL1    C6 8261   6.155   2.963   7.423  0.2001  0.1036 -0.2755
   79CHL1    H6 8262   6.183   2.883   7.352  1.6475  0.1992  0.1561
   79CHL1    C7 8263   6.183   2.934   7.573  0.1982  1.1846  0.3224
   79CHL1   H7A 8264   6.166   2.825   7.587  0.9238  1.2028  1.5370
   79CHL1   H7B 8265   6.290   2.958   7.592  0.4102  1.1336 -0.7249
   79CHL1    C8 8266   6.097   3.022   7.668 -0.3597 -0.0574  0.6298
   79CHL1    H8 8267   5.994   2.981   7.676 -0.8199  1.1157  0.9445
   79CHL1   C14 8268   6.160   3.026   7.806  0.1295 -0.2078  0.5110
   79CHL1   H14 8269   6.263   3.068   7.801  1.3764 -2.8799  1.6343
   79CHL1   C15 8270   6.193   2.892   7.868 -0.1058  0.1954  0.4575
   79CHL1  H15A 8271   6.112   2.818   7.850  0.7816 -0.3719 -1.4545
   79CHL1  H15B 8272   6.282   2.848   7.817 -2.8264 -1.2854 -3.5833
   79CHL1   C16 8273   6.197   2.918   8.018  0.6927  0.1720 -0.6683
   79CHL1  H16A 8274   6.125   2.848   8.064  2.6411 -1.3214  0.2612
   79CHL1  H16B 8275   6.279   2.880   8.082 -1.0557 -0.8611  1.0665
   79CHL1   C17 8276   6.170   3.073   8.032  0.2285 -0.4596  0.2699
   79CHL1   H17 8277   6.267   3.126   8.026  0.2582 -0.3001  1.7517
   79CHL1   C13 8278   6.085   3.109   7.911  0.3204  0.5445  0.3222
   79CHL1   C18 8279   5.945   3.038   7.930  0.2964 -0.0874 -0.6434
   79CHL1  H18A 8280   5.868   3.080   7.998 -2.0530 -1.2984 -2.4380
   79CHL1  H18B 8281   5.891   3.036   7.833 -1.3038 -2.9088  0.2142
   79CHL1  H18C 8282   5.947   2.936   7.973 -1.6603 -0.2139 -0.7681
   79CHL1   C12 8283   6.065   3.258   7.871  0.2339  0.0231  0.4971
   79CHL1  H12A 8284   6.001   3.322   7.935  0.8903 -1.2139  2.4680
   79CHL1  H12B 8285   6.168   3.298   7.861 -0.5372  1.6694 -1.5879
   79CHL1   C11 8286   6.013   3.275   7.727 -0.1687  0.3441  0.0124
   79CHL1  H11A 8287   5.905   3.256   7.743  0.5654 -2.5228  2.6322
   79CHL1  H11B 8288   6.036   3.379   7.694  0.1834 -0.0063 -0.8709
   79CHL1    C9 8289   6.075   3.172   7.617  0.5688 -1.1600 -0.1332
   79CHL1    H9 8290   6.179   3.210   7.609  0.5922 -0.9946  0.7974
   79CHL1   C10 8291   6.017   3.176   7.467 -0.0525 -0.1144 -0.0645
   79CHL1   C19 8292   5.866   3.174   7.470 -0.0336 -0.2844 -0.2988
   79CHL1  H19A 8293   5.827   3.249   7.542 -1.2032 -0.6952 -0.4742
   79CHL1  H19B 8294   5.820   3.189   7.370  0.6453 -0.8302 -0.7008
   79CHL1  H19C 8295   5.827   3.076   7.505 -0.8045  0.6793  1.6731
   79CHL1    C1 8296   6.062   3.312   7.413 -0.1032  0.1526 -0.0033
   79CHL1   H1A 8297   6.025   3.393   7.479  0.4041 -0.3134  0.8649
   79CHL1   H1B 8298   6.173   3.308   7.419  0.0795  3.6902  1.7942
   79CHL1    C2 8299   6.038   3.335   7.259  0.0555  0.1027  0.2400
   79CHL1   H2A 8300   6.103   3.421   7.230 -0.1035  0.3266  0.5334
   79CHL1   H2B 8301   5.931   3.354   7.237 -0.1312 -1.4476 -0.2913
   79CHL1   C20 8302   6.116   3.119   8.165 -0.4318 -0.1009  0.0752
   79CHL1   H20 8303   6.009   3.092   8.177 -0.1083 -2.3318 -1.3962
   79CHL1   C21 8304   6.131   3.266   8.195 -0.1979  0.1465 -0.0899
   79CHL1  H21A 8305   6.237   3.287   8.223 -0.4969 -1.0905  2.2310
   79CHL1  H21B 8306   6.065   3.290   8.281 -0.5920  0.4037 -0.4601
   79CHL1  H21C 8307   6.110   3.332   8.109  4.3985 -0.6514 -2.1537
   79CHL1   C22 8308   6.187   3.030   8.285 -0.1472 -0.4359  0.2919
   79CHL1  H22A 8309   6.160   2.924   8.266 -1.5577 -0.0281 -0.1140
   79CHL1  H22B 8310   6.297   3.032   8.271 -0.1214  0.4406  0.6015
   79CHL1   C23 8311   6.165   3.067   8.435 -0.1366  0.5087 -0.5347
   79CHL1  H23A 8312   6.205   3.169   8.454  1.4124 -0.1629 -0.0566
   79CHL1  H23B 8313   6.056   3.060   8.456 -0.6669  3.7424 -1.5842
   79CHL1   C24 8314   6.244   2.981   8.531  0.1425  0.9979  0.4259
   79CHL1  H24A 8315   6.218   2.877   8.501  1.5742  0.7837 -0.2041
   79CHL1  H24B 8316   6.349   3.012   8.509  0.0936  1.1356  0.3865
   79CHL1   C25 8317   6.238   3.020   8.679 -0.2956  0.4160 -0.1295
   79CHL1   H25 8318   6.284   2.931   8.727 -1.1537  1.6061  3.1778
   79CHL1   C26 8319   6.328   3.140   8.716 -0.4674 -0.5003  0.1362
   79CHL1  H26A 8320   6.427   3.111   8.673 -0.2410  1.5449 -0.8381
   79CHL1  H26B 8321   6.295   3.236   8.670  1.6569 -0.3403 -1.2073
   79CHL1  H26C 8322   6.339   3.139   8.826  0.9337 -4.1592  0.1002
   79CHL1   C27 8323   6.092   3.012   8.734  0.1128 -0.5600  0.0329
   79CHL1  H27A 8324   6.034   2.924   8.700 -0.7247 -0.8104  1.9741
   79CHL1  H27B 8325   6.096   3.023   8.844 -0.1224  0.8396 -0.0727
   79CHL1  H27C 8326   6.043   3.104   8.694  0.0786 -0.7347 -0.3344
   80CHL1    C3 8327   4.431   5.089   7.033  1.0039 -0.1264 -0.7421
   80CHL1    H3 8328   4.322   5.083   7.052  1.1711 -0.7938  0.0559
   80CHL1    O3 8329   4.449   5.077   6.893  0.5698 -0.3376  0.0023
   80CHL1   H3' 8330   4.533   5.120   6.877 -0.0494  0.8268 -0.2461
   80CHL1    C4 8331   4.485   5.224   7.090  0.1980  0.0717 -0.5720
   80CHL1   H4A 8332   4.587   5.238   7.048 -0.2079 -0.5304 -1.7875
   80CHL1   H4B 8333   4.434   5.306   7.035 -0.9230  0.0307  0.3793
   80CHL1    C5 8334   4.482   5.251   7.239  0.3664  0.6025  0.0655
   80CHL1    C6 8335   4.432   5.364   7.291  0.0084  0.4179 -0.4654
   80CHL1    H6 8336   4.401   5.443   7.221 -1.3948 -0.9085 -1.4032
   80CHL1    C7 8337   4.436   5.398   7.441 -0.8397  0.4547 -0.0323
   80CHL1   H7A 8338   4.502   5.484   7.463  1.0644 -0.5330 -1.6577
   80CHL1   H7B 8339   4.330   5.427   7.462 -0.8964  0.3151 -0.1302
   80CHL1    C8 8340   4.480   5.278   7.527 -0.1204  0.0043  0.0210
   80CHL1    H8 8341   4.587   5.302   7.542 -0.5023  2.2388 -0.4703
   80CHL1   C14 8342   4.418   5.286   7.664 -0.2403  0.2619  0.6268
   80CHL1   H14 8343   4.308   5.269   7.662 -0.0463 -1.0246  0.0787
   80CHL1   C15 8344   4.428   5.419   7.746  0.1958  0.0416  0.1544
   80CHL1  H15A 8345   4.523   5.473   7.724  0.4458 -0.0509  1.0015
   80CHL1  H15B 8346   4.345   5.487   7.717  1.7467  1.8396 -0.2787
   80CHL1   C16 8347   4.414   5.373   7.900  0.1870 -0.2492  0.2070
   80CHL1  H16A 8348   4.507   5.380   7.960 -1.4693 -0.1221  2.9386
   80CHL1  H16B 8349   4.330   5.439   7.931  0.5226  0.6464 -0.7288
   80CHL1   C17 8350   4.374   5.222   7.891 -0.3080  0.0408 -0.2539
   80CHL1   H17 8351   4.269   5.215   7.855 -0.5890  0.7258  0.3970
   80CHL1   C13 8352   4.463   5.180   7.765 -0.3223 -0.2655  0.2967
   80CHL1   C18 8353   4.616   5.192   7.792 -0.2688 -0.1300 -0.3608
   80CHL1  H18A 8354   4.652   5.285   7.841 -0.9502 -0.3537  0.6039
   80CHL1  H18B 8355   4.659   5.104   7.844 -1.7893 -1.7560 -1.7069
   80CHL1  H18C 8356   4.668   5.184   7.694 -2.1083  1.1011 -1.5135
   80CHL1   C12 8357   4.444   5.036   7.706  0.5835  0.7403 -0.4706
   80CHL1  H12A 8358   4.486   4.957   7.772 -3.9479 -2.0775 -0.5486
   80CHL1  H12B 8359   4.335   5.019   7.694  0.3057  0.3093  2.0834
   80CHL1   C11 8360   4.496   5.022   7.563 -0.0027  0.2336 -0.0621
   80CHL1  H11A 8361   4.607   5.018   7.573 -0.1717 -2.6401  1.5741
   80CHL1  H11B 8362   4.460   4.925   7.522  1.0126 -1.0713  1.9814
   80CHL1    C9 8363   4.456   5.142   7.467 -1.2430 -0.5467  0.2913
   80CHL1    H9 8364   4.346   5.135   7.456 -1.1144 -1.0697 -0.7377
   80CHL1   C10 8365   4.521   5.131   7.324  0.6450  0.4634 -0.6725
   80CHL1   C19 8366   4.674   5.127   7.331  0.3736  0.4351  0.1081
   80CHL1  H19A 8367   4.715   5.208   7.395 -0.2051  0.0684  0.9523
   80CHL1  H19B 8368   4.703   5.028   7.372  2.5639  0.3571 -1.4481
   80CHL1  H19C 8369   4.711   5.127   7.226 -0.1523  0.6538 -0.0812
   80CHL1    C1 8370   4.476   4.993   7.267 -0.1892  0.1850 -0.0036
   80CHL1   H1A 8371   4.529   4.908   7.315 -0.8776 -0.2287  0.0320
   80CHL1   H1B 8372   4.369   4.990   7.296 -0.2199  0.7281 -0.0485
   80CHL1    C2 8373   4.492   4.975   7.112 -0.5603 -0.2526 -0.7528
   80CHL1   H2A 8374   4.432   4.885   7.085 -1.2762  0.4483 -1.5342
   80CHL1   H2B 8375   4.598   4.951   7.091  0.1745  0.1103  2.1384
   80CHL1   C20 8376   4.385   5.145   8.028 -0.0794  0.2839 -0.0533
   80CHL1   H20 8377   4.492   5.118   8.042 -0.3731 -1.1564 -0.4583
   80CHL1   C21 8378   4.293   5.025   8.019 -0.1897  0.0971 -0.0359
   80CHL1  H21A 8379   4.300   4.960   8.109 -0.5838  0.3810  0.2037
   80CHL1  H21B 8380   4.319   4.951   7.941  0.3215 -0.5437  0.7283
   80CHL1  H21C 8381   4.187   5.055   8.000 -0.5022 -0.6497  0.5045
   80CHL1   C22 8382   4.339   5.230   8.154  0.3369 -0.3606 -0.1632
   80CHL1  H22A 8383   4.382   5.332   8.162  1.4261 -0.4378 -3.3952
   80CHL1  H22B 8384   4.233   5.248   8.128  0.2384  3.3540  2.1517
   80CHL1   C23 8385   4.355   5.170   8.290 -0.5710  0.0632  0.1381
   80CHL1  H23A 8386   4.313   5.067   8.291 -1.2518  0.3382  0.8830
   80CHL1  H23B 8387   4.464   5.156   8.305 -0.8121 -3.5614 -0.5765
   80CHL1   C24 8388   4.302   5.258   8.410  0.1551  0.3130 -0.0277
   80CHL1  H24A 8389   4.333   5.363   8.391  0.4039  0.6368  1.9179
   80CHL1  H24B 8390   4.192   5.246   8.422  0.0651  1.7310  0.8475
   80CHL1   C25 8391   4.362   5.200   8.541  0.1837 -0.2797  0.4162
   80CHL1   H25 8392   4.471   5.220   8.539  0.1560 -0.1791 -0.6182
   80CHL1   C26 8393   4.294   5.287   8.645  0.8001  0.6472 -0.0795
   80CHL1  H26A 8394   4.333   5.268   8.747  1.0712 -1.4476 -0.5348
   80CHL1  H26B 8395   4.316   5.395   8.630  1.1692  0.4219 -1.2638
   80CHL1  H26C 8396   4.184   5.271   8.639  0.6104  2.1007 -1.1426
   80CHL1   C27 8397   4.332   5.053   8.562 -0.1295 -0.1903 -0.1463
   80CHL1  H27A 8398   4.232   5.030   8.519 -0.3598  0.7732 -0.1379
   80CHL1  H27B 8399   4.412   4.994   8.512  0.5473  0.8968 -0.3860
   80CHL1  H27C 8400   4.337   5.032   8.671 -1.6030 -1.2420 -0.2529
   81CHL1    C3 8401   4.118   6.608   6.778  0.5625  0.0431 -0.4007
   81CHL1    H3 8402   4.216   6.561   6.804  0.9617  0.4647 -1.1057
   81CHL1    O3 8403   4.110   6.615   6.634  0.2757  0.4999 -0.6462
   81CHL1   H3' 8404   4.109   6.710   6.624 -1.3886  0.6239  0.2720
   81CHL1    C4 8405   4.001   6.541   6.841  0.6530  0.7487  0.1419
   81CHL1   H4A 8406   3.907   6.588   6.806 -0.5061 -1.5258 -0.0492
   81CHL1   H4B 8407   3.992   6.440   6.795  0.6772  0.7172  0.2073
   81CHL1    C5 8408   4.010   6.537   6.995  0.5103  0.7316  0.1684
   81CHL1    C6 8409   3.989   6.420   7.062 -0.6922 -0.5589  0.8551
   81CHL1    H6 8410   3.948   6.333   7.010  0.0467 -0.2811 -0.2244
   81CHL1    C7 8411   4.006   6.417   7.209  0.1550  0.3540 -0.2362
   81CHL1   H7A 8412   3.919   6.363   7.252  1.1812 -1.5993 -0.5160
   81CHL1   H7B 8413   4.080   6.344   7.248  0.2661  0.5911  0.0112
   81CHL1    C8 8414   4.014   6.550   7.280 -0.3180  0.2187  0.1555
   81CHL1    H8 8415   3.916   6.602   7.283 -0.7692 -0.6725  1.8846
   81CHL1   C14 8416   4.067   6.536   7.423 -0.0866 -0.8108 -0.2958
   81CHL1   H14 8417   4.174   6.510   7.414  0.6803  0.4562  3.3390
   81CHL1   C15 8418   3.987   6.428   7.507 -0.2064 -0.0767  0.7351
   81CHL1  H15A 8419   3.882   6.427   7.472  0.5141 -2.9914 -1.7864
   81CHL1  H15B 8420   4.022   6.323   7.502 -2.5531 -0.9164  0.7458
   81CHL1   C16 8421   4.007   6.479   7.652  0.6393  0.1463  0.1897
   81CHL1  H16A 8422   3.909   6.509   7.695  0.2220 -0.4430 -0.3405
   81CHL1  H16B 8423   4.059   6.401   7.713  0.5532 -0.1875 -0.1636
   81CHL1   C17 8424   4.098   6.604   7.653  0.9013  0.0049  0.3869
   81CHL1   H17 8425   4.197   6.553   7.647  0.5887 -0.5608 -0.1081
   81CHL1   C13 8426   4.064   6.666   7.511 -0.0552  0.5776 -0.5716
   81CHL1   C18 8427   3.919   6.726   7.508 -0.8990  0.2070 -0.6028
   81CHL1  H18A 8428   3.881   6.758   7.409 -0.1642 -0.1494 -1.0092
   81CHL1  H18B 8429   3.842   6.659   7.551 -0.4220  0.5524  0.8486
   81CHL1  H18C 8430   3.918   6.809   7.581  0.9215  0.3375 -0.6841
   81CHL1   C12 8431   4.151   6.770   7.442 -0.8236  0.0524 -0.5838
   81CHL1  H12A 8432   4.143   6.872   7.484 -0.1672  0.1155 -0.5949
   81CHL1  H12B 8433   4.256   6.736   7.458 -0.6316  0.1112 -1.6091
   81CHL1   C11 8434   4.128   6.790   7.295  0.7058 -0.0494  0.9134
   81CHL1  H11A 8435   4.041   6.859   7.292 -0.4282 -1.4699 -1.0282
   81CHL1  H11B 8436   4.216   6.840   7.247  2.0453 -1.9364  1.3053
   81CHL1    C9 8437   4.105   6.656   7.214  0.0034  0.9267  0.4147
   81CHL1    H9 8438   4.206   6.613   7.198  0.6186  2.7059 -0.8738
   81CHL1   C10 8439   4.052   6.669   7.066 -0.6802 -0.5173 -0.3977
   81CHL1   C19 8440   3.929   6.765   7.073 -0.7602 -0.5274  0.1068
   81CHL1  H19A 8441   3.885   6.781   6.972 -0.5654  0.8852  0.2293
   81CHL1  H19B 8442   3.856   6.734   7.151 -3.3460 -0.3676 -2.1108
   81CHL1  H19C 8443   3.969   6.863   7.107 -3.1516 -0.0476  1.7804
   81CHL1    C1 8444   4.167   6.731   6.986 -0.2504 -0.0008  0.4073
   81CHL1   H1A 8445   4.179   6.838   7.015 -0.7938  0.1433  0.1176
   81CHL1   H1B 8446   4.260   6.671   6.997 -1.4787 -2.0053  0.2464
   81CHL1    C2 8447   4.139   6.745   6.836  0.3755 -0.8691  0.3775
   81CHL1   H2A 8448   4.232   6.792   6.795  0.5086  0.9013  2.5388
   81CHL1   H2B 8449   4.051   6.808   6.812  1.7899  1.0226 -0.1715
   81CHL1   C20 8450   4.090   6.690   7.783 -0.3682  0.3465 -0.3622
   81CHL1   H20 8451   3.986   6.725   7.802 -0.2372 -0.5782  2.4352
   81CHL1   C21 8452   4.187   6.811   7.763 -0.0711 -0.1543  0.4873
   81CHL1  H21A 8453   4.148   6.883   7.688 -2.0564 -1.4589  0.1992
   81CHL1  H21B 8454   4.292   6.781   7.741 -0.1415 -0.0451 -0.0177
   81CHL1  H21C 8455   4.206   6.856   7.863 -0.3608 -4.3832  2.6714
   81CHL1   C22 8456   4.125   6.616   7.913  0.3471 -0.7821 -0.7176
   81CHL1  H22A 8457   4.200   6.534   7.902 -0.3894 -1.3609 -1.5391
   81CHL1  H22B 8458   4.166   6.685   7.990  1.2958 -0.8007 -1.1892
   81CHL1   C23 8459   4.000   6.543   7.977 -0.3212  0.8675  0.1341
   81CHL1  H23A 8460   3.922   6.622   7.981  0.5718  1.8539 -1.1541
   81CHL1  H23B 8461   3.976   6.459   7.907  0.6261  0.0979  0.7039
   81CHL1   C24 8462   4.023   6.482   8.114 -0.1104  0.5025 -0.7904
   81CHL1  H24A 8463   4.108   6.411   8.105 -1.3610 -0.7766 -3.3319
   81CHL1  H24B 8464   4.071   6.559   8.179 -1.6811 -0.2154  1.3412
   81CHL1   C25 8465   3.910   6.427   8.192  0.2155  0.5814 -0.0139
   81CHL1   H25 8466   3.864   6.517   8.238  1.2244  2.2688 -2.0952
   81CHL1   C26 8467   3.794   6.353   8.106 -0.5649  0.1563 -0.4741
   81CHL1  H26A 8468   3.757   6.431   8.036 -1.9123  2.3742  2.5242
   81CHL1  H26B 8469   3.844   6.273   8.046 -0.2627 -1.8892  2.2988
   81CHL1  H26C 8470   3.701   6.331   8.162 -0.9023  0.5089 -0.8869
   81CHL1   C27 8471   3.966   6.336   8.311 -0.7399  0.0867 -0.0775
   81CHL1  H27A 8472   3.881   6.306   8.376  0.5270 -1.8558  0.7651
   81CHL1  H27B 8473   4.015   6.247   8.266 -2.2249 -0.4797 -0.6596
   81CHL1  H27C 8474   4.031   6.396   8.378 -1.4023 -1.0771  1.6960
   82CHL1    C3 8475   4.541   1.494   6.967 -0.3695  0.1389 -0.2527
   82CHL1    H3 8476   4.638   1.500   7.021 -1.1166 -0.1769  1.1796
   82CHL1    O3 8477   4.553   1.501   6.825 -0.3464 -0.5342 -0.4273
   82CHL1   H3' 8478   4.467   1.504   6.783 -0.8741 -0.7536  0.6209
   82CHL1    C4 8479   4.474   1.362   7.015 -0.5625 -0.3128 -0.2543
   82CHL1   H4A 8480   4.369   1.362   6.979 -0.8267 -0.3781  0.4949
   82CHL1   H4B 8481   4.532   1.278   6.970  1.5376 -0.1488  1.9476
   82CHL1    C5 8482   4.465   1.346   7.170  0.0242  0.3885  0.4057
   82CHL1    C6 8483   4.530   1.246   7.232  0.6800  0.1669 -0.1697
   82CHL1    H6 8484   4.567   1.159   7.176 -1.2105 -1.6995  1.3537
   82CHL1    C7 8485   4.546   1.224   7.382 -0.3550  0.0420 -0.1501
   82CHL1   H7A 8486   4.532   1.116   7.406 -1.0369 -0.4079 -2.3675
   82CHL1   H7B 8487   4.645   1.259   7.420 -0.5912  1.3546 -0.7027
   82CHL1    C8 8488   4.441   1.310   7.451 -0.1702 -0.4462 -0.6016
   82CHL1    H8 8489   4.339   1.269   7.433 -0.1901 -0.0252 -1.4844
   82CHL1   C14 8490   4.463   1.315   7.603  0.1290  0.0111  0.3550
   82CHL1   H14 8491   4.568   1.353   7.601  0.6006 -1.1016 -2.5843
   82CHL1   C15 8492   4.482   1.182   7.680  0.0916  0.1196 -0.1061
   82CHL1  H15A 8493   4.415   1.102   7.642 -0.2912  0.2756  0.2245
   82CHL1  H15B 8494   4.583   1.143   7.658  0.0525 -0.8608  1.3202
   82CHL1   C16 8495   4.469   1.224   7.828 -0.0967  0.7189 -0.4912
   82CHL1  H16A 8496   4.381   1.185   7.884  0.9954  0.8095  1.3411
   82CHL1  H16B 8497   4.563   1.195   7.879  0.0039 -1.6053 -1.8641
   82CHL1   C17 8498   4.445   1.374   7.833 -0.0920 -0.4405  0.7202
   82CHL1   H17 8499   4.548   1.416   7.831 -0.1714 -0.2515  0.6365
   82CHL1   C13 8500   4.381   1.405   7.691 -0.0376 -0.6483  0.3346
   82CHL1   C18 8501   4.232   1.366   7.694 -0.4122  0.2577  0.8290
   82CHL1  H18A 8502   4.209   1.293   7.773 -5.0700  0.9701  0.4201
   82CHL1  H18B 8503   4.166   1.454   7.714 -0.7006  0.2274  0.0402
   82CHL1  H18C 8504   4.189   1.336   7.596 -0.1494 -0.6877  1.0000
   82CHL1   C12 8505   4.399   1.550   7.636  0.3409 -0.0092 -0.4851
   82CHL1  H12A 8506   4.319   1.609   7.686 -2.8960 -2.1663 -2.7153
   82CHL1  H12B 8507   4.508   1.571   7.647  0.6018 -1.0854 -0.8678
   82CHL1   C11 8508   4.364   1.560   7.491  0.6430  0.2828  0.3623
   82CHL1  H11A 8509   4.255   1.540   7.480  0.2393  1.5625  1.7785
   82CHL1  H11B 8510   4.382   1.659   7.444  0.2377 -0.4702 -1.4739
   82CHL1    C9 8511   4.439   1.459   7.397 -0.0673  0.3432 -0.6465
   82CHL1    H9 8512   4.548   1.478   7.401 -0.1849  0.7077  1.7937
   82CHL1   C10 8513   4.409   1.471   7.245 -0.1573  0.6610  0.0115
   82CHL1   C19 8514   4.258   1.454   7.232 -0.0179 -0.3081 -0.0240
   82CHL1  H19A 8515   4.220   1.446   7.128  0.1508  0.1551 -0.1216
   82CHL1  H19B 8516   4.218   1.364   7.284  0.5100  1.6423  4.1236
   82CHL1  H19C 8517   4.204   1.539   7.278  1.1760  0.0735  0.7081
   82CHL1    C1 8518   4.456   1.598   7.174 -0.4348  0.2258 -0.5007
   82CHL1   H1A 8519   4.405   1.681   7.228  0.1116 -1.5266  3.0103
   82CHL1   H1B 8520   4.563   1.613   7.198 -0.4452  0.7031 -0.7390
   82CHL1    C2 8521   4.445   1.605   7.022 -0.0515  0.2668 -0.0341
   82CHL1   H2A 8522   4.490   1.698   6.983 -0.8148  1.1736  1.1551
   82CHL1   H2B 8523   4.340   1.591   6.986 -0.0014 -0.2308 -0.0018
   82CHL1   C20 8524   4.371   1.410   7.962  0.0729  0.6019 -0.0616
   82CHL1   H20 8525   4.264   1.382   7.950  0.6562 -1.2556 -1.6017
   82CHL1   C21 8526   4.378   1.569   7.971 -0.2109 -0.1684 -0.2826
   82CHL1  H21A 8527   4.475   1.618   7.946  0.8407 -0.6533  2.5095
   82CHL1  H21B 8528   4.340   1.600   8.071 -0.0654 -0.1474 -0.2333
   82CHL1  H21C 8529   4.303   1.613   7.902 -2.1887 -1.2368  1.0567
   82CHL1   C22 8530   4.429   1.340   8.087 -0.5951  0.1030  0.8026
   82CHL1  H22A 8531   4.409   1.231   8.080 -1.4040  0.2463  0.7195
   82CHL1  H22B 8532   4.538   1.353   8.104 -1.1714  2.2861  3.3233
   82CHL1   C23 8533   4.368   1.373   8.225  0.0440 -0.2127  0.3845
   82CHL1  H23A 8534   4.398   1.478   8.245 -0.4262  0.3245 -1.4904
   82CHL1  H23B 8535   4.257   1.368   8.226  0.0815 -1.5462  1.7447
   82CHL1   C24 8536   4.438   1.282   8.335  0.0036  0.1833 -0.3449
   82CHL1  H24A 8537   4.429   1.175   8.306  2.5511 -0.2318  0.2050
   82CHL1  H24B 8538   4.546   1.305   8.342  0.5543 -1.7141 -1.8063
   82CHL1   C25 8539   4.370   1.294   8.476  0.3829  0.2554 -0.5780
   82CHL1   H25 8540   4.264   1.260   8.475  1.2574 -2.7686 -0.1863
   82CHL1   C26 8541   4.443   1.202   8.577  0.5354 -0.6348  1.0946
   82CHL1  H26A 8542   4.413   1.096   8.567 -2.2577  0.0824  0.9258
   82CHL1  H26B 8543   4.554   1.212   8.574  0.3949  1.1385 -2.3627
   82CHL1  H26C 8544   4.404   1.245   8.672  0.8708  2.4068 -0.0150
   82CHL1   C27 8545   4.373   1.437   8.529  0.0017 -0.3030 -0.3715
   82CHL1  H27A 8546   4.301   1.461   8.610  3.0916 -1.1604  2.8863
   82CHL1  H27B 8547   4.477   1.453   8.565  0.4103 -0.6401 -1.3598
   82CHL1  H27C 8548   4.366   1.523   8.458 -0.6831  0.4186  0.5386
   83CHL1    C3 8549   0.039   4.060   7.039  0.6241 -0.3820  0.6804
   83CHL1    H3 8550   0.067   3.956   7.065  0.3349 -0.8601 -0.8115
   83CHL1    O3 8551   0.064   4.088   6.903  0.1003  0.4292 -0.1601
   83CHL1   H3' 8552   0.024   4.172   6.879 -0.1511  0.4133  0.1965
   83CHL1    C4 8553  -0.117   4.083   7.047  0.1474 -0.2884 -0.8244
   83CHL1   H4A 8554  -0.132   4.192   7.030  0.2296  0.2898  2.1938
   83CHL1   H4B 8555  -0.160   4.020   6.967  0.1064 -0.5533 -0.5957
   83CHL1    C5 8556  -0.160   4.049   7.192 -0.5732  0.5283  0.6439
   83CHL1    C6 8557  -0.259   3.963   7.221 -0.2509 -0.4788 -0.2797
   83CHL1    H6 8558  -0.325   3.926   7.141  0.0037 -1.2040 -0.1678
   83CHL1    C7 8559  -0.295   3.917   7.360  0.1411 -0.3317 -0.1464
   83CHL1   H7A 8560  -0.403   3.938   7.378 -0.8471 -1.4196 -3.9262
   83CHL1   H7B 8561  -0.260   3.813   7.376 -1.0542 -0.8978 -1.0454
   83CHL1    C8 8562  -0.227   4.003   7.464  0.6019 -0.0466  0.2914
   83CHL1    H8 8563  -0.281   4.100   7.467  1.5602  0.5896 -1.6174
   83CHL1   C14 8564  -0.243   3.933   7.598  0.4381 -0.0414  0.0540
   83CHL1   H14 8565  -0.202   3.832   7.577 -2.0690 -0.8768 -1.1715
   83CHL1   C15 8566  -0.388   3.912   7.659 -0.3092 -0.0523 -0.3920
   83CHL1  H15A 8567  -0.445   4.007   7.650 -0.9321 -0.5181 -1.6334
   83CHL1  H15B 8568  -0.448   3.835   7.606  1.3151  0.0299 -2.4933
   83CHL1   C16 8569  -0.353   3.875   7.806  0.2685 -0.1872  0.7031
   83CHL1  H16A 8570  -0.418   3.924   7.882  0.1506  0.0457  0.4517
   83CHL1  H16B 8571  -0.380   3.767   7.807 -1.4756  0.2086  2.2138
   83CHL1   C17 8572  -0.204   3.905   7.829  0.1647 -0.1233  0.1551
   83CHL1   H17 8573  -0.157   3.806   7.808  0.9558  0.3655 -0.4378
   83CHL1   C13 8574  -0.167   4.002   7.714 -0.5804 -0.4995  0.1842
   83CHL1   C18 8575  -0.230   4.149   7.744  0.1751  1.1258 -0.1998
   83CHL1  H18A 8576  -0.245   4.194   7.643  1.1099  2.2631  0.1456
   83CHL1  H18B 8577  -0.328   4.147   7.794  1.2358  1.8108  2.0209
   83CHL1  H18C 8578  -0.157   4.206   7.805  2.2335 -2.2640  0.7250
   83CHL1   C12 8579  -0.018   4.022   7.681 -0.9743  0.5375 -0.0635
   83CHL1  H12A 8580   0.032   4.082   7.760  1.6938 -0.3486 -0.9706
   83CHL1  H12B 8581   0.034   3.924   7.676 -1.3446  0.3666 -0.6100
   83CHL1   C11 8582   0.005   4.090   7.547 -0.1648 -0.3708  0.1741
   83CHL1  H11A 8583  -0.037   4.193   7.559 -2.3640 -1.2612  0.6134
   83CHL1  H11B 8584   0.115   4.088   7.530 -0.4400 -0.9120 -1.7747
   83CHL1    C9 8585  -0.080   4.033   7.429 -0.6380  0.0094  0.1596
   83CHL1    H9 8586  -0.026   3.937   7.415 -0.7136  0.3487 -3.2638
   83CHL1   C10 8587  -0.064   4.113   7.293  1.2580  0.3706 -0.7048
   83CHL1   C19 8588  -0.120   4.258   7.306 -0.1374 -0.7420 -0.3771
   83CHL1  H19A 8589  -0.230   4.258   7.319 -0.2352 -0.2140 -1.1197
   83CHL1  H19B 8590  -0.077   4.307   7.395 -0.4481 -2.4949  0.7930
   83CHL1  H19C 8591  -0.086   4.322   7.222 -1.5706  1.3288  0.5362
   83CHL1    C1 8592   0.084   4.127   7.258 -0.5795 -0.2877 -0.1374
   83CHL1   H1A 8593   0.121   4.207   7.326 -0.6913  0.1458 -0.5845
   83CHL1   H1B 8594   0.133   4.032   7.291  0.1505  0.0913 -0.1103
   83CHL1    C2 8595   0.122   4.156   7.118 -0.4992 -0.0263 -0.3304
   83CHL1   H2A 8596   0.230   4.136   7.100 -0.0741  0.3942  1.5558
   83CHL1   H2B 8597   0.096   4.262   7.094  1.2896  0.6627  0.5727
   83CHL1   C20 8598  -0.173   3.939   7.977  0.0994 -0.3556 -0.0013
   83CHL1   H20 8599  -0.210   4.040   8.006  1.3196 -0.7996  3.5500
   83CHL1   C21 8600  -0.022   3.943   8.002  0.1303  0.1805 -0.2540
   83CHL1  H21A 8601   0.021   4.027   7.944  0.1473 -0.1972 -0.7929
   83CHL1  H21B 8602   0.034   3.851   7.976  3.1966  1.7493  0.3588
   83CHL1  H21C 8603  -0.004   3.976   8.107 -0.4595  1.6776 -0.5915
   83CHL1   C22 8604  -0.240   3.840   8.073  0.6296 -0.1306 -0.2476
   83CHL1  H22A 8605  -0.350   3.853   8.076  0.3826 -1.8910  3.8204
   83CHL1  H22B 8606  -0.216   3.733   8.058 -2.1106 -0.8731  0.1708
   83CHL1   C23 8607  -0.215   3.860   8.222 -0.3395 -0.5269  0.3614
   83CHL1  H23A 8608  -0.105   3.846   8.237  0.1502 -0.3951 -2.4369
   83CHL1  H23B 8609  -0.232   3.968   8.240 -0.5596  0.0167 -2.5685
   83CHL1   C24 8610  -0.295   3.766   8.311  0.2002 -0.2836  0.8083
   83CHL1  H24A 8611  -0.399   3.779   8.275  0.9473  2.1122 -0.7311
   83CHL1  H24B 8612  -0.270   3.658   8.299 -0.7018 -0.4400  0.2257
   83CHL1   C25 8613  -0.269   3.804   8.460 -0.3448 -0.3565 -0.3786
   83CHL1   H25 8614  -0.282   3.913   8.472 -1.3211 -0.5320  0.3052
   83CHL1   C26 8615  -0.365   3.735   8.557  0.1896  0.0914 -0.2597
   83CHL1  H26A 8616  -0.472   3.762   8.547 -0.9535 -2.3736  3.3467
   83CHL1  H26B 8617  -0.348   3.626   8.546 -2.1565 -0.6537  2.5217
   83CHL1  H26C 8618  -0.334   3.768   8.658 -0.7085  1.6777 -0.4593
   83CHL1   C27 8619  -0.130   3.751   8.503  0.5732 -0.8349 -0.3872
   83CHL1  H27A 8620  -0.063   3.806   8.433  0.1108  0.7660  0.4032
   83CHL1  H27B 8621  -0.114   3.782   8.608  0.8684  0.3275 -0.7598
   83CHL1  H27C 8622  -0.131   3.640   8.493 -1.7600 -1.1470  2.1415
   84CHL1    C3 8623   1.414   6.363   7.071  0.0113 -0.7433  0.0535
   84CHL1    H3 8624   1.524   6.358   7.064  0.3662  1.2570  2.8040
   84CHL1    O3 8625   1.354   6.423   6.957 -0.5238 -1.0880 -0.1158
   84CHL1   H3' 8626   1.266   6.453   6.978 -0.7112 -0.2592 -1.9570
   84CHL1    C4 8627   1.363   6.220   7.074  0.6459  0.3480  0.1179
   84CHL1   H4A 8628   1.253   6.226   7.059  0.7661  0.6862 -0.6866
   84CHL1   H4B 8629   1.402   6.166   6.985 -1.1912  1.4087 -1.4094
   84CHL1    C5 8630   1.390   6.148   7.203 -0.8867 -0.0544  0.4191
   84CHL1    C6 8631   1.445   6.023   7.201  0.9306  0.1278  0.1935
   84CHL1    H6 8632   1.454   5.965   7.109 -1.8563 -0.0670 -0.0360
   84CHL1    C7 8633   1.461   5.953   7.337  0.0152 -0.3306 -0.1403
   84CHL1   H7A 8634   1.426   5.850   7.315 -0.8091 -0.4281  1.4719
   84CHL1   H7B 8635   1.571   5.952   7.355  0.1627 -0.8449 -1.0408
   84CHL1    C8 8636   1.390   6.016   7.461  0.3913  0.3675  0.1074
   84CHL1    H8 8637   1.285   5.983   7.456  1.0086 -1.5235 -1.4354
   84CHL1   C14 8638   1.446   5.960   7.592 -0.5062 -0.0364 -0.5079
   84CHL1   H14 8639   1.550   5.996   7.586 -0.5756 -0.0406 -3.8438
   84CHL1   C15 8640   1.437   5.806   7.618 -0.1230  0.1680  0.2695
   84CHL1  H15A 8641   1.338   5.782   7.575 -0.0579  0.0473  0.1881
   84CHL1  H15B 8642   1.521   5.760   7.562  0.2721 -0.1987  1.1408
   84CHL1   C16 8643   1.434   5.790   7.778  0.2281 -0.1001  0.0443
   84CHL1  H16A 8644   1.337   5.746   7.811  0.9326 -2.5688 -0.9418
   84CHL1  H16B 8645   1.503   5.715   7.820 -2.4264 -0.2261  4.9010
   84CHL1   C17 8646   1.459   5.929   7.831  0.8854 -0.4770 -0.7043
   84CHL1   H17 8647   1.570   5.927   7.830  0.8999 -2.5121  0.8795
   84CHL1   C13 8648   1.394   6.020   7.722  0.2393 -0.7932  0.3121
   84CHL1   C18 8649   1.232   6.016   7.733 -0.5006  0.0615 -0.1802
   84CHL1  H18A 8650   1.173   6.054   7.646 -1.1039  2.4683  1.1939
   84CHL1  H18B 8651   1.200   5.909   7.741  0.1701  0.0353  4.6832
   84CHL1  H18C 8652   1.202   6.068   7.826 -0.0680 -2.5741  1.5519
   84CHL1   C12 8653   1.437   6.169   7.715  0.3373 -0.6854  0.1992
   84CHL1  H12A 8654   1.383   6.212   7.802 -0.2043  3.2073 -1.8164
   84CHL1  H12B 8655   1.547   6.172   7.725  0.6031 -1.6830 -1.7746
   84CHL1   C11 8656   1.378   6.239   7.595  0.6274  0.1952 -0.2589
   84CHL1  H11A 8657   1.271   6.260   7.613  0.6696 -0.2010  0.4956
   84CHL1  H11B 8658   1.429   6.337   7.585  0.0101  0.3993 -1.5692
   84CHL1    C9 8659   1.406   6.167   7.458  0.5416 -0.5249 -0.2552
   84CHL1    H9 8660   1.516   6.185   7.456  0.2645  1.6022  1.3426
   84CHL1   C10 8661   1.357   6.228   7.330 -0.1281  0.0101 -0.1695
   84CHL1   C19 8662   1.210   6.238   7.343  0.0546  0.4586 -0.1913
   84CHL1  H19A 8663   1.149   6.270   7.256 -1.6881  0.6957  1.0609
   84CHL1  H19B 8664   1.161   6.141   7.369  0.8801  0.0358 -0.1574
   84CHL1  H19C 8665   1.183   6.308   7.425  0.4050 -0.5677  0.8292
   84CHL1    C1 8666   1.425   6.371   7.321  0.0070  0.4841 -0.2578
   84CHL1   H1A 8667   1.388   6.429   7.409 -0.9666 -2.1651  1.1813
   84CHL1   H1B 8668   1.533   6.347   7.320 -0.2746 -0.8083 -0.9405
   84CHL1    C2 8669   1.386   6.451   7.197 -0.0839  0.5205 -0.2912
   84CHL1   H2A 8670   1.445   6.543   7.179  0.7355  0.5290  2.0275
   84CHL1   H2B 8671   1.278   6.473   7.209 -0.4571 -1.7252  1.1764
   84CHL1   C20 8672   1.419   5.959   7.976 -0.4479 -0.6196 -0.1812
   84CHL1   H20 8673   1.312   5.991   7.975 -0.4315 -0.5181 -2.0467
   84CHL1   C21 8674   1.501   6.080   8.039 -0.3241  0.7797 -0.0742
   84CHL1  H21A 8675   1.479   6.108   8.145 -1.3002  0.6710 -0.2373
   84CHL1  H21B 8676   1.461   6.175   7.996 -2.7486  0.5368  1.4281
   84CHL1  H21C 8677   1.606   6.064   8.008 -0.6468  0.7617 -1.2026
   84CHL1   C22 8678   1.410   5.834   8.068  0.4641  0.5546 -0.0616
   84CHL1  H22A 8679   1.336   5.759   8.031  0.4685  1.3139 -1.7244
   84CHL1  H22B 8680   1.513   5.793   8.062 -0.1524 -1.0293 -0.3192
   84CHL1   C23 8681   1.392   5.866   8.220  0.5340 -0.5058 -0.2632
   84CHL1  H23A 8682   1.470   5.934   8.260 -0.3615  0.1273  0.4476
   84CHL1  H23B 8683   1.300   5.919   8.253  0.6913 -0.7217  0.5455
   84CHL1   C24 8684   1.395   5.737   8.304 -0.0066  0.4141 -1.0643
   84CHL1  H24A 8685   1.314   5.670   8.268  0.3307  0.4759 -1.9723
   84CHL1  H24B 8686   1.492   5.683   8.292  0.2324  0.9277 -1.4542
   84CHL1   C25 8687   1.380   5.774   8.455  0.0787  0.8281  0.1283
   84CHL1   H25 8688   1.316   5.865   8.452  1.0331  1.5157  0.2524
   84CHL1   C26 8689   1.306   5.665   8.533 -0.0326  0.4434  1.0264
   84CHL1  H26A 8690   1.205   5.656   8.488  1.1995 -0.1354 -1.9368
   84CHL1  H26B 8691   1.354   5.569   8.506 -1.3814 -0.1062  0.4770
   84CHL1  H26C 8692   1.296   5.670   8.643  2.0175 -0.2108  1.2881
   84CHL1   C27 8693   1.510   5.815   8.527  0.1164 -0.3174  0.4629
   84CHL1  H27A 8694   1.589   5.737   8.516 -0.5513 -0.7484 -1.9557
   84CHL1  H27B 8695   1.544   5.914   8.489 -1.7210 -0.3668 -1.5114
   84CHL1  H27C 8696   1.481   5.838   8.631 -1.3223 -1.2152  0.2951
   85CHL1    C3 8697   2.118   3.691   6.794  0.4138  0.0880 -0.1664
   85CHL1    H3 8698   2.035   3.765   6.785 -1.6640 -1.5281  3.5389
   85CHL1    O3 8699   2.145   3.626   6.669 -0.2397 -0.3181  0.1875
   85CHL1   H3' 8700   2.214   3.562   6.690  0.0773  0.3084  1.1523
   85CHL1    C4 8701   2.230   3.768   6.853 -0.5050 -0.1264 -0.6913
   85CHL1   H4A 8702   2.327   3.717   6.833 -0.7710 -0.4792 -1.1063
   85CHL1   H4B 8703   2.254   3.852   6.785  0.6007 -0.7565 -1.1139
   85CHL1    C5 8704   2.213   3.807   6.997  0.4150  0.0031 -0.0171
   85CHL1    C6 8705   2.227   3.935   7.036 -0.0112  0.0002  0.2024
   85CHL1    H6 8706   2.259   4.004   6.957  0.1950 -0.2443  0.0680
   85CHL1    C7 8707   2.228   3.978   7.177 -0.8257 -0.3457 -0.4553
   85CHL1   H7A 8708   2.313   4.045   7.203 -0.3842 -0.6108 -1.1792
   85CHL1   H7B 8709   2.132   4.031   7.197  0.0134  1.4923 -1.0207
   85CHL1    C8 8710   2.241   3.866   7.277  0.5277  0.3776 -0.2062
   85CHL1    H8 8711   2.345   3.827   7.277  0.2657 -0.3331 -0.3708
   85CHL1   C14 8712   2.199   3.915   7.413  0.0228  0.4088  0.2545
   85CHL1   H14 8713   2.092   3.942   7.397 -0.0172 -0.8219 -1.9203
   85CHL1   C15 8714   2.274   4.038   7.466  0.0953  0.1415 -0.8779
   85CHL1  H15A 8715   2.383   4.021   7.453  0.2896  2.2005 -2.4739
   85CHL1  H15B 8716   2.250   4.134   7.416  0.6435  1.7218  1.7372
   85CHL1   C16 8717   2.252   4.035   7.618  0.8079  0.3131  0.6335
   85CHL1  H16A 8718   2.347   4.030   7.676  1.1602  0.6846  0.0929
   85CHL1  H16B 8719   2.180   4.117   7.640  0.8747  0.4590  0.3120
   85CHL1   C17 8720   2.176   3.897   7.645  0.0810 -1.2413 -0.4332
   85CHL1   H17 8721   2.066   3.914   7.649  0.2426 -0.2763  0.7545
   85CHL1   C13 8722   2.204   3.809   7.524 -0.2719  0.9100 -0.1677
   85CHL1   C18 8723   2.349   3.748   7.542 -0.1946 -0.6173  0.1832
   85CHL1  H18A 8724   2.393   3.710   7.448 -0.2665 -2.0663  0.7041
   85CHL1  H18B 8725   2.416   3.813   7.602 -1.3703  0.8971 -0.0865
   85CHL1  H18C 8726   2.367   3.656   7.602 -0.5639 -1.4586 -0.9556
   85CHL1   C12 8727   2.104   3.693   7.479 -0.1461 -0.1172 -0.1484
   85CHL1  H12A 8728   2.113   3.606   7.548  1.2354 -0.0242 -0.1955
   85CHL1  H12B 8729   2.001   3.736   7.481  0.6553  1.8980  1.6245
   85CHL1   C11 8730   2.140   3.644   7.344  0.0681  0.2199 -0.0210
   85CHL1  H11A 8731   2.246   3.611   7.346 -0.0405 -0.1146  0.4348
   85CHL1  H11B 8732   2.080   3.554   7.316  0.9650  0.2385 -2.1621
   85CHL1    C9 8733   2.145   3.754   7.237  0.6562  0.1327 -0.7898
   85CHL1    H9 8734   2.047   3.806   7.234 -0.1099 -1.3003 -2.1049
   85CHL1   C10 8735   2.179   3.698   7.098 -0.3296  0.8001 -0.4369
   85CHL1   C19 8736   2.296   3.603   7.091  0.3656  0.5910 -0.4934
   85CHL1  H19A 8737   2.384   3.656   7.135  1.2171  0.6348 -2.1728
   85CHL1  H19B 8738   2.270   3.523   7.163 -0.9498  3.5777  2.6658
   85CHL1  H19C 8739   2.321   3.557   6.993 -0.3817 -0.0997 -0.3712
   85CHL1    C1 8740   2.052   3.632   7.040 -0.5268 -0.5313  0.3188
   85CHL1   H1A 8741   2.015   3.545   7.099  1.5691 -0.4026  1.9643
   85CHL1   H1B 8742   1.974   3.710   7.038  0.7614  0.7863 -0.5297
   85CHL1    C2 8743   2.065   3.589   6.896 -0.1842 -0.4220  0.4597
   85CHL1   H2A 8744   1.967   3.550   6.861 -1.3599  0.4675  2.5730
   85CHL1   H2B 8745   2.130   3.499   6.901  0.0840 -0.2562 -0.0076
   85CHL1   C20 8746   2.201   3.857   7.793 -0.2710  0.1765  0.4296
   85CHL1   H20 8747   2.310   3.837   7.804 -0.6236 -3.0264 -0.7001
   85CHL1   C21 8748   2.128   3.717   7.824 -0.0941 -0.5331 -0.6396
   85CHL1  H21A 8749   2.133   3.696   7.933 -0.8123  0.5485 -0.3828
   85CHL1  H21B 8750   2.175   3.626   7.780  4.3426  0.3634  1.6791
   85CHL1  H21C 8751   2.022   3.722   7.793 -0.5420 -2.0069  0.5038
   85CHL1   C22 8752   2.157   3.962   7.901 -0.2012  0.9316  0.0724
   85CHL1  H22A 8753   2.207   4.057   7.872 -1.2669  1.1909 -0.9901
   85CHL1  H22B 8754   2.052   3.986   7.873 -0.7182 -0.3825  0.8174
   85CHL1   C23 8755   2.180   3.934   8.052 -1.2379  0.5432  0.7011
   85CHL1  H23A 8756   2.137   3.836   8.082  1.5442 -0.0789  3.0752
   85CHL1  H23B 8757   2.290   3.919   8.060 -1.3412 -2.3600 -1.6120
   85CHL1   C24 8758   2.145   4.060   8.136  0.1736  0.1424 -0.8755
   85CHL1  H24A 8759   2.229   4.131   8.119 -0.2430  0.7072 -0.6136
   85CHL1  H24B 8760   2.049   4.094   8.092 -1.3318 -2.0236  0.5475
   85CHL1   C25 8761   2.138   4.034   8.290 -0.1795 -0.0689 -0.2879
   85CHL1   H25 8762   2.059   3.959   8.308 -1.1969  1.2638  1.0778
   85CHL1   C26 8763   2.269   3.988   8.348 -0.8309 -0.2281 -0.1204
   85CHL1  H26A 8764   2.348   4.065   8.334  0.7381 -1.5110  1.1817
   85CHL1  H26B 8765   2.259   3.970   8.457  0.1893  0.6813  0.1448
   85CHL1  H26C 8766   2.311   3.899   8.296 -0.1450  0.0333 -0.0339
   85CHL1   C27 8767   2.094   4.160   8.358 -0.1786 -0.0523 -0.2428
   85CHL1  H27A 8768   2.174   4.235   8.349 -0.3376 -0.0206 -1.6568
   85CHL1  H27B 8769   2.003   4.207   8.315  0.0551  2.2523  1.5744
   85CHL1  H27C 8770   2.083   4.129   8.464 -1.6958 -1.0575 -0.6567
   86CHL1    C3 8771   5.082   1.435   7.020 -0.6375  0.2450 -0.9099
   86CHL1    H3 8772   5.055   1.333   7.055 -1.8258  1.3450  1.6299
   86CHL1    O3 8773   5.094   1.441   6.879  0.3439  0.1742 -0.1746
   86CHL1   H3' 8774   5.115   1.532   6.857  1.8147 -0.3122 -0.8697
   86CHL1    C4 8775   4.973   1.522   7.078 -0.4402 -0.8352  0.2297
   86CHL1   H4A 8776   5.001   1.621   7.035  2.2471 -1.6068  0.0603
   86CHL1   H4B 8777   4.873   1.511   7.030 -1.2993 -0.3917  1.8247
   86CHL1    C5 8778   4.966   1.534   7.233 -0.2236 -0.0665 -0.2198
   86CHL1    C6 8779   4.855   1.492   7.300 -0.2856  0.2131  0.4653
   86CHL1    H6 8780   4.760   1.464   7.253  0.0719  1.4625 -1.0569
   86CHL1    C7 8781   4.861   1.477   7.448  0.1355  0.8812  0.2173
   86CHL1   H7A 8782   4.762   1.511   7.486  1.0940  1.8809  1.9176
   86CHL1   H7B 8783   4.879   1.370   7.470  1.1579  1.3141  1.6095
   86CHL1    C8 8784   4.972   1.566   7.507  0.3954 -0.1046 -0.3824
   86CHL1    H8 8785   4.947   1.674   7.500  3.1512  0.6591  0.5017
   86CHL1   C14 8786   4.981   1.545   7.658 -0.0891  0.5037  0.8197
   86CHL1   H14 8787   5.016   1.440   7.673 -1.7957  0.1014  2.2335
   86CHL1   C15 8788   4.849   1.551   7.736 -0.4340 -0.5575  0.1516
   86CHL1  H15A 8789   4.776   1.623   7.693  1.9297  0.8059 -1.8956
   86CHL1  H15B 8790   4.810   1.447   7.739 -0.3770 -0.5677  0.5806
   86CHL1   C16 8791   4.895   1.590   7.880 -0.0758 -0.5399 -0.2493
   86CHL1  H16A 8792   4.841   1.686   7.892 -1.8543 -1.5341  0.1635
   86CHL1  H16B 8793   4.862   1.515   7.955  5.2505 -1.3734  1.6395
   86CHL1   C17 8794   5.050   1.602   7.882  0.4924  0.5400 -0.8599
   86CHL1   H17 8795   5.086   1.498   7.901  2.4970  1.5841  1.5551
   86CHL1   C13 8796   5.075   1.636   7.731  0.1458  0.7813  0.0509
   86CHL1   C18 8797   5.059   1.785   7.708  0.3023 -0.8598  0.5684
   86CHL1  H18A 8798   5.148   1.837   7.749 -0.6558  0.9595  0.4357
   86CHL1  H18B 8799   5.055   1.811   7.600 -0.9873  2.4917  1.3095
   86CHL1  H18C 8800   4.963   1.828   7.745 -0.0339 -0.0445 -1.1689
   86CHL1   C12 8801   5.213   1.598   7.677  0.2389 -0.1642  0.4251
   86CHL1  H12A 8802   5.290   1.655   7.732  0.8118  0.8637 -1.3417
   86CHL1  H12B 8803   5.211   1.488   7.694  0.2672 -0.2926 -0.3391
   86CHL1   C11 8804   5.214   1.627   7.525 -1.0949 -0.3704  0.3255
   86CHL1  H11A 8805   5.225   1.737   7.515 -0.7484 -0.4355 -0.0597
   86CHL1  H11B 8806   5.311   1.587   7.488 -1.6703 -0.6278 -0.9913
   86CHL1    C9 8807   5.107   1.548   7.449 -1.0109  0.1975 -0.3887
   86CHL1    H9 8808   5.137   1.442   7.466  0.2501  0.7061  0.6959
   86CHL1   C10 8809   5.102   1.570   7.290  0.2622  0.3893 -0.6581
   86CHL1   C19 8810   5.139   1.721   7.261  0.0082  0.3496  0.0790
   86CHL1  H19A 8811   5.242   1.743   7.298 -0.0219  0.0063  0.3609
   86CHL1  H19B 8812   5.141   1.740   7.151  2.0572  1.2926  0.2309
   86CHL1  H19C 8813   5.058   1.784   7.304 -1.5680 -1.0647 -0.6979
   86CHL1    C1 8814   5.215   1.478   7.233 -0.5087  0.6616  0.0534
   86CHL1   H1A 8815   5.303   1.516   7.289 -0.1815  1.3690 -0.9258
   86CHL1   H1B 8816   5.195   1.375   7.272  1.5755  1.6311  4.2605
   86CHL1    C2 8817   5.225   1.464   7.079  0.1836 -0.1772 -0.1072
   86CHL1   H2A 8818   5.302   1.387   7.058  1.7142  0.3832  2.9134
   86CHL1   H2B 8819   5.273   1.554   7.034  1.9281  0.0647  2.0461
   86CHL1   C20 8820   5.099   1.685   7.999  0.1952  0.2456 -0.4981
   86CHL1   H20 8821   5.098   1.790   7.963  0.3482  1.6310  3.0574
   86CHL1   C21 8822   5.244   1.643   8.019  0.0173 -0.3454 -0.1761
   86CHL1  H21A 8823   5.285   1.684   8.113 -0.0814  1.2337 -0.7870
   86CHL1  H21B 8824   5.315   1.668   7.937  0.3850  0.4606  0.3812
   86CHL1  H21C 8825   5.254   1.532   8.026  3.4317 -0.2175 -1.3336
   86CHL1   C22 8826   5.010   1.671   8.128  0.4419 -0.9309 -0.1546
   86CHL1  H22A 8827   4.903   1.688   8.104  0.9168  1.8833 -0.5784
   86CHL1  H22B 8828   5.012   1.569   8.173  0.2705  0.6583  3.8584
   86CHL1   C23 8829   5.044   1.778   8.242  0.0535 -0.2293  0.5697
   86CHL1  H23A 8830   5.146   1.750   8.275  0.9247  2.3320  0.2537
   86CHL1  H23B 8831   5.046   1.878   8.194 -2.1155 -0.4012  0.0201
   86CHL1   C24 8832   4.953   1.766   8.366 -0.0502  0.4794 -1.0655
   86CHL1  H24A 8833   4.990   1.822   8.455  0.0458  1.8270 -1.9266
   86CHL1  H24B 8834   4.858   1.815   8.338  0.4087  4.3911  3.0024
   86CHL1   C25 8835   4.918   1.624   8.418 -0.7649 -0.5248  0.2945
   86CHL1   H25 8836   4.893   1.566   8.327  2.1299 -0.5676 -0.5564
   86CHL1   C26 8837   5.043   1.566   8.495 -0.1863 -0.8703  0.2911
   86CHL1  H26A 8838   5.048   1.625   8.589 -0.2870 -0.9957  0.3754
   86CHL1  H26B 8839   5.016   1.459   8.509 -1.6789 -0.1800  3.5891
   86CHL1  H26C 8840   5.139   1.572   8.439 -0.7661 -0.8637 -0.7176
   86CHL1   C27 8841   4.797   1.615   8.504  0.1867  0.7137 -0.4406
   86CHL1  H27A 8842   4.809   1.683   8.591  2.6895 -0.7476  0.4731
   86CHL1  H27B 8843   4.705   1.653   8.454 -0.8271  0.2050  0.9710
   86CHL1  H27C 8844   4.780   1.509   8.533 -0.1841  1.0117  0.4586
   87CHL1    C3 8845   4.798   5.685   7.079  0.7486 -0.2613 -0.1636
   87CHL1    H3 8846   4.909   5.681   7.076  0.9539  2.0431  1.6446
   87CHL1    O3 8847   4.753   5.653   6.956 -0.2250  0.0380  0.4423
   87CHL1   H3' 8848   4.711   5.566   6.954 -1.2935  0.5205 -1.7665
   87CHL1    C4 8849   4.746   5.580   7.170  0.1291  0.1565  0.0810
   87CHL1   H4A 8850   4.636   5.565   7.167 -0.0424  1.2615  0.4634
   87CHL1   H4B 8851   4.800   5.487   7.141  0.3322  0.0557  0.7792
   87CHL1    C5 8852   4.777   5.607   7.315 -0.1096 -0.4363  0.3159
   87CHL1    C6 8853   4.839   5.520   7.396  0.3961 -0.5901 -0.0486
   87CHL1    H6 8854   4.868   5.426   7.346 -2.5289 -0.3281 -2.5839
   87CHL1    C7 8855   4.877   5.546   7.539  0.6074  0.0783  0.0794
   87CHL1   H7A 8856   4.869   5.449   7.592  1.0251  0.3237  0.5990
   87CHL1   H7B 8857   4.982   5.582   7.551  0.2881  0.4164  2.3310
   87CHL1    C8 8858   4.787   5.658   7.603 -0.0482  0.6168 -0.7029
   87CHL1    H8 8859   4.688   5.609   7.612 -0.3376  1.3458  0.3486
   87CHL1   C14 8860   4.832   5.692   7.745  0.0584  0.3516 -0.3594
   87CHL1   H14 8861   4.930   5.744   7.735  0.5948 -0.3986  0.7991
   87CHL1   C15 8862   4.845   5.577   7.858 -0.0808 -0.5968 -0.5279
   87CHL1  H15A 8863   4.751   5.519   7.845 -1.2001  0.4491  2.1977
   87CHL1  H15B 8864   4.930   5.509   7.834 -0.2989 -0.3764 -2.0767
   87CHL1   C16 8865   4.845   5.664   7.989  0.3649 -0.7143 -0.0091
   87CHL1  H16A 8866   4.774   5.624   8.063  1.3422 -0.1784  1.2609
   87CHL1  H16B 8867   4.950   5.658   8.027  0.2304 -0.5253  0.4009
   87CHL1   C17 8868   4.799   5.811   7.948  0.2473  0.7048 -0.0022
   87CHL1   H17 8869   4.895   5.862   7.926  0.0645  0.5396 -1.2716
   87CHL1   C13 8870   4.740   5.795   7.806 -0.0240 -0.0746  0.2955
   87CHL1   C18 8871   4.591   5.744   7.809 -0.1373  0.2517 -0.6720
   87CHL1  H18A 8872   4.524   5.815   7.862  1.2915  1.5108 -0.4630
   87CHL1  H18B 8873   4.550   5.720   7.709  1.3324 -1.8532 -0.8278
   87CHL1  H18C 8874   4.572   5.649   7.865 -3.7022 -0.5651 -2.9658
   87CHL1   C12 8875   4.760   5.924   7.717 -0.2388 -0.1711 -0.5319
   87CHL1  H12A 8876   4.701   6.010   7.756  0.8444 -0.0617  0.9446
   87CHL1  H12B 8877   4.869   5.943   7.715 -0.4021  0.8853  0.1383
   87CHL1   C11 8878   4.722   5.910   7.568  0.3215 -0.5684  0.2088
   87CHL1  H11A 8879   4.611   5.915   7.566  0.2155 -2.3570 -0.3945
   87CHL1  H11B 8880   4.763   5.995   7.509 -0.7372 -0.6050 -0.5985
   87CHL1    C9 8881   4.788   5.781   7.506 -0.6581  0.2127  0.4614
   87CHL1    H9 8882   4.895   5.800   7.486 -0.3704 -2.2180 -0.6200
   87CHL1   C10 8883   4.734   5.746   7.365 -0.0385 -0.1789 -0.1732
   87CHL1   C19 8884   4.581   5.738   7.377  0.0103 -0.4297  0.2107
   87CHL1  H19A 8885   4.547   5.684   7.468  1.5012  1.2639  1.8473
   87CHL1  H19B 8886   4.540   5.841   7.378  0.1428 -0.3391 -1.3563
   87CHL1  H19C 8887   4.536   5.688   7.288  2.3221 -1.8060 -0.2636
   87CHL1    C1 8888   4.782   5.861   7.263 -0.1283  0.1847  0.2379
   87CHL1   H1A 8889   4.733   5.958   7.288 -1.7431 -1.0915  2.5043
   87CHL1   H1B 8890   4.892   5.870   7.277 -0.1225  1.5861 -0.5689
   87CHL1    C2 8891   4.752   5.828   7.114 -0.3793 -0.1612  0.5014
   87CHL1   H2A 8892   4.805   5.902   7.051 -0.1169 -2.5639 -2.3391
   87CHL1   H2B 8893   4.642   5.838   7.102 -0.2287  2.9874  0.9088
   87CHL1   C20 8894   4.717   5.891   8.048 -0.3870  0.0206 -1.0835
   87CHL1   H20 8895   4.608   5.891   8.025 -0.6063  0.5016 -0.0898
   87CHL1   C21 8896   4.765   6.037   8.045  0.1805  0.4005  0.2618
   87CHL1  H21A 8897   4.705   6.103   8.110  1.4527  2.2498 -0.3593
   87CHL1  H21B 8898   4.774   6.084   7.944 -0.6227  1.7487  0.7929
   87CHL1  H21C 8899   4.871   6.040   8.075  0.0361  0.1959  0.7908
   87CHL1   C22 8900   4.723   5.838   8.192  0.3087 -0.1662  0.2031
   87CHL1  H22A 8901   4.825   5.795   8.197 -0.1571 -1.4810 -1.0164
   87CHL1  H22B 8902   4.728   5.927   8.260  0.7300 -0.4276  0.5204
   87CHL1   C23 8903   4.617   5.747   8.252  0.4456  0.0892 -0.0867
   87CHL1  H23A 8904   4.514   5.778   8.224 -1.0450 -0.7016  3.8896
   87CHL1  H23B 8905   4.642   5.642   8.226 -2.2672 -0.4944 -0.6419
   87CHL1   C24 8906   4.610   5.754   8.404  0.3445  0.5716 -0.1995
   87CHL1  H24A 8907   4.711   5.719   8.435 -0.2571 -2.5768 -1.4465
   87CHL1  H24B 8908   4.590   5.854   8.449 -3.4149  0.4211 -1.2030
   87CHL1   C25 8909   4.497   5.673   8.469  0.5172  0.8607  0.2571
   87CHL1   H25 8910   4.489   5.579   8.412 -0.8740  1.4121 -0.5128
   87CHL1   C26 8911   4.508   5.671   8.621 -0.0669  0.3409  0.5184
   87CHL1  H26A 8912   4.499   5.776   8.657 -1.9328  0.3206  0.2169
   87CHL1  H26B 8913   4.417   5.627   8.667  1.0235 -2.5178  0.1673
   87CHL1  H26C 8914   4.594   5.614   8.661 -1.0389 -1.9703 -0.4972
   87CHL1   C27 8915   4.362   5.732   8.437  0.3695  0.0559 -0.0370
   87CHL1  H27A 8916   4.335   5.833   8.475  1.3364  0.4438 -0.3425
   87CHL1  H27B 8917   4.348   5.733   8.327  0.1384  1.7616 -0.0218
   87CHL1  H27C 8918   4.291   5.659   8.481  1.0398 -1.1703 -0.9192
   88CHL1    C3 8919   0.595   5.242   6.925 -0.1069  0.3633 -0.2307
   88CHL1    H3 8920   0.569   5.138   6.953 -0.9974 -0.3000 -3.1706
   88CHL1    O3 8921   0.595   5.245   6.781  0.0196  0.8890 -0.2445
   88CHL1   H3' 8922   0.646   5.324   6.764  1.6615 -0.2453 -0.9267
   88CHL1    C4 8923   0.496   5.337   6.976  0.2647 -0.2620 -0.3644
   88CHL1   H4A 8924   0.516   5.441   6.944 -1.4106  0.8052  1.7605
   88CHL1   H4B 8925   0.396   5.310   6.936  0.2515 -0.2453 -0.3429
   88CHL1    C5 8926   0.482   5.325   7.122  0.8665  0.1985  0.3142
   88CHL1    C6 8927   0.367   5.290   7.182 -0.3240 -0.3429 -0.1899
   88CHL1    H6 8928   0.281   5.256   7.122 -1.5324 -1.9062  2.2318
   88CHL1    C7 8929   0.354   5.278   7.333  0.1130 -0.1539 -0.0400
   88CHL1   H7A 8930   0.277   5.346   7.376 -0.8519 -1.6971  0.7738
   88CHL1   H7B 8931   0.339   5.174   7.367 -0.9066  0.9947  3.3934
   88CHL1    C8 8932   0.476   5.342   7.408 -0.1677  0.0756 -0.1992
   88CHL1    H8 8933   0.463   5.452   7.415  0.5424  0.1501  0.0775
   88CHL1   C14 8934   0.474   5.276   7.549 -0.5922  0.1676  0.2237
   88CHL1   H14 8935   0.512   5.173   7.533 -0.4445  0.3682 -0.7499
   88CHL1   C15 8936   0.345   5.272   7.628  0.1729  0.0966  0.2686
   88CHL1  H15A 8937   0.298   5.372   7.612  1.9898  0.7087 -1.7281
   88CHL1  H15B 8938   0.274   5.192   7.598 -0.0548 -1.5310  4.5152
   88CHL1   C16 8939   0.391   5.279   7.776  0.6084  0.6738  0.0692
   88CHL1  H16A 8940   0.371   5.381   7.814 -1.0256  0.1911  0.6208
   88CHL1  H16B 8941   0.340   5.209   7.845  2.3714  0.5793  1.3334
   88CHL1   C17 8942   0.545   5.268   7.778  0.4522  0.2595 -0.6258
   88CHL1   H17 8943   0.560   5.158   7.776  1.1033  0.3330 -0.0942
   88CHL1   C13 8944   0.581   5.334   7.641 -0.9159  0.2276  0.0407
   88CHL1   C18 8945   0.562   5.479   7.657  0.0683  0.5395  0.2849
   88CHL1  H18A 8946   0.562   5.538   7.562 -1.2544  0.1840  0.0458
   88CHL1  H18B 8947   0.466   5.503   7.707  0.3761  1.6492  0.3721
   88CHL1  H18C 8948   0.642   5.528   7.717 -0.4955  0.8659  0.7859
   88CHL1   C12 8949   0.721   5.303   7.568  0.0115 -0.4554  0.4760
   88CHL1  H12A 8950   0.809   5.348   7.618  2.0337  0.8951 -3.8483
   88CHL1  H12B 8951   0.742   5.193   7.571 -3.2434 -1.3710 -2.7252
   88CHL1   C11 8952   0.736   5.355   7.420  0.5780  0.3846  0.1530
   88CHL1  H11A 8953   0.749   5.464   7.434 -1.5629  0.7694 -0.3828
   88CHL1  H11B 8954   0.832   5.318   7.378  0.1973 -0.0490 -0.3498
   88CHL1    C9 8955   0.612   5.313   7.340  0.4031 -0.2859 -0.6052
   88CHL1    H9 8956   0.613   5.202   7.340 -2.4583 -0.3894 -1.4818
   88CHL1   C10 8957   0.608   5.352   7.192  0.6155  0.3544  0.6161
   88CHL1   C19 8958   0.633   5.504   7.178 -0.5941 -0.0237 -0.1691
   88CHL1  H19A 8959   0.647   5.519   7.069 -1.0601 -2.9249 -0.7209
   88CHL1  H19B 8960   0.549   5.572   7.205 -1.7997 -1.5099 -0.0400
   88CHL1  H19C 8961   0.732   5.528   7.222  0.0803 -0.8751 -1.1862
   88CHL1    C1 8962   0.727   5.270   7.123  0.4546 -0.6089 -0.1086
   88CHL1   H1A 8963   0.826   5.293   7.167  0.0577 -0.0652  0.5355
   88CHL1   H1B 8964   0.699   5.165   7.144 -0.5578  0.0666  2.3527
   88CHL1    C2 8965   0.730   5.279   6.977  0.4030  0.0377 -0.5293
   88CHL1   H2A 8966   0.809   5.213   6.933  0.1781  0.5426 -1.7410
   88CHL1   H2B 8967   0.761   5.384   6.957 -0.6637  0.2117 -1.3695
   88CHL1   C20 8968   0.615   5.313   7.910 -0.1110 -0.5284 -0.0375
   88CHL1   H20 8969   0.610   5.424   7.916  0.5979 -0.4605 -0.6475
   88CHL1   C21 8970   0.762   5.259   7.909 -0.0335  0.0518  0.2554
   88CHL1  H21A 8971   0.813   5.330   7.841 -0.6214  1.1209  0.8981
   88CHL1  H21B 8972   0.773   5.151   7.887 -2.0355 -0.2475  0.5189
   88CHL1  H21C 8973   0.807   5.269   8.010 -0.3649 -1.8495  0.6342
   88CHL1   C22 8974   0.551   5.249   8.036  0.1029  0.1566 -0.9143
   88CHL1  H22A 8975   0.440   5.245   8.030 -0.0744  0.6588  1.2523
   88CHL1  H22B 8976   0.595   5.148   8.047  1.8342  1.1061  2.2394
   88CHL1   C23 8977   0.580   5.329   8.163 -0.1566  0.1178 -0.0246
   88CHL1  H23A 8978   0.690   5.346   8.170  0.0499 -0.4139 -1.6929
   88CHL1  H23B 8979   0.524   5.425   8.159  1.5119  1.2876  2.1637
   88CHL1   C24 8980   0.546   5.253   8.293  0.6900 -0.1424  0.6932
   88CHL1  H24A 8981   0.607   5.160   8.301  3.2168  1.4414  1.0547
   88CHL1  H24B 8982   0.590   5.331   8.359  1.1956  1.9934 -2.0113
   88CHL1   C25 8983   0.397   5.230   8.319 -0.4075 -0.4249  0.2963
   88CHL1   H25 8984   0.358   5.147   8.256  0.8277 -1.7686  1.2265
   88CHL1   C26 8985   0.382   5.184   8.467 -0.3669  0.4531  0.3995
   88CHL1  H26A 8986   0.436   5.087   8.479  0.9631  1.4447  3.7928
   88CHL1  H26B 8987   0.426   5.255   8.540  1.4978  0.4273 -0.6468
   88CHL1  H26C 8988   0.274   5.175   8.493 -0.5805 -0.5058 -0.7310
   88CHL1   C27 8989   0.318   5.352   8.278  0.7711 -0.6221  1.1019
   88CHL1  H27A 8990   0.215   5.348   8.319 -0.6905  1.4923 -1.9616
   88CHL1  H27B 8991   0.370   5.442   8.318 -0.2539 -0.1359  1.3596
   88CHL1  H27C 8992   0.312   5.364   8.167 -0.4548 -0.7003  1.1504
   89CHL1    C3 8993   4.038   5.715   6.902 -0.2740 -0.6576  0.5506
   89CHL1    H3 8994   3.930   5.738   6.911 -0.5203  0.8413 -3.8312
   89CHL1    O3 8995   4.065   5.695   6.764  0.0115 -0.2263 -0.3247
   89CHL1   H3' 8996   4.159   5.709   6.752 -0.5510  1.3663 -4.6062
   89CHL1    C4 8997   4.119   5.832   6.958  0.0016  0.7700  0.1683
   89CHL1   H4A 8998   4.229   5.814   6.949  0.2523  2.7523 -1.2625
   89CHL1   H4B 8999   4.085   5.918   6.898  1.4184  2.9965  2.3777
   89CHL1    C5 9000   4.076   5.853   7.099 -1.0023 -0.2763 -0.4806
   89CHL1    C6 9001   4.020   5.964   7.146  0.4497  0.4469  0.0969
   89CHL1    H6 9002   4.023   6.048   7.075  0.8542 -0.3283 -0.8157
   89CHL1    C7 9003   4.001   5.991   7.294 -0.7453 -0.6792  0.5580
   89CHL1   H7A 9004   4.028   6.097   7.319 -0.0705 -0.4359 -1.1016
   89CHL1   H7B 9005   3.891   5.998   7.309 -0.8211 -0.3834 -0.1260
   89CHL1    C8 9006   4.067   5.889   7.391 -0.4654  0.3109 -0.2487
   89CHL1    H8 9007   4.176   5.910   7.394 -0.4244  0.5705 -2.2476
   89CHL1   C14 9008   4.008   5.895   7.538 -0.1238 -0.0904  0.5188
   89CHL1   H14 9009   3.906   5.856   7.520  0.7548 -1.8176 -1.1008
   89CHL1   C15 9010   3.996   6.039   7.600  0.1126  0.4443  0.3291
   89CHL1  H15A 9011   4.097   6.084   7.607  0.3145 -0.0269  0.5197
   89CHL1  H15B 9012   3.927   6.105   7.543 -0.3379  0.1790  0.5615
   89CHL1   C16 9013   3.949   5.997   7.741 -0.2966 -0.2372 -0.6020
   89CHL1  H16A 9014   4.007   6.054   7.817  0.5227  1.1689 -2.2087
   89CHL1  H16B 9015   3.844   6.031   7.737 -0.3875 -0.6038 -2.6307
   89CHL1   C17 9016   3.968   5.842   7.755  0.2633  0.0211 -0.0379
   89CHL1   H17 9017   3.868   5.806   7.722  0.0048  0.1396  0.5980
   89CHL1   C13 9018   4.061   5.802   7.640 -0.2762  0.5362 -0.2876
   89CHL1   C18 9019   4.208   5.832   7.676  1.2037  0.1848 -0.2044
   89CHL1  H18A 9020   4.245   5.744   7.734 -0.0090 -1.2038 -1.4507
   89CHL1  H18B 9021   4.274   5.843   7.587  0.8569  1.5120 -0.3192
   89CHL1  H18C 9022   4.218   5.923   7.738  1.1429  0.0062  0.0704
   89CHL1   C12 9023   4.042   5.656   7.585 -0.1262  0.4004 -0.2586
   89CHL1  H12A 9024   4.086   5.573   7.645 -0.5884 -1.3206 -2.1844
   89CHL1  H12B 9025   3.933   5.640   7.580  0.0981 -1.7879  0.6995
   89CHL1   C11 9026   4.104   5.641   7.444  0.4810  0.5294  0.8562
   89CHL1  H11A 9027   4.214   5.632   7.457  0.9323  1.3327 -1.8950
   89CHL1  H11B 9028   4.064   5.541   7.418  1.0606  0.5058  0.0297
   89CHL1    C9 9029   4.050   5.742   7.339  0.3677 -0.2510 -0.6700
   89CHL1    H9 9030   3.943   5.713   7.339 -0.0097  1.0494 -0.3489
   89CHL1   C10 9031   4.099   5.722   7.197 -0.1659 -0.0291  0.8954
   89CHL1   C19 9032   4.253   5.706   7.217  0.0973 -0.5382  0.6012
   89CHL1  H19A 9033   4.314   5.707   7.124  0.1927  0.9760  0.6613
   89CHL1  H19B 9034   4.300   5.783   7.282  0.9579 -1.0136  0.5487
   89CHL1  H19C 9035   4.280   5.614   7.273  2.2119  0.0199  0.5828
   89CHL1    C1 9036   4.034   5.596   7.137 -0.6740 -0.2236  0.2653
   89CHL1   H1A 9037   4.077   5.512   7.196  0.7288  2.7035  3.7845
   89CHL1   H1B 9038   3.925   5.593   7.161 -0.7271  0.3051  0.1092
   89CHL1    C2 9039   4.061   5.580   6.981  0.1569  0.4541  0.1754
   89CHL1   H2A 9040   3.986   5.505   6.947  1.1848 -1.1636  1.3584
   89CHL1   H2B 9041   4.169   5.557   6.968  0.4293  2.1790 -0.9186
   89CHL1   C20 9042   4.000   5.792   7.903 -0.0418 -0.1256  0.3078
   89CHL1   H20 9043   4.087   5.844   7.950 -1.4542  1.1118  1.6768
   89CHL1   C21 9044   4.021   5.640   7.913  0.2050 -0.7164  0.2715
   89CHL1  H21A 9045   4.129   5.620   7.893  0.5938  0.6868  0.8946
   89CHL1  H21B 9046   3.970   5.581   7.834  1.1922  0.6381 -1.4507
   89CHL1  H21C 9047   4.001   5.606   8.017  0.2919  1.8214  1.1852
   89CHL1   C22 9048   3.888   5.837   8.001  0.3657  0.6144  0.4573
   89CHL1  H22A 9049   3.841   5.929   7.959 -3.1031 -0.4036  1.7720
   89CHL1  H22B 9050   3.818   5.751   8.010  1.8690 -0.5897  1.1375
   89CHL1   C23 9051   3.943   5.862   8.146  0.1608  0.2201  0.2968
   89CHL1  H23A 9052   3.969   5.758   8.173 -1.5020 -0.0757  0.8489
   89CHL1  H23B 9053   4.030   5.931   8.137 -0.2025  0.7349  0.7272
   89CHL1   C24 9054   3.833   5.914   8.236  0.0496 -0.4186 -0.4020
   89CHL1  H24A 9055   3.794   6.011   8.200  0.9825  0.0887 -0.1020
   89CHL1  H24B 9056   3.749   5.841   8.242  1.3273 -1.8314  1.6365
   89CHL1   C25 9057   3.883   5.932   8.382  0.3251 -0.0740  0.7118
   89CHL1   H25 9058   3.978   5.988   8.374 -1.2377  2.7748  0.8498
   89CHL1   C26 9059   3.776   6.020   8.449 -0.0444  0.1923 -0.3704
   89CHL1  H26A 9060   3.752   6.108   8.385 -1.7900  0.3379  0.4341
   89CHL1  H26B 9061   3.684   5.966   8.480  0.2837  1.0487  2.4327
   89CHL1  H26C 9062   3.802   6.064   8.548 -0.3530 -1.9394  0.7184
   89CHL1   C27 9063   3.922   5.805   8.454  0.5473  0.4061 -0.2716
   89CHL1  H27A 9064   3.830   5.744   8.469  0.4965  0.6973  0.6826
   89CHL1  H27B 9065   3.998   5.747   8.398 -1.8778 -1.7638 -1.5279
   89CHL1  H27C 9066   3.954   5.828   8.558  0.2127 -0.4283  0.0299
   90CHL1    C3 9067   5.789   2.693   7.000 -0.0272  0.0297 -0.2678
   90CHL1    H3 9068   5.688   2.726   7.034  0.7551  0.6626  1.6060
   90CHL1    O3 9069   5.824   2.721   6.866 -0.0566 -0.1893  0.5605
   90CHL1   H3' 9070   5.760   2.780   6.825 -2.1871 -2.0792  0.9382
   90CHL1    C4 9071   5.876   2.770   7.100  0.1337 -0.0888 -0.0376
   90CHL1   H4A 9072   5.978   2.744   7.066  0.1392 -0.6317  0.3795
   90CHL1   H4B 9073   5.846   2.875   7.082 -0.4805 -0.3629 -0.6607
   90CHL1    C5 9074   5.849   2.726   7.241 -0.4177  0.3093 -0.1927
   90CHL1    C6 9075   5.813   2.812   7.338 -0.6888  0.0113  0.2489
   90CHL1    H6 9076   5.809   2.919   7.317  0.9734  0.1162  0.2988
   90CHL1    C7 9077   5.810   2.771   7.485  0.2261 -0.1932 -0.1000
   90CHL1   H7A 9078   5.845   2.861   7.540  1.9779  0.4113 -2.0446
   90CHL1   H7B 9079   5.704   2.762   7.515 -0.3743  3.7033 -0.4897
   90CHL1    C8 9080   5.877   2.637   7.523 -0.6272 -0.3413 -0.2222
   90CHL1    H8 9081   5.985   2.657   7.542 -0.6952 -0.9754  0.8943
   90CHL1   C14 9082   5.818   2.579   7.661 -0.8443  0.2750  0.1572
   90CHL1   H14 9083   5.713   2.552   7.635 -1.6205  2.9327  0.2534
   90CHL1   C15 9084   5.800   2.676   7.778 -0.1467 -0.3369 -0.5094
   90CHL1  H15A 9085   5.891   2.735   7.796  0.0504 -0.2832 -1.6462
   90CHL1  H15B 9086   5.711   2.742   7.768 -0.5767 -0.6209  1.1211
   90CHL1   C16 9087   5.773   2.568   7.894 -0.0900 -0.1097  0.2940
   90CHL1  H16A 9088   5.832   2.604   7.981  3.2278 -3.4247 -0.3073
   90CHL1  H16B 9089   5.665   2.559   7.919 -0.5205 -2.3253 -1.9228
   90CHL1   C17 9090   5.812   2.426   7.838  0.2918  0.1503 -0.0291
   90CHL1   H17 9091   5.721   2.369   7.811  0.8676 -0.5700 -0.4911
   90CHL1   C13 9092   5.882   2.449   7.705 -0.4894  0.6353  0.4897
   90CHL1   C18 9093   6.035   2.468   7.733 -0.4141 -0.6893  0.2252
   90CHL1  H18A 9094   6.082   2.368   7.747 -0.4277 -0.8045 -0.5336
   90CHL1  H18B 9095   6.087   2.514   7.647  0.6585 -2.3065 -0.0445
   90CHL1  H18C 9096   6.054   2.530   7.823 -1.4037 -0.3238  0.1889
   90CHL1   C12 9097   5.866   2.333   7.593  0.1226  0.0508  0.0112
   90CHL1  H12A 9098   5.924   2.247   7.632  0.7766  0.8732  0.8915
   90CHL1  H12B 9099   5.762   2.309   7.563  0.4144 -0.7308 -0.4008
   90CHL1   C11 9100   5.923   2.391   7.457  0.6378  0.2807 -0.9018
   90CHL1  H11A 9101   6.034   2.396   7.460  0.8009 -2.3871  1.4155
   90CHL1  H11B 9102   5.889   2.322   7.376  0.3211  2.0682 -2.3749
   90CHL1    C9 9103   5.859   2.531   7.417 -0.3620 -0.6818 -0.3487
   90CHL1    H9 9104   5.751   2.510   7.401 -0.2297 -1.3307 -0.4032
   90CHL1   C10 9105   5.882   2.579   7.266 -0.0803 -0.0491 -0.6607
   90CHL1   C19 9106   6.038   2.553   7.244  0.1385 -0.2691  0.6452
   90CHL1  H19A 9107   6.096   2.615   7.316 -0.4060  1.0244  0.0082
   90CHL1  H19B 9108   6.072   2.448   7.235  2.4282  0.5760 -2.3333
   90CHL1  H19C 9109   6.058   2.594   7.143 -1.3099  2.2549  1.2984
   90CHL1    C1 9110   5.799   2.494   7.162 -0.0665  0.1851  0.4610
   90CHL1   H1A 9111   5.841   2.391   7.166 -1.7937 -0.5259  1.0874
   90CHL1   H1B 9112   5.691   2.488   7.186  0.2217 -0.7891  1.5986
   90CHL1    C2 9113   5.813   2.540   7.018  0.5637  0.1314  0.2021
   90CHL1   H2A 9114   5.737   2.482   6.961 -2.7934  2.1034  2.2825
   90CHL1   H2B 9115   5.914   2.521   6.977  0.9166  0.0509  1.0935
   90CHL1   C20 9116   5.864   2.332   7.949  0.3342  0.0630 -0.2225
   90CHL1   H20 9117   5.955   2.381   7.989 -1.6864  1.6609  2.7759
   90CHL1   C21 9118   5.888   2.189   7.896  0.4115  0.0235  0.0596
   90CHL1  H21A 9119   5.801   2.136   7.852  2.2210 -2.2107 -1.0333
   90CHL1  H21B 9120   5.917   2.124   7.981  0.2039  0.4112  0.4302
   90CHL1  H21C 9121   5.974   2.180   7.826  0.0740  1.4971 -0.5899
   90CHL1   C22 9122   5.776   2.312   8.076 -0.1598 -0.2639  0.7343
   90CHL1  H22A 9123   5.757   2.413   8.118 -1.4567 -0.4315  0.6029
   90CHL1  H22B 9124   5.674   2.277   8.050  0.0888  0.9395 -2.2196
   90CHL1   C23 9125   5.834   2.226   8.186 -0.8304  1.3070 -0.3309
   90CHL1  H23A 9126   5.850   2.121   8.154  0.1900  1.6865 -1.1468
   90CHL1  H23B 9127   5.935   2.259   8.222 -1.4208 -0.4976  3.5478
   90CHL1   C24 9128   5.738   2.222   8.311  0.0557  0.5769 -0.6078
   90CHL1  H24A 9129   5.679   2.316   8.314 -1.0400 -0.1131 -0.0255
   90CHL1  H24B 9130   5.663   2.142   8.293  1.4744 -0.7288 -0.9650
   90CHL1   C25 9131   5.807   2.217   8.457  0.1943  0.0964  0.0126
   90CHL1   H25 9132   5.899   2.279   8.461  1.8794 -2.2937  0.0737
   90CHL1   C26 9133   5.720   2.277   8.567  0.1473  0.1838  0.4810
   90CHL1  H26A 9134   5.699   2.386   8.556 -0.6899  0.1351  1.4472
   90CHL1  H26B 9135   5.620   2.231   8.552  0.8183 -0.3873 -3.0166
   90CHL1  H26C 9136   5.763   2.258   8.668  1.0340 -0.6584 -0.0449
   90CHL1   C27 9137   5.863   2.076   8.483  0.4826  0.2052  0.9108
   90CHL1  H27A 9138   5.913   2.033   8.394  0.2096 -1.1458  1.3886
   90CHL1  H27B 9139   5.934   2.073   8.568  0.2222 -2.2084  1.1051
   90CHL1  H27C 9140   5.785   2.002   8.511  1.3752 -1.0881  0.1108
   91CHL1    C3 9141   4.627   3.713   7.175 -0.6879 -0.3977 -0.3347
   91CHL1    H3 9142   4.521   3.680   7.184 -0.7037 -0.3115 -0.1963
   91CHL1    O3 9143   4.667   3.657   7.049  0.3866 -0.1895 -0.3135
   91CHL1   H3' 9144   4.751   3.698   7.027 -0.8392  1.9968 -1.3527
   91CHL1    C4 9145   4.631   3.869   7.154 -0.2211  0.1747 -0.0579
   91CHL1   H4A 9146   4.734   3.907   7.135 -0.5573  1.5940  0.8045
   91CHL1   H4B 9147   4.566   3.885   7.065  3.9162  0.0335 -3.4395
   91CHL1    C5 9148   4.575   3.932   7.286  0.2775 -0.1242 -0.4081
   91CHL1    C6 9149   4.466   4.010   7.302  0.0478 -0.3562  0.3029
   91CHL1    H6 9150   4.419   4.049   7.210  0.4207 -0.1569  0.1954
   91CHL1    C7 9151   4.423   4.083   7.420 -0.2358  0.0592  0.0292
   91CHL1   H7A 9152   4.431   4.191   7.395  0.5812 -0.0504 -0.2040
   91CHL1   H7B 9153   4.318   4.048   7.436 -0.1486 -0.8557 -1.2569
   91CHL1    C8 9154   4.512   4.059   7.540  0.8889 -0.2358 -0.4117
   91CHL1    H8 9155   4.579   4.147   7.532 -0.6897  1.1211  0.6024
   91CHL1   C14 9156   4.442   4.070   7.679 -0.2895  0.0013 -0.5597
   91CHL1   H14 9157   4.370   3.986   7.694 -0.3946  0.2005  0.0687
   91CHL1   C15 9158   4.355   4.201   7.682 -0.2887 -0.9893 -0.0631
   91CHL1  H15A 9159   4.412   4.286   7.638 -0.0802  0.6728  3.1228
   91CHL1  H15B 9160   4.260   4.182   7.626 -0.2853  0.2588 -0.5233
   91CHL1   C16 9161   4.342   4.220   7.838 -0.0983  0.7293 -0.2798
   91CHL1  H16A 9162   4.383   4.321   7.861  2.0871 -0.7875  3.3409
   91CHL1  H16B 9163   4.236   4.210   7.869 -0.1649  1.0961 -0.3884
   91CHL1   C17 9164   4.443   4.116   7.908  0.6580 -0.5061  0.0351
   91CHL1   H17 9165   4.381   4.029   7.939 -1.0103  0.7162  0.2617
   91CHL1   C13 9166   4.534   4.081   7.798 -0.6183  0.2188  0.8196
   91CHL1   C18 9167   4.646   4.198   7.783  0.5708 -0.4496 -0.1952
   91CHL1  H18A 9168   4.709   4.180   7.694  1.3392  0.5765  0.1234
   91CHL1  H18B 9169   4.597   4.297   7.780 -0.3137 -0.8734 -0.0300
   91CHL1  H18C 9170   4.712   4.184   7.872  0.8439 -2.4457 -0.6515
   91CHL1   C12 9171   4.598   3.941   7.810 -0.5237  0.3196 -0.6800
   91CHL1  H12A 9172   4.675   3.946   7.891 -0.0685  1.4244 -1.1568
   91CHL1  H12B 9173   4.517   3.871   7.837 -0.4989  0.2751 -0.7207
   91CHL1   C11 9174   4.665   3.910   7.677  0.6008 -0.6671 -0.2622
   91CHL1  H11A 9175   4.754   3.976   7.669 -0.7504  1.5684  1.7821
   91CHL1  H11B 9176   4.706   3.807   7.677  0.0777 -0.8862 -1.1668
   91CHL1    C9 9177   4.581   3.925   7.545 -0.2155 -0.4178  0.3172
   91CHL1    H9 9178   4.496   3.854   7.549 -0.1751 -0.4560  0.5285
   91CHL1   C10 9179   4.647   3.880   7.414 -0.3475  0.3188 -0.3150
   91CHL1   C19 9180   4.789   3.949   7.404 -0.5916 -0.3574  0.1711
   91CHL1  H19A 9181   4.828   3.950   7.300 -2.8190 -1.6523 -0.7618
   91CHL1  H19B 9182   4.780   4.055   7.434  0.1796  0.1427 -1.2633
   91CHL1  H19C 9183   4.856   3.892   7.473  0.6362 -0.8191 -1.3309
   91CHL1    C1 9184   4.666   3.722   7.413  0.2611 -0.1899 -0.5886
   91CHL1   H1A 9185   4.739   3.694   7.492  1.2952  4.2371  0.3191
   91CHL1   H1B 9186   4.567   3.683   7.446 -0.4751  2.0814  0.0642
   91CHL1    C2 9187   4.718   3.663   7.285  0.7847 -0.8118  0.4871
   91CHL1   H2A 9188   4.712   3.553   7.298 -0.2429 -0.9376 -0.8728
   91CHL1   H2B 9189   4.820   3.703   7.264 -0.6326  2.1831 -1.3250
   91CHL1   C20 9190   4.497   4.173   8.043 -0.6533 -0.2429 -0.3848
   91CHL1   H20 9191   4.559   4.264   8.026 -0.6130  0.0665  1.2017
   91CHL1   C21 9192   4.588   4.072   8.106  0.1871 -0.4663 -0.4539
   91CHL1  H21A 9193   4.554   3.967   8.093  3.1679 -1.3030 -2.7804
   91CHL1  H21B 9194   4.572   4.087   8.215  0.0228  2.3929 -0.8047
   91CHL1  H21C 9195   4.697   4.079   8.084  0.1051  1.2305 -0.4322
   91CHL1   C22 9196   4.388   4.215   8.145 -0.2661  0.3122 -0.2855
   91CHL1  H22A 9197   4.318   4.284   8.093  0.1302 -0.2959 -1.6725
   91CHL1  H22B 9198   4.329   4.123   8.166  0.0776  0.4801  1.5926
   91CHL1   C23 9199   4.434   4.286   8.269  0.2117 -0.3993 -0.2244
   91CHL1  H23A 9200   4.500   4.221   8.329  0.6319  0.0586 -0.1888
   91CHL1  H23B 9201   4.485   4.380   8.240  0.1372  0.0140  0.9417
   91CHL1   C24 9202   4.299   4.339   8.334  0.1285 -0.5277 -0.3492
   91CHL1  H24A 9203   4.246   4.408   8.264  2.3594  2.7156  0.9409
   91CHL1  H24B 9204   4.225   4.257   8.342 -1.1430  0.6773  0.8392
   91CHL1   C25 9205   4.328   4.411   8.472  0.1241  0.6162 -0.4513
   91CHL1   H25 9206   4.420   4.474   8.459 -0.7564  1.8066 -1.1753
   91CHL1   C26 9207   4.214   4.494   8.515 -0.1443 -0.8002 -0.8450
   91CHL1  H26A 9208   4.189   4.582   8.453  1.2059  0.1047 -0.1540
   91CHL1  H26B 9209   4.125   4.426   8.516  0.4677 -1.7017  1.9341
   91CHL1  H26C 9210   4.232   4.536   8.616 -2.3039  1.0638 -1.1531
   91CHL1   C27 9211   4.337   4.308   8.585  0.3079 -0.4593 -0.0747
   91CHL1  H27A 9212   4.244   4.251   8.603 -0.1995  0.1869 -0.6225
   91CHL1  H27B 9213   4.433   4.258   8.563  2.1938  2.8029 -0.0080
   91CHL1  H27C 9214   4.371   4.357   8.679 -2.9748 -1.1315  1.6097
   92CHL1    C3 9215   1.892   5.634   7.009 -0.0341  0.3516 -0.2919
   92CHL1    H3 9216   1.956   5.721   6.984 -0.9693  1.7542  1.8655
   92CHL1    O3 9217   1.859   5.556   6.895 -0.0337  0.6500  0.3058
   92CHL1   H3' 9218   1.939   5.512   6.867 -0.4984 -0.0544  0.0655
   92CHL1    C4 9219   1.979   5.542   7.100 -0.0614 -0.0590 -0.4363
   92CHL1   H4A 9220   1.942   5.437   7.101  3.5437 -1.4972  2.2138
   92CHL1   H4B 9221   2.077   5.533   7.048 -0.0002 -1.6977 -0.0730
   92CHL1    C5 9222   1.997   5.577   7.238 -0.0402 -0.4377  0.4850
   92CHL1    C6 9223   2.123   5.572   7.290  0.9395  0.0105  0.2196
   92CHL1    H6 9224   2.200   5.527   7.226 -0.4976 -0.1039 -1.5176
   92CHL1    C7 9225   2.149   5.592   7.436 -0.7991 -0.2782  0.1580
   92CHL1   H7A 9226   2.211   5.513   7.482  0.2108  1.5681  2.1690
   92CHL1   H7B 9227   2.195   5.693   7.448 -2.0517  0.4056 -0.5125
   92CHL1    C8 9228   2.025   5.609   7.529 -0.5604  0.0825  0.0220
   92CHL1    H8 9229   1.990   5.504   7.544  0.4605 -0.0946  1.3834
   92CHL1   C14 9230   2.051   5.665   7.667  0.5932 -0.6037 -0.1474
   92CHL1   H14 9231   2.074   5.773   7.656 -0.4602 -0.0765  2.1913
   92CHL1   C15 9232   2.163   5.606   7.745  1.4754 -0.0298  0.0026
   92CHL1  H15A 9233   2.140   5.497   7.742 -1.7963  0.4776  1.4633
   92CHL1  H15B 9234   2.263   5.625   7.700  0.9373  2.9782 -0.1210
   92CHL1   C16 9235   2.140   5.673   7.884  0.0693 -0.1788 -0.6611
   92CHL1  H16A 9236   2.138   5.584   7.951 -0.3055 -0.4993 -1.0946
   92CHL1  H16B 9237   2.225   5.740   7.906 -0.5625  0.3565  0.2352
   92CHL1   C17 9238   1.997   5.742   7.880  0.7558 -0.8574 -0.2446
   92CHL1   H17 9239   2.010   5.849   7.850 -0.4100 -0.9459 -1.1364
   92CHL1   C13 9240   1.935   5.675   7.759  0.0398 -0.1399 -0.4382
   92CHL1   C18 9241   1.889   5.533   7.793 -0.3031 -0.3083  0.2140
   92CHL1  H18A 9242   1.966   5.468   7.841 -0.7300 -1.7892 -1.0277
   92CHL1  H18B 9243   1.799   5.529   7.858  0.8662  1.8149  2.1096
   92CHL1  H18C 9244   1.866   5.486   7.695 -1.2964  0.4065  0.0953
   92CHL1   C12 9245   1.826   5.759   7.691  0.3154 -0.4340  0.4836
   92CHL1  H12A 9246   1.733   5.765   7.752  1.9620  0.0417  3.1317
   92CHL1  H12B 9247   1.855   5.864   7.665 -2.4820 -0.0443 -1.4511
   92CHL1   C11 9248   1.787   5.700   7.552  0.1667 -0.5959 -0.2625
   92CHL1  H11A 9249   1.740   5.599   7.556  1.2326 -1.1389 -1.0289
   92CHL1  H11B 9250   1.716   5.772   7.506 -0.8612 -0.4932  1.3824
   92CHL1    C9 9251   1.914   5.680   7.456 -0.5758 -0.2047  0.4085
   92CHL1    H9 9252   1.961   5.779   7.434 -0.9448 -0.3590 -1.1889
   92CHL1   C10 9253   1.871   5.621   7.319  0.1804  0.2914 -0.2969
   92CHL1   C19 9254   1.781   5.499   7.331  0.1202  0.4498  0.1426
   92CHL1  H19A 9255   1.679   5.527   7.365 -0.2877 -1.7494  0.8353
   92CHL1  H19B 9256   1.759   5.444   7.237 -2.5974 -2.1168  2.0847
   92CHL1  H19C 9257   1.831   5.431   7.403 -1.3938  0.4472  1.2491
   92CHL1    C1 9258   1.789   5.724   7.228  0.4733 -0.2780 -0.6503
   92CHL1   H1A 9259   1.693   5.741   7.282  0.8188  0.7073 -0.3305
   92CHL1   H1B 9260   1.830   5.827   7.231 -2.0569  0.8373 -1.0763
   92CHL1    C2 9261   1.766   5.682   7.083 -0.2653  0.3760 -0.4001
   92CHL1   H2A 9262   1.733   5.771   7.024  0.7129  2.6066  2.2068
   92CHL1   H2B 9263   1.697   5.596   7.070 -1.1698  1.4016 -3.2942
   92CHL1   C20 9264   1.908   5.725   8.005  0.1121  0.0698 -0.2926
   92CHL1   H20 9265   1.902   5.617   8.033 -0.0188  0.5139  1.5578
   92CHL1   C21 9266   1.774   5.798   8.001  0.8066  0.0825 -0.2154
   92CHL1  H21A 9267   1.778   5.879   7.924 -1.0913  0.4316  0.0113
   92CHL1  H21B 9268   1.740   5.846   8.095 -2.0172  0.0468 -1.1363
   92CHL1  H21C 9269   1.699   5.719   7.985 -0.0162  0.5008  1.3772
   92CHL1   C22 9270   1.996   5.770   8.126 -0.4215 -0.7378 -0.5281
   92CHL1  H22A 9271   2.104   5.748   8.112 -0.0760  1.4248 -1.5343
   92CHL1  H22B 9272   1.983   5.880   8.125 -1.3261 -0.8374 -1.7189
   92CHL1   C23 9273   1.949   5.713   8.263 -0.0946 -0.0347 -0.2463
   92CHL1  H23A 9274   1.841   5.737   8.273  0.1117  1.1850 -0.7121
   92CHL1  H23B 9275   1.960   5.604   8.248  3.1154  0.3299 -1.3351
   92CHL1   C24 9276   2.034   5.740   8.387  0.3872  0.4654  0.1930
   92CHL1  H24A 9277   2.010   5.663   8.463 -0.9386 -0.0521 -0.7206
   92CHL1  H24B 9278   2.143   5.725   8.370  0.4265 -1.4415  1.8253
   92CHL1   C25 9279   2.011   5.877   8.448  0.0010  0.0568  0.3626
   92CHL1   H25 9280   2.013   5.956   8.370  0.0728  0.0991  0.4075
   92CHL1   C26 9281   1.879   5.908   8.519 -0.5857 -0.0789  0.3552
   92CHL1  H26A 9282   1.878   6.018   8.536  2.8922  0.2187 -0.5324
   92CHL1  H26B 9283   1.795   5.877   8.455  1.2286 -0.6613 -1.8597
   92CHL1  H26C 9284   1.882   5.864   8.621 -1.8936  0.8963  0.8473
   92CHL1   C27 9285   2.130   5.901   8.545 -0.1502  0.0550  0.3518
   92CHL1  H27A 9286   2.227   5.880   8.496 -0.0438 -1.2121  1.0654
   92CHL1  H27B 9287   2.131   6.005   8.584  1.7682  0.3236 -0.2767
   92CHL1  H27C 9288   2.132   5.840   8.637 -0.1367  0.0373  0.3395
   93CHL1    C3 9289   0.644   3.409   7.004 -0.1834  0.3308 -0.5941
   93CHL1    H3 9290   0.642   3.516   7.035  2.8206 -0.2243  2.0117
   93CHL1    O3 9291   0.578   3.396   6.880  0.2260 -0.2627  0.4434
   93CHL1   H3' 9292   0.623   3.449   6.813 -1.2179  0.5077  0.0433
   93CHL1    C4 9293   0.795   3.370   6.978  0.6429  0.4086  0.3769
   93CHL1   H4A 9294   0.786   3.264   6.947  0.2769 -0.5219  3.3937
   93CHL1   H4B 9295   0.835   3.430   6.893  1.1724  2.5378  2.0440
   93CHL1    C5 9296   0.880   3.382   7.099 -0.0504  0.2097 -0.2016
   93CHL1    C6 9297   0.995   3.454   7.103  0.7128  0.4862 -0.5602
   93CHL1    H6 9298   1.028   3.500   7.008 -0.4864 -0.0330 -1.2503
   93CHL1    C7 9299   1.076   3.476   7.232 -0.4156 -0.3004 -0.0937
   93CHL1   H7A 9300   1.186   3.466   7.220 -0.2152 -0.8349  1.9035
   93CHL1   H7B 9301   1.053   3.582   7.257  1.0510  0.5189 -1.9373
   93CHL1    C8 9302   1.030   3.385   7.347  0.3082  0.5873 -0.5234
   93CHL1    H8 9303   1.076   3.288   7.321 -0.5130 -0.8773  3.0538
   93CHL1   C14 9304   1.089   3.437   7.481  0.7866  1.0857 -0.0150
   93CHL1   H14 9305   1.032   3.528   7.509 -1.2941  0.5078 -2.0579
   93CHL1   C15 9306   1.240   3.462   7.482  0.6264  0.2381  0.3740
   93CHL1  H15A 9307   1.289   3.380   7.425  1.2257  1.2688 -0.6430
   93CHL1  H15B 9308   1.267   3.549   7.419 -2.1868  0.2667 -0.9091
   93CHL1   C16 9309   1.274   3.445   7.627  0.1447 -0.3926  0.1414
   93CHL1  H16A 9310   1.351   3.364   7.625  0.7002 -0.1019  3.3382
   93CHL1  H16B 9311   1.322   3.540   7.658  0.8751 -1.1814  1.5481
   93CHL1   C17 9312   1.144   3.415   7.707 -0.1784 -0.3635 -0.1474
   93CHL1   H17 9313   1.094   3.512   7.723  0.1123 -0.6168  2.8544
   93CHL1   C13 9314   1.055   3.344   7.597  0.0324 -0.2877 -0.2837
   93CHL1   C18 9315   1.104   3.199   7.576  0.4493 -0.4058 -0.5290
   93CHL1  H18A 9316   1.070   3.130   7.656 -1.0351  2.5764  1.6055
   93CHL1  H18B 9317   1.069   3.162   7.477  0.7706 -1.2781 -0.3193
   93CHL1  H18C 9318   1.215   3.195   7.576  0.6235  2.1640  0.7589
   93CHL1   C12 9319   0.904   3.355   7.615  0.6565  0.1267 -0.2402
   93CHL1  H12A 9320   0.874   3.289   7.699 -0.7674 -0.2141 -1.0059
   93CHL1  H12B 9321   0.877   3.462   7.630  1.5062  0.3164  0.0032
   93CHL1   C11 9322   0.834   3.308   7.484  0.6116 -0.0745 -0.3547
   93CHL1  H11A 9323   0.842   3.200   7.460  0.3304  0.3378 -2.4884
   93CHL1  H11B 9324   0.726   3.336   7.489  0.8108  0.9480 -1.3292
   93CHL1    C9 9325   0.879   3.384   7.358  0.3887  0.6226 -0.8421
   93CHL1    H9 9326   0.849   3.490   7.365  0.2316  0.5721 -0.7409
   93CHL1   C10 9327   0.816   3.321   7.229  0.6916  0.8705  0.8789
   93CHL1   C19 9328   0.847   3.162   7.214 -0.8012 -0.5872  0.5923
   93CHL1  H19A 9329   0.808   3.117   7.120 -0.1613  1.0891 -0.5127
   93CHL1  H19B 9330   0.957   3.151   7.222 -0.5438  0.3338 -1.0663
   93CHL1  H19C 9331   0.806   3.099   7.296 -1.7643 -1.5892 -0.6084
   93CHL1    C1 9332   0.661   3.349   7.242  0.6502  0.3348 -0.2460
   93CHL1   H1A 9333   0.619   3.274   7.312 -0.7988  0.4683 -0.9358
   93CHL1   H1B 9334   0.630   3.452   7.271 -0.5300 -0.2002  0.4489
   93CHL1    C2 9335   0.583   3.313   7.114  0.6329 -0.3414  0.9627
   93CHL1   H2A 9336   0.475   3.338   7.117  0.8396  0.9188 -0.7858
   93CHL1   H2B 9337   0.602   3.208   7.084 -1.4288 -0.6133  0.4805
   93CHL1   C20 9338   1.166   3.361   7.850 -0.4353  0.5552  0.6466
   93CHL1   H20 9339   1.223   3.267   7.831 -1.1703  0.4648 -1.2785
   93CHL1   C21 9340   1.028   3.309   7.908 -0.2890  0.3144 -0.2817
   93CHL1  H21A 9341   0.939   3.372   7.887 -0.7699 -0.3897 -0.4250
   93CHL1  H21B 9342   1.030   3.331   8.017  2.9368  0.0044 -0.1891
   93CHL1  H21C 9343   1.014   3.199   7.897 -0.3334  0.2460  0.4118
   93CHL1   C22 9344   1.245   3.447   7.949 -1.0518 -0.6776 -0.2285
   93CHL1  H22A 9345   1.343   3.470   7.902  0.7804  0.6414  3.7591
   93CHL1  H22B 9346   1.193   3.545   7.957 -1.5851 -1.0682  1.4664
   93CHL1   C23 9347   1.278   3.372   8.074 -0.1287 -0.4424 -0.0414
   93CHL1  H23A 9348   1.187   3.343   8.132 -0.9051  0.4008 -0.8058
   93CHL1  H23B 9349   1.308   3.267   8.051  1.7328 -0.5800  2.5798
   93CHL1   C24 9350   1.380   3.456   8.159  0.0717  0.4826  0.4885
   93CHL1  H24A 9351   1.424   3.400   8.245 -0.4858  0.3834  0.7136
   93CHL1  H24B 9352   1.470   3.484   8.100  2.6092 -2.8948  2.3839
   93CHL1   C25 9353   1.317   3.587   8.214  0.5883 -0.3504 -0.2038
   93CHL1   H25 9354   1.261   3.624   8.125  1.0565  0.4875 -0.1592
   93CHL1   C26 9355   1.213   3.555   8.328  0.2985 -0.0379  0.0526
   93CHL1  H26A 9356   1.266   3.508   8.413  2.7268  1.5941 -0.4613
   93CHL1  H26B 9357   1.165   3.650   8.360 -1.3632 -0.7002 -0.3483
   93CHL1  H26C 9358   1.143   3.481   8.282  1.5533 -1.0499 -0.2753
   93CHL1   C27 9359   1.423   3.687   8.262 -0.6161  1.0583  0.4049
   93CHL1  H27A 9360   1.488   3.636   8.336  0.4239 -2.0651 -2.4097
   93CHL1  H27B 9361   1.482   3.732   8.179  0.4777  0.6128  0.9143
   93CHL1  H27C 9362   1.387   3.775   8.320 -0.7050  1.3923 -0.1503
   94CHL1    C3 9363   2.710   4.896   6.959  0.2378 -0.4522 -0.4395
   94CHL1    H3 9364   2.799   4.952   6.997 -0.7558  0.4803  0.6017
   94CHL1    O3 9365   2.722   4.875   6.819  0.4277 -0.2171 -0.0443
   94CHL1   H3' 9366   2.641   4.840   6.782  1.6206 -0.6068 -2.5216
   94CHL1    C4 9367   2.695   4.760   7.028 -0.4146  0.5799  0.5505
   94CHL1   H4A 9368   2.607   4.708   6.985 -0.7432  0.6154  1.1720
   94CHL1   H4B 9369   2.788   4.705   6.999 -1.1965 -2.0810  2.7033
   94CHL1    C5 9370   2.686   4.772   7.177 -0.2041 -0.0445 -0.5426
   94CHL1    C6 9371   2.767   4.702   7.260  0.4336  0.4815 -0.7835
   94CHL1    H6 9372   2.843   4.635   7.217  0.7806 -0.8878  1.7671
   94CHL1    C7 9373   2.755   4.708   7.414  0.2242 -0.2421 -0.4402
   94CHL1   H7A 9374   2.749   4.610   7.464  0.3357 -0.7804 -1.4613
   94CHL1   H7B 9375   2.843   4.764   7.453  0.9395 -1.2545 -0.5831
   94CHL1    C8 9376   2.628   4.793   7.467 -0.3920  0.1120 -0.3983
   94CHL1    H8 9377   2.542   4.722   7.470 -0.3869  0.0512 -1.4724
   94CHL1   C14 9378   2.643   4.840   7.616  0.1017 -0.0388 -0.0870
   94CHL1   H14 9379   2.727   4.912   7.608 -0.7005  0.8005 -1.1430
   94CHL1   C15 9380   2.669   4.733   7.734 -0.0646 -0.1424 -1.0396
   94CHL1  H15A 9381   2.607   4.642   7.723  0.8147 -0.7476 -1.1046
   94CHL1  H15B 9382   2.774   4.704   7.754 -0.0986  0.7342  0.6083
   94CHL1   C16 9383   2.637   4.821   7.861 -0.3878  0.2705  0.0757
   94CHL1  H16A 9384   2.556   4.768   7.916 -0.7115  0.7847  0.1012
   94CHL1  H16B 9385   2.725   4.824   7.928 -0.3897 -1.7913  0.2342
   94CHL1   C17 9386   2.576   4.956   7.815 -0.5909  0.3738 -0.5094
   94CHL1   H17 9387   2.667   5.018   7.805 -0.4528  0.1415 -0.6877
   94CHL1   C13 9388   2.526   4.924   7.671  0.8107 -0.8369  0.3205
   94CHL1   C18 9389   2.409   4.825   7.677 -0.1856 -0.4686 -0.4116
   94CHL1  H18A 9390   2.358   4.807   7.580 -2.1289  0.5577  0.3549
   94CHL1  H18B 9391   2.409   4.723   7.723  0.3128 -0.6445 -0.7904
   94CHL1  H18C 9392   2.338   4.887   7.735  0.3576 -0.0734 -0.1636
   94CHL1   C12 9393   2.496   5.040   7.572  0.5709  0.1578  0.3537
   94CHL1  H12A 9394   2.410   5.102   7.608 -0.7765 -1.1620 -0.4774
   94CHL1  H12B 9395   2.576   5.116   7.584  0.9736 -0.2231  0.0701
   94CHL1   C11 9396   2.481   4.998   7.424 -0.6373 -0.6995  0.6932
   94CHL1  H11A 9397   2.383   4.953   7.399  0.1838 -2.4889  0.5232
   94CHL1  H11B 9398   2.474   5.094   7.368 -2.3284  0.2250  2.3555
   94CHL1    C9 9399   2.588   4.908   7.370 -0.6715 -0.1502 -0.0264
   94CHL1    H9 9400   2.682   4.967   7.374  0.4966 -1.9863  1.0472
   94CHL1   C10 9401   2.575   4.870   7.223  0.1495 -0.2970  0.1106
   94CHL1   C19 9402   2.445   4.798   7.197 -0.3257  0.0665  0.1375
   94CHL1  H19A 9403   2.429   4.703   7.253 -3.8232  0.7396  0.5324
   94CHL1  H19B 9404   2.357   4.860   7.224 -1.3760 -0.4760 -1.7800
   94CHL1  H19C 9405   2.426   4.770   7.090 -0.7465 -0.1452  0.2637
   94CHL1    C1 9406   2.577   5.005   7.143 -0.1039  0.1642  0.0898
   94CHL1   H1A 9407   2.484   5.061   7.168 -0.5261 -0.7349  0.5635
   94CHL1   H1B 9408   2.653   5.076   7.182 -1.4876  1.7070  0.0820
   94CHL1    C2 9409   2.585   4.981   6.991  0.2325  0.0223  0.2207
   94CHL1   H2A 9410   2.577   5.082   6.945  0.9079  1.6123  3.2937
   94CHL1   H2B 9411   2.502   4.915   6.960  1.7068 -1.0633 -1.6765
   94CHL1   C20 9412   2.482   5.026   7.911  0.1304 -0.3039  0.2175
   94CHL1   H20 9413   2.379   4.991   7.889 -0.5994  2.2514 -0.8739
   94CHL1   C21 9414   2.480   5.183   7.884  0.1895  0.7973 -0.1622
   94CHL1  H21A 9415   2.581   5.217   7.916  0.7151  0.2111 -1.1577
   94CHL1  H21B 9416   2.408   5.236   7.949  0.4547  1.0814 -0.0945
   94CHL1  H21C 9417   2.461   5.211   7.778 -3.1951  0.2870  0.2270
   94CHL1   C22 9418   2.500   5.011   8.062 -0.4889 -0.1189 -0.1100
   94CHL1  H22A 9419   2.432   5.075   8.123 -1.3636 -1.2402  0.1263
   94CHL1  H22B 9420   2.469   4.908   8.088  0.0259 -1.1460 -3.2319
   94CHL1   C23 9421   2.637   5.035   8.118 -0.5302  0.2515  0.7376
   94CHL1  H23A 9422   2.710   4.992   8.046 -0.1489 -0.5757  1.5796
   94CHL1  H23B 9423   2.651   5.145   8.123  1.0355  0.2472 -2.0678
   94CHL1   C24 9424   2.650   4.967   8.260  0.2012 -0.7492  0.1085
   94CHL1  H24A 9425   2.548   4.977   8.304  0.2087  2.5557 -0.3436
   94CHL1  H24B 9426   2.667   4.862   8.229  0.8587 -0.1495 -1.7026
   94CHL1   C25 9427   2.755   5.025   8.355 -0.2433  0.3737 -0.3321
   94CHL1   H25 9428   2.781   4.954   8.436  1.7386 -0.4044 -1.5620
   94CHL1   C26 9429   2.900   5.041   8.284  0.8530  0.0776 -0.2675
   94CHL1  H26A 9430   2.888   5.121   8.208 -0.0046  2.7717  2.4993
   94CHL1  H26B 9431   2.979   5.072   8.356 -0.5858  3.9313 -0.0977
   94CHL1  H26C 9432   2.909   4.938   8.244  0.9406  0.8015 -2.2489
   94CHL1   C27 9433   2.716   5.153   8.432  0.4782 -0.2996  0.3324
   94CHL1  H27A 9434   2.619   5.133   8.483 -0.0652 -0.6881 -0.8268
   94CHL1  H27B 9435   2.774   5.197   8.516 -1.0315 -1.5163  2.0685
   94CHL1  H27C 9436   2.693   5.240   8.367  0.1838  0.3709  1.3075
   95CHL1    C3 9437   1.421   4.634   6.338 -0.0651  0.2825  0.9754
   95CHL1    H3 9438   1.317   4.668   6.352 -0.0665  0.8528 -0.3018
   95CHL1    O3 9439   1.464   4.644   6.199  0.1823 -0.1373 -0.1313
   95CHL1   H3' 9440   1.415   4.719   6.164  1.0577 -0.4433 -2.1082
   95CHL1    C4 9441   1.515   4.723   6.416  0.2303 -0.3022 -0.4879
   95CHL1   H4A 9442   1.622   4.693   6.406  0.5261  0.9361 -1.2558
   95CHL1   H4B 9443   1.496   4.827   6.382 -1.4309 -0.8931 -1.4612
   95CHL1    C5 9444   1.495   4.711   6.571  0.2507 -0.2154  0.1588
   95CHL1    C6 9445   1.463   4.813   6.644  0.0895  0.3667 -0.1161
   95CHL1    H6 9446   1.454   4.913   6.599  1.7216  0.2516 -0.7698
   95CHL1    C7 9447   1.461   4.811   6.793 -0.0893  0.2874 -0.8853
   95CHL1   H7A 9448   1.544   4.880   6.819  0.0504 -0.1900 -0.0450
   95CHL1   H7B 9449   1.362   4.847   6.827 -0.5600 -1.8647  0.1852
   95CHL1    C8 9450   1.500   4.678   6.856 -0.2990  0.9665 -0.3747
   95CHL1    H8 9451   1.610   4.676   6.871  0.0308 -1.1388 -2.4114
   95CHL1   C14 9452   1.427   4.661   6.988  0.0887 -0.4530  0.3752
   95CHL1   H14 9453   1.319   4.675   6.968  0.7569  1.5817 -2.3662
   95CHL1   C15 9454   1.469   4.772   7.090  0.5341 -0.2642 -0.3724
   95CHL1  H15A 9455   1.576   4.798   7.073 -0.1453  0.2871 -4.8822
   95CHL1  H15B 9456   1.403   4.861   7.086  0.6691 -0.2063 -1.3726
   95CHL1   C16 9457   1.429   4.708   7.228 -0.0345  0.3004 -0.5116
   95CHL1  H16A 9458   1.510   4.722   7.303  0.8457 -0.4952 -1.2798
   95CHL1  H16B 9459   1.337   4.757   7.265 -0.3736 -0.7747  0.0993
   95CHL1   C17 9460   1.395   4.556   7.201  0.0038 -0.4316 -0.2945
   95CHL1   H17 9461   1.288   4.542   7.178 -0.3782  1.8406 -0.0669
   95CHL1   C13 9462   1.455   4.527   7.058 -0.3439  0.5557 -0.3707
   95CHL1   C18 9463   1.602   4.506   7.090 -0.2836 -0.1220 -0.3390
   95CHL1  H18A 9464   1.637   4.579   7.166  1.7009  0.1785 -1.4855
   95CHL1  H18B 9465   1.609   4.411   7.148  1.1654  0.7560  1.0044
   95CHL1  H18C 9466   1.667   4.508   7.001  1.2507 -2.0744  0.6472
   95CHL1   C12 9467   1.395   4.410   6.969 -0.2130 -0.1971 -0.5642
   95CHL1  H12A 9468   1.425   4.307   7.002 -0.4106 -0.2642 -0.5939
   95CHL1  H12B 9469   1.284   4.411   6.972 -0.1992  1.4063  0.6723
   95CHL1   C11 9470   1.448   4.420   6.827  0.2052  0.2167 -0.7038
   95CHL1  H11A 9471   1.549   4.379   6.848  0.2377  0.5683 -0.1552
   95CHL1  H11B 9472   1.398   4.349   6.758 -1.7713  0.8435  0.0171
   95CHL1    C9 9473   1.449   4.561   6.766  0.6347  0.1236 -0.2470
   95CHL1    H9 9474   1.340   4.577   6.752  0.6802 -0.3453 -1.2196
   95CHL1   C10 9475   1.504   4.564   6.621  0.7873  0.4001 -0.1952
   95CHL1   C19 9476   1.643   4.501   6.618  0.2975  0.2526 -0.8223
   95CHL1  H19A 9477   1.712   4.551   6.689 -1.0771  0.4157  0.4451
   95CHL1  H19B 9478   1.640   4.397   6.658 -1.4872  0.9943  1.1625
   95CHL1  H19C 9479   1.690   4.511   6.518 -2.9242  0.6250 -2.4336
   95CHL1    C1 9480   1.412   4.470   6.533 -0.7888  0.2726 -0.1073
   95CHL1   H1A 9481   1.441   4.364   6.549  3.0649  1.4694  2.0687
   95CHL1   H1B 9482   1.312   4.509   6.561 -0.3120 -0.1241  2.4288
   95CHL1    C2 9483   1.435   4.488   6.381 -0.0265  0.2074  0.0074
   95CHL1   H2A 9484   1.355   4.425   6.335  0.6240 -1.8364  1.5072
   95CHL1   H2B 9485   1.534   4.450   6.348 -1.1853  1.0509 -5.3445
   95CHL1   C20 9486   1.423   4.463   7.323 -0.2732  0.1984 -0.0965
   95CHL1   H20 9487   1.534   4.467   7.336  0.1419  0.4437 -2.9904
   95CHL1   C21 9488   1.378   4.324   7.285 -0.5341  0.4094 -0.6312
   95CHL1  H21A 9489   1.386   4.251   7.368  1.5906  2.4016  1.0403
   95CHL1  H21B 9490   1.442   4.277   7.207  0.0372 -2.0555  1.2096
   95CHL1  H21C 9491   1.275   4.322   7.243 -1.3118  1.6319  1.1368
   95CHL1   C22 9492   1.342   4.520   7.442  0.2532  0.3655 -0.5786
   95CHL1  H22A 9493   1.378   4.622   7.467  5.9957 -0.7842 -2.6103
   95CHL1  H22B 9494   1.235   4.511   7.414  0.1726 -0.2610 -0.1015
   95CHL1   C23 9495   1.363   4.438   7.570 -0.4229 -0.3100 -0.8995
   95CHL1  H23A 9496   1.309   4.341   7.577 -0.6615 -0.1389 -0.3889
   95CHL1  H23B 9497   1.469   4.408   7.587 -0.2995  1.5351  2.3387
   95CHL1   C24 9498   1.324   4.527   7.691 -0.0456 -0.0456  0.3070
   95CHL1  H24A 9499   1.401   4.605   7.706 -0.5611  0.6261 -0.4387
   95CHL1  H24B 9500   1.223   4.569   7.670 -0.0487 -0.5608 -0.7679
   95CHL1   C25 9501   1.321   4.447   7.819  0.5564 -0.5279 -0.1200
   95CHL1   H25 9502   1.240   4.372   7.807 -0.2093  0.2512  0.0510
   95CHL1   C26 9503   1.450   4.372   7.846  0.6771 -0.5404  0.5286
   95CHL1  H26A 9504   1.474   4.295   7.771  1.5976  0.3600 -0.1235
   95CHL1  H26B 9505   1.532   4.443   7.873 -0.1570 -0.5204  3.3780
   95CHL1  H26C 9506   1.447   4.304   7.934  0.5836 -1.6174 -0.2978
   95CHL1   C27 9507   1.290   4.541   7.935 -0.6528  0.6411  0.2445
   95CHL1  H27A 9508   1.378   4.607   7.949  0.0042  0.0717 -1.0705
   95CHL1  H27B 9509   1.195   4.594   7.909 -1.4686 -1.4820 -1.3597
   95CHL1  H27C 9510   1.260   4.475   8.019 -2.1365  1.0762  0.0997
   96CHL1    C3 9511   2.091   4.516   6.556  0.2465 -0.0303 -0.3221
   96CHL1    H3 9512   1.993   4.467   6.541  0.0280  0.5052 -0.6726
   96CHL1    O3 9513   2.159   4.519   6.430  0.1713 -0.3443  0.1394
   96CHL1   H3' 9514   2.247   4.554   6.446  0.0698  1.1417 -2.0561
   96CHL1    C4 9515   2.078   4.656   6.624 -0.1395 -0.1734  0.1056
   96CHL1   H4A 9516   2.174   4.707   6.604 -0.3590  0.3579  0.3951
   96CHL1   H4B 9517   2.006   4.714   6.563 -1.1317 -1.4487  0.0004
   96CHL1    C5 9518   2.043   4.664   6.768  0.6484  0.2408 -0.0657
   96CHL1    C6 9519   1.942   4.733   6.828 -0.9431 -0.1688  0.6033
   96CHL1    H6 9520   1.874   4.788   6.761 -1.2305 -0.5246  0.5990
   96CHL1    C7 9521   1.908   4.737   6.975 -0.4392  0.0412 -0.4265
   96CHL1   H7A 9522   1.899   4.843   7.008 -0.5648  0.7611 -2.6320
   96CHL1   H7B 9523   1.807   4.695   6.995 -0.2070  0.4043  1.8276
   96CHL1    C8 9524   2.010   4.665   7.069 -0.1142  0.9384  0.1727
   96CHL1    H8 9525   2.092   4.739   7.081  1.4461 -1.1017  3.2510
   96CHL1   C14 9526   1.948   4.636   7.205 -0.3619 -0.2957  0.5019
   96CHL1   H14 9527   1.860   4.574   7.176  0.2377 -0.7230 -0.4345
   96CHL1   C15 9528   1.881   4.752   7.281  0.3378 -0.3697  0.2547
   96CHL1  H15A 9529   1.952   4.836   7.296  0.6723 -0.5350 -0.3655
   96CHL1  H15B 9530   1.791   4.783   7.224 -0.6280 -1.8557  0.8969
   96CHL1   C16 9531   1.848   4.690   7.416 -0.2695  0.6226  0.0881
   96CHL1  H16A 9532   1.886   4.749   7.502 -0.4811  3.1668 -1.4442
   96CHL1  H16B 9533   1.738   4.675   7.429 -0.4813  1.8097 -0.1956
   96CHL1   C17 9534   1.922   4.548   7.412  0.1216 -0.1114 -0.1447
   96CHL1   H17 9535   1.850   4.472   7.378  2.0148 -2.6416  1.1426
   96CHL1   C13 9536   2.032   4.562   7.297 -0.5413 -0.5071  0.7240
   96CHL1   C18 9537   2.153   4.648   7.339 -0.2716 -0.2869 -0.0921
   96CHL1  H18A 9538   2.210   4.685   7.251  0.8748 -3.3708 -0.7897
   96CHL1  H18B 9539   2.119   4.732   7.403 -1.2650 -0.0054 -0.9687
   96CHL1  H18C 9540   2.220   4.584   7.401 -1.7502 -0.7269  1.1153
   96CHL1   C12 9541   2.076   4.429   7.238  0.5092  0.3325 -0.6048
   96CHL1  H12A 9542   2.149   4.378   7.304  0.8624  1.2462 -0.2766
   96CHL1  H12B 9543   1.988   4.369   7.208  0.7515  0.8079 -2.3949
   96CHL1   C11 9544   2.147   4.445   7.098 -0.1886 -0.3287  0.0478
   96CHL1  H11A 9545   2.250   4.485   7.111  0.3526 -2.3655  3.0490
   96CHL1  H11B 9546   2.165   4.347   7.049 -1.8920 -1.4764  1.5939
   96CHL1    C9 9547   2.061   4.536   6.998  0.3718  0.2678 -1.3024
   96CHL1    H9 9548   1.969   4.476   6.979  1.0180 -0.6395 -1.6315
   96CHL1   C10 9549   2.122   4.559   6.856 -0.5486 -0.3621  0.6707
   96CHL1   C19 9550   2.268   4.624   6.877  0.2302  0.3009  0.7191
   96CHL1  H19A 9551   2.296   4.660   6.776 -0.4881 -1.3217 -0.0891
   96CHL1  H19B 9552   2.259   4.710   6.947  3.2615  1.3886 -0.0789
   96CHL1  H19C 9553   2.344   4.547   6.902  0.2368 -0.9273 -2.6426
   96CHL1    C1 9554   2.130   4.415   6.784  0.1516 -0.7725 -0.4085
   96CHL1   H1A 9555   2.194   4.341   6.838 -1.2138 -0.5328  1.6504
   96CHL1   H1B 9556   2.028   4.372   6.780  0.0636 -0.6587  0.4166
   96CHL1    C2 9557   2.177   4.418   6.638  0.6396 -0.5121 -0.2377
   96CHL1   H2A 9558   2.172   4.322   6.582 -1.4844 -0.2239 -0.6130
   96CHL1   H2B 9559   2.280   4.460   6.633  1.4406 -2.2199  0.7619
   96CHL1   C20 9560   1.970   4.502   7.553 -0.1132 -0.5063  0.1860
   96CHL1   H20 9561   2.046   4.573   7.591 -1.3543  0.3335  1.2036
   96CHL1   C21 9562   2.043   4.367   7.539 -0.0617 -0.6934 -0.2420
   96CHL1  H21A 9563   2.000   4.291   7.470 -2.4796 -0.7052  1.1585
   96CHL1  H21B 9564   2.061   4.324   7.640  0.8581  0.6856  0.2091
   96CHL1  H21C 9565   2.148   4.384   7.509 -0.7087 -0.2602 -2.4108
   96CHL1   C22 9566   1.861   4.503   7.668  0.0627 -0.3973 -1.1531
   96CHL1  H22A 9567   1.788   4.586   7.656  1.0919  0.4012 -2.2060
   96CHL1  H22B 9568   1.810   4.405   7.654 -0.3486 -0.3401 -0.1082
   96CHL1   C23 9569   1.931   4.501   7.804  0.6255  0.5691 -0.5806
   96CHL1  H23A 9570   1.978   4.402   7.823 -1.7300 -0.2396  1.5403
   96CHL1  H23B 9571   2.003   4.584   7.820 -1.9428  2.8251  0.0038
   96CHL1   C24 9572   1.834   4.520   7.918  0.0718 -1.0472  0.5332
   96CHL1  H24A 9573   1.792   4.620   7.896 -2.4739 -2.2972 -0.7158
   96CHL1  H24B 9574   1.751   4.446   7.919 -0.4064 -0.5973 -1.4868
   96CHL1   C25 9575   1.889   4.530   8.061  0.6186 -0.0600 -0.1131
   96CHL1   H25 9576   1.996   4.559   8.061  0.8771 -0.9643  0.3260
   96CHL1   C26 9577   1.814   4.645   8.143  0.4468  0.3835 -0.4624
   96CHL1  H26A 9578   1.856   4.746   8.126 -0.5931  0.4896 -2.8969
   96CHL1  H26B 9579   1.705   4.643   8.121  0.0175 -1.4601  1.4798
   96CHL1  H26C 9580   1.804   4.621   8.251 -2.4850 -0.1922 -0.7785
   96CHL1   C27 9581   1.861   4.400   8.128 -0.6969  0.3536  0.8061
   96CHL1  H27A 9582   1.754   4.376   8.146 -1.0543  0.1311 -1.3483
   96CHL1  H27B 9583   1.891   4.321   8.055 -1.3302 -0.4536  1.4144
   96CHL1  H27C 9584   1.917   4.389   8.223  1.8225  0.3580 -0.5910
   97OSM      N 9585   1.093   5.205  11.183 -0.4966  0.3594  0.5245
   97OSM    C15 9586   1.083   5.154  11.045  0.7192 -0.3333 -0.5323
   97OSM   H15A 9587   1.088   5.047  11.045  1.1066 -0.3203 -1.1207
   97OSM   H15B 9588   1.173   5.179  10.990  0.3618  1.5712 -0.3291
   97OSM   H15C 9589   0.985   5.182  11.009 -0.3039 -1.6645  1.0821
   97OSM    C14 9590   1.056   5.354  11.203 -0.4698 -1.0591 -0.6381
   97OSM   H14A 9591   1.053   5.376  11.308 -0.6669 -1.4585 -0.5588
   97OSM   H14B 9592   0.958   5.366  11.160 -1.2999  1.2074  1.6990
   97OSM   H14C 9593   1.124   5.414  11.144 -2.2923  1.1062 -0.6585
   97OSM    C13 9594   0.980   5.147  11.259 -0.0170  0.1978 -0.0943
   97OSM   H13A 9595   0.879   5.161  11.221 -0.0939 -2.5454 -1.1850
   97OSM   H13B 9596   0.989   5.174  11.363  0.7415  0.1872 -0.1522
   97OSM   H13C 9597   0.987   5.039  11.252 -0.2907  0.2894 -2.4192
   97OSM    C12 9598   1.231   5.177  11.238  0.7826 -0.4849 -0.0483
   97OSM   H12A 9599   1.254   5.072  11.225  1.3741 -0.3852  0.1844
   97OSM   H12B 9600   1.230   5.203  11.343  0.4840  0.7088 -0.3293
   97OSM    C11 9601   1.346   5.256  11.180  0.2838  0.6284  0.5113
   97OSM   H11A 9602   1.430   5.225  11.245  0.5557 -0.2071 -0.2176
   97OSM   H11B 9603   1.333   5.364  11.204 -0.1739  0.6479  0.1933
   97OSM      P 9604   1.489   5.170  10.982 -0.0565  0.6424 -0.0506
   97OSM    O13 9605   1.614   5.250  11.006  0.6750  0.3584  0.0099
   97OSM    O14 9606   1.487   5.034  11.027  1.0449  0.4565 -0.2518
   97OSM    O11 9607   1.444   5.176  10.829 -0.2480 -0.1136 -0.0383
   97OSM    O12 9608   1.363   5.246  11.033  0.3645 -0.1021  0.5972
   97OSM    C1S 9609   1.542   5.243  10.747  0.2071  0.2970  0.3167
   97OSM    H1S 9610   1.644   5.202  10.765  0.1648 -0.1106 -0.3302
   97OSM    H1T 9611   1.541   5.352  10.769 -2.4477  0.8981 -2.1618
   97OSM     NF 9612   1.640   5.304  10.531  0.2752  0.4730  0.9100
   97OSM    HNF 9613   1.618   5.400  10.519 -0.6177  0.3582  1.4909
   97OSM    C2S 9614   1.523   5.238  10.593  0.6973 -0.2252 -0.1560
   97OSM    H2S 9615   1.521   5.128  10.576  0.5541 -0.5552  1.7332
   97OSM    C3S 9616   1.389   5.287  10.539  0.6275  0.0699 -0.2935
   97OSM    H3S 9617   1.399   5.398  10.538 -0.5609  0.1842 -0.3458
   97OSM     O3 9618   1.266   5.252  10.605  0.0911 -0.0310  0.1878
   97OSM    HO3 9619   1.296   5.210  10.686 -1.2855  0.8408  1.1895
   97OSM    C4S 9620   1.374   5.246  10.387  0.0894  0.1413 -0.3185
   97OSM    H4S 9621   1.422   5.319  10.319 -1.4058  0.5332 -0.9924
   97OSM    C5S 9622   1.303   5.142  10.343 -0.0547  0.4513  0.6426
   97OSM    H5S 9623   1.239   5.078  10.406 -0.5168  0.8849  0.6152
   97OSM    C6S 9624   1.277   5.112  10.195  0.0812  0.0914  0.1116
   97OSM    H6S 9625   1.169   5.111  10.171  0.2420 -1.7095 -0.7312
   97OSM    H6T 9626   1.298   5.005  10.173 -1.6191  0.0772 -1.7470
   97OSM    C7S 9627   1.350   5.199  10.092  0.5997 -0.4805 -0.0297
   97OSM    H7S 9628   1.457   5.212  10.121 -0.0634  3.8733  1.1711
   97OSM    H7T 9629   1.325   5.306  10.105  0.1293 -0.2474 -2.3901
   97OSM    C8S 9630   1.332   5.166   9.941  0.7436  0.4995  0.9291
   97OSM    H8S 9631   1.367   5.062   9.922 -3.9048 -0.9620 -1.1208
   97OSM    H8T 9632   1.400   5.225   9.875  2.7415 -0.6453  1.8924
   97OSM    C9S 9633   1.181   5.171   9.903 -0.1730  0.1644  0.2476
   97OSM    H9S 9634   1.134   5.267   9.934  1.4665  0.7203  1.1583
   97OSM    H9T 9635   1.132   5.100   9.973  2.7138  0.4349  2.7441
   97OSM   C10S 9636   1.161   5.136   9.756 -0.5113  0.1130  0.2057
   97OSM   H10S 9637   1.224   5.050   9.724  0.9341  1.2052 -0.0015
   97OSM   H10T 9638   1.185   5.225   9.695  1.1418 -0.6301 -0.2955
   97OSM   C11S 9639   1.021   5.097   9.717  0.4616  0.4031  0.0304
   97OSM   H11S 9640   0.941   5.173   9.736 -0.6091 -1.3045  2.9979
   97OSM   H11T 9641   1.000   5.006   9.776  0.4854  0.1289 -0.3837
   97OSM   C12S 9642   1.016   5.048   9.568  0.6237 -0.0824  0.0373
   97OSM   H12S 9643   1.075   4.954   9.564 -0.4585 -0.8311  1.3528
   97OSM   H12T 9644   1.067   5.122   9.502  0.8969 -0.2947  0.0075
   97OSM   C13S 9645   0.874   5.033   9.516  0.6059 -0.2299 -0.5635
   97OSM   H13S 9646   0.822   5.131   9.518  1.8684  0.4490  1.4890
   97OSM   H13T 9647   0.820   4.972   9.592 -0.1365  0.5087 -0.4865
   97OSM   C14S 9648   0.864   4.978   9.371 -0.0575  0.1898  0.6315
   97OSM   H14S 9649   0.914   4.879   9.364  0.7582  0.4523  2.2188
   97OSM   H14T 9650   0.934   5.037   9.308  0.5530 -2.3089 -1.1779
   97OSM   C15S 9651   0.725   4.984   9.306  0.5339 -0.2428 -0.0485
   97OSM   H15S 9652   0.670   5.079   9.320  0.0580 -0.5858  0.4748
   97OSM   H15T 9653   0.648   4.919   9.354  0.2743  0.9934  1.2576
   97OSM   C16S 9654   0.735   4.959   9.154 -0.3999 -0.0276 -0.5256
   97OSM   H16S 9655   0.784   4.859   9.154  0.6179  0.4443  0.3138
   97OSM   H16T 9656   0.803   5.041   9.121 -0.3356  0.2008  0.1604
   97OSM   C17S 9657   0.600   4.960   9.085  0.1098  0.4031  0.7296
   97OSM   H17S 9658   0.548   5.057   9.100 -0.5124  0.2376 -0.2918
   97OSM   H17T 9659   0.542   4.872   9.121 -2.2812  0.8012 -1.8136
   97OSM   C18S 9660   0.619   4.941   8.935  0.3575  0.2797 -1.0060
   97OSM   H18S 9661   0.708   4.881   8.903  1.1052  1.6701 -1.6167
   97OSM   H18T 9662   0.624   5.043   8.893  0.3886  0.9530  0.5599
   97OSM   H18U 9663   0.529   4.885   8.902  0.4512 -1.8305  1.8722
   97OSM    C1F 9664   1.763   5.254  10.552  0.1538  0.3985  0.2128
   97OSM     OF 9665   1.780   5.133  10.570 -0.3480 -0.1654 -0.1247
   97OSM    C2F 9666   1.875   5.349  10.564 -0.6018  0.3355  0.0987
   97OSM    H2F 9667   1.923   5.338  10.664 -1.3887  1.5135  0.6336
   97OSM    H2G 9668   1.840   5.455  10.557 -2.5164 -0.3427 -1.4116
   97OSM    C3F 9669   1.972   5.322  10.443  0.6938  0.3410 -0.3788
   97OSM    H3F 9670   1.976   5.216  10.409  0.4004 -0.9856  3.3062
   97OSM    H3G 9671   2.070   5.350  10.486  0.0359  0.6396  0.9932
   97OSM    C4F 9672   1.945   5.411  10.318  1.2336 -0.1497 -0.3229
   97OSM    H4F 9673   2.035   5.435  10.257  1.0892 -0.6881 -0.7501
   97OSM    H4G 9674   1.917   5.505  10.370  0.9257 -0.4030 -0.0231
   97OSM    C5F 9675   1.832   5.354  10.241 -0.0439 -0.8316  0.4643
   97OSM    H5F 9676   1.738   5.357  10.301 -0.0022 -1.1961  0.5488
   97OSM    H5G 9677   1.846   5.246  10.222  1.3226 -0.3277 -1.7788
   97OSM    C6F 9678   1.812   5.440  10.107  0.0878 -0.4427 -0.0102
   97OSM    H6F 9679   1.907   5.441  10.050  0.2946  1.9525  0.2864
   97OSM    H6G 9680   1.776   5.540  10.139 -2.5526 -1.5553  0.8503
   97OSM    C7F 9681   1.692   5.399  10.021  0.1795 -0.1818 -0.7330
   97OSM    H7F 9682   1.600   5.399  10.083 -0.8480 -0.8491 -2.1824
   97OSM    H7G 9683   1.699   5.294   9.986  1.2430 -1.2526  2.4165
   97OSM    C8F 9684   1.665   5.506   9.909  0.0471  0.3226  0.3423
   97OSM    H8F 9685   1.765   5.500   9.860  0.0155 -0.5223  0.3613
   97OSM    H8G 9686   1.637   5.604   9.953 -1.3479 -0.0045  0.2058
   97OSM    C9F 9687   1.549   5.469   9.814  0.4103  0.0118 -0.8741
   97OSM    H9F 9688   1.453   5.456   9.867  2.4146  0.3339  3.2844
   97OSM   C10F 9689   1.546   5.447   9.684 -0.3070  0.0895  0.4885
   97OSM   H10F 9690   1.455   5.413   9.632  0.8759  1.1747 -2.5542
   97OSM   C11F 9691   1.668   5.454   9.595 -0.2097 -0.1857 -0.9571
   97OSM   H11F 9692   1.712   5.352   9.585  0.9386  0.1220  0.6424
   97OSM   H11G 9693   1.746   5.507   9.653 -2.0048  0.0421  1.3669
   97OSM   C12F 9694   1.654   5.521   9.461  0.0678 -0.1925  0.6891
   97OSM   H12F 9695   1.754   5.535   9.415 -0.2858  0.2949  0.0474
   97OSM   H12G 9696   1.616   5.623   9.484  0.4876 -0.4597  2.7042
   97OSM   C13F 9697   1.558   5.463   9.358 -0.3908  0.0913  0.0828
   97OSM   H13F 9698   1.459   5.496   9.395 -0.9096 -1.7758  0.4510
   97OSM   H13G 9699   1.552   5.352   9.353 -0.4080  0.1247 -0.7866
   97OSM   C14F 9700   1.590   5.508   9.213  0.0398  1.2487 -0.3860
   97OSM   H14F 9701   1.517   5.458   9.145  0.2156 -1.4318  1.2207
   97OSM   H14G 9702   1.695   5.486   9.186  0.7137  2.2830  1.2153
   97OSM   C15F 9703   1.557   5.654   9.202  0.4558  0.5953 -0.3842
   97OSM   H15F 9704   1.634   5.715   9.255  1.3530 -1.0575  0.3079
   97OSM   H15G 9705   1.455   5.668   9.243  1.0466  1.5763  0.8471
   97OSM   C16F 9706   1.547   5.702   9.059  0.3284  0.1714  0.3904
   97OSM   H16F 9707   1.476   5.633   9.010 -0.7732  1.3284  0.2953
   97OSM   H16G 9708   1.644   5.697   9.007 -0.1297 -0.1774 -0.4463
   97OSM   C17F 9709   1.502   5.843   9.053 -0.3938 -0.4386 -0.0590
   97OSM   H17F 9710   1.590   5.910   9.051 -0.5666 -0.2366 -1.1092
   97OSM   H17G 9711   1.438   5.870   9.140  1.5900  1.8508  0.7818
   97OSM   C18F 9712   1.427   5.871   8.921  0.2292 -0.3224  0.7255
   97OSM   H18F 9713   1.370   5.966   8.919  0.3718 -0.2297  1.0726
   97OSM   H18G 9714   1.349   5.793   8.905  0.2991 -0.5865  1.6593
   97OSM   H18H 9715   1.500   5.882   8.838 -1.8444  1.5002 -0.9972
   98OSM      N 9716   0.410   5.425  11.129  0.8609  0.7147  0.0430
   98OSM    C15 9717   0.280   5.410  11.056 -0.1519 -0.3951 -0.4532
   98OSM   H15A 9718   0.233   5.313  11.072  1.4477 -1.3050 -1.0856
   98OSM   H15B 9719   0.303   5.416  10.951  0.4377 -1.9151 -0.4375
   98OSM   H15C 9720   0.220   5.490  11.096 -1.1564 -0.7328 -1.2326
   98OSM    C14 9721   0.454   5.560  11.115  0.3878 -0.6034 -0.6893
   98OSM   H14A 9722   0.451   5.590  11.011 -2.5400  0.6367 -0.3352
   98OSM   H14B 9723   0.555   5.568  11.153 -0.1602 -2.6676  1.4311
   98OSM   H14C 9724   0.386   5.622  11.172  2.0148  0.8136 -0.2179
   98OSM    C13 9725   0.374   5.392  11.270  0.5907 -0.3027  0.1062
   98OSM   H13A 9726   0.460   5.402  11.335  0.7847  1.0022 -0.3249
   98OSM   H13B 9727   0.341   5.290  11.279  0.7111 -0.5041 -1.4010
   98OSM   H13C 9728   0.292   5.454  11.303 -0.4065 -1.8123  0.5756
   98OSM    C12 9729   0.508   5.315  11.086  0.2704 -0.0964  0.7335
   98OSM   H12A 9730   0.470   5.217  11.108  0.6520 -1.3290 -3.1981
   98OSM   H12B 9731   0.605   5.332  11.131  0.7460  0.8977 -0.5807
   98OSM    C11 9732   0.542   5.291  10.938 -0.9654  0.0421  0.1771
   98OSM   H11A 9733   0.446   5.277  10.884 -1.0998 -0.6775  0.5758
   98OSM   H11B 9734   0.598   5.196  10.919 -0.9415 -0.2542  1.5919
   98OSM      P 9735   0.766   5.412  10.926  0.0288  0.0558  0.5353
   98OSM    O13 9736   0.823   5.540  10.877 -0.1500 -0.5658  0.3168
   98OSM    O14 9737   0.774   5.388  11.073  0.2882  0.2546  0.2982
   98OSM    O11 9738   0.818   5.294  10.843  0.4148 -0.5972 -0.1856
   98OSM    O12 9739   0.619   5.403  10.885  0.5590 -0.1577  0.0745
   98OSM    C1S 9740   0.777   5.291  10.701 -0.3775  0.6553 -0.3183
   98OSM    H1S 9741   0.763   5.390  10.651 -3.4195  1.1255  1.2336
   98OSM    H1T 9742   0.686   5.229  10.694  0.5143 -0.8618  0.9859
   98OSM     NF 9743   0.866   5.238  10.469  0.2566  0.0848 -0.3014
   98OSM    HNF 9744   0.802   5.174  10.427  0.0272  0.9178 -1.2455
   98OSM    C2S 9745   0.884   5.219  10.616 -0.1535  0.7536 -0.1221
   98OSM    H2S 9746   0.987   5.251  10.643 -0.3314 -0.2379  1.9026
   98OSM    C3S 9747   0.887   5.067  10.664  0.5867 -0.7670  0.4651
   98OSM    H3S 9748   0.791   5.012  10.649 -0.3307  0.7623  0.5154
   98OSM     O3 9749   0.914   5.054  10.805  0.3489  0.1376 -0.3193
   98OSM    HO3 9750   0.907   5.142  10.842 -1.5289 -0.3862  0.6726
   98OSM    C4S 9751   0.986   4.979  10.596 -0.1389 -0.5255 -0.0236
   98OSM    H4S 9752   1.086   5.025  10.603 -0.5354  0.3856 -0.2294
   98OSM    C5S 9753   0.971   4.864  10.532  0.6255 -0.6012 -0.3927
   98OSM    H5S 9754   0.870   4.823  10.515  1.7724 -3.6631 -0.4563
   98OSM    C6S 9755   1.092   4.789  10.475 -0.4345 -0.1475  0.0217
   98OSM    H6S 9756   1.084   4.684  10.508 -1.5108 -0.7877 -2.1275
   98OSM    H6T 9757   1.188   4.829  10.514 -0.1136 -2.2704  1.5537
   98OSM    C7S 9758   1.090   4.779  10.326 -0.2661  0.1316  0.0535
   98OSM    H7S 9759   1.098   4.879  10.277  0.8091 -0.4094 -0.9248
   98OSM    H7T 9760   0.992   4.736  10.298  0.4796  0.3276 -3.2736
   98OSM    C8S 9761   1.213   4.697  10.270  0.2921  0.6197  0.2214
   98OSM    H8S 9762   1.224   4.597  10.318 -0.6009  0.9612  1.1751
   98OSM    H8T 9763   1.296   4.762  10.304  1.0850  0.5713 -1.5369
   98OSM    C9S 9764   1.214   4.693  10.115 -0.3599  0.0729 -0.2826
   98OSM    H9S 9765   1.192   4.793  10.072 -0.7521  0.6275  1.1461
   98OSM    H9T 9766   1.136   4.632  10.064  0.6901 -0.4295 -1.3346
   98OSM   C10S 9767   1.344   4.654  10.050 -0.0698  0.5320 -0.3748
   98OSM   H10S 9768   1.397   4.573  10.105 -2.2938 -1.4237 -0.9231
   98OSM   H10T 9769   1.411   4.742  10.056 -0.9201  1.1004  1.1912
   98OSM   C11S 9770   1.323   4.599   9.908 -0.4453 -1.0273 -0.6645
   98OSM   H11S 9771   1.259   4.508   9.920 -3.1029  0.7248 -0.6740
   98OSM   H11T 9772   1.422   4.567   9.871 -0.3691 -0.7537 -0.6961
   98OSM   C12S 9773   1.259   4.693   9.807 -0.5645 -0.0875  0.3329
   98OSM   H12S 9774   1.302   4.794   9.789 -0.3777  0.4121  3.1288
   98OSM   H12T 9775   1.172   4.724   9.868  0.1877  0.6066  1.0785
   98OSM   C13S 9776   1.229   4.622   9.678  0.2592  0.2654  0.1519
   98OSM   H13S 9777   1.160   4.686   9.619 -0.5806 -0.1463  0.6478
   98OSM   H13T 9778   1.163   4.534   9.699  0.3639  0.2185  0.2874
   98OSM   C14S 9779   1.355   4.580   9.601 -0.1109 -0.7762  0.6361
   98OSM   H14S 9780   1.402   4.483   9.631 -0.3827 -0.9152  0.6137
   98OSM   H14T 9781   1.444   4.646   9.611  1.0601 -1.6684 -2.5981
   98OSM   C15S 9782   1.311   4.553   9.457 -0.0333 -0.5885 -0.5317
   98OSM   H15S 9783   1.221   4.613   9.431  1.3628  1.5236 -0.7572
   98OSM   H15T 9784   1.270   4.450   9.455 -1.5850 -0.0020 -0.4259
   98OSM   C16S 9785   1.426   4.567   9.354  0.5398 -0.7697 -0.0480
   98OSM   H16S 9786   1.506   4.520   9.415  2.2383  1.5919 -0.2957
   98OSM   H16T 9787   1.465   4.671   9.349  1.7270 -0.8212  4.1618
   98OSM   C17S 9788   1.379   4.515   9.208  0.1049 -0.2673 -0.6222
   98OSM   H17S 9789   1.278   4.556   9.188 -0.3388  0.5740  2.7733
   98OSM   H17T 9790   1.362   4.406   9.223 -3.2797  0.2150 -0.0883
   98OSM   C18S 9791   1.481   4.543   9.103  0.1844 -0.6368 -0.1815
   98OSM   H18S 9792   1.572   4.480   9.111  0.9383  0.5785  1.4400
   98OSM   H18T 9793   1.517   4.648   9.108  1.0264 -0.9774  3.4366
   98OSM   H18U 9794   1.434   4.535   9.003  0.9123  3.8326 -1.1078
   98OSM    C1F 9795   0.889   5.356  10.416 -0.1719  0.4527 -0.8385
   98OSM     OF 9796   0.937   5.441  10.487 -0.4775 -0.1103  0.6090
   98OSM    C2F 9797   0.833   5.383  10.285 -1.6167 -0.1249  0.6844
   98OSM    H2F 9798   0.851   5.491  10.264 -2.6754 -0.3388 -1.6292
   98OSM    H2G 9799   0.723   5.368  10.288 -1.4580 -1.4912  0.2011
   98OSM    C3F 9800   0.885   5.299  10.164 -0.1664  0.3871  0.3996
   98OSM    H3F 9801   0.875   5.192  10.190 -0.0656  0.3383  0.2396
   98OSM    H3G 9802   0.995   5.309  10.157 -0.0559  0.6192  2.1441
   98OSM    C4F 9803   0.809   5.317  10.033 -0.3547  0.0040  0.1497
   98OSM    H4F 9804   0.878   5.271   9.959  1.6001  0.5327  1.5321
   98OSM    H4G 9805   0.802   5.420   9.990 -0.0669 -0.5734 -1.3321
   98OSM    C5F 9806   0.664   5.266  10.030 -0.2620 -0.4221 -0.1850
   98OSM    H5F 9807   0.600   5.350  10.066  0.7057  0.1991  0.1165
   98OSM    H5G 9808   0.654   5.179  10.099  0.8531  1.5284  2.6382
   98OSM    C6F 9809   0.618   5.207   9.898 -0.1492  0.3925  0.4152
   98OSM    H6F 9810   0.682   5.122   9.865 -2.3240 -0.6219 -1.4457
   98OSM    H6G 9811   0.622   5.291   9.825  0.9758  0.5659  0.6589
   98OSM    C7F 9812   0.469   5.169   9.904  0.7536 -0.2579 -0.7576
   98OSM    H7F 9813   0.406   5.260   9.892 -0.4149 -0.8283  0.7242
   98OSM    H7G 9814   0.441   5.127  10.003  0.6732  1.4495 -0.0109
   98OSM    C8F 9815   0.431   5.066   9.798 -0.1063  0.2881  0.0143
   98OSM    H8F 9816   0.321   5.052   9.809 -0.1045 -0.4274 -0.7398
   98OSM    H8G 9817   0.491   4.974   9.811  0.3848  0.4481 -1.0221
   98OSM    C9F 9818   0.469   5.131   9.666  0.1229 -0.2763 -0.3298
   98OSM    H9F 9819   0.500   5.235   9.680 -1.7723  0.3128 -0.2958
   98OSM   C10F 9820   0.448   5.088   9.541 -1.0092 -0.0990 -0.8025
   98OSM   H10F 9821   0.480   5.159   9.463 -0.2521  1.5532  0.9400
   98OSM   C11F 9822   0.374   4.964   9.509 -0.5061  0.4644 -0.4472
   98OSM   H11F 9823   0.292   4.940   9.581 -0.1262 -1.5711 -0.6268
   98OSM   H11G 9824   0.441   4.876   9.501 -1.2991 -0.1587 -0.3951
   98OSM   C12F 9825   0.303   4.969   9.371 -0.4568  0.2029  0.0513
   98OSM   H12F 9826   0.361   5.028   9.297  0.7010 -0.7334  0.1795
   98OSM   H12G 9827   0.202   5.015   9.378  0.1897  1.4663  1.6812
   98OSM   C13F 9828   0.299   4.822   9.321 -0.0970  0.2008 -0.0571
   98OSM   H13F 9829   0.240   4.765   9.396 -0.3418  1.9932  1.1821
   98OSM   H13G 9830   0.403   4.785   9.314 -1.1292 -2.6004 -3.5443
   98OSM   C14F 9831   0.230   4.811   9.188 -0.2151 -0.0846  0.2427
   98OSM   H14F 9832   0.286   4.876   9.117 -0.8983 -0.0930 -0.3111
   98OSM   H14G 9833   0.127   4.843   9.212 -0.0847 -0.9315  2.0715
   98OSM   C15F 9834   0.227   4.666   9.125  0.1043 -0.1999  0.3493
   98OSM   H15F 9835   0.211   4.595   9.208 -1.0370 -0.5788 -0.1728
   98OSM   H15G 9836   0.335   4.653   9.099  0.0681  0.6849 -0.2970
   98OSM   C16F 9837   0.138   4.648   9.000  0.1796  0.7619 -0.0759
   98OSM   H16F 9838   0.163   4.544   8.971  0.6436  0.3190  1.7435
   98OSM   H16G 9839   0.174   4.712   8.916 -1.3894 -0.7139 -1.9530
   98OSM   C17F 9840  -0.008   4.678   9.018  0.7070  0.2338  0.2512
   98OSM   H17F 9841  -0.061   4.678   8.920 -1.0832  2.2369  1.1210
   98OSM   H17G 9842  -0.031   4.778   9.062  0.0189 -0.4000  1.3796
   98OSM   C18F 9843  -0.079   4.585   9.115  0.4441 -0.2045  0.2134
   98OSM   H18F 9844  -0.053   4.482   9.081 -1.7538 -0.7863  0.0906
   98OSM   H18G 9845  -0.189   4.602   9.110  0.9201  3.2795 -1.0405
   98OSM   H18H 9846  -0.046   4.599   9.220 -0.5741 -0.3133  0.5572
   99OSM      N 9847   3.188   4.009  11.236  0.4182  0.6723 -0.0352
   99OSM    C15 9848   3.312   4.080  11.271  0.1449  0.1512 -0.1527
   99OSM   H15A 9849   3.393   4.011  11.253  0.7277  0.8297 -0.1680
   99OSM   H15B 9850   3.316   4.106  11.376  1.3258  0.2094 -0.1933
   99OSM   H15C 9851   3.312   4.176  11.222 -2.3524 -0.3049 -1.2065
   99OSM    C14 9852   3.177   3.901  11.341 -0.1475 -0.4376 -0.2045
   99OSM   H14A 9853   3.168   3.936  11.443  0.2037 -3.0309  0.7981
   99OSM   H14B 9854   3.270   3.848  11.321  0.4700  0.7986 -0.7186
   99OSM   H14C 9855   3.091   3.844  11.310 -1.4748  1.7850 -0.8414
   99OSM    C13 9856   3.065   4.096  11.262  0.1405  0.5495 -0.6371
   99OSM   H13A 9857   3.087   4.163  11.343  1.0132  1.4178 -1.5572
   99OSM   H13B 9858   2.988   4.029  11.299  0.7297 -1.0429 -2.1172
   99OSM   H13C 9859   3.030   4.149  11.175 -3.8710  1.1025  1.0702
   99OSM    C12 9860   3.189   3.946  11.091  0.2618 -0.9917 -0.4475
   99OSM   H12A 9861   3.107   3.878  11.074 -0.7510  0.5062 -1.7931
   99OSM   H12B 9862   3.276   3.883  11.087  0.1410 -1.0885 -1.7027
   99OSM    C11 9863   3.208   4.043  10.982  0.0277 -0.4702 -0.2859
   99OSM   H11A 9864   3.216   3.998  10.881 -0.7270  0.0966 -0.6101
   99OSM   H11B 9865   3.301   4.096  11.012 -1.1067  0.2414  2.1918
   99OSM      P 9866   2.964   4.122  10.908 -0.2988  0.1014  0.3792
   99OSM    O13 9867   2.978   3.995  10.832  0.7718  0.1579 -0.3194
   99OSM    O14 9868   2.860   4.137  11.007  0.5036 -0.5491 -0.0858
   99OSM    O11 9869   2.960   4.245  10.808  0.4415  0.5754  0.0272
   99OSM    O12 9870   3.107   4.145  10.973 -0.4301  0.3681  0.8228
   99OSM    C1S 9871   3.072   4.311  10.747  0.2659  0.2662  0.6327
   99OSM    H1S 9872   3.169   4.260  10.764  0.1648 -0.4645 -0.9020
   99OSM    H1T 9873   3.072   4.417  10.782  0.7460  0.8416 -1.0296
   99OSM     NF 9874   3.168   4.356  10.511  1.0444 -0.0402  0.8954
   99OSM    HNF 9875   3.170   4.445  10.467 -2.2681 -0.3564 -0.1938
   99OSM    C2S 9876   3.046   4.327  10.583 -0.1276 -0.4172 -0.6249
   99OSM    H2S 9877   3.007   4.225  10.565 -1.2193 -0.2726  0.7639
   99OSM    C3S 9878   2.937   4.433  10.563 -0.0394  0.7698  0.3559
   99OSM    H3S 9879   2.983   4.533  10.579  0.8440  0.7375 -1.6538
   99OSM     O3 9880   2.825   4.412  10.654  0.0284  0.2126  0.5497
   99OSM    HO3 9881   2.845   4.347  10.722  0.2764  1.5728  1.8086
   99OSM    C4S 9882   2.890   4.424  10.417 -0.1156  0.3313 -0.5092
   99OSM    H4S 9883   2.943   4.491  10.348  1.2639  0.2834  0.4498
   99OSM    C5S 9884   2.799   4.344  10.361 -0.8398  0.0640  0.4033
   99OSM    H5S 9885   2.725   4.280  10.410  0.3745 -0.7687  1.1968
   99OSM    C6S 9886   2.783   4.331  10.216 -0.1146 -0.0054  0.3554
   99OSM    H6S 9887   2.702   4.401  10.185 -0.8727 -1.8957 -2.2749
   99OSM    H6T 9888   2.749   4.228  10.193 -0.1735  0.3391 -1.2205
   99OSM    C7S 9889   2.910   4.371  10.129  0.0137  0.3402  0.6150
   99OSM    H7S 9890   3.001   4.311  10.148  0.3802 -0.4108 -2.7690
   99OSM    H7T 9891   2.916   4.481  10.146 -1.0873  0.9070 -2.0829
   99OSM    C8S 9892   2.885   4.348   9.979 -0.5597  0.8260 -0.6129
   99OSM    H8S 9893   2.810   4.266   9.970 -0.3920  0.8313 -2.4466
   99OSM    H8T 9894   2.979   4.304   9.939 -1.0733  0.0296 -0.9659
   99OSM    C9S 9895   2.843   4.468   9.889 -0.1681 -0.4732 -0.2563
   99OSM    H9S 9896   2.936   4.528   9.888 -0.5064  0.0572 -1.3265
   99OSM    H9T 9897   2.765   4.524   9.944  1.4206 -0.3764  2.0279
   99OSM   C10S 9898   2.799   4.429   9.748 -0.6508  0.3854  0.3414
   99OSM   H10S 9899   2.708   4.365   9.752 -1.4918  1.5659  0.7721
   99OSM   H10T 9900   2.875   4.370   9.694 -2.8333 -0.1120 -2.4047
   99OSM   C11S 9901   2.777   4.549   9.660  0.4682  0.3275 -0.4999
   99OSM   H11S 9902   2.871   4.609   9.657  1.7479 -1.6246 -1.3379
   99OSM   H11T 9903   2.690   4.612   9.691  0.6556 -0.5998  2.1354
   99OSM   C12S 9904   2.746   4.509   9.520 -0.6811 -0.0338  0.3569
   99OSM   H12S 9905   2.825   4.446   9.475  1.5962  1.8180  1.5595
   99OSM   H12T 9906   2.665   4.434   9.513 -0.2503 -0.6423  1.6248
   99OSM   C13S 9907   2.717   4.636   9.436  0.2515  0.0319 -0.4657
   99OSM   H13S 9908   2.757   4.731   9.478  2.3942 -0.8773 -0.3345
   99OSM   H13T 9909   2.606   4.644   9.427  0.2482 -0.8647 -1.4857
   99OSM   C14S 9910   2.778   4.626   9.298  0.0986 -0.3809  0.8350
   99OSM   H14S 9911   2.749   4.526   9.258 -0.5232 -0.3701  1.2353
   99OSM   H14T 9912   2.889   4.620   9.297  0.5058  4.1216  0.2754
   99OSM   C15S 9913   2.742   4.739   9.203  0.0256 -0.9487 -0.2576
   99OSM   H15S 9914   2.775   4.828   9.261 -0.1411 -1.2502  0.3074
   99OSM   H15T 9915   2.632   4.756   9.195  0.4019  0.8750 -2.6360
   99OSM   C16S 9916   2.804   4.719   9.065  0.4945  0.6527  0.6707
   99OSM   H16S 9917   2.728   4.659   9.009  0.3780 -0.9652  2.4636
   99OSM   H16T 9918   2.899   4.661   9.067 -0.1137 -0.5063 -1.1272
   99OSM   C17S 9919   2.828   4.852   8.985 -0.3659 -0.4587  1.0621
   99OSM   H17S 9920   2.937   4.869   8.970 -0.0111 -2.9207  0.4246
   99OSM   H17T 9921   2.789   4.944   9.033  0.4552  1.6759 -2.0971
   99OSM   C18S 9922   2.770   4.843   8.840  0.2989 -0.0051  0.6746
   99OSM   H18S 9923   2.819   4.914   8.770 -0.5127 -1.2879 -1.2853
   99OSM   H18T 9924   2.660   4.858   8.831  0.1546 -0.8555  0.9148
   99OSM   H18U 9925   2.796   4.743   8.799  2.2934  1.7900 -2.9349
   99OSM    C1F 9926   3.253   4.257  10.489 -0.0765  0.2414  0.8927
   99OSM     OF 9927   3.240   4.157  10.550 -0.6848  0.4256  0.2095
   99OSM    C2F 9928   3.362   4.289  10.387 -0.4724  0.3710  0.5720
   99OSM    H2F 9929   3.463   4.247  10.407  0.8404  1.6827 -2.6265
   99OSM    H2G 9930   3.364   4.400  10.379 -2.0844  0.7451  3.8407
   99OSM    C3F 9931   3.321   4.254  10.240 -0.2753  0.1875  0.5228
   99OSM    H3F 9932   3.299   4.145  10.243  1.7703 -0.3120 -0.7339
   99OSM    H3G 9933   3.230   4.309  10.209 -1.1306 -0.3259  2.0022
   99OSM    C4F 9934   3.428   4.274  10.136  0.2465  0.5479 -0.2855
   99OSM    H4F 9935   3.528   4.261  10.183 -0.6634  1.3757  2.0221
   99OSM    H4G 9936   3.450   4.372  10.088  2.1958  0.1800 -0.2163
   99OSM    C5F 9937   3.399   4.175  10.023  0.6253  0.3529  0.1204
   99OSM    H5F 9938   3.289   4.181  10.012  0.2603 -2.3893  1.3763
   99OSM    H5G 9939   3.419   4.070  10.053  2.7042  0.3648 -1.0306
   99OSM    C6F 9940   3.485   4.197   9.894 -0.3983 -0.0935 -0.4629
   99OSM    H6F 9941   3.586   4.154   9.910  0.0461  0.1129 -2.4566
   99OSM    H6G 9942   3.487   4.307   9.885  0.0526  0.1744  2.1221
   99OSM    C7F 9943   3.424   4.131   9.763 -0.7333 -0.4701  0.1439
   99OSM    H7F 9944   3.333   4.189   9.738 -1.2017 -1.5496 -0.7587
   99OSM    H7G 9945   3.402   4.022   9.771  2.2544 -1.4498 -2.6296
   99OSM    C8F 9946   3.525   4.138   9.641 -0.5583  0.5528 -0.2473
   99OSM    H8F 9947   3.551   4.247   9.642 -2.1657  1.0831  4.2977
   99OSM    H8G 9948   3.475   4.118   9.544  0.6863  0.4123 -0.8793
   99OSM    C9F 9949   3.654   4.060   9.653  0.7163  0.0091 -0.6696
   99OSM    H9F 9950   3.728   4.109   9.718 -1.3320  1.3723  0.7497
   99OSM   C10F 9951   3.689   3.943   9.593 -0.4330 -0.2373  0.5996
   99OSM   H10F 9952   3.792   3.907   9.606  0.8603  2.5969 -0.8866
   99OSM   C11F 9953   3.609   3.849   9.503  0.9985 -0.5405  0.5009
   99OSM   H11F 9954   3.499   3.864   9.510  0.9967 -1.0917  2.3735
   99OSM   H11G 9955   3.634   3.743   9.526  1.5384 -0.4726  0.2302
   99OSM   C12F 9956   3.646   3.864   9.356  0.1325 -0.1140 -0.2230
   99OSM   H12F 9957   3.613   3.773   9.300 -0.8241  0.0457  0.0635
   99OSM   H12G 9958   3.756   3.869   9.341 -0.1513  2.8178 -2.1885
   99OSM   C13F 9959   3.582   3.985   9.287 -0.1880 -0.4444  0.1974
   99OSM   H13F 9960   3.631   4.080   9.315 -2.5655  0.8238  0.3107
   99OSM   H13G 9961   3.479   4.004   9.324 -0.5163  0.3265 -1.0442
   99OSM   C14F 9962   3.572   3.966   9.133  0.0506 -0.0522 -0.1055
   99OSM   H14F 9963   3.509   3.877   9.110 -1.8578  1.0864  0.4063
   99OSM   H14G 9964   3.674   3.938   9.100 -0.2025 -0.6468 -0.3971
   99OSM   C15F 9965   3.505   4.087   9.060  0.1963  0.0028 -0.1424
   99OSM   H15F 9966   3.572   4.173   9.082 -3.2241  2.5311  1.2865
   99OSM   H15G 9967   3.412   4.109   9.116  0.6752 -2.0189  1.5753
   99OSM   C16F 9968   3.491   4.053   8.910  0.0302 -0.4816 -0.0311
   99OSM   H16F 9969   3.585   3.996   8.897 -0.2060 -0.8100 -0.3108
   99OSM   H16G 9970   3.490   4.142   8.843 -0.9030 -0.6877 -0.3077
   99OSM   C17F 9971   3.379   3.954   8.875  0.7591 -0.4596 -0.4299
   99OSM   H17F 9972   3.372   3.877   8.955 -0.1528 -1.3484 -1.3378
   99OSM   H17G 9973   3.402   3.915   8.773  1.0973 -1.6291  0.0714
   99OSM   C18F 9974   3.240   4.018   8.884  0.1988 -1.0368 -0.4241
   99OSM   H18F 9975   3.155   3.963   8.838  0.7980 -2.9189  0.6134
   99OSM   H18G 9976   3.246   4.119   8.838  1.6941  0.0233  1.9471
   99OSM   H18H 9977   3.206   4.030   8.989 -0.1372  0.2282 -0.6601
  100OSM      N 9978   4.952   6.523  10.662  0.6480 -0.1738  0.7035
  100OSM    C15 9979   4.981   6.600  10.794  0.6465  0.3844 -0.3937
  100OSM   H15A 9980   5.021   6.522  10.857 -0.0851 -0.8157 -1.3707
  100OSM   H15B 9981   4.889   6.643  10.830  0.7032  0.2692 -0.1067
  100OSM   H15C 9982   5.052   6.680  10.779  1.3428  0.0364  0.8764
  100OSM    C14 9983   4.842   6.423  10.683 -0.2183 -0.3960  0.0012
  100OSM   H14A 9984   4.801   6.376  10.595  1.0140  0.4648 -1.0722
  100OSM   H14B 9985   4.757   6.469  10.731  1.1568  1.6987  0.5692
  100OSM   H14C 9986   4.883   6.339  10.738  0.2005  0.0009  0.3001
  100OSM    C13 9987   4.902   6.625  10.556  0.4564 -0.1314  0.7402
  100OSM   H13A 9988   4.962   6.713  10.540 -1.2349  0.6979 -1.6094
  100OSM   H13B 9989   4.805   6.658  10.591  0.2980 -1.6205  1.7866
  100OSM   H13C 9990   4.886   6.577  10.461  0.1731 -0.9057  1.1720
  100OSM    C12 9991   5.071   6.457  10.609 -0.0989  0.4356 -0.3811
  100OSM   H12A 9992   5.125   6.533  10.554 -0.1477  0.2083 -0.7494
  100OSM   H12B 9993   5.052   6.378  10.538  3.4155 -2.0395  1.1062
  100OSM    C11 9994   5.155   6.362  10.701  0.8887  0.2037 -0.6102
  100OSM   H11A 9995   5.184   6.423  10.789 -0.9457 -1.2860  1.1324
  100OSM   H11B 9996   5.248   6.335  10.646  0.9518  0.6845 -0.7439
  100OSM      P 9997   5.035   6.131  10.657  0.0931 -0.1794  0.1634
  100OSM    O13 9998   5.106   6.010  10.702  0.0023 -0.2912  0.2490
  100OSM    O14 9999   4.885   6.114  10.654 -0.3411 -0.2775 -0.2479
  100OSM    O1110000   5.095   6.175  10.519  0.4783 -0.1115  0.6441
  100OSM    O1210001   5.076   6.252  10.747  0.2176  0.3258  0.4977
  100OSM    C1S10002   5.016   6.172  10.397  0.0896 -0.0059 -0.0227
  100OSM    H1S10003   4.916   6.213  10.421  0.7886  0.2540  2.7965
  100OSM    H1T10004   5.004   6.067  10.364 -0.2892 -0.8478  2.5598
  100OSM     NF10005   4.961   6.277  10.195  0.6869  0.4466 -0.1750
  100OSM    HNF10006   4.955   6.222  10.112 -2.6589 -0.6172  0.6091
  100OSM    C2S10007   5.078   6.255  10.278  0.0995 -0.1504  0.2151
  100OSM    H2S10008   5.116   6.354  10.312 -1.0426 -0.4437  2.5101
  100OSM    C3S10009   5.193   6.175  10.214 -0.6343 -0.0311  0.6230
  100OSM    H3S10010   5.153   6.074  10.192 -1.3398  0.5540 -0.8531
  100OSM     O310011   5.304   6.156  10.303 -0.1553 -0.1569 -0.7955
  100OSM    HO310012   5.265   6.163  10.390 -0.3865 -2.2671 -0.6791
  100OSM    C4S10013   5.231   6.240  10.080 -0.4283  0.1859 -0.1423
  100OSM    H4S10014   5.183   6.180  10.002 -1.2652 -0.3253  0.7475
  100OSM    C5S10015   5.308   6.348  10.051  0.3570 -0.8894 -1.0890
  100OSM    H5S10016   5.363   6.388  10.137 -0.4015  0.9409 -1.4134
  100OSM    C6S10017   5.342   6.421   9.924  0.6265 -0.4134  0.4288
  100OSM    H6S10018   5.444   6.387   9.893 -0.8286 -4.4232 -0.6976
  100OSM    H6T10019   5.331   6.529   9.943 -1.3806 -0.3166 -0.9417
  100OSM    C7S10020   5.251   6.392   9.800  0.5183  0.0676  0.3113
  100OSM    H7S10021   5.151   6.427   9.832 -0.4107 -2.2662  0.1264
  100OSM    H7T10022   5.255   6.282   9.787 -2.1801  0.2204 -3.8992
  100OSM    C8S10023   5.287   6.458   9.674 -0.5068 -0.3038 -0.0478
  100OSM    H8S10024   5.377   6.408   9.632 -0.2845 -0.4107  0.5550
  100OSM    H8T10025   5.316   6.565   9.688 -1.7256  0.1073 -0.5020
  100OSM    C9S10026   5.174   6.448   9.573 -0.9078 -0.2929  0.4640
  100OSM    H9S10027   5.090   6.506   9.616  3.3995  4.1174  4.1325
  100OSM    H9T10028   5.133   6.346   9.558  1.2220 -1.0807 -0.4102
  100OSM   C10S10029   5.217   6.515   9.444 -0.1345  0.1089 -0.2455
  100OSM   H10S10030   5.308   6.461   9.409 -1.4181 -1.7296 -0.9057
  100OSM   H10T10031   5.229   6.625   9.453 -0.9202  0.2949 -1.3303
  100OSM   C11S10032   5.118   6.495   9.334  0.2253  0.6303  0.0234
  100OSM   H11S10033   5.012   6.521   9.354 -0.5960 -1.9759 -0.5668
  100OSM   H11T10034   5.110   6.386   9.311 -0.7647  0.9586 -1.3400
  100OSM   C12S10035   5.156   6.578   9.210 -0.0096 -0.1332 -0.8060
  100OSM   H12S10036   5.262   6.568   9.177 -0.0605 -0.4968 -0.8707
  100OSM   H12T10037   5.133   6.683   9.235  0.9227 -0.4186  1.4268
  100OSM   C13S10038   5.067   6.543   9.089 -0.5285  0.3834 -0.9940
  100OSM   H13S10039   4.968   6.521   9.134 -0.2472  2.0108  0.5414
  100OSM   H13T10040   5.104   6.451   9.040  3.6436  1.4484 -0.1956
  100OSM   C14S10041   5.040   6.658   8.997 -0.2999 -0.5259 -0.6879
  100OSM   H14S10042   5.127   6.703   8.945  0.3473  0.4293  1.1230
  100OSM   H14T10043   4.986   6.745   9.041  0.9256  0.4817 -1.1220
  100OSM   C15S10044   4.939   6.618   8.885  0.0540  0.0072  0.3839
  100OSM   H15S10045   4.839   6.607   8.931  1.2619  1.6514  3.6836
  100OSM   H15T10046   4.963   6.512   8.860 -0.1531 -0.6968  2.8921
  100OSM   C16S10047   4.937   6.706   8.765 -0.1444  0.5688 -0.4634
  100OSM   H16S10048   5.041   6.740   8.750  0.0599  1.4517  2.3420
  100OSM   H16T10049   4.876   6.796   8.787  0.2670  0.6351  0.4718
  100OSM   C17S10050   4.885   6.638   8.642 -0.4492  0.1475 -0.8685
  100OSM   H17S10051   4.965   6.572   8.603 -0.0161  1.5311 -2.4416
  100OSM   H17T10052   4.871   6.724   8.572 -0.9691  0.2466 -0.6494
  100OSM   C18S10053   4.753   6.560   8.653 -0.3714 -0.6686  0.0154
  100OSM   H18S10054   4.715   6.513   8.560 -2.3282  0.5229  0.1602
  100OSM   H18T10055   4.679   6.634   8.689  1.9935  1.1453  1.4282
  100OSM   H18U10056   4.751   6.487   8.736  0.0032 -0.2735  0.3770
  100OSM    C1F10057   4.865   6.366  10.215  0.4226 -0.1141 -0.3052
  100OSM     OF10058   4.860   6.436  10.316  0.5106 -0.1248  0.0346
  100OSM    C2F10059   4.755   6.373  10.114 -0.4715  1.1037 -0.0942
  100OSM    H2F10060   4.664   6.317  10.145  0.4076 -0.7520 -0.7768
  100OSM    H2G10061   4.778   6.309  10.026  0.1959  1.0593  0.1065
  100OSM    C3F10062   4.723   6.522  10.085  0.1348 -0.7423  0.3437
  100OSM    H3F10063   4.683   6.571  10.176 -0.3582  0.4938 -0.5117
  100OSM    H3G10064   4.638   6.507  10.015  0.4711 -2.6439  0.2817
  100OSM    C4F10065   4.844   6.601  10.029 -0.1837  0.1298  0.5311
  100OSM    H4F10066   4.925   6.610  10.104  0.9680  0.4496 -0.7164
  100OSM    H4G10067   4.818   6.706  10.000 -0.0685 -0.2076 -0.8912
  100OSM    C5F10068   4.905   6.536   9.908 -0.3491  0.0810 -0.4091
  100OSM    H5F10069   4.946   6.436   9.934  1.1914  0.2921 -1.8612
  100OSM    H5G10070   4.997   6.590   9.879  1.3960 -1.6762  1.5263
  100OSM    C6F10071   4.820   6.517   9.782 -0.0338  0.6187  0.0905
  100OSM    H6F10072   4.730   6.457   9.806  0.3217 -1.3000 -2.8911
  100OSM    H6G10073   4.877   6.462   9.705 -2.4125 -0.5898 -0.8918
  100OSM    C7F10074   4.771   6.642   9.714  0.6703 -0.0268  1.2178
  100OSM    H7F10075   4.852   6.718   9.710 -0.7733  1.5733  1.0657
  100OSM    H7G10076   4.691   6.687   9.778 -0.5770 -0.1709 -0.1810
  100OSM    C8F10077   4.711   6.617   9.573  0.3279 -0.2503  0.1934
  100OSM    H8F10078   4.615   6.564   9.592 -0.1940  0.9373  0.9243
  100OSM    H8G10079   4.782   6.552   9.517 -0.8049 -0.4519 -1.0726
  100OSM    C9F10080   4.687   6.745   9.502  0.6538  0.0474 -0.6632
  100OSM    H9F10081   4.657   6.830   9.565 -0.0384 -0.6539 -0.0236
  100OSM   C10F10082   4.687   6.749   9.369  0.2085 -0.8664 -0.4328
  100OSM   H10F10083   4.665   6.844   9.317  0.8559 -0.5486 -0.1398
  100OSM   C11F10084   4.723   6.639   9.275  0.4267  0.2877 -0.1159
  100OSM   H11F10085   4.716   6.536   9.316  2.5348  0.6005  1.1209
  100OSM   H11G10086   4.824   6.663   9.237 -0.2865 -0.3726 -2.6525
  100OSM   C12F10087   4.623   6.643   9.159 -0.6288 -0.4881  0.3313
  100OSM   H12F10088   4.521   6.623   9.196 -1.0136 -1.0504 -0.9691
  100OSM   H12G10089   4.631   6.552   9.096  1.0067 -1.1099  1.3498
  100OSM   C13F10090   4.644   6.759   9.057  0.0207 -0.4788  0.1411
  100OSM   H13F10091   4.749   6.780   9.028 -0.5022  1.3432 -0.6054
  100OSM   H13G10092   4.603   6.850   9.107 -1.5977 -1.1873  0.1851
  100OSM   C14F10093   4.562   6.731   8.927  0.1275  0.2198  0.1707
  100OSM   H14F10094   4.601   6.633   8.895 -0.8982 -0.5070  1.0679
  100OSM   H14G10095   4.574   6.809   8.849  1.3386 -0.4014 -0.2828
  100OSM   C15F10096   4.409   6.736   8.938  0.0023  0.1963  0.0424
  100OSM   H15F10097   4.383   6.833   8.986 -2.1418 -0.2562 -0.0843
  100OSM   H15G10098   4.374   6.652   9.002 -1.0690  0.6707  0.1095
  100OSM   C16F10099   4.340   6.745   8.800  0.4106  0.4533 -0.3076
  100OSM   H16F10100   4.356   6.658   8.732 -1.0405  0.2695 -0.4504
  100OSM   H16G10101   4.393   6.828   8.749  1.1361 -0.0945 -0.4653
  100OSM   C17F10102   4.193   6.790   8.804  0.1663 -0.0563 -0.6131
  100OSM   H17F10103   4.166   6.882   8.861  0.4310 -1.0452  1.1585
  100OSM   H17G10104   4.132   6.707   8.845  0.7808 -0.5619 -0.7073
  100OSM   C18F10105   4.144   6.814   8.653 -0.3199 -0.4369 -0.3163
  100OSM   H18F10106   4.204   6.882   8.588  0.4735 -0.6784  0.1500
  100OSM   H18G10107   4.040   6.854   8.652 -0.4632 -0.7805  0.4077
  100OSM   H18H10108   4.141   6.719   8.597 -1.3349 -0.3650 -0.4023
  101OSM      N10109   0.378   6.597  11.002  0.6808  0.0816  0.2579
  101OSM    C1510110   0.499   6.572  11.080 -0.4013 -0.5259  0.2409
  101OSM   H15A10111   0.548   6.656  11.126 -0.7666 -0.3419  0.3023
  101OSM   H15B10112   0.581   6.532  11.023  0.6143  2.8715 -0.9470
  101OSM   H15C10113   0.479   6.509  11.166  0.2554 -0.2867  0.5759
  101OSM    C1410114   0.267   6.645  11.095  0.6528 -0.3648 -0.7797
  101OSM   H14A10115   0.171   6.664  11.050  1.9956  3.4314 -2.4689
  101OSM   H14B10116   0.296   6.736  11.145  2.6119 -2.3407  1.9738
  101OSM   H14C10117   0.254   6.574  11.175 -1.2802 -0.2779 -0.9712
  101OSM    C1310118   0.404   6.699  10.899 -0.0710  0.5766 -0.1364
  101OSM   H13A10119   0.485   6.662  10.839 -0.0633 -0.8870  0.7373
  101OSM   H13B10120   0.430   6.798  10.935  2.5028  0.5264 -1.6130
  101OSM   H13C10121   0.315   6.705  10.838 -0.6562 -1.5963  0.4443
  101OSM    C1210122   0.337   6.474  10.930 -0.1015  0.6296 -0.1091
  101OSM   H12A10123   0.236   6.491  10.897 -0.0066  0.2965 -0.5959
  101OSM   H12B10124   0.324   6.396  11.003 -1.4694  3.2130  2.6039
  101OSM    C1110125   0.415   6.423  10.808 -0.2522  0.5557 -0.6065
  101OSM   H11A10126   0.419   6.506  10.734 -1.6151  1.4917  0.3047
  101OSM   H11B10127   0.351   6.340  10.769  0.9045 -1.6154  1.8457
  101OSM      P10128   0.678   6.430  10.805  0.1551 -0.0241  0.2500
  101OSM    O1310129   0.657   6.562  10.739  0.6624 -0.2248  0.6867
  101OSM    O1410130   0.772   6.418  10.921  0.1724  0.0842  0.2878
  101OSM    O1110131   0.713   6.328  10.687 -0.2043 -0.0116 -0.2600
  101OSM    O1210132   0.534   6.367  10.849  0.6962 -0.3438  0.4922
  101OSM    C1S10133   0.670   6.335  10.553  0.0732  0.1160 -0.3175
  101OSM    H1S10134   0.714   6.426  10.506  0.5148 -0.6319 -1.3687
  101OSM    H1T10135   0.564   6.367  10.551  0.2884  0.9719  0.7094
  101OSM     NF10136   0.655   6.247  10.331 -0.0166 -0.4766 -0.3612
  101OSM    HNF10137   0.567   6.211  10.299 -0.1887 -1.6157  1.2612
  101OSM    C2S10138   0.694   6.210  10.467 -0.2730  0.0293 -0.0559
  101OSM    H2S10139   0.803   6.187  10.459 -0.4275 -0.6381 -0.2863
  101OSM    C3S10140   0.623   6.082  10.523 -0.1865  0.2750 -0.6559
  101OSM    H3S10141   0.515   6.095  10.547 -0.0491  2.1498 -0.9114
  101OSM     O310142   0.669   6.030  10.650 -0.3226 -0.1720 -0.2926
  101OSM    HO310143   0.724   6.097  10.691 -1.0675 -0.0406  0.5173
  101OSM    C4S10144   0.632   5.973  10.422 -0.1089 -0.6150  0.4504
  101OSM    H4S10145   0.554   5.979  10.344  0.7321 -1.4007 -0.4756
  101OSM    C5S10146   0.724   5.880  10.401 -0.4372  0.2679  0.0109
  101OSM    H5S10147   0.814   5.875  10.464  1.3886 -2.2043 -2.5425
  101OSM    C6S10148   0.722   5.779  10.292  0.6966  0.2001  0.5600
  101OSM    H6S10149   0.695   5.681  10.336  0.3314  1.1523  2.5672
  101OSM    H6T10150   0.826   5.761  10.256  0.4177 -2.2238  0.7889
  101OSM    C7S10151   0.619   5.792  10.174 -0.2551 -0.7993  0.0298
  101OSM    H7S10152   0.634   5.885  10.114  1.4168 -1.0249  0.0362
  101OSM    H7T10153   0.515   5.811  10.208 -0.0673  1.2823 -0.4430
  101OSM    C8S10154   0.612   5.683  10.071  0.1291 -0.1678  0.1198
  101OSM    H8S10155   0.562   5.601  10.127 -4.2574  2.2312  0.1559
  101OSM    H8T10156   0.717   5.663  10.041  0.2465  0.2982  0.2176
  101OSM    C9S10157   0.527   5.716   9.951  0.0802  0.6709 -0.1603
  101OSM    H9S10158   0.559   5.817   9.918  2.5180  0.4199  1.1638
  101OSM    H9T10159   0.420   5.720   9.981 -1.1872  0.6121 -4.0845
  101OSM   C10S10160   0.529   5.605   9.842  0.3122 -0.2979  0.7815
  101OSM   H10S10161   0.505   5.509   9.893 -1.3891  0.4126  1.3723
  101OSM   H10T10162   0.629   5.596   9.793 -0.7981 -1.3092 -1.4727
  101OSM   C11S10163   0.439   5.643   9.724  0.4686  0.5777  1.1249
  101OSM   H11S10164   0.478   5.735   9.678  0.6294  0.2606  0.6208
  101OSM   H11T10165   0.335   5.655   9.761 -0.3932 -0.9784 -0.6311
  101OSM   C12S10166   0.449   5.533   9.614  0.0754  0.0761  0.3723
  101OSM   H12S10167   0.407   5.434   9.640 -0.6111 -0.0663 -1.1103
  101OSM   H12T10168   0.558   5.518   9.597 -0.0153 -0.5962  0.3623
  101OSM   C13S10169   0.384   5.581   9.477  0.1826  0.7159 -0.7053
  101OSM   H13S10170   0.426   5.676   9.438 -0.9258  1.0380 -1.1399
  101OSM   H13T10171   0.273   5.585   9.481  0.0680 -1.5428  0.4941
  101OSM   C14S10172   0.409   5.473   9.364  0.2271 -0.2881 -0.0205
  101OSM   H14S10173   0.364   5.509   9.269  1.2213 -1.2911 -0.8973
  101OSM   H14T10174   0.375   5.374   9.403  1.2828  0.6910  3.8306
  101OSM   C15S10175   0.564   5.446   9.349 -0.5529  0.0121  0.7467
  101OSM   H15S10176   0.610   5.408   9.443 -0.5057  0.1579  0.7823
  101OSM   H15T10177   0.610   5.546   9.337  0.5745 -0.6315 -0.5194
  101OSM   C16S10178   0.595   5.361   9.227  0.0965 -0.4006  0.0467
  101OSM   H16S10179   0.514   5.285   9.225 -3.0576  2.6869 -2.0457
  101OSM   H16T10180   0.686   5.302   9.249 -0.1851 -0.3355  1.4717
  101OSM   C17S10181   0.618   5.436   9.101  0.2294 -0.3089 -0.3448
  101OSM   H17S10182   0.696   5.515   9.115 -1.2828  2.0258 -3.6664
  101OSM   H17T10183   0.528   5.493   9.068 -0.1432 -2.0632 -2.5491
  101OSM   C18S10184   0.666   5.347   8.990  0.1541  0.5464  0.5030
  101OSM   H18S10185   0.773   5.322   9.004 -0.3941 -2.1694  0.2809
  101OSM   H18T10186   0.648   5.395   8.891  0.5761 -1.6809 -0.7045
  101OSM   H18U10187   0.605   5.254   8.990  0.8260  0.0948 -0.0806
  101OSM    C1F10188   0.716   6.345  10.261  0.0320 -0.5802 -0.3990
  101OSM     OF10189   0.831   6.384  10.282  0.3540 -0.2010 -0.6824
  101OSM    C2F10190   0.645   6.409  10.148  0.1087 -0.3183  0.0067
  101OSM    H2F10191   0.654   6.518  10.169  1.0182  0.1437 -2.3873
  101OSM    H2G10192   0.538   6.377  10.148 -0.5782  1.7690 -1.2481
  101OSM    C3F10193   0.709   6.382  10.010  0.1325 -0.2681 -0.3179
  101OSM    H3F10194   0.722   6.272  10.005 -2.5564 -0.6303 -0.8044
  101OSM    H3G10195   0.805   6.437  10.007 -1.7310  3.1699 -2.2953
  101OSM    C4F10196   0.636   6.423   9.879  0.2573  0.0915 -0.5752
  101OSM    H4F10197   0.607   6.531   9.887  1.0312  0.3428 -1.0796
  101OSM    H4G10198   0.545   6.359   9.882  0.3060  0.0292 -0.4579
  101OSM    C5F10199   0.707   6.387   9.747  0.7102 -0.2918 -0.2547
  101OSM    H5F10200   0.723   6.277   9.747  1.3488 -0.2268  1.1966
  101OSM    H5G10201   0.811   6.426   9.752  0.1650  1.0562  1.9857
  101OSM    C6F10202   0.642   6.431   9.614 -0.5293 -0.2968  0.3011
  101OSM    H6F10203   0.634   6.542   9.619 -0.4714 -0.3308  2.7569
  101OSM    H6G10204   0.712   6.395   9.536 -2.3008 -1.8996 -0.6158
  101OSM    C7F10205   0.504   6.376   9.586 -0.2205  0.2856  0.5536
  101OSM    H7F10206   0.475   6.286   9.646 -0.9518 -0.3969 -0.7852
  101OSM    H7G10207   0.502   6.339   9.481  0.0146  2.0253 -0.0841
  101OSM    C8F10208   0.391   6.473   9.591  0.0828 -0.6610 -0.1685
  101OSM    H8F10209   0.403   6.556   9.518  0.0469  1.3322  1.9717
  101OSM    H8G10210   0.384   6.518   9.693 -1.0437  1.0939 -0.9609
  101OSM    C9F10211   0.250   6.419   9.550  0.1110 -0.0109 -0.4128
  101OSM    H9F10212   0.179   6.411   9.633 -0.2498 -1.1473 -0.8139
  101OSM   C10F10213   0.222   6.379   9.425 -0.7017 -0.6506 -0.8271
  101OSM   H10F10214   0.119   6.340   9.417 -1.7504  1.2068  2.1733
  101OSM   C11F10215   0.305   6.379   9.301  0.4556  0.0557 -0.6269
  101OSM   H11F10216   0.338   6.276   9.276  0.9388 -0.3714  1.5625
  101OSM   H11G10217   0.402   6.427   9.327  0.0169  0.8317 -0.3652
  101OSM   C12F10218   0.239   6.459   9.189 -0.0024 -0.1944  0.4888
  101OSM   H12F10219   0.134   6.422   9.185 -0.1254  0.0531  1.2758
  101OSM   H12G10220   0.298   6.440   9.097  0.0181 -1.8242  0.8178
  101OSM   C13F10221   0.235   6.609   9.211 -1.0564 -0.2503  0.0630
  101OSM   H13F10222   0.339   6.643   9.231 -0.6948 -1.9639  1.3290
  101OSM   H13G10223   0.185   6.630   9.308 -3.9257 -0.2721 -1.3249
  101OSM   C14F10224   0.180   6.689   9.092 -0.7482  0.3384  0.1099
  101OSM   H14F10225   0.084   6.643   9.060 -0.7584 -0.4586  1.2157
  101OSM   H14G10226   0.254   6.674   9.011 -2.7419 -0.2905 -1.6852
  101OSM   C15F10227   0.162   6.837   9.127 -0.4930  0.0637 -0.2995
  101OSM   H15F10228   0.258   6.862   9.178 -0.7729  1.6260 -0.5101
  101OSM   H15G10229   0.078   6.851   9.198 -0.0422  1.4710 -0.0155
  101OSM   C16F10230   0.142   6.940   9.012 -0.6208  0.7221  0.8713
  101OSM   H16F10231   0.075   6.898   8.934  2.0270 -3.8454  0.7010
  101OSM   H16G10232   0.240   6.953   8.961 -0.6749  3.0492  1.2338
  101OSM   C17F10233   0.100   7.080   9.064  0.4760  0.4138 -0.0644
  101OSM   H17F10234   0.195   7.118   9.106  0.3428 -0.0461  0.6645
  101OSM   H17G10235   0.027   7.073   9.147 -0.3407  0.5681 -0.7458
  101OSM   C18F10236   0.051   7.184   8.967  0.1198 -0.6104  0.7248
  101OSM   H18F10237  -0.054   7.164   8.937 -0.0598 -0.2010  1.0680
  101OSM   H18G10238   0.113   7.178   8.875  0.1917 -0.4542  0.7630
  101OSM   H18H10239   0.077   7.285   9.006 -1.2612  0.8976 -1.9758
  102OSM      N10240   4.308   2.042  10.920 -0.0599  0.2742 -0.3228
  102OSM    C1510241   4.416   2.129  10.850 -0.0864  0.8964 -0.0907
  102OSM   H15A10242   4.420   2.093  10.748 -0.4933  1.3607 -0.2755
  102OSM   H15B10243   4.511   2.115  10.898  0.8333  3.4890 -0.9722
  102OSM   H15C10244   4.400   2.235  10.864  1.3365  1.2099 -0.7577
  102OSM    C1410245   4.366   1.906  10.928 -0.1749  0.0240 -0.2796
  102OSM   H14A10246   4.469   1.914  10.962 -0.8573  1.5197  1.6339
  102OSM   H14B10247   4.359   1.853  10.835  1.2934  0.3289 -0.5904
  102OSM   H14C10248   4.307   1.849  10.998  0.0191 -0.4375 -0.4927
  102OSM    C1310249   4.289   2.097  11.057  0.2292  0.0307  0.3363
  102OSM   H13A10250   4.229   2.030  11.117 -0.8227  0.8598  0.2353
  102OSM   H13B10251   4.251   2.198  11.049  1.2403  0.4682  0.8148
  102OSM   H13C10252   4.387   2.112  11.101 -0.0129  1.2002  0.4988
  102OSM    C1210253   4.176   2.041  10.845 -0.2818  0.2766 -0.7392
  102OSM   H12A10254   4.121   2.133  10.858  1.8631  2.2059 -4.0444
  102OSM   H12B10255   4.105   1.977  10.896 -0.7959  1.2831 -0.1613
  102OSM    C1110256   4.171   1.991  10.697  0.0882 -0.4371 -0.0256
  102OSM   H11A10257   4.249   2.055  10.651  1.4875 -1.5274  0.7502
  102OSM   H11B10258   4.076   2.000  10.640 -0.5626  1.7221  1.2701
  102OSM      P10259   4.148   1.731  10.725  0.3818  0.0775  0.1179
  102OSM    O1310260   4.233   1.666  10.820  0.4277 -0.3964 -0.3225
  102OSM    O1410261   4.012   1.757  10.773  0.3442 -0.3421 -0.4706
  102OSM    O1110262   4.139   1.649  10.595  0.0694  0.8216 -0.0254
  102OSM    O1210263   4.223   1.864  10.676 -0.4302  0.5374 -0.4145
  102OSM    C1S10264   4.259   1.602  10.536 -0.2355  0.9374  0.1020
  102OSM    H1S10265   4.302   1.522  10.599 -1.2358 -0.6842 -1.1893
  102OSM    H1T10266   4.335   1.683  10.536  1.0263 -0.2092  1.0191
  102OSM     NF10267   4.365   1.501  10.323  0.9091 -0.4224 -0.2331
  102OSM    HNF10268   4.424   1.557  10.264  1.8418 -1.0479  0.0831
  102OSM    C2S10269   4.246   1.565  10.381  0.8870 -0.1840 -0.1764
  102OSM    H2S10270   4.162   1.491  10.375 -0.2708  1.1425 -0.9095
  102OSM    C3S10271   4.203   1.691  10.307  0.7292 -0.7554  0.6739
  102OSM    H3S10272   4.285   1.760  10.338  1.5933 -1.1666 -0.5744
  102OSM     O310273   4.082   1.752  10.354  0.5737 -0.2807 -0.2948
  102OSM    HO310274   4.072   1.716  10.442  1.6426  1.9687  0.8329
  102OSM    C4S10275   4.204   1.676  10.159  0.0819  0.7474  0.0980
  102OSM    H4S10276   4.308   1.692  10.126  0.0870  0.4464 -0.0272
  102OSM    C5S10277   4.104   1.647  10.072  0.0272  1.1341  0.3113
  102OSM    H5S10278   4.002   1.644  10.113 -0.8338  2.0323 -1.6350
  102OSM    C6S10279   4.104   1.624   9.922  0.2699 -0.3807  0.5982
  102OSM    H6S10280   4.053   1.712   9.877  0.3968 -0.9192 -0.6689
  102OSM    H6T10281   4.035   1.538   9.907 -0.4817  0.4827 -1.1378
  102OSM    C7S10282   4.250   1.598   9.857  0.2526 -0.1851 -0.4363
  102OSM    H7S10283   4.286   1.517   9.924 -3.4609 -0.8516  1.0018
  102OSM    H7T10284   4.303   1.695   9.870  1.8396 -1.1156  0.3773
  102OSM    C8S10285   4.239   1.571   9.707 -0.4896  0.3424  0.6202
  102OSM    H8S10286   4.175   1.484   9.683 -0.0134  0.1806 -0.0736
  102OSM    H8T10287   4.346   1.559   9.678 -1.3209 -3.8184 -1.3929
  102OSM    C9S10288   4.180   1.692   9.630  0.0052  0.1442  0.1238
  102OSM    H9S10289   4.234   1.786   9.655 -1.3515  1.0238 -0.1285
  102OSM    H9T10290   4.073   1.709   9.658 -0.2598  0.1552 -0.8327
  102OSM   C10S10291   4.167   1.657   9.480 -0.2432 -0.5998  0.9005
  102OSM   H10S10292   4.087   1.583   9.463  1.8505 -2.9856  0.8544
  102OSM   H10T10293   4.260   1.602   9.452 -0.1180  0.8520 -1.8695
  102OSM   C11S10294   4.144   1.775   9.383 -0.1539  0.4805 -0.1791
  102OSM   H11S10295   4.231   1.843   9.371  0.1343  0.4982  1.7344
  102OSM   H11T10296   4.063   1.839   9.425  1.1766  0.1640  3.1699
  102OSM   C12S10297   4.101   1.731   9.243  0.5879 -0.2142 -0.2082
  102OSM   H12S10298   4.035   1.642   9.254 -1.2013  0.6400 -3.1212
  102OSM   H12T10299   4.192   1.699   9.188  0.3072 -0.3369 -0.6099
  102OSM   C13S10300   4.023   1.848   9.177  0.3065 -0.4812  0.3356
  102OSM   H13S10301   4.080   1.944   9.168 -0.3565  0.0314  1.4178
  102OSM   H13T10302   3.940   1.867   9.249 -0.3301 -0.1549 -0.4674
  102OSM   C14S10303   3.971   1.807   9.035 -0.0192 -0.2077 -0.2557
  102OSM   H14S10304   3.905   1.884   8.990  1.8538  0.2481 -2.4274
  102OSM   H14T10305   3.914   1.712   9.040  2.7634 -2.0074 -0.6799
  102OSM   C15S10306   4.093   1.790   8.936 -0.2537  0.1805 -0.1949
  102OSM   H15S10307   4.173   1.732   8.986  2.6124  1.6613 -2.7185
  102OSM   H15T10308   4.127   1.894   8.915 -1.3178  0.5304 -0.2268
  102OSM   C16S10309   4.053   1.727   8.798 -0.1734 -0.2707  0.3149
  102OSM   H16S10310   4.064   1.617   8.808  1.2787  0.0204  2.7375
  102OSM   H16T10311   4.130   1.760   8.724  0.3547  2.0697  1.8021
  102OSM   C17S10312   3.913   1.773   8.755 -0.4648 -0.4514 -0.5511
  102OSM   H17S10313   3.895   1.880   8.774  1.2097 -0.7603  3.8394
  102OSM   H17T10314   3.833   1.728   8.818 -1.4536  1.1193 -0.6429
  102OSM   C18S10315   3.883   1.737   8.607 -1.1729 -0.3255 -0.1403
  102OSM   H18S10316   3.802   1.804   8.572  0.0481  0.8262 -0.8738
  102OSM   H18T10317   3.862   1.628   8.599 -0.3923 -0.5886  1.1542
  102OSM   H18U10318   3.968   1.763   8.541 -1.4522 -0.4450 -0.5553
  102OSM    C1F10319   4.400   1.377  10.352  0.1683 -0.6279  0.3340
  102OSM     OF10320   4.327   1.301  10.420  0.6986 -0.1882 -0.0486
  102OSM    C2F10321   4.535   1.325  10.310 -0.4030 -0.0927  0.2834
  102OSM    H2F10322   4.562   1.251  10.388 -1.6152  0.8446  1.6543
  102OSM    H2G10323   4.610   1.406  10.296  0.1770 -0.6795 -0.0792
  102OSM    C3F10324   4.529   1.241  10.180 -0.1805  0.0156 -0.2052
  102OSM    H3F10325   4.449   1.165  10.175 -0.5583  0.3939 -0.0000
  102OSM    H3G10326   4.623   1.182  10.173  0.8608  1.6505 -0.8023
  102OSM    C4F10327   4.520   1.334  10.051 -0.0162 -0.1046 -0.3334
  102OSM    H4F10328   4.592   1.418  10.062 -0.9244  0.7195 -0.5109
  102OSM    H4G10329   4.420   1.379  10.034 -0.8897 -1.4798  0.9185
  102OSM    C5F10330   4.564   1.257   9.927  0.5949  0.7076  0.6815
  102OSM    H5F10331   4.500   1.167   9.932 -0.0933  0.8669 -2.6012
  102OSM    H5G10332   4.669   1.225   9.938  0.6962  0.8271  0.1102
  102OSM    C6F10333   4.527   1.315   9.791 -0.1919  0.3186 -0.8346
  102OSM    H6F10334   4.567   1.418   9.775 -0.0530  0.3608 -0.2370
  102OSM    H6G10335   4.416   1.324   9.786 -0.1452  1.6080 -0.1911
  102OSM    C7F10336   4.587   1.234   9.669 -0.0495  0.1406  0.0081
  102OSM    H7F10337   4.555   1.131   9.694  1.7793 -0.3296  0.5533
  102OSM    H7G10338   4.697   1.245   9.659 -0.1756  1.3831 -0.1967
  102OSM    C8F10339   4.521   1.267   9.537  0.5673 -1.2599 -0.3579
  102OSM    H8F10340   4.412   1.267   9.561  1.0204 -2.5916  2.0132
  102OSM    H8G10341   4.537   1.180   9.471  1.3016 -0.9898 -0.5431
  102OSM    C9F10342   4.575   1.400   9.476  0.2107  0.8067 -0.2770
  102OSM    H9F10343   4.669   1.438   9.520  0.5491  0.6248 -0.8349
  102OSM   C10F10344   4.520   1.469   9.376  0.0548  0.0301  0.5146
  102OSM   H10F10345   4.581   1.555   9.344 -0.8646  0.3327 -0.4737
  102OSM   C11F10346   4.395   1.443   9.291 -0.5000 -0.4627 -0.6240
  102OSM   H11F10347   4.344   1.537   9.262 -0.5793 -0.9518 -2.1244
  102OSM   H11G10348   4.326   1.383   9.355  2.1728 -1.7312  1.2747
  102OSM   C12F10349   4.422   1.361   9.173  0.3812 -0.2769 -0.2586
  102OSM   H12F10350   4.443   1.256   9.205 -0.0773 -0.8604 -1.7786
  102OSM   H12G10351   4.512   1.392   9.116 -0.8801 -0.0367 -2.2196
  102OSM   C13F10352   4.304   1.352   9.073 -0.0681  0.0004 -0.1082
  102OSM   H13F10353   4.301   1.437   9.002 -1.4523  1.9688  2.1540
  102OSM   H13G10354   4.207   1.334   9.124 -0.9953  2.2966 -0.9632
  102OSM   C14F10355   4.328   1.221   8.982  0.2791  0.5023  0.3709
  102OSM   H14F10356   4.435   1.201   8.960 -0.1657  0.0104 -1.5593
  102OSM   H14G10357   4.280   1.236   8.883  0.5077  0.3122  0.2312
  102OSM   C15F10358   4.283   1.089   9.055  0.5453 -0.2437  0.0877
  102OSM   H15F10359   4.177   1.114   9.078 -0.1157 -2.9621  0.3723
  102OSM   H15G10360   4.334   1.079   9.153 -0.1173 -0.0854  0.4545
  102OSM   C16F10361   4.294   0.974   8.960 -0.4154  0.6052 -0.3616
  102OSM   H16F10362   4.395   0.929   8.968 -1.1090 -0.9621  0.0977
  102OSM   H16G10363   4.290   1.017   8.858  1.8183  1.2203 -0.2358
  102OSM   C17F10364   4.189   0.856   8.967  0.8003 -0.0345  0.0105
  102OSM   H17F10365   4.199   0.787   8.880 -0.2091 -0.9107  0.5727
  102OSM   H17G10366   4.091   0.907   8.954  1.3132  0.6624 -1.3584
  102OSM   C18F10367   4.170   0.780   9.097 -0.6758  0.1357 -0.5067
  102OSM   H18F10368   4.094   0.829   9.162 -2.6703 -1.9390 -1.1310
  102OSM   H18G10369   4.261   0.761   9.157 -1.5871  0.6236  1.1035
  102OSM   H18H10370   4.128   0.678   9.083  1.4459 -0.9242  0.4333
  103OSM      N10371   1.519   4.148  10.980  0.5639 -0.5378 -0.0675
  103OSM    C1510372   1.537   4.027  11.065  0.0153 -0.1847  1.1144
  103OSM   H15A10373   1.479   3.943  11.028 -1.8378  1.3885  0.2555
  103OSM   H15B10374   1.525   4.043  11.171  1.8171  4.1690  0.8733
  103OSM   H15C10375   1.638   3.995  11.049 -0.5249 -0.4270 -2.6809
  103OSM    C1410376   1.495   4.108  10.839 -0.6273 -0.7146 -0.1842
  103OSM   H14A10377   1.513   4.188  10.769  0.0048 -0.2852  0.4624
  103OSM   H14B10378   1.395   4.070  10.823 -1.4285  1.2985 -0.1776
  103OSM   H14C10379   1.564   4.030  10.808  1.2644 -0.4496  2.9227
  103OSM    C1310380   1.390   4.215  11.022 -0.1609 -0.4237 -0.9099
  103OSM   H13A10381   1.400   4.264  11.118  0.6271 -0.5478 -0.9209
  103OSM   H13B10382   1.316   4.140  11.041  0.5774 -0.8095  0.5642
  103OSM   H13C10383   1.344   4.278  10.947  1.1208  1.0168 -0.5301
  103OSM    C1210384   1.634   4.239  11.007  0.4547  0.7849  0.7706
  103OSM   H12A10385   1.658   4.257  11.111  0.5647  2.2956  0.5020
  103OSM   H12B10386   1.617   4.333  10.957  0.3405  0.3288 -0.0751
  103OSM    C1110387   1.769   4.188  10.940  0.6882 -0.2150 -0.1049
  103OSM   H11A10388   1.840   4.266  10.975 -0.1344  0.9405 -0.8859
  103OSM   H11B10389   1.757   4.197  10.830 -0.8714 -0.5528  0.0156
  103OSM      P10390   1.865   3.945  10.884 -0.4866 -0.2090 -0.0079
  103OSM    O1310391   1.909   3.830  10.968 -0.1214  0.1126 -0.1719
  103OSM    O1410392   1.750   3.917  10.789 -0.1458  0.2256  0.5665
  103OSM    O1110393   1.987   4.014  10.814 -0.2135 -0.9508 -0.2036
  103OSM    O1210394   1.810   4.059  10.988 -0.2417  0.1758  0.4112
  103OSM    C1S10395   2.036   3.966  10.686 -0.6675 -0.2340 -0.9253
  103OSM    H1S10396   1.977   3.878  10.650 -0.9513 -0.3751 -0.1385
  103OSM    H1T10397   2.135   3.919  10.705 -1.4088 -1.5948 -0.2335
  103OSM     NF10398   2.099   4.030  10.445 -0.2602 -0.1365 -0.2165
  103OSM    HNF10399   2.191   4.057  10.418 -0.0655  1.3096  1.7196
  103OSM    C2S10400   2.050   4.077  10.571  0.4267 -0.4446  0.2245
  103OSM    H2S10401   1.953   4.126  10.550  0.4545 -0.7599 -0.6685
  103OSM    C3S10402   2.141   4.194  10.626  0.6728  0.3050  0.2552
  103OSM    H3S10403   2.236   4.152  10.664  1.0519 -0.2226 -1.2147
  103OSM     O310404   2.093   4.266  10.742  0.5020 -0.3701  0.4122
  103OSM    HO310405   2.051   4.199  10.797  0.3571 -0.2336  0.4703
  103OSM    C4S10406   2.175   4.290  10.520  0.1981 -0.1029  0.5129
  103OSM    H4S10407   2.092   4.318  10.453 -0.1040  0.1483  0.9868
  103OSM    C5S10408   2.296   4.332  10.484 -0.2309  0.2662 -0.2346
  103OSM    H5S10409   2.382   4.281  10.530  0.2503  0.0184 -1.3750
  103OSM    C6S10410   2.333   4.418  10.367  0.2105 -0.4911  0.6211
  103OSM    H6S10411   2.417   4.487  10.392  1.6109 -2.1940  0.8206
  103OSM    H6T10412   2.247   4.481  10.335  0.5075 -0.0950  0.5947
  103OSM    C7S10413   2.390   4.339  10.241  0.4305 -0.3376 -0.6150
  103OSM    H7S10414   2.468   4.269  10.278  1.5129  0.6813 -0.8987
  103OSM    H7T10415   2.448   4.413  10.181 -0.4445  2.6285  1.9162
  103OSM    C8S10416   2.290   4.258  10.162  0.0908 -0.2690 -0.3304
  103OSM    H8S10417   2.200   4.321  10.149 -0.7458 -1.8017 -2.6271
  103OSM    H8T10418   2.268   4.168  10.223 -0.1669 -0.3292 -0.5119
  103OSM    C9S10419   2.335   4.229  10.022 -0.2144  0.0672 -0.4869
  103OSM    H9S10420   2.278   4.147   9.973 -0.6349 -0.9429  1.5592
  103OSM    H9T10421   2.439   4.196  10.044  0.5504  1.7403 -1.3633
  103OSM   C10S10422   2.333   4.344   9.924  0.3321 -0.2480  0.4490
  103OSM   H10S10423   2.391   4.428   9.966  2.0173 -0.6242 -1.0055
  103OSM   H10T10424   2.229   4.382   9.911 -0.2845 -2.3220 -1.4705
  103OSM   C11S10425   2.372   4.301   9.782 -0.0796  0.9965 -0.3993
  103OSM   H11S10426   2.305   4.219   9.750  0.4403 -0.0788  1.1538
  103OSM   H11T10427   2.474   4.260   9.779  0.5992  2.3993  1.3504
  103OSM   C12S10428   2.372   4.411   9.672  0.0619  0.3497 -0.1476
  103OSM   H12S10429   2.463   4.473   9.687 -0.3588  1.1576 -0.8805
  103OSM   H12T10430   2.287   4.481   9.693  0.0760  0.4179 -0.3175
  103OSM   C13S10431   2.371   4.356   9.529 -0.4745  0.1204 -0.2199
  103OSM   H13S10432   2.285   4.286   9.516 -0.5373  0.2947 -0.7522
  103OSM   H13T10433   2.470   4.305   9.520 -0.4908  0.2504 -1.1960
  103OSM   C14S10434   2.372   4.451   9.414 -0.0409 -0.2241 -0.2276
  103OSM   H14S10435   2.435   4.541   9.434 -2.0419  0.7338  2.4578
  103OSM   H14T10436   2.271   4.493   9.393  0.7485  2.3076  0.6292
  103OSM   C15S10437   2.421   4.387   9.284 -0.5369 -0.0965 -0.1370
  103OSM   H15S10438   2.371   4.288   9.273 -0.1802 -0.4769  1.4363
  103OSM   H15T10439   2.525   4.356   9.304 -0.3191  0.1106 -0.9019
  103OSM   C16S10440   2.406   4.479   9.157 -0.1570 -0.3672 -0.0499
  103OSM   H16S10441   2.445   4.575   9.196 -0.2256 -1.1209  1.9881
  103OSM   H16T10442   2.298   4.479   9.132  0.4723 -0.6331 -3.2151
  103OSM   C17S10443   2.486   4.425   9.037 -0.3789  0.1946 -0.8984
  103OSM   H17S10444   2.452   4.321   9.017  1.3277 -0.6480  0.3083
  103OSM   H17T10445   2.592   4.417   9.070 -0.6097  1.6553  0.3602
  103OSM   C18S10446   2.460   4.514   8.918 -0.6257 -0.6835 -0.0200
  103OSM   H18S10447   2.352   4.532   8.898 -0.5824  1.3699  1.3871
  103OSM   H18T10448   2.510   4.462   8.833  1.3343  0.1964  0.5580
  103OSM   H18U10449   2.504   4.613   8.938  2.3298 -1.5403 -1.6813
  103OSM    C1F10450   2.041   3.926  10.387 -1.6180  1.0597  0.3059
  103OSM     OF10451   1.931   3.886  10.412 -0.2269  0.1312 -0.0791
  103OSM    C2F10452   2.124   3.846  10.290  0.7086 -0.0103 -0.0465
  103OSM    H2F10453   2.176   3.768  10.350  1.7032 -0.1202 -1.0226
  103OSM    H2G10454   2.188   3.924  10.243  1.5414 -0.7982 -0.2534
  103OSM    C3F10455   2.031   3.795  10.184 -0.0687 -0.7002  0.2740
  103OSM    H3F10456   1.946   3.866  10.171  0.5480  0.2058  1.0491
  103OSM    H3G10457   1.991   3.692  10.193 -2.0618  0.1724  2.5765
  103OSM    C4F10458   2.096   3.803  10.051 -0.2750 -0.3362 -0.1334
  103OSM    H4F10459   2.179   3.732  10.034 -0.6243 -0.8769  0.3873
  103OSM    H4G10460   2.138   3.903  10.027 -1.1326 -0.3809 -2.1019
  103OSM    C5F10461   1.986   3.788   9.937  0.1601 -0.2664  0.1814
  103OSM    H5F10462   1.903   3.857   9.961 -0.5368  1.6600 -6.1353
  103OSM    H5G10463   1.952   3.682   9.939  0.4501 -0.3584  0.4563
  103OSM    C6F10464   2.036   3.834   9.795  0.2974  0.2346  0.1135
  103OSM    H6F10465   2.089   3.931   9.794  0.7317  0.0035 -0.6576
  103OSM    H6G10466   1.951   3.844   9.724 -0.9014  0.2360  1.5065
  103OSM    C7F10467   2.126   3.732   9.722  0.3475  0.0680 -0.6800
  103OSM    H7F10468   2.075   3.637   9.746 -1.6586  1.6031  1.5691
  103OSM    H7G10469   2.227   3.737   9.767  0.7000  2.2482 -1.5623
  103OSM    C8F10470   2.140   3.763   9.567 -0.1773  0.0049  0.6980
  103OSM    H8F10471   2.050   3.724   9.515 -2.0209  3.0473  1.3863
  103OSM    H8G10472   2.227   3.700   9.538 -0.3052 -0.6561  1.7111
  103OSM    C9F10473   2.162   3.906   9.543 -0.0668 -0.3827 -0.2651
  103OSM    H9F10474   2.224   3.953   9.622 -0.4815 -0.8410  0.3435
  103OSM   C10F10475   2.141   3.969   9.429  0.1980  0.0897  0.6217
  103OSM   H10F10476   2.189   4.066   9.412 -0.7961  0.5546  0.3632
  103OSM   C11F10477   2.069   3.900   9.311 -0.7751 -0.0347  0.3518
  103OSM   H11F10478   2.090   3.791   9.305 -1.5931 -0.1833  0.1635
  103OSM   H11G10479   2.112   3.939   9.216  1.0181  1.0130  1.5169
  103OSM   C12F10480   1.919   3.920   9.292 -0.0656  0.2732 -0.5761
  103OSM   H12F10481   1.905   4.030   9.290  0.4095  0.4333  1.7019
  103OSM   H12G10482   1.850   3.887   9.373 -1.4854  0.5635 -1.6320
  103OSM   C13F10483   1.872   3.854   9.158 -0.5751  0.2183  0.6729
  103OSM   H13F10484   1.764   3.825   9.158 -0.0628 -1.9528 -1.3610
  103OSM   H13G10485   1.929   3.761   9.139  0.5680  0.9739  0.3461
  103OSM   C14F10486   1.905   3.953   9.044  0.0015 -0.8926 -0.1406
  103OSM   H14F10487   2.012   3.983   9.051  0.7786 -3.7799  2.3776
  103OSM   H14G10488   1.841   4.040   9.072 -0.5190 -1.2621 -0.1675
  103OSM   C15F10489   1.871   3.889   8.908 -0.4429  0.1242 -0.8066
  103OSM   H15F10490   1.872   3.972   8.834 -1.1702  0.4977 -0.4108
  103OSM   H15G10491   1.768   3.848   8.909 -0.5619  0.3661 -1.9231
  103OSM   C16F10492   1.983   3.791   8.864  0.1453 -0.1150  0.1774
  103OSM   H16F10493   1.955   3.738   8.770  2.1915 -0.5663 -0.2423
  103OSM   H16G10494   1.986   3.703   8.932 -1.0224  0.9168  1.6117
  103OSM   C17F10495   2.118   3.854   8.839  0.2477 -0.3167  0.4915
  103OSM   H17F10496   2.180   3.859   8.932 -0.4060  0.5957  0.8924
  103OSM   H17G10497   2.094   3.960   8.818  0.2788 -0.2259  0.8939
  103OSM   C18F10498   2.196   3.791   8.725  0.0204  0.6879 -0.4947
  103OSM   H18F10499   2.227   3.687   8.751  0.8703  0.6330 -1.6331
  103OSM   H18G10500   2.287   3.852   8.707 -1.5242  2.8969 -1.2322
  103OSM   H18H10501   2.128   3.784   8.638  0.0015 -0.3472 -0.4027
  104OSM      N10502   2.783   2.521  11.019 -0.5743  0.4700  0.4472
  104OSM    C1510503   2.679   2.422  11.049 -0.1299  0.5522  0.1390
  104OSM   H15A10504   2.589   2.471  11.081  0.5024  1.7940  0.0804
  104OSM   H15B10505   2.714   2.372  11.138  1.3204 -1.5835 -1.4979
  104OSM   H15C10506   2.663   2.360  10.962  0.7254  2.8466 -1.7681
  104OSM    C1410507   2.786   2.626  11.130  0.3557 -0.6668 -0.2742
  104OSM   H14A10508   2.701   2.693  11.133  0.3465 -0.7144  0.7656
  104OSM   H14B10509   2.870   2.691  11.113  0.2422 -0.4846 -0.1439
  104OSM   H14C10510   2.795   2.583  11.228  1.4766  0.5638  0.1902
  104OSM    C1310511   2.916   2.449  11.016 -0.5119 -0.0881 -0.1897
  104OSM   H13A10512   2.933   2.377  10.938  3.2552  0.2163  0.1518
  104OSM   H13B10513   2.926   2.395  11.109  0.6637  0.2344 -0.1132
  104OSM   H13C10514   3.002   2.514  11.024 -0.9846  0.6561 -1.0576
  104OSM    C1210515   2.759   2.595  10.891  0.3238  0.0134  0.6119
  104OSM   H12A10516   2.658   2.633  10.899  0.1081 -0.7561  1.6091
  104OSM   H12B10517   2.748   2.530  10.805 -0.8802 -0.3368  1.0110
  104OSM    C1110518   2.859   2.710  10.853  0.2816 -0.4269  0.6264
  104OSM   H11A10519   2.831   2.740  10.750  0.4517  0.5347  0.8447
  104OSM   H11B10520   2.961   2.667  10.847  0.2349 -0.2863 -2.3109
  104OSM      P10521   2.991   2.914  10.925 -0.4583 -0.1437  0.2018
  104OSM    O1310522   2.958   3.046  10.988 -0.6006 -0.2855 -0.2783
  104OSM    O1410523   3.109   2.842  10.973 -0.2547  0.5113  0.0570
  104OSM    O1110524   3.022   2.938  10.772 -0.7446  0.4787  0.5609
  104OSM    O1210525   2.862   2.827  10.935  0.0548  0.0666  0.0204
  104OSM    C1S10526   2.923   2.999  10.689 -0.0957  0.4792 -0.4156
  104OSM    H1S10527   2.882   3.092  10.733 -2.3832 -0.4400 -0.4399
  104OSM    H1T10528   2.837   2.932  10.667  0.3101 -0.4424  0.6688
  104OSM     NF10529   2.861   3.068  10.475 -0.4750  0.1832  0.1409
  104OSM    HNF10530   2.833   3.014  10.396 -0.1931  0.3008 -0.0410
  104OSM    C2S10531   2.977   3.031  10.555 -0.6442  0.2827 -0.4076
  104OSM    H2S10532   3.037   3.125  10.564 -0.0239 -0.1061 -0.4125
  104OSM    C3S10533   3.084   2.928  10.499 -0.0058 -0.2047  0.0541
  104OSM    H3S10534   3.031   2.832  10.510 -2.9196  1.1695 -0.9397
  104OSM     O310535   3.205   2.936  10.570 -0.1123 -0.6604  0.0830
  104OSM    HO310536   3.182   2.991  10.646 -0.4877  0.1449 -0.6034
  104OSM    C4S10537   3.106   2.949  10.357 -0.2660 -0.3459  0.6697
  104OSM    H4S10538   3.095   2.860  10.292  0.3671 -0.4009  0.6269
  104OSM    C5S10539   3.153   3.061  10.303 -0.3841  0.0016 -0.0157
  104OSM    H5S10540   3.202   3.133  10.371 -0.3135  0.4279 -0.5158
  104OSM    C6S10541   3.177   3.074  10.152  0.0861  0.9833 -0.0931
  104OSM    H6S10542   3.137   3.175  10.129 -1.1517  1.6030  3.9560
  104OSM    H6T10543   3.113   2.999  10.101  0.1678  2.4293 -2.4904
  104OSM    C7S10544   3.327   3.068  10.119 -0.2552  0.1002  0.0707
  104OSM    H7S10545   3.354   2.962  10.138 -2.6727 -0.1688  2.5729
  104OSM    H7T10546   3.382   3.130  10.193  0.9148 -2.0306  1.0531
  104OSM    C8S10547   3.369   3.114   9.979 -0.4980  0.7271  0.6610
  104OSM    H8S10548   3.479   3.122   9.966 -0.3201  1.8468  2.5264
  104OSM    H8T10549   3.333   3.218   9.965 -1.3110  0.1332 -2.5127
  104OSM    C9S10550   3.303   3.022   9.868 -0.0713  0.0242  0.5285
  104OSM    H9S10551   3.194   3.009   9.885 -0.0465 -0.5864  0.2385
  104OSM    H9T10552   3.347   2.920   9.882 -0.7057 -0.0731  2.0025
  104OSM   C10S10553   3.335   3.061   9.716  0.0155  0.9003  0.7802
  104OSM   H10S10554   3.444   3.081   9.706  0.4757 -0.7074  2.2114
  104OSM   H10T10555   3.278   3.151   9.685 -1.6753 -0.9281 -1.9225
  104OSM   C11S10556   3.294   2.947   9.616 -0.4124 -0.2626  0.6073
  104OSM   H11S10557   3.199   2.907   9.657 -0.2326 -2.8193 -1.2055
  104OSM   H11T10558   3.367   2.863   9.616  1.1277  0.8640 -3.3578
  104OSM   C12S10559   3.280   2.992   9.475 -0.1450 -0.0445  0.1661
  104OSM   H12S10560   3.368   3.042   9.429 -0.0286  1.0262  1.5068
  104OSM   H12T10561   3.204   3.074   9.480 -0.2070 -0.0310 -0.7653
  104OSM   C13S10562   3.244   2.876   9.371 -0.2111 -0.2727  0.3143
  104OSM   H13S10563   3.191   2.929   9.290 -0.3738 -0.4029  0.3357
  104OSM   H13T10564   3.167   2.812   9.418 -1.6509  0.8909 -0.3964
  104OSM   C14S10565   3.368   2.800   9.313  0.1140  0.3382 -0.3564
  104OSM   H14S10566   3.439   2.754   9.385  2.8417 -0.7595 -3.4626
  104OSM   H14T10567   3.434   2.879   9.272  2.0207 -2.4014 -2.9885
  104OSM   C15S10568   3.341   2.706   9.199 -0.4012  0.1766 -0.4237
  104OSM   H15S10569   3.297   2.613   9.239  1.4090 -0.3768  0.3910
  104OSM   H15T10570   3.435   2.677   9.146 -1.1860  0.1157 -1.8282
  104OSM   C16S10571   3.240   2.760   9.102  0.5278 -0.9636 -0.0626
  104OSM   H16S10572   3.150   2.803   9.151  0.2477 -0.2051 -1.1876
  104OSM   H16T10573   3.195   2.674   9.048  1.6752 -1.4169 -0.3163
  104OSM   C17S10574   3.284   2.862   8.998  0.0653  0.5038 -0.4664
  104OSM   H17S10575   3.371   2.817   8.947 -0.1665  0.3308 -0.7102
  104OSM   H17T10576   3.332   2.954   9.038  2.5050 -0.0202 -2.0194
  104OSM   C18S10577   3.179   2.901   8.894  0.6851 -0.3826  0.3011
  104OSM   H18S10578   3.130   2.809   8.854 -0.8766  0.9017 -0.8443
  104OSM   H18T10579   3.223   2.944   8.801  1.1310  1.3362  1.2668
  104OSM   H18U10580   3.102   2.969   8.935  1.6618  1.5195 -0.9133
  104OSM    C1F10581   2.803   3.191  10.483 -0.3859 -0.3138  0.1829
  104OSM     OF10582   2.846   3.270  10.558 -0.0621 -0.0030 -0.2244
  104OSM    C2F10583   2.696   3.227  10.382 -0.2955  0.6422 -0.4524
  104OSM    H2F10584   2.596   3.220  10.428 -0.2268 -0.1207 -0.4104
  104OSM    H2G10585   2.700   3.153  10.299 -0.0609  0.8680 -0.6487
  104OSM    C3F10586   2.705   3.372  10.328  0.2313 -0.0968  0.1918
  104OSM    H3F10587   2.760   3.433  10.402 -0.8792 -0.2200  1.1543
  104OSM    H3G10588   2.599   3.403  10.329  0.3422  0.2681  0.9477
  104OSM    C4F10589   2.760   3.386  10.187 -0.3310 -0.2872  0.0733
  104OSM    H4F10590   2.678   3.356  10.118  0.3579 -0.5401 -0.6638
  104OSM    H4G10591   2.846   3.317  10.172  0.5255  1.1182 -1.8590
  104OSM    C5F10592   2.804   3.522  10.151  0.2124  0.4173  0.4809
  104OSM    H5F10593   2.879   3.557  10.225  1.0349  0.3708 -0.3205
  104OSM    H5G10594   2.721   3.596  10.158  1.4415  1.6710  2.5999
  104OSM    C6F10595   2.845   3.535  10.009 -0.8408 -0.1538  0.1929
  104OSM    H6F10596   2.918   3.454   9.989  0.7741  0.8973  1.5033
  104OSM    H6G10597   2.903   3.630  10.001  0.5586 -1.0363 -0.4379
  104OSM    C7F10598   2.729   3.533   9.912 -0.5298  0.6303 -0.7299
  104OSM    H7F10599   2.645   3.590   9.957  1.5594  1.6050  2.2680
  104OSM    H7G10600   2.686   3.431   9.899 -0.4732  0.3004  1.2861
  104OSM    C8F10601   2.763   3.592   9.773 -0.4859 -0.1998 -0.2751
  104OSM    H8F10602   2.787   3.700   9.785 -0.2868 -0.4630  2.1336
  104OSM    H8G10603   2.673   3.588   9.708  0.6245 -0.9582 -1.8370
  104OSM    C9F10604   2.882   3.515   9.713 -0.9157  0.2433  0.4239
  104OSM    H9F10605   2.972   3.496   9.774 -0.8247  1.6647  0.7528
  104OSM   C10F10606   2.881   3.467   9.585  0.4636 -1.0411 -0.6220
  104OSM   H10F10607   2.963   3.406   9.545  1.7430 -1.3054  2.1387
  104OSM   C11F10608   2.767   3.467   9.482  0.2239 -0.2825  0.3440
  104OSM   H11F10609   2.723   3.569   9.490  0.8577  0.0052  0.2594
  104OSM   H11G10610   2.688   3.396   9.513 -1.6031  1.1155 -0.8610
  104OSM   C12F10611   2.825   3.426   9.344  0.1409  0.3640 -0.2779
  104OSM   H12F10612   2.893   3.340   9.359 -0.2184  0.2683  0.8969
  104OSM   H12G10613   2.892   3.503   9.300  0.6737 -1.2699 -2.4875
  104OSM   C13F10614   2.713   3.378   9.244 -0.0747 -0.8943 -0.2374
  104OSM   H13F10615   2.639   3.461   9.249 -0.2512 -1.0653  0.0059
  104OSM   H13G10616   2.657   3.288   9.277 -0.1448 -0.3720  1.1061
  104OSM   C14F10617   2.764   3.359   9.101  0.8666 -0.3219 -0.0469
  104OSM   H14F10618   2.838   3.278   9.084  0.7893 -0.6684  1.2029
  104OSM   H14G10619   2.802   3.462   9.085 -0.5162  0.5755  2.0303
  104OSM   C15F10620   2.650   3.346   8.994 -0.0875  0.7198  0.0439
  104OSM   H15F10621   2.685   3.410   8.910  0.1378 -0.6141 -0.9055
  104OSM   H15G10622   2.551   3.380   9.031 -1.2015 -0.8094 -1.4067
  104OSM   C16F10623   2.642   3.204   8.937  0.5291  0.1394  0.1020
  104OSM   H16F10624   2.620   3.129   9.016 -1.0489  1.5622  1.0650
  104OSM   H16G10625   2.743   3.168   8.908  0.7479  0.0162  0.9983
  104OSM   C17F10626   2.541   3.192   8.817 -0.2978 -0.4636 -0.7225
  104OSM   H17F10627   2.463   3.270   8.831 -1.0565 -1.1046 -1.3145
  104OSM   H17G10628   2.490   3.094   8.830 -0.9493 -0.5050 -3.1134
  104OSM   C18F10629   2.610   3.212   8.684 -0.0211  0.3764  0.0506
  104OSM   H18F10630   2.539   3.222   8.599 -1.2996  0.3038  1.0836
  104OSM   H18G10631   2.678   3.129   8.656 -0.3720  0.2130 -0.3275
  104OSM   H18H10632   2.665   3.309   8.678  0.8104 -0.1430 -1.0164
  105OSM      N10633   1.011   6.756  10.887 -0.1417 -0.4190 -0.5891
  105OSM    C1510634   1.087   6.802  10.769 -0.0668  0.5671  0.7167
  105OSM   H15A10635   1.191   6.812  10.794 -0.2062  0.8186  1.2122
  105OSM   H15B10636   1.051   6.898  10.736  1.9228  1.4393  0.9808
  105OSM   H15C10637   1.079   6.729  10.689  0.1952  1.1609  0.1446
  105OSM    C1410638   1.007   6.863  10.986  0.7740 -0.4107 -0.7328
  105OSM   H14A10639   0.971   6.849  11.087  1.8215 -2.1102 -0.5507
  105OSM   H14B10640   0.947   6.948  10.956  0.3128  0.2993  1.9115
  105OSM   H14C10641   1.102   6.914  10.996 -0.0316  0.7515  2.5977
  105OSM    C1310642   0.865   6.726  10.847  0.0023  0.0117 -0.1032
  105OSM   H13A10643   0.812   6.688  10.933 -0.0088 -1.7972 -0.8483
  105OSM   H13B10644   0.872   6.641  10.781  5.4065  1.1166 -1.4675
  105OSM   H13C10645   0.822   6.809  10.793 -0.2791 -0.8401 -1.2225
  105OSM    C1210646   1.079   6.636  10.946  0.3766  0.8670 -0.0316
  105OSM   H12A10647   1.058   6.547  10.888  0.0244 -0.2765  1.7797
  105OSM   H12B10648   1.046   6.624  11.048 -1.6261  2.2109 -0.4514
  105OSM    C1110649   1.235   6.640  10.959  0.1568 -0.5526  0.1668
  105OSM   H11A10650   1.258   6.570  11.041 -0.0169  2.1188  2.6710
  105OSM   H11B10651   1.267   6.743  10.987  0.1284 -0.7562  0.9677
  105OSM      P10652   1.349   6.469  10.804 -0.1994  0.0512 -0.0279
  105OSM    O1310653   1.436   6.470  10.689 -0.5673 -0.0364 -0.4017
  105OSM    O1410654   1.413   6.401  10.925  0.4002 -0.0221  0.4235
  105OSM    O1110655   1.209   6.406  10.763 -0.4021  0.0890 -1.3553
  105OSM    O1210656   1.306   6.616  10.835 -0.2003  0.3479  0.0047
  105OSM    C1S10657   1.111   6.446  10.671 -0.4690 -0.2932  0.4299
  105OSM    H1S10658   1.106   6.557  10.674 -1.6813 -0.3151 -0.5418
  105OSM    H1T10659   1.013   6.404  10.701  0.4989 -2.8419  0.2639
  105OSM     NF10660   1.042   6.464  10.429 -0.1643  0.8000 -0.9895
  105OSM    HNF10661   0.969   6.419  10.378 -0.0329  1.1261 -1.4708
  105OSM    C2S10662   1.127   6.391  10.523 -0.0129  0.0595 -0.4333
  105OSM    H2S10663   1.233   6.415  10.498  0.0789 -0.8876 -0.9874
  105OSM    C3S10664   1.102   6.241  10.517  0.0598  0.7297  0.4354
  105OSM    H3S10665   0.993   6.220  10.519  0.3610 -1.8471 -2.1429
  105OSM     O310666   1.170   6.174  10.619  0.5839 -0.5160 -0.5550
  105OSM    HO310667   1.189   6.248  10.678  0.2573 -1.1045  0.3101
  105OSM    C4S10668   1.146   6.175  10.383  0.2081  0.5693 -0.2345
  105OSM    H4S10669   1.246   6.190  10.341  0.0878 -1.3197 -1.3203
  105OSM    C5S10670   1.054   6.118  10.301  0.3283 -0.0834 -0.2766
  105OSM    H5S10671   0.949   6.108  10.333  0.3691 -1.3373 -0.4883
  105OSM    C6S10672   1.086   6.045  10.176 -1.0235  0.6867  0.6294
  105OSM    H6S10673   1.069   5.936  10.190  0.1096  0.0853 -2.0692
  105OSM    H6T10674   1.194   6.052  10.149 -0.7225 -0.7899  1.3679
  105OSM    C7S10675   0.999   6.082  10.050  0.1397  0.6693  0.1814
  105OSM    H7S10676   1.056   6.055   9.959 -1.5059  1.3614 -1.0950
  105OSM    H7T10677   0.988   6.192  10.038 -2.0850  0.4622  0.0053
  105OSM    C8S10678   0.862   6.008  10.047 -0.2407  0.1047 -0.3267
  105OSM    H8S10679   0.801   6.030  10.137  2.2322 -0.7879  1.6885
  105OSM    H8T10680   0.881   5.900  10.066  0.5656  0.7170  3.1000
  105OSM    C9S10681   0.795   6.042   9.914  0.1632 -0.3827  0.0985
  105OSM    H9S10682   0.833   6.142   9.885 -0.5997  0.3877  1.6329
  105OSM    H9T10683   0.688   6.048   9.944 -0.0765 -1.5620 -0.4449
  105OSM   C10S10684   0.827   5.949   9.794 -0.6201 -0.3322  0.2458
  105OSM   H10S10685   0.801   5.846   9.828  0.2324  0.4633  3.6457
  105OSM   H10T10686   0.936   5.938   9.778 -0.6241 -0.8225  0.5501
  105OSM   C11S10687   0.758   5.986   9.666  0.0090  0.6826 -0.9609
  105OSM   H11S10688   0.789   6.090   9.641 -1.1880  1.1239 -0.6709
  105OSM   H11T10689   0.649   5.987   9.682  0.1179  0.2583 -0.1250
  105OSM   C12S10690   0.778   5.879   9.555 -0.0348 -0.5330 -0.4727
  105OSM   H12S10691   0.717   5.794   9.591 -0.7416  0.2351  0.1791
  105OSM   H12T10692   0.885   5.848   9.544  0.8811  2.3240 -0.4307
  105OSM   C13S10693   0.727   5.931   9.423 -0.2259  0.4089  0.1997
  105OSM   H13S10694   0.797   6.010   9.389 -0.5942  0.2287 -1.0056
  105OSM   H13T10695   0.629   5.974   9.453 -0.7919  0.2055 -1.2516
  105OSM   C14S10696   0.682   5.825   9.320 -0.0946  0.5787  0.4429
  105OSM   H14S10697   0.596   5.775   9.370  0.5687 -0.9951  0.0990
  105OSM   H14T10698   0.763   5.752   9.297  1.9409  2.3875  1.4514
  105OSM   C15S10699   0.631   5.903   9.199  0.1072  0.3932 -0.3049
  105OSM   H15S10700   0.698   5.982   9.159 -0.0443  0.1618 -1.0311
  105OSM   H15T10701   0.543   5.960   9.236 -0.3732 -0.5650  0.0406
  105OSM   C16S10702   0.591   5.814   9.078  0.1471 -0.1983  0.2421
  105OSM   H16S10703   0.520   5.741   9.123  0.1587  0.1287  0.8061
  105OSM   H16T10704   0.671   5.754   9.030 -0.9368 -0.0350 -1.8816
  105OSM   C17S10705   0.503   5.883   8.969  0.1372  0.3035 -0.3086
  105OSM   H17S10706   0.408   5.924   9.009  0.0927  0.0475 -0.1511
  105OSM   H17T10707   0.486   5.806   8.891  1.3100  0.1210 -0.4102
  105OSM   C18S10708   0.585   5.998   8.906  0.6125 -0.2545 -0.4712
  105OSM   H18S10709   0.536   6.032   8.812  1.9400 -0.3594 -1.2220
  105OSM   H18T10710   0.689   5.964   8.886  2.0923  2.2308  2.2429
  105OSM   H18U10711   0.600   6.086   8.972 -1.6898 -0.3934  0.3187
  105OSM    C1F10712   1.064   6.593  10.403 -0.6248 -0.2197 -0.1880
  105OSM     OF10713   1.154   6.650  10.468  1.0596 -0.0879  0.6425
  105OSM    C2F10714   0.980   6.653  10.289 -0.1336  0.1288 -0.8266
  105OSM    H2F10715   0.877   6.668  10.328  0.2349 -2.1488  1.2435
  105OSM    H2G10716   0.981   6.600  10.191  0.5575  1.4104 -1.5518
  105OSM    C3F10717   1.031   6.797  10.253 -0.0581  0.3984 -0.4448
  105OSM    H3F10718   1.140   6.799  10.229 -0.0203 -0.7316 -0.4081
  105OSM    H3G10719   1.017   6.863  10.341 -0.1693  1.1607 -1.0255
  105OSM    C4F10720   0.941   6.854  10.138  0.1350 -0.1199 -0.2116
  105OSM    H4F10721   1.002   6.941  10.106 -0.1027  0.7461  1.6053
  105OSM    H4G10722   0.843   6.887  10.176 -0.3208 -1.9496  0.3239
  105OSM    C5F10723   0.921   6.766  10.010 -0.5510 -0.1526  0.1025
  105OSM    H5F10724   0.849   6.686  10.040  0.2306 -0.0233  2.4383
  105OSM    H5G10725   1.016   6.732   9.963  1.9019  5.3095  0.4164
  105OSM    C6F10726   0.847   6.855   9.903 -0.1159  0.1553  0.0350
  105OSM    H6F10727   0.917   6.939   9.885 -0.2048  0.2622  0.1815
  105OSM    H6G10728   0.756   6.891   9.956  2.1534  3.4075  2.1043
  105OSM    C7F10729   0.841   6.781   9.767 -0.0291  0.4847 -0.2141
  105OSM    H7F10730   0.783   6.688   9.778  1.3021 -0.3644 -0.1889
  105OSM    H7G10731   0.947   6.762   9.739 -0.1165  1.9556 -1.7103
  105OSM    C8F10732   0.782   6.872   9.659  0.3750 -0.1807  0.0109
  105OSM    H8F10733   0.832   6.970   9.674  0.8250 -0.4320  0.1641
  105OSM    H8G10734   0.676   6.887   9.690  0.0555  0.2967 -1.2343
  105OSM    C9F10735   0.782   6.805   9.524 -0.2369  0.2809 -0.8088
  105OSM    H9F10736   0.885   6.774   9.499 -0.9477 -1.9224 -1.1789
  105OSM   C10F10737   0.681   6.794   9.423  0.1998 -0.1994 -0.2894
  105OSM   H10F10738   0.707   6.744   9.329  0.3897  0.9376 -0.8560
  105OSM   C11F10739   0.542   6.849   9.428  0.2407 -0.6466  0.4172
  105OSM   H11F10740   0.526   6.899   9.526 -0.1657  0.1517 -0.0493
  105OSM   H11G10741   0.469   6.766   9.423 -1.3312  0.6996  0.3689
  105OSM   C12F10742   0.513   6.952   9.317 -0.0010  0.7369 -0.1626
  105OSM   H12F10743   0.404   6.973   9.325 -0.7213 -2.1352 -1.2654
  105OSM   H12G10744   0.521   6.908   9.216  1.6982  0.9136 -0.1349
  105OSM   C13F10745   0.597   7.078   9.337 -1.1408 -0.9564 -0.5231
  105OSM   H13F10746   0.704   7.048   9.327 -0.8073 -0.3619  0.9969
  105OSM   H13G10747   0.585   7.125   9.437  0.6261 -1.0160 -0.2449
  105OSM   C14F10748   0.576   7.186   9.231 -0.1996 -0.5180 -0.4784
  105OSM   H14F10749   0.675   7.231   9.209 -1.1408  1.1316 -1.5141
  105OSM   H14G10750   0.521   7.271   9.279 -0.0936 -1.4975  1.4547
  105OSM   C15F10751   0.524   7.140   9.093  0.3708 -0.6895  0.5437
  105OSM   H15F10752   0.427   7.086   9.098  0.7315 -1.5452 -1.1677
  105OSM   H15G10753   0.599   7.066   9.058 -0.3757 -0.5046 -1.5753
  105OSM   C16F10754   0.526   7.259   9.003  0.8425  0.2461  0.0358
  105OSM   H16F10755   0.624   7.310   9.014  0.8243  0.8265 -2.1140
  105OSM   H16G10756   0.450   7.336   9.030 -0.9580 -0.9812 -1.3160
  105OSM   C17F10757   0.509   7.214   8.854  0.0525 -0.6824  0.3253
  105OSM   H17F10758   0.406   7.177   8.837 -1.0514  2.1397  0.3844
  105OSM   H17G10759   0.588   7.140   8.827  1.3462  0.6204  0.4292
  105OSM   C18F10760   0.521   7.328   8.752  0.9236  0.3407  0.1977
  105OSM   H18F10761   0.443   7.405   8.771 -1.1725 -1.4956 -0.5233
  105OSM   H18G10762   0.508   7.290   8.648  0.2116  0.8798  0.0848
  105OSM   H18H10763   0.618   7.382   8.758  0.0823  2.1793 -1.2886
  106OSM      N10764   5.482   6.107  10.723  0.3073  0.2652  0.7502
  106OSM    C1510765   5.387   6.003  10.777  0.1778 -0.4846  0.0380
  106OSM   H15A10766   5.291   6.052  10.767  1.9655  2.8558 -3.1322
  106OSM   H15B10767   5.409   5.983  10.881  2.1899  2.5951  0.3439
  106OSM   H15C10768   5.387   5.916  10.714  0.2693  0.1462 -0.8455
  106OSM    C1410769   5.441   6.129  10.571  0.1909 -0.7544 -0.4558
  106OSM   H14A10770   5.345   6.178  10.564  1.2789  1.5359 -0.4962
  106OSM   H14B10771   5.450   6.037  10.516 -1.1808  0.0690 -2.1200
  106OSM   H14C10772   5.508   6.201  10.526  0.2852  1.3344  2.7025
  106OSM    C1310773   5.473   6.239  10.793  0.0266  0.6212 -0.0653
  106OSM   H13A10774   5.521   6.224  10.889 -0.7223 -0.6784  0.1291
  106OSM   H13B10775   5.368   6.264  10.801  0.1712  1.8242 -1.5448
  106OSM   H13C10776   5.524   6.315  10.736  0.3715 -2.3442 -4.1549
  106OSM    C1210777   5.616   6.042  10.733 -0.2245  0.3025 -1.0255
  106OSM   H12A10778   5.696   6.091  10.679  0.3253  1.0875  0.4287
  106OSM   H12B10779   5.608   5.944  10.688 -0.1844 -1.1248  1.8631
  106OSM    C1110780   5.660   6.001  10.877 -0.4243  0.3722  0.3935
  106OSM   H11A10781   5.752   5.939  10.874  1.3222  2.8194  0.5601
  106OSM   H11B10782   5.582   5.936  10.923 -0.5724 -0.1869 -0.6256
  106OSM      P10783   5.829   6.184  10.968 -0.1653 -0.2247  0.0467
  106OSM    O1310784   5.810   6.328  10.996  0.2529 -0.0349  0.7375
  106OSM    O1410785   5.918   6.112  11.064  0.0001 -0.1058  0.4087
  106OSM    O1110786   5.881   6.171  10.820 -0.2785 -0.1448  0.1446
  106OSM    O1210787   5.684   6.115  10.963  0.0052 -0.2027  0.0989
  106OSM    C1S10788   6.010   6.123  10.784 -0.4514 -0.0074  0.5180
  106OSM    H1S10789   6.031   6.015  10.800 -0.9326 -0.4999 -1.8215
  106OSM    H1T10790   6.090   6.191  10.821  0.2640 -1.1627  1.1508
  106OSM     NF10791   6.146   6.063  10.582 -0.1804  0.0773 -0.1199
  106OSM    HNF10792   6.230   6.116  10.581  2.3105 -3.4399 -2.7865
  106OSM    C2S10793   6.026   6.132  10.625  0.5650  0.2813 -0.0517
  106OSM    H2S10794   5.941   6.087  10.570  0.0966  0.0775  0.8242
  106OSM    C3S10795   6.027   6.285  10.590  0.6048 -0.2825 -0.7386
  106OSM    H3S10796   6.127   6.320  10.624  0.5556 -0.2260 -0.6495
  106OSM     O310797   5.927   6.374  10.652  0.2320 -0.3536 -0.4577
  106OSM    HO310798   5.890   6.318  10.722  1.4560 -0.7905 -0.1327
  106OSM    C4S10799   6.027   6.301  10.438 -0.3779  0.7792  0.8058
  106OSM    H4S10800   6.126   6.337  10.407  0.0002 -0.2429  0.7973
  106OSM    C5S10801   5.924   6.298  10.342 -0.5727  0.4546  0.1631
  106OSM    H5S10802   5.825   6.284  10.386 -0.4501 -1.1398 -0.0144
  106OSM    C6S10803   5.934   6.336  10.194  0.1840  0.0109  0.2629
  106OSM    H6S10804   5.913   6.242  10.138 -0.2272  1.1852 -1.6351
  106OSM    H6T10805   6.037   6.366  10.166 -0.2000 -0.6521 -2.1185
  106OSM    C7S10806   5.830   6.441  10.153 -0.5199 -0.8859 -0.4026
  106OSM    H7S10807   5.854   6.532  10.212 -0.1616 -0.3357 -1.3631
  106OSM    H7T10808   5.726   6.416  10.182 -1.3785  0.7083 -1.8987
  106OSM    C8S10809   5.831   6.471   9.999  0.1782  0.1150 -0.6931
  106OSM    H8S10810   5.805   6.377   9.947 -1.1371  1.0514 -1.7943
  106OSM    H8T10811   5.933   6.504   9.967  0.8983 -1.9880 -0.7328
  106OSM    C9S10812   5.731   6.580   9.958 -0.0597 -0.7638  0.2473
  106OSM    H9S10813   5.753   6.673  10.014  1.8875  0.0827 -1.7553
  106OSM    H9T10814   5.629   6.541   9.976 -0.7484  0.7208 -0.3484
  106OSM   C10S10815   5.739   6.608   9.808  0.1390 -0.8666  0.2907
  106OSM   H10S10816   5.743   6.511   9.754  1.0476 -0.3468 -0.6097
  106OSM   H10T10817   5.833   6.666   9.793 -1.9541  3.9065  3.2749
  106OSM   C11S10818   5.619   6.695   9.762  0.2549  0.4067  0.3578
  106OSM   H11S10819   5.616   6.782   9.832  1.3794 -0.2932  1.3208
  106OSM   H11T10820   5.528   6.637   9.788  0.1078  0.7776  0.6726
  106OSM   C12S10821   5.631   6.756   9.627  0.2395  0.2609  0.2252
  106OSM   H12S10822   5.733   6.782   9.591  0.1315 -1.8341 -1.8755
  106OSM   H12T10823   5.573   6.849   9.609 -2.4000 -1.6972 -2.0888
  106OSM   C13S10824   5.582   6.657   9.524  0.2470  0.1660 -0.0312
  106OSM   H13S10825   5.476   6.633   9.550 -0.3189  1.7095 -0.7907
  106OSM   H13T10826   5.630   6.559   9.543 -1.9511 -0.6381  1.9530
  106OSM   C14S10827   5.595   6.706   9.379  0.1274 -0.0005  0.4376
  106OSM   H14S10828   5.704   6.728   9.382  0.7046 -2.5791  2.4498
  106OSM   H14T10829   5.534   6.796   9.361  3.1643  2.2012  0.3938
  106OSM   C15S10830   5.564   6.602   9.267 -0.0908 -0.2329 -0.4991
  106OSM   H15S10831   5.476   6.536   9.286 -1.1540  1.3781  0.4995
  106OSM   H15T10832   5.659   6.546   9.263  0.6916  0.6992  2.2397
  106OSM   C16S10833   5.546   6.669   9.131 -0.2489 -0.9330  1.0998
  106OSM   H16S10834   5.624   6.741   9.101 -0.8321 -0.7579 -0.0367
  106OSM   H16T10835   5.453   6.730   9.135  0.8208  0.9881 -1.2795
  106OSM   C17S10836   5.530   6.564   9.016  0.1370  0.3562  0.3683
  106OSM   H17S10837   5.486   6.468   9.051 -3.6100  1.6854 -0.3018
  106OSM   H17T10838   5.628   6.529   8.977 -0.3728  0.1803 -0.8054
  106OSM   C18S10839   5.456   6.618   8.895  0.2143  0.5212  0.0557
  106OSM   H18S10840   5.503   6.719   8.886  2.2491 -0.3425  0.5211
  106OSM   H18T10841   5.350   6.634   8.924  0.4971 -0.7874  1.9896
  106OSM   H18U10842   5.471   6.555   8.805  0.5138 -0.0833  0.5211
  106OSM    C1F10843   6.151   5.931  10.550 -0.2489 -0.0747  0.1989
  106OSM     OF10844   6.068   5.851  10.592 -0.3166 -0.3768  0.7318
  106OSM    C2F10845   6.268   5.889  10.465 -0.8613  0.0077  0.2481
  106OSM    H2F10846   6.318   5.810  10.525 -1.3914  0.3948  1.2181
  106OSM    H2G10847   6.331   5.980  10.459 -2.2903  1.2072  2.2827
  106OSM    C3F10848   6.221   5.828  10.334  0.4226  0.0924  1.1142
  106OSM    H3F10849   6.142   5.749  10.338 -0.4559  0.8672 -0.0800
  106OSM    H3G10850   6.303   5.778  10.278  0.2082  0.0190  0.8604
  106OSM    C4F10851   6.148   5.921  10.229  0.5534  0.2146 -0.0502
  106OSM    H4F10852   6.209   6.010  10.202  0.9650 -0.5706 -1.8244
  106OSM    H4G10853   6.065   5.968  10.286  0.6021  0.9804 -0.5962
  106OSM    C5F10854   6.106   5.864  10.095  0.7226 -0.2752  0.1908
  106OSM    H5F10855   6.060   5.765  10.114  0.7995 -0.2994  0.2479
  106OSM    H5G10856   6.202   5.843  10.044  1.5171  0.8603  1.1751
  106OSM    C6F10857   6.022   5.962  10.008  0.4907  0.5461 -0.3062
  106OSM    H6F10858   6.016   5.911   9.910  0.9911 -0.0550 -0.0326
  106OSM    H6G10859   6.059   6.067  10.004 -0.6946  0.9335 -3.7283
  106OSM    C7F10860   5.873   5.973  10.057  0.0826  0.2712 -0.5705
  106OSM    H7F10861   5.863   6.035  10.148 -0.9657  0.0471 -0.5199
  106OSM    H7G10862   5.836   5.872  10.083  0.5054 -0.0685 -1.2595
  106OSM    C8F10863   5.786   6.035   9.944 -0.4157  0.4823  0.0649
  106OSM    H8F10864   5.795   5.967   9.857 -2.1517  2.5635 -1.8438
  106OSM    H8G10865   5.844   6.126   9.919  2.0384 -1.2039 -0.7600
  106OSM    C9F10866   5.640   6.056   9.978 -0.3165  0.0896  0.6428
  106OSM    H9F10867   5.620   6.060  10.086  0.0978  1.4485  0.6812
  106OSM   C10F10868   5.543   6.040   9.886  0.3576 -0.2780 -0.1774
  106OSM   H10F10869   5.441   6.054   9.924  0.4936 -2.3415  1.1164
  106OSM   C11F10870   5.544   6.011   9.738  0.2086  0.5115 -0.0703
  106OSM   H11F10871   5.504   5.910   9.718 -0.0518  0.3662  1.0808
  106OSM   H11G10872   5.652   6.015   9.711 -0.2262 -0.6368 -2.1292
  106OSM   C12F10873   5.472   6.116   9.649  0.3701  0.7678 -0.0544
  106OSM   H12F10874   5.519   6.216   9.661  0.6177  0.7168 -0.5837
  106OSM   H12G10875   5.368   6.124   9.688  0.5469 -0.3877  0.7021
  106OSM   C13F10876   5.482   6.084   9.499 -0.3246 -0.8382  0.3940
  106OSM   H13F10877   5.445   5.980   9.486 -1.7416 -0.2657 -0.3561
  106OSM   H13G10878   5.588   6.095   9.465 -1.2868  0.2889 -2.6011
  106OSM   C14F10879   5.418   6.181   9.400 -0.0879  0.3211  0.6549
  106OSM   H14F10880   5.471   6.279   9.397  1.1450 -0.3447 -0.0014
  106OSM   H14G10881   5.313   6.207   9.424 -0.1114 -0.0025  0.9206
  106OSM   C15F10882   5.410   6.113   9.264 -0.8264 -0.1582 -0.9344
  106OSM   H15F10883   5.346   6.023   9.270  0.6276 -1.2672 -1.3996
  106OSM   H15G10884   5.517   6.087   9.248 -0.3953 -0.1513  1.4795
  106OSM   C16F10885   5.368   6.210   9.158  0.0244  0.2385  0.0828
  106OSM   H16F10886   5.442   6.293   9.157  0.4206 -0.1140 -0.2376
  106OSM   H16G10887   5.269   6.250   9.187  1.3378  1.5712  3.2012
  106OSM   C17F10888   5.359   6.156   9.019  0.4789 -0.3364 -0.3035
  106OSM   H17F10889   5.296   6.064   9.020  0.3151 -0.2381 -1.0244
  106OSM   H17G10890   5.455   6.114   8.982 -0.6623 -2.4073 -1.1245
  106OSM   C18F10891   5.305   6.256   8.921 -0.5855 -0.2065  0.2671
  106OSM   H18F10892   5.355   6.241   8.822 -0.6255  1.1478  0.0136
  106OSM   H18G10893   5.321   6.362   8.951  1.7099 -0.3034 -0.3977
  106OSM   H18H10894   5.196   6.243   8.909 -0.3232 -0.5243 -2.6178
  107OSM      N10895   1.484   2.837  11.015  0.1308 -0.0208  0.0870
  107OSM    C1510896   1.466   2.899  11.152 -0.8136 -0.2181  0.6866
  107OSM   H15A10897   1.554   2.952  11.185  0.9865 -1.3344 -1.9654
  107OSM   H15B10898   1.437   2.820  11.220  0.4488 -0.7462  0.6420
  107OSM   H15C10899   1.388   2.974  11.145 -1.4900 -0.8165  1.6213
  107OSM    C1410900   1.531   2.935  10.915  0.8341 -0.1826  0.6359
  107OSM   H14A10901   1.613   2.989  10.961  0.2408  0.8724  0.4738
  107OSM   H14B10902   1.446   2.995  10.886 -0.6457 -2.4129  0.1442
  107OSM   H14C10903   1.576   2.879  10.834  0.8011 -1.8040  1.6897
  107OSM    C1310904   1.595   2.742  11.046  0.3487 -0.0560  0.1703
  107OSM   H13A10905   1.564   2.668  11.118 -1.8383  0.2195 -0.4289
  107OSM   H13B10906   1.679   2.801  11.083 -0.8044  1.9611 -0.2584
  107OSM   H13C10907   1.634   2.685  10.963 -1.4514  1.8740 -2.1647
  107OSM    C1210908   1.349   2.768  10.979 -0.3891 -0.5312  0.3537
  107OSM   H12A10909   1.348   2.738  10.875  2.2483  1.4833 -0.3329
  107OSM   H12B10910   1.278   2.848  10.992  0.4090  0.0758  1.1032
  107OSM    C1110911   1.294   2.648  11.065  0.1354  0.1966  0.1377
  107OSM   H11A10912   1.192   2.623  11.030 -1.4333  2.7274  2.4841
  107OSM   H11B10913   1.279   2.683  11.170 -1.6382 -2.3895  0.8419
  107OSM      P10914   1.368   2.435  10.941  0.2111 -0.2337  0.4345
  107OSM    O1310915   1.475   2.330  10.952 -0.2163 -0.1726  0.1455
  107OSM    O1410916   1.231   2.390  10.955  0.2119  0.4728 -0.8354
  107OSM    O1110917   1.383   2.518  10.805 -0.4307  0.0757 -0.5042
  107OSM    O1210918   1.389   2.537  11.060 -0.7700  0.5985 -0.2168
  107OSM    C1S10919   1.515   2.539  10.752 -0.5381  0.5925 -0.2697
  107OSM    H1S10920   1.576   2.448  10.735 -0.9942 -0.0751  1.4596
  107OSM    H1T10921   1.574   2.612  10.811  3.1965 -1.4604 -1.1466
  107OSM     NF10922   1.656   2.609  10.574  0.2044 -0.0284  0.3281
  107OSM    HNF10923   1.706   2.691  10.602  0.2922  0.1696 -0.3827
  107OSM    C2S10924   1.521   2.600  10.609 -0.0796 -0.3778 -0.9932
  107OSM    H2S10925   1.468   2.543  10.529  1.9290 -1.8209 -1.3738
  107OSM    C3S10926   1.454   2.741  10.622  0.2126 -0.3432 -0.4770
  107OSM    H3S10927   1.524   2.801  10.684  1.5465 -2.6501  0.3369
  107OSM     O310928   1.324   2.739  10.687 -0.4179  0.5507  0.2530
  107OSM    HO310929   1.308   2.650  10.721  0.9671  0.1094 -0.1862
  107OSM    C4S10930   1.456   2.812  10.489  0.2529  0.1180  0.0042
  107OSM    H4S10931   1.553   2.861  10.476 -1.0804  3.0840  0.2401
  107OSM    C5S10932   1.355   2.826  10.401 -0.5935 -0.0375 -0.0076
  107OSM    H5S10933   1.252   2.791  10.417 -1.0023  0.6910 -0.9225
  107OSM    C6S10934   1.386   2.903  10.271  0.2681  0.1998  0.2994
  107OSM    H6S10935   1.462   2.983  10.280 -0.9576  1.6864 -1.6460
  107OSM    H6T10936   1.289   2.957  10.258  1.4772  2.1896 -1.0799
  107OSM    C7S10937   1.417   2.815  10.153  0.1515 -0.2978  0.2048
  107OSM    H7S10938   1.341   2.735  10.141  1.9012 -1.8821 -0.8442
  107OSM    H7T10939   1.515   2.763  10.164  1.0351  1.0427 -0.8856
  107OSM    C8S10940   1.410   2.915  10.044  0.6239  0.3046  0.1184
  107OSM    H8S10941   1.482   2.998  10.059  0.8098  0.2330 -0.3495
  107OSM    H8T10942   1.313   2.969  10.042 -0.9387 -2.1872  2.1707
  107OSM    C9S10943   1.424   2.849   9.910 -0.2169  0.2594 -1.1964
  107OSM    H9S10944   1.324   2.809   9.883 -0.2842 -1.1611  0.9065
  107OSM    H9T10945   1.482   2.754   9.910 -0.2376  0.1673 -3.6783
  107OSM   C10S10946   1.480   2.939   9.804  0.4934  0.5648  0.2114
  107OSM   H10S10947   1.588   2.961   9.819  1.0010 -0.9289 -0.8776
  107OSM   H10T10948   1.426   3.035   9.819  1.3532  1.4521 -1.9270
  107OSM   C11S10949   1.471   2.885   9.661  0.4270 -0.8275  0.1221
  107OSM   H11S10950   1.366   2.852   9.644  0.4882 -1.3472  0.7329
  107OSM   H11T10951   1.549   2.806   9.655  1.7770  0.5445 -1.8296
  107OSM   C12S10952   1.515   2.987   9.549  0.7967 -0.1814  0.3518
  107OSM   H12S10953   1.611   3.027   9.589  1.1635 -1.4259  0.7340
  107OSM   H12T10954   1.431   3.058   9.533  0.5551 -0.6347 -0.4450
  107OSM   C13S10955   1.534   2.914   9.410  0.5166  0.5957 -0.6271
  107OSM   H13S10956   1.432   2.874   9.392  0.6841  0.1095 -0.4962
  107OSM   H13T10957   1.603   2.829   9.427 -0.9804 -0.8692 -1.6513
  107OSM   C14S10958   1.597   3.003   9.300 -0.0409  0.3230 -0.6124
  107OSM   H14S10959   1.697   3.045   9.327 -0.3113  1.4631 -1.3364
  107OSM   H14T10960   1.529   3.090   9.288 -1.1912 -0.1377  1.7851
  107OSM   C15S10961   1.604   2.928   9.173  0.0155  0.0784  0.6484
  107OSM   H15S10962   1.498   2.910   9.146  0.5181 -0.5830 -1.0177
  107OSM   H15T10963   1.653   2.829   9.185 -2.3520 -1.2514 -0.1258
  107OSM   C16S10964   1.664   2.997   9.046 -0.4475 -0.0714  0.9241
  107OSM   H16S10965   1.775   2.995   9.053 -0.4140 -1.2570  0.3010
  107OSM   H16T10966   1.622   3.100   9.046  0.3362  0.2560  0.6663
  107OSM   C17S10967   1.619   2.936   8.912  0.0595  0.0822  1.1927
  107OSM   H17S10968   1.509   2.919   8.918  0.0147 -0.7705 -1.1449
  107OSM   H17T10969   1.674   2.841   8.894 -0.4609 -0.4647  2.3148
  107OSM   C18S10970   1.644   3.037   8.797 -0.6083 -0.0519  0.3228
  107OSM   H18S10971   1.634   2.997   8.694  2.1148 -0.5858  0.1899
  107OSM   H18T10972   1.747   3.078   8.800 -0.6355  0.2491 -1.5431
  107OSM   H18U10973   1.584   3.130   8.798  1.6165  1.4677  0.2243
  107OSM    C1F10974   1.716   2.502  10.516  0.7090 -0.0072 -0.3536
  107OSM     OF10975   1.668   2.391  10.505 -0.1266  0.0760 -0.1206
  107OSM    C2F10976   1.852   2.534  10.463 -0.3469 -0.3182 -0.1969
  107OSM    H2F10977   1.883   2.451  10.397 -0.5556 -1.4709  1.1216
  107OSM    H2G10978   1.919   2.533  10.551 -0.4217 -0.7030 -0.1459
  107OSM    C3F10979   1.858   2.666  10.382 -0.1892  0.0307  0.2383
  107OSM    H3F10980   1.963   2.673  10.346 -0.2944  1.0837  0.0966
  107OSM    H3G10981   1.842   2.754  10.448  0.5577 -0.3708  0.9676
  107OSM    C4F10982   1.768   2.663  10.253  0.1580 -0.0569  0.3897
  107OSM    H4F10983   1.790   2.765  10.216  0.5714  0.2348  1.3988
  107OSM    H4G10984   1.658   2.668  10.265 -0.1719 -1.2109 -1.6993
  107OSM    C5F10985   1.806   2.561  10.150 -0.0891  0.4198  0.4455
  107OSM    H5F10986   1.761   2.466  10.186 -1.9002  0.4792 -1.4776
  107OSM    H5G10987   1.916   2.545  10.139 -0.5264 -1.4860 -2.2609
  107OSM    C6F10988   1.756   2.584  10.010  0.4115 -0.2958 -0.5042
  107OSM    H6F10989   1.806   2.671   9.963 -1.9431  2.0084  0.9738
  107OSM    H6G10990   1.646   2.601  10.010  0.5098  0.7459  1.8369
  107OSM    C7F10991   1.787   2.473   9.911  0.1863 -0.2792 -0.3257
  107OSM    H7F10992   1.695   2.411   9.909  1.0989 -1.7554  0.5854
  107OSM    H7G10993   1.871   2.408   9.947 -1.8631 -2.1586  1.3408
  107OSM    C8F10994   1.827   2.526   9.775 -0.1006  0.0543 -0.2550
  107OSM    H8F10995   1.931   2.565   9.768  1.2022 -3.3658 -2.3610
  107OSM    H8G10996   1.761   2.610   9.745  0.7227 -0.2926 -3.4207
  107OSM    C9F10997   1.813   2.424   9.668  0.1677  0.1884  0.2769
  107OSM    H9F10998   1.864   2.330   9.697  1.6481  0.9893  0.3588
  107OSM   C10F10999   1.750   2.433   9.547  0.2756 -0.6815  0.5743
  107OSM   H10F11000   1.737   2.337   9.495 -2.2626 -0.8249  1.3179
  107OSM   C11F11001   1.685   2.544   9.477  0.3679 -0.1603 -0.1827
  107OSM   H11F11002   1.726   2.638   9.521  3.3954 -0.7477 -1.5259
  107OSM   H11G11003   1.574   2.543   9.489  0.5448 -2.3029  2.0040
  107OSM   C12F11004   1.720   2.565   9.326  0.8824 -0.6109 -0.5999
  107OSM   H12F11005   1.829   2.578   9.314  1.0754  0.7907  1.9966
  107OSM   H12G11006   1.661   2.656   9.305 -0.6944 -1.1799  1.0617
  107OSM   C13F11007   1.663   2.461   9.228  0.0645  0.1395 -0.3241
  107OSM   H13F11008   1.553   2.471   9.238 -0.2097 -1.6709 -1.1559
  107OSM   H13G11009   1.702   2.360   9.251  2.0378  0.7225 -0.8398
  107OSM   C14F11010   1.686   2.493   9.077  0.0771  0.2119 -0.0200
  107OSM   H14F11011   1.793   2.476   9.051  0.3475  2.3039 -0.3895
  107OSM   H14G11012   1.675   2.602   9.066  0.3076  0.1684 -0.6961
  107OSM   C15F11013   1.589   2.423   8.987  0.6374  0.5128  1.1292
  107OSM   H15F11014   1.482   2.432   9.017  0.6111 -1.3515  1.6787
  107OSM   H15G11015   1.609   2.314   8.985  0.1107  0.4110 -1.0013
  107OSM   C16F11016   1.595   2.468   8.842 -0.1982  0.7232  0.0432
  107OSM   H16F11017   1.700   2.475   8.807  0.3027 -0.1025  1.3170
  107OSM   H16G11018   1.550   2.567   8.819 -0.3239  0.4071 -1.1266
  107OSM   C17F11019   1.517   2.380   8.740  1.0414  0.0808 -0.2155
  107OSM   H17F11020   1.488   2.436   8.649  3.9016  2.1413 -0.0035
  107OSM   H17G11021   1.421   2.344   8.783  0.5616  0.8913 -0.5914
  107OSM   C18F11022   1.592   2.261   8.688  0.0303  0.1877 -0.1009
  107OSM   H18F11023   1.680   2.291   8.627 -0.6454 -0.8759 -1.6621
  107OSM   H18G11024   1.533   2.194   8.622 -0.2838 -0.4779  0.8391
  107OSM   H18H11025   1.627   2.189   8.765 -2.2583 -1.3254 -0.3833
  108OSM      N11026   4.321   0.205  10.587  0.1864  0.0455  0.1873
  108OSM    C1511027   4.408   0.241  10.474 -0.1610  0.6251  0.1528
  108OSM   H15A11028   4.478   0.320  10.495  1.6855 -1.3364  1.7866
  108OSM   H15B11029   4.352   0.276  10.388 -2.2673  2.7039  2.2402
  108OSM   H15C11030   4.462   0.153  10.440 -2.2469 -0.7991  0.3425
  108OSM    C1411031   4.420   0.171  10.697 -0.7477  0.1663 -0.4328
  108OSM   H14A11032   4.457   0.070  10.692  1.1930  0.5955  2.4471
  108OSM   H14B11033   4.373   0.184  10.793 -1.4905 -2.3727 -0.3908
  108OSM   H14C11034   4.496   0.248  10.695  0.4230 -0.9414 -2.2284
  108OSM    C1311035   4.244   0.327  10.625 -0.2121 -0.4465  1.1018
  108OSM   H13A11036   4.200   0.315  10.722  3.5353 -1.5993  2.8535
  108OSM   H13B11037   4.170   0.360  10.553  0.3860  0.5929  0.9305
  108OSM   H13C11038   4.311   0.411  10.638 -2.3320  1.7030 -0.8056
  108OSM    C1211039   4.220   0.089  10.558 -0.1036 -0.2747 -0.2590
  108OSM   H12A11040   4.159   0.108  10.471  1.1108 -1.4197 -1.4082
  108OSM   H12B11041   4.158   0.080  10.647  2.6086 -0.2694  1.7698
  108OSM    C1111042   4.275  -0.054  10.531 -1.2159  0.4090  0.8555
  108OSM   H11A11043   4.314  -0.040  10.428 -0.2600  0.5167  1.2287
  108OSM   H11B11044   4.194  -0.129  10.522 -0.2320 -0.5632 -0.1505
  108OSM      P11045   4.518  -0.159  10.589  0.0045 -0.0263 -0.3292
  108OSM    O1311046   4.573  -0.079  10.481  0.7352  0.0542 -0.3891
  108OSM    O1411047   4.596  -0.169  10.716 -0.0188 -0.1662 -0.5359
  108OSM    O1111048   4.485  -0.307  10.535 -0.0472 -0.3826  0.4762
  108OSM    O1211049   4.368  -0.103  10.630 -0.5925 -0.4773  0.3042
  108OSM    C1S11050   4.379  -0.343  10.454 -0.2488 -0.0622 -0.3090
  108OSM    H1S11051   4.356  -0.254  10.392  1.1053 -0.3806 -1.2984
  108OSM    H1T11052   4.294  -0.372  10.520  0.3816  1.5137  1.2999
  108OSM     NF11053   4.333  -0.480  10.256 -0.7882  0.2769 -0.3684
  108OSM    HNF11054   4.279  -0.563  10.257 -1.9857  0.9868 -2.0186
  108OSM    C2S11055   4.428  -0.462  10.367  0.1642  1.0507 -0.0839
  108OSM    H2S11056   4.526  -0.433  10.322 -0.3955  0.8646 -1.4936
  108OSM    C3S11057   4.454  -0.586  10.462 -0.5754 -0.3055  0.2338
  108OSM    H3S11058   4.366  -0.629  10.514 -0.1164 -1.5696 -0.0110
  108OSM     O311059   4.532  -0.565  10.581 -0.6409  0.7055 -0.2733
  108OSM    HO311060   4.534  -0.470  10.596  1.0258  0.7199 -0.3239
  108OSM    C4S11061   4.510  -0.701  10.383  0.3138 -0.4732  0.2891
  108OSM    H4S11062   4.432  -0.777  10.367  0.0096 -0.4773  1.6633
  108OSM    C5S11063   4.638  -0.720  10.343  0.2115 -0.1980 -0.0197
  108OSM    H5S11064   4.717  -0.646  10.361 -0.9960  1.1668 -0.1305
  108OSM    C6S11065   4.683  -0.838  10.252 -1.0883  0.0152 -0.8651
  108OSM    H6S11066   4.731  -0.925  10.303 -0.6304 -0.1296 -1.5303
  108OSM    H6T11067   4.773  -0.800  10.198 -0.2368  0.6560  0.9372
  108OSM    C7S11068   4.571  -0.883  10.160 -0.3470 -0.2784  0.0141
  108OSM    H7S11069   4.473  -0.893  10.213 -2.1713 -0.5600 -3.1253
  108OSM    H7T11070   4.582  -0.978  10.104 -0.5783  1.0100 -2.3852
  108OSM    C8S11071   4.546  -0.780  10.044  0.0781  0.2477  0.0793
  108OSM    H8S11072   4.637  -0.792   9.980 -1.1120  0.5055 -1.7306
  108OSM    H8T11073   4.530  -0.672  10.063  0.6843 -0.1184  3.2182
  108OSM    C9S11074   4.422  -0.822   9.955  0.3978  0.7121 -0.6931
  108OSM    H9S11075   4.327  -0.793  10.004 -0.2602 -1.4385 -0.5583
  108OSM    H9T11076   4.431  -0.933   9.945  1.5372  0.9344 -2.9158
  108OSM   C10S11077   4.419  -0.781   9.805 -0.1621 -0.2538 -0.1140
  108OSM   H10S11078   4.501  -0.839   9.757  0.6974 -0.4888  1.5601
  108OSM   H10T11079   4.452  -0.675   9.795 -1.2023 -0.0011 -1.0629
  108OSM   C11S11080   4.298  -0.819   9.729  0.8109 -1.0107 -0.5913
  108OSM   H11S11081   4.209  -0.768   9.772  0.6482 -0.9707 -0.9747
  108OSM   H11T11082   4.275  -0.926   9.746 -1.3846 -0.6867 -1.1602
  108OSM   C12S11083   4.303  -0.794   9.580 -0.6693  0.0296  0.0021
  108OSM   H12S11084   4.353  -0.700   9.549 -1.2627  0.3035 -0.1443
  108OSM   H12T11085   4.197  -0.787   9.545 -0.4704  0.5156 -0.5137
  108OSM   C13S11086   4.385  -0.906   9.505  0.7319 -0.5104 -0.5053
  108OSM   H13S11087   4.343  -1.001   9.542 -0.7461  1.0989  2.2519
  108OSM   H13T11088   4.486  -0.895   9.549  0.3450  0.6218  0.1674
  108OSM   C14S11089   4.379  -0.883   9.355  0.5106  0.1126  0.8803
  108OSM   H14S11090   4.423  -0.789   9.317  1.2108 -0.9801 -1.1225
  108OSM   H14T11091   4.271  -0.877   9.330  1.2616 -0.3291 -2.9609
  108OSM   C15S11092   4.448  -0.989   9.278  0.4701 -0.7204 -0.2716
  108OSM   H15S11093   4.405  -1.091   9.285 -0.4356 -0.5006 -2.1086
  108OSM   H15T11094   4.553  -1.002   9.313 -0.1855 -0.3378  1.9600
  108OSM   C16S11095   4.459  -0.954   9.132  1.0471  0.7494  0.1105
  108OSM   H16S11096   4.525  -1.021   9.074  0.5947  2.1323 -2.1051
  108OSM   H16T11097   4.511  -0.857   9.118  2.3890  0.2100  1.0977
  108OSM   C17S11098   4.325  -0.949   9.056 -0.1294  0.1643  0.1560
  108OSM   H17S11099   4.255  -0.869   9.088  0.9391 -0.0857  3.4639
  108OSM   H17T11100   4.273  -1.043   9.083 -1.2332  0.5006 -0.7074
  108OSM   C18S11101   4.346  -0.943   8.908  0.8649 -0.9592  0.2204
  108OSM   H18S11102   4.419  -1.022   8.881  1.2577 -0.6378  0.3425
  108OSM   H18T11103   4.399  -0.848   8.886 -2.0987  0.5606 -0.9500
  108OSM   H18U11104   4.248  -0.967   8.860 -0.1260  2.1080  0.4887
  108OSM    C1F11105   4.338  -0.397  10.154 -0.0959  0.4075  0.6571
  108OSM     OF11106   4.416  -0.306  10.158  0.3798  0.8574 -0.2684
  108OSM    C2F11107   4.247  -0.423  10.044 -0.2795 -0.0322  0.1939
  108OSM    H2F11108   4.158  -0.360  10.068 -1.9315 -1.7061 -1.2507
  108OSM    H2G11109   4.202  -0.524  10.033 -1.8538  0.6581  0.0274
  108OSM    C3F11110   4.318  -0.379   9.910  0.8955 -0.1232 -0.1334
  108OSM    H3F11111   4.410  -0.438   9.892  1.1594  0.6171 -1.3222
  108OSM    H3G11112   4.366  -0.279   9.919 -0.8872  0.8809 -1.0674
  108OSM    C4F11113   4.228  -0.384   9.787  0.0783 -0.8730 -0.5835
  108OSM    H4F11114   4.142  -0.317   9.807  0.4851  0.0670 -1.9183
  108OSM    H4G11115   4.187  -0.487   9.780 -0.5100 -0.9780  2.7389
  108OSM    C5F11116   4.302  -0.350   9.658 -0.3263  0.8773  0.8405
  108OSM    H5F11117   4.394  -0.411   9.649 -0.1764  1.1574  0.4777
  108OSM    H5G11118   4.336  -0.244   9.658  0.2289  0.7025  1.3299
  108OSM    C6F11119   4.214  -0.388   9.524 -0.2006  0.4498 -0.0049
  108OSM    H6F11120   4.118  -0.334   9.536  1.1142  2.8797  0.2952
  108OSM    H6G11121   4.202  -0.497   9.546  3.6385  0.4517  3.4584
  108OSM    C7F11122   4.285  -0.357   9.389  0.0407  0.2734  0.2409
  108OSM    H7F11123   4.385  -0.406   9.390  0.3135  0.7592 -1.1765
  108OSM    H7G11124   4.318  -0.251   9.391  1.6860 -0.1204 -1.9330
  108OSM    C8F11125   4.199  -0.385   9.267  0.6188  0.3172  0.1024
  108OSM    H8F11126   4.235  -0.331   9.177 -0.1473  1.6138  0.5528
  108OSM    H8G11127   4.101  -0.343   9.295 -0.3515 -2.1633  0.6846
  108OSM    C9F11128   4.194  -0.534   9.233  0.3489 -0.9642  0.9396
  108OSM    H9F11129   4.295  -0.570   9.210  1.5669  3.1764 -1.1631
  108OSM   C10F11130   4.092  -0.623   9.238  0.0518 -0.5922  0.1860
  108OSM   H10F11131   4.108  -0.728   9.208 -0.1279 -0.5961  0.1022
  108OSM   C11F11132   3.954  -0.594   9.290  0.4136  0.1209 -0.1622
  108OSM   H11F11133   3.893  -0.591   9.197 -1.1585  0.5076  0.8537
  108OSM   H11G11134   3.938  -0.492   9.329 -1.3160 -0.7558  1.5985
  108OSM   C12F11135   3.904  -0.696   9.384 -0.1904 -0.1103 -0.3513
  108OSM   H12F11136   3.967  -0.702   9.475 -2.2719 -0.3068  1.1452
  108OSM   H12G11137   3.905  -0.799   9.342 -1.4213 -0.0762 -0.5047
  108OSM   C13F11138   3.757  -0.670   9.425  0.0129 -1.1413  0.2573
  108OSM   H13F11139   3.758  -0.566   9.463  0.9730 -1.4667  1.1404
  108OSM   H13G11140   3.743  -0.735   9.514  3.3954  0.4819  2.1520
  108OSM   C14F11141   3.655  -0.706   9.320 -0.2898  0.9471 -0.0743
  108OSM   H14F11142   3.650  -0.813   9.292 -0.4542  1.3207 -1.5574
  108OSM   H14G11143   3.692  -0.653   9.229  1.7844 -1.5820 -0.8008
  108OSM   C15F11144   3.518  -0.643   9.355 -0.8032  0.3142 -0.1278
  108OSM   H15F11145   3.538  -0.541   9.393 -0.2261 -0.1762  0.9524
  108OSM   H15G11146   3.471  -0.689   9.445 -1.2051  2.0049  0.5595
  108OSM   C16F11147   3.422  -0.659   9.237 -0.6417 -0.4282  0.9134
  108OSM   H16F11148   3.475  -0.673   9.141 -0.7991  1.0841  0.5813
  108OSM   H16G11149   3.373  -0.559   9.237 -0.6693 -0.3895 -1.5422
  108OSM   C17F11150   3.322  -0.779   9.253  0.0608 -0.6347 -0.2921
  108OSM   H17F11151   3.257  -0.747   9.337  0.4555  0.0767 -0.2547
  108OSM   H17G11152   3.373  -0.876   9.271  1.3136 -0.1797 -1.2729
  108OSM   C18F11153   3.235  -0.805   9.120  0.1470 -0.4230  0.0198
  108OSM   H18F11154   3.139  -0.854   9.148 -0.3754  0.9905  0.8369
  108OSM   H18G11155   3.286  -0.866   9.043 -1.2942 -0.7701 -0.6918
  108OSM   H18H11156   3.209  -0.708   9.072  2.7473  0.0714 -0.5328
  109OSM      N11157   4.676   2.672  11.052  0.2040 -0.2218 -0.4104
  109OSM    C1511158   4.545   2.745  11.036  0.1877  0.0895 -0.4685
  109OSM   H15A11159   4.460   2.699  11.084 -1.1004 -1.5752 -4.0104
  109OSM   H15B11160   4.518   2.746  10.932 -1.0147 -0.2594 -0.1776
  109OSM   H15C11161   4.547   2.846  11.073 -0.3231  0.0939 -0.4509
  109OSM    C1411162   4.684   2.667  11.202  0.5500 -0.1531 -0.1560
  109OSM   H14A11163   4.596   2.615  11.235  1.3203 -1.6681 -0.4229
  109OSM   H14B11164   4.694   2.763  11.250 -0.5043 -0.8289  1.4740
  109OSM   H14C11165   4.777   2.616  11.223  0.0824 -0.4322  1.3208
  109OSM    C1311166   4.654   2.540  10.991  0.7417  0.9711 -0.3681
  109OSM   H13A11167   4.569   2.482  11.025  0.8057  1.5444  0.8467
  109OSM   H13B11168   4.732   2.469  11.012 -0.5462 -0.0250  1.3110
  109OSM   H13C11169   4.627   2.557  10.888  0.0354  0.6827 -0.2363
  109OSM    C1211170   4.804   2.744  11.001 -0.2578 -0.3312  0.4222
  109OSM   H12A11171   4.796   2.799  10.909  3.3294  1.8946  1.2351
  109OSM   H12B11172   4.869   2.662  10.973 -0.4470  0.6624 -3.4609
  109OSM    C1111173   4.860   2.847  11.098  0.5375 -0.0620  0.4739
  109OSM   H11A11174   4.935   2.916  11.054  0.6800  0.0728  0.9149
  109OSM   H11B11175   4.905   2.792  11.184 -1.7332 -1.9773  0.5190
  109OSM      P11176   4.691   3.054  11.070 -0.5900  0.1346  0.0025
  109OSM    O1311177   4.548   3.061  11.107 -0.0611  0.5891 -0.7408
  109OSM    O1411178   4.771   3.174  11.096 -0.5149  0.2845  0.2409
  109OSM    O1111179   4.701   3.021  10.916 -0.5497  0.3140  0.0948
  109OSM    O1211180   4.761   2.932  11.149 -0.3049 -0.3675  0.8827
  109OSM    C1S11181   4.707   3.123  10.814  0.1199  0.4353  0.5428
  109OSM    H1S11182   4.812   3.152  10.791 -0.2164  0.7557 -0.6335
  109OSM    H1T11183   4.648   3.212  10.846 -0.8574 -0.5328  1.4840
  109OSM     NF11184   4.662   3.177  10.574  0.5089  0.0760 -0.3176
  109OSM    HNF11185   4.583   3.235  10.558 -0.3840 -0.9033  0.3589
  109OSM    C2S11186   4.633   3.076  10.682  0.1909 -0.3024 -0.9340
  109OSM    H2S11187   4.677   2.978  10.655  0.0313 -0.5049 -0.4658
  109OSM    C3S11188   4.485   3.052  10.710  0.9226  0.4157 -0.3036
  109OSM    H3S11189   4.453   3.146  10.759  2.0807  1.0925 -0.7951
  109OSM     O311190   4.469   2.947  10.806 -0.2718 -0.0118 -0.1352
  109OSM    HO311191   4.548   2.952  10.860 -0.2139  1.8248 -0.3130
  109OSM    C4S11192   4.414   3.016  10.584  0.0644  0.1763  0.2091
  109OSM    H4S11193   4.414   2.907  10.565  1.6079  0.1560  0.1959
  109OSM    C5S11194   4.338   3.102  10.515 -0.5887 -0.2332  0.7826
  109OSM    H5S11195   4.309   3.204  10.543 -2.6019 -0.8509  1.1555
  109OSM    C6S11196   4.272   3.060  10.383 -0.1203 -0.2849 -0.4162
  109OSM    H6S11197   4.161   3.069  10.387 -0.1574  1.0364 -2.7280
  109OSM    H6T11198   4.291   2.955  10.350 -1.7413 -0.3759 -1.1652
  109OSM    C7S11199   4.307   3.157  10.262 -1.0188  0.6704  0.3127
  109OSM    H7S11200   4.417   3.173  10.260 -0.9044 -0.1556 -0.4214
  109OSM    H7T11201   4.244   3.249  10.264 -1.1385  0.5836  0.6068
  109OSM    C8S11202   4.279   3.083  10.126  0.8003  0.5185 -0.6123
  109OSM    H8S11203   4.175   3.046  10.118  1.6065 -1.7095 -1.5706
  109OSM    H8T11204   4.333   2.986  10.127 -1.1544 -0.6267 -1.3447
  109OSM    C9S11205   4.318   3.160  10.007  0.0864 -0.2919 -0.1426
  109OSM    H9S11206   4.425   3.186  10.020 -0.4178  0.9875  1.9086
  109OSM    H9T11207   4.269   3.259  10.001 -0.0096 -0.2418  1.2074
  109OSM   C10S11208   4.283   3.095   9.877 -0.4344  0.5467  0.4178
  109OSM   H10S11209   4.176   3.068   9.867 -0.0134 -0.7357 -1.2820
  109OSM   H10T11210   4.337   2.998   9.872  0.0140  0.8304 -0.5426
  109OSM   C11S11211   4.322   3.164   9.745 -0.4193  0.1778 -0.3190
  109OSM   H11S11212   4.413   3.229   9.744 -1.0250  1.0369 -0.9802
  109OSM   H11T11213   4.231   3.220   9.715 -1.1429 -1.1000 -0.5686
  109OSM   C12S11214   4.346   3.061   9.634 -0.2847  0.0957  0.5680
  109OSM   H12S11215   4.275   2.976   9.625  0.6912 -0.7492  0.6891
  109OSM   H12T11216   4.434   3.002   9.667  0.9119  1.1121 -0.6573
  109OSM   C13S11217   4.378   3.120   9.495  0.0041  1.1604  0.2610
  109OSM   H13S11218   4.432   3.040   9.439 -1.2347  0.1555  0.4554
  109OSM   H13T11219   4.452   3.201   9.512  1.2515  0.1344 -0.1204
  109OSM   C14S11220   4.260   3.174   9.410 -0.2656  0.8467 -0.6815
  109OSM   H14S11221   4.306   3.232   9.327  0.6472  1.6358  0.3392
  109OSM   H14T11222   4.200   3.246   9.470 -1.4886  0.3810 -1.3164
  109OSM   C15S11223   4.171   3.057   9.348  0.2577 -0.1310  0.4854
  109OSM   H15S11224   4.147   2.976   9.420 -1.1855 -0.5495 -0.4014
  109OSM   H15T11225   4.231   3.016   9.264 -0.4629 -0.0190 -0.0984
  109OSM   C16S11226   4.044   3.110   9.292 -0.0101 -0.6562  0.4009
  109OSM   H16S11227   3.991   3.169   9.370  0.4445 -0.2337  0.3940
  109OSM   H16T11228   3.973   3.029   9.266 -0.0393 -0.8016  0.9222
  109OSM   C17S11229   4.063   3.190   9.169  0.2372 -0.3419 -0.1790
  109OSM   H17S11230   4.138   3.272   9.174 -1.7523  1.5302  1.5734
  109OSM   H17T11231   3.966   3.245   9.163 -0.5077 -1.6571 -0.8124
  109OSM   C18S11232   4.086   3.098   9.044 -0.0243  0.2653  0.6836
  109OSM   H18S11233   4.012   3.015   9.053 -2.2890  1.8836 -1.6467
  109OSM   H18T11234   4.190   3.059   9.050  0.1907  0.9360  1.5871
  109OSM   H18U11235   4.063   3.163   8.957  0.1334 -1.1903 -0.4925
  109OSM    C1F11236   4.778   3.198  10.524  0.1119  0.5735 -0.8631
  109OSM     OF11237   4.867   3.118  10.548 -0.6620  0.0916  0.0592
  109OSM    C2F11238   4.800   3.319  10.442  0.6658 -0.2573 -0.2285
  109OSM    H2F11239   4.869   3.385  10.499  0.3955  0.7020 -0.9871
  109OSM    H2G11240   4.706   3.378  10.437  0.8239 -0.1099 -1.6624
  109OSM    C3F11241   4.848   3.287  10.300 -0.5039  0.1970 -0.4337
  109OSM    H3F11242   4.760   3.258  10.239  0.5150  2.4821 -3.2419
  109OSM    H3G11243   4.928   3.212  10.311 -0.7548  0.1397  1.3203
  109OSM    C4F11244   4.906   3.417  10.231  0.2737 -0.3086  0.0842
  109OSM    H4F11245   4.841   3.506  10.239  0.1066  0.0052 -3.2985
  109OSM    H4G11246   4.935   3.389  10.127  0.0487  0.1990 -0.1152
  109OSM    C5F11247   5.044   3.450  10.298  0.5020 -0.3397 -0.2812
  109OSM    H5F11248   5.083   3.354  10.338  0.1288 -0.1122  0.6643
  109OSM    H5G11249   5.030   3.510  10.391 -2.1937  1.3794 -1.6656
  109OSM    C6F11250   5.142   3.513  10.204  0.4259 -0.3640  0.1046
  109OSM    H6F11251   5.075   3.573  10.139 -2.7048 -0.9608  2.5174
  109OSM    H6G11252   5.188   3.433  10.143 -1.8877  0.6404 -3.2815
  109OSM    C7F11253   5.240   3.603  10.278  0.1378  0.1529  0.5409
  109OSM    H7F11254   5.285   3.554  10.366 -1.7736  2.0962  2.7281
  109OSM    H7G11255   5.182   3.684  10.326  0.1411  0.2409  0.3981
  109OSM    C8F11256   5.350   3.665  10.181  0.2131  0.1580  0.4295
  109OSM    H8F11257   5.418   3.706  10.259 -0.2897 -0.7668  1.3832
  109OSM    H8G11258   5.304   3.745  10.120 -2.7319 -1.1095  0.8172
  109OSM    C9F11259   5.429   3.556  10.117 -0.5358  0.0108  0.1481
  109OSM    H9F11260   5.503   3.506  10.181  1.4637 -0.8846 -2.6697
  109OSM   C10F11261   5.424   3.529   9.985  0.0839 -0.9547 -0.5894
  109OSM   H10F11262   5.474   3.437   9.952  0.7119 -1.5115  1.7203
  109OSM   C11F11263   5.341   3.600   9.887  0.6075 -0.2776  0.2700
  109OSM   H11F11264   5.354   3.710   9.883  2.6041 -0.2540  3.3187
  109OSM   H11G11265   5.237   3.562   9.898  0.5060 -0.5590 -1.4507
  109OSM   C12F11266   5.371   3.576   9.745 -0.2511  0.0223  0.2398
  109OSM   H12F11267   5.410   3.474   9.724  0.0754  0.1009  0.4562
  109OSM   H12G11268   5.449   3.648   9.713 -1.3663  1.0670 -0.2221
  109OSM   C13F11269   5.239   3.596   9.668  0.1158  0.6432 -0.1199
  109OSM   H13F11270   5.191   3.683   9.718  0.4954  0.7814  0.0073
  109OSM   H13G11271   5.179   3.504   9.675  1.8650 -0.4379  2.0182
  109OSM   C14F11272   5.259   3.628   9.517 -0.4149  0.8486 -0.2335
  109OSM   H14F11273   5.290   3.540   9.458  1.4459  0.5242  1.1194
  109OSM   H14G11274   5.345   3.699   9.514  0.5102 -0.0248  2.2918
  109OSM   C15F11275   5.134   3.687   9.456  0.2840  0.2033  0.0975
  109OSM   H15F11276   5.104   3.776   9.515  0.8168 -0.8283  1.9844
  109OSM   H15G11277   5.043   3.624   9.464 -0.8770  1.9193  0.9315
  109OSM   C16F11278   5.153   3.719   9.312 -0.0278  0.5960  0.0571
  109OSM   H16F11279   5.140   3.617   9.269  1.3878 -1.4431  3.9561
  109OSM   H16G11280   5.254   3.757   9.289 -0.3299  1.5553  0.2521
  109OSM   C17F11281   5.059   3.831   9.261  0.8768  0.5094  0.0176
  109OSM   H17F11282   5.096   3.880   9.169  2.7835  0.9798  0.9847
  109OSM   H17G11283   5.062   3.916   9.333 -3.3583 -1.3775  2.8663
  109OSM   C18F11284   4.918   3.778   9.243  0.0911 -0.1067  0.3102
  109OSM   H18F11285   4.896   3.716   9.333 -0.6105 -0.6572 -0.2296
  109OSM   H18G11286   4.918   3.700   9.164 -0.4154  0.7864 -0.5929
  109OSM   H18H11287   4.842   3.859   9.244 -0.3356 -0.5057  0.5724
  110OSM      N11288   6.443   2.323  10.974 -0.0094  0.1060 -0.2439
  110OSM    C1511289   6.494   2.350  11.107 -0.6194 -0.1931  0.3104
  110OSM   H15A11290   6.545   2.445  11.104 -1.4899  0.3786  2.0508
  110OSM   H15B11291   6.574   2.285  11.140  2.1112  1.6071 -2.2598
  110OSM   H15C11292   6.421   2.360  11.186 -1.2227  1.4630 -0.4068
  110OSM    C1411293   6.564   2.340  10.889 -0.9924  0.4790 -0.5162
  110OSM   H14A11294   6.538   2.334  10.784  1.3366 -0.3864 -1.1047
  110OSM   H14B11295   6.625   2.252  10.891 -2.5531 -0.6491 -0.0790
  110OSM   H14C11296   6.623   2.426  10.916 -2.0441  0.5009  2.0851
  110OSM    C1311297   6.409   2.184  10.950  0.2193 -0.1305  0.6746
  110OSM   H13A11298   6.324   2.159  11.012 -0.2352 -0.0455  0.1058
  110OSM   H13B11299   6.492   2.119  10.974 -0.2733 -0.8259  0.5385
  110OSM   H13C11300   6.381   2.164  10.847  0.1310  0.9867  0.4688
  110OSM    C1211301   6.333   2.421  10.932 -0.3211  0.1386  1.0260
  110OSM   H12A11302   6.259   2.428  11.009 -2.0639 -1.3069 -0.4258
  110OSM   H12B11303   6.284   2.393  10.840  0.5534  3.0996 -0.4720
  110OSM    C1111304   6.382   2.561  10.900  0.7617  0.5197  0.3125
  110OSM   H11A11305   6.301   2.625  10.858 -0.2741 -0.4382  0.8117
  110OSM   H11B11306   6.454   2.556  10.815 -0.4279 -0.4815 -0.6798
  110OSM      P11307   6.590   2.692  11.011 -0.2145 -0.3383  0.4324
  110OSM    O1311308   6.584   2.814  11.098  0.0464  0.4109 -0.0532
  110OSM    O1411309   6.688   2.593  11.061 -0.0260  0.3672 -0.4591
  110OSM    O1111310   6.619   2.727  10.855 -0.0600 -0.1089 -0.7649
  110OSM    O1211311   6.444   2.622  11.012  0.1196  0.1428 -0.2652
  110OSM    C1S11312   6.572   2.863  10.819  0.7864  0.2970  0.5588
  110OSM    H1S11313   6.620   2.943  10.880  2.2152  0.9981 -1.3977
  110OSM    H1T11314   6.461   2.868  10.828  0.8285  1.1824  0.7032
  110OSM     NF11315   6.496   3.005  10.639 -0.6032 -0.7740  0.2369
  110OSM    HNF11316   6.409   2.979  10.598 -0.5256 -0.3926 -0.1686
  110OSM    C2S11317   6.582   2.891  10.667 -0.0143  0.5519  0.0101
  110OSM    H2S11318   6.691   2.907  10.648  0.0050 -0.3316 -0.6629
  110OSM    C3S11319   6.535   2.773  10.583 -0.5625 -0.7676 -0.3940
  110OSM    H3S11320   6.426   2.759  10.597 -0.4885 -0.9138  0.0462
  110OSM     O311321   6.590   2.650  10.613 -0.3930 -0.4564 -0.1384
  110OSM    HO311322   6.606   2.654  10.708 -1.0122  0.1719 -0.0510
  110OSM    C4S11323   6.540   2.805  10.438  0.6390 -0.0101 -0.2099
  110OSM    H4S11324   6.451   2.859  10.404 -0.5384 -1.5011  0.3704
  110OSM    C5S11325   6.639   2.779  10.349  0.2853  0.0683  0.1649
  110OSM    H5S11326   6.730   2.745  10.399 -0.7413 -0.7899  1.5268
  110OSM    C6S11327   6.647   2.816  10.198 -0.2969 -0.3531 -0.1957
  110OSM    H6S11328   6.564   2.882  10.164 -0.4193 -0.0030  0.7583
  110OSM    H6T11329   6.637   2.723  10.137  0.1565 -0.0222 -0.7757
  110OSM    C7S11330   6.784   2.873  10.162 -0.2226 -0.2505 -0.0186
  110OSM    H7S11331   6.866   2.800  10.174  2.2351  2.2838 -0.4714
  110OSM    H7T11332   6.812   2.957  10.230  0.7342 -1.2496  0.8515
  110OSM    C8S11333   6.804   2.931  10.023 -0.3779  0.1806 -0.1967
  110OSM    H8S11334   6.914   2.940  10.009 -0.3340 -1.1790 -0.8562
  110OSM    H8T11335   6.756   3.031  10.021 -0.5210  0.1037 -1.0470
  110OSM    C9S11336   6.745   2.842   9.914  0.0536 -0.1271  0.4370
  110OSM    H9S11337   6.635   2.860   9.916  0.4041  2.3417  2.0450
  110OSM    H9T11338   6.767   2.736   9.939 -1.2956 -0.9441 -1.6139
  110OSM   C10S11339   6.802   2.890   9.786  0.7745  0.6549  0.0184
  110OSM   H10S11340   6.910   2.901   9.808  0.7982  1.9050 -0.6616
  110OSM   H10T11341   6.768   2.990   9.751  1.8077  0.3020 -2.1493
  110OSM   C11S11342   6.774   2.796   9.665  1.2135  0.3315 -0.0407
  110OSM   H11S11343   6.665   2.791   9.646  0.7919  4.0166  0.5692
  110OSM   H11T11344   6.803   2.697   9.704  0.8478  0.9202  1.8293
  110OSM   C12S11345   6.855   2.822   9.533  0.6044 -0.7441  0.4739
  110OSM   H12S11346   6.965   2.815   9.541  1.0296  1.9067 -1.5483
  110OSM   H12T11347   6.834   2.928   9.508  1.1896 -0.8399 -0.4699
  110OSM   C13S11348   6.807   2.726   9.424  0.0756  0.2439  0.8633
  110OSM   H13S11349   6.697   2.708   9.417  0.0036 -0.0620  2.4522
  110OSM   H13T11350   6.845   2.628   9.460 -1.3510 -0.6565  0.0251
  110OSM   C14S11351   6.839   2.759   9.275 -0.3098 -0.5134  0.9464
  110OSM   H14S11352   6.895   2.682   9.217 -0.9600 -0.1649 -0.1862
  110OSM   H14T11353   6.896   2.854   9.273 -0.5207 -0.3964 -0.8822
  110OSM   C15S11354   6.706   2.788   9.193 -0.8416  0.3997  0.4355
  110OSM   H15S11355   6.634   2.850   9.249 -2.1904  0.2590 -1.0771
  110OSM   H15T11356   6.659   2.688   9.184  0.9286 -0.6385  2.0296
  110OSM   C16S11357   6.720   2.859   9.056  0.3708 -0.0275  0.2902
  110OSM   H16S11358   6.812   2.818   9.009  0.6083  0.3276  0.4337
  110OSM   H16T11359   6.736   2.967   9.077 -1.7644  0.4351 -0.2562
  110OSM   C17S11360   6.598   2.860   8.962  0.9404 -0.1697 -0.4583
  110OSM   H17S11361   6.604   2.766   8.903  0.4823 -0.0871 -0.6364
  110OSM   H17T11362   6.606   2.942   8.888  1.1527 -1.5882 -2.0723
  110OSM   C18S11363   6.458   2.884   9.029 -0.1784  0.2946  0.1133
  110OSM   H18S11364   6.457   2.989   9.065  1.6258  0.6569 -0.7853
  110OSM   H18T11365   6.450   2.814   9.115  2.2722  0.8967  0.8938
  110OSM   H18U11366   6.370   2.872   8.962 -0.5757  2.6971  0.1164
  110OSM    C1F11367   6.544   3.129  10.654  0.9244 -0.4758 -0.4892
  110OSM     OF11368   6.647   3.153  10.712 -0.6137  0.4838  0.7018
  110OSM    C2F11369   6.449   3.227  10.587  0.3510  0.1531 -0.6130
  110OSM    H2F11370   6.392   3.260  10.676  0.4321  2.6962 -1.4174
  110OSM    H2G11371   6.394   3.169  10.509  2.2420 -0.1534 -1.7918
  110OSM    C3F11372   6.538   3.345  10.526  0.8032 -0.1993 -0.9862
  110OSM    H3F11373   6.616   3.381  10.596  0.1388 -1.1539  0.2844
  110OSM    H3G11374   6.462   3.425  10.514 -0.6463 -1.5366 -1.1587
  110OSM    C4F11375   6.594   3.317  10.380 -0.1656  0.3436 -0.8629
  110OSM    H4F11376   6.523   3.248  10.328  0.9448 -2.7113  1.3778
  110OSM    H4G11377   6.691   3.264  10.385 -1.6611 -2.7581 -1.9856
  110OSM    C5F11378   6.602   3.442  10.290 -0.1152  0.8957 -0.3641
  110OSM    H5F11379   6.675   3.521  10.319 -2.3194  2.6950  0.6494
  110OSM    H5G11380   6.507   3.499  10.298 -0.8871 -0.6031  2.6668
  110OSM    C6F11381   6.626   3.396  10.140  0.1976  0.1072 -0.2382
  110OSM    H6F11382   6.618   3.286  10.147 -2.8487  0.3576  3.0965
  110OSM    H6G11383   6.725   3.424  10.097 -1.1158  0.3477 -3.3974
  110OSM    C7F11384   6.517   3.445  10.037  0.1774  0.5195  0.5931
  110OSM    H7F11385   6.538   3.554  10.031  1.3953  0.2360 -0.8542
  110OSM    H7G11386   6.414   3.424  10.073  0.1381  0.0581  0.2253
  110OSM    C8F11387   6.541   3.379   9.899  0.8177  0.9772 -0.5984
  110OSM    H8F11388   6.450   3.388   9.837 -1.6445  0.8476  2.7241
  110OSM    H8G11389   6.543   3.270   9.923 -0.1038  0.7566 -1.4448
  110OSM    C9F11390   6.657   3.436   9.828  0.3504 -0.3140 -0.1544
  110OSM    H9F11391   6.679   3.534   9.872 -1.7274  0.6376 -1.1433
  110OSM   C10F11392   6.717   3.381   9.720 -0.5348  0.2335  0.9276
  110OSM   H10F11393   6.806   3.430   9.678 -0.3005  0.0761  1.2401
  110OSM   C11F11394   6.675   3.253   9.650  0.7077 -0.1001  0.5781
  110OSM   H11F11395   6.573   3.234   9.690  0.9307 -0.0435  1.1903
  110OSM   H11G11396   6.746   3.174   9.684  1.6659  1.4721  2.4697
  110OSM   C12F11397   6.683   3.281   9.505  0.3380 -0.5924  0.4372
  110OSM   H12F11398   6.789   3.306   9.481 -0.0665  0.1267 -0.6726
  110OSM   H12G11399   6.608   3.359   9.480  0.9582 -0.8444 -2.7458
  110OSM   C13F11400   6.631   3.164   9.417  0.2333  0.5383  0.5558
  110OSM   H13F11401   6.521   3.159   9.427 -0.1032 -1.9949 -2.7334
  110OSM   H13G11402   6.670   3.069   9.458  2.1452  0.4052 -1.3663
  110OSM   C14F11403   6.669   3.183   9.270  1.3163  0.3980  0.6114
  110OSM   H14F11404   6.677   3.083   9.223  3.1210  0.0542  1.5466
  110OSM   H14G11405   6.765   3.235   9.251  2.0613 -1.5053 -1.2973
  110OSM   C15F11406   6.568   3.280   9.198 -0.2827  0.1530 -0.6058
  110OSM   H15F11407   6.574   3.377   9.252 -0.1021 -0.2557  0.1079
  110OSM   H15G11408   6.460   3.255   9.202 -0.8448  2.4115 -0.2982
  110OSM   C16F11409   6.593   3.309   9.049 -0.1286  0.2784  0.6544
  110OSM   H16F11410   6.597   3.211   8.997  0.1847  1.7942 -2.4594
  110OSM   H16G11411   6.694   3.356   9.040  0.6155 -1.2860  0.5580
  110OSM   C17F11412   6.484   3.388   8.985 -0.3930 -0.5683 -0.8076
  110OSM   H17F11413   6.469   3.488   9.032 -1.5721  0.5605 -3.3543
  110OSM   H17G11414   6.384   3.341   8.999 -0.4784 -0.4888 -1.1392
  110OSM   C18F11415   6.508   3.417   8.835 -0.7035  0.0614 -0.5103
  110OSM   H18F11416   6.412   3.450   8.790 -1.3452  0.2440  0.9206
  110OSM   H18G11417   6.554   3.332   8.782 -1.4501 -1.2212  0.8051
  110OSM   H18H11418   6.582   3.495   8.808  0.8259 -1.5443 -1.1025
  111OSM      N11419   6.435   6.542  10.795 -0.1052  0.1686 -0.1938
  111OSM    C1511420   6.520   6.559  10.675  0.1360  0.0909  0.5244
  111OSM   H15A11421   6.536   6.471  10.614  1.5915  1.7889 -1.6730
  111OSM   H15B11422   6.624   6.579  10.694  0.2091 -2.0147  2.8962
  111OSM   H15C11423   6.478   6.628  10.603 -0.7562 -0.8373  0.1202
  111OSM    C1411424   6.492   6.428  10.877  0.3300 -0.7145  0.2781
  111OSM   H14A11425   6.586   6.467  10.914 -0.4601  0.6323  0.9387
  111OSM   H14B11426   6.503   6.339  10.817 -0.6480  0.4180 -1.6813
  111OSM   H14C11427   6.424   6.392  10.953  0.9663  1.5142  1.9938
  111OSM    C1311428   6.434   6.673  10.869 -0.0076 -0.1818  0.0321
  111OSM   H13A11429   6.425   6.754  10.799 -1.6747 -1.5752 -1.4853
  111OSM   H13B11430   6.524   6.693  10.925 -0.9141  1.8774  0.8337
  111OSM   H13C11431   6.353   6.666  10.940 -0.6262 -0.8510 -0.7093
  111OSM    C1211432   6.294   6.500  10.752 -0.4532  0.2877 -0.1543
  111OSM   H12A11433   6.299   6.407  10.698 -2.6116  0.5051 -0.8382
  111OSM   H12B11434   6.257   6.565  10.674  0.3795  1.5744  0.4981
  111OSM    C1111435   6.187   6.486  10.868  0.4905 -0.4286  0.1622
  111OSM   H11A11436   6.224   6.400  10.929 -0.1895 -2.1571 -1.7313
  111OSM   H11B11437   6.094   6.451  10.818  0.8085 -0.6653 -0.2837
  111OSM      P11438   6.082   6.731  10.903 -0.0344 -0.6145 -0.1622
  111OSM    O1311439   5.946   6.695  10.941 -0.0022  0.4456  0.7983
  111OSM    O1411440   6.138   6.852  10.971  0.1243  0.2458 -0.1842
  111OSM    O1111441   6.091   6.736  10.743  0.3404  0.2348 -0.7991
  111OSM    O1211442   6.169   6.607  10.947  0.0135  0.0166 -0.5420
  111OSM    C1S11443   6.055   6.849  10.666  1.0247  0.5634 -0.9090
  111OSM    H1S11444   6.030   6.935  10.732 -0.1257  0.1545 -0.7837
  111OSM    H1T11445   5.963   6.826  10.608  0.9481  1.1057 -1.0015
  111OSM     NF11446   6.126   7.017  10.502 -1.0513 -0.8415 -0.9692
  111OSM    HNF11447   6.078   7.011  10.415 -1.7886  0.1632 -0.6459
  111OSM    C2S11448   6.154   6.882  10.559  0.7969  0.4599 -0.0472
  111OSM    H2S11449   6.256   6.884  10.601  1.0974 -1.6449 -0.5441
  111OSM    C3S11450   6.149   6.779  10.445 -0.3123  0.6766  0.9711
  111OSM    H3S11451   6.045   6.776  10.404 -1.0228 -0.7090  2.7579
  111OSM     O311452   6.180   6.652  10.497  0.3953  0.3954  0.4185
  111OSM    HO311453   6.160   6.682  10.586  0.6249  3.3285 -0.4238
  111OSM    C4S11454   6.259   6.820  10.350  0.3083  0.2018  0.2803
  111OSM    H4S11455   6.364   6.799  10.376  0.1910 -3.5129 -1.5466
  111OSM    C5S11456   6.233   6.890  10.235 -0.7530  0.1445 -0.5142
  111OSM    H5S11457   6.130   6.907  10.201 -0.0170  0.1963 -2.8403
  111OSM    C6S11458   6.332   6.948  10.138 -0.2875 -0.4571  0.2580
  111OSM    H6S11459   6.408   7.010  10.190  0.0925 -1.7677  1.3212
  111OSM    H6T11460   6.268   7.017  10.079 -0.1988  0.1107  0.8186
  111OSM    C7S11461   6.412   6.851  10.045  0.0956  0.7639  0.5635
  111OSM    H7S11462   6.471   6.772  10.096  1.5404  0.6885 -1.1380
  111OSM    H7T11463   6.482   6.915   9.986  0.0961 -0.1880 -0.4955
  111OSM    C8S11464   6.322   6.765   9.946  0.6016  0.5121  0.4881
  111OSM    H8S11465   6.236   6.720  10.001 -0.1970  1.4295  0.0053
  111OSM    H8T11466   6.385   6.680   9.913 -1.2941 -0.5159 -0.6365
  111OSM    C9S11467   6.292   6.838   9.809  0.5522 -0.0043 -1.0810
  111OSM    H9S11468   6.391   6.861   9.763  0.5762 -0.6980 -1.3874
  111OSM    H9T11469   6.223   6.924   9.819  0.3863 -0.1699 -0.7774
  111OSM   C10S11470   6.233   6.744   9.700 -0.3351 -0.4225 -0.3677
  111OSM   H10S11471   6.131   6.713   9.731 -0.6630 -0.1839 -1.1786
  111OSM   H10T11472   6.293   6.650   9.700 -1.3974 -1.1761 -2.5445
  111OSM   C11S11473   6.234   6.806   9.560 -0.4707 -0.3230  0.8546
  111OSM   H11S11474   6.333   6.805   9.510 -0.2974 -0.0473  1.1896
  111OSM   H11T11475   6.192   6.907   9.577 -0.3411  0.1881 -1.4542
  111OSM   C12S11476   6.135   6.728   9.476  0.7572 -0.0045 -0.8683
  111OSM   H12S11477   6.035   6.742   9.522  1.6002 -0.3641  1.2041
  111OSM   H12T11478   6.154   6.619   9.483  0.6864 -0.0863 -1.8286
  111OSM   C13S11479   6.127   6.783   9.337 -0.2919  0.5981 -0.8654
  111OSM   H13S11480   6.222   6.761   9.283  0.6915  1.9721  0.2075
  111OSM   H13T11481   6.112   6.892   9.321 -0.1736  0.8241  0.5003
  111OSM   C14S11482   6.016   6.719   9.255 -0.1565 -0.0192 -0.3401
  111OSM   H14S11483   5.915   6.747   9.292  0.5171 -1.2667  2.7715
  111OSM   H14T11484   6.016   6.609   9.269  0.5385  0.3313  3.5478
  111OSM   C15S11485   6.035   6.737   9.102  0.1197  0.0695 -0.5372
  111OSM   H15S11486   6.118   6.674   9.065 -1.4237 -1.6400 -1.2496
  111OSM   H15T11487   6.062   6.845   9.099 -0.6886  0.3849  1.7509
  111OSM   C16S11488   5.920   6.706   9.008 -0.1686 -0.8160  0.2961
  111OSM   H16S11489   5.839   6.770   9.049  1.7563  2.2566 -0.3507
  111OSM   H16T11490   5.887   6.600   9.014 -2.5039 -0.1453  0.1174
  111OSM   C17S11491   5.955   6.746   8.864  0.3086 -0.4827  0.0992
  111OSM   H17S11492   6.035   6.679   8.823  1.3229 -0.3494  1.7561
  111OSM   H17T11493   5.994   6.850   8.864 -0.4219 -0.1518 -2.0653
  111OSM   C18S11494   5.844   6.738   8.758 -0.7982  0.0183  0.4627
  111OSM   H18S11495   5.869   6.811   8.678 -0.1431 -0.3379  0.3320
  111OSM   H18T11496   5.750   6.772   8.807 -0.0094 -0.3722  2.3210
  111OSM   H18U11497   5.831   6.639   8.709 -1.5487  0.3456 -0.0213
  111OSM    C1F11498   6.149   7.135  10.561 -0.0023  0.1602 -0.1454
  111OSM     OF11499   6.196   7.144  10.670 -0.2447  0.1893  0.2596
  111OSM    C2F11500   6.118   7.256  10.477 -0.5424 -0.2990 -0.2057
  111OSM    H2F11501   6.191   7.331  10.511 -0.7303 -0.4360  0.5282
  111OSM    H2G11502   6.020   7.301  10.504  0.1739  1.9429 -1.1140
  111OSM    C3F11503   6.139   7.234  10.324 -0.1893  0.5586  0.0475
  111OSM    H3F11504   6.064   7.166  10.278  1.7904 -1.3351 -0.5621
  111OSM    H3G11505   6.235   7.185  10.297  1.7925  3.6207  1.0167
  111OSM    C4F11506   6.138   7.370  10.255 -0.2168 -0.5310  0.5358
  111OSM    H4F11507   6.219   7.441  10.281  0.2864 -0.3164 -1.4474
  111OSM    H4G11508   6.041   7.420  10.277  0.0510 -0.3066  1.2373
  111OSM    C5F11509   6.141   7.347  10.103  0.3303  0.0672 -0.7124
  111OSM    H5F11510   6.054   7.283  10.077  1.2229 -1.3258 -0.3837
  111OSM    H5G11511   6.233   7.291  10.075 -0.7037 -2.0999  0.0038
  111OSM    C6F11512   6.124   7.484  10.037  0.0967  0.0073  0.1765
  111OSM    H6F11513   6.215   7.544  10.055 -0.3648  0.5753  0.6384
  111OSM    H6G11514   6.031   7.536  10.068 -0.0022  0.5622 -1.0378
  111OSM    C7F11515   6.121   7.456   9.889  0.4644 -0.1613  0.0533
  111OSM    H7F11516   6.044   7.378   9.873  0.9336 -0.4604 -0.8550
  111OSM    H7G11517   6.219   7.412   9.860  0.1381 -1.3291  0.6983
  111OSM    C8F11518   6.084   7.575   9.811 -0.4884  0.6346 -0.1140
  111OSM    H8F11519   5.981   7.608   9.836 -0.3461  0.3252  0.9001
  111OSM    H8G11520   6.064   7.549   9.705 -2.9833  3.1792 -0.3866
  111OSM    C9F11521   6.169   7.691   9.832 -0.6011  0.8113 -0.0939
  111OSM    H9F11522   6.169   7.749   9.925  3.2162 -0.0593  0.6514
  111OSM   C10F11523   6.265   7.731   9.746 -0.2984  0.9746  0.1487
  111OSM   H10F11524   6.332   7.816   9.766  1.7662  0.1150 -2.4893
  111OSM   C11F11525   6.297   7.653   9.614  0.1997 -0.4934  0.0491
  111OSM   H11F11526   6.276   7.544   9.614  0.6002 -0.5732  0.0356
  111OSM   H11G11527   6.407   7.660   9.603  0.0571  0.4411 -0.9621
  111OSM   C12F11528   6.239   7.720   9.483  0.0911  0.2265 -0.2091
  111OSM   H12F11529   6.314   7.801   9.470 -0.3558  0.7916  0.5799
  111OSM   H12G11530   6.145   7.776   9.505  1.1696  1.8325  0.5473
  111OSM   C13F11531   6.239   7.632   9.363  0.1639 -0.0944 -0.0112
  111OSM   H13F11532   6.172   7.545   9.382  1.6765 -1.4961 -0.7626
  111OSM   H13G11533   6.340   7.589   9.345 -0.1819 -0.5991 -0.8362
  111OSM   C14F11534   6.195   7.688   9.227  0.6751 -0.8693 -0.2036
  111OSM   H14F11535   6.269   7.763   9.193 -0.8304  2.0673  2.4736
  111OSM   H14G11536   6.116   7.764   9.246  1.2077 -0.0909 -1.0255
  111OSM   C15F11537   6.179   7.586   9.117  0.1577  0.2815  0.3297
  111OSM   H15F11538   6.094   7.523   9.152 -1.1115  1.0992 -1.1375
  111OSM   H15G11539   6.271   7.524   9.114 -0.6588 -0.9502 -0.6066
  111OSM   C16F11540   6.150   7.647   8.980 -0.1923 -1.0855 -0.0576
  111OSM   H16F11541   6.217   7.732   8.952 -1.0948 -0.5412 -0.6272
  111OSM   H16G11542   6.051   7.697   8.975  0.0050 -0.7625 -0.7595
  111OSM   C17F11543   6.165   7.543   8.867 -0.4077  0.0932  0.2097
  111OSM   H17F11544   6.088   7.465   8.882 -1.0227  0.1880 -2.0413
  111OSM   H17G11545   6.262   7.493   8.888 -0.1378  0.2613 -0.5786
  111OSM   C18F11546   6.163   7.581   8.721  0.6040 -0.8478  0.1861
  111OSM   H18F11547   6.076   7.646   8.697  2.7884  2.1851 -0.0838
  111OSM   H18G11548   6.149   7.486   8.665 -0.5915 -0.4744 -0.1808
  111OSM   H18H11549   6.246   7.639   8.677  1.6699 -1.3388  1.4671
  112OSM      N11550   5.315   5.396  11.097  0.3084 -0.1459  0.3852
  112OSM    C1511551   5.185   5.466  11.120  0.0639 -0.4236 -0.0237
  112OSM   H15A11552   5.174   5.508  11.218 -0.2423  0.8867 -0.6018
  112OSM   H15B11553   5.102   5.398  11.104 -1.1166  1.4277 -2.4666
  112OSM   H15C11554   5.167   5.551  11.056  0.8413 -1.0140 -1.0631
  112OSM    C1411555   5.432   5.485  11.145 -0.6641 -0.1124 -0.4418
  112OSM   H14A11556   5.422   5.495  11.253 -1.2532  3.3829 -0.6857
  112OSM   H14B11557   5.415   5.584  11.104 -0.4072 -0.6195 -1.8058
  112OSM   H14C11558   5.532   5.452  11.122  0.1171  1.6730  0.2135
  112OSM    C1311559   5.320   5.271  11.174 -0.4444 -0.0200  0.0977
  112OSM   H13A11560   5.421   5.233  11.172  0.1316  1.4477  0.0227
  112OSM   H13B11561   5.253   5.193  11.141 -1.4950  0.9666 -0.1685
  112OSM   H13C11562   5.298   5.298  11.277  1.5953  2.0097  0.0776
  112OSM    C1211563   5.326   5.375  10.950 -0.4400 -0.0202 -0.0478
  112OSM   H12A11564   5.415   5.314  10.951 -1.1137 -1.0160  0.3103
  112OSM   H12B11565   5.335   5.473  10.905  1.7389  0.8230  2.0469
  112OSM    C1111566   5.212   5.292  10.887 -0.1431  0.4224  0.2768
  112OSM   H11A11567   5.212   5.284  10.776 -2.5963 -1.4125  0.3271
  112OSM   H11B11568   5.113   5.337  10.910 -0.0884 -0.0957  1.6158
  112OSM      P11569   5.311   5.049  10.903  0.6192 -0.0509 -0.1682
  112OSM    O1311570   5.444   5.090  10.951  0.2761 -0.6277  0.2291
  112OSM    O1411571   5.273   4.917  10.956 -0.7379 -0.1964  0.1394
  112OSM    O1111572   5.300   5.038  10.748  0.3384  0.2908  0.4691
  112OSM    O1211573   5.207   5.162  10.938  0.1581  0.7488  0.0142
  112OSM    C1S11574   5.177   5.017  10.679 -0.6077  0.2108 -0.6119
  112OSM    H1S11575   5.110   5.104  10.700 -0.9342 -0.4030  1.0729
  112OSM    H1T11576   5.119   4.935  10.726 -1.4836  1.8557  1.3634
  112OSM     NF11577   5.073   4.998  10.468 -0.0238  0.0298 -0.3338
  112OSM    HNF11578   5.020   4.913  10.465 -0.2942  0.0773  1.9334
  112OSM    C2S11579   5.196   4.986  10.529 -0.4052  0.4423 -0.3151
  112OSM    H2S11580   5.269   5.061  10.489 -0.0318  0.1685 -0.1450
  112OSM    C3S11581   5.255   4.846  10.512 -0.3893 -0.3033  0.6301
  112OSM    H3S11582   5.180   4.777  10.557  0.5750 -0.0458  2.7881
  112OSM     O311583   5.375   4.819  10.586 -0.2236 -0.3077  0.3191
  112OSM    HO311584   5.386   4.908  10.621 -1.2434  0.8448 -2.0808
  112OSM    C4S11585   5.285   4.814  10.365  0.6273 -0.2184  0.4028
  112OSM    H4S11586   5.379   4.853  10.324  0.5081 -0.0560  0.2822
  112OSM    C5S11587   5.225   4.718  10.290 -0.5551 -0.2588  0.3373
  112OSM    H5S11588   5.148   4.651  10.330  0.1222 -0.9310  0.5584
  112OSM    C6S11589   5.254   4.690  10.144 -0.6587 -0.2244  1.1901
  112OSM    H6S11590   5.284   4.584  10.126  4.3742  1.4639 -2.8128
  112OSM    H6T11591   5.345   4.743  10.109 -0.2760 -1.2039  0.6494
  112OSM    C7S11592   5.139   4.741  10.055  0.0670  0.2538  0.4301
  112OSM    H7S11593   5.120   4.850  10.067  0.0069  0.2781  0.1157
  112OSM    H7T11594   5.050   4.678  10.074 -1.3208  2.4726  1.8397
  112OSM    C8S11595   5.169   4.697   9.910 -0.3313 -0.2674 -0.6363
  112OSM    H8S11596   5.162   4.587   9.905  0.9629 -0.5361  2.0923
  112OSM    H8T11597   5.271   4.734   9.882  0.1381 -0.9065  0.1864
  112OSM    C9S11598   5.065   4.739   9.800 -0.6926  0.6034  0.3732
  112OSM    H9S11599   5.048   4.846   9.776  0.5710  1.0975  1.5119
  112OSM    H9T11600   4.969   4.689   9.823 -0.2662 -0.5919 -0.3444
  112OSM   C10S11601   5.118   4.694   9.662 -0.1175  0.6369  1.0358
  112OSM   H10S11602   5.131   4.585   9.649  0.3374  0.8727 -0.6913
  112OSM   H10T11603   5.212   4.747   9.634  0.2638 -0.8462 -0.6690
  112OSM   C11S11604   5.015   4.723   9.555  0.1238  0.7346  0.0509
  112OSM   H11S11605   5.016   4.834   9.550 -0.0265  0.8391  1.7692
  112OSM   H11T11606   4.914   4.681   9.575  0.2892  1.2093  2.1282
  112OSM   C12S11607   5.068   4.682   9.413 -0.0123  0.6320 -0.5689
  112OSM   H12S11608   5.082   4.572   9.420 -0.1376  0.6752  0.6024
  112OSM   H12T11609   5.170   4.726   9.414  1.4495 -2.4313  2.1141
  112OSM   C13S11610   4.983   4.716   9.290 -0.0261  0.7520 -0.1089
  112OSM   H13S11611   4.938   4.816   9.310 -0.7596  0.9551 -2.4778
  112OSM   H13T11612   4.893   4.651   9.276  1.5466 -1.7522  0.6932
  112OSM   C14S11613   5.065   4.720   9.166 -0.4084  0.2322 -0.2348
  112OSM   H14S11614   5.143   4.641   9.162 -0.4712  0.2043 -2.9223
  112OSM   H14T11615   5.116   4.818   9.149  1.1289 -0.6373 -0.8208
  112OSM   C15S11616   4.965   4.698   9.053 -0.5647  0.4739  0.5773
  112OSM   H15S11617   4.880   4.768   9.066  0.4543  1.6744  0.9820
  112OSM   H15T11618   4.920   4.599   9.071  0.9232 -0.0814  1.4605
  112OSM   C16S11619   5.026   4.699   8.908  0.0248 -0.1487  0.1979
  112OSM   H16S11620   5.100   4.621   8.881  0.5788  1.2505 -2.7794
  112OSM   H16T11621   5.067   4.800   8.887 -4.7255  2.3842  1.6835
  112OSM   C17S11622   4.923   4.694   8.789  0.5179 -0.8088  0.0394
  112OSM   H17S11623   4.956   4.751   8.700 -1.6327  0.7298  0.1282
  112OSM   H17T11624   4.828   4.743   8.820  0.0494 -0.2308 -2.1177
  112OSM   C18S11625   4.896   4.550   8.766  0.1203 -0.2511  0.4434
  112OSM   H18S11626   4.985   4.496   8.728  1.1958  0.8796  1.2548
  112OSM   H18T11627   4.817   4.548   8.688 -1.1176  0.9608  1.5925
  112OSM   H18U11628   4.852   4.501   8.855 -0.9778  0.3676  0.2723
  112OSM    C1F11629   5.014   5.116  10.447 -0.1031  0.7847 -0.5003
  112OSM     OF11630   5.078   5.218  10.471  0.2505  0.9100 -0.3033
  112OSM    C2F11631   4.868   5.113  10.408  0.4005  0.0531  0.3099
  112OSM    H2F11632   4.803   5.105  10.497 -1.4391  1.6828 -0.8195
  112OSM    H2G11633   4.857   5.018  10.352  1.8098 -0.1592  0.3607
  112OSM    C3F11634   4.822   5.231  10.322 -0.1971 -0.7434  0.6629
  112OSM    H3F11635   4.820   5.329  10.373 -0.0361  0.0774 -0.8694
  112OSM    H3G11636   4.713   5.220  10.301 -0.6066  0.7966  1.7508
  112OSM    C4F11637   4.882   5.223  10.180  0.1239 -0.5386 -0.2006
  112OSM    H4F11638   4.860   5.122  10.141 -0.2177 -0.3414 -0.5250
  112OSM    H4G11639   4.991   5.247  10.186  0.6288 -1.9828 -2.4147
  112OSM    C5F11640   4.814   5.307  10.067 -0.4367 -0.2341 -0.1388
  112OSM    H5F11641   4.819   5.409  10.111  0.6072 -0.7883  1.0707
  112OSM    H5G11642   4.707   5.279  10.054 -1.0562  1.5480  0.7614
  112OSM    C6F11643   4.898   5.307   9.945 -0.1902 -0.2707  0.1905
  112OSM    H6F11644   4.911   5.202   9.911 -0.2529  0.0808 -0.9490
  112OSM    H6G11645   4.990   5.363   9.974 -0.1491  0.0457 -0.5306
  112OSM    C7F11646   4.838   5.381   9.820  0.1988 -0.9584 -0.5126
  112OSM    H7F11647   4.816   5.486   9.848  1.1727 -0.7187 -0.6164
  112OSM    H7G11648   4.741   5.331   9.801 -1.1647  0.2066  2.6418
  112OSM    C8F11649   4.933   5.409   9.703 -0.4244 -0.3381 -0.0426
  112OSM    H8F11650   4.959   5.314   9.651  1.9351 -0.2009  0.7446
  112OSM    H8G11651   5.025   5.453   9.747 -1.1703  0.3731  0.8569
  112OSM    C9F11652   4.884   5.516   9.604 -0.5331 -0.0531  0.4997
  112OSM    H9F11653   4.884   5.617   9.648 -0.0100  1.0745 -1.9385
  112OSM   C10F11654   4.835   5.499   9.475 -1.2655  0.1042  0.4694
  112OSM   H10F11655   4.806   5.591   9.423 -0.5570 -0.3091 -0.6995
  112OSM   C11F11656   4.819   5.365   9.410  0.6841 -0.2565  0.1625
  112OSM   H11F11657   4.797   5.289   9.488 -3.9647 -0.6245 -1.1832
  112OSM   H11G11658   4.902   5.328   9.347 -0.2616 -1.7003 -0.2870
  112OSM   C12F11659   4.692   5.359   9.321 -0.4450  0.1403  0.3317
  112OSM   H12F11660   4.608   5.406   9.376 -0.7147  0.9819 -0.7522
  112OSM   H12G11661   4.677   5.250   9.309  0.3254 -0.2637  2.5548
  112OSM   C13F11662   4.709   5.441   9.193  0.2110  0.3736  0.1745
  112OSM   H13F11663   4.794   5.394   9.139  0.2055  0.2340  0.2878
  112OSM   H13G11664   4.736   5.545   9.221 -0.4812 -0.0772  2.7906
  112OSM   C14F11665   4.586   5.424   9.101  0.1326  0.3878 -0.5398
  112OSM   H14F11666   4.588   5.325   9.051  3.0269  0.0512  0.0695
  112OSM   H14G11667   4.603   5.489   9.013 -0.2691  1.1483 -0.0728
  112OSM   C15F11668   4.449   5.451   9.168  0.2428 -0.2703 -0.0663
  112OSM   H15F11669   4.443   5.559   9.196  0.7045 -0.3216  0.2556
  112OSM   H15G11670   4.446   5.405   9.269  3.9438  2.3775  1.4958
  112OSM   C16F11671   4.329   5.411   9.085  0.0713 -0.1945  0.0269
  112OSM   H16F11672   4.342   5.309   9.044  1.5424  0.9612 -2.6668
  112OSM   H16G11673   4.330   5.471   8.991 -1.2042 -0.6603 -0.2943
  112OSM   C17F11674   4.196   5.401   9.161  1.0796 -0.6462 -0.4046
  112OSM   H17F11675   4.177   5.487   9.229 -0.4851 -2.3087  1.3511
  112OSM   H17G11676   4.205   5.313   9.229 -1.5048 -1.4774 -1.0609
  112OSM   C18F11677   4.077   5.376   9.065 -0.3792  0.4033 -0.4562
  112OSM   H18F11678   3.989   5.360   9.131  1.1259 -0.3140  1.4763
  112OSM   H18G11679   4.101   5.280   9.014  1.7693  0.8848 -0.4606
  112OSM   H18H11680   4.059   5.455   8.989 -0.2307  0.6973 -0.1882
  113OSM      N11681   6.701   3.640  11.120  0.0421 -0.2130 -0.4425
  113OSM    C1511682   6.627   3.671  11.244  0.3087 -0.7142 -0.8559
  113OSM   H15A11683   6.620   3.778  11.257 -1.1190 -0.8022 -0.6877
  113OSM   H15B11684   6.675   3.628  11.330 -1.5243  0.4028  0.7980
  113OSM   H15C11685   6.530   3.626  11.232  1.6089 -3.4524 -1.9945
  113OSM    C1411686   6.846   3.671  11.123 -0.7620 -0.0794 -1.4232
  113OSM   H14A11687   6.870   3.776  11.133 -1.8443  0.0117  0.6481
  113OSM   H14B11688   6.902   3.631  11.039 -0.1639  0.4010 -1.2561
  113OSM   H14C11689   6.892   3.626  11.209 -1.8763 -0.1359 -0.8373
  113OSM    C1311690   6.691   3.488  11.099 -0.2786 -0.2423 -0.0994
  113OSM   H13A11691   6.591   3.463  11.066  0.3910 -1.6597 -1.1519
  113OSM   H13B11692   6.719   3.432  11.187  0.0791  0.2593  0.1085
  113OSM   H13C11693   6.759   3.454  11.023  0.3576 -0.5388  0.5946
  113OSM    C1211694   6.645   3.717  11.002 -0.1804 -0.3515  0.6675
  113OSM   H12A11695   6.542   3.689  10.988  0.1888 -0.8443 -1.3073
  113OSM   H12B11696   6.685   3.675  10.911 -1.0181 -1.0408  0.6021
  113OSM    C1111697   6.635   3.878  10.999  0.6638 -0.4669  0.0282
  113OSM   H11A11698   6.603   3.908  11.101 -1.5436 -0.1015 -0.7195
  113OSM   H11B11699   6.572   3.928  10.923  2.1791 -0.4268 -1.2654
  113OSM      P11700   6.848   3.933  10.846 -0.5773 -0.1972  0.0881
  113OSM    O1311701   6.971   4.016  10.869  0.1075 -0.0110 -0.3668
  113OSM    O1411702   6.858   3.793  10.802  0.1651 -0.5364  0.2899
  113OSM    O1111703   6.762   4.021  10.748 -0.0414 -0.0743 -0.2153
  113OSM    O1211704   6.766   3.941  10.979 -0.6541 -0.1914 -0.2459
  113OSM    C1S11705   6.788   4.045  10.611 -0.2197  0.1089 -0.5945
  113OSM    H1S11706   6.894   4.027  10.584  0.2178  0.8264  0.5905
  113OSM    H1T11707   6.767   4.151  10.585 -0.9280 -0.3537 -2.0043
  113OSM     NF11708   6.732   3.984  10.364 -0.5014  0.2599 -0.5839
  113OSM    HNF11709   6.649   4.005  10.313 -0.9221 -2.2643 -1.0705
  113OSM    C2S11710   6.700   3.949  10.509 -0.4733 -0.0760  0.6931
  113OSM    H2S11711   6.743   3.849  10.530 -0.3966  0.0652  1.2057
  113OSM    C3S11712   6.551   3.949  10.550  0.6811  0.3718  0.2863
  113OSM    H3S11713   6.509   4.052  10.546  0.2764  0.2081  0.3892
  113OSM     O311714   6.528   3.893  10.677 -0.0282 -0.2491 -0.2569
  113OSM    HO311715   6.616   3.902  10.713 -0.6043  0.6404  0.9945
  113OSM    C4S11716   6.457   3.876  10.447 -0.7581 -0.8195 -0.1760
  113OSM    H4S11717   6.390   3.943  10.390 -1.4730 -1.8710 -0.5952
  113OSM    C5S11718   6.414   3.750  10.439 -0.3638  0.1182  0.0233
  113OSM    H5S11719   6.449   3.679  10.516 -1.1971  1.4337  1.6757
  113OSM    C6S11720   6.317   3.705  10.333  0.0632  0.0559  0.1707
  113OSM    H6S11721   6.213   3.711  10.372 -0.6207  0.5424 -1.6444
  113OSM    H6T11722   6.328   3.594  10.331 -0.8826 -0.0422 -0.1897
  113OSM    C7S11723   6.340   3.767  10.198 -0.0060 -0.3497  0.5843
  113OSM    H7S11724   6.450   3.765  10.184 -0.0649 -2.4601  0.0273
  113OSM    H7T11725   6.305   3.872  10.193 -1.9276 -0.9647  0.1643
  113OSM    C8S11726   6.273   3.701  10.073  0.1227  0.3848  0.4881
  113OSM    H8S11727   6.171   3.668  10.105  0.3118 -1.8716 -0.9695
  113OSM    H8T11728   6.333   3.614  10.039 -1.3330  0.2020 -1.7899
  113OSM    C9S11729   6.269   3.799   9.956 -0.0482 -0.2500  0.1438
  113OSM    H9S11730   6.373   3.814   9.921  1.2258 -0.7157  3.3917
  113OSM    H9T11731   6.232   3.897   9.992  1.7828  0.2505  0.7489
  113OSM   C10S11732   6.172   3.767   9.839  0.5089 -0.0539 -0.0388
  113OSM   H10S11733   6.071   3.787   9.882  0.8176  0.0916  0.6392
  113OSM   H10T11734   6.196   3.661   9.815  0.5674 -0.4665  1.6591
  113OSM   C11S11735   6.193   3.857   9.718  0.4141 -0.4794 -0.0279
  113OSM   H11S11736   6.300   3.883   9.710  0.3047  0.2097  0.6015
  113OSM   H11T11737   6.140   3.954   9.733  0.3226 -0.7560  1.7251
  113OSM   C12S11738   6.139   3.793   9.584  0.6613 -0.1561 -0.3311
  113OSM   H12S11739   6.037   3.758   9.610  0.7820  1.4010  2.6550
  113OSM   H12T11740   6.201   3.705   9.556 -0.6985 -1.7308  1.3268
  113OSM   C13S11741   6.118   3.896   9.482  0.1742 -0.5064  0.4211
  113OSM   H13S11742   6.220   3.926   9.450 -0.4817 -0.5425 -1.8944
  113OSM   H13T11743   6.055   3.979   9.519  0.6082  0.1915 -0.3816
  113OSM   C14S11744   6.037   3.835   9.361 -0.0535  0.0339  0.2547
  113OSM   H14S11745   5.935   3.803   9.390 -0.0584  0.9945  1.4063
  113OSM   H14T11746   6.085   3.743   9.321  0.5630  0.9264 -1.1543
  113OSM   C15S11747   6.037   3.933   9.243  0.1412 -0.1301  0.3626
  113OSM   H15S11748   6.129   3.993   9.226 -0.9989  0.7773 -3.3422
  113OSM   H15T11749   5.960   4.005   9.276  1.2781  0.8635  0.9391
  113OSM   C16S11750   6.008   3.871   9.104 -0.2501 -0.1072  0.3946
  113OSM   H16S11751   5.907   3.823   9.104 -1.2664  1.9317 -0.5740
  113OSM   H16T11752   6.076   3.787   9.079  0.5258  0.3167  1.0167
  113OSM   C17S11753   6.009   3.978   8.992  0.2348  0.5089 -0.2467
  113OSM   H17S11754   5.951   4.067   9.025  0.5540 -0.0794  2.0343
  113OSM   H17T11755   5.947   3.935   8.910  0.5914 -0.9477  0.2195
  113OSM   C18S11756   6.147   4.011   8.941 -0.8731  0.0832  0.6262
  113OSM   H18S11757   6.149   4.073   8.848 -1.3610 -1.5598 -0.5202
  113OSM   H18T11758   6.207   3.922   8.914 -1.4277  0.0412 -0.5271
  113OSM   H18U11759   6.201   4.073   9.015 -0.8623  1.1344 -0.2288
  113OSM    C1F11760   6.849   3.968  10.302 -0.7665  0.6452 -0.6707
  113OSM     OF11761   6.942   3.904  10.359  0.0775 -1.1119  0.6182
  113OSM    C2F11762   6.874   4.040  10.172 -0.3112  0.7578  0.8992
  113OSM    H2F11763   6.963   4.105  10.187  0.7818 -0.7941  1.5162
  113OSM    H2G11764   6.784   4.093  10.136 -0.9576 -0.0237  1.3172
  113OSM    C3F11765   6.906   3.933  10.067 -0.7518 -0.0691  0.1965
  113OSM    H3F11766   7.001   3.888  10.102 -0.4498  0.4617  0.0665
  113OSM    H3G11767   6.935   3.986   9.974 -0.7485  0.5356  0.5383
  113OSM    C4F11768   6.802   3.820  10.042  0.1521 -0.2980 -0.3763
  113OSM    H4F11769   6.744   3.799  10.135  2.0266 -2.1039  0.4723
  113OSM    H4G11770   6.859   3.725  10.030 -1.8711 -1.5031 -0.9689
  113OSM    C5F11771   6.700   3.837   9.933 -0.1614  0.1903  0.5345
  113OSM    H5F11772   6.642   3.930   9.946  1.6396  1.3494  0.6380
  113OSM    H5G11773   6.618   3.762   9.940 -3.2192  3.2803  0.3895
  113OSM    C6F11774   6.759   3.838   9.792 -0.0674 -0.3841 -0.6053
  113OSM    H6F11775   6.822   3.746   9.791 -0.3225 -0.6378  1.5734
  113OSM    H6G11776   6.817   3.929   9.768  0.0259 -0.3736 -0.3427
  113OSM    C7F11777   6.639   3.817   9.699  0.2802  0.0807 -0.4926
  113OSM    H7F11778   6.596   3.913   9.662 -3.0913 -1.5490 -1.2594
  113OSM    H7G11779   6.555   3.763   9.748 -0.3064  2.0605  0.8062
  113OSM    C8F11780   6.671   3.727   9.579  0.0185 -0.1641 -0.1965
  113OSM    H8F11781   6.574   3.692   9.539 -0.4154 -0.6205  1.2076
  113OSM    H8G11782   6.731   3.639   9.608 -0.7296 -1.6366 -2.7658
  113OSM    C9F11783   6.769   3.798   9.481  0.4969 -0.0052 -0.3325
  113OSM    H9F11784   6.773   3.907   9.495 -1.0871 -0.0113  0.4286
  113OSM   C10F11785   6.843   3.732   9.391 -0.4544 -0.5166 -0.6135
  113OSM   H10F11786   6.905   3.785   9.317  2.6771 -2.2704  0.5586
  113OSM   C11F11787   6.863   3.585   9.371  1.0104 -0.6684  0.2559
  113OSM   H11F11788   6.804   3.519   9.439  0.1913  0.5944  0.8147
  113OSM   H11G11789   6.972   3.568   9.387  1.4442  2.3712  1.1801
  113OSM   C12F11790   6.836   3.551   9.225  0.2999  0.2827  0.3250
  113OSM   H12F11791   6.739   3.584   9.182  1.0198 -0.8042 -2.3523
  113OSM   H12G11792   6.833   3.440   9.220 -0.9115  0.3443 -3.0733
  113OSM   C13F11793   6.948   3.602   9.134 -0.1209 -0.4951 -0.2675
  113OSM   H13F11794   6.969   3.513   9.071 -2.8928 -2.0218  0.8033
  113OSM   H13G11795   7.035   3.645   9.188  0.8220  0.3727 -2.3439
  113OSM   C14F11796   6.905   3.711   9.023  0.0705  0.2813  0.1505
  113OSM   H14F11797   6.859   3.798   9.075  0.8376  2.2487 -2.2368
  113OSM   H14G11798   6.840   3.671   8.942  2.9813 -0.9506 -1.7146
  113OSM   C15F11799   7.032   3.756   8.946  0.6393 -0.5119  0.2369
  113OSM   H15F11800   7.079   3.657   8.928  2.1952  0.3515 -0.6607
  113OSM   H15G11801   7.097   3.801   9.025 -1.2498  3.1952 -0.0913
  113OSM   C16F11802   7.019   3.863   8.841 -0.2787  0.1401 -0.3432
  113OSM   H16F11803   7.024   3.824   8.737 -1.1014  1.0424 -0.7415
  113OSM   H16G11804   7.115   3.914   8.861 -0.6635  0.2100  1.4710
  113OSM   C17F11805   6.917   3.983   8.859 -0.0199 -0.3845 -0.2530
  113OSM   H17F11806   6.924   3.996   8.969  0.5518  0.6812 -0.3968
  113OSM   H17G11807   6.813   3.948   8.843 -0.4124  1.0546 -1.0260
  113OSM   C18F11808   6.933   4.116   8.778  0.9559 -0.2164  0.2958
  113OSM   H18F11809   6.839   4.175   8.783  0.7312 -0.6072  0.7337
  113OSM   H18G11810   6.942   4.083   8.672 -0.7376 -0.5019  0.2059
  113OSM   H18H11811   7.031   4.165   8.798  1.5117 -1.0892 -0.2202
  114OSM      N11812   1.130   3.157  11.583 -0.1475  0.3142 -0.2817
  114OSM    C1511813   1.241   3.253  11.627  0.2028  0.2189  0.4551
  114OSM   H15A11814   1.200   3.352  11.638  2.7453  1.4706 -0.4612
  114OSM   H15B11815   1.327   3.258  11.562 -0.6817  1.4693 -0.6790
  114OSM   H15C11816   1.275   3.237  11.729  1.5664  1.4399  0.2353
  114OSM    C1411817   1.167   3.024  11.554  0.0974 -0.2670  0.5349
  114OSM   H14A11818   1.082   2.980  11.504  0.9397  0.5861 -1.7528
  114OSM   H14B11819   1.189   2.963  11.640  1.0939 -1.3352 -0.4451
  114OSM   H14C11820   1.259   3.032  11.498  0.4741  1.8762  1.3587
  114OSM    C1311821   1.029   3.155  11.699  0.3919  0.3875  0.6006
  114OSM   H13A11822   0.988   3.252  11.724 -1.4042 -0.2612  0.2985
  114OSM   H13B11823   1.084   3.107  11.779  3.5329 -0.4817 -1.8662
  114OSM   H13C11824   0.951   3.089  11.665  0.6163 -0.4955  1.7395
  114OSM    C1211825   1.061   3.224  11.465  0.4943 -0.3309  0.6852
  114OSM   H12A11826   1.035   3.323  11.500 -1.5728 -0.8234  0.6372
  114OSM   H12B11827   0.973   3.166  11.442  2.5301 -2.8482 -1.2796
  114OSM    C1111828   1.135   3.234  11.331 -0.6916 -0.0672 -0.0944
  114OSM   H11A11829   1.208   3.316  11.346 -2.5428  1.4705  1.0489
  114OSM   H11B11830   1.079   3.291  11.254  1.7073  0.7828 -1.3004
  114OSM      P11831   1.100   3.008  11.209  0.1829  0.1789 -0.0989
  114OSM    O1311832   1.110   2.876  11.273  0.0308 -0.1977  0.1932
  114OSM    O1411833   0.967   3.058  11.189 -0.1310  0.3095  0.2364
  114OSM    O1111834   1.162   2.996  11.072 -0.5650  0.9239  0.7849
  114OSM    O1211835   1.192   3.112  11.285 -0.0418 -0.3287 -0.0318
  114OSM    C1S11836   1.144   3.093  10.961 -0.4769  0.1579 -0.3923
  114OSM    H1S11837   1.231   3.163  10.952  0.3133 -0.8731 -1.0960
  114OSM    H1T11838   1.054   3.154  10.982 -0.9287 -1.4973  3.0219
  114OSM     NF11839   1.145   3.116  10.711  1.3075  0.3515 -0.4938
  114OSM    HNF11840   1.057   3.156  10.686  1.7424  0.8247 -1.2846
  114OSM    C2S11841   1.132   3.019  10.825 -0.1039  0.6042 -0.7342
  114OSM    H2S11842   1.216   2.946  10.820  0.2655  0.9410  0.3389
  114OSM    C3S11843   1.007   2.919  10.820  0.1888 -0.0542  0.9640
  114OSM    H3S11844   0.909   2.971  10.828  1.1639  1.8275  1.0555
  114OSM     O311845   0.999   2.824  10.924 -0.3676  0.4942 -1.0017
  114OSM    HO311846   1.063   2.858  10.987  0.5190 -1.7484 -0.5985
  114OSM    C4S11847   0.995   2.847  10.687 -0.2748  0.2358 -0.3266
  114OSM    H4S11848   1.092   2.834  10.637 -0.6767  0.6144 -1.2352
  114OSM    C5S11849   0.880   2.811  10.630  0.4125 -0.4999 -0.0496
  114OSM    H5S11850   0.784   2.818  10.684  1.1507 -1.1255  1.4034
  114OSM    C6S11851   0.863   2.756  10.489 -0.2046 -0.0508 -0.2969
  114OSM    H6S11852   0.775   2.802  10.439  0.3540 -0.9744 -2.2337
  114OSM    H6T11853   0.834   2.649  10.489 -0.2846 -0.0347 -1.2740
  114OSM    C7S11854   0.995   2.775  10.416  0.2374  0.3776  0.6356
  114OSM    H7S11855   1.080   2.727  10.468  1.0529 -1.3818 -2.1071
  114OSM    H7T11856   1.013   2.880  10.385  1.3060 -0.0639 -0.3243
  114OSM    C8S11857   0.987   2.702  10.275 -0.6857  0.3678  0.7329
  114OSM    H8S11858   0.932   2.607  10.294  0.4000 -0.2168  0.9942
  114OSM    H8T11859   1.086   2.681  10.229  0.2682 -0.6305  3.0725
  114OSM    C9S11860   0.906   2.790  10.172  0.3941 -0.1644  0.6401
  114OSM    H9S11861   0.954   2.889  10.187  0.1636  0.1876 -0.8290
  114OSM    H9T11862   0.805   2.799  10.217  1.1836  0.8156  2.3282
  114OSM   C10S11863   0.924   2.744  10.029  0.1691  0.6937  0.0635
  114OSM   H10S11864   0.865   2.654   9.999  0.0403  0.5178  0.8331
  114OSM   H10T11865   1.027   2.717   9.997  0.0406 -1.3821  1.2710
  114OSM   C11S11866   0.875   2.857   9.935 -0.7649 -0.1342 -1.1747
  114OSM   H11S11867   0.921   2.955   9.959 -3.4858  0.4787  2.4546
  114OSM   H11T11868   0.766   2.866   9.955 -0.3332  0.4605  1.3125
  114OSM   C12S11869   0.893   2.843   9.781 -0.0678  0.2471 -0.5434
  114OSM   H12S11870   0.869   2.940   9.731  1.4811  0.6519 -0.5416
  114OSM   H12T11871   0.844   2.754   9.737 -0.9052 -1.2612  3.0918
  114OSM   C13S11872   1.036   2.817   9.740  0.2909  0.3830 -0.3459
  114OSM   H13S11873   1.066   2.711   9.760  0.8372  0.5279 -0.3646
  114OSM   H13T11874   1.097   2.877   9.812  0.2401 -0.8273  0.7569
  114OSM   C14S11875   1.077   2.850   9.594 -0.1191  0.0583 -0.9380
  114OSM   H14S11876   1.170   2.910   9.599 -0.7396  0.9598  0.4338
  114OSM   H14T11877   0.996   2.915   9.554 -2.6188 -2.7180 -0.7971
  114OSM   C15S11878   1.075   2.724   9.513  0.0321  0.0773 -0.0423
  114OSM   H15S11879   0.977   2.674   9.496 -0.7848  1.1773  1.2475
  114OSM   H15T11880   1.142   2.651   9.562 -0.0283 -1.5022 -2.1645
  114OSM   C16S11881   1.141   2.758   9.378 -0.0215  0.5541  0.7471
  114OSM   H16S11882   1.208   2.844   9.401 -1.0757  1.8836 -0.9498
  114OSM   H16T11883   1.059   2.783   9.307 -1.2774  0.4472  2.1083
  114OSM   C17S11884   1.215   2.641   9.305 -0.4159 -0.3929 -0.4228
  114OSM   H17S11885   1.156   2.547   9.308  1.1414 -1.4094  1.8188
  114OSM   H17T11886   1.302   2.619   9.372 -0.3874 -0.3983 -0.4618
  114OSM   C18S11887   1.276   2.676   9.171  0.2472  0.3248  0.0444
  114OSM   H18S11888   1.247   2.603   9.092  1.4279 -1.8774  1.5409
  114OSM   H18T11889   1.386   2.690   9.174  0.4330 -0.9719 -0.2839
  114OSM   H18U11890   1.231   2.775   9.146 -1.5150 -0.5987 -0.5368
  114OSM    C1F11891   1.263   3.147  10.658 -0.2216  0.1406  0.8247
  114OSM     OF11892   1.365   3.136  10.723 -0.4811 -0.2600 -0.2447
  114OSM    C2F11893   1.254   3.194  10.517  0.4398 -0.6093  0.0116
  114OSM    H2F11894   1.169   3.265  10.516  0.6317 -0.3750  0.2372
  114OSM    H2G11895   1.233   3.110  10.448  0.3897 -0.8241  0.2847
  114OSM    C3F11896   1.383   3.271  10.477 -0.7069  0.8060 -0.1555
  114OSM    H3F11897   1.457   3.195  10.447 -0.7788  0.9462 -0.7111
  114OSM    H3G11898   1.425   3.330  10.561  0.2942 -0.0274 -0.0615
  114OSM    C4F11899   1.360   3.360  10.355  0.5150 -0.1834  0.2630
  114OSM    H4F11900   1.454   3.407  10.320  0.7892 -1.4279 -0.7609
  114OSM    H4G11901   1.286   3.438  10.384 -0.7770  0.3282 -3.8216
  114OSM    C5F11902   1.314   3.282  10.234  0.2382  0.9678 -0.1897
  114OSM    H5F11903   1.224   3.219  10.251  0.5008  0.5068 -0.4904
  114OSM    H5G11904   1.395   3.213  10.204  0.1401 -0.2873  2.2208
  114OSM    C6F11905   1.273   3.361  10.117  0.6130 -0.0202 -0.3577
  114OSM    H6F11906   1.355   3.428  10.087  0.0782  1.6315  1.6347
  114OSM    H6G11907   1.177   3.413  10.140 -0.0387 -0.9171 -0.9650
  114OSM    C7F11908   1.232   3.267  10.004  0.2839  0.0075 -0.0587
  114OSM    H7F11909   1.152   3.199  10.037  0.7868  0.0228  1.2870
  114OSM    H7G11910   1.319   3.206   9.972  0.7551 -0.5423  2.1079
  114OSM    C8F11911   1.181   3.348   9.882 -0.4249 -0.3335  0.5817
  114OSM    H8F11912   1.266   3.398   9.832 -0.9652  2.6278  2.3634
  114OSM    H8G11913   1.116   3.430   9.918  1.0597  1.0688  0.1865
  114OSM    C9F11914   1.106   3.241   9.804 -0.0605  0.0749  0.1544
  114OSM    H9F11915   1.045   3.177   9.869  1.4097 -0.0212  1.4778
  114OSM   C10F11916   1.112   3.214   9.670 -0.0825 -0.8188 -0.2361
  114OSM   H10F11917   1.052   3.130   9.634  0.9293 -1.6786  0.0327
  114OSM   C11F11918   1.189   3.290   9.571  0.3481  0.3446  0.9155
  114OSM   H11F11919   1.286   3.238   9.558 -0.0831 -0.5397  1.1731
  114OSM   H11G11920   1.214   3.391   9.609 -0.5115  0.7887  0.3372
  114OSM   C12F11921   1.117   3.316   9.428  0.0394 -0.1413 -0.2493
  114OSM   H12F11922   1.153   3.416   9.393  0.1734 -0.0745  0.0678
  114OSM   H12G11923   1.009   3.329   9.446  0.1617 -0.6871  0.9868
  114OSM   C13F11924   1.127   3.198   9.324  0.7500 -0.5344 -0.0199
  114OSM   H13F11925   1.025   3.203   9.281  1.5687  2.6761 -1.9686
  114OSM   H13G11926   1.146   3.103   9.378  0.7160 -1.6706 -1.9124
  114OSM   C14F11927   1.228   3.213   9.215  0.5504 -0.1780 -0.1908
  114OSM   H14F11928   1.328   3.199   9.260  0.2945 -1.2476  0.0598
  114OSM   H14G11929   1.213   3.318   9.181  0.9727 -0.2064 -0.4712
  114OSM   C15F11930   1.196   3.108   9.113  0.4768  0.1043  0.9182
  114OSM   H15F11931   1.086   3.108   9.097  0.6032  1.6169 -0.0662
  114OSM   H15G11932   1.204   3.002   9.146 -3.2662 -0.4012  0.5599
  114OSM   C16F11933   1.262   3.154   8.976  1.6015 -0.7420 -0.4317
  114OSM   H16F11934   1.366   3.119   8.992  2.1376  0.8634 -0.3232
  114OSM   H16G11935   1.257   3.263   8.956 -4.3289 -0.4864  0.6275
  114OSM   C17F11936   1.204   3.074   8.847  0.0963 -0.1522 -0.3156
  114OSM   H17F11937   1.265   3.115   8.763  1.1613  2.2629  1.5034
  114OSM   H17G11938   1.101   3.114   8.846  0.6348  1.3120 -0.1828
  114OSM   C18F11939   1.202   2.920   8.848 -0.3633  0.1980  0.2057
  114OSM   H18F11940   1.302   2.875   8.865 -1.2511 -1.5650  1.0061
  114OSM   H18G11941   1.171   2.873   8.753  1.8422 -0.2985 -0.3153
  114OSM   H18H11942   1.137   2.882   8.930 -1.8519  0.3745 -0.8611
  115OSM      N11943   1.667   1.166   5.796 -0.6360 -0.6156  0.2047
  115OSM    C1511944   1.749   1.193   5.669 -0.4060  0.0004  0.0445
  115OSM   H15A11945   1.843   1.242   5.688 -0.2182 -0.0866 -0.6379
  115OSM   H15B11946   1.693   1.258   5.604 -1.0649  0.0035  0.6038
  115OSM   H15C11947   1.764   1.100   5.616  1.3974  0.0150  0.4591
  115OSM    C1411948   1.673   1.302   5.880  0.0622  1.5017  0.5494
  115OSM   H14A11949   1.596   1.304   5.955  0.7127 -1.1311  1.3868
  115OSM   H14B11950   1.644   1.388   5.821 -1.1616  1.8071  1.5573
  115OSM   H14C11951   1.773   1.314   5.920 -0.0168 -0.6577  1.5263
  115OSM    C1311952   1.529   1.129   5.766  0.3021 -0.9041  0.0751
  115OSM   H13A11953   1.526   1.040   5.705  0.9751 -0.3481 -0.7982
  115OSM   H13B11954   1.481   1.210   5.714 -0.4462 -1.9466 -0.8974
  115OSM   H13C11955   1.482   1.113   5.862 -0.1095 -0.9295 -0.1320
  115OSM    C1211956   1.734   1.054   5.886 -0.0428  0.9279  0.7192
  115OSM   H12A11957   1.841   1.067   5.895 -0.0749  0.7251  1.5303
  115OSM   H12B11958   1.721   0.964   5.827 -0.7705 -0.2892  2.6115
  115OSM    C1111959   1.666   1.033   6.027 -0.3111  0.7158 -0.0978
  115OSM   H11A11960   1.651   1.127   6.086  0.4035  1.4044 -0.9935
  115OSM   H11B11961   1.738   0.973   6.087  1.4645  1.5015 -1.3590
  115OSM      P11962   1.486   0.836   6.024  0.2017 -0.1470 -0.3357
  115OSM    O1311963   1.340   0.823   5.995 -0.1908  0.3152  0.0941
  115OSM    O1411964   1.580   0.763   5.938  0.1637 -0.3599  0.1427
  115OSM    O1111965   1.508   0.799   6.174  0.0354  0.5397  0.1400
  115OSM    O1211966   1.533   0.986   6.016 -0.3663  0.7346 -0.0909
  115OSM    C1S11967   1.470   0.898   6.273  0.1407  0.7417 -0.0474
  115OSM    H1S11968   1.359   0.897   6.271  0.1278 -1.6558 -1.1790
  115OSM    H1T11969   1.507   1.000   6.246  0.0669  0.7615 -0.0756
  115OSM     NF11970   1.428   0.943   6.511  0.2588 -0.1842  0.2394
  115OSM    HNF11971   1.479   1.018   6.553 -1.6158  1.0234  0.4965
  115OSM    C2S11972   1.501   0.855   6.415  0.0561  0.2470  0.1303
  115OSM    H2S11973   1.462   0.752   6.425  1.8489 -0.3591  1.4780
  115OSM    C3S11974   1.659   0.857   6.430  0.3733  0.1978 -0.4667
  115OSM    H3S11975   1.690   0.963   6.423 -1.1241  0.6937  0.0398
  115OSM     O311976   1.731   0.788   6.330  0.0738 -1.0003 -0.5936
  115OSM    HO311977   1.661   0.766   6.268 -1.6608  0.4589  0.7398
  115OSM    C4S11978   1.699   0.803   6.568  0.5932 -0.1932  0.3768
  115OSM    H4S11979   1.700   0.874   6.651 -0.2854 -1.7045  1.7452
  115OSM    C5S11980   1.738   0.681   6.600 -0.3214  0.5358  0.4018
  115OSM    H5S11981   1.744   0.607   6.519 -1.9643  1.5169 -0.6740
  115OSM    C6S11982   1.770   0.625   6.734 -0.3156 -0.1269  0.1767
  115OSM    H6S11983   1.879   0.613   6.746 -0.7459 -2.7678  3.1085
  115OSM    H6T11984   1.722   0.525   6.747  0.8152 -0.8633 -1.0675
  115OSM    C7S11985   1.717   0.701   6.855 -0.0921  0.2289  0.5604
  115OSM    H7S11986   1.613   0.730   6.831 -0.7597 -1.2610  1.5490
  115OSM    H7T11987   1.777   0.791   6.881 -1.0361  1.3213 -0.9322
  115OSM    C8S11988   1.726   0.619   6.990 -0.0349  0.0241  0.2692
  115OSM    H8S11989   1.826   0.579   7.018  0.5712  1.5056  0.2786
  115OSM    H8T11990   1.655   0.535   6.977 -0.3706  0.4677 -0.8855
  115OSM    C9S11991   1.667   0.691   7.118 -0.1510 -0.1205  0.1764
  115OSM    H9S11992   1.562   0.720   7.097  0.2212  1.0926 -0.0927
  115OSM    H9T11993   1.733   0.780   7.126 -0.8464  0.8555 -3.1501
  115OSM   C10S11994   1.680   0.607   7.246  0.9834  0.0447  0.7061
  115OSM   H10S11995   1.783   0.564   7.243 -0.1237 -2.7431 -0.1805
  115OSM   H10T11996   1.619   0.515   7.239  2.5107 -0.9351 -0.5816
  115OSM   C11S11997   1.630   0.667   7.376 -1.1246  0.1873 -0.5672
  115OSM   H11S11998   1.520   0.672   7.365 -1.4472 -0.3716  1.8162
  115OSM   H11T11999   1.661   0.774   7.380 -0.3545  0.1629 -3.5103
  115OSM   C12S12000   1.662   0.596   7.510 -0.3422  0.7482  0.2082
  115OSM   H12S12001   1.771   0.574   7.506 -0.7507 -1.3370 -1.6769
  115OSM   H12T12002   1.600   0.504   7.510  1.1572 -0.3070  1.0873
  115OSM   C13S12003   1.623   0.675   7.625 -0.3309  0.0257  0.1541
  115OSM   H13S12004   1.514   0.670   7.646 -0.1887 -1.6086  0.5851
  115OSM   H13T12005   1.649   0.780   7.600  2.4788 -0.7311 -0.3792
  115OSM   C14S12006   1.700   0.626   7.747  0.7478  0.1866 -0.2690
  115OSM   H14S12007   1.806   0.622   7.713  1.1145  1.8674  0.6031
  115OSM   H14T12008   1.665   0.528   7.786  0.7965  0.8887  1.6740
  115OSM   C15S12009   1.711   0.727   7.859  0.7760  0.1613 -0.2000
  115OSM   H15S12010   1.741   0.818   7.804  1.5717  0.1423  0.1873
  115OSM   H15T12011   1.794   0.700   7.928  0.9294 -2.5543 -1.3212
  115OSM   C16S12012   1.579   0.726   7.939  0.8611  0.3236 -0.0656
  115OSM   H16S12013   1.557   0.622   7.970 -0.9514  0.0081 -2.1554
  115OSM   H16T12014   1.492   0.761   7.879  0.8590 -0.6624 -0.6593
  115OSM   C17S12015   1.591   0.800   8.068  0.2142 -0.0601  0.0936
  115OSM   H17S12016   1.593   0.911   8.061  2.5207  0.0579  1.6802
  115OSM   H17T12017   1.690   0.769   8.108  0.6392 -0.3608 -1.1667
  115OSM   C18S12018   1.469   0.777   8.156  0.2576  0.0517 -0.7986
  115OSM   H18S12019   1.479   0.836   8.250  0.5514 -1.7429  0.3438
  115OSM   H18T12020   1.454   0.673   8.191  0.3347  0.0121 -0.8821
  115OSM   H18U12021   1.374   0.805   8.105  1.1669 -0.1278 -2.6580
  115OSM    C1F12022   1.291   0.940   6.510  0.0608 -0.0241  0.0148
  115OSM     OF12023   1.227   0.856   6.450 -0.0607  0.2957  0.0031
  115OSM    C2F12024   1.229   1.056   6.578  0.7829 -0.1012 -0.6649
  115OSM    H2F12025   1.153   1.100   6.510 -0.2590  0.0927  0.5772
  115OSM    H2G12026   1.307   1.132   6.602  1.1990 -1.5067  3.2519
  115OSM    C3F12027   1.193   1.019   6.724  0.3702 -0.0618 -0.0732
  115OSM    H3F12028   1.285   0.989   6.779  0.1100  0.9495  0.9543
  115OSM    H3G12029   1.127   0.930   6.730  0.8411 -0.4366 -0.3222
  115OSM    C4F12030   1.124   1.127   6.801 -0.1510 -0.0657 -0.1464
  115OSM    H4F12031   1.020   1.140   6.765 -0.1861 -1.0503 -0.4125
  115OSM    H4G12032   1.172   1.225   6.778 -0.4024  0.5631  1.8308
  115OSM    C5F12033   1.126   1.110   6.956  0.1127  0.2002 -0.1302
  115OSM    H5F12034   1.230   1.100   6.992 -0.4516  0.9110  1.8577
  115OSM    H5G12035   1.082   1.009   6.968  0.3899  0.1709  0.7012
  115OSM    C6F12036   1.040   1.217   7.035  0.2031 -0.4608 -0.2839
  115OSM    H6F12037   0.953   1.234   6.968  1.1719 -0.8909 -1.6754
  115OSM    H6G12038   1.087   1.318   7.034 -0.6417 -0.0643 -1.4902
  115OSM    C7F12039   0.990   1.178   7.175 -1.2839  0.1702  0.7664
  115OSM    H7F12040   0.937   1.080   7.173 -4.2303  1.6256  2.0089
  115OSM    H7G12041   0.921   1.257   7.211 -2.9601 -2.1591  3.0063
  115OSM    C8F12042   1.103   1.158   7.281 -0.3060  0.8435 -0.3445
  115OSM    H8F12043   1.186   1.106   7.229  0.9443  1.2231  1.1950
  115OSM    H8G12044   1.062   1.091   7.360 -1.7923  1.5225 -0.5037
  115OSM    C9F12045   1.152   1.285   7.345  0.4413 -0.2794 -0.5922
  115OSM    H9F12046   1.191   1.359   7.274 -1.2877  0.5690 -0.7198
  115OSM   C10F12047   1.145   1.314   7.476  0.7825 -0.2503  0.1693
  115OSM   H10F12048   1.187   1.410   7.511 -0.8523  0.6631 -0.2861
  115OSM   C11F12049   1.102   1.215   7.582 -0.8141 -0.9903  0.9819
  115OSM   H11F12050   1.189   1.152   7.611  0.8771  1.5419  1.7643
  115OSM   H11G12051   1.017   1.151   7.551 -2.5507  1.7483 -0.3176
  115OSM   C12F12052   1.071   1.292   7.711  0.4221  0.0782  0.0974
  115OSM   H12F12053   0.989   1.366   7.696 -0.4094 -0.7118  0.6497
  115OSM   H12G12054   1.165   1.343   7.738  0.1574 -0.7473  2.8901
  115OSM   C13F12055   1.033   1.207   7.828 -0.0121  0.1339  0.8527
  115OSM   H13F12056   1.120   1.146   7.859 -0.6744 -1.2343  0.1442
  115OSM   H13G12057   0.958   1.128   7.802  2.1252 -1.7238 -0.0164
  115OSM   C14F12058   0.994   1.289   7.943  0.4340 -0.4697  0.3961
  115OSM   H14F12059   0.908   1.349   7.907  1.3609  0.3965 -0.4662
  115OSM   H14G12060   1.061   1.376   7.964 -0.1849  0.2254 -0.4173
  115OSM   C15F12061   0.985   1.211   8.069  0.4069 -0.2379  0.0281
  115OSM   H15F12062   1.080   1.161   8.098  1.6166  0.7247 -2.0866
  115OSM   H15G12063   0.918   1.124   8.053  1.6560 -0.8821 -2.0183
  115OSM   C16F12064   0.935   1.293   8.189 -0.5812 -0.2397  0.2992
  115OSM   H16F12065   0.826   1.312   8.190 -0.1053  3.1875 -1.2690
  115OSM   H16G12066   0.996   1.385   8.196  1.8964 -1.8720  2.2801
  115OSM   C17F12067   0.959   1.214   8.318  0.4942 -0.1200 -0.6011
  115OSM   H17F12068   1.063   1.177   8.325  0.2012 -0.8179  0.2062
  115OSM   H17G12069   0.886   1.132   8.301  0.9367 -0.5305 -0.5164
  115OSM   C18F12070   0.918   1.296   8.439  0.6480 -0.1523  0.7261
  115OSM   H18F12071   0.890   1.229   8.523 -0.8305  0.8048  1.0196
  115OSM   H18G12072   0.831   1.352   8.399  2.1822  1.1455 -0.9794
  115OSM   H18H12073   1.005   1.364   8.450 -0.2908  1.1763  0.1897
  116OSM      N12074   6.133   4.509   6.367 -0.2031  0.2436  0.7908
  116OSM    C1512075   6.137   4.358   6.383 -0.0374  0.1170 -0.0867
  116OSM   H15A12076   6.113   4.313   6.479  0.9850 -1.1575 -0.3961
  116OSM   H15B12077   6.222   4.316   6.332  1.1549 -0.4529  2.2231
  116OSM   H15C12078   6.046   4.339   6.328 -0.6738  0.9632  0.6396
  116OSM    C1412079   6.008   4.557   6.440 -0.3784 -0.6217  0.3560
  116OSM   H14A12080   5.996   4.663   6.425  0.1011 -0.5475  0.4795
  116OSM   H14B12081   6.010   4.526   6.543 -2.4162 -1.0980  0.2824
  116OSM   H14C12082   5.921   4.505   6.402 -0.7443  1.7683 -2.4642
  116OSM    C1312083   6.254   4.564   6.425  0.0516  0.7959 -0.0366
  116OSM   H13A12084   6.250   4.538   6.530  0.0547  2.0690  0.3030
  116OSM   H13B12085   6.248   4.672   6.421  0.2993  1.2193  4.8588
  116OSM   H13C12086   6.346   4.533   6.379 -0.6887  0.2207 -1.1503
  116OSM    C1212087   6.113   4.552   6.224  0.1197 -0.4398 -0.8258
  116OSM   H12A12088   6.188   4.503   6.164  0.3071  0.4717 -1.3513
  116OSM   H12B12089   6.134   4.657   6.214  0.3218 -0.6705 -3.3122
  116OSM    C1112090   5.971   4.517   6.165  0.8285 -0.5782 -0.3141
  116OSM   H11A12091   5.960   4.553   6.060 -3.5208 -1.5723 -0.3920
  116OSM   H11B12092   5.896   4.584   6.212 -0.1404 -1.0010 -1.2174
  116OSM      P12093   5.783   4.334   6.202  0.0005 -0.6062 -0.0082
  116OSM    O1312094   5.694   4.413   6.126  0.8960  0.1211  0.4295
  116OSM    O1412095   5.772   4.188   6.195 -0.2869  0.4241 -0.4979
  116OSM    O1112096   5.774   4.386   6.346  0.3725 -0.4401  0.0803
  116OSM    O1212097   5.923   4.378   6.164 -0.4721 -0.3306  0.0476
  116OSM    C1S12098   5.751   4.301   6.461  0.2189 -0.1497 -0.0804
  116OSM    H1S12099   5.847   4.245   6.464  0.4743  0.2982  0.1012
  116OSM    H1T12100   5.675   4.222   6.443 -0.8902  0.6039  1.1689
  116OSM     NF12101   5.736   4.311   6.694 -0.1793  0.2061 -0.3319
  116OSM    HNF12102   5.660   4.266   6.740  1.5681 -1.6963  0.8484
  116OSM    C2S12103   5.714   4.390   6.575 -0.6686  0.1199 -0.0393
  116OSM    H2S12104   5.777   4.481   6.581 -2.5113  1.3983  0.9208
  116OSM    C3S12105   5.573   4.458   6.561  0.3475  0.6637 -0.0025
  116OSM    H3S12106   5.497   4.378   6.549  0.3241  0.8278 -1.0280
  116OSM     O312107   5.566   4.543   6.444 -0.7050  0.1532  0.9753
  116OSM    HO312108   5.639   4.520   6.386  2.6056 -0.8037  5.0276
  116OSM    C4S12109   5.542   4.532   6.682  0.7455 -0.8150  0.3632
  116OSM    H4S12110   5.614   4.609   6.713  2.1480 -1.2690 -1.5994
  116OSM    C5S12111   5.424   4.528   6.751 -0.6199  0.5329  0.2543
  116OSM    H5S12112   5.345   4.456   6.729 -1.5734  1.0844  1.7252
  116OSM    C6S12113   5.414   4.603   6.877 -0.0828 -1.0999 -0.1738
  116OSM    H6S12114   5.323   4.668   6.878 -1.8614 -3.4353 -0.3736
  116OSM    H6T12115   5.498   4.669   6.903 -1.4577  1.0646 -0.9515
  116OSM    C7S12116   5.392   4.504   6.995  0.8047 -0.4771 -0.1500
  116OSM    H7S12117   5.481   4.439   7.014  0.0049 -1.5312  0.0709
  116OSM    H7T12118   5.304   4.445   6.963 -0.9216  1.7659  0.2007
  116OSM    C8S12119   5.344   4.581   7.122  0.2763 -0.9455  0.3684
  116OSM    H8S12120   5.254   4.645   7.112  1.3770  1.0269  2.3068
  116OSM    H8T12121   5.419   4.660   7.143  0.7896 -1.3709  0.1508
  116OSM    C9S12122   5.318   4.489   7.240  0.1299  0.9767  0.0582
  116OSM    H9S12123   5.401   4.416   7.238 -0.5190  0.0383  2.9873
  116OSM    H9T12124   5.223   4.435   7.223 -0.1477  1.8241 -1.2645
  116OSM   C10S12125   5.314   4.566   7.378  0.1833  0.2458  0.5724
  116OSM   H10S12126   5.260   4.663   7.366  0.7961  0.2604 -3.0810
  116OSM   H10T12127   5.418   4.598   7.402 -0.3281  0.6891  2.3559
  116OSM   C11S12128   5.267   4.474   7.488  0.0660 -0.0728 -0.4556
  116OSM   H11S12129   5.256   4.536   7.579 -0.2386 -2.5985  1.3475
  116OSM   H11T12130   5.328   4.382   7.501  1.6046  1.0881  0.9730
  116OSM   C12S12131   5.119   4.428   7.481  0.3566 -0.7123  0.0517
  116OSM   H12S12132   5.092   4.351   7.406 -4.4345  0.1862  0.5839
  116OSM   H12T12133   5.066   4.520   7.449  1.0833 -0.0297  0.7491
  116OSM   C13S12134   5.061   4.380   7.613  0.4051  0.0395  0.2608
  116OSM   H13S12135   4.953   4.365   7.594  0.1667 -1.4997  2.4346
  116OSM   H13T12136   5.074   4.454   7.695 -0.1174 -1.1039  1.4223
  116OSM   C14S12137   5.110   4.241   7.661 -0.3088 -0.6940 -0.5009
  116OSM   H14S12138   5.221   4.246   7.668 -0.4016 -0.1284  5.0569
  116OSM   H14T12139   5.084   4.168   7.582 -2.5261 -0.9288  0.3763
  116OSM   C15S12140   5.055   4.179   7.791 -0.3732  0.4143 -0.3015
  116OSM   H15S12141   5.109   4.086   7.820  0.3223  0.9694  0.2358
  116OSM   H15T12142   4.958   4.140   7.754  0.9862 -2.0873 -1.5342
  116OSM   C16S12143   5.038   4.280   7.908  0.7729  0.1286  0.0059
  116OSM   H16S12144   4.971   4.247   7.990  1.0444  1.8747  0.9752
  116OSM   H16T12145   4.980   4.368   7.872  1.9751 -0.4787 -3.8603
  116OSM   C17S12146   5.174   4.320   7.962 -0.1255  0.1401 -0.3328
  116OSM   H17S12147   5.229   4.369   7.880  1.1695 -0.9554 -0.1516
  116OSM   H17T12148   5.229   4.230   7.997  0.8399  0.7366 -0.2961
  116OSM   C18S12149   5.170   4.418   8.084 -0.1105  0.2292  0.4341
  116OSM   H18S12150   5.118   4.514   8.063 -1.7385 -0.7103  0.0442
  116OSM   H18T12151   5.273   4.430   8.126  0.8187 -3.7888 -0.3439
  116OSM   H18U12152   5.120   4.372   8.171  2.1086 -1.5009  0.9086
  116OSM    C1F12153   5.859   4.291   6.741 -0.5556 -0.5428  0.4672
  116OSM     OF12154   5.966   4.354   6.704  0.6381  0.1257  0.8270
  116OSM    C2F12155   5.871   4.198   6.846 -0.3111  0.4332  0.1882
  116OSM    H2F12156   5.770   4.174   6.887 -0.0593  0.8757  1.0792
  116OSM    H2G12157   5.939   4.238   6.924 -0.3370 -1.7888  1.4513
  116OSM    C3F12158   5.920   4.054   6.803 -0.0855  0.7747  0.3431
  116OSM    H3F12159   6.021   4.059   6.758  0.7489  1.6581  2.2021
  116OSM    H3G12160   5.853   4.020   6.721  0.6431  0.4204 -0.1188
  116OSM    C4F12161   5.918   3.948   6.910 -0.6254  0.0414 -0.2170
  116OSM    H4F12162   5.936   3.848   6.865  0.9721  0.0629  0.3238
  116OSM    H4G12163   5.825   3.948   6.971 -2.5541 -0.5500 -2.9752
  116OSM    C5F12164   6.043   3.953   7.002 -0.1610  0.1773  0.8397
  116OSM    H5F12165   6.043   4.052   7.054 -3.4311  0.1737  1.0790
  116OSM    H5G12166   6.132   3.936   6.938 -0.0214 -1.0514  1.3327
  116OSM    C6F12167   6.019   3.855   7.115  0.4628 -0.1731  0.0981
  116OSM    H6F12168   6.003   3.755   7.068 -0.7873  0.4504 -0.8856
  116OSM    H6G12169   5.921   3.885   7.158  0.3769 -1.0648  0.5343
  116OSM    C7F12170   6.113   3.844   7.229 -0.7007  0.2849 -0.6076
  116OSM    H7F12171   6.148   3.947   7.251 -0.2265 -0.2846  1.5235
  116OSM    H7G12172   6.209   3.793   7.208 -0.4433 -0.3009  1.7252
  116OSM    C8F12173   6.066   3.766   7.359  0.1524 -0.5952  0.4206
  116OSM    H8F12174   6.156   3.749   7.422  1.2595  0.8954 -0.6930
  116OSM    H8G12175   6.029   3.666   7.328  0.4480 -0.6820  0.3450
  116OSM    C9F12176   5.953   3.831   7.429 -0.5480 -0.3519  0.1015
  116OSM    H9F12177   5.876   3.861   7.356  0.0033  1.7713  0.3380
  116OSM   C10F12178   5.953   3.879   7.559  0.9586  0.6174 -0.4252
  116OSM   H10F12179   5.866   3.934   7.598  0.6536  0.8274 -1.3791
  116OSM   C11F12180   6.065   3.857   7.654 -0.5005 -0.0252  0.2803
  116OSM   H11F12181   6.146   3.932   7.646 -0.2061 -0.3662  0.0319
  116OSM   H11G12182   6.122   3.765   7.632 -1.0736 -0.5326  0.8638
  116OSM   C12F12183   6.014   3.832   7.797  0.1491 -0.8866 -0.0279
  116OSM   H12F12184   5.930   3.762   7.782 -0.7209  0.6579 -3.2202
  116OSM   H12G12185   5.955   3.920   7.831 -1.4103 -1.7316 -0.4730
  116OSM   C13F12186   6.110   3.780   7.902 -0.3967  0.4146 -0.0367
  116OSM   H13F12187   6.198   3.849   7.895  0.3122 -0.5537 -1.0026
  116OSM   H13G12188   6.148   3.683   7.864 -0.7008 -0.2731  1.3790
  116OSM   C14F12189   6.047   3.754   8.036 -0.4874  0.4394  0.0857
  116OSM   H14F12190   5.956   3.691   8.024 -1.2235  0.7475  3.3147
  116OSM   H14G12191   6.017   3.851   8.080 -0.6183  1.1753 -1.5653
  116OSM   C15F12192   6.142   3.682   8.129  0.7152  0.1024 -0.0632
  116OSM   H15F12193   6.217   3.762   8.150 -1.3445  2.8909 -2.6042
  116OSM   H15G12194   6.197   3.592   8.094 -0.0236 -0.0490 -0.8427
  116OSM   C16F12195   6.087   3.634   8.266 -0.4896  0.4926  0.5484
  116OSM   H16F12196   6.004   3.561   8.252  0.2769 -0.4142  0.5846
  116OSM   H16G12197   6.043   3.722   8.317 -1.0572  1.8892 -2.1565
  116OSM   C17F12198   6.192   3.557   8.356  0.4228  0.0991  0.2653
  116OSM   H17F12199   6.262   3.636   8.390 -0.1887  1.1218 -0.8008
  116OSM   H17G12200   6.252   3.482   8.301 -1.1690 -0.9068 -0.1648
  116OSM   C18F12201   6.128   3.502   8.485 -0.3370  0.2292 -0.0924
  116OSM   H18F12202   6.072   3.580   8.540 -2.2489  0.4915 -2.2065
  116OSM   H18G12203   6.184   3.437   8.555 -2.4662  1.4573  2.9535
  116OSM   H18H12204   6.053   3.429   8.447  0.2362 -0.4960  0.1590
  117OSM      N12205   6.114   6.102   6.373  0.2231 -0.0946 -0.5133
  117OSM    C1512206   6.196   6.120   6.494 -0.3397 -0.0520  1.0179
  117OSM   H15A12207   6.133   6.092   6.577 -1.6048 -2.1146 -0.5396
  117OSM   H15B12208   6.226   6.223   6.484 -1.4281  0.0303 -3.3292
  117OSM   H15C12209   6.272   6.044   6.483 -0.1264  0.2859  0.0623
  117OSM    C1412210   6.004   6.202   6.386  0.0118 -0.4163  0.0342
  117OSM   H14A12211   5.944   6.182   6.473 -2.8874 -1.6202 -2.0626
  117OSM   H14B12212   5.952   6.217   6.292 -1.8712  2.0290  1.3430
  117OSM   H14C12213   6.044   6.302   6.397  0.0530 -0.5944  1.8327
  117OSM    C1312214   6.195   6.137   6.253 -0.1604 -0.0673  0.0217
  117OSM   H13A12215   6.240   6.235   6.249  0.6248 -0.4523 -2.0128
  117OSM   H13B12216   6.134   6.126   6.164 -0.1112 -1.3945  0.1286
  117OSM   H13C12217   6.287   6.080   6.255  0.4504  0.8879  2.4258
  117OSM    C1212218   6.063   5.960   6.371  0.6367  0.1014  0.6741
  117OSM   H12A12219   5.991   5.935   6.448 -1.0145  1.6700 -0.2937
  117OSM   H12B12220   6.152   5.899   6.376  0.6132 -0.0328 -0.3887
  117OSM    C1112221   5.982   5.914   6.249 -0.3152  0.3359 -0.4514
  117OSM   H11A12222   5.963   5.805   6.262  1.7133  0.3030  4.3154
  117OSM   H11B12223   6.044   5.920   6.158  0.1380 -0.5626 -0.2180
  117OSM      P12224   5.729   5.949   6.297  0.1952 -0.5398  0.2131
  117OSM    O1312225   5.634   6.056   6.267  0.3785 -0.1112  0.3666
  117OSM    O1412226   5.706   5.809   6.245  0.0319 -0.0932  0.5969
  117OSM    O1112227   5.756   5.941   6.448  0.2889 -0.3433 -0.0217
  117OSM    O1212228   5.869   5.996   6.238  0.9166 -0.3162 -0.3751
  117OSM    C1S12229   5.653   5.895   6.540 -0.0757  0.1585 -0.2288
  117OSM    H1S12230   5.630   5.793   6.503  0.8383 -1.3873  3.0512
  117OSM    H1T12231   5.569   5.967   6.540 -0.0215  0.2285 -1.0834
  117OSM     NF12232   5.614   5.784   6.751 -0.1288  0.3936  0.3812
  117OSM    HNF12233   5.550   5.823   6.817 -0.3064  3.0459 -1.1890
  117OSM    C2S12234   5.705   5.877   6.687 -0.2075 -0.2045 -0.1873
  117OSM    H2S12235   5.805   5.831   6.693  0.2226  0.8612  1.9067
  117OSM    C3S12236   5.725   6.022   6.753 -0.4105  0.4295  0.2077
  117OSM    H3S12237   5.630   6.077   6.732 -1.5304 -1.8319 -1.0524
  117OSM     O312238   5.818   6.114   6.684 -0.4502  0.5783 -0.8178
  117OSM    HO312239   5.836   6.065   6.603  2.7725  0.1396  0.0374
  117OSM    C4S12240   5.755   5.995   6.893 -0.5282 -0.4572  0.0138
  117OSM    H4S12241   5.668   5.992   6.961  0.4908 -1.2913  1.3254
  117OSM    C5S12242   5.878   5.996   6.950 -0.0816 -0.2998 -0.5581
  117OSM    H5S12243   5.963   6.006   6.880  0.0786 -0.0045 -0.3206
  117OSM    C6S12244   5.910   5.969   7.096  0.0489  0.3446  0.8205
  117OSM    H6S12245   5.954   6.060   7.142 -0.4952 -0.4121  2.9889
  117OSM    H6T12246   5.996   5.900   7.101  1.1814  1.5048 -1.3168
  117OSM    C7S12247   5.805   5.924   7.188  0.1928  0.4392  0.1998
  117OSM    H7S12248   5.750   5.838   7.144  2.2935  0.2477 -2.3065
  117OSM    H7T12249   5.727   5.996   7.220  0.5305  0.7951  0.2271
  117OSM    C8S12250   5.852   5.865   7.320 -0.8930 -0.0133  0.0129
  117OSM    H8S12251   5.889   5.944   7.388 -2.5080  0.1960  0.7031
  117OSM    H8T12252   5.945   5.809   7.296 -0.3550  2.2213 -4.1414
  117OSM    C9S12253   5.743   5.786   7.395 -0.4475 -0.2686  0.1704
  117OSM    H9S12254   5.706   5.714   7.319  0.6111 -0.4503 -0.1898
  117OSM    H9T12255   5.666   5.856   7.435 -0.7086 -0.6767  0.3808
  117OSM   C10S12256   5.795   5.704   7.516  0.5577  0.5798  0.1991
  117OSM   H10S12257   5.853   5.768   7.586  0.7477 -0.2583  0.8173
  117OSM   H10T12258   5.882   5.635   7.505  1.1199  0.8404  2.5515
  117OSM   C11S12259   5.675   5.635   7.586  0.2250  0.3992 -0.1592
  117OSM   H11S12260   5.642   5.548   7.525 -1.6179  0.9964 -0.0702
  117OSM   H11T12261   5.590   5.707   7.588  1.1275  1.4936 -0.2332
  117OSM   C12S12262   5.709   5.596   7.730  0.4350  0.5659 -0.7846
  117OSM   H12S12263   5.749   5.687   7.779  0.5733 -0.6018  1.4019
  117OSM   H12T12264   5.790   5.520   7.725 -0.0371 -0.1166  1.1651
  117OSM   C13S12265   5.578   5.543   7.793  0.3890 -0.2873 -0.1446
  117OSM   H13S12266   5.521   5.479   7.723 -1.9520  0.5764  0.8604
  117OSM   H13T12267   5.516   5.631   7.823 -0.4462 -0.3245 -1.6671
  117OSM   C14S12268   5.588   5.461   7.922  0.6035 -0.1579  0.0160
  117OSM   H14S12269   5.632   5.360   7.909 -3.3903 -1.8737 -1.5928
  117OSM   H14T12270   5.486   5.440   7.959  0.7000 -1.7904 -0.5665
  117OSM   C15S12271   5.667   5.544   8.024  0.0761  0.5845 -0.0968
  117OSM   H15S12272   5.611   5.640   8.021  1.8463  1.6396 -3.0029
  117OSM   H15T12273   5.770   5.561   7.986 -0.3043  0.4218 -1.2133
  117OSM   C16S12274   5.676   5.493   8.166  0.3502 -0.2109  0.7408
  117OSM   H16S12275   5.722   5.568   8.233  1.5158 -0.1568 -0.0748
  117OSM   H16T12276   5.743   5.404   8.163  1.1602  0.3574 -2.8049
  117OSM   C17S12277   5.536   5.467   8.234  0.1515  0.3014 -0.8800
  117OSM   H17S12278   5.485   5.393   8.169 -0.4617  0.7739 -0.9520
  117OSM   H17T12279   5.469   5.555   8.247 -2.9647 -2.3253  3.9579
  117OSM   C18S12280   5.545   5.410   8.383 -0.3465 -0.4964  0.3659
  117OSM   H18S12281   5.539   5.299   8.388 -0.0029 -0.5448 -0.2192
  117OSM   H18T12282   5.465   5.452   8.448  1.1742 -0.0023  1.9712
  117OSM   H18U12283   5.648   5.431   8.419  0.2847  0.8466 -2.0199
  117OSM    C1F12284   5.617   5.651   6.731  0.3122  0.4125  0.3243
  117OSM     OF12285   5.660   5.599   6.632  0.0778 -0.1279  0.3842
  117OSM    C2F12286   5.536   5.569   6.833 -0.3491 -0.7754  0.5402
  117OSM    H2F12287   5.469   5.499   6.778  0.1378 -1.4662  0.8150
  117OSM    H2G12288   5.484   5.646   6.894  0.1803 -0.4618  0.6037
  117OSM    C3F12289   5.638   5.491   6.918  0.3133  0.7857  0.2527
  117OSM    H3F12290   5.706   5.430   6.855 -0.8304  0.3043 -0.5520
  117OSM    H3G12291   5.574   5.410   6.960  0.1029  1.1974  0.7467
  117OSM    C4F12292   5.709   5.566   7.022  0.9789  0.3229 -0.4263
  117OSM    H4F12293   5.638   5.595   7.103  0.1712 -1.7590 -0.3250
  117OSM    H4G12294   5.746   5.666   6.992 -0.1267  1.6714  2.2985
  117OSM    C5F12295   5.819   5.484   7.084  0.3378 -0.7777  0.4954
  117OSM    H5F12296   5.888   5.550   7.140 -1.6893  2.1971 -0.2796
  117OSM    H5G12297   5.871   5.438   6.997  0.0452  0.6631 -0.4738
  117OSM    C6F12298   5.773   5.370   7.175 -0.2133  0.4135 -0.0764
  117OSM    H6F12299   5.855   5.297   7.191  1.7289  2.2772 -1.0382
  117OSM    H6G12300   5.688   5.310   7.135  1.3697 -0.4325 -2.3679
  117OSM    C7F12301   5.744   5.412   7.322  0.1871  0.0763  0.4038
  117OSM    H7F12302   5.644   5.462   7.320  0.5108  0.7165 -0.3409
  117OSM    H7G12303   5.818   5.493   7.341 -0.2671  1.5222 -3.2519
  117OSM    C8F12304   5.737   5.296   7.425 -0.1663  0.1390 -0.3859
  117OSM    H8F12305   5.658   5.228   7.387 -0.0998 -0.6510  0.8443
  117OSM    H8G12306   5.699   5.346   7.516 -0.3427 -0.4826 -0.1085
  117OSM    C9F12307   5.867   5.217   7.446  1.3872 -0.6801  1.0118
  117OSM    H9F12308   5.895   5.169   7.351  0.2072  0.6787 -0.0856
  117OSM   C10F12309   5.942   5.202   7.554 -0.3247 -1.1094 -0.4391
  117OSM   H10F12310   6.032   5.140   7.544  0.9974  0.9402 -1.8651
  117OSM   C11F12311   5.927   5.257   7.691  0.7147 -0.1184  0.0630
  117OSM   H11F12312   5.823   5.280   7.722  1.7063  0.7652  3.1731
  117OSM   H11G12313   5.974   5.358   7.687  1.7401 -0.6137 -1.8786
  117OSM   C12F12314   5.987   5.172   7.807 -1.1754  1.0116  0.3059
  117OSM   H12F12315   6.096   5.173   7.787 -1.4852  0.1450 -1.7370
  117OSM   H12G12316   5.955   5.067   7.788  0.8600  0.4857 -0.4216
  117OSM   C13F12317   5.952   5.226   7.946 -0.8778 -0.3255  0.0402
  117OSM   H13F12318   5.847   5.210   7.976 -0.7130  2.0288  2.2423
  117OSM   H13G12319   5.950   5.337   7.935 -1.6281 -0.4125 -0.8325
  117OSM   C14F12320   6.052   5.180   8.047  0.8511  0.3332  0.4538
  117OSM   H14F12321   6.156   5.217   8.033  0.0937  2.4978  0.1113
  117OSM   H14G12322   6.071   5.071   8.041  0.3318  0.2320  0.6186
  117OSM   C15F12323   6.004   5.220   8.186  0.1523  0.1877  0.1512
  117OSM   H15F12324   5.934   5.140   8.219  0.1110  0.3483  0.4559
  117OSM   H15G12325   5.951   5.317   8.171 -0.3802 -0.0714  0.3301
  117OSM   C16F12326   6.119   5.228   8.287  1.3976  0.0000 -0.7335
  117OSM   H16F12327   6.197   5.300   8.256  0.4406  2.7532  2.5511
  117OSM   H16G12328   6.167   5.129   8.305  1.5900 -0.2025 -2.2172
  117OSM   C17F12329   6.077   5.280   8.423 -0.0354 -0.2841 -0.1116
  117OSM   H17F12330   6.166   5.279   8.489  0.6265  0.5628 -0.9558
  117OSM   H17G12331   6.040   5.385   8.413  1.5141  0.4818  1.5606
  117OSM   C18F12332   5.964   5.199   8.479  0.0197 -0.4157 -0.0432
  117OSM   H18F12333   5.975   5.097   8.435  0.3364  0.7380 -2.8660
  117OSM   H18G12334   5.863   5.232   8.449  0.8724  1.8566 -0.6371
  117OSM   H18H12335   5.971   5.208   8.590  2.0416  0.8931 -0.2324
  118OSM      N12336   1.112   1.708   6.295 -0.1624  0.4427 -0.4007
  118OSM    C1512337   1.172   1.572   6.282 -0.1140 -0.7547  0.4874
  118OSM   H15A12338   1.251   1.587   6.210 -1.9147 -1.5208 -1.7686
  118OSM   H15B12339   1.102   1.499   6.244  1.5314 -2.4883  0.6926
  118OSM   H15C12340   1.214   1.540   6.376  0.8373 -0.8310  0.0463
  118OSM    C1412341   1.032   1.736   6.170  0.0802 -0.3219  0.2613
  118OSM   H14A12342   0.988   1.834   6.164  2.1250  0.5602 -2.1748
  118OSM   H14B12343   0.949   1.668   6.165 -1.3415  1.0071  3.1824
  118OSM   H14C12344   1.095   1.725   6.083 -0.1541  1.6233 -0.2056
  118OSM    C1312345   1.018   1.696   6.417 -0.4890 -0.1446 -0.2175
  118OSM   H13A12346   0.931   1.643   6.380  0.4056 -0.3088 -2.2155
  118OSM   H13B12347   0.979   1.785   6.463 -0.0156  0.3205 -0.7135
  118OSM   H13C12348   1.053   1.626   6.491 -0.4497  1.5574  1.4180
  118OSM    C1212349   1.215   1.821   6.311 -0.0011 -0.0099  0.0712
  118OSM   H12A12350   1.260   1.816   6.409 -0.8048  0.8391  0.5002
  118OSM   H12B12351   1.160   1.914   6.312 -0.3087 -0.1383 -1.7303
  118OSM    C1112352   1.331   1.823   6.211 -0.2957 -0.2182 -0.1538
  118OSM   H11A12353   1.377   1.924   6.219  2.5618 -1.4403  0.0186
  118OSM   H11B12354   1.298   1.825   6.105  0.4721  0.5164 -0.3873
  118OSM      P12355   1.546   1.741   6.329 -0.2379  0.0977 -0.4548
  118OSM    O1312356   1.620   1.614   6.353 -0.2483  0.4056 -0.1168
  118OSM    O1412357   1.619   1.856   6.281  0.1078  0.0377  0.7323
  118OSM    O1112358   1.470   1.782   6.463  0.2355 -0.6417  0.1165
  118OSM    O1212359   1.429   1.717   6.231 -0.1347  0.0548 -0.1536
  118OSM    C1S12360   1.537   1.840   6.580 -0.3682  0.0800 -0.1810
  118OSM    H1S12361   1.538   1.951   6.571 -0.4385  0.0926 -0.0418
  118OSM    H1T12362   1.635   1.797   6.610 -0.4040  0.7967  1.0756
  118OSM     NF12363   1.545   1.850   6.822  0.2964  0.0201  0.0356
  118OSM    HNF12364   1.610   1.781   6.853 -1.4223 -1.1508  1.1731
  118OSM    C2S12365   1.465   1.808   6.717  0.3075 -0.3801 -0.0083
  118OSM    H2S12366   1.376   1.874   6.706  0.4747 -0.0827  0.3897
  118OSM    C3S12367   1.430   1.658   6.738 -0.5950  0.4145  0.1008
  118OSM    H3S12368   1.522   1.604   6.769 -0.1745 -2.1388 -4.7984
  118OSM     O312369   1.398   1.573   6.625  0.4131  0.1155 -0.6333
  118OSM    HO312370   1.431   1.617   6.546  1.5096  0.6882  0.1255
  118OSM    C4S12371   1.328   1.649   6.855  0.0166 -0.1024  0.1705
  118OSM    H4S12372   1.381   1.622   6.948 -1.3973 -3.6998  0.0935
  118OSM    C5S12373   1.195   1.655   6.852  0.5796 -0.3449  0.0546
  118OSM    H5S12374   1.129   1.664   6.765 -0.4621  1.0700  0.9516
  118OSM    C6S12375   1.093   1.648   6.972  0.5271  0.6459 -0.0196
  118OSM    H6S12376   1.030   1.559   6.952 -0.4656  1.2071  0.5255
  118OSM    H6T12377   1.028   1.738   6.983 -0.6618 -0.1504 -0.4541
  118OSM    C7S12378   1.167   1.641   7.111 -0.3525 -0.3981 -0.6249
  118OSM    H7S12379   1.231   1.732   7.117  0.7031 -1.0491 -1.7214
  118OSM    H7T12380   1.231   1.551   7.116  0.3986  0.1667  0.3263
  118OSM    C8S12381   1.062   1.645   7.221  0.7517 -0.0989 -0.0340
  118OSM    H8S12382   0.998   1.555   7.211 -1.6778  1.6688 -1.4522
  118OSM    H8T12383   0.985   1.723   7.200 -1.0408 -1.1176  2.2694
  118OSM    C9S12384   1.126   1.671   7.355  0.2412  0.2272 -0.5387
  118OSM    H9S12385   1.185   1.764   7.359 -0.4143  0.6372 -0.1627
  118OSM    H9T12386   1.198   1.589   7.373 -0.2023 -0.4309 -1.6381
  118OSM   C10S12387   1.016   1.682   7.460  0.1034 -0.6593  0.3363
  118OSM   H10S12388   0.934   1.608   7.448 -1.2279  0.8623 -0.3590
  118OSM   H10T12389   0.966   1.781   7.457  0.8896 -0.2824 -1.9928
  118OSM   C11S12390   1.073   1.685   7.600 -0.0619 -0.2900 -0.5523
  118OSM   H11S12391   1.146   1.769   7.606  1.6153 -1.6917 -0.5405
  118OSM   H11T12392   1.130   1.591   7.614 -1.9161 -1.5550 -1.1399
  118OSM   C12S12393   0.978   1.708   7.720 -0.2396 -0.0862 -0.6362
  118OSM   H12S12394   0.908   1.622   7.732 -0.8154  0.4651  0.1000
  118OSM   H12T12395   0.908   1.794   7.711 -2.6001 -1.9376 -1.1335
  118OSM   C13S12396   1.064   1.726   7.842 -0.9066 -0.0174  0.8315
  118OSM   H13S12397   1.101   1.830   7.834 -1.7442  0.3102  1.0509
  118OSM   H13T12398   1.161   1.674   7.829 -0.4894  0.6751  1.1269
  118OSM   C14S12399   0.986   1.702   7.973  0.3884 -0.3274 -0.0476
  118OSM   H14S12400   0.971   1.594   7.991  0.8797 -0.5145 -0.7459
  118OSM   H14T12401   0.890   1.759   7.975  0.8995  0.5504  0.0977
  118OSM   C15S12402   1.052   1.745   8.110  0.8540  0.6260 -0.2271
  118OSM   H15S12403   1.055   1.856   8.102  1.6159  0.6381  0.1974
  118OSM   H15T12404   1.160   1.724   8.118  1.0687  1.8357  0.3726
  118OSM   C16S12405   0.983   1.710   8.247 -0.3116 -0.1298 -0.5689
  118OSM   H16S12406   1.006   1.602   8.249 -3.2548 -0.8241  0.9465
  118OSM   H16T12407   0.872   1.721   8.252 -0.3612  0.7867 -2.6662
  118OSM   C17S12408   1.035   1.769   8.370 -0.8697 -0.1093 -0.4503
  118OSM   H17S12409   1.007   1.876   8.362  1.3004  0.7227  1.7980
  118OSM   H17T12410   1.146   1.766   8.367 -0.8326 -3.7303 -0.6048
  118OSM   C18S12411   0.988   1.707   8.507 -0.2040  1.0196  0.7228
  118OSM   H18S12412   1.057   1.738   8.589  0.2560  1.9287  0.0171
  118OSM   H18T12413   0.982   1.598   8.489  1.5828  1.0615 -0.3296
  118OSM   H18U12414   0.884   1.739   8.531 -1.3568 -1.0492 -1.1599
  118OSM    C1F12415   1.537   1.975   6.864 -0.7194 -0.5279 -0.2858
  118OSM     OF12416   1.477   2.064   6.810 -0.4221  0.3695  0.5074
  118OSM    C2F12417   1.628   2.020   6.979  0.0701 -0.0108 -0.0325
  118OSM    H2F12418   1.646   2.129   6.972 -1.2599  0.1219 -2.3994
  118OSM    H2G12419   1.723   1.963   6.978  0.6871  0.9628 -2.1965
  118OSM    C3F12420   1.540   2.003   7.103  0.6366  0.5061  0.2480
  118OSM    H3F12421   1.442   2.046   7.073  0.8309  0.9957  0.3081
  118OSM    H3G12422   1.567   2.069   7.188 -2.3238  0.8998  0.9942
  118OSM    C4F12423   1.520   1.867   7.168  0.5592  0.3900  0.2999
  118OSM    H4F12424   1.616   1.813   7.181  0.5849  0.6893  1.3980
  118OSM    H4G12425   1.484   1.787   7.099  2.2702  0.2199 -0.4542
  118OSM    C5F12426   1.463   1.857   7.309  0.0337  0.3375  0.8138
  118OSM    H5F12427   1.404   1.763   7.315 -0.9892  0.3340 -4.4828
  118OSM    H5G12428   1.389   1.940   7.320  0.5377  1.3634 -2.5563
  118OSM    C6F12429   1.556   1.874   7.427  0.1731 -0.5196  0.0695
  118OSM    H6F12430   1.606   1.972   7.413 -0.5851 -0.0653  0.4446
  118OSM    H6G12431   1.630   1.793   7.442 -1.3569 -1.8965  0.4458
  118OSM    C7F12432   1.481   1.867   7.564  0.8680 -0.2889 -0.2106
  118OSM    H7F12433   1.430   1.769   7.579  3.0890 -1.4240  0.4308
  118OSM    H7G12434   1.409   1.952   7.562  0.6207 -0.5163 -1.1026
  118OSM    C8F12435   1.574   1.908   7.686  0.5029  0.0124  0.3256
  118OSM    H8F12436   1.497   1.930   7.764 -0.2812  0.2087 -0.4827
  118OSM    H8G12437   1.635   1.998   7.665  1.3574 -0.2661  1.4787
  118OSM    C9F12438   1.657   1.794   7.734  0.0463  0.6934  0.1338
  118OSM    H9F12439   1.751   1.769   7.682 -0.2071 -0.7003  0.3157
  118OSM   C10F12440   1.628   1.707   7.835 -0.5220  0.1542 -0.6036
  118OSM   H10F12441   1.700   1.629   7.862 -1.2668 -0.1242  0.6400
  118OSM   C11F12442   1.502   1.701   7.922 -0.4796  0.2722  0.6219
  118OSM   H11F12443   1.462   1.598   7.913 -0.9459  0.5725 -1.2583
  118OSM   H11G12444   1.425   1.770   7.881  0.2071 -0.2235 -1.6427
  118OSM   C12F12445   1.516   1.735   8.072  0.0998 -0.1538 -0.8041
  118OSM   H12F12446   1.598   1.674   8.114  0.6831  0.4138 -1.1109
  118OSM   H12G12447   1.427   1.712   8.135  0.7158  1.1445  0.5890
  118OSM   C13F12448   1.563   1.879   8.094  0.3917  0.7649  0.2490
  118OSM   H13F12449   1.505   1.943   8.024 -0.6828 -0.6732 -0.2168
  118OSM   H13G12450   1.664   1.886   8.047 -0.8387  2.2569 -2.4264
  118OSM   C14F12451   1.548   1.943   8.232  0.1009  0.7755 -0.3098
  118OSM   H14F12452   1.634   2.012   8.244  1.8558 -1.1676 -1.1444
  118OSM   H14G12453   1.561   1.856   8.300  0.6012  0.6790 -0.5253
  118OSM   C15F12454   1.406   2.003   8.246 -0.7937 -0.4097  0.1713
  118OSM   H15F12455   1.326   1.926   8.248 -1.6046  0.3679 -0.9829
  118OSM   H15G12456   1.392   2.070   8.158 -0.7961  0.4746  0.8224
  118OSM   C16F12457   1.391   2.095   8.374  0.2307 -0.3490 -0.1208
  118OSM   H16F12458   1.478   2.164   8.373  1.0005 -1.2359  1.5492
  118OSM   H16G12459   1.397   2.038   8.469 -2.6200 -0.8722 -0.1446
  118OSM   C17F12460   1.251   2.159   8.365 -0.4629 -0.1244 -0.6928
  118OSM   H17F12461   1.182   2.073   8.351  0.6935 -0.8288 -2.5040
  118OSM   H17G12462   1.253   2.221   8.273 -0.0407  2.7124  1.1038
  118OSM   C18F12463   1.205   2.255   8.484 -0.6721 -0.1641  0.0598
  118OSM   H18F12464   1.245   2.212   8.578  2.4272  1.2487 -0.4857
  118OSM   H18G12465   1.094   2.258   8.492 -0.7036 -1.8701  0.7465
  118OSM   H18H12466   1.251   2.356   8.479  2.5617 -1.4866  0.5905
  119OSM      N12467   2.513   6.735   5.977 -0.6009 -0.0722 -0.4034
  119OSM    C1512468   2.389   6.687   5.907  0.2292 -0.1733  0.4927
  119OSM   H15A12469   2.384   6.580   5.901  1.2145 -0.3467  2.1935
  119OSM   H15B12470   2.380   6.734   5.810 -0.2911  1.0504  1.1062
  119OSM   H15C12471   2.307   6.731   5.962  0.4068  1.4312 -0.4517
  119OSM    C1412472   2.485   6.884   6.016 -0.4058  1.0304 -0.0640
  119OSM   H14A12473   2.462   6.945   5.930  1.4973  1.4189 -0.3602
  119OSM   H14B12474   2.577   6.929   6.050  0.0542 -0.1641  0.3369
  119OSM   H14C12475   2.415   6.885   6.098 -0.1878 -1.5049  0.2527
  119OSM    C1312476   2.542   6.658   6.101  0.4562 -0.2463  0.2041
  119OSM   H13A12477   2.637   6.691   6.143 -0.1074  1.6346  0.1204
  119OSM   H13B12478   2.555   6.552   6.085 -1.6747 -0.4213 -0.7247
  119OSM   H13C12479   2.466   6.664   6.178  1.2268 -1.1294  1.0618
  119OSM    C1212480   2.634   6.729   5.882 -0.0706  0.5146 -0.0829
  119OSM   H12A12481   2.624   6.795   5.796 -1.0588 -0.3042 -0.6161
  119OSM   H12B12482   2.638   6.631   5.838  1.4671  0.3164  0.4271
  119OSM    C1112483   2.782   6.748   5.931 -0.3584 -0.0862 -0.1196
  119OSM   H11A12484   2.804   6.833   5.999  3.1707 -1.8102  1.1565
  119OSM   H11B12485   2.855   6.751   5.847  0.1547  0.8258  0.3500
  119OSM      P12486   2.951   6.608   6.078 -0.3540  0.2357 -0.4083
  119OSM    O1312487   2.931   6.497   6.175  0.1529 -0.0555  0.4861
  119OSM    O1412488   3.053   6.580   5.978 -0.4173  0.5473  0.5153
  119OSM    O1112489   2.979   6.744   6.152 -0.0444 -0.3121 -0.2294
  119OSM    O1212490   2.817   6.636   6.012  0.1467 -0.7365 -0.3424
  119OSM    C1S12491   2.886   6.785   6.249 -0.8341  0.1166  0.0533
  119OSM    H1S12492   2.893   6.711   6.331  1.4602 -0.0046 -0.1891
  119OSM    H1T12493   2.781   6.796   6.213 -1.0451 -2.4637 -0.3322
  119OSM     NF12494   2.864   6.933   6.437 -0.0025 -0.3905  0.5426
  119OSM    HNF12495   2.764   6.928   6.430 -0.0557  0.6045  0.3640
  119OSM    C2S12496   2.937   6.920   6.312 -0.2531 -0.3113 -0.0126
  119OSM    H2S12497   3.047   6.919   6.327 -0.1531  0.5565 -0.5825
  119OSM    C3S12498   2.904   7.033   6.209  0.5753 -0.1984  0.1147
  119OSM    H3S12499   2.794   7.041   6.198  0.8660  4.1105 -1.4020
  119OSM     O312500   2.956   7.009   6.076 -0.6372 -0.6098 -0.0136
  119OSM    HO312501   2.976   6.915   6.088 -0.1183 -0.6029 -0.7448
  119OSM    C4S12502   2.951   7.170   6.264  0.4959 -0.2941 -0.1960
  119OSM    H4S12503   2.862   7.226   6.297  0.2303  0.2324 -1.7227
  119OSM    C5S12504   3.061   7.237   6.244 -0.0176  0.4883  0.2518
  119OSM    H5S12505   3.140   7.201   6.177 -0.4343  2.6365 -1.4867
  119OSM    C6S12506   3.089   7.365   6.317  1.0233  0.1101 -0.7742
  119OSM    H6S12507   3.095   7.449   6.244 -1.5887  0.4967 -0.6380
  119OSM    H6T12508   3.185   7.352   6.371 -0.3245 -1.6980  1.3418
  119OSM    C7S12509   2.994   7.404   6.439 -0.3058  0.1131 -0.2827
  119OSM    H7S12510   3.003   7.330   6.521 -0.2767 -0.0064 -0.3925
  119OSM    H7T12511   2.885   7.423   6.428 -0.5155 -0.3857  0.8292
  119OSM    C8S12512   3.043   7.541   6.502  0.0931  0.1853  0.5711
  119OSM    H8S12513   3.061   7.613   6.419  0.4663 -0.6599 -0.0999
  119OSM    H8T12514   3.143   7.514   6.542  1.2885  1.3240 -1.4516
  119OSM    C9S12515   2.942   7.617   6.592  0.9638 -0.2071 -0.2297
  119OSM    H9S12516   2.837   7.585   6.577  0.3595  1.0262  1.1146
  119OSM    H9T12517   2.952   7.723   6.558 -1.0179 -0.8018 -3.0446
  119OSM   C10S12518   2.985   7.624   6.738 -0.1650 -0.3997  0.1859
  119OSM   H10S12519   3.084   7.673   6.741  0.5093 -1.1916 -3.7531
  119OSM   H10T12520   2.990   7.518   6.768 -1.6138 -0.7135 -0.5837
  119OSM   C11S12521   2.886   7.699   6.833 -0.4377  0.2218 -0.4450
  119OSM   H11S12522   2.786   7.652   6.826 -0.9403  1.4172 -1.9962
  119OSM   H11T12523   2.876   7.805   6.800  2.1497  1.6623  2.8420
  119OSM   C12S12524   2.943   7.695   6.980 -0.3848 -0.0377 -0.0761
  119OSM   H12S12525   3.042   7.744   6.979  0.4241 -1.5406  1.1001
  119OSM   H12T12526   2.976   7.592   7.006 -0.2615 -0.0123 -0.1301
  119OSM   C13S12527   2.834   7.735   7.076  0.2985  0.4302 -0.0006
  119OSM   H13S12528   2.754   7.658   7.071  0.1509  0.6986 -3.1059
  119OSM   H13T12529   2.794   7.834   7.048 -1.6624 -0.4901 -0.6269
  119OSM   C14S12530   2.887   7.731   7.214  0.3343  0.9165  0.3174
  119OSM   H14S12531   2.987   7.778   7.204  0.6121  0.1207 -1.0108
  119OSM   H14T12532   2.914   7.626   7.240  0.6831  1.3400  1.7059
  119OSM   C15S12533   2.795   7.791   7.324 -0.4257 -0.1490  1.0529
  119OSM   H15S12534   2.700   7.734   7.323 -0.4259 -0.1431  0.2448
  119OSM   H15T12535   2.782   7.894   7.285 -2.2335 -1.0561 -0.9383
  119OSM   C16S12536   2.867   7.791   7.461 -0.0984  0.5492  0.3272
  119OSM   H16S12537   2.953   7.861   7.450 -0.5007  1.1751  1.0333
  119OSM   H16T12538   2.910   7.689   7.471 -0.3208  0.1707 -2.0258
  119OSM   C17S12539   2.769   7.841   7.565 -0.2460  0.6539 -0.3850
  119OSM   H17S12540   2.720   7.938   7.542 -0.6915  0.4724 -0.2305
  119OSM   H17T12541   2.824   7.863   7.659  0.3218 -1.1326 -0.2687
  119OSM   C18S12542   2.655   7.740   7.613  0.4934 -0.2449  0.3781
  119OSM   H18S12543   2.580   7.717   7.534 -0.7188  0.5354  1.2684
  119OSM   H18T12544   2.606   7.788   7.701 -2.7030 -0.6248 -1.0403
  119OSM   H18U12545   2.695   7.639   7.637 -0.6019 -0.9519 -0.6396
  119OSM    C1F12546   2.917   6.895   6.553 -0.3568 -0.7799 -0.2452
  119OSM     OF12547   3.042   6.890   6.561 -0.3020  0.2155 -0.4084
  119OSM    C2F12548   2.825   6.846   6.663 -0.0701  0.5536 -0.0085
  119OSM    H2F12549   2.806   6.737   6.649 -1.4290  0.7004  0.4690
  119OSM    H2G12550   2.725   6.895   6.654  0.3641  1.7574  1.3905
  119OSM    C3F12551   2.876   6.850   6.810 -0.1988 -0.3702 -0.0727
  119OSM    H3F12552   2.978   6.805   6.803  0.3072  0.9168 -1.5396
  119OSM    H3G12553   2.799   6.798   6.871 -0.2431  0.0660  0.2482
  119OSM    C4F12554   2.893   6.997   6.855  0.3998 -0.3179  0.6421
  119OSM    H4F12555   2.786   7.027   6.846  1.0653  3.6813  3.3451
  119OSM    H4G12556   2.961   7.047   6.783 -1.8535 -0.3261 -1.6566
  119OSM    C5F12557   2.921   7.022   7.002 -0.1899 -0.5930  0.3252
  119OSM    H5F12558   3.030   7.010   7.018  0.1551  1.1023 -0.4928
  119OSM    H5G12559   2.854   6.959   7.065 -2.7322 -0.9598 -2.4885
  119OSM    C6F12560   2.891   7.165   7.044 -0.1914 -0.7950 -0.2666
  119OSM    H6F12561   2.782   7.184   7.034 -0.0055 -0.1858 -1.2933
  119OSM    H6G12562   2.949   7.232   6.977  2.5215  1.1691  3.6513
  119OSM    C7F12563   2.935   7.191   7.185 -0.2187 -0.3248 -0.3288
  119OSM    H7F12564   3.011   7.114   7.213 -0.3866 -0.9921 -1.6413
  119OSM    H7G12565   2.839   7.171   7.237 -0.4678  0.1092 -0.6213
  119OSM    C8F12566   2.985   7.336   7.208  0.2992 -0.4058 -0.1854
  119OSM    H8F12567   2.979   7.363   7.316 -0.9553 -0.6127 -0.1892
  119OSM    H8G12568   2.922   7.415   7.162 -0.4849 -1.4230 -0.8812
  119OSM    C9F12569   3.122   7.353   7.162 -0.5864  0.8345 -0.2029
  119OSM    H9F12570   3.150   7.293   7.074  1.3568 -0.2741  1.0897
  119OSM   C10F12571   3.224   7.426   7.212 -0.1363 -0.2842  0.6963
  119OSM   H10F12572   3.321   7.412   7.163  0.4947  0.4779  1.6972
  119OSM   C11F12573   3.221   7.515   7.332 -0.4336 -0.2742  0.5719
  119OSM   H11F12574   3.124   7.518   7.385  0.0639 -0.0211  1.4855
  119OSM   H11G12575   3.236   7.614   7.282 -1.2453 -0.2245  0.4080
  119OSM   C12F12576   3.328   7.489   7.440  0.5218 -0.1423 -0.4577
  119OSM   H12F12577   3.321   7.576   7.509  0.6787  2.1746 -3.1685
  119OSM   H12G12578   3.428   7.493   7.391  0.4665 -0.0909 -0.5664
  119OSM   C13F12579   3.293   7.353   7.515  0.3503 -0.0024  0.4411
  119OSM   H13F12580   3.292   7.264   7.448  1.2549  1.1833 -1.2342
  119OSM   H13G12581   3.195   7.366   7.564 -1.1902 -0.4080 -2.3292
  119OSM   C14F12582   3.396   7.319   7.618 -0.4517  0.2294 -0.3467
  119OSM   H14F12583   3.491   7.364   7.584 -0.5911  0.6886 -0.1359
  119OSM   H14G12584   3.416   7.210   7.618 -1.2249  0.0036  2.1796
  119OSM   C15F12585   3.362   7.355   7.767  0.2272 -0.3883 -0.4306
  119OSM   H15F12586   3.269   7.297   7.787  1.9871 -2.6240  2.0211
  119OSM   H15G12587   3.343   7.464   7.777  1.0141 -0.3637  1.1561
  119OSM   C16F12588   3.457   7.312   7.873  0.1210  0.9252 -0.3828
  119OSM   H16F12589   3.560   7.349   7.853  0.1837  1.5129  0.8690
  119OSM   H16G12590   3.466   7.202   7.878 -0.8469  0.8854  1.0784
  119OSM   C17F12591   3.423   7.360   8.016 -0.3884  0.2961 -0.4826
  119OSM   H17F12592   3.424   7.471   8.023  1.2564  0.2786  0.0782
  119OSM   H17G12593   3.498   7.316   8.085 -1.4518 -1.4282 -0.3611
  119OSM   C18F12594   3.292   7.308   8.067  0.0542 -0.2305 -0.2362
  119OSM   H18F12595   3.270   7.368   8.158  0.5248  1.8479 -1.4175
  119OSM   H18G12596   3.301   7.198   8.079 -1.7158 -0.3731 -0.0222
  119OSM   H18H12597   3.215   7.331   7.991 -0.5788 -0.6158  0.2725
  120OSM      N12598   0.069   5.660   6.520 -0.3860  0.1935  0.4981
  120OSM    C1512599   0.052   5.784   6.436  0.0032 -0.1088 -0.5893
  120OSM   H15A12600  -0.003   5.760   6.346 -1.1637 -0.1948  0.1335
  120OSM   H15B12601   0.146   5.835   6.416  0.1824 -0.1770  0.0541
  120OSM   H15C12602   0.002   5.861   6.493  1.0274 -0.2007  0.4647
  120OSM    C1412603   0.165   5.568   6.453 -0.1874 -0.8878 -0.4443
  120OSM   H14A12604   0.207   5.499   6.524  0.0912 -0.2070  0.0596
  120OSM   H14B12605   0.246   5.629   6.416 -0.4011  1.2936  2.3616
  120OSM   H14C12606   0.112   5.511   6.378  0.3552 -4.9869  1.9419
  120OSM    C1312607   0.131   5.701   6.650 -0.2514  0.4356 -0.1663
  120OSM   H13A12608   0.077   5.781   6.698 -0.3718 -0.5796  1.4803
  120OSM   H13B12609   0.236   5.723   6.644  0.1966 -1.2609  0.8542
  120OSM   H13C12610   0.124   5.624   6.725 -1.8907 -0.6907 -1.3912
  120OSM    C1212611  -0.068   5.590   6.537  0.1500 -0.2162 -0.4530
  120OSM   H12A12612  -0.137   5.641   6.602  1.6648  0.1755  0.8947
  120OSM   H12B12613  -0.050   5.490   6.575 -0.0268  0.0826  0.4184
  120OSM    C1112614  -0.156   5.576   6.408 -0.4213 -0.1137  0.2240
  120OSM   H11A12615  -0.178   5.672   6.355 -1.6844  0.0213  0.9489
  120OSM   H11B12616  -0.253   5.528   6.433 -0.5520  0.4134  0.7468
  120OSM      P12617  -0.109   5.332   6.308 -0.5085 -0.1729  0.1414
  120OSM    O1312618  -0.196   5.307   6.196  0.0684  0.8955 -0.7135
  120OSM    O1412619   0.024   5.271   6.300 -0.1323 -0.2458 -0.2855
  120OSM    O1112620  -0.179   5.282   6.442  0.2550 -0.0091  0.1176
  120OSM    O1212621  -0.088   5.488   6.315  0.4132  0.9821  0.1238
  120OSM    C1S12622  -0.104   5.210   6.544  0.0162 -0.3189 -1.1734
  120OSM    H1S12623  -0.018   5.268   6.583 -1.8644  0.3418  2.3662
  120OSM    H1T12624  -0.082   5.106   6.511  0.2083 -1.0412  1.0569
  120OSM     NF12625  -0.124   5.199   6.787  0.0219 -0.4700 -0.6703
  120OSM    HNF12626  -0.101   5.110   6.827  0.8484 -0.1997 -0.5197
  120OSM    C2S12627  -0.199   5.214   6.671 -0.4349 -0.1813 -0.1866
  120OSM    H2S12628  -0.238   5.318   6.669  0.7706  0.2883 -0.1265
  120OSM    C3S12629  -0.314   5.108   6.647 -0.0575  0.1292  0.8336
  120OSM    H3S12630  -0.266   5.009   6.664 -1.2765 -0.9440 -1.4963
  120OSM     O312631  -0.367   5.094   6.517  0.3786 -0.1352  0.5875
  120OSM    HO312632  -0.332   5.172   6.473 -1.6115 -0.6387 -2.0961
  120OSM    C4S12633  -0.417   5.125   6.760 -0.5659 -0.4778  0.5740
  120OSM    H4S12634  -0.420   5.041   6.831  0.8798 -2.4688 -1.5839
  120OSM    C5S12635  -0.500   5.240   6.771  0.3364  1.2102  0.4523
  120OSM    H5S12636  -0.497   5.319   6.694 -0.0549  2.4414  1.6779
  120OSM    C6S12637  -0.601   5.251   6.884 -0.0118  0.5430 -0.1997
  120OSM    H6S12638  -0.691   5.298   6.840 -0.3434  0.8315  0.7451
  120OSM    H6T12639  -0.575   5.335   6.952 -0.7392  1.7426 -1.3755
  120OSM    C7S12640  -0.640   5.116   6.957  0.4476 -1.0781 -0.7305
  120OSM    H7S12641  -0.568   5.065   7.024 -0.5181 -1.3631  0.1164
  120OSM    H7T12642  -0.653   5.047   6.871  2.4899  1.4372 -3.2345
  120OSM    C8S12643  -0.768   5.126   7.046 -0.4775 -0.2846 -0.1333
  120OSM    H8S12644  -0.853   5.158   6.982  0.0545  5.4190  1.4589
  120OSM    H8T12645  -0.751   5.209   7.117  0.5282 -1.9595  1.6705
  120OSM    C9S12646  -0.809   4.997   7.118 -0.1105  0.0480 -0.1765
  120OSM    H9S12647  -0.823   4.917   7.042 -1.5633  0.7427 -0.6771
  120OSM    H9T12648  -0.903   4.999   7.177 -1.4696 -1.6064 -2.1589
  120OSM   C10S12649  -0.706   4.950   7.223 -0.3711  0.3361  0.1716
  120OSM   H10S12650  -0.695   5.028   7.302 -1.0370  0.5259  0.0776
  120OSM   H10T12651  -0.619   4.934   7.156 -0.2214  2.7866 -0.3032
  120OSM   C11S12652  -0.741   4.820   7.306 -0.3136  0.8184  0.7976
  120OSM   H11S12653  -0.659   4.796   7.377  1.5167 -0.8406 -1.7157
  120OSM   H11T12654  -0.751   4.730   7.241 -1.5622 -0.2688  2.4005
  120OSM   C12S12655  -0.864   4.843   7.393  0.6388  0.1898 -0.0662
  120OSM   H12S12656  -0.955   4.833   7.331  1.9857 -1.8173 -1.8704
  120OSM   H12T12657  -0.863   4.947   7.432 -0.0423 -0.8909  3.1744
  120OSM   C13S12658  -0.859   4.747   7.511  0.6393 -0.2458  0.4525
  120OSM   H13S12659  -0.759   4.754   7.559  0.1303  0.8378  1.3696
  120OSM   H13T12660  -0.874   4.644   7.472 -0.4161 -0.2879  0.9537
  120OSM   C14S12661  -0.975   4.767   7.615  0.3217  0.2184 -0.1719
  120OSM   H14S12662  -1.068   4.779   7.556 -0.2267 -0.6089  0.5001
  120OSM   H14T12663  -0.959   4.867   7.660 -0.5853 -0.1665  1.0339
  120OSM   C15S12664  -0.992   4.659   7.727  0.5992  0.4898  0.7867
  120OSM   H15S12665  -0.893   4.640   7.774  1.3870  1.3932 -0.4390
  120OSM   H15T12666  -1.025   4.560   7.690 -4.7276  1.1596  2.7565
  120OSM   C16S12667  -1.098   4.705   7.830 -0.2669  0.2158  0.9658
  120OSM   H16S12668  -1.193   4.712   7.773  0.3826  0.1363 -0.1569
  120OSM   H16T12669  -1.079   4.808   7.868 -0.1392  0.7883 -0.5514
  120OSM   C17S12670  -1.106   4.613   7.949 -0.1939  0.1051 -0.0649
  120OSM   H17S12671  -1.019   4.645   8.011 -1.5968  0.7527  1.6508
  120OSM   H17T12672  -1.077   4.519   7.899  0.6162  0.7021 -0.7532
  120OSM   C18S12673  -1.229   4.605   8.031 -0.0783  0.0486  0.2180
  120OSM   H18S12674  -1.314   4.634   7.966  0.7948  2.8647  0.2167
  120OSM   H18T12675  -1.242   4.674   8.117  0.1668 -1.4733  1.5158
  120OSM   H18U12676  -1.247   4.506   8.079  1.3540 -0.6308 -0.5533
  120OSM    C1F12677  -0.071   5.311   6.851 -0.2442 -0.2111 -0.3326
  120OSM     OF12678  -0.106   5.427   6.829  0.2920 -0.4588  0.0917
  120OSM    C2F12679   0.033   5.278   6.951  0.0606 -0.1762  0.3150
  120OSM    H2F12680   0.080   5.372   6.988  0.1030  0.6913 -1.7905
  120OSM    H2G12681   0.116   5.226   6.898 -0.5109 -0.5581 -0.2046
  120OSM    C3F12682  -0.004   5.190   7.070 -1.0754 -0.1413  0.3533
  120OSM    H3F12683   0.089   5.176   7.128  0.8721  2.6355 -1.7959
  120OSM    H3G12684  -0.035   5.094   7.024  2.5068 -1.5111  0.5523
  120OSM    C4F12685  -0.118   5.244   7.158  0.7460 -0.3494  0.3217
  120OSM    H4F12686  -0.205   5.273   7.094  1.0327  0.2081  0.1773
  120OSM    H4G12687  -0.090   5.345   7.197  0.0961 -0.1726  0.3460
  120OSM    C5F12688  -0.164   5.157   7.276  0.3139 -0.4667  0.0491
  120OSM    H5F12689  -0.078   5.130   7.341 -0.2188  0.9566  1.4040
  120OSM    H5G12690  -0.190   5.063   7.223 -0.3987  0.3243 -1.0452
  120OSM    C6F12691  -0.287   5.210   7.355  0.0621 -0.5618  0.2267
  120OSM    H6F12692  -0.359   5.270   7.295 -0.6195 -1.4727  0.1149
  120OSM    H6G12693  -0.253   5.269   7.444 -0.1840  0.8902 -0.6134
  120OSM    C7F12694  -0.371   5.095   7.415 -1.3840 -0.3087 -0.1175
  120OSM    H7F12695  -0.302   5.020   7.461  2.2373  1.0129 -2.9067
  120OSM    H7G12696  -0.412   5.043   7.327 -1.1652 -0.2510 -0.2557
  120OSM    C8F12697  -0.479   5.144   7.510  0.4203  0.2341 -0.1975
  120OSM    H8F12698  -0.530   5.050   7.541 -0.6581  0.3653 -1.4396
  120OSM    H8G12699  -0.553   5.215   7.466  0.0502  0.5279  0.8834
  120OSM    C9F12700  -0.420   5.201   7.636 -0.4049  0.0955  0.2443
  120OSM    H9F12701  -0.397   5.308   7.626 -0.2969  0.0548  0.0549
  120OSM   C10F12702  -0.386   5.134   7.747  0.3802 -0.3011 -0.2675
  120OSM   H10F12703  -0.353   5.187   7.837  0.4914 -1.4209  0.3736
  120OSM   C11F12704  -0.409   4.984   7.766  0.1736 -0.2729 -0.7189
  120OSM   H11F12705  -0.317   4.923   7.781 -1.1518 -2.3081 -0.5705
  120OSM   H11G12706  -0.469   4.935   7.687 -0.8616 -0.2711  0.0411
  120OSM   C12F12707  -0.505   4.982   7.894  0.5329  1.1631  0.5483
  120OSM   H12F12708  -0.605   5.029   7.877  1.2761  2.3191 -0.7933
  120OSM   H12G12709  -0.458   5.041   7.977  0.8406  1.3691  0.2293
  120OSM   C13F12710  -0.521   4.834   7.950 -0.2696 -0.2460  0.5675
  120OSM   H13F12711  -0.428   4.791   7.994  0.0216  0.2403  0.4276
  120OSM   H13G12712  -0.559   4.768   7.869  0.9576 -1.1081  0.6667
  120OSM   C14F12713  -0.626   4.817   8.065 -0.5002  0.4140 -0.4018
  120OSM   H14F12714  -0.725   4.844   8.023 -1.2367 -1.4709  0.0315
  120OSM   H14G12715  -0.593   4.875   8.153  0.0523  2.3880 -1.8526
  120OSM   C15F12716  -0.636   4.672   8.113 -0.0234 -0.3247  0.2019
  120OSM   H15F12717  -0.538   4.649   8.160  0.1395 -0.6458 -0.2872
  120OSM   H15G12718  -0.657   4.595   8.035 -0.7940 -2.8503  2.7573
  120OSM   C16F12719  -0.747   4.651   8.220 -0.3121  0.1593 -0.3491
  120OSM   H16F12720  -0.844   4.641   8.165 -0.3926 -0.7127 -0.0695
  120OSM   H16G12721  -0.751   4.733   8.294  0.1565 -1.0954  1.1125
  120OSM   C17F12722  -0.725   4.517   8.303 -0.2508  0.4021  0.4314
  120OSM   H17F12723  -0.691   4.532   8.408  2.2900 -0.7114 -0.1556
  120OSM   H17G12724  -0.660   4.446   8.246 -1.4300 -0.8485  0.5802
  120OSM   C18F12725  -0.860   4.439   8.311 -0.9858  0.0885 -0.0073
  120OSM   H18F12726  -0.912   4.445   8.213 -3.3302  0.3671  1.2036
  120OSM   H18G12727  -0.928   4.491   8.381  0.5134  0.6961  1.0615
  120OSM   H18H12728  -0.857   4.332   8.340 -1.8742 -0.6553 -2.3549
  121OSM      N12729   2.111   1.863   6.205  0.4044 -0.6826 -0.5578
  121OSM    C1512730   2.130   1.901   6.061  0.0612  0.2332  0.0458
  121OSM   H15A12731   2.235   1.926   6.047  0.3067  1.3341  2.9661
  121OSM   H15B12732   2.077   1.988   6.027 -1.1068 -0.6917 -0.5410
  121OSM   H15C12733   2.115   1.812   6.003 -3.5988  2.1981 -2.4013
  121OSM    C1412734   2.141   1.979   6.294  0.2216  0.0076 -0.2787
  121OSM   H14A12735   2.245   2.003   6.311  0.2038 -0.2838  0.2656
  121OSM   H14B12736   2.099   1.977   6.393 -0.2949 -2.0681 -0.4979
  121OSM   H14C12737   2.092   2.061   6.245  0.4580  0.2713 -0.0812
  121OSM    C1312738   1.967   1.817   6.224  0.4189 -0.2262 -0.6353
  121OSM   H13A12739   1.963   1.712   6.200 -2.2524 -0.5768  0.9575
  121OSM   H13B12740   1.904   1.877   6.159  0.1089  0.2910  0.1247
  121OSM   H13C12741   1.942   1.823   6.329  1.7273 -1.3843 -0.2296
  121OSM    C1212742   2.206   1.752   6.241  0.6837 -0.9074  0.1895
  121OSM   H12A12743   2.182   1.737   6.345 -0.6484 -1.2861 -0.1500
  121OSM   H12B12744   2.305   1.795   6.243  0.4146 -0.0547 -2.0669
  121OSM    C1112745   2.211   1.611   6.162  0.1780  0.6003 -0.3434
  121OSM   H11A12746   2.109   1.579   6.134  0.0261  0.5584  0.2509
  121OSM   H11B12747   2.252   1.535   6.232 -3.7039 -1.8687 -0.4424
  121OSM      P12748   2.445   1.651   6.063 -0.6291 -0.1532  0.4114
  121OSM    O1312749   2.512   1.566   5.957  0.4341 -0.8456  0.0067
  121OSM    O1412750   2.470   1.798   6.071  0.2247  0.2971 -0.0195
  121OSM    O1112751   2.474   1.585   6.199 -0.1330  0.4686 -0.0236
  121OSM    O1212752   2.288   1.627   6.047 -1.0146  0.2771  0.4752
  121OSM    C1S12753   2.583   1.612   6.287 -0.5240 -0.2466 -0.5450
  121OSM    H1S12754   2.547   1.685   6.363  2.7262  3.1404 -1.9552
  121OSM    H1T12755   2.669   1.665   6.241 -0.5563  2.9182  2.6016
  121OSM     NF12756   2.706   1.523   6.486 -0.1736  0.1858 -0.1307
  121OSM    HNF12757   2.805   1.526   6.484 -0.1934  1.9544 -0.2148
  121OSM    C2S12758   2.630   1.485   6.369  0.1483 -0.3182  0.4249
  121OSM    H2S12759   2.541   1.428   6.405  1.9681 -2.2784  2.0548
  121OSM    C3S12760   2.711   1.404   6.273 -0.4313 -0.4008  0.5416
  121OSM    H3S12761   2.803   1.459   6.245 -0.4097 -0.5507  0.3212
  121OSM     O312762   2.664   1.379   6.142 -0.0621  0.4802 -0.4738
  121OSM    HO312763   2.586   1.435   6.137  0.1113  0.9688  1.4761
  121OSM    C4S12764   2.749   1.274   6.342 -0.0770 -0.4569  0.2836
  121OSM    H4S12765   2.847   1.273   6.391 -0.7405  0.5556  1.6962
  121OSM    C5S12766   2.676   1.161   6.360 -0.6768  0.6213  0.0882
  121OSM    H5S12767   2.571   1.163   6.328 -0.7019 -0.7903  0.0241
  121OSM    C6S12768   2.711   1.038   6.440 -0.2240  0.6066  0.4376
  121OSM    H6S12769   2.808   1.061   6.489  0.6097 -1.6617 -0.0012
  121OSM    H6T12770   2.732   0.951   6.373  2.2322  1.3155  0.1878
  121OSM    C7S12771   2.608   1.002   6.552  0.5358  0.2031 -0.3004
  121OSM    H7S12772   2.636   0.903   6.594  1.8145 -0.0111 -1.5849
  121OSM    H7T12773   2.507   1.010   6.507  0.9199  0.2440 -1.1658
  121OSM    C8S12774   2.619   1.104   6.669  1.1083 -0.1221  0.6883
  121OSM    H8S12775   2.592   1.203   6.627  2.7104  0.8735  1.8793
  121OSM    H8T12776   2.726   1.118   6.693  1.2017 -1.2584  1.0150
  121OSM    C9S12777   2.530   1.078   6.790  0.5401  0.0460  0.0882
  121OSM    H9S12778   2.554   0.973   6.820  1.2282  0.3943  0.7974
  121OSM    H9T12779   2.423   1.080   6.759  0.6270  0.9680 -0.1653
  121OSM   C10S12780   2.564   1.169   6.905 -0.2245 -0.0394 -0.0382
  121OSM   H10S12781   2.557   1.277   6.880  1.8619  0.0384 -0.4682
  121OSM   H10T12782   2.667   1.150   6.942  0.0681  0.6254 -0.4870
  121OSM   C11S12783   2.469   1.146   7.024  0.3584 -0.8446  0.3570
  121OSM   H11S12784   2.445   1.041   7.053  2.1253 -1.1458  0.8593
  121OSM   H11T12785   2.369   1.186   7.001 -0.1658 -1.1738  1.9553
  121OSM   C12S12786   2.502   1.223   7.145 -0.2056  0.0579 -0.2174
  121OSM   H12S12787   2.490   1.332   7.125  0.2905  0.0375 -0.6247
  121OSM   H12T12788   2.607   1.201   7.173  0.2019  0.9179 -1.0147
  121OSM   C13S12789   2.416   1.181   7.269 -0.0954  0.5298  0.1342
  121OSM   H13S12790   2.414   1.070   7.281 -1.2792  0.6836  1.6668
  121OSM   H13T12791   2.308   1.207   7.267 -0.7321 -1.7701  1.0561
  121OSM   C14S12792   2.465   1.235   7.397 -0.0272  0.0782 -0.0462
  121OSM   H14S12793   2.486   1.343   7.389  2.2799 -0.3880 -1.1376
  121OSM   H14T12794   2.562   1.184   7.415 -0.4404 -0.6132  0.2855
  121OSM   C15S12795   2.382   1.203   7.527  0.0363 -0.1249 -0.1196
  121OSM   H15S12796   2.382   1.094   7.548  0.9571 -0.3252 -1.0851
  121OSM   H15T12797   2.281   1.245   7.508  0.0109  0.6552  1.5273
  121OSM   C16S12798   2.450   1.288   7.648 -1.1450  0.6209  0.1864
  121OSM   H16S12799   2.421   1.394   7.629 -2.8902  0.2821  0.8077
  121OSM   H16T12800   2.558   1.266   7.635 -1.0459  1.8148 -1.2700
  121OSM   C17S12801   2.392   1.253   7.789  0.3119  0.5897 -0.1577
  121OSM   H17S12802   2.440   1.161   7.828  0.9467  1.8162  2.1474
  121OSM   H17T12803   2.286   1.226   7.769  1.3015 -1.4119 -3.5079
  121OSM   C18S12804   2.408   1.375   7.887 -0.4839 -0.1665 -0.2707
  121OSM   H18S12805   2.345   1.355   7.977 -1.6758  0.1420 -1.0085
  121OSM   H18T12806   2.367   1.466   7.839 -0.1233 -0.3406 -0.9190
  121OSM   H18U12807   2.511   1.398   7.921 -1.8655  1.6841  3.1375
  121OSM    C1F12808   2.644   1.584   6.592 -0.0381  0.2538  0.5716
  121OSM     OF12809   2.526   1.561   6.615 -1.0407  0.7328 -0.0762
  121OSM    C2F12810   2.708   1.704   6.666  0.6225  0.6676  0.1241
  121OSM    H2F12811   2.673   1.790   6.605 -0.9729  0.3306  0.5321
  121OSM    H2G12812   2.819   1.696   6.663  0.4844 -1.8628 -0.3669
  121OSM    C3F12813   2.656   1.737   6.805  0.9773  0.2211 -0.3477
  121OSM    H3F12814   2.548   1.764   6.812  1.1933  0.6099  2.7655
  121OSM    H3G12815   2.707   1.830   6.839  1.2565  0.2872 -0.9298
  121OSM    C4F12816   2.678   1.620   6.896 -0.5542 -0.4640 -0.6355
  121OSM    H4F12817   2.789   1.607   6.889 -0.4700 -0.2561  0.2787
  121OSM    H4G12818   2.625   1.531   6.856 -0.3778 -0.5896 -0.5949
  121OSM    C5F12819   2.649   1.642   7.048  0.4015  1.1488  0.4552
  121OSM    H5F12820   2.684   1.743   7.078  0.8881  0.7236  1.3641
  121OSM    H5G12821   2.706   1.574   7.115 -0.8897  1.0641  1.5193
  121OSM    C6F12822   2.499   1.636   7.081 -0.3559 -0.3551  0.3433
  121OSM    H6F12823   2.468   1.532   7.061 -1.8172 -0.1304  1.2429
  121OSM    H6G12824   2.446   1.709   7.015  0.4192 -0.4252 -0.3640
  121OSM    C7F12825   2.461   1.673   7.218  0.9559 -0.2679 -0.1758
  121OSM    H7F12826   2.505   1.599   7.289  1.1136 -0.5378 -0.5538
  121OSM    H7G12827   2.352   1.660   7.234  0.2499  0.8255 -3.3522
  121OSM    C8F12828   2.502   1.812   7.266 -0.3822 -1.4786  0.3658
  121OSM    H8F12829   2.468   1.882   7.187 -0.3305 -0.9789  0.7867
  121OSM    H8G12830   2.612   1.820   7.278 -0.4902  0.5053  0.2636
  121OSM    C9F12831   2.422   1.876   7.378  0.5227  0.5316  0.1259
  121OSM    H9F12832   2.337   1.940   7.348 -0.1021  0.4415  1.6006
  121OSM   C10F12833   2.443   1.847   7.507  0.3921  0.0005  0.3807
  121OSM   H10F12834   2.381   1.895   7.584 -1.4522 -2.2799  0.4276
  121OSM   C11F12835   2.542   1.740   7.546  0.9258 -0.3883 -0.8567
  121OSM   H11F12836   2.647   1.774   7.554  0.4892  0.6352  1.2446
  121OSM   H11G12837   2.528   1.653   7.478 -1.3215 -1.7508  1.1346
  121OSM   C12F12838   2.517   1.683   7.693  0.6293 -0.4407 -0.0925
  121OSM   H12F12839   2.554   1.579   7.710 -0.2699 -0.7834 -0.1646
  121OSM   H12G12840   2.408   1.676   7.714 -0.2546  0.9850 -3.5791
  121OSM   C13F12841   2.586   1.766   7.812  0.4242 -0.8586  0.0597
  121OSM   H13F12842   2.544   1.869   7.814 -1.4370 -1.5756  1.5466
  121OSM   H13G12843   2.695   1.780   7.799  0.1691  2.5478  0.8121
  121OSM   C14F12844   2.560   1.706   7.948  0.8973  0.1448  0.2171
  121OSM   H14F12845   2.614   1.611   7.965  2.7979  1.4309  1.9112
  121OSM   H14G12846   2.451   1.692   7.965  0.6812 -1.2552 -1.9761
  121OSM   C15F12847   2.610   1.782   8.064  0.2137 -0.5462  0.0597
  121OSM   H15F12848   2.562   1.882   8.057  0.1805 -0.4427  1.5289
  121OSM   H15G12849   2.718   1.804   8.052  0.2633 -1.6920 -1.9719
  121OSM   C16F12850   2.581   1.717   8.201  0.0848  0.2934  0.4948
  121OSM   H16F12851   2.477   1.678   8.199  0.3416 -0.4027  0.0284
  121OSM   H16G12852   2.567   1.805   8.266 -0.8048  0.9848 -0.5930
  121OSM   C17F12853   2.682   1.600   8.240  0.1941  0.7440  0.1145
  121OSM   H17F12854   2.788   1.628   8.224  0.4001  1.0050  1.7461
  121OSM   H17G12855   2.663   1.509   8.180  2.1649  0.8667 -0.7784
  121OSM   C18F12856   2.654   1.557   8.384 -0.0750 -0.6261 -0.0286
  121OSM   H18F12857   2.555   1.507   8.387 -0.2872 -0.4692 -2.2531
  121OSM   H18G12858   2.660   1.644   8.453  0.3374 -1.9018  1.6101
  121OSM   H18H12859   2.733   1.488   8.420  0.9488 -0.1529 -1.2591
  122OSM      N12860   1.697   2.454   5.872  0.2595  0.4775  0.6927
  122OSM    C1512861   1.638   2.596   5.889  0.5051 -0.0699  0.5063
  122OSM   H15A12862   1.584   2.610   5.982 -0.6222  1.0206 -0.2849
  122OSM   H15B12863   1.561   2.603   5.815  0.7980 -0.8782  0.1067
  122OSM   H15C12864   1.704   2.677   5.861  0.6698  1.1866  4.0217
  122OSM    C1412865   1.748   2.449   5.734 -0.5823  0.7546  0.1830
  122OSM   H14A12866   1.840   2.506   5.732 -0.5189  0.6469 -0.0273
  122OSM   H14B12867   1.675   2.494   5.668  1.6747  1.8446 -1.7389
  122OSM   H14C12868   1.770   2.348   5.703  0.3305  1.2046 -0.6851
  122OSM    C1312869   1.822   2.423   5.955  0.4862 -0.8089 -0.4346
  122OSM   H13A12870   1.797   2.412   6.059  3.9796 -0.0017  0.6136
  122OSM   H13B12871   1.895   2.503   5.952  0.0494 -0.4079 -2.9892
  122OSM   H13C12872   1.857   2.326   5.922 -0.1180 -1.1606 -0.0575
  122OSM    C1212873   1.593   2.347   5.901 -0.3347  0.4808 -0.4825
  122OSM   H12A12874   1.625   2.253   5.859  0.4908 -0.5699  2.3089
  122OSM   H12B12875   1.497   2.371   5.857 -0.9180  1.8216  1.4039
  122OSM    C1112876   1.563   2.315   6.054  0.2576  0.1198 -0.5496
  122OSM   H11A12877   1.659   2.295   6.107 -0.6401 -1.5861  0.5223
  122OSM   H11B12878   1.520   2.212   6.059  1.4383 -0.3333  0.9815
  122OSM      P12879   1.324   2.389   6.133 -0.2373  0.3329 -0.2148
  122OSM    O1312880   1.265   2.510   6.185 -0.3274  0.0985 -0.5539
  122OSM    O1412881   1.280   2.344   5.999  0.2784 -0.1711 -0.2253
  122OSM    O1112882   1.307   2.275   6.240 -0.1249 -0.2439 -0.0439
  122OSM    O1212883   1.478   2.416   6.115 -0.4445  0.2206  0.0890
  122OSM    C1S12884   1.407   2.266   6.345  1.1419  0.0669  0.1646
  122OSM    H1S12885   1.485   2.345   6.340  0.5458  0.6317 -0.4182
  122OSM    H1T12886   1.455   2.165   6.344  0.8687 -0.0595 -0.3330
  122OSM     NF12887   1.442   2.266   6.592 -0.4979  0.0113  0.4988
  122OSM    HNF12888   1.450   2.185   6.649 -0.4044 -0.0370  0.4152
  122OSM    C2S12889   1.340   2.265   6.488 -0.8530  0.1200  0.1398
  122OSM    H2S12890   1.274   2.354   6.496 -2.9512 -1.2042 -1.2861
  122OSM    C3S12891   1.249   2.137   6.499 -0.1067  0.1513  0.7803
  122OSM    H3S12892   1.309   2.044   6.502  0.2235  0.3740  1.3208
  122OSM     O312893   1.169   2.102   6.383 -1.0170 -0.3941 -0.2040
  122OSM    HO312894   1.210   2.162   6.321  0.6124 -0.2707  0.9285
  122OSM    C4S12895   1.155   2.136   6.614 -0.4970  0.3452 -0.3209
  122OSM    H4S12896   1.097   2.228   6.625 -0.6432  0.0325  2.1738
  122OSM    C5S12897   1.146   2.035   6.701 -0.5088  0.6568  0.7582
  122OSM    H5S12898   1.196   1.943   6.667 -3.0298  0.2250 -2.3213
  122OSM    C6S12899   1.059   2.035   6.820 -0.4108 -0.4913 -0.9433
  122OSM    H6S12900   1.016   1.933   6.828  1.8040 -1.5390 -1.4179
  122OSM    H6T12901   0.978   2.110   6.820 -0.4849 -0.5598  0.0219
  122OSM    C7S12902   1.142   2.040   6.951 -0.0503 -0.3330  0.4228
  122OSM    H7S12903   1.201   2.133   6.968 -1.8896  0.5602  2.5098
  122OSM    H7T12904   1.221   1.962   6.943 -0.5815 -1.1545  2.5652
  122OSM    C8S12905   1.057   2.021   7.078 -0.1098 -0.2547 -0.2991
  122OSM    H8S12906   1.009   1.921   7.078  0.1162 -0.3728  0.6945
  122OSM    H8T12907   0.971   2.091   7.066  0.7645  0.9808  0.3657
  122OSM    C9S12908   1.127   2.056   7.214 -0.4163 -0.1149  0.0059
  122OSM    H9S12909   1.174   2.154   7.194  1.9411 -1.3199 -0.8005
  122OSM    H9T12910   1.206   1.979   7.232 -0.6524 -0.1986  0.7156
  122OSM   C10S12911   1.033   2.055   7.332 -0.8128 -0.2757  0.0689
  122OSM   H10S12912   0.957   1.975   7.328 -1.1003  0.0448 -2.1657
  122OSM   H10T12913   0.991   2.158   7.331  0.8839  0.4472 -0.2348
  122OSM   C11S12914   1.117   2.053   7.455  0.0698  0.4596 -0.3445
  122OSM   H11S12915   1.198   2.130   7.448  0.2360  0.2120 -1.3364
  122OSM   H11T12916   1.172   1.957   7.462 -0.7638 -0.0952 -1.1987
  122OSM   C12S12917   1.036   2.077   7.582  0.3148  1.1289 -1.2742
  122OSM   H12S12918   0.968   1.991   7.600 -0.0082  1.2333 -1.9471
  122OSM   H12T12919   0.974   2.169   7.592  1.5757  1.7789  1.3830
  122OSM   C13S12920   1.116   2.104   7.711 -0.1216  0.3359 -0.6145
  122OSM   H13S12921   1.171   2.201   7.710  0.2887  0.1344  0.4685
  122OSM   H13T12922   1.184   2.020   7.736 -0.6320  0.4056  1.1304
  122OSM   C14S12923   1.019   2.121   7.833  0.3889  0.5288  0.0321
  122OSM   H14S12924   0.969   2.023   7.848 -0.4599  1.4071  4.3928
  122OSM   H14T12925   0.942   2.198   7.809  0.9139  0.5490 -1.7564
  122OSM   C15S12926   1.095   2.148   7.976  0.2546 -0.3239  0.8506
  122OSM   H15S12927   1.154   2.241   7.965  0.5094 -0.4383  1.2453
  122OSM   H15T12928   1.174   2.071   7.991  0.3209 -0.3774  0.2635
  122OSM   C16S12929   1.003   2.131   8.095 -0.2575  0.3935  0.1895
  122OSM   H16S12930   1.067   2.103   8.182 -1.0966  2.9841  1.7579
  122OSM   H16T12931   0.936   2.046   8.070 -1.5041  1.1047  1.0028
  122OSM   C17S12932   0.897   2.239   8.139  0.7261  1.0176 -0.0826
  122OSM   H17S12933   0.869   2.227   8.246  0.3039  0.7449 -0.2181
  122OSM   H17T12934   0.799   2.221   8.089  1.2064  0.3346 -0.7997
  122OSM   C18S12935   0.944   2.384   8.126 -0.5714  0.1214  0.6860
  122OSM   H18S12936   1.019   2.417   8.201 -1.2543  0.1205  1.3715
  122OSM   H18T12937   0.851   2.444   8.133 -2.0143 -1.8375 -0.6269
  122OSM   H18U12938   0.989   2.400   8.025  1.3655 -2.1615  1.0882
  122OSM    C1F12939   1.540   2.353   6.598  0.8568 -0.1962 -0.4231
  122OSM     OF12940   1.543   2.450   6.523  0.1224 -0.6998 -0.3660
  122OSM    C2F12941   1.648   2.329   6.703  0.4885 -0.2145 -0.0832
  122OSM    H2F12942   1.669   2.221   6.715  1.3607  0.1730  2.1772
  122OSM    H2G12943   1.616   2.369   6.802  0.1546 -0.7829  0.0397
  122OSM    C3F12944   1.781   2.400   6.675 -0.2112 -0.3405 -0.1061
  122OSM    H3F12945   1.763   2.505   6.643  0.7740  0.0190  0.4740
  122OSM    H3G12946   1.830   2.341   6.594  0.8249  1.6305 -0.9884
  122OSM    C4F12947   1.872   2.395   6.799  0.1240 -0.5934 -0.0627
  122OSM    H4F12948   1.969   2.403   6.747 -0.1708  0.3596 -0.5008
  122OSM    H4G12949   1.879   2.296   6.847  0.8707 -0.6961 -0.3671
  122OSM    C5F12950   1.837   2.494   6.906  0.0731  0.1003 -0.8625
  122OSM    H5F12951   1.726   2.498   6.907  0.0498  0.2031  1.4682
  122OSM    H5G12952   1.860   2.599   6.879 -0.7608  0.2856 -0.8766
  122OSM    C6F12953   1.892   2.470   7.050  0.4763 -0.8898 -0.5675
  122OSM    H6F12954   2.003   2.481   7.055  0.3815 -0.5720  1.6856
  122OSM    H6G12955   1.866   2.363   7.065  1.4025 -0.7867  2.4538
  122OSM    C7F12956   1.825   2.552   7.160 -0.9658 -0.0468  0.1767
  122OSM    H7F12957   1.717   2.526   7.161 -0.7088 -1.3407 -1.4266
  122OSM    H7G12958   1.812   2.658   7.130 -3.6427 -0.8638 -1.9241
  122OSM    C8F12959   1.892   2.542   7.296 -0.7296  0.3977  0.5687
  122OSM    H8F12960   2.000   2.559   7.279 -0.7380  0.3965  0.5148
  122OSM    H8G12961   1.871   2.435   7.317  0.2832 -0.0208 -0.4580
  122OSM    C9F12962   1.837   2.633   7.402  0.9937  0.1893 -0.0054
  122OSM    H9F12963   1.729   2.627   7.424  0.4701 -0.4804 -2.4780
  122OSM   C10F12964   1.903   2.715   7.482  0.1285  0.0581 -0.5551
  122OSM   H10F12965   1.850   2.780   7.553  0.4954  1.1587 -1.2631
  122OSM   C11F12966   2.047   2.726   7.478 -0.7489 -0.3198  0.3118
  122OSM   H11F12967   2.084   2.825   7.512  0.5700 -0.2312 -1.2244
  122OSM   H11G12968   2.082   2.735   7.373  0.0709  0.2467  0.6194
  122OSM   C12F12969   2.111   2.607   7.567 -0.6297 -0.0962 -0.5295
  122OSM   H12F12970   2.215   2.598   7.528  0.0683 -0.9311  1.3670
  122OSM   H12G12971   2.062   2.508   7.564  1.3754 -1.2252  0.9576
  122OSM   C13F12972   2.117   2.637   7.717 -0.4325  0.0177 -0.1111
  122OSM   H13F12973   2.015   2.639   7.762  0.2963  0.4038  1.6188
  122OSM   H13G12974   2.153   2.741   7.731 -2.2049  0.4993  1.1324
  122OSM   C14F12975   2.198   2.540   7.796 -0.4572 -0.0418 -0.5896
  122OSM   H14F12976   2.301   2.543   7.754 -0.5175  0.1284 -0.7230
  122OSM   H14G12977   2.153   2.438   7.793 -1.1182  0.2686 -1.5770
  122OSM   C15F12978   2.211   2.578   7.948  0.4414 -0.1236  0.5351
  122OSM   H15F12979   2.110   2.594   7.992 -0.8666 -2.5886 -1.2901
  122OSM   H15G12980   2.258   2.679   7.951  1.0237 -0.3854  0.2694
  122OSM   C16F12981   2.311   2.491   8.027 -0.7148  0.1116  0.6829
  122OSM   H16F12982   2.405   2.503   7.969 -0.7123  0.3195  0.7289
  122OSM   H16G12983   2.289   2.383   8.021 -1.2078  0.2499 -3.7260
  122OSM   C17F12984   2.356   2.553   8.164 -0.0145 -0.7588 -0.2641
  122OSM   H17F12985   2.416   2.477   8.219  0.8515  0.4449  0.4908
  122OSM   H17G12986   2.270   2.580   8.229  0.6679 -2.2452  1.3562
  122OSM   C18F12987   2.445   2.676   8.141  0.4732 -0.3770 -0.4205
  122OSM   H18F12988   2.387   2.757   8.092  1.3013 -0.7824 -2.1410
  122OSM   H18G12989   2.538   2.662   8.083  1.1510  0.8393  0.3416
  122OSM   H18H12990   2.478   2.720   8.237  1.4552 -0.9383 -0.4905
  123OSM      N12991   4.589   3.431   6.401  0.5658  0.2908 -0.6075
  123OSM    C1512992   4.477   3.369   6.481 -0.4468 -0.5752 -0.2925
  123OSM   H15A12993   4.396   3.437   6.502  0.6202  0.5558  0.3477
  123OSM   H15B12994   4.512   3.336   6.578  1.1150  1.1666 -0.2005
  123OSM   H15C12995   4.437   3.291   6.418 -1.4501 -0.8097  0.6146
  123OSM    C1412996   4.542   3.473   6.262 -0.6747  0.2664 -0.7753
  123OSM   H14A12997   4.617   3.532   6.212  0.8004 -1.1062 -0.2516
  123OSM   H14B12998   4.442   3.513   6.266 -1.1659 -0.5816 -2.9114
  123OSM   H14C12999   4.538   3.380   6.206 -1.1003 -0.1747 -0.0328
  123OSM    C1313000   4.640   3.561   6.464 -0.4439 -0.2243  0.0205
  123OSM   H13A13001   4.738   3.570   6.419 -1.1851  1.2378 -1.3935
  123OSM   H13B13002   4.648   3.549   6.571 -1.2000 -3.2180 -0.1694
  123OSM   H13C13003   4.575   3.641   6.433  0.2931  0.0539 -0.8540
  123OSM    C1213004   4.700   3.332   6.414 -0.2758  0.8325  0.0192
  123OSM   H12A13005   4.668   3.232   6.391 -0.3401  0.8715 -0.0616
  123OSM   H12B13006   4.730   3.316   6.517  0.4116 -1.2331 -0.4555
  123OSM    C1113007   4.835   3.354   6.335  0.6154  0.5131 -0.0933
  123OSM   H11A13008   4.804   3.374   6.230 -0.6727 -0.7434  0.0178
  123OSM   H11B13009   4.894   3.260   6.330  2.7043  1.6888  1.0206
  123OSM      P13010   5.020   3.414   6.507  0.0477 -0.3440  0.1367
  123OSM    O1313011   5.105   3.298   6.472  0.2383 -0.1215  0.6574
  123OSM    O1413012   5.095   3.537   6.527 -0.4038 -0.2794  0.5747
  123OSM    O1113013   4.928   3.383   6.633  0.1087  0.1321 -0.5764
  123OSM    O1213014   4.920   3.446   6.390  0.1660  0.5064  0.5446
  123OSM    C1S13015   4.987   3.326   6.747  0.0092 -0.7859  0.1888
  123OSM    H1S13016   5.087   3.371   6.765 -1.0469  1.9381 -0.2950
  123OSM    H1T13017   5.000   3.218   6.727 -1.7585 -0.8820 -0.5758
  123OSM     NF13018   4.977   3.331   6.991  0.2660  0.0411 -0.3121
  123OSM    HNF13019   4.976   3.240   7.032  3.0657  0.1379  0.1961
  123OSM    C2S13020   4.902   3.356   6.870 -0.3035 -0.0614 -0.4122
  123OSM    H2S13021   4.879   3.464   6.884 -1.4149 -0.5363  1.9220
  123OSM    C3S13022   4.766   3.281   6.858  0.8546 -0.2465  0.2973
  123OSM    H3S13023   4.790   3.175   6.836 -1.6413 -0.4261 -2.0931
  123OSM     O313024   4.687   3.328   6.742  0.2697  0.5053  0.5469
  123OSM    HO313025   4.752   3.383   6.698  1.0840 -2.7588 -2.9800
  123OSM    C4S13026   4.682   3.286   6.978 -0.0545  0.5505  0.4127
  123OSM    H4S13027   4.678   3.385   7.026 -0.1233 -0.0056  1.5771
  123OSM    C5S13028   4.613   3.176   7.025  0.1900  0.0890 -0.2377
  123OSM    H5S13029   4.625   3.081   6.970 -2.5630  0.8055 -2.2566
  123OSM    C6S13030   4.524   3.191   7.140  0.3592  1.0268  0.4326
  123OSM    H6S13031   4.560   3.126   7.223  1.3549 -0.3815 -1.0276
  123OSM    H6T13032   4.437   3.137   7.097  1.0878  0.1863 -0.0442
  123OSM    C7S13033   4.486   3.326   7.197  0.2449  0.3607 -0.3308
  123OSM    H7S13034   4.411   3.371   7.128 -0.5515 -1.6948 -0.8680
  123OSM    H7T13035   4.568   3.399   7.214 -0.4997  1.2126 -0.3340
  123OSM    C8S13036   4.416   3.312   7.341 -1.1872  0.2621 -0.7233
  123OSM    H8S13037   4.362   3.216   7.324 -0.1463 -0.4531 -0.0693
  123OSM    H8T13038   4.341   3.391   7.363 -0.1151  1.5385 -1.5741
  123OSM    C9S13039   4.517   3.299   7.457 -0.0596 -0.9404  0.3532
  123OSM    H9S13040   4.561   3.399   7.479 -5.5725  2.2852 -1.2018
  123OSM    H9T13041   4.596   3.227   7.428  0.1187 -0.8460  0.6073
  123OSM   C10S13042   4.457   3.235   7.583 -0.0501  0.8249 -0.5816
  123OSM   H10S13043   4.433   3.130   7.559 -0.3730  0.6268  0.6010
  123OSM   H10T13044   4.372   3.302   7.609 -0.9572 -0.6811  0.4084
  123OSM   C11S13045   4.555   3.240   7.700 -0.4320 -0.9846  0.2404
  123OSM   H11S13046   4.591   3.343   7.716  1.0913 -1.4261 -0.1649
  123OSM   H11T13047   4.646   3.179   7.679 -0.6376 -1.0402 -0.5116
  123OSM   C12S13048   4.492   3.175   7.828 -0.8875 -0.3099 -0.1686
  123OSM   H12S13049   4.489   3.064   7.817 -0.4905 -0.4845  1.2540
  123OSM   H12T13050   4.383   3.196   7.826 -1.1504 -1.5936 -2.5004
  123OSM   C13S13051   4.547   3.212   7.956  0.0204 -0.9961 -0.1516
  123OSM   H13S13052   4.649   3.170   7.968 -0.4137 -1.9503  0.2248
  123OSM   H13T13053   4.491   3.160   8.036  3.6264 -1.5501  2.2516
  123OSM   C14S13054   4.551   3.366   7.975 -0.2216 -0.6277 -0.2810
  123OSM   H14S13055   4.465   3.424   7.933  0.7054  1.3138  0.3956
  123OSM   H14T13056   4.646   3.409   7.935 -1.3510  2.1273 -0.2212
  123OSM   C15S13057   4.553   3.405   8.124 -0.1845 -0.0461 -0.0046
  123OSM   H15S13058   4.611   3.326   8.177 -0.8554 -1.2567 -1.0218
  123OSM   H15T13059   4.452   3.400   8.172  0.1182  2.0399  0.9725
  123OSM   C16S13060   4.569   3.552   8.165 -0.0971 -0.0515 -0.6517
  123OSM   H16S13061   4.494   3.610   8.107 -0.5451 -1.2687 -1.3197
  123OSM   H16T13062   4.669   3.584   8.128 -0.6790  1.0827 -1.2926
  123OSM   C17S13063   4.547   3.575   8.313 -0.5254 -0.1167  0.1299
  123OSM   H17S13064   4.598   3.491   8.367  0.3890 -1.5249 -2.7509
  123OSM   H17T13065   4.439   3.572   8.339 -0.2323  0.9301  1.6128
  123OSM   C18S13066   4.596   3.708   8.368 -0.4997  0.2858  0.8035
  123OSM   H18S13067   4.535   3.790   8.324 -0.4504  0.4385  1.0208
  123OSM   H18T13068   4.702   3.727   8.338 -0.4600  1.7080  1.7482
  123OSM   H18U13069   4.590   3.720   8.478 -2.1778 -0.6645  0.8405
  123OSM    C1F13070   5.075   3.414   7.037  0.1617  0.1624  0.2282
  123OSM     OF13071   5.124   3.509   6.973  0.5652  0.2178 -0.5348
  123OSM    C2F13072   5.113   3.372   7.179  0.2589 -0.7180  0.1480
  123OSM    H2F13073   5.150   3.269   7.166  2.5824  0.0485  0.2514
  123OSM    H2G13074   5.018   3.360   7.236 -0.0017 -2.1804 -0.5728
  123OSM    C3F13075   5.214   3.464   7.246 -0.1045 -0.2141 -0.1732
  123OSM    H3F13076   5.197   3.573   7.232 -0.8177 -0.2986  0.0157
  123OSM    H3G13077   5.312   3.442   7.200 -0.4763  0.0914 -1.1307
  123OSM    C4F13078   5.213   3.460   7.401 -0.0646  0.1345  0.3647
  123OSM    H4F13079   5.310   3.505   7.431  0.2161  1.4696 -2.2835
  123OSM    H4G13080   5.209   3.352   7.426 -0.8824  0.1820  0.4593
  123OSM    C5F13081   5.096   3.527   7.475  0.3516  0.2471 -0.1904
  123OSM    H5F13082   4.994   3.509   7.434  0.8827 -1.5397 -0.8654
  123OSM    H5G13083   5.094   3.637   7.464 -0.6298  0.3151  0.5578
  123OSM    C6F13084   5.093   3.485   7.621 -0.2142  0.6760  0.0625
  123OSM    H6F13085   5.185   3.517   7.674 -0.8720  1.9141  0.4997
  123OSM    H6G13086   5.083   3.374   7.612  3.0909  0.3456 -0.7565
  123OSM    C7F13087   4.973   3.561   7.684 -0.3870 -0.2476 -1.0239
  123OSM    H7F13088   4.879   3.539   7.629 -0.5112 -2.7206  0.0404
  123OSM    H7G13089   4.977   3.668   7.657 -0.7643 -0.0103 -0.1919
  123OSM    C8F13090   4.954   3.542   7.834 -0.5671 -0.0054 -0.6956
  123OSM    H8F13091   4.859   3.588   7.870  0.2093  1.0541  0.0724
  123OSM    H8G13092   5.029   3.609   7.880 -1.1405  2.0693 -2.5399
  123OSM    C9F13093   4.970   3.399   7.879  0.0551 -0.3555  0.6026
  123OSM    H9F13094   4.884   3.333   7.860 -0.0599  0.1704 -0.8385
  123OSM   C10F13095   5.083   3.343   7.928  0.0269 -0.1647  0.4956
  123OSM   H10F13096   5.088   3.241   7.969 -0.5947 -1.0639 -1.5589
  123OSM   C11F13097   5.219   3.406   7.945 -0.2323  0.2932  0.2716
  123OSM   H11F13098   5.224   3.513   7.916 -1.0325  0.3607  0.3353
  123OSM   H11G13099   5.302   3.359   7.888 -1.2882 -0.4684 -0.6832
  123OSM   C12F13100   5.262   3.395   8.095 -0.2809 -0.0716  0.2269
  123OSM   H12F13101   5.366   3.433   8.092 -0.0063 -0.7801 -2.8261
  123OSM   H12G13102   5.274   3.291   8.133 -0.4925  0.1873  1.0124
  123OSM   C13F13103   5.190   3.488   8.190  0.3299 -0.1599 -0.0401
  123OSM   H13F13104   5.082   3.466   8.203  0.1431 -1.6265 -3.2635
  123OSM   H13G13105   5.198   3.589   8.146  0.4292 -0.3286 -0.4085
  123OSM   C14F13106   5.236   3.490   8.338 -0.7090 -0.5096 -0.0921
  123OSM   H14F13107   5.340   3.522   8.361 -0.5162 -1.6767  0.7611
  123OSM   H14G13108   5.246   3.384   8.370  0.1291  0.2191  2.3155
  123OSM   C15F13109   5.145   3.569   8.434 -0.3973 -0.5020 -0.0853
  123OSM   H15F13110   5.045   3.587   8.390 -0.7077 -2.3459 -0.1729
  123OSM   H15G13111   5.192   3.667   8.457 -0.7560 -0.2345 -0.4690
  123OSM   C16F13112   5.113   3.500   8.569  0.5990 -0.4323  0.1519
  123OSM   H16F13113   5.055   3.407   8.551  1.2470 -0.5098 -1.6864
  123OSM   H16G13114   5.042   3.566   8.625  0.2439 -1.0041  0.3859
  123OSM   C17F13115   5.245   3.453   8.652 -1.2044 -0.6776 -0.0570
  123OSM   H17F13116   5.313   3.540   8.663  1.8596 -2.9960  0.5937
  123OSM   H17G13117   5.286   3.374   8.586 -1.0068  0.1567 -0.9538
  123OSM   C18F13118   5.217   3.404   8.799  0.0779 -0.4213  0.0388
  123OSM   H18F13119   5.305   3.391   8.866 -0.7681  0.7737  1.4388
  123OSM   H18G13120   5.157   3.312   8.788  0.5192 -0.5088 -1.9813
  123OSM   H18H13121   5.163   3.491   8.842  0.9014  1.4321 -2.4329
  124OSM      N13122   6.121   0.411   6.334  0.9639 -0.0578 -0.7013
  124OSM    C1513123   6.265   0.424   6.360 -0.8448 -0.0573 -0.0558
  124OSM   H15A13124   6.293   0.521   6.398 -0.0286  0.4995 -1.9596
  124OSM   H15B13125   6.320   0.401   6.270 -0.1424 -0.7775  0.5350
  124OSM   H15C13126   6.301   0.350   6.430  1.9560 -0.2487 -1.5630
  124OSM    C1413127   6.054   0.451   6.459 -0.7056  1.2902 -0.3828
  124OSM   H14A13128   5.946   0.443   6.455 -0.7229 -0.8410  1.6864
  124OSM   H14B13129   6.085   0.553   6.477  0.4340  1.2590 -1.9511
  124OSM   H14C13130   6.085   0.386   6.540 -0.0537  1.3501 -0.5784
  124OSM    C1313131   6.088   0.513   6.230 -0.1570 -0.3587  0.3263
  124OSM   H13A13132   6.158   0.498   6.149 -1.6026 -0.8119 -0.8809
  124OSM   H13B13133   6.098   0.611   6.276 -0.7479 -0.5702  0.9281
  124OSM   H13C13134   5.989   0.505   6.188  0.9908 -1.2553 -2.4108
  124OSM    C1213135   6.068   0.268   6.296 -0.2889  0.0549  0.5293
  124OSM   H12A13136   5.960   0.265   6.287 -0.2945  0.2378  0.5240
  124OSM   H12B13137   6.094   0.197   6.372  0.0246 -0.2781  0.1180
  124OSM    C1113138   6.129   0.199   6.170  0.0212 -0.0423 -0.2450
  124OSM   H11A13139   6.094   0.261   6.085 -1.2417  0.3558  0.5276
  124OSM   H11B13140   6.076   0.102   6.161 -0.2832  0.1011 -0.0238
  124OSM      P13141   6.340   0.051   6.248 -0.3188 -0.2379 -0.0352
  124OSM    O1313142   6.333  -0.070   6.165 -0.2395  0.1495  0.7714
  124OSM    O1413143   6.477   0.100   6.280  0.1881  0.3713  0.0406
  124OSM    O1113144   6.254   0.033   6.382 -0.1276  0.4526  0.2880
  124OSM    O1213145   6.268   0.170   6.185  0.0410 -0.5827 -0.3836
  124OSM    C1S13146   6.314  -0.006   6.509  0.3155  0.0301 -0.0433
  124OSM    H1S13147   6.404   0.059   6.520 -0.7570  2.7520 -4.3893
  124OSM    H1T13148   6.344  -0.112   6.512  2.5274  0.6343  2.5256
  124OSM     NF13149   6.298  -0.028   6.757 -0.1955  0.1579  0.1967
  124OSM    HNF13150   6.268  -0.115   6.797  0.2396 -0.1404 -0.1151
  124OSM    C2S13151   6.232   0.015   6.634  0.5187 -0.1346 -0.1236
  124OSM    H2S13152   6.206   0.123   6.638  0.5208 -0.0605 -1.6194
  124OSM    C3S13153   6.089  -0.058   6.608  0.1805 -0.4834 -0.2208
  124OSM    H3S13154   6.100  -0.168   6.598  0.8788 -0.8021  3.1737
  124OSM     O313155   6.019  -0.008   6.492  0.1704  0.4200 -0.4366
  124OSM    HO313156   6.096   0.029   6.450  1.8387 -1.6416  0.6105
  124OSM    C4S13157   5.991  -0.036   6.730 -0.2255 -0.2512 -0.3633
  124OSM    H4S13158   5.950   0.065   6.746  1.0535 -0.1289  3.1472
  124OSM    C5S13159   5.942  -0.133   6.811  0.0153 -0.2390 -0.5529
  124OSM    H5S13160   5.967  -0.239   6.797  0.6737 -0.2617  0.6506
  124OSM    C6S13161   5.843  -0.105   6.920 -0.8015  0.5698 -0.1139
  124OSM    H6S13162   5.746  -0.160   6.914  0.3502 -1.5969 -0.1428
  124OSM    H6T13163   5.831   0.005   6.911  4.0287  1.1541 -2.5894
  124OSM    C7S13164   5.909  -0.144   7.053 -0.4277  0.0117  0.0497
  124OSM    H7S13165   6.017  -0.123   7.061 -0.3431 -0.9208  1.9045
  124OSM    H7T13166   5.899  -0.254   7.071 -2.1755 -0.0800 -1.2075
  124OSM    C8S13167   5.836  -0.086   7.166  0.5165 -0.2039 -0.3375
  124OSM    H8S13168   5.727  -0.111   7.161  0.9814 -2.4478 -0.5088
  124OSM    H8T13169   5.846   0.024   7.170  1.9434 -0.3059 -0.7871
  124OSM    C9S13170   5.868  -0.143   7.313 -0.1040  0.2192  0.2880
  124OSM    H9S13171   5.974  -0.120   7.333  0.0608  0.3522 -0.6887
  124OSM    H9T13172   5.857  -0.253   7.312 -0.5559  0.1915 -2.6347
  124OSM   C10S13173   5.784  -0.072   7.410  0.2027  0.2283 -0.2270
  124OSM   H10S13174   5.676  -0.085   7.388 -0.2338  1.1707  1.2358
  124OSM   H10T13175   5.803   0.037   7.401  0.4150  0.2673  0.6152
  124OSM   C11S13176   5.814  -0.114   7.561  0.2415 -0.5612 -1.0569
  124OSM   H11S13177   5.916  -0.081   7.590 -0.4466  0.4981  0.2374
  124OSM   H11T13178   5.796  -0.224   7.557 -1.9492 -0.2918 -0.2140
  124OSM   C12S13179   5.714  -0.050   7.654  0.7335 -0.2010 -0.0898
  124OSM   H12S13180   5.607  -0.060   7.627  0.9205 -1.3278 -0.4631
  124OSM   H12T13181   5.731   0.059   7.642 -0.0627  0.0043  0.5596
  124OSM   C13S13182   5.742  -0.086   7.797 -0.1175  0.0356  0.5006
  124OSM   H13S13183   5.853  -0.078   7.798 -0.0549 -0.5156 -0.2562
  124OSM   H13T13184   5.715  -0.193   7.812  1.6233 -0.6878 -1.0142
  124OSM   C14S13185   5.685   0.001   7.908  0.8529 -0.0990 -0.3772
  124OSM   H14S13186   5.581  -0.024   7.936  0.7149 -0.6870 -1.3270
  124OSM   H14T13187   5.691   0.110   7.887  3.6467  0.0365  0.7171
  124OSM   C15S13188   5.771  -0.024   8.034  0.4173  0.2634  0.3168
  124OSM   H15S13189   5.879  -0.000   8.024  0.4090 -0.2704 -1.2685
  124OSM   H15T13190   5.766  -0.131   8.062  4.0733  0.4252  2.2103
  124OSM   C16S13191   5.729   0.067   8.156  0.4698  0.9604 -0.2392
  124OSM   H16S13192   5.632   0.041   8.203  0.9845 -1.8022 -0.5507
  124OSM   H16T13193   5.707   0.167   8.113 -1.0167  0.8476  0.2041
  124OSM   C17S13194   5.833   0.062   8.266 -0.3520  0.1295 -0.4242
  124OSM   H17S13195   5.932   0.101   8.231 -0.7306  0.4349 -1.1895
  124OSM   H17T13196   5.864  -0.044   8.278 -0.2497  0.0336 -1.4334
  124OSM   C18S13197   5.791   0.128   8.398 -0.0884 -0.1987  0.5809
  124OSM   H18S13198   5.883   0.134   8.460  0.6029  2.4429 -0.5451
  124OSM   H18T13199   5.709   0.074   8.449 -0.3159 -0.9347 -0.5263
  124OSM   H18U13200   5.748   0.230   8.389 -2.5889 -1.1651  1.0331
  124OSM    C1F13201   6.397   0.046   6.806 -0.2184 -0.1064 -0.1723
  124OSM     OF13202   6.439   0.151   6.751  0.3654 -0.0461  0.1489
  124OSM    C2F13203   6.474  -0.011   6.926  0.4507 -0.2496  0.3795
  124OSM    H2F13204   6.565  -0.054   6.879  0.1242 -1.5976  0.9175
  124OSM    H2G13205   6.420  -0.099   6.969 -0.5167 -0.4277 -1.1465
  124OSM    C3F13206   6.504   0.078   7.041 -0.1210 -0.6777 -0.0951
  124OSM    H3F13207   6.406   0.106   7.085 -0.2034  1.2930 -1.4249
  124OSM    H3G13208   6.560   0.169   7.010 -0.6564  0.7340  2.7777
  124OSM    C4F13209   6.603   0.013   7.138 -0.2065 -0.2470 -0.1813
  124OSM    H4F13210   6.656   0.101   7.180  1.3038 -0.7970 -0.8691
  124OSM    H4G13211   6.681  -0.038   7.077 -0.5168 -1.3986  0.3501
  124OSM    C5F13212   6.542  -0.065   7.248 -0.7413  0.0346 -0.8871
  124OSM    H5F13213   6.507  -0.162   7.207 -1.6890  0.2208 -0.5373
  124OSM    H5G13214   6.453  -0.016   7.294 -0.6277 -0.2693 -0.3356
  124OSM    C6F13215   6.650  -0.079   7.356  0.4253 -0.3780 -0.7008
  124OSM    H6F13216   6.674   0.019   7.402  0.9418 -0.5556 -0.5913
  124OSM    H6G13217   6.744  -0.117   7.310  1.8937  1.2808  0.7970
  124OSM    C7F13218   6.608  -0.177   7.475  1.0779  0.3557 -0.6942
  124OSM    H7F13219   6.573  -0.272   7.428 -0.8558  0.3821  0.5764
  124OSM    H7G13220   6.514  -0.150   7.527 -0.2344 -0.6464 -2.4140
  124OSM    C8F13221   6.720  -0.201   7.566  0.3493  0.4103 -0.4806
  124OSM    H8F13222   6.760  -0.106   7.607 -1.8412  0.4526  1.8306
  124OSM    H8G13223   6.797  -0.247   7.501 -1.2731 -1.5012 -1.1501
  124OSM    C9F13224   6.695  -0.287   7.685  0.1850 -0.0402  0.1804
  124OSM    H9F13225   6.682  -0.394   7.662 -1.1074  0.1749 -0.1306
  124OSM   C10F13226   6.699  -0.252   7.818  0.0405  0.6021 -0.4642
  124OSM   H10F13227   6.674  -0.333   7.888 -3.1667  2.4396  0.7478
  124OSM   C11F13228   6.701  -0.114   7.881 -0.6003  1.0090  0.7158
  124OSM   H11F13229   6.607  -0.073   7.923 -0.8437  0.7669  0.4154
  124OSM   H11G13230   6.729  -0.034   7.809  2.5443 -0.5472  0.0362
  124OSM   C12F13231   6.813  -0.113   7.980 -0.8879  0.2559 -0.0118
  124OSM   H12F13232   6.912  -0.129   7.932 -0.8966 -1.4108  0.4670
  124OSM   H12G13233   6.803  -0.207   8.037 -0.8036 -0.7244 -1.5418
  124OSM   C13F13234   6.804   0.002   8.086 -0.6033  0.0031  0.2639
  124OSM   H13F13235   6.706  -0.010   8.137  0.2767  0.7821  2.2323
  124OSM   H13G13236   6.793   0.095   8.026  0.7566  0.7202  1.0810
  124OSM   C14F13237   6.918  -0.004   8.198  0.0535 -0.1413 -0.0812
  124OSM   H14F13238   7.019   0.008   8.154 -0.3842  0.6192 -0.9112
  124OSM   H14G13239   6.913  -0.100   8.253  2.2679  1.5900  3.5422
  124OSM   C15F13240   6.904   0.099   8.313  0.9089 -0.3586 -1.1315
  124OSM   H15F13241   6.803   0.091   8.359  0.9965  1.2582 -0.5896
  124OSM   H15G13242   6.904   0.201   8.269 -0.3967  0.7004  1.1727
  124OSM   C16F13243   7.006   0.071   8.427  0.4016 -0.1323  0.9043
  124OSM   H16F13244   7.104   0.083   8.376  0.9582  0.8560  2.1449
  124OSM   H16G13245   6.980  -0.022   8.481  2.7943 -2.0121 -0.9547
  124OSM   C17F13246   6.979   0.191   8.529  0.5612  0.2656  0.9377
  124OSM   H17F13247   6.872   0.192   8.558  0.0432 -3.0229 -0.4429
  124OSM   H17G13248   6.991   0.279   8.462  2.0336 -0.5979  0.0175
  124OSM   C18F13249   7.056   0.185   8.658  0.4801  0.2497  0.2493
  124OSM   H18F13250   7.166   0.173   8.643  0.0696 -2.0507 -1.6164
  124OSM   H18G13251   7.022   0.114   8.736 -0.1238  0.5778  0.2895
  124OSM   H18H13252   7.044   0.285   8.704  1.3132 -0.4110  1.9817
  125OSM      N13253   1.472   6.754   6.137  0.1085 -0.5820  0.3131
  125OSM    C1513254   1.328   6.793   6.142 -0.1045  0.5977  0.2737
  125OSM   H15A13255   1.278   6.753   6.055 -0.6666  1.6911  0.0750
  125OSM   H15B13256   1.323   6.900   6.128  2.1875  0.6659 -0.5634
  125OSM   H15C13257   1.275   6.774   6.234 -2.9524  2.2928 -0.8846
  125OSM    C1413258   1.529   6.775   5.998 -0.2452  0.8817 -0.5148
  125OSM   H14A13259   1.623   6.724   5.986 -1.0196 -0.5443 -0.7249
  125OSM   H14B13260   1.533   6.879   5.967  2.6915  1.2631  0.8471
  125OSM   H14C13261   1.468   6.726   5.924  0.2095 -0.5314  0.0283
  125OSM    C1313262   1.545   6.859   6.224  0.3398  0.2910  0.3635
  125OSM   H13A13263   1.652   6.847   6.216  0.0057 -2.0999 -2.1120
  125OSM   H13B13264   1.513   6.842   6.326 -1.6668  1.0208 -0.0953
  125OSM   H13C13265   1.522   6.960   6.193  0.2993 -0.6195 -2.9650
  125OSM    C1213266   1.493   6.609   6.173 -0.1367  0.0066 -0.1848
  125OSM   H12A13267   1.445   6.597   6.268 -0.6618  0.0126 -0.4463
  125OSM   H12B13268   1.596   6.585   6.195  0.2520  1.5313 -0.2494
  125OSM    C1113269   1.428   6.503   6.073 -0.5124 -0.4431  0.5934
  125OSM   H11A13270   1.453   6.401   6.109  0.4577 -0.9818 -1.4494
  125OSM   H11B13271   1.478   6.501   5.973 -0.8312 -0.3340  0.4297
  125OSM      P13272   1.201   6.450   6.174  0.4177 -0.0542  0.1034
  125OSM    O1313273   1.075   6.527   6.195 -0.0054  0.2834  0.6581
  125OSM    O1413274   1.185   6.307   6.141  0.8676 -0.0202 -0.2418
  125OSM    O1113275   1.294   6.461   6.303 -0.0045 -0.0298 -0.1393
  125OSM    O1213276   1.286   6.516   6.060  0.3226 -0.0474  0.3441
  125OSM    C1S13277   1.242   6.432   6.436  0.4818 -0.2534 -0.0553
  125OSM    H1S13278   1.145   6.379   6.428  0.1826  0.4823 -1.7556
  125OSM    H1T13279   1.221   6.535   6.473 -1.3402 -0.7290  0.3131
  125OSM     NF13280   1.255   6.313   6.648 -0.5437 -0.2928 -0.2282
  125OSM    HNF13281   1.273   6.363   6.732 -0.8394  0.9580 -0.8938
  125OSM    C2S13282   1.331   6.352   6.532  0.3776 -0.0899  0.0122
  125OSM    H2S13283   1.373   6.264   6.478 -1.3891 -0.1868 -1.2897
  125OSM    C3S13284   1.458   6.436   6.569  0.0440  0.5322  0.1060
  125OSM    H3S13285   1.427   6.521   6.634  1.1522  0.5691  0.5951
  125OSM     O313286   1.526   6.485   6.453 -0.1129 -1.1803  0.4143
  125OSM    HO313287   1.477   6.449   6.379  0.0789 -0.6344  0.0182
  125OSM    C4S13288   1.557   6.352   6.659  1.1159  0.7248 -0.2300
  125OSM    H4S13289   1.551   6.397   6.759  0.0162 -0.8478  0.4397
  125OSM    C5S13290   1.637   6.243   6.634  0.7171  0.3037  0.6514
  125OSM    H5S13291   1.642   6.188   6.539  2.5918  2.1060 -0.3827
  125OSM    C6S13292   1.729   6.170   6.732  0.8395  0.0712  0.2644
  125OSM    H6S13293   1.837   6.164   6.705 -0.2152 -0.0644 -5.0230
  125OSM    H6T13294   1.688   6.067   6.724  3.8927 -1.2990  0.8381
  125OSM    C7S13295   1.720   6.209   6.880 -0.5053 -0.3764  0.2660
  125OSM    H7S13296   1.618   6.217   6.923 -1.4591 -1.1382 -1.7422
  125OSM    H7T13297   1.766   6.310   6.894 -1.8216  0.3120 -0.2506
  125OSM    C8S13298   1.798   6.114   6.976  0.4216  0.2871  0.1664
  125OSM    H8S13299   1.889   6.069   6.931 -1.7078 -2.8247 -1.3495
  125OSM    H8T13300   1.730   6.030   7.000  0.4177  1.4125  5.4633
  125OSM    C9S13301   1.824   6.198   7.101 -0.0679  0.3222 -0.3418
  125OSM    H9S13302   1.735   6.260   7.126 -1.1203 -0.9385 -0.8035
  125OSM    H9T13303   1.903   6.273   7.079 -2.4926  2.2139 -3.5212
  125OSM   C10S13304   1.862   6.124   7.233  0.0144 -0.3061 -0.1378
  125OSM   H10S13305   1.964   6.085   7.213  0.4090  0.9053 -0.5976
  125OSM   H10T13306   1.802   6.031   7.247  0.8216 -0.6613  1.1602
  125OSM   C11S13307   1.862   6.206   7.355 -0.1588 -0.1172  0.4259
  125OSM   H11S13308   1.757   6.219   7.389 -0.1593  0.3625  0.2436
  125OSM   H11T13309   1.900   6.309   7.339  0.5305 -0.1462  1.7785
  125OSM   C12S13310   1.933   6.131   7.477  0.1891 -0.2027  0.4445
  125OSM   H12S13311   2.043   6.118   7.467 -0.2458 -2.6954 -2.5482
  125OSM   H12T13312   1.892   6.028   7.474 -1.3609  0.3599 -3.4155
  125OSM   C13S13313   1.917   6.200   7.613  0.3184 -0.7244  0.1360
  125OSM   H13S13314   1.815   6.178   7.652 -0.4600  1.9674 -0.1208
  125OSM   H13T13315   1.909   6.302   7.568  0.5284 -1.0726 -0.7103
  125OSM   C14S13316   2.024   6.174   7.723 -0.8992  0.0392  0.0167
  125OSM   H14S13317   2.119   6.206   7.674 -0.8015  1.7885  1.2562
  125OSM   H14T13318   2.017   6.064   7.731 -0.3871 -0.1667 -1.8563
  125OSM   C15S13319   1.996   6.264   7.843  0.7065 -0.7037  0.3236
  125OSM   H15S13320   1.887   6.285   7.846  1.1895  2.2663  0.5900
  125OSM   H15T13321   2.034   6.361   7.803  1.1837 -1.9836 -2.6170
  125OSM   C16S13322   2.044   6.215   7.976  0.5938  0.2584 -0.3317
  125OSM   H16S13323   1.975   6.129   7.996 -0.5477  1.0569 -0.7297
  125OSM   H16T13324   2.019   6.275   8.066 -0.7364 -1.8545  0.8233
  125OSM   C17S13325   2.185   6.161   7.982 -0.8411  0.3927 -0.7323
  125OSM   H17S13326   2.186   6.065   7.925 -0.8222 -0.2954  0.4046
  125OSM   H17T13327   2.206   6.140   8.089  2.0835 -0.1193 -1.3133
  125OSM   C18S13328   2.297   6.252   7.923  0.0723  0.1669  0.3270
  125OSM   H18S13329   2.296   6.245   7.812 -1.0762  3.6348  0.0023
  125OSM   H18T13330   2.399   6.228   7.960 -0.2765 -3.1619 -0.5846
  125OSM   H18U13331   2.263   6.357   7.937  0.4177  0.3421 -0.0972
  125OSM    C1F13332   1.188   6.201   6.648 -0.2729  1.5180 -0.7440
  125OSM     OF13333   1.197   6.128   6.545  0.2579 -0.4075  0.1386
  125OSM    C2F13334   1.095   6.161   6.763  0.2001  0.4895 -0.2967
  125OSM    H2F13335   1.008   6.230   6.760 -1.2017 -1.1268  1.1757
  125OSM    H2G13336   1.146   6.186   6.859 -1.0375 -0.4177  0.6353
  125OSM    C3F13337   1.056   6.016   6.769 -0.2333  0.8209  0.0587
  125OSM    H3F13338   1.148   5.958   6.791  2.1875  3.7706 -1.5311
  125OSM    H3G13339   1.015   5.989   6.669  1.8607 -0.7759 -0.4324
  125OSM    C4F13340   0.942   5.972   6.869 -0.0992 -0.1788 -0.1273
  125OSM    H4F13341   0.930   5.862   6.865  0.2739 -0.2301  0.0698
  125OSM    H4G13342   0.853   6.028   6.833  0.5548  1.5032  0.7407
  125OSM    C5F13343   0.981   6.008   7.013  0.6399  0.3319 -0.3104
  125OSM    H5F13344   0.990   6.118   7.029  1.6454  0.2923 -0.5611
  125OSM    H5G13345   1.084   5.973   7.039  0.4560 -0.7046 -0.9371
  125OSM    C6F13346   0.886   5.946   7.123  0.1344 -0.5745  0.9012
  125OSM    H6F13347   0.853   5.843   7.098 -3.0017  0.0895  1.8126
  125OSM    H6G13348   0.791   6.001   7.106  0.1070 -0.4790  1.3552
  125OSM    C7F13349   0.929   5.958   7.270  0.2714 -0.8123  0.8218
  125OSM    H7F13350   0.962   6.062   7.289 -1.0579 -0.2593  0.2214
  125OSM    H7G13351   1.019   5.895   7.285  0.2457 -0.8919  0.6426
  125OSM    C8F13352   0.816   5.926   7.372  0.0739  0.6093 -0.5532
  125OSM    H8F13353   0.814   5.816   7.355  0.9521  0.4744  0.1124
  125OSM    H8G13354   0.718   5.970   7.346 -1.5326 -1.6906  1.2607
  125OSM    C9F13355   0.863   5.939   7.513 -0.2264 -0.0540 -0.5906
  125OSM    H9F13356   0.880   6.044   7.543 -0.3753 -0.3709  0.6548
  125OSM   C10F13357   0.900   5.843   7.599  0.2633  0.7961  0.3615
  125OSM   H10F13358   0.927   5.869   7.702  1.4572 -2.3367  0.9555
  125OSM   C11F13359   0.918   5.690   7.589  0.7860  0.1322 -0.5413
  125OSM   H11F13360   0.950   5.666   7.485  0.2241 -0.2586 -0.6289
  125OSM   H11G13361   0.822   5.640   7.614  0.5188  1.6949  1.8385
  125OSM   C12F13362   1.015   5.624   7.694  0.2218 -0.0085  0.1767
  125OSM   H12F13363   1.109   5.682   7.703 -0.6520  1.6256 -0.7167
  125OSM   H12G13364   1.035   5.520   7.661  0.2478  0.0123  0.1258
  125OSM   C13F13365   0.959   5.616   7.832 -0.2812 -0.5044 -0.2425
  125OSM   H13F13366   0.863   5.562   7.827  0.0633 -1.0823 -0.7865
  125OSM   H13G13367   0.942   5.719   7.871  0.0849 -0.4796 -0.1421
  125OSM   C14F13368   1.067   5.561   7.931  0.4134 -0.2775  0.0691
  125OSM   H14F13369   1.161   5.621   7.931  1.0955 -1.3200  0.9447
  125OSM   H14G13370   1.099   5.464   7.889 -1.6941 -1.1413  0.3252
  125OSM   C15F13371   1.004   5.526   8.065  0.0303  1.1923 -0.5129
  125OSM   H15F13372   0.902   5.483   8.057  0.4544 -0.0214  0.2558
  125OSM   H15G13373   1.019   5.615   8.131  2.4592  0.3691  0.1440
  125OSM   C16F13374   1.092   5.422   8.135  0.4271  0.8280  0.0037
  125OSM   H16F13375   1.193   5.469   8.131  0.3326  1.0421  0.1218
  125OSM   H16G13376   1.087   5.326   8.080 -0.6251 -0.8671  2.8463
  125OSM   C17F13377   1.053   5.399   8.282  0.1241 -0.4027 -0.0465
  125OSM   H17F13378   0.946   5.372   8.295  0.2059 -0.3187  0.8634
  125OSM   H17G13379   1.058   5.500   8.329  0.0602  0.0545 -0.9790
  125OSM   C18F13380   1.133   5.303   8.369  0.1112 -0.0219 -0.5513
  125OSM   H18F13381   1.075   5.277   8.461 -1.7209  4.5534 -0.1841
  125OSM   H18G13382   1.226   5.353   8.403 -0.9736  1.0882  0.9352
  125OSM   H18H13383   1.166   5.210   8.317  0.6097  0.1136 -0.4819
  126OSM      N13384   6.112   3.043   6.757  0.1565  0.2009 -0.6209
  126OSM    C1513385   6.069   2.983   6.887 -0.4895  0.1132  0.3919
  126OSM   H15A13386   5.965   3.003   6.910 -0.2070 -0.0950  1.9290
  126OSM   H15B13387   6.128   3.013   6.971 -1.1379  1.4307  0.4036
  126OSM   H15C13388   6.078   2.876   6.880 -2.9566 -0.1371 -0.1271
  126OSM    C1413389   6.259   3.027   6.742 -0.2253 -0.0912  0.0173
  126OSM   H14A13390   6.291   3.039   6.639 -0.1391 -3.4693 -0.4634
  126OSM   H14B13391   6.284   2.922   6.753 -0.9454 -0.1193  1.6251
  126OSM   H14C13392   6.307   3.090   6.815 -0.2180 -0.5445  0.4140
  126OSM    C1313393   6.049   2.965   6.648  0.6562  0.3714 -0.1024
  126OSM   H13A13394   6.088   2.864   6.653 -0.9217 -0.2991 -0.5293
  126OSM   H13B13395   6.061   3.016   6.554 -0.8687  1.0682  0.0569
  126OSM   H13C13396   5.943   2.951   6.667  0.1703 -1.4594 -3.3865
  126OSM    C1213397   6.072   3.187   6.763  0.8979  0.5405  0.4369
  126OSM   H12A13398   6.109   3.235   6.853 -0.2516  0.5764  0.8999
  126OSM   H12B13399   5.968   3.181   6.789  0.3561  1.4467 -1.4092
  126OSM    C1113400   6.094   3.284   6.644  0.6755 -0.3393 -0.8615
  126OSM   H11A13401   6.161   3.227   6.576  1.2482 -0.2867 -0.3560
  126OSM   H11B13402   6.146   3.377   6.677 -0.0196  0.0606 -0.8709
  126OSM      P13403   5.904   3.453   6.591 -0.0878  0.0304 -0.2581
  126OSM    O1313404   6.010   3.547   6.558  0.0591 -0.0766  0.5324
  126OSM    O1413405   5.786   3.451   6.510  0.2574  0.2084 -0.3093
  126OSM    O1113406   5.862   3.460   6.739 -0.2848 -0.0362  0.1569
  126OSM    O1213407   5.971   3.314   6.579 -0.1616  0.1513  0.4773
  126OSM    C1S13408   5.763   3.363   6.781 -0.1945 -0.2573  0.3765
  126OSM    H1S13409   5.797   3.261   6.756  0.8999  0.0252  0.6138
  126OSM    H1T13410   5.665   3.385   6.736 -0.2765 -0.1133  0.6192
  126OSM     NF13411   5.637   3.282   6.968  0.2163  0.0527 -0.0071
  126OSM    HNF13412   5.539   3.299   6.977  0.4183  1.7596 -0.6231
  126OSM    C2S13413   5.730   3.387   6.927 -0.5428  0.1708  0.4254
  126OSM    H2S13414   5.819   3.379   6.993  0.0088  0.1437 -0.3232
  126OSM    C3S13415   5.670   3.532   6.940 -0.1473 -0.0903 -0.2102
  126OSM    H3S13416   5.587   3.543   6.867 -0.7018 -1.0409  0.2625
  126OSM     O313417   5.765   3.635   6.907  0.5223  0.2507 -0.0796
  126OSM    HO313418   5.842   3.582   6.886  1.0207  0.7149  0.5253
  126OSM    C4S13419   5.619   3.565   7.082 -0.1306  0.1892  0.0283
  126OSM    H4S13420   5.511   3.551   7.097  0.2541 -2.6308  0.6291
  126OSM    C5S13421   5.703   3.599   7.186 -0.1863  0.5722  0.3716
  126OSM    H5S13422   5.811   3.600   7.164 -0.0615  0.8052  0.9776
  126OSM    C6S13423   5.660   3.633   7.327  1.1831 -0.0720  0.2059
  126OSM    H6S13424   5.550   3.646   7.331  1.0064 -1.1158 -0.7941
  126OSM    H6T13425   5.691   3.736   7.355 -0.7221  0.7607 -0.6293
  126OSM    C7S13426   5.702   3.536   7.432 -0.7643  0.3366 -0.4618
  126OSM    H7S13427   5.812   3.524   7.443 -1.0635 -2.0062  0.7290
  126OSM    H7T13428   5.652   3.438   7.413 -0.9150  0.2445  0.3494
  126OSM    C8S13429   5.656   3.559   7.582  0.6859 -0.4266  0.4775
  126OSM    H8S13430   5.547   3.577   7.587  0.8794  0.6487  1.2360
  126OSM    H8T13431   5.703   3.656   7.611  2.1480 -0.6058 -1.0804
  126OSM    C9S13432   5.711   3.463   7.681 -0.0174 -0.1963 -0.0948
  126OSM    H9S13433   5.822   3.470   7.684 -0.1101  1.8822 -0.3211
  126OSM    H9T13434   5.670   3.367   7.643 -2.0729  1.0287 -1.1764
  126OSM   C10S13435   5.653   3.480   7.822  0.1175 -0.1286  0.3009
  126OSM   H10S13436   5.545   3.452   7.821 -1.1034  3.5326  3.7970
  126OSM   H10T13437   5.663   3.588   7.844 -0.8637  0.3736 -1.5817
  126OSM   C11S13438   5.719   3.386   7.924 -0.0973 -0.2628 -0.2059
  126OSM   H11S13439   5.830   3.391   7.925 -0.0151 -1.4717 -1.4754
  126OSM   H11T13440   5.690   3.285   7.889 -1.5123 -0.7011  2.0411
  126OSM   C12S13441   5.670   3.422   8.072 -0.6915  0.0299 -0.1740
  126OSM   H12S13442   5.644   3.326   8.121 -2.2820  0.7049  0.3834
  126OSM   H12T13443   5.588   3.494   8.050  0.4325  1.6966  0.8210
  126OSM   C13S13444   5.768   3.502   8.164 -0.1504  0.2891 -0.0196
  126OSM   H13S13445   5.805   3.594   8.113 -1.1097  1.9827  2.1847
  126OSM   H13T13446   5.856   3.439   8.190 -0.3838  0.2843  0.7756
  126OSM   C14S13447   5.700   3.553   8.294  0.0720  0.0217  0.3692
  126OSM   H14S13448   5.631   3.634   8.263 -1.2781 -1.1650  0.1454
  126OSM   H14T13449   5.783   3.600   8.350  1.2502  1.1694 -2.1491
  126OSM   C15S13450   5.613   3.458   8.382  1.0948  0.2756  0.0242
  126OSM   H15S13451   5.532   3.423   8.314 -0.4628  0.8745  1.4705
  126OSM   H15T13452   5.573   3.527   8.460 -2.3663 -0.9841 -0.4648
  126OSM   C16S13453   5.674   3.332   8.459  0.4968 -0.7036  0.1132
  126OSM   H16S13454   5.688   3.363   8.565  1.5496  0.4966 -0.3569
  126OSM   H16T13455   5.773   3.299   8.422 -0.5902 -0.8847 -2.9537
  126OSM   C17S13456   5.580   3.214   8.455 -0.0458  0.5322 -0.1769
  126OSM   H17S13457   5.557   3.183   8.351  0.7717  1.4872 -0.6646
  126OSM   H17T13458   5.488   3.238   8.511  0.0212  1.1277 -0.3168
  126OSM   C18S13459   5.640   3.090   8.526  0.5741 -0.7677 -0.1787
  126OSM   H18S13460   5.718   3.046   8.460  1.8788 -2.7196  2.4799
  126OSM   H18T13461   5.556   3.017   8.528 -0.9845  0.9430 -0.2223
  126OSM   H18U13462   5.664   3.101   8.634 -0.4073 -1.9563  0.1807
  126OSM    C1F13463   5.677   3.153   6.984 -0.0935 -0.2624  0.7915
  126OSM     OF13464   5.794   3.116   6.978 -0.2575 -0.0212  0.2723
  126OSM    C2F13465   5.574   3.045   6.993  0.2770 -0.3982 -0.0070
  126OSM    H2F13466   5.629   2.955   7.029  1.5403  1.0084  1.7832
  126OSM    H2G13467   5.528   3.016   6.896  2.3853  0.2390 -1.2598
  126OSM    C3F13468   5.470   3.060   7.106 -0.7367  0.3023  0.4495
  126OSM    H3F13469   5.425   2.961   7.130  2.3642 -0.9519  1.6541
  126OSM    H3G13470   5.387   3.129   7.080 -1.3084 -0.3796  0.4200
  126OSM    C4F13471   5.533   3.093   7.247 -1.0710  0.0634 -0.0097
  126OSM    H4F13472   5.595   3.183   7.224 -0.4111 -0.3353  0.1804
  126OSM    H4G13473   5.618   3.030   7.281  0.6030  2.0325 -0.3390
  126OSM    C5F13474   5.441   3.122   7.363  0.0302  0.6062 -0.1012
  126OSM    H5F13475   5.395   3.025   7.390 -0.8404  0.4974 -1.8727
  126OSM    H5G13476   5.355   3.184   7.330 -0.9892  0.1097  1.4815
  126OSM    C6F13477   5.496   3.204   7.483 -0.3313 -0.1261 -0.1169
  126OSM    H6F13478   5.497   3.313   7.460  0.1554 -0.4005 -1.4820
  126OSM    H6G13479   5.600   3.179   7.513  0.1508  0.8094 -0.9380
  126OSM    C7F13480   5.407   3.175   7.604  0.5047 -0.1798 -0.2267
  126OSM    H7F13481   5.309   3.171   7.553  1.2142  1.1922 -1.8052
  126OSM    H7G13482   5.423   3.256   7.678 -0.6216  1.1661 -1.4214
  126OSM    C8F13483   5.441   3.042   7.672 -0.6720  0.2237  0.2104
  126OSM    H8F13484   5.476   2.966   7.599  2.7330  0.3920  1.4959
  126OSM    H8G13485   5.352   3.006   7.729 -0.1829  0.8372  1.3969
  126OSM    C9F13486   5.554   3.049   7.769  0.4286 -0.3455 -0.4114
  126OSM    H9F13487   5.647   3.096   7.734 -0.0475  0.6820 -0.3301
  126OSM   C10F13488   5.553   3.006   7.898 -0.0011 -0.1369  0.5412
  126OSM   H10F13489   5.642   3.037   7.956 -1.7350  2.1948  2.1294
  126OSM   C11F13490   5.440   2.944   7.979  0.3124  0.2163 -0.1624
  126OSM   H11F13491   5.475   2.860   8.043  2.0909  0.3099 -0.9450
  126OSM   H11G13492   5.363   2.903   7.911  0.4517 -0.4601  0.0806
  126OSM   C12F13493   5.355   3.041   8.074 -0.3639  0.4083  0.3829
  126OSM   H12F13494   5.294   3.105   8.007 -1.9699 -1.7572 -0.3394
  126OSM   H12G13495   5.435   3.101   8.122  0.5636 -1.8424  1.8414
  126OSM   C13F13496   5.267   2.963   8.182  0.0915 -0.3170  0.1894
  126OSM   H13F13497   5.328   2.901   8.250 -1.0108  1.7868  3.3403
  126OSM   H13G13498   5.194   2.902   8.125  0.2688 -0.5004  0.1602
  126OSM   C14F13499   5.195   3.064   8.268 -0.1756 -0.4001  0.3869
  126OSM   H14F13500   5.141   3.134   8.200  1.3633  0.0410 -0.4325
  126OSM   H14G13501   5.265   3.128   8.326  0.4606 -0.0092 -0.7827
  126OSM   C15F13502   5.091   3.006   8.362  0.6067  0.6755 -0.0443
  126OSM   H15F13503   5.134   2.942   8.442  1.3427 -0.4217 -1.2854
  126OSM   H15G13504   5.026   2.940   8.301 -1.0355  0.7261  1.5735
  126OSM   C16F13505   5.013   3.112   8.439  0.2298  0.9442  1.4424
  126OSM   H16F13506   5.066   3.210   8.442 -0.5260  1.5502 -1.4519
  126OSM   H16G13507   4.983   3.071   8.537  0.1059 -0.7563  0.7339
  126OSM   C17F13508   4.877   3.139   8.375 -0.3832  0.0427 -0.3053
  126OSM   H17F13509   4.815   3.047   8.378 -0.3635  0.0365 -0.0431
  126OSM   H17G13510   4.897   3.155   8.267 -0.2606  0.5981 -0.2056
  126OSM   C18F13511   4.804   3.251   8.450  0.2400  0.7110  0.4083
  126OSM   H18F13512   4.707   3.271   8.401 -0.8278 -1.1780  1.5941
  126OSM   H18G13513   4.866   3.342   8.459  2.0752 -0.6376  2.7341
  126OSM   H18H13514   4.772   3.223   8.553 -0.5360 -0.3308 -0.1042
  127OSM      N13515   4.784   4.130   6.409  0.3685 -0.3108 -0.1293
  127OSM    C1513516   4.884   4.228   6.451  0.1544 -0.1344 -0.1133
  127OSM   H15A13517   4.865   4.281   6.543 -0.2649 -1.7180  0.7527
  127OSM   H15B13518   4.903   4.304   6.376  2.0788 -2.2955 -1.9917
  127OSM   H15C13519   4.978   4.177   6.465  1.3098  1.9417  0.2351
  127OSM    C1413520   4.673   4.195   6.340 -0.5142  0.6916  0.5856
  127OSM   H14A13521   4.642   4.275   6.406  1.0262  2.0367 -0.2444
  127OSM   H14B13522   4.586   4.133   6.320  0.1691  0.0225 -0.4260
  127OSM   H14C13523   4.697   4.243   6.246  1.3988 -1.5084 -0.1376
  127OSM    C1313524   4.838   4.021   6.326 -0.3000  0.8532 -0.5123
  127OSM   H13A13525   4.765   3.949   6.293 -0.8450  1.2690 -0.2319
  127OSM   H13B13526   4.913   3.971   6.385  0.9026  2.1282 -0.8817
  127OSM   H13C13527   4.882   4.065   6.237 -1.1903  2.5293 -0.1818
  127OSM    C1213528   4.721   4.068   6.539 -0.5427  0.3107  0.1942
  127OSM   H12A13529   4.663   4.141   6.592 -1.4304 -0.5650  0.4621
  127OSM   H12B13530   4.803   4.040   6.603  0.2670  1.1646 -0.4419
  127OSM    C1113531   4.635   3.940   6.531  0.7494  0.6854  0.3138
  127OSM   H11A13532   4.620   3.906   6.635  1.9746 -2.2427 -0.3427
  127OSM   H11B13533   4.691   3.858   6.481 -0.0690 -0.5444  1.3636
  127OSM      P13534   4.458   3.893   6.342 -0.2909  0.2721 -0.2734
  127OSM    O1313535   4.418   3.992   6.242 -0.3703  0.2652  0.0109
  127OSM    O1413536   4.556   3.795   6.290  0.0438 -0.1661 -0.6832
  127OSM    O1113537   4.327   3.815   6.388  0.1533 -0.2451  0.0385
  127OSM    O1213538   4.505   3.961   6.476 -0.4212 -0.0209  0.7090
  127OSM    C1S13539   4.321   3.725   6.498  0.2960  0.1209 -0.1014
  127OSM    H1S13540   4.421   3.720   6.547  0.9873  1.2161 -1.3481
  127OSM    H1T13541   4.310   3.621   6.462 -0.1380 -0.5638  1.8983
  127OSM     NF13542   4.218   3.663   6.722 -0.2386  0.1523  0.5792
  127OSM    HNF13543   4.167   3.577   6.731 -0.5747  0.1258 -1.2911
  127OSM    C2S13544   4.206   3.749   6.607 -0.2655  0.3439  0.4158
  127OSM    H2S13545   4.220   3.853   6.644 -0.0587  1.1713 -1.8511
  127OSM    C3S13546   4.072   3.738   6.535 -0.2095 -0.9879  0.1945
  127OSM    H3S13547   4.062   3.636   6.494  1.6730 -1.7394  1.4957
  127OSM     O313548   4.049   3.829   6.426  0.2909  0.0206 -0.0724
  127OSM    HO313549   4.131   3.876   6.407  1.4483 -1.7194  0.3939
  127OSM    C4S13550   3.959   3.750   6.629  0.7270  0.7948 -0.6029
  127OSM    H4S13551   3.908   3.653   6.643  2.9129 -0.4040 -0.4226
  127OSM    C5S13552   3.910   3.863   6.685  0.0359  0.5655 -0.0957
  127OSM    H5S13553   3.949   3.960   6.651  0.1985 -0.0993 -1.9384
  127OSM    C6S13554   3.794   3.859   6.776  0.4212  0.3726  0.6897
  127OSM    H6S13555   3.723   3.780   6.742  1.6922 -0.2707 -0.5994
  127OSM    H6T13556   3.737   3.954   6.773 -1.5287 -0.6995  1.7820
  127OSM    C7S13557   3.842   3.830   6.915  0.6321  0.5085 -0.0935
  127OSM    H7S13558   3.914   3.905   6.955 -0.0825  1.7320 -1.0486
  127OSM    H7T13559   3.895   3.734   6.896 -1.2319 -0.8305  1.0860
  127OSM    C8S13560   3.734   3.790   7.014  0.5250 -0.7789 -0.3720
  127OSM    H8S13561   3.685   3.703   6.966  1.8339  0.1145 -3.6401
  127OSM    H8T13562   3.662   3.875   7.010 -0.8760 -1.9422 -0.6564
  127OSM    C9S13563   3.786   3.769   7.157 -0.5405  0.0803  0.5240
  127OSM    H9S13564   3.854   3.852   7.183  0.1242 -0.0828 -0.6100
  127OSM    H9T13565   3.842   3.673   7.155  0.5545  0.7033 -0.9119
  127OSM   C10S13566   3.670   3.768   7.257 -0.2709  1.1100  0.0703
  127OSM   H10S13567   3.605   3.681   7.232  0.2946  0.9823 -1.0002
  127OSM   H10T13568   3.622   3.867   7.243 -0.2525  0.9578 -1.1249
  127OSM   C11S13569   3.729   3.744   7.396  0.4291 -0.1712 -0.2780
  127OSM   H11S13570   3.722   3.838   7.456 -0.2958 -0.6741  0.4546
  127OSM   H11T13571   3.836   3.722   7.376  0.5926  1.0739 -0.9122
  127OSM   C12S13572   3.670   3.631   7.480 -0.4592  0.4026  0.2684
  127OSM   H12S13573   3.688   3.534   7.429  1.3727 -0.0797  1.7062
  127OSM   H12T13574   3.562   3.645   7.502 -0.4397 -0.6405  1.1056
  127OSM   C13S13575   3.748   3.621   7.611  0.3658  0.0136 -0.8966
  127OSM   H13S13576   3.771   3.720   7.656  1.1320 -0.1153 -0.9956
  127OSM   H13T13577   3.849   3.579   7.593  0.7145  0.5017 -0.1172
  127OSM   C14S13578   3.674   3.540   7.713  0.4649  0.8046 -0.8485
  127OSM   H14S13579   3.748   3.485   7.776 -0.3263  1.2630  0.5277
  127OSM   H14T13580   3.619   3.455   7.666  0.3361  0.0843  0.5397
  127OSM   C15S13581   3.593   3.630   7.795 -0.0559  0.2354 -0.1550
  127OSM   H15S13582   3.496   3.576   7.807 -0.4076  0.6040 -1.2338
  127OSM   H15T13583   3.545   3.710   7.735  1.7197  0.1157 -1.7999
  127OSM   C16S13584   3.628   3.671   7.934  0.3124 -0.8079  0.6416
  127OSM   H16S13585   3.641   3.572   7.983 -0.6902 -0.9908  0.5701
  127OSM   H16T13586   3.550   3.720   7.996  0.5313  2.4085 -1.3761
  127OSM   C17S13587   3.750   3.755   7.950 -0.1966 -0.7398  0.0138
  127OSM   H17S13588   3.719   3.847   7.894  1.1147  0.0610  0.5615
  127OSM   H17T13589   3.842   3.710   7.907  0.8231  0.9936  0.2546
  127OSM   C18S13590   3.774   3.805   8.095  0.4554 -0.4777  0.0823
  127OSM   H18S13591   3.800   3.712   8.148 -1.0261 -1.0797 -0.1951
  127OSM   H18T13592   3.675   3.843   8.128  0.7498  0.3171  0.0729
  127OSM   H18U13593   3.851   3.885   8.104 -1.1666  1.2011 -0.2749
  127OSM    C1F13594   4.312   3.683   6.816  0.2430  0.7694  1.2937
  127OSM     OF13595   4.398   3.771   6.802  0.2354  1.0971 -0.2110
  127OSM    C2F13596   4.305   3.599   6.936  0.5924 -0.1418  0.4856
  127OSM    H2F13597   4.383   3.636   7.006  0.0878  1.2885  0.3285
  127OSM    H2G13598   4.323   3.493   6.907 -0.8960 -0.2487 -0.1230
  127OSM    C3F13599   4.167   3.607   7.006 -0.5121  0.1651 -0.0605
  127OSM    H3F13600   4.164   3.535   7.091  0.9277 -0.9676 -0.9209
  127OSM    H3G13601   4.079   3.579   6.945 -0.1295 -1.4153  0.0653
  127OSM    C4F13602   4.136   3.745   7.062  0.0135 -0.5513  0.0787
  127OSM    H4F13603   4.036   3.734   7.108  0.5480 -1.4786  1.0807
  127OSM    H4G13604   4.118   3.820   6.982  0.0633 -0.2238  0.3749
  127OSM    C5F13605   4.230   3.807   7.170  0.5969 -0.3560  0.4214
  127OSM    H5F13606   4.178   3.899   7.203 -1.0194 -0.1796 -2.3384
  127OSM    H5G13607   4.330   3.838   7.132  0.2328  0.1243 -0.1575
  127OSM    C6F13608   4.264   3.713   7.285 -0.1070 -0.4345 -0.1398
  127OSM    H6F13609   4.353   3.744   7.343 -0.5401  0.8766 -0.1390
  127OSM    H6G13610   4.285   3.608   7.256  0.5853  0.0416 -1.4743
  127OSM    C7F13611   4.143   3.713   7.389  0.3118  0.1240  0.1053
  127OSM    H7F13612   4.048   3.696   7.334 -0.6049 -0.9695  1.9267
  127OSM    H7G13613   4.120   3.805   7.446 -4.6848 -0.4496 -0.5975
  127OSM    C8F13614   4.158   3.596   7.488 -0.2773 -0.3731  0.1107
  127OSM    H8F13615   4.190   3.500   7.441 -0.4764 -1.1209  1.4576
  127OSM    H8G13616   4.066   3.581   7.548 -0.6527  1.0828 -0.0601
  127OSM    C9F13617   4.268   3.629   7.587  1.2040  1.1008 -0.0581
  127OSM    H9F13618   4.369   3.592   7.561  1.2721  0.3345  1.2263
  127OSM   C10F13619   4.254   3.700   7.702 -0.7054  0.0811  0.5355
  127OSM   H10F13620   4.346   3.730   7.753 -0.3131  0.3833 -0.3387
  127OSM   C11F13621   4.130   3.755   7.754 -0.1655 -0.3713  0.1384
  127OSM   H11F13622   4.067   3.666   7.778  0.4383 -1.4546 -1.9440
  127OSM   H11G13623   4.094   3.821   7.673 -0.0370  0.8692  1.0737
  127OSM   C12F13624   4.151   3.846   7.882  0.0049  0.6778  0.2153
  127OSM   H12F13625   4.058   3.895   7.918 -0.3488  0.2402 -0.0873
  127OSM   H12G13626   4.221   3.929   7.859  3.7653 -1.2025  3.7323
  127OSM   C13F13627   4.222   3.785   8.008  0.0892 -0.9234  0.3151
  127OSM   H13F13628   4.286   3.861   8.058  0.5540 -1.5422  0.6597
  127OSM   H13G13629   4.298   3.716   7.965  2.5466  1.2408  0.9110
  127OSM   C14F13630   4.128   3.701   8.096 -0.3936 -0.9303  0.3306
  127OSM   H14F13631   4.094   3.617   8.031 -1.1123  1.4626 -2.6856
  127OSM   H14G13632   4.033   3.752   8.124 -0.1938 -0.1558 -0.3463
  127OSM   C15F13633   4.187   3.664   8.234  0.5590 -0.3746 -0.0108
  127OSM   H15F13634   4.292   3.630   8.222  0.8282 -0.1031  1.3083
  127OSM   H15G13635   4.126   3.584   8.281 -1.8547  0.8450 -0.9095
  127OSM   C16F13636   4.187   3.783   8.333 -0.3575 -0.5239  0.2172
  127OSM   H16F13637   4.090   3.838   8.334 -0.8404 -1.3064 -1.1197
  127OSM   H16G13638   4.262   3.855   8.295 -0.5401 -0.2980  0.2784
  127OSM   C17F13639   4.228   3.752   8.471 -0.2201 -0.2778 -0.5125
  127OSM   H17F13640   4.331   3.717   8.487 -0.2065 -0.7839 -1.6381
  127OSM   H17G13641   4.150   3.680   8.506  0.8821 -0.5642  1.5354
  127OSM   C18F13642   4.220   3.886   8.555 -0.0985 -0.5772 -0.0678
  127OSM   H18F13643   4.279   3.966   8.506 -0.2725 -0.3871  0.0298
  127OSM   H18G13644   4.260   3.882   8.658  3.3826  0.0304 -1.2587
  127OSM   H18H13645   4.115   3.923   8.565 -0.3855 -1.6126  0.9921
  128OSM      N13646   4.047   6.481   6.154  0.4073 -0.2697 -0.6219
  128OSM    C1513647   4.101   6.536   6.021 -0.5795  0.6882  0.2273
  128OSM   H15A13648   4.024   6.561   5.950 -0.3275 -1.7525 -1.0056
  128OSM   H15B13649   4.172   6.467   5.977  0.7794  2.2146 -0.0517
  128OSM   H15C13650   4.154   6.629   6.035 -0.0355  0.4106  0.0388
  128OSM    C1413651   3.936   6.567   6.206  0.0630  0.3083  0.2773
  128OSM   H14A13652   3.884   6.521   6.289  0.9645  1.1426  1.3561
  128OSM   H14B13653   3.866   6.594   6.128 -0.3786 -1.8036 -0.1057
  128OSM   H14C13654   3.971   6.661   6.247  0.8251  0.5179 -0.8395
  128OSM    C1313655   3.989   6.350   6.135  0.0707 -0.0261 -0.2093
  128OSM   H13A13656   4.066   6.281   6.106  1.4564  0.8792  1.1777
  128OSM   H13B13657   3.939   6.344   6.040  0.2319  0.0243 -0.2973
  128OSM   H13C13658   3.929   6.311   6.216 -1.4106  0.2961 -1.1072
  128OSM    C1213659   4.159   6.473   6.258 -0.5772 -0.2268 -0.2945
  128OSM   H12A13660   4.243   6.426   6.210  1.4086  0.8585  1.9169
  128OSM   H12B13661   4.125   6.418   6.345 -1.1957  2.4687  1.3025
  128OSM    C1113662   4.224   6.604   6.316  0.0992 -0.1168 -0.1934
  128OSM   H11A13663   4.289   6.575   6.400  0.5782 -1.8996 -1.1294
  128OSM   H11B13664   4.140   6.651   6.372 -0.3240  2.0477 -2.4612
  128OSM      P13665   4.430   6.701   6.179 -0.2820 -0.2977 -0.1125
  128OSM    O1313666   4.478   6.579   6.114 -0.7363  0.2556 -0.0625
  128OSM    O1413667   4.462   6.821   6.095 -0.0169  0.1610 -0.1137
  128OSM    O1113668   4.494   6.713   6.324 -0.5341 -0.0404 -0.5131
  128OSM    O1213669   4.272   6.690   6.210 -1.0250  0.5536  0.2182
  128OSM    C1S13670   4.473   6.836   6.401 -0.2346 -0.3582 -0.2606
  128OSM    H1S13671   4.393   6.894   6.350 -0.0615  0.2364  0.1317
  128OSM    H1T13672   4.566   6.895   6.392  1.0527 -2.2047  0.1860
  128OSM     NF13673   4.397   6.935   6.607 -0.5827 -0.1710  0.6207
  128OSM    HNF13674   4.463   6.987   6.660 -0.6427  1.0583 -0.4613
  128OSM    C2S13675   4.445   6.816   6.549 -0.6246  0.0984 -0.9950
  128OSM    H2S13676   4.366   6.739   6.564  1.3816 -1.8279  0.3176
  128OSM    C3S13677   4.579   6.770   6.620 -0.3514 -0.1815 -0.6236
  128OSM    H3S13678   4.654   6.847   6.592 -0.5396 -0.5505 -2.2064
  128OSM     O313679   4.632   6.652   6.574 -0.2180 -0.4324 -0.2081
  128OSM    HO313680   4.580   6.627   6.497  0.7934  0.7854 -1.3463
  128OSM    C4S13681   4.567   6.751   6.770  0.0923  0.3079 -0.1082
  128OSM    H4S13682   4.481   6.689   6.799  0.5794 -0.8530 -1.0548
  128OSM    C5S13683   4.660   6.795   6.862  0.1329 -0.2191 -0.3315
  128OSM    H5S13684   4.743   6.861   6.833  0.2827  0.4722  1.5749
  128OSM    C6S13685   4.652   6.783   7.018  0.1795  0.1283 -0.0654
  128OSM    H6S13686   4.677   6.876   7.073  0.6625 -0.0302 -0.0107
  128OSM    H6T13687   4.727   6.709   7.054  1.0245  0.7981 -0.4169
  128OSM    C7S13688   4.521   6.712   7.073 -0.0516 -0.1783 -0.3019
  128OSM    H7S13689   4.516   6.603   7.054 -0.4234 -0.1869 -0.1733
  128OSM    H7T13690   4.430   6.762   7.032 -1.5143 -0.5029  2.3208
  128OSM    C8S13691   4.507   6.749   7.223 -0.7999  0.2024 -0.1688
  128OSM    H8S13692   4.404   6.728   7.260  0.9914 -4.0783  3.3937
  128OSM    H8T13693   4.531   6.857   7.231  0.3935 -0.0683  0.0193
  128OSM    C9S13694   4.604   6.670   7.322 -0.1639  0.2866  0.0449
  128OSM    H9S13695   4.706   6.696   7.285 -1.9415  3.5538 -3.2702
  128OSM    H9T13696   4.584   6.562   7.305  0.7418  0.2742 -1.0838
  128OSM   C10S13697   4.578   6.693   7.472 -0.5452  0.4857  0.6546
  128OSM   H10S13698   4.472   6.680   7.503  0.6802 -2.2163  4.4024
  128OSM   H10T13699   4.606   6.798   7.496  0.9117  0.8178 -2.0159
  128OSM   C11S13700   4.662   6.610   7.569 -0.0547 -0.1900  0.4553
  128OSM   H11S13701   4.768   6.624   7.536 -0.0132  0.3933  0.8162
  128OSM   H11T13702   4.622   6.508   7.552 -0.3017  0.0630 -0.5713
  128OSM   C12S13703   4.654   6.668   7.710 -0.2356  0.7428 -1.3399
  128OSM   H12S13704   4.550   6.648   7.743  0.9484 -1.0951  1.6992
  128OSM   H12T13705   4.677   6.775   7.726  0.6356  0.3893 -0.0920
  128OSM   C13S13706   4.744   6.584   7.804  0.0635  0.3183  0.6832
  128OSM   H13S13707   4.852   6.593   7.781 -0.1799  0.5389 -0.4089
  128OSM   H13T13708   4.715   6.480   7.778 -3.1134  1.9160 -3.0166
  128OSM   C14S13709   4.734   6.593   7.965  0.5676 -0.2546  0.3990
  128OSM   H14S13710   4.781   6.692   7.984 -0.8820  0.5773 -0.1771
  128OSM   H14T13711   4.791   6.506   8.002  2.5274  1.0725  0.6383
  128OSM   C15S13712   4.589   6.579   8.015  0.3377 -0.7684 -0.3506
  128OSM   H15S13713   4.545   6.488   7.968 -0.6225  0.0795 -1.1304
  128OSM   H15T13714   4.547   6.669   7.965  3.6364  1.3153  0.3399
  128OSM   C16S13715   4.564   6.605   8.163  0.1468  0.6551 -0.1586
  128OSM   H16S13716   4.603   6.706   8.189 -2.9634  1.7235  0.9000
  128OSM   H16T13717   4.627   6.532   8.218 -0.3881 -1.5387 -2.3110
  128OSM   C17S13718   4.412   6.589   8.195  0.1210  0.1285  0.2055
  128OSM   H17S13719   4.375   6.490   8.161 -1.1619  1.1593 -1.5940
  128OSM   H17T13720   4.357   6.664   8.134  0.0490 -0.7525 -0.8434
  128OSM   C18S13721   4.401   6.625   8.344 -0.1211 -0.5660 -0.6532
  128OSM   H18S13722   4.390   6.733   8.369  0.0064 -0.9266  1.0282
  128OSM   H18T13723   4.495   6.596   8.395  2.5260  2.9040 -2.9947
  128OSM   H18U13724   4.317   6.570   8.391  1.0557 -0.8578  1.2153
  128OSM    C1F13725   4.272   6.979   6.591  0.4904 -0.0674 -0.7463
  128OSM     OF13726   4.189   6.908   6.539 -0.8358  0.0788  0.7107
  128OSM    C2F13727   4.235   7.102   6.662  0.1080 -0.9133 -0.8531
  128OSM    H2F13728   4.273   7.184   6.598  2.4790 -1.2905 -0.0026
  128OSM    H2G13729   4.281   7.097   6.763  0.1669  0.6561 -0.7770
  128OSM    C3F13730   4.085   7.099   6.685  0.6151  0.3112  0.3316
  128OSM    H3F13731   4.054   7.010   6.744  2.4472 -0.2227  0.5418
  128OSM    H3G13732   4.034   7.095   6.587  1.2429  1.0903 -0.0375
  128OSM    C4F13733   4.030   7.217   6.757 -0.0025 -0.2750  1.1139
  128OSM    H4F13734   3.924   7.190   6.775 -0.3848  0.1723 -0.3310
  128OSM    H4G13735   4.021   7.304   6.689 -1.1122  0.2097  1.8666
  128OSM    C5F13736   4.099   7.265   6.884 -0.6607 -0.4384  0.3765
  128OSM    H5F13737   4.061   7.365   6.916  2.1358  1.7241 -2.4816
  128OSM    H5G13738   4.209   7.273   6.878 -0.7062  0.9858  0.8933
  128OSM    C6F13739   4.086   7.170   7.002  0.2306  0.2898  0.5527
  128OSM    H6F13740   4.129   7.073   6.968 -3.3287 -1.3180  0.1634
  128OSM    H6G13741   3.977   7.150   7.014 -0.0689  1.5291  0.0981
  128OSM    C7F13742   4.144   7.235   7.125  0.3219  0.0983  0.1480
  128OSM    H7F13743   4.070   7.213   7.204 -0.7463 -1.5861 -1.2598
  128OSM    H7G13744   4.158   7.344   7.107  0.8208 -0.0353 -0.3088
  128OSM    C8F13745   4.280   7.164   7.148 -0.0403 -0.1717 -0.7169
  128OSM    H8F13746   4.328   7.151   7.048 -0.6554 -0.3625 -0.9974
  128OSM    H8G13747   4.256   7.060   7.181  1.3737 -0.0347  0.8402
  128OSM    C9F13748   4.375   7.241   7.239  0.7124  0.0229  0.6036
  128OSM    H9F13749   4.390   7.347   7.215  1.9224  0.3541  2.5515
  128OSM   C10F13750   4.446   7.203   7.344 -0.1998 -0.2817 -0.5531
  128OSM   H10F13751   4.505   7.276   7.402 -1.0074  1.2177 -1.5396
  128OSM   C11F13752   4.439   7.063   7.410 -0.3382 -0.0109 -0.1374
  128OSM   H11F13753   4.539   7.021   7.433  0.3589  0.6999 -1.6956
  128OSM   H11G13754   4.375   6.992   7.354 -0.7707  1.4512 -1.6010
  128OSM   C12F13755   4.378   7.071   7.555  0.8223 -0.1814  0.7181
  128OSM   H12F13756   4.394   6.971   7.601 -0.4222 -1.2264 -1.0001
  128OSM   H12G13757   4.268   7.065   7.540  1.1303 -2.0912 -1.5987
  128OSM   C13F13758   4.404   7.184   7.652 -0.2038  0.4452 -0.2530
  128OSM   H13F13759   4.337   7.270   7.627 -0.4246  0.1130 -0.8211
  128OSM   H13G13760   4.509   7.215   7.638 -0.2959  0.0075 -2.1721
  128OSM   C14F13761   4.380   7.141   7.798 -0.2453  1.1650  0.3981
  128OSM   H14F13762   4.445   7.052   7.804 -0.2851  0.9005 -2.1535
  128OSM   H14G13763   4.272   7.115   7.803  0.3558 -1.7025  0.0759
  128OSM   C15F13764   4.417   7.248   7.903 -0.7811  0.2591 -0.0279
  128OSM   H15F13765   4.514   7.295   7.875  1.3143 -2.1640  2.5184
  128OSM   H15G13766   4.437   7.191   7.996 -1.3624  1.0261  0.5801
  128OSM   C16F13767   4.298   7.340   7.919 -0.1889  0.5371 -0.1922
  128OSM   H16F13768   4.251   7.348   7.819 -1.8620 -2.3101  0.2309
  128OSM   H16G13769   4.340   7.437   7.952  2.6258 -0.1697 -1.3451
  128OSM   C17F13770   4.203   7.280   8.031 -0.8870 -0.6554 -0.4976
  128OSM   H17F13771   4.203   7.170   8.016 -1.5687 -1.0544  2.0549
  128OSM   H17G13772   4.100   7.323   8.025 -0.3525  0.5125 -2.5311
  128OSM   C18F13773   4.269   7.313   8.165 -0.3046 -0.3995  0.1407
  128OSM   H18F13774   4.273   7.422   8.182 -0.2955 -0.3810  0.0252
  128OSM   H18G13775   4.374   7.278   8.176 -0.5588 -0.5240  2.7731
  128OSM   H18H13776   4.212   7.263   8.246 -0.5464  3.0178  2.2213
  129OSM      N13777   3.125   2.718   6.028  0.0989 -0.2278  0.7542
  129OSM    C1513778   2.978   2.731   6.083 -0.9506  0.2638 -0.2761
  129OSM   H15A13779   2.977   2.668   6.171  0.7448 -0.1160 -0.4938
  129OSM   H15B13780   2.906   2.690   6.014 -0.8643  0.2768 -0.3746
  129OSM   H15C13781   2.956   2.835   6.097  2.1213  0.9735  0.1111
  129OSM    C1413782   3.166   2.576   6.015  0.0622 -0.3420  0.2216
  129OSM   H14A13783   3.160   2.529   6.112 -2.8174  0.4906  0.5391
  129OSM   H14B13784   3.271   2.567   5.989 -0.3294 -0.6771 -1.3547
  129OSM   H14C13785   3.115   2.521   5.938  2.8838 -2.9063 -0.0095
  129OSM    C1313786   3.117   2.789   5.896  0.3450  0.4411  0.4555
  129OSM   H13A13787   3.109   2.897   5.894  2.3136  0.6828 -3.1991
  129OSM   H13B13788   3.030   2.756   5.841  0.8634 -0.4447  0.1449
  129OSM   H13C13789   3.195   2.760   5.827 -1.7585 -2.9060 -0.7652
  129OSM    C1213790   3.220   2.788   6.124 -0.2019 -0.0779  0.1974
  129OSM   H12A13791   3.217   2.739   6.220  0.5549  0.9053  0.7423
  129OSM   H12B13792   3.183   2.889   6.136  1.4704  0.4872  0.8731
  129OSM    C1113793   3.366   2.800   6.085 -0.2980 -0.4342  0.3170
  129OSM   H11A13794   3.421   2.859   6.162  0.3879 -2.2004  1.2453
  129OSM   H11B13795   3.370   2.860   5.992  1.3332 -0.4522  0.3484
  129OSM      P13796   3.531   2.612   6.169 -0.2939 -0.0128 -0.5609
  129OSM    O1313797   3.607   2.505   6.094 -0.2186  0.0383  0.0989
  129OSM    O1413798   3.605   2.725   6.238  0.4305 -0.2074  0.1410
  129OSM    O1113799   3.435   2.542   6.268  0.1066  0.2681  0.3913
  129OSM    O1213800   3.433   2.682   6.071 -0.1836 -0.3094 -0.0394
  129OSM    C1S13801   3.465   2.435   6.353  0.2694 -0.2321 -0.1987
  129OSM    H1S13802   3.571   2.445   6.385  0.5146 -1.2854 -0.6474
  129OSM    H1T13803   3.459   2.344   6.290  2.6129 -0.3325 -0.3826
  129OSM     NF13804   3.395   2.359   6.591  0.7421 -0.8760  0.5952
  129OSM    HNF13805   3.331   2.284   6.605 -1.2961  0.5282 -0.5254
  129OSM    C2S13806   3.371   2.441   6.474 -1.0332  0.5504  0.1087
  129OSM    H2S13807   3.388   2.539   6.522  1.6949 -0.2505  0.9447
  129OSM    C3S13808   3.222   2.425   6.433 -0.1678 -0.2150  0.0416
  129OSM    H3S13809   3.218   2.319   6.402 -0.0053 -0.4014  0.6393
  129OSM     O313810   3.182   2.487   6.307 -0.6249 -0.4810 -0.2405
  129OSM    HO313811   3.262   2.531   6.278 -0.2098 -1.2226 -0.2632
  129OSM    C4S13812   3.125   2.473   6.532 -0.7833 -0.0460  0.1953
  129OSM    H4S13813   3.118   2.582   6.523 -1.3006 -0.0971 -0.0729
  129OSM    C5S13814   3.062   2.396   6.625  0.2935 -0.7467  0.1153
  129OSM    H5S13815   3.094   2.293   6.644  0.6158 -0.4133  1.4196
  129OSM    C6S13816   2.972   2.471   6.728 -0.7812  0.4943 -0.0899
  129OSM    H6S13817   2.984   2.412   6.821  1.5903  0.9123 -0.0645
  129OSM    H6T13818   2.867   2.481   6.692 -0.7028  1.5851 -0.0405
  129OSM    C7S13819   3.015   2.616   6.771  0.0492  0.2735  0.0286
  129OSM    H7S13820   3.019   2.688   6.686  2.4574  1.0124  0.6848
  129OSM    H7T13821   3.118   2.604   6.811 -1.4478 -3.0633  3.3849
  129OSM    C8S13822   2.922   2.682   6.875 -0.0225  0.1323  0.4403
  129OSM    H8S13823   2.968   2.776   6.911  2.4143 -0.2274 -1.4500
  129OSM    H8T13824   2.908   2.614   6.962  0.4171  0.8267  1.0627
  129OSM    C9S13825   2.786   2.723   6.822 -0.5754  0.0302 -0.4841
  129OSM    H9S13826   2.733   2.626   6.812  0.6671 -0.8447  0.9854
  129OSM    H9T13827   2.798   2.764   6.720  1.3212  2.0605  0.4646
  129OSM   C10S13828   2.703   2.826   6.898 -0.1701 -0.0812 -0.5204
  129OSM   H10S13829   2.616   2.844   6.830  0.8619 -0.5096 -2.0217
  129OSM   H10T13830   2.769   2.913   6.917  0.5378 -0.6914 -0.1594
  129OSM   C11S13831   2.659   2.779   7.036 -0.5344  0.0292  0.0705
  129OSM   H11S13832   2.754   2.776   7.093  0.4032  3.0918 -1.1071
  129OSM   H11T13833   2.613   2.678   7.044 -0.0230 -0.5979 -3.4288
  129OSM   C12S13834   2.564   2.883   7.101  0.2138 -0.2224  0.7744
  129OSM   H12S13835   2.468   2.867   7.048  1.7936 -0.5575 -2.2172
  129OSM   H12T13836   2.589   2.990   7.087  2.0760 -0.8960 -1.8127
  129OSM   C13S13837   2.540   2.854   7.249  0.3849 -0.4442  0.3848
  129OSM   H13S13838   2.634   2.852   7.309 -0.6451 -1.4776  2.0718
  129OSM   H13T13839   2.490   2.755   7.261  1.6626 -0.9647  1.8082
  129OSM   C14S13840   2.456   2.964   7.319 -0.4411 -0.1961  0.1116
  129OSM   H14S13841   2.369   2.970   7.251  0.6656  2.5215 -1.2273
  129OSM   H14T13842   2.496   3.066   7.302 -0.8770  0.2179  1.4370
  129OSM   C15S13843   2.428   2.945   7.473 -0.6317  0.3845 -0.0144
  129OSM   H15S13844   2.380   2.845   7.477  1.6625 -0.7629  3.1020
  129OSM   H15T13845   2.354   3.016   7.514 -0.2940  0.8715 -0.2373
  129OSM   C16S13846   2.558   2.956   7.551 -0.5481  0.1171  0.5686
  129OSM   H16S13847   2.626   2.880   7.506  0.1117  1.5258 -0.9106
  129OSM   H16T13848   2.532   2.933   7.656  1.1693  2.5553  1.6044
  129OSM   C17S13849   2.617   3.099   7.558  0.2563 -0.1620  0.6480
  129OSM   H17S13850   2.534   3.159   7.600 -0.9075 -1.7731  0.7094
  129OSM   H17T13851   2.627   3.139   7.455 -3.8267 -0.6049 -0.0638
  129OSM   C18S13852   2.739   3.114   7.641 -0.4881 -0.0957 -0.2998
  129OSM   H18S13853   2.770   3.219   7.654 -1.2313 -0.0135  1.0029
  129OSM   H18T13854   2.826   3.060   7.597 -1.0487  0.3813 -2.0801
  129OSM   H18U13855   2.713   3.082   7.745  0.2351 -0.9413 -0.3666
  129OSM    C1F13856   3.507   2.362   6.657  0.2997 -0.2465  0.6522
  129OSM     OF13857   3.588   2.455   6.644  0.2051 -0.0838 -0.1111
  129OSM    C2F13858   3.537   2.242   6.746  0.5962 -0.2816 -0.0672
  129OSM    H2F13859   3.530   2.152   6.680  0.1943 -0.0628 -0.3313
  129OSM    H2G13860   3.450   2.243   6.815 -0.1374 -0.3838 -0.9754
  129OSM    C3F13861   3.664   2.259   6.838 -0.6698  0.3485 -0.0074
  129OSM    H3F13862   3.651   2.348   6.903  1.0240  1.4394 -1.0846
  129OSM    H3G13863   3.737   2.297   6.764 -2.0574  1.7890 -0.6999
  129OSM    C4F13864   3.715   2.135   6.918  0.0464 -0.9310 -0.1338
  129OSM    H4F13865   3.818   2.160   6.951 -0.7449  0.7339  1.2606
  129OSM    H4G13866   3.727   2.042   6.858  0.5577 -0.6247 -0.5068
  129OSM    C5F13867   3.634   2.099   7.040 -0.7697  0.0182 -0.2521
  129OSM    H5F13868   3.687   2.017   7.092  0.0770 -0.0135 -1.1433
  129OSM    H5G13869   3.542   2.048   7.005 -0.0241 -1.0525 -0.6905
  129OSM    C6F13870   3.604   2.212   7.146 -0.5254 -0.0572 -0.8782
  129OSM    H6F13871   3.554   2.298   7.097 -0.1921 -0.0914 -1.2780
  129OSM    H6G13872   3.692   2.247   7.204 -0.2875 -2.4691  0.3541
  129OSM    C7F13873   3.493   2.159   7.243  1.0357  0.5816  0.0684
  129OSM    H7F13874   3.539   2.075   7.299  2.0742  1.3635  0.4260
  129OSM    H7G13875   3.408   2.121   7.183  0.3272  3.3796 -0.8854
  129OSM    C8F13876   3.434   2.281   7.318 -0.1290  0.8507  0.0242
  129OSM    H8F13877   3.390   2.356   7.249  1.6712  1.5781 -0.3800
  129OSM    H8G13878   3.515   2.331   7.376  1.5314 -2.7825  1.0903
  129OSM    C9F13879   3.339   2.231   7.424  0.1792  0.5389 -0.0240
  129OSM    H9F13880   3.272   2.149   7.392 -0.9722  1.0067  1.0959
  129OSM   C10F13881   3.321   2.276   7.547  0.1930 -0.5511 -0.6624
  129OSM   H10F13882   3.243   2.234   7.612 -0.9444  0.6185 -1.2393
  129OSM   C11F13883   3.393   2.393   7.616  0.0552 -0.0919 -0.2031
  129OSM   H11F13884   3.497   2.390   7.577  0.3215 -1.3874  0.5510
  129OSM   H11G13885   3.405   2.370   7.724  0.6248  1.1300  0.0033
  129OSM   C12F13886   3.333   2.533   7.591  0.2709 -0.4057 -0.0113
  129OSM   H12F13887   3.223   2.522   7.605  0.2629  0.8443  1.2164
  129OSM   H12G13888   3.353   2.563   7.486 -1.6480  0.2696 -0.2133
  129OSM   C13F13889   3.381   2.650   7.679  0.2388  0.5976  0.2547
  129OSM   H13F13890   3.323   2.742   7.659 -1.1350 -0.4513 -0.7317
  129OSM   H13G13891   3.490   2.671   7.674  0.1732  0.6528 -2.6958
  129OSM   C14F13892   3.345   2.624   7.830  0.4335  0.7712 -0.6300
  129OSM   H14F13893   3.414   2.573   7.899 -0.4848  0.0370 -0.2336
  129OSM   H14G13894   3.257   2.556   7.821 -0.8603  2.5258 -2.0496
  129OSM   C15F13895   3.297   2.752   7.898  0.1829  0.3931 -0.0987
  129OSM   H15F13896   3.223   2.807   7.836 -1.0938  0.6608  1.5796
  129OSM   H15G13897   3.385   2.819   7.905 -1.5113  2.8014 -0.5142
  129OSM   C16F13898   3.225   2.747   8.035  0.2634  0.8998 -0.5539
  129OSM   H16F13899   3.290   2.700   8.112 -2.1585  0.0738  1.1182
  129OSM   H16G13900   3.128   2.693   8.028  0.9477 -0.2329 -1.7588
  129OSM   C17F13901   3.181   2.887   8.082 -0.3864  0.0749 -0.1146
  129OSM   H17F13902   3.113   2.928   8.005  0.2427  1.4064  0.0147
  129OSM   H17G13903   3.271   2.952   8.090  1.0360 -1.6677 -1.0992
  129OSM   C18F13904   3.127   2.888   8.226 -0.6516  0.8402  0.4520
  129OSM   H18F13905   3.085   2.986   8.259  0.4877  1.5371 -0.1038
  129OSM   H18G13906   3.202   2.858   8.302  0.0219  2.5027  0.4889
  129OSM   H18H13907   3.049   2.810   8.235 -0.3512  0.2510 -1.6575
  130OSM      N13908   3.991   5.914   6.383  0.7651  0.0341  0.4509
  130OSM    C1513909   3.981   5.869   6.236 -0.0695 -0.0226 -0.0458
  130OSM   H15A13910   3.898   5.916   6.186 -0.2705  0.2104  0.4943
  130OSM   H15B13911   3.979   5.761   6.226  1.1748  0.0574 -1.4806
  130OSM   H15C13912   4.067   5.909   6.185  0.5550 -0.4720  0.6395
  130OSM    C1413913   4.057   5.796   6.459  0.2782 -0.2144  0.5224
  130OSM   H14A13914   4.006   5.705   6.432  1.6629  0.0573 -3.8233
  130OSM   H14B13915   4.068   5.812   6.565 -2.4709  1.4696  0.6338
  130OSM   H14C13916   4.158   5.791   6.421  1.1498 -1.2845  2.8318
  130OSM    C1313917   4.081   6.036   6.388  0.6969 -0.2188 -0.4094
  130OSM   H13A13918   4.036   6.124   6.343 -0.6062 -0.9536 -0.5994
  130OSM   H13B13919   4.169   6.002   6.336  1.0911 -0.4047  0.3586
  130OSM   H13C13920   4.088   6.060   6.493 -0.1530  2.0395 -0.8029
  130OSM    C1213921   3.854   5.947   6.442  0.4106 -0.9979 -0.7712
  130OSM   H12A13922   3.867   5.981   6.544  0.2993 -0.9304 -0.7793
  130OSM   H12B13923   3.794   5.858   6.454 -0.9900  0.0853  0.7745
  130OSM    C1113924   3.747   6.035   6.366 -0.0548 -0.2069 -0.1319
  130OSM   H11A13925   3.649   6.025   6.418 -0.6165  0.6443 -1.0157
  130OSM   H11B13926   3.721   6.009   6.261 -0.9103  0.4128 -0.0868
  130OSM      P13927   3.752   6.286   6.458  0.0843  0.0588  0.1911
  130OSM    O1313928   3.863   6.301   6.553 -0.2420  0.0959 -0.1661
  130OSM    O1413929   3.724   6.411   6.385 -0.4175  0.4843  0.4268
  130OSM    O1113930   3.619   6.251   6.536 -0.6146 -0.0220 -0.3855
  130OSM    O1213931   3.787   6.173   6.355  0.2742  0.1287  0.3631
  130OSM    C1S13932   3.601   6.176   6.654 -0.1692  0.5011 -0.2239
  130OSM    H1S13933   3.671   6.091   6.658  0.1174  0.7851  1.3910
  130OSM    H1T13934   3.504   6.121   6.654 -1.0926  2.0554  0.1803
  130OSM     NF13935   3.570   6.166   6.897 -0.2886  0.4484 -0.0331
  130OSM    HNF13936   3.479   6.185   6.933 -0.5533 -0.4378 -0.2077
  130OSM    C2S13937   3.611   6.259   6.788  0.6435 -0.0812 -0.6423
  130OSM    H2S13938   3.718   6.286   6.804 -0.1559  2.0145  2.1900
  130OSM    C3S13939   3.534   6.387   6.776  0.5993 -0.1312 -0.1266
  130OSM    H3S13940   3.437   6.366   6.726  0.0712  1.8561  0.0019
  130OSM     O313941   3.593   6.472   6.678  0.3567  0.0180 -0.5066
  130OSM    HO313942   3.621   6.408   6.612 -2.4131 -0.6907 -1.1291
  130OSM    C4S13943   3.519   6.452   6.914  0.1939 -1.0094  0.2607
  130OSM    H4S13944   3.419   6.437   6.958 -0.2001 -0.8209 -0.5619
  130OSM    C5S13945   3.627   6.515   6.981  0.2141 -0.7733 -0.1107
  130OSM    H5S13946   3.725   6.502   6.933  1.1986  0.0421  1.5986
  130OSM    C6S13947   3.623   6.573   7.124  0.0943 -0.1621  0.0218
  130OSM    H6S13948   3.625   6.684   7.131  2.6143 -0.1956  0.8197
  130OSM    H6T13949   3.709   6.526   7.176 -1.8512 -1.9417  1.8134
  130OSM    C7S13950   3.498   6.528   7.211  0.0418 -0.4874  0.1995
  130OSM    H7S13951   3.463   6.423   7.193 -0.5254 -0.8348  2.8877
  130OSM    H7T13952   3.412   6.598   7.201  1.5468  1.5148  0.6487
  130OSM    C8S13953   3.535   6.528   7.359 -0.1168  1.1692 -0.2759
  130OSM    H8S13954   3.634   6.480   7.375 -0.5075  0.4127 -0.0989
  130OSM    H8T13955   3.451   6.475   7.410  3.1790 -1.7267  2.6778
  130OSM    C9S13956   3.539   6.671   7.421  0.2034 -0.2787 -0.3662
  130OSM    H9S13957   3.475   6.741   7.363  0.5785  1.8237  1.6470
  130OSM    H9T13958   3.640   6.715   7.418 -0.1781  0.9446  2.0533
  130OSM   C10S13959   3.486   6.678   7.566  0.1617 -0.6479 -0.2003
  130OSM   H10S13960   3.544   6.599   7.617 -0.6890 -2.6493 -2.1558
  130OSM   H10T13961   3.375   6.670   7.573 -0.1403  2.4942  0.2372
  130OSM   C11S13962   3.515   6.817   7.635 -0.0423 -0.2614 -0.9025
  130OSM   H11S13963   3.477   6.812   7.739  1.0977  0.1112 -0.4538
  130OSM   H11T13964   3.488   6.909   7.579  2.7606 -0.4450 -2.7277
  130OSM   C12S13965   3.666   6.833   7.665  0.5779 -0.2922  0.5066
  130OSM   H12S13966   3.711   6.879   7.574  1.9097 -1.3722  0.5892
  130OSM   H12T13967   3.707   6.734   7.691 -0.6945 -1.0913 -0.4085
  130OSM   C13S13968   3.699   6.924   7.777  0.4035 -0.1693 -0.4355
  130OSM   H13S13969   3.647   7.022   7.779  1.2347  0.2783  2.3459
  130OSM   H13T13970   3.803   6.962   7.770 -0.3209  2.2958  1.0693
  130OSM   C14S13971   3.686   6.858   7.916 -0.5358  0.3207 -0.2732
  130OSM   H14S13972   3.699   6.748   7.907 -1.8004  0.2295 -1.4712
  130OSM   H14T13973   3.579   6.871   7.944 -1.0376  3.6774 -3.0162
  130OSM   C15S13974   3.795   6.892   8.014 -0.2620  0.0708 -0.1068
  130OSM   H15S13975   3.895   6.895   7.967 -0.1404  3.4706  0.0773
  130OSM   H15T13976   3.804   6.811   8.090  1.6685  1.6691  1.4829
  130OSM   C16S13977   3.775   7.027   8.078  0.6119  0.3440  0.1519
  130OSM   H16S13978   3.692   7.019   8.151 -0.4295 -4.1942 -1.1544
  130OSM   H16T13979   3.747   7.101   8.001 -2.6149 -1.9915 -1.1488
  130OSM   C17S13980   3.900   7.077   8.150  0.2464 -0.0876 -0.6342
  130OSM   H17S13981   3.873   7.177   8.190 -0.1961 -1.0076  1.5793
  130OSM   H17T13982   3.979   7.091   8.074 -0.4368  0.6419 -1.2270
  130OSM   C18S13983   3.953   6.984   8.260  0.0769  0.2599 -0.9781
  130OSM   H18S13984   3.884   6.992   8.347  0.3456  0.3313 -0.7684
  130OSM   H18T13985   4.054   7.012   8.297  0.4447 -1.4988 -0.5572
  130OSM   H18U13986   3.948   6.877   8.229  1.0454 -0.4099  0.9963
  130OSM    C1F13987   3.662   6.082   6.945  0.9596 -0.5155  0.1017
  130OSM     OF13988   3.761   6.053   6.882 -0.5185  0.4105 -0.3550
  130OSM    C2F13989   3.627   6.007   7.067 -0.0732 -0.0641  0.0128
  130OSM    H2F13990   3.714   5.939   7.080  1.1652  1.4579 -0.0770
  130OSM    H2G13991   3.535   5.950   7.043  1.0803 -1.6221 -0.8842
  130OSM    C3F13992   3.621   6.085   7.197 -0.0138 -0.2153 -0.0465
  130OSM    H3F13993   3.549   6.165   7.172 -1.3975  0.0306  3.9749
  130OSM    H3G13994   3.718   6.132   7.224 -0.1382 -0.4736  0.8778
  130OSM    C4F13995   3.578   6.009   7.323 -0.2109  0.0907 -0.0623
  130OSM    H4F13996   3.648   5.927   7.349  0.9354  0.4692 -1.7991
  130OSM    H4G13997   3.472   5.978   7.310 -1.8242  4.2197  1.6895
  130OSM    C5F13998   3.570   6.101   7.446 -0.6889 -0.1773 -0.6196
  130OSM    H5F13999   3.515   6.195   7.425  1.1438  1.2025  0.4682
  130OSM    H5G14000   3.670   6.141   7.472 -0.3090 -1.4317 -0.0809
  130OSM    C6F14001   3.527   6.031   7.576  0.7866  0.1712 -0.8218
  130OSM    H6F14002   3.604   5.955   7.602  2.0117  1.3771 -0.7503
  130OSM    H6G14003   3.429   5.980   7.565  0.8334 -0.2752  0.6351
  130OSM    C7F14004   3.520   6.134   7.701 -0.1418  0.1973  0.4128
  130OSM    H7F14005   3.459   6.224   7.680  0.1858  0.4876  0.7051
  130OSM    H7G14006   3.622   6.176   7.716 -0.3113  0.3577  1.1581
  130OSM    C8F14007   3.477   6.073   7.837 -0.1006  0.2439 -0.5684
  130OSM    H8F14008   3.445   6.160   7.899  0.5444 -1.0291  1.6533
  130OSM    H8G14009   3.565   6.032   7.891  1.4454 -0.3160 -3.2822
  130OSM    C9F14010   3.357   5.984   7.822  0.4621  0.2786 -0.1908
  130OSM    H9F14011   3.276   6.026   7.761  0.4986  0.3513 -0.1898
  130OSM   C10F14012   3.350   5.855   7.871 -0.5161 -0.2862  0.9295
  130OSM   H10F14013   3.260   5.800   7.840 -2.1084  2.7303 -0.1822
  130OSM   C11F14014   3.457   5.779   7.943  0.1944  0.4041  0.7760
  130OSM   H11F14015   3.540   5.848   7.970 -0.0724  1.4108 -0.8465
  130OSM   H11G14016   3.499   5.703   7.875  0.3854  0.9730  0.2510
  130OSM   C12F14017   3.395   5.712   8.072  0.7347 -0.5934  0.8040
  130OSM   H12F14018   3.465   5.631   8.097 -0.3920 -1.8557  0.0161
  130OSM   H12G14019   3.296   5.668   8.046  0.2950 -0.8498  2.8091
  130OSM   C13F14020   3.368   5.816   8.186  0.1055  0.5915  0.1156
  130OSM   H13F14021   3.311   5.905   8.153  1.1461 -0.1566 -4.2298
  130OSM   H13G14022   3.460   5.870   8.220  1.0323 -0.2256 -1.0327
  130OSM   C14F14023   3.297   5.747   8.307 -0.3974 -0.5671  0.0095
  130OSM   H14F14024   3.294   5.814   8.395  0.5480 -0.0138 -0.3582
  130OSM   H14G14025   3.360   5.659   8.332  1.4008  0.8382  0.6826
  130OSM   C15F14026   3.160   5.699   8.291 -0.0152  0.3458  0.8367
  130OSM   H15F14027   3.151   5.610   8.225 -2.4387  1.8694 -1.0647
  130OSM   H15G14028   3.100   5.775   8.236  2.4866  1.9009  0.0884
  130OSM   C16F14029   3.086   5.675   8.420 -0.0525  0.1364  0.6384
  130OSM   H16F14030   3.111   5.757   8.492 -0.1638  2.2009 -1.5460
  130OSM   H16G14031   3.134   5.584   8.461  1.3491 -0.4080 -2.0024
  130OSM   C17F14032   2.932   5.649   8.406 -0.5601  0.1260  0.2149
  130OSM   H17F14033   2.901   5.738   8.346 -0.6390 -1.2023 -1.7927
  130OSM   H17G14034   2.899   5.669   8.510  1.2440  0.8893  0.6828
  130OSM   C18F14035   2.888   5.513   8.347 -0.1208 -0.4226 -1.1098
  130OSM   H18F14036   2.778   5.497   8.341 -0.2269  0.5056 -1.7139
  130OSM   H18G14037   2.922   5.444   8.427 -0.7852 -0.5639 -0.9421
  130OSM   H18H14038   2.929   5.489   8.247  2.8625  0.6044 -0.2354
  131OSM      N14039   3.134   3.701   5.867 -0.2570  0.2329 -0.6593
  131OSM    C1514040   3.097   3.614   5.746 -0.1491 -0.6264 -0.1748
  131OSM   H15A14041   3.015   3.549   5.773 -1.1229  0.2441 -0.9882
  131OSM   H15B14042   3.172   3.542   5.718 -1.8402 -2.1649 -0.9183
  131OSM   H15C14043   3.055   3.671   5.665  0.3293 -3.0283 -2.2396
  131OSM    C1414044   3.264   3.760   5.839  0.3273 -0.0361 -0.3541
  131OSM   H14A14045   3.293   3.804   5.932  0.3270  0.5145 -0.6138
  131OSM   H14B14046   3.258   3.838   5.765  2.9010  1.8087  1.2212
  131OSM   H14C14047   3.343   3.689   5.816  0.1989 -0.8536  1.5714
  131OSM    C1314048   3.033   3.812   5.874 -0.5621  0.1260  0.1056
  131OSM   H13A14049   3.026   3.869   5.782 -1.3312 -0.8496 -0.4588
  131OSM   H13B14050   3.054   3.882   5.953  1.5430  0.3529 -0.5916
  131OSM   H13C14051   2.937   3.766   5.893 -1.8197  2.5652 -0.0063
  131OSM    C1214052   3.130   3.615   5.990  0.0112 -0.5708  0.0090
  131OSM   H12A14053   3.215   3.549   5.983  1.1629  0.8791 -0.1339
  131OSM   H12B14054   3.042   3.553   5.993 -0.0886 -0.6104 -2.1600
  131OSM    C1114055   3.161   3.690   6.120  0.2202  0.3570 -0.1631
  131OSM   H11A14056   3.263   3.734   6.116 -0.1632  1.1506 -2.3169
  131OSM   H11B14057   3.159   3.605   6.192  0.2030  1.0392  0.6625
  131OSM      P14058   2.926   3.758   6.214  0.0824  0.1594 -0.0324
  131OSM    O1314059   2.856   3.884   6.257 -0.2977  0.2866  0.0655
  131OSM    O1414060   2.861   3.664   6.120 -0.3450  0.2703  0.1328
  131OSM    O1114061   2.955   3.666   6.342 -0.4172 -0.6843 -0.1479
  131OSM    O1214062   3.067   3.792   6.159  0.3290 -0.3340  0.2849
  131OSM    C1S14063   3.046   3.713   6.447  0.1893  0.1677 -0.0876
  131OSM    H1S14064   3.131   3.774   6.410 -0.6003  2.3703  1.4918
  131OSM    H1T14065   3.069   3.623   6.507 -0.8719  0.4003  0.7027
  131OSM     NF14066   3.054   3.820   6.666  0.3893  0.3096 -0.0586
  131OSM    HNF14067   3.037   3.776   6.754 -2.9710  0.5738 -0.4321
  131OSM    C2S14068   2.964   3.791   6.553  1.0504  0.8259  0.5601
  131OSM    H2S14069   2.934   3.889   6.510 -1.3365  0.0164  0.2419
  131OSM    C3S14070   2.828   3.720   6.590 -0.0478 -0.2616  0.1768
  131OSM    H3S14071   2.857   3.617   6.618 -2.9162 -1.5094 -1.0181
  131OSM     O314072   2.734   3.699   6.479  0.0871  0.2174  0.1783
  131OSM    HO314073   2.782   3.707   6.396  0.0017 -2.0431 -0.1323
  131OSM    C4S14074   2.762   3.796   6.699  0.2291 -0.8923  0.5147
  131OSM    H4S14075   2.776   3.905   6.704  0.2151 -0.9463  3.1598
  131OSM    C5S14076   2.683   3.741   6.796  0.3413 -0.1199  0.2330
  131OSM    H5S14077   2.657   3.634   6.795 -0.7526  0.1329 -0.8668
  131OSM    C6S14078   2.637   3.827   6.916  0.3160  0.1791  0.1547
  131OSM    H6S14079   2.534   3.797   6.944  0.5178  1.4226  2.5426
  131OSM    H6T14080   2.633   3.935   6.889 -2.2468  0.1939  0.3648
  131OSM    C7S14081   2.718   3.803   7.043 -0.5199  0.3911 -0.3114
  131OSM    H7S14082   2.824   3.827   7.019  0.2462 -1.3739  1.0443
  131OSM    H7T14083   2.706   3.698   7.078 -0.6888  1.5168  3.3769
  131OSM    C8S14084   2.673   3.898   7.156 -0.0819  0.0752 -0.0364
  131OSM    H8S14085   2.562   3.889   7.161 -0.2380  0.3093 -2.2198
  131OSM    H8T14086   2.686   3.996   7.105  1.3458 -1.0490 -1.9362
  131OSM    C9S14087   2.735   3.885   7.292 -0.6108  0.0680  0.3628
  131OSM    H9S14088   2.840   3.918   7.273 -0.7868  1.5374  1.7493
  131OSM    H9T14089   2.738   3.776   7.311 -0.2617  0.4351  2.6776
  131OSM   C10S14090   2.657   3.952   7.410  0.0898  0.8021  1.1881
  131OSM   H10S14091   2.572   3.882   7.422 -0.1919  0.3038 -2.6656
  131OSM   H10T14092   2.621   4.052   7.375 -0.2607  0.3470  0.2349
  131OSM   C11S14093   2.737   3.959   7.538 -0.7850 -1.0349  1.3937
  131OSM   H11S14094   2.825   4.027   7.528 -0.4217 -1.3834  2.1433
  131OSM   H11T14095   2.789   3.867   7.573  2.2143  0.2674  0.7283
  131OSM   C12S14096   2.661   4.014   7.661  1.0555  0.4541 -0.0857
  131OSM   H12S14097   2.564   3.962   7.666  0.4773  1.5415  0.5151
  131OSM   H12T14098   2.653   4.125   7.657 -0.9763  0.4065  1.1772
  131OSM   C13S14099   2.736   3.992   7.793  0.8560 -0.0968 -0.2196
  131OSM   H13S14100   2.827   4.055   7.785 -0.3336  1.5136 -2.1611
  131OSM   H13T14101   2.770   3.887   7.799 -0.7026 -0.6242 -0.2306
  131OSM   C14S14102   2.657   4.042   7.916  0.6291  0.4083 -0.7384
  131OSM   H14S14103   2.556   3.996   7.920  1.2193 -0.8912 -0.2601
  131OSM   H14T14104   2.640   4.151   7.906 -2.6942  0.2320  1.3679
  131OSM   C15S14105   2.727   4.007   8.052  0.8282 -0.2853 -0.1078
  131OSM   H15S14106   2.803   4.087   8.068 -2.2106  2.9709 -0.5905
  131OSM   H15T14107   2.766   3.903   8.052 -1.0189 -1.0186 -0.9207
  131OSM   C16S14108   2.643   4.012   8.181 -0.1532  0.5561  0.7515
  131OSM   H16S14109   2.546   3.961   8.165  0.3131  0.1965 -1.1535
  131OSM   H16T14110   2.611   4.118   8.186  0.6299  1.1469 -3.3675
  131OSM   C17S14111   2.705   3.947   8.308  0.2536 -0.3016 -0.9806
  131OSM   H17S14112   2.707   3.836   8.297 -2.0229 -1.0477  3.6623
  131OSM   H17T14113   2.646   3.970   8.399  2.7560  0.5058  0.5195
  131OSM   C18S14114   2.847   3.983   8.337 -1.2068  0.3508 -0.2185
  131OSM   H18S14115   2.877   3.928   8.428  0.5070  1.7168  0.0854
  131OSM   H18T14116   2.847   4.092   8.361  0.4584  0.5609 -1.0765
  131OSM   H18U14117   2.914   3.957   8.252  2.8263 -0.7096  3.0210
  131OSM    C1F14118   3.153   3.904   6.656 -0.8814  0.0721  0.1991
  131OSM     OF14119   3.166   3.973   6.556  0.4225  0.8170  0.7767
  131OSM    C2F14120   3.246   3.912   6.771 -0.6960 -0.1346 -0.1092
  131OSM    H2F14121   3.304   3.818   6.778  2.0413  1.3087 -1.9207
  131OSM    H2G14122   3.195   3.942   6.866  0.7426 -0.0571  0.6682
  131OSM    C3F14123   3.353   4.031   6.760 -0.4424  0.0682 -0.0366
  131OSM    H3F14124   3.293   4.122   6.739  0.0804 -0.0085 -2.0866
  131OSM    H3G14125   3.415   4.011   6.670  0.2424  3.3670 -0.4273
  131OSM    C4F14126   3.451   4.033   6.879  0.4309  0.0807 -0.1555
  131OSM    H4F14127   3.552   4.070   6.847 -0.0273  0.9680 -0.6439
  131OSM    H4G14128   3.471   3.940   6.935 -0.3968 -1.4144 -2.2023
  131OSM    C5F14129   3.400   4.141   6.979  0.4281  0.0970 -0.4675
  131OSM    H5F14130   3.294   4.120   7.004 -0.4008  1.2077 -2.7303
  131OSM    H5G14131   3.403   4.239   6.925 -1.8402  0.2537 -0.4117
  131OSM    C6F14132   3.492   4.155   7.100 -0.0752  0.0611 -0.5195
  131OSM    H6F14133   3.581   4.217   7.073  0.6101 -0.6290  0.0850
  131OSM    H6G14134   3.526   4.058   7.142  2.0361  1.5891  1.5503
  131OSM    C7F14135   3.420   4.225   7.216  0.0184 -0.2872 -0.4022
  131OSM    H7F14136   3.320   4.178   7.234 -1.0906  1.4083 -1.7713
  131OSM    H7G14137   3.381   4.325   7.189 -1.1155 -0.7966 -0.7308
  131OSM    C8F14138   3.496   4.227   7.347  0.1658 -0.0211 -0.4930
  131OSM    H8F14139   3.440   4.293   7.417  1.4809 -0.8219  1.4147
  131OSM    H8G14140   3.595   4.271   7.321 -0.5403  1.0946 -1.3839
  131OSM    C9F14141   3.510   4.095   7.414 -0.1166 -0.3754  0.0287
  131OSM    H9F14142   3.520   4.010   7.345 -0.7791 -1.7755  1.6053
  131OSM   C10F14143   3.524   4.081   7.547 -0.4089 -0.2182  0.1658
  131OSM   H10F14144   3.507   3.980   7.586 -0.2698 -1.3279 -2.4370
  131OSM   C11F14145   3.517   4.178   7.658 -0.0380 -0.6198 -0.9910
  131OSM   H11F14146   3.500   4.281   7.619 -1.2314  0.4367  2.0464
  131OSM   H11G14147   3.615   4.178   7.710 -0.2416  2.4229 -0.3975
  131OSM   C12F14148   3.391   4.169   7.745 -1.2015 -0.4511 -0.6996
  131OSM   H12F14149   3.402   4.068   7.790  2.1092 -0.9954 -2.3858
  131OSM   H12G14150   3.297   4.165   7.686 -0.3768  0.8322 -2.1507
  131OSM   C13F14151   3.370   4.273   7.856 -0.0049 -0.4035 -0.0967
  131OSM   H13F14152   3.273   4.247   7.903 -0.3558  0.5167 -0.2960
  131OSM   H13G14153   3.355   4.363   7.793  2.1479  0.4242  0.4691
  131OSM   C14F14154   3.488   4.302   7.946 -0.3387  0.4885 -0.3011
  131OSM   H14F14155   3.578   4.348   7.900 -0.0044  0.6139  0.4593
  131OSM   H14G14156   3.530   4.218   8.005  0.8754 -0.3163 -2.2169
  131OSM   C15F14157   3.454   4.393   8.068  0.4749 -0.4386 -0.0605
  131OSM   H15F14158   3.430   4.497   8.037  0.4551 -0.5572 -0.4424
  131OSM   H15G14159   3.536   4.391   8.144  2.4520 -0.0155 -2.0798
  131OSM   C16F14160   3.331   4.330   8.134  0.0615  0.0825 -0.0626
  131OSM   H16F14161   3.355   4.222   8.149  1.7658  0.1323 -1.9367
  131OSM   H16G14162   3.235   4.340   8.079  0.6312  1.0757 -0.9114
  131OSM   C17F14163   3.310   4.383   8.281 -0.1105 -0.6710  0.0999
  131OSM   H17F14164   3.275   4.487   8.262  2.5426 -0.0897 -2.2326
  131OSM   H17G14165   3.410   4.397   8.328 -0.5245  1.7717  0.3586
  131OSM   C18F14166   3.219   4.313   8.375  0.1305  0.9103  0.1181
  131OSM   H18F14167   3.112   4.320   8.347  0.0649 -2.4012 -0.9085
  131OSM   H18G14168   3.236   4.338   8.482  2.4810 -1.8080  0.4953
  131OSM   H18H14169   3.231   4.204   8.359 -1.6041  0.4348  1.7747
  132OSM      N14170   6.753   2.470   6.110 -0.4572 -0.8187  0.1090
  132OSM    C1514171   6.841   2.388   6.017 -0.4280  0.0880 -0.3539
  132OSM   H15A14172   6.869   2.440   5.927  0.0971  0.2652 -0.0910
  132OSM   H15B14173   6.800   2.290   5.997 -0.5242 -0.5647  2.4806
  132OSM   H15C14174   6.939   2.367   6.059  0.6680  4.0061 -0.6071
  132OSM    C1414175   6.821   2.604   6.138 -0.4925  0.0521 -0.0515
  132OSM   H14A14176   6.836   2.662   6.049  1.0343 -2.4759 -1.5884
  132OSM   H14B14177   6.916   2.597   6.190  0.4923 -1.4683 -1.9049
  132OSM   H14C14178   6.768   2.665   6.209  0.6953  0.0930  0.8384
  132OSM    C1314179   6.619   2.504   6.039 -0.8697 -0.0194 -0.3999
  132OSM   H13A14180   6.558   2.555   6.112  0.5922 -1.0147  1.6025
  132OSM   H13B14181   6.570   2.413   6.007  1.4958 -1.2497 -0.7489
  132OSM   H13C14182   6.628   2.576   5.959 -0.2991  0.3473 -0.0172
  132OSM    C1214183   6.721   2.403   6.240  0.3878 -0.1097  0.2970
  132OSM   H12A14184   6.812   2.374   6.291 -0.4481 -1.1383  1.2765
  132OSM   H12B14185   6.670   2.308   6.230  0.9113 -0.2797 -0.8932
  132OSM    C1114186   6.636   2.473   6.351  0.5524  0.1266 -0.5679
  132OSM   H11A14187   6.663   2.580   6.364  0.1157  0.0567  1.1462
  132OSM   H11B14188   6.660   2.428   6.450  1.5472 -0.4377 -1.0515
  132OSM      P14189   6.396   2.571   6.369  0.2614 -0.2894  0.1473
  132OSM    O1314190   6.449   2.700   6.316  1.1032 -0.2533  0.1805
  132OSM    O1414191   6.262   2.526   6.325 -0.1206 -0.1960  0.5336
  132OSM    O1114192   6.397   2.585   6.525 -0.2547 -0.0449 -0.0227
  132OSM    O1214193   6.499   2.459   6.323 -0.5047  0.1912  0.1715
  132OSM    C1S14194   6.367   2.469   6.606 -0.7668 -0.5333  0.0658
  132OSM    H1S14195   6.422   2.379   6.571 -2.7984 -1.6693 -0.4022
  132OSM    H1T14196   6.261   2.436   6.600 -0.9979  0.0946  0.5659
  132OSM     NF14197   6.408   2.369   6.827  0.8150  0.4835  0.0313
  132OSM    HNF14198   6.321   2.329   6.857 -0.2608  3.0071  0.5388
  132OSM    C2S14199   6.391   2.495   6.758  0.9134  1.1984  0.5177
  132OSM    H2S14200   6.482   2.557   6.774  2.1885 -0.3970 -0.2746
  132OSM    C3S14201   6.278   2.592   6.811  0.2618  0.1277 -0.5787
  132OSM    H3S14202   6.191   2.523   6.804  1.8399 -2.0200 -0.0851
  132OSM     O314203   6.257   2.706   6.726  0.9383 -0.1832 -0.3038
  132OSM    HO314204   6.298   2.673   6.646 -1.5707 -1.6356 -1.1186
  132OSM    C4S14205   6.301   2.631   6.957  0.1352 -0.4406 -0.7056
  132OSM    H4S14206   6.247   2.559   7.021 -0.7581 -0.3416 -1.3336
  132OSM    C5S14207   6.382   2.736   7.000 -0.5130 -0.3015  0.4289
  132OSM    H5S14208   6.418   2.802   6.919  0.4425 -2.1563 -0.7534
  132OSM    C6S14209   6.429   2.783   7.137 -0.0752  0.3807 -0.0862
  132OSM    H6S14210   6.377   2.881   7.147 -2.4428 -0.8370  0.4155
  132OSM    H6T14211   6.536   2.812   7.131 -0.1340  0.5625 -0.2938
  132OSM    C7S14212   6.421   2.694   7.260 -0.7014  0.2198 -0.1998
  132OSM    H7S14213   6.482   2.602   7.246 -1.6314 -0.2407 -1.3170
  132OSM    H7T14214   6.316   2.669   7.284  0.1497 -2.5737  0.9908
  132OSM    C8S14215   6.478   2.765   7.382  0.1802  0.3340 -0.3202
  132OSM    H8S14216   6.425   2.859   7.408  0.5208  0.5792 -0.5052
  132OSM    H8T14217   6.582   2.799   7.364 -0.5542  1.3139 -3.2574
  132OSM    C9S14218   6.483   2.680   7.513  0.3380 -0.5907  0.2815
  132OSM    H9S14219   6.535   2.582   7.503  1.0923 -0.0578 -1.5413
  132OSM    H9T14220   6.377   2.653   7.533 -0.3837  1.2353 -0.8282
  132OSM   C10S14221   6.532   2.770   7.636  0.2634  0.2727 -0.0207
  132OSM   H10S14222   6.471   2.862   7.645 -0.5355 -0.2020 -0.4522
  132OSM   H10T14223   6.640   2.794   7.624 -0.0462  0.8743 -1.9726
  132OSM   C11S14224   6.534   2.700   7.765 -0.4109 -0.4385  1.0261
  132OSM   H11S14225   6.600   2.610   7.759 -0.6080 -0.6084  1.3545
  132OSM   H11T14226   6.433   2.655   7.779 -0.7003 -0.9173 -1.9003
  132OSM   C12S14227   6.576   2.778   7.886  0.6148 -0.6820 -0.2025
  132OSM   H12S14228   6.520   2.874   7.891  1.1316 -0.4340  1.7230
  132OSM   H12T14229   6.686   2.795   7.894  0.4966 -0.6292  2.0518
  132OSM   C13S14230   6.541   2.701   8.016 -0.3764  0.1554 -0.2436
  132OSM   H13S14231   6.588   2.600   8.022 -2.2671 -0.9584 -2.4032
  132OSM   H13T14232   6.432   2.678   8.026 -0.2226 -0.1492  0.7578
  132OSM   C14S14233   6.574   2.784   8.138 -0.1355  0.0225 -0.3000
  132OSM   H14S14234   6.550   2.892   8.125  0.4127  0.0967 -0.7381
  132OSM   H14T14235   6.684   2.788   8.152 -0.2156 -0.7973  0.6530
  132OSM   C15S14236   6.511   2.733   8.268  0.4094 -0.2257 -0.8503
  132OSM   H15S14237   6.534   2.625   8.280 -1.1395 -0.5670 -0.6454
  132OSM   H15T14238   6.401   2.742   8.250  0.3469 -0.7887 -0.7615
  132OSM   C16S14239   6.544   2.808   8.397 -0.4122  0.4782  0.4828
  132OSM   H16S14240   6.488   2.752   8.475  1.0470 -1.9003 -0.0591
  132OSM   H16T14241   6.494   2.907   8.390 -0.3390  0.6060  1.5422
  132OSM   C17S14242   6.686   2.812   8.447  0.0029  0.4261  0.1304
  132OSM   H17S14243   6.747   2.847   8.361  2.2705  3.5533  2.7647
  132OSM   H17T14244   6.711   2.714   8.493 -1.9515 -1.0991 -1.8313
  132OSM   C18S14245   6.696   2.916   8.556  0.0839 -0.0736 -0.6838
  132OSM   H18S14246   6.803   2.941   8.571  0.4988 -2.2408  0.3038
  132OSM   H18T14247   6.641   2.891   8.649 -0.0280  0.2728 -0.6542
  132OSM   H18U14248   6.646   3.007   8.514  0.3829 -0.5665 -2.1492
  132OSM    C1F14249   6.518   2.294   6.812 -0.0536 -0.2574 -0.3503
  132OSM     OF14250   6.618   2.339   6.757 -0.0725  0.0254 -0.0757
  132OSM    C2F14251   6.516   2.156   6.863  0.3613 -0.4489  0.3561
  132OSM    H2F14252   6.486   2.094   6.776  1.4885 -0.8558  0.2434
  132OSM    H2G14253   6.430   2.157   6.934 -1.4547 -0.9810 -1.7147
  132OSM    C3F14254   6.645   2.110   6.935  0.0299  0.2124 -0.2452
  132OSM    H3F14255   6.675   2.165   7.027  1.3928 -1.3846  0.3297
  132OSM    H3G14256   6.729   2.114   6.862  0.1716 -2.8969 -0.3907
  132OSM    C4F14257   6.633   1.964   6.978  0.0904  0.1000  0.0675
  132OSM    H4F14258   6.732   1.933   7.019 -0.1894  1.0171  1.4961
  132OSM    H4G14259   6.597   1.910   6.888  1.1983  0.8759 -0.8757
  132OSM    C5F14260   6.539   1.949   7.104  0.5617  0.8011 -0.3143
  132OSM    H5F14261   6.445   1.997   7.070 -0.4131 -0.7387  0.1007
  132OSM    H5G14262   6.573   2.012   7.189  1.5634  0.1245 -0.1969
  132OSM    C6F14263   6.511   1.800   7.152 -0.3026 -0.5750  0.1112
  132OSM    H6F14264   6.607   1.773   7.201 -1.6058  0.0482  3.2590
  132OSM    H6G14265   6.512   1.737   7.061  0.0536  0.2185 -0.4539
  132OSM    C7F14266   6.403   1.771   7.253 -0.2431 -0.2700 -0.2717
  132OSM    H7F14267   6.302   1.781   7.209 -0.6981 -0.8333  0.6276
  132OSM    H7G14268   6.408   1.836   7.342 -1.4956 -1.0955  0.4193
  132OSM    C8F14269   6.404   1.634   7.318  0.4037  0.0243  0.0504
  132OSM    H8F14270   6.386   1.559   7.238 -1.7295  1.5523 -1.0112
  132OSM    H8G14271   6.321   1.629   7.391  0.1723  1.5027 -0.0754
  132OSM    C9F14272   6.536   1.607   7.386 -0.1470 -0.8132 -0.0336
  132OSM    H9F14273   6.619   1.655   7.333  0.3682 -1.6558 -0.0053
  132OSM   C10F14274   6.561   1.561   7.512  0.0167 -0.5712  0.1479
  132OSM   H10F14275   6.664   1.550   7.546 -0.3114 -0.7225  1.1199
  132OSM   C11F14276   6.453   1.514   7.604 -1.0205  0.8101 -0.7091
  132OSM   H11F14277   6.353   1.557   7.578 -1.2830  3.3285  3.4919
  132OSM   H11G14278   6.478   1.559   7.703 -1.8896  1.4278 -0.7523
  132OSM   C12F14279   6.446   1.356   7.608  0.5811  0.4346 -1.4104
  132OSM   H12F14280   6.393   1.333   7.702  2.9344  0.8531  0.1121
  132OSM   H12G14281   6.547   1.312   7.618  0.2590  0.1192  1.0025
  132OSM   C13F14282   6.374   1.300   7.487 -0.0845  0.6809  0.1583
  132OSM   H13F14283   6.372   1.189   7.493  1.9359  0.2954 -3.3362
  132OSM   H13G14284   6.440   1.319   7.400  1.3198 -0.7701  0.8525
  132OSM   C14F14285   6.235   1.354   7.467 -0.2293  0.3299 -0.2390
  132OSM   H14F14286   6.237   1.424   7.380  0.2585  0.0753 -0.4363
  132OSM   H14G14287   6.202   1.407   7.559  1.2744  1.4732 -0.3045
  132OSM   C15F14288   6.126   1.249   7.448 -0.3893  0.0486 -0.7264
  132OSM   H15F14289   6.128   1.173   7.529 -1.7826 -2.3795 -2.8173
  132OSM   H15G14290   6.160   1.193   7.358  0.7378 -0.9875  0.3184
  132OSM   C16F14291   5.989   1.303   7.436  0.0558  0.2583  0.3251
  132OSM   H16F14292   5.972   1.393   7.498 -1.1356 -0.5584  1.2414
  132OSM   H16G14293   5.901   1.237   7.454 -1.1203  1.7216  0.1103
  132OSM   C17F14294   5.963   1.350   7.286 -0.2917  0.1177  0.1875
  132OSM   H17F14295   6.019   1.281   7.220  0.4753  0.4111  0.5211
  132OSM   H17G14296   6.018   1.445   7.268 -1.4922  0.4569 -2.0675
  132OSM   C18F14297   5.820   1.357   7.241  0.1680 -0.1762  0.2366
  132OSM   H18F14298   5.773   1.438   7.301  0.4799  0.5020 -0.4140
  132OSM   H18G14299   5.758   1.268   7.268 -0.9047  0.4334 -0.1485
  132OSM   H18H14300   5.811   1.368   7.131 -0.9618 -0.2245  0.3133
  133SAPE     N14301   2.348   5.450  10.852  0.2171 -0.0828  0.0515
  133SAPE   HN114302   2.430   5.482  10.907 -0.0774  1.6136 -0.4338
  133SAPE   HN214303   2.366   5.492  10.759 -0.1487  0.7388  0.3403
  133SAPE   HN314304   2.262   5.493  10.892  1.4533  0.5043  2.1934
  133SAPE   C1214305   2.339   5.302  10.838  0.1366  0.0726 -0.3267
  133SAPE  H12A14306   2.241   5.270  10.799 -0.1471 -2.7020  2.3122
  133SAPE  H12B14307   2.344   5.255  10.938 -3.4210 -0.4691 -0.2833
  133SAPE   C1114308   2.451   5.243  10.753  0.3081 -0.2136 -0.2446
  133SAPE  H11A14309   2.424   5.260  10.646  0.0811  1.3200  0.0402
  133SAPE  H11B14310   2.448   5.133  10.763  1.2667 -0.2731 -0.5046
  133SAPE     P14311   2.692   5.213  10.841  0.0231 -0.0175  0.3637
  133SAPE   O1314312   2.814   5.295  10.856  0.2488  0.1607 -0.3054
  133SAPE   O1414313   2.652   5.130  10.956 -0.3412  0.1159  0.8031
  133SAPE   O1214314   2.576   5.295  10.785  0.3863  0.0191 -0.5057
  133SAPE   O1114315   2.711   5.108  10.722  0.4479 -0.6411  0.3106
  133SAPE    C114316   2.760   5.165  10.597  0.2727 -0.4165  0.4037
  133SAPE    HA14317   2.768   5.276  10.592  2.0822 -0.5704 -1.0274
  133SAPE    HB14318   2.861   5.125  10.577  0.3676  0.1085 -0.1850
  133SAPE    C214319   2.655   5.134  10.490  0.5881 -0.1483 -0.0451
  133SAPE    HS14320   2.552   5.169  10.515  0.3001 -0.4287 -0.8073
  133SAPE   O2114321   2.656   4.987  10.486 -0.3095  0.4327  0.3025
  133SAPE   C2114322   2.554   4.931  10.434 -0.8035  0.0651  0.1600
  133SAPE   O2214323   2.444   4.976  10.411  0.4585 -0.3254  0.0916
  133SAPE   C2214324   2.591   4.785  10.393 -0.5446  0.1098  0.8252
  133SAPE   H2R14325   2.610   4.734  10.489  0.2409  0.3852  0.8240
  133SAPE   H2S14326   2.497   4.750  10.345 -0.1777  0.9899 -0.6084
  133SAPE    C314327   2.704   5.202  10.354 -0.3885  0.7610  0.2748
  133SAPE    HX14328   2.802   5.157  10.328 -1.7970 -0.8891 -2.6345
  133SAPE    HY14329   2.707   5.310  10.381 -1.0438  0.9092 -0.2277
  133SAPE   O3114330   2.612   5.185  10.241 -0.3622  0.3862 -0.0758
  133SAPE   C3114331   2.494   5.251  10.265  0.4230 -1.0592 -0.6852
  133SAPE   O3214332   2.467   5.306  10.369  0.2338 -0.2504  0.7787
  133SAPE   C3214333   2.412   5.259  10.138 -0.8743 -0.5893 -0.1688
  133SAPE   H2X14334   2.461   5.198  10.059  2.7789  0.3398  1.1516
  133SAPE   H2Y14335   2.416   5.366  10.107 -0.1500 -0.3248  0.7774
  133SAPE   C2314336   2.731   4.777  10.319 -0.4010  0.5009 -0.3287
  133SAPE   H3R14337   2.763   4.672  10.335  3.0354  1.2950 -1.1774
  133SAPE   H3S14338   2.803   4.837  10.379  1.1383 -0.6190 -0.9835
  133SAPE   C2414339   2.723   4.806  10.167 -0.5993  0.3443 -0.8098
  133SAPE   H4R14340   2.682   4.908  10.155 -1.5545 -0.0573 -1.0012
  133SAPE   H4S14341   2.664   4.726  10.118  1.2121 -2.2909  1.0055
  133SAPE   C2514342   2.869   4.824  10.122 -0.1138 -0.1596  0.3273
  133SAPE   H5R14343   2.938   4.754  10.170  0.7009 -0.5999 -1.4001
  133SAPE   C2614344   2.915   4.907  10.029 -0.0881  0.8612 -0.1901
  133SAPE   H6R14345   3.021   4.901  10.001  0.2284 -3.3853  1.1584
  133SAPE   C2714346   2.834   4.999   9.940  0.3580 -1.3132  0.0589
  133SAPE   H7R14347   2.901   5.082   9.907  0.2249 -1.3822 -0.3952
  133SAPE   H7S14348   2.760   5.056  10.000  1.5552  0.1388  0.2129
  133SAPE   C2814349   2.765   4.941   9.818  0.1205 -0.3990 -0.4361
  133SAPE   H8R14350   2.743   4.834   9.830 -0.6856 -0.2175 -0.2103
  133SAPE   C2914351   2.740   4.992   9.694  0.6017 -0.0066  0.3944
  133SAPE   H9R14352   2.677   4.937   9.623 -1.4868  1.6909  0.8326
  133SAPE  C21014353   2.783   5.128   9.642  0.3308 -0.7369  0.2505
  133SAPE  H10R14354   2.815   5.113   9.536 -0.9547  1.8337 -0.5725
  133SAPE  H10S14355   2.868   5.172   9.699  0.8216 -1.2479 -0.0670
  133SAPE  C21114356   2.660   5.222   9.640  0.3506  0.2315 -0.0587
  133SAPE  H11R14357   2.659   5.291   9.726  1.1424  1.4852 -1.0073
  133SAPE  C21214358   2.559   5.230   9.554 -0.5784 -0.8832 -0.6975
  133SAPE  H12R14359   2.478   5.304   9.562  0.3235 -0.0108  0.8162
  133SAPE  C21314360   2.544   5.147   9.427  0.0036 -0.4380 -0.8365
  133SAPE  H13R14361   2.438   5.133   9.396  0.1821  0.2397 -1.7936
  133SAPE  H13S14362   2.580   5.045   9.452 -1.2195 -0.6404  0.2340
  133SAPE  C21414363   2.619   5.199   9.307 -0.3797  0.1129 -0.5758
  133SAPE  H14R14364   2.673   5.123   9.248 -1.2184 -2.4419  1.7419
  133SAPE  C21514365   2.632   5.328   9.266  0.4413  0.5271 -0.3788
  133SAPE  H15R14366   2.690   5.335   9.173 -1.7841  1.8292 -1.7730
  133SAPE  C21614367   2.575   5.462   9.318 -0.7094 -0.1682 -0.0760
  133SAPE  H16R14368   2.630   5.540   9.262  0.6855 -0.6961  0.5215
  133SAPE  H16S14369   2.610   5.468   9.424  1.5782  0.4746 -0.8178
  133SAPE  C21714370   2.424   5.473   9.301  0.2414  0.6202  0.7210
  133SAPE  H17R14371   2.386   5.560   9.359  0.9216 -0.7549  3.3591
  133SAPE  H17S14372   2.388   5.376   9.341 -2.9543  1.1059 -0.7007
  133SAPE  C21814373   2.365   5.461   9.151 -0.1913  0.1671 -0.2501
  133SAPE  H18R14374   2.254   5.456   9.153 -0.4901  3.8410 -0.2506
  133SAPE  H18S14375   2.407   5.368   9.107 -0.8619  0.1254 -0.8082
  133SAPE  C21914376   2.395   5.582   9.055 -0.1977  0.0880 -0.2269
  133SAPE  H19R14377   2.497   5.558   9.019 -0.3730 -1.7382  0.3681
  133SAPE  H19S14378   2.377   5.678   9.107 -2.5863 -0.8303  0.8457
  133SAPE  C22014379   2.296   5.583   8.943  0.9383  1.1025  0.0689
  133SAPE  H20R14380   2.195   5.596   8.988  0.4927 -1.5818  0.0165
  133SAPE  H20S14381   2.284   5.487   8.889 -0.4433  1.1237  0.2911
  133SAPE  H20T14382   2.317   5.662   8.867  2.3671 -1.7589 -2.7103
  133SAPE   C3314383   2.268   5.219  10.162 -0.0607  0.7014  0.2155
  133SAPE   H3X14384   2.230   5.276  10.250 -1.0829 -0.5776  0.6410
  133SAPE   H3Y14385   2.249   5.116  10.200  0.0674  0.3737 -0.5933
  133SAPE   C3414386   2.178   5.246  10.044 -0.1409  0.2564  0.2422
  133SAPE   H4X14387   2.075   5.222  10.078 -0.1930 -1.4166 -0.9771
  133SAPE   H4Y14388   2.206   5.178   9.960 -3.0442  0.0223 -0.6570
  133SAPE   C3514389   2.190   5.397   9.989  0.3963 -0.7191 -0.0765
  133SAPE   H5X14390   2.288   5.443   9.963  0.4133  0.2379  1.5685
  133SAPE   H5Y14391   2.151   5.464  10.068  2.0991 -0.3457  0.4975
  133SAPE   C3614392   2.106   5.421   9.865  0.1863  0.1070 -0.5746
  133SAPE   H6X14393   2.094   5.528   9.838 -0.1415  0.0192 -0.7873
  133SAPE   H6Y14394   2.004   5.379   9.880 -0.0824  0.4376 -1.4016
  133SAPE   C3714395   2.163   5.357   9.734 -0.2976 -0.3046 -1.1582
  133SAPE   H7X14396   2.189   5.250   9.752  2.7943  0.6931  1.0937
  133SAPE   H7Y14397   2.255   5.416   9.713 -0.2996 -0.4557 -1.6173
  133SAPE   C3814398   2.064   5.365   9.613  0.4892 -0.3629 -0.4540
  133SAPE   H8X14399   2.034   5.471   9.618  1.0724 -0.1994 -0.3068
  133SAPE   H8Y14400   1.982   5.294   9.636 -0.6419  1.2969  0.9054
  133SAPE   C3914401   2.119   5.333   9.473 -0.2319 -0.2128 -0.1162
  133SAPE   H9X14402   2.173   5.237   9.472 -0.6155 -0.4324 -0.0738
  133SAPE   H9Y14403   2.186   5.420   9.456 -1.8583  0.9213 -1.1212
  133SAPE  C31014404   2.019   5.334   9.354  0.2987  0.0308  0.3456
  133SAPE  H10X14405   2.079   5.317   9.262  1.9242  1.7996  1.0077
  133SAPE  H10Y14406   1.976   5.434   9.333 -0.5784 -0.5476 -0.7037
  133SAPE  C31114407   1.909   5.230   9.356 -0.1713  0.6727  0.4939
  133SAPE  H11X14408   1.833   5.246   9.435  0.5337 -0.5934  1.4780
  133SAPE  H11Y14409   1.957   5.132   9.380 -0.4103  0.0563 -1.3567
  133SAPE  C31214410   1.847   5.204   9.214 -0.2583 -0.1776 -0.2193
  133SAPE  H12X14411   1.930   5.199   9.140 -1.1958 -1.3052 -1.2502
  133SAPE  H12Y14412   1.786   5.293   9.188  1.7230  0.7757 -1.9531
  133SAPE  C31314413   1.760   5.081   9.206 -0.8188  0.1153 -0.6812
  133SAPE  H13X14414   1.673   5.092   9.275  1.6905 -0.5666  2.8241
  133SAPE  H13Y14415   1.814   4.989   9.236 -0.8906  0.5071  0.7081
  133SAPE  C31414416   1.714   5.080   9.051  0.6452 -0.1874  0.0830
  133SAPE  H14X14417   1.804   5.100   8.989  1.3488 -1.4390  0.6775
  133SAPE  H14Y14418   1.644   5.165   9.034 -0.2299 -0.6068  1.4687
  133SAPE  C31514419   1.659   4.942   9.011 -0.2901  0.3380  0.0295
  133SAPE  H15X14420   1.578   4.919   9.084 -2.0603  2.1188 -1.2422
  133SAPE  H15Y14421   1.737   4.866   9.032  0.3228  1.2367  1.0769
  133SAPE  C31614422   1.604   4.945   8.873  0.0037  0.4647 -0.1753
  133SAPE  H16X14423   1.682   4.980   8.802  1.6735  1.8086  2.1393
  133SAPE  H16Y14424   1.528   5.026   8.868  0.9791  1.3445 -1.4106
  133SAPE  C31714425   1.536   4.810   8.828  0.0891 -0.7748  0.4066
  133SAPE  H17X14426   1.476   4.781   8.917  0.4540  0.5304  1.0975
  133SAPE  H17Y14427   1.619   4.736   8.826 -0.0667 -0.9322 -1.8519
  133SAPE  C31814428   1.467   4.811   8.696 -0.0920 -0.8017  0.3390
  133SAPE  H18X14429   1.541   4.815   8.613 -0.6015 -3.2953 -0.3014
  133SAPE  H18Y14430   1.401   4.900   8.691  2.0899  0.9648  0.9548
  133SAPE  H18Z14431   1.400   4.724   8.682 -2.2781  0.8853 -0.3428
  134SAPE     N14432   4.798   0.400  10.873 -0.0896 -0.2507  0.0423
  134SAPE   HN114433   4.794   0.340  10.957  0.8240 -0.6002 -0.1517
  134SAPE   HN214434   4.894   0.440  10.865 -0.7662  1.6128  0.6103
  134SAPE   HN314435   4.734   0.482  10.879  2.3833  1.9695 -1.5462
  134SAPE   C1214436   4.798   0.340  10.734  0.1283  0.4235 -1.0055
  134SAPE  H12A14437   4.763   0.235  10.736  0.7932  0.1419 -2.7845
  134SAPE  H12B14438   4.904   0.319  10.707  1.1231  0.4206  2.3819
  134SAPE   C1114439   4.729   0.428  10.630 -0.5714 -0.1957  0.5610
  134SAPE  H11A14440   4.726   0.366  10.538 -0.6756  1.1985 -0.3949
  134SAPE  H11B14441   4.789   0.517  10.602  2.1572 -2.1905 -0.3704
  134SAPE     P14442   4.546   0.581  10.729 -0.1102  0.2310  0.6473
  134SAPE   O1314443   4.401   0.594  10.716  0.0356 -0.2062  0.1735
  134SAPE   O1414444   4.602   0.580  10.866 -0.0654 -0.1087 -0.4470
  134SAPE   O1214445   4.587   0.448  10.669 -1.0068  0.1347  0.3275
  134SAPE   O1114446   4.617   0.681  10.638 -0.1450 -0.2562 -0.3349
  134SAPE    C114447   4.538   0.743  10.536 -0.5925 -0.0316  0.0118
  134SAPE    HA14448   4.440   0.783  10.569 -0.0431  1.0128  0.4337
  134SAPE    HB14449   4.598   0.835  10.520 -2.1044  1.6955  3.1778
  134SAPE    C214450   4.515   0.655  10.413 -0.6216  0.2069 -0.5771
  134SAPE    HS14451   4.443   0.575  10.440  0.8094 -1.4016 -1.3114
  134SAPE   O2114452   4.647   0.607  10.369  0.1676  0.0643  0.1917
  134SAPE   C2114453   4.646   0.504  10.294  0.1843  1.0446 -0.0995
  134SAPE   O2214454   4.548   0.433  10.278  0.3439  0.4120 -0.7878
  134SAPE   C2214455   4.778   0.475  10.238 -0.6294 -0.0695 -0.3991
  134SAPE   H2R14456   4.833   0.572  10.231 -1.7753  0.6119 -0.1552
  134SAPE   H2S14457   4.833   0.403  10.302  3.7084  1.9545 -1.4538
  134SAPE    C314458   4.453   0.729  10.294 -0.3268  0.7903 -0.4965
  134SAPE    HX14459   4.516   0.820  10.286  1.5967 -0.0581  3.0389
  134SAPE    HY14460   4.350   0.758  10.325 -0.2907  0.0969  0.3022
  134SAPE   O3114461   4.461   0.662  10.171  0.4364  0.0686  0.2161
  134SAPE   C3114462   4.356   0.611  10.115 -0.6589 -0.5234  0.6193
  134SAPE   O3214463   4.247   0.603  10.167  0.0908 -0.6220 -0.3920
  134SAPE   C3214464   4.381   0.581   9.962  0.9418 -0.1290 -0.1919
  134SAPE   H2X14465   4.310   0.497   9.945  2.0170 -1.1856  0.3543
  134SAPE   H2Y14466   4.485   0.545   9.952  0.8952  0.2077 -2.3405
  134SAPE   C2314467   4.762   0.401  10.103 -0.7815  0.0904 -0.3577
  134SAPE   H3R14468   4.708   0.465  10.030  0.0473  0.3199 -0.7773
  134SAPE   H3S14469   4.711   0.303  10.113 -1.8621  0.6921  0.1578
  134SAPE   C2414470   4.902   0.358  10.050  0.3421 -0.0516 -0.0901
  134SAPE   H4R14471   4.950   0.290  10.123  0.6394  0.5147  0.2523
  134SAPE   H4S14472   4.975   0.438  10.024 -0.3082  0.9261  1.0288
  134SAPE   C2514473   4.869   0.264   9.937  1.1986  0.1581  0.1828
  134SAPE   H5R14474   4.875   0.156   9.959 -0.3200  0.1607  0.6945
  134SAPE   C2614475   4.834   0.306   9.815  0.2860  0.0753  0.5190
  134SAPE   H6R14476   4.810   0.231   9.738  1.5032  0.0287  0.1623
  134SAPE   C2714477   4.811   0.451   9.767  0.4580 -0.1669  0.3952
  134SAPE   H7R14478   4.907   0.489   9.726 -1.4426  0.6384 -3.7508
  134SAPE   H7S14479   4.808   0.525   9.850 -0.3829 -0.1095  0.3170
  134SAPE   C2814480   4.707   0.470   9.660 -0.4836  1.0178  0.2694
  134SAPE   H8R14481   4.606   0.503   9.688 -0.5914  0.1622  0.9383
  134SAPE   C2914482   4.716   0.437   9.529 -0.3674  0.1345 -0.5103
  134SAPE   H9R14483   4.627   0.466   9.471 -1.8429  1.4983  2.2516
  134SAPE  C21014484   4.835   0.381   9.459  0.8796 -0.3650  0.4485
  134SAPE  H10R14485   4.914   0.339   9.525  0.4257  1.3297  2.1719
  134SAPE  H10S14486   4.897   0.459   9.410 -1.6253  1.9909  0.8133
  134SAPE  C21114487   4.791   0.283   9.353 -0.1370 -0.6612  0.6936
  134SAPE  H11R14488   4.694   0.240   9.383 -1.3561  0.9486 -0.7064
  134SAPE  C21214489   4.860   0.249   9.242 -0.2247  0.0779  0.1444
  134SAPE  H12R14490   4.812   0.177   9.174  0.2906  0.9463 -1.1677
  134SAPE  C21314491   4.994   0.300   9.193  0.1354  0.2175 -0.6015
  134SAPE  H13R14492   5.028   0.390   9.249 -1.2899  0.4154 -0.0167
  134SAPE  H13S14493   4.975   0.338   9.090  0.0369 -2.1644 -1.5234
  134SAPE  C21414494   5.101   0.195   9.183  0.3730  0.3130 -0.0066
  134SAPE  H14R14495   5.113   0.142   9.279  1.4264 -0.0677 -0.3297
  134SAPE  C21514496   5.198   0.189   9.090 -0.3883  0.1288 -0.1853
  134SAPE  H15R14497   5.255   0.095   9.082  0.3622  0.3830  1.7153
  134SAPE  C21614498   5.207   0.278   8.971 -0.6615 -0.2053  0.1956
  134SAPE  H16R14499   5.304   0.332   8.967  0.0307 -1.4697 -1.0270
  134SAPE  H16S14500   5.136   0.363   8.978 -2.0914 -1.4300  1.2497
  134SAPE  C21714501   5.192   0.206   8.836 -0.2646  0.5710  0.8348
  134SAPE  H17R14502   5.172   0.278   8.753 -3.5539 -0.9719  0.1330
  134SAPE  H17S14503   5.102   0.142   8.823  0.3220 -0.0614 -0.2700
  134SAPE  C21814504   5.315   0.124   8.795  0.0382 -0.3492  0.0906
  134SAPE  H18R14505   5.293   0.016   8.810 -0.3791 -0.1687  0.8610
  134SAPE  H18S14506   5.402   0.161   8.854  1.2106  2.2106 -2.9509
  134SAPE  C21914507   5.360   0.126   8.650 -0.1149  0.7775  0.1546
  134SAPE  H19R14508   5.386   0.233   8.632  0.9764  1.1400  3.2658
  134SAPE  H19S14509   5.280   0.103   8.577  0.6765 -1.8755  0.0427
  134SAPE  C22014510   5.475   0.032   8.612  0.3886 -0.0009 -0.4071
  134SAPE  H20R14511   5.495   0.040   8.503  0.8851  1.5149 -0.2381
  134SAPE  H20S14512   5.455  -0.076   8.625 -1.4971 -0.0724 -3.0497
  134SAPE  H20T14513   5.563   0.069   8.670 -0.9704 -0.8106  2.3308
  134SAPE   C3314514   4.344   0.706   9.863 -0.2504 -0.0156 -0.2722
  134SAPE   H3X14515   4.390   0.802   9.894 -0.5237  0.1035 -0.2399
  134SAPE   H3Y14516   4.235   0.724   9.860 -0.0043  1.5212 -1.0682
  134SAPE   C3414517   4.388   0.690   9.715 -0.2658 -0.2235  0.1504
  134SAPE   H4X14518   4.375   0.582   9.691  2.3289  0.0084 -2.8523
  134SAPE   H4Y14519   4.496   0.705   9.698 -0.3944 -0.4645 -0.9388
  134SAPE   C3514520   4.313   0.774   9.610 -0.5931  0.1089 -0.0548
  134SAPE   H5X14521   4.311   0.879   9.646  3.2698 -0.1826  1.4835
  134SAPE   H5Y14522   4.209   0.736   9.606 -1.0580  1.3832 -0.7668
  134SAPE   C3614523   4.360   0.763   9.458  0.0620  0.0626  0.2779
  134SAPE   H6X14524   4.282   0.802   9.388 -0.1169 -2.9000 -1.3315
  134SAPE   H6Y14525   4.373   0.656   9.433 -0.9955 -0.6726  2.5669
  134SAPE   C3714526   4.478   0.856   9.435 -0.5252 -0.1802  0.2273
  134SAPE   H7X14527   4.561   0.822   9.502 -0.5302 -0.6133  0.0144
  134SAPE   H7Y14528   4.457   0.960   9.468  0.0005  0.0402 -0.1118
  134SAPE   C3814529   4.527   0.853   9.291  0.1112  0.1538  0.8702
  134SAPE   H8X14530   4.616   0.920   9.290  0.7600 -0.5653  3.3627
  134SAPE   H8Y14531   4.454   0.896   9.219 -1.0178 -0.2145  1.7640
  134SAPE   C3914532   4.584   0.720   9.242  0.1863 -0.3315 -0.9507
  134SAPE   H9X14533   4.524   0.643   9.294 -0.4220  0.6110 -0.2288
  134SAPE   H9Y14534   4.692   0.712   9.268  0.3166  1.2740 -0.9135
  134SAPE  C31014535   4.582   0.706   9.092  0.3482 -0.0900 -0.0034
  134SAPE  H10X14536   4.600   0.809   9.054 -0.3781 -0.7197 -2.2275
  134SAPE  H10Y14537   4.483   0.674   9.054  0.6520 -0.6774 -0.3129
  134SAPE  C31114538   4.679   0.599   9.045 -0.1769 -0.2288 -0.3430
  134SAPE  H11X14539   4.659   0.513   9.112  0.8255 -0.1874  0.0213
  134SAPE  H11Y14540   4.782   0.639   9.053 -1.0387  2.5752 -1.9998
  134SAPE  C31214541   4.664   0.560   8.897 -0.1795  0.5879  0.0244
  134SAPE  H12X14542   4.710   0.631   8.825  0.9663  2.3276  2.3733
  134SAPE  H12Y14543   4.554   0.558   8.881  0.0194 -1.0097 -1.5447
  134SAPE  C31314544   4.706   0.418   8.849  0.2965  0.6534 -0.3583
  134SAPE  H13X14545   4.666   0.339   8.916  1.5049 -2.6611 -3.2427
  134SAPE  H13Y14546   4.816   0.410   8.860  0.2822  0.8249 -0.0727
  134SAPE  C31414547   4.664   0.401   8.699 -0.0146  0.7765 -0.1680
  134SAPE  H14X14548   4.692   0.493   8.643 -2.4477 -0.0623 -3.0382
  134SAPE  H14Y14549   4.553   0.400   8.694 -0.1209  1.0139  1.4295
  134SAPE  C31514550   4.725   0.279   8.633  0.4263 -0.0999  0.2768
  134SAPE  H15X14551   4.697   0.188   8.691  1.8012  0.6918  2.3172
  134SAPE  H15Y14552   4.833   0.304   8.644 -0.2165  2.3099  1.8627
  134SAPE  C31614553   4.690   0.247   8.493 -0.1534 -0.3143 -0.0051
  134SAPE  H16X14554   4.736   0.150   8.467  0.4919  0.0384 -0.2021
  134SAPE  H16Y14555   4.732   0.329   8.430  0.2608 -0.0289  0.6313
  134SAPE  C31714556   4.539   0.251   8.471  0.0496 -0.4088  0.0400
  134SAPE  H17X14557   4.513   0.358   8.460 -1.3457 -0.7093  0.2819
  134SAPE  H17Y14558   4.487   0.203   8.557  2.3184 -0.5539  1.4213
  134SAPE  C31814559   4.508   0.186   8.333  0.2952 -0.0600  0.2261
  134SAPE  H18X14560   4.406   0.222   8.310  0.4548  1.9120  2.2302
  134SAPE  H18Y14561   4.504   0.075   8.339 -1.2025  0.0038  0.7507
  134SAPE  H18Z14562   4.579   0.194   8.248 -0.1222  0.5741 -0.0598
  135SAPE     N14563   3.416   6.159  10.462  0.1148 -0.9962 -0.5181
  135SAPE   HN114564   3.365   6.128  10.376  0.2511  0.7279 -1.2533
  135SAPE   HN214565   3.363   6.240  10.499  2.2724 -0.2712  1.1326
  135SAPE   HN314566   3.510   6.192  10.434  0.2710 -0.9319  0.0893
  135SAPE   C1214567   3.417   6.042  10.559  0.1162 -0.3271 -0.3266
  135SAPE  H12A14568   3.317   5.994  10.545 -0.1531  0.7708 -2.4762
  135SAPE  H12B14569   3.438   6.085  10.660 -0.4012  1.3877 -0.9280
  135SAPE   C1114570   3.534   5.952  10.517 -0.1373  0.2602  0.1695
  135SAPE  H11A14571   3.622   6.020  10.507  1.1592 -1.6859 -2.9492
  135SAPE  H11B14572   3.531   5.902  10.418 -0.6549 -1.0845  0.8351
  135SAPE     P14573   3.508   5.705  10.608 -0.1653 -0.1419 -0.3520
  135SAPE   O1314574   3.493   5.640  10.738  0.0899  0.2096 -0.5610
  135SAPE   O1414575   3.394   5.704  10.516  0.7917 -0.5948  0.3912
  135SAPE   O1214576   3.568   5.854  10.620 -0.1883 -0.5592  0.6169
  135SAPE   O1114577   3.622   5.618  10.533 -0.0282  0.4129 -0.1381
  135SAPE    C114578   3.753   5.679  10.517 -0.1425  0.0150 -0.7392
  135SAPE    HA14579   3.775   5.758  10.592  0.2058 -1.0011  0.2505
  135SAPE    HB14580   3.829   5.601  10.535  0.9876  0.6642 -2.4856
  135SAPE    C214581   3.771   5.723  10.364  0.8022  0.7703 -0.7274
  135SAPE    HS14582   3.691   5.800  10.360 -0.8086 -0.5469  2.4481
  135SAPE   O2114583   3.749   5.609  10.276 -0.4290 -0.4568  0.0579
  135SAPE   C2114584   3.658   5.616  10.178 -0.1715 -0.5793  0.0156
  135SAPE   O2214585   3.602   5.722  10.154 -0.0780 -0.2308  0.1378
  135SAPE   C2214586   3.636   5.494  10.082 -0.0450  0.3122 -0.1322
  135SAPE   H2R14587   3.620   5.406  10.148  2.4123 -0.9803 -1.1157
  135SAPE   H2S14588   3.543   5.514  10.025  0.3881 -1.9877 -1.8223
  135SAPE    C314589   3.903   5.785  10.341 -0.1493 -0.0305  0.3381
  135SAPE    HX14590   3.972   5.706  10.375 -2.4074 -1.9647  0.7208
  135SAPE    HY14591   3.918   5.872  10.409 -0.8233  0.9806 -0.7597
  135SAPE   O3114592   3.918   5.827  10.199 -0.4387  0.1656 -0.0889
  135SAPE   C3114593   4.050   5.828  10.162 -0.9365  0.4111 -0.2369
  135SAPE   O3214594   4.145   5.811  10.235 -0.3751  0.4882 -0.4800
  135SAPE   C3214595   4.059   5.827  10.012  0.2806  0.7431 -0.2290
  135SAPE   H2X14596   4.151   5.886   9.993  0.2870  0.7027 -0.3212
  135SAPE   H2Y14597   3.971   5.882   9.973 -1.0332  0.0491  1.6070
  135SAPE   C2314598   3.762   5.445  10.008 -0.3700 -0.3914 -0.1118
  135SAPE   H3R14599   3.841   5.437  10.085 -0.0585  0.3886 -0.3404
  135SAPE   H3S14600   3.789   5.522   9.933 -2.6254 -0.4211 -1.0372
  135SAPE   C2414601   3.749   5.321   9.925 -0.0269 -0.3565  0.5263
  135SAPE   H4R14602   3.828   5.324   9.846  0.8718 -1.8158  1.3279
  135SAPE   H4S14603   3.662   5.324   9.856  0.3355  0.1263  0.0759
  135SAPE   C2514604   3.775   5.195  10.011 -0.6893 -0.3132  0.7115
  135SAPE   H5R14605   3.878   5.190  10.050  0.2584  1.4939 -1.3499
  135SAPE   C2614606   3.697   5.088  10.032  0.1911 -0.6503 -0.0766
  135SAPE   H6R14607   3.728   5.005  10.097 -2.4255 -0.8295  1.0486
  135SAPE   C2714608   3.573   5.059   9.957  0.8038 -0.5195  0.5598
  135SAPE   H7R14609   3.552   5.152   9.900  0.6724  0.2229  1.7818
  135SAPE   H7S14610   3.493   5.044  10.032  2.4408 -0.3565  2.4199
  135SAPE   C2814611   3.577   4.934   9.879  0.3108 -0.1380 -0.1865
  135SAPE   H8R14612   3.658   4.864   9.905  1.0341  1.6624  3.0691
  135SAPE   C2914613   3.498   4.907   9.775  0.4418  0.2962  0.4777
  135SAPE   H9R14614   3.511   4.808   9.729  0.7748  0.5235  0.0749
  135SAPE  C21014615   3.393   4.993   9.715  0.3997  0.2042 -1.1012
  135SAPE  H10R14616   3.386   4.977   9.605  0.4312  1.2743 -1.2684
  135SAPE  H10S14617   3.427   5.099   9.713 -0.0996  0.4190  0.4991
  135SAPE  C21114618   3.252   4.990   9.776  0.2716 -0.8695  0.2554
  135SAPE  H11R14619   3.241   5.053   9.865 -0.5974  0.9957 -1.0847
  135SAPE  C21214620   3.143   4.949   9.706  0.4232  0.2474 -0.5712
  135SAPE  H12R14621   3.043   4.955   9.752 -1.6434 -2.5418 -4.1501
  135SAPE  C21314622   3.143   4.888   9.570  0.2176 -0.0208  0.2420
  135SAPE  H13R14623   3.082   4.795   9.555 -0.4413  0.1931  1.4322
  135SAPE  H13S14624   3.244   4.846   9.551 -0.0124 -0.1941 -0.6851
  135SAPE  C21414625   3.117   4.978   9.451  0.1174  0.1912 -0.5322
  135SAPE  H14R14626   3.069   5.073   9.477 -0.1651  0.2428 -1.2197
  135SAPE  C21514627   3.130   4.956   9.321  0.1621  0.2348 -0.2501
  135SAPE  H15R14628   3.095   5.035   9.253 -0.1883  1.4355  1.2536
  135SAPE  C21614629   3.188   4.832   9.264  0.2793  0.4454 -0.0355
  135SAPE  H16R14630   3.118   4.748   9.283 -0.3669  0.7301 -1.0857
  135SAPE  H16S14631   3.282   4.819   9.320  0.3041  0.5846 -0.0424
  135SAPE  C21714632   3.225   4.819   9.115 -0.4200 -0.3593 -0.1612
  135SAPE  H17R14633   3.265   4.916   9.077 -0.8374 -0.5931 -1.2067
  135SAPE  H17S14634   3.124   4.812   9.071  0.0269  0.6135 -1.4118
  135SAPE  C21814635   3.312   4.701   9.065  0.4942  0.4063  0.3256
  135SAPE  H18R14636   3.265   4.614   9.116  1.8805 -1.2842 -1.1488
  135SAPE  H18S14637   3.417   4.714   9.099  0.0302  3.6688  0.8441
  135SAPE  C21914638   3.302   4.687   8.912 -0.6091 -0.0930  0.2498
  135SAPE  H19R14639   3.408   4.678   8.880 -0.6398 -1.1392  0.4123
  135SAPE  H19S14640   3.254   4.776   8.867  0.2497 -0.8479 -2.3345
  135SAPE  C22014641   3.225   4.564   8.871  0.6267  0.6505  0.4441
  135SAPE  H20R14642   3.262   4.472   8.922 -0.5345  0.5729  1.2038
  135SAPE  H20S14643   3.242   4.553   8.762  0.0766  0.0505  0.4085
  135SAPE  H20T14644   3.119   4.569   8.904  0.6229  1.1663  0.3536
  135SAPE   C3314645   4.070   5.678   9.952  0.0774  0.1760 -0.0077
  135SAPE   H3X14646   3.972   5.637   9.986 -2.2910  3.8931 -1.7009
  135SAPE   H3Y14647   4.156   5.626   9.999  1.1358 -1.0756 -3.0469
  135SAPE   C3414648   4.090   5.657   9.797 -0.1557 -0.1625  0.8530
  135SAPE   H4X14649   4.086   5.546   9.792  1.8725 -0.2410 -0.0077
  135SAPE   H4Y14650   4.189   5.692   9.758 -0.6874  2.3207  1.5467
  135SAPE   C3514651   3.983   5.721   9.704  0.0191 -0.6309 -0.3061
  135SAPE   H5X14652   3.978   5.831   9.713  3.6739  0.1089 -4.2994
  135SAPE   H5Y14653   3.887   5.686   9.749  0.3125 -1.4442 -0.2954
  135SAPE   C3614654   4.010   5.683   9.561  1.1374  0.1270 -0.5140
  135SAPE   H6X14655   4.024   5.573   9.561 -0.6636 -0.1477  0.6169
  135SAPE   H6Y14656   4.104   5.728   9.522 -0.4599  2.0936 -2.3302
  135SAPE   C3714657   3.901   5.723   9.467 -0.4008 -0.3278  0.7368
  135SAPE   H7X14658   3.895   5.834   9.472 -1.0460 -0.3857  1.3191
  135SAPE   H7Y14659   3.809   5.679   9.510 -0.2044 -0.5167  0.9735
  135SAPE   C3814660   3.939   5.700   9.319 -0.0457  0.7463  0.1310
  135SAPE   H8X14661   3.975   5.598   9.294 -1.1945  0.0566  1.2259
  135SAPE   H8Y14662   4.029   5.766   9.308  0.6234  0.1912  1.9786
  135SAPE   C3914663   3.825   5.749   9.224 -0.0844  0.0317 -0.0302
  135SAPE   H9X14664   3.769   5.825   9.282 -0.0057 -1.6586  2.4184
  135SAPE   H9Y14665   3.757   5.664   9.198  1.3434 -1.0083 -0.4672
  135SAPE  C31014666   3.877   5.818   9.098 -0.3741  0.0392 -0.3388
  135SAPE  H10X14667   3.931   5.736   9.047 -0.1200  1.3167 -2.1954
  135SAPE  H10Y14668   3.956   5.892   9.126  0.2148 -0.1254 -1.5042
  135SAPE  C31114669   3.772   5.878   9.007  0.1315 -0.1354  0.9159
  135SAPE  H11X14670   3.710   5.965   9.037 -0.1545 -0.0234  0.0304
  135SAPE  H11Y14671   3.699   5.797   8.985  0.4856  0.0721 -1.2431
  135SAPE  C31214672   3.812   5.908   8.861 -0.0548 -0.4121  0.5809
  135SAPE  H12X14673   3.723   5.909   8.794  0.4495  1.0538 -0.1112
  135SAPE  H12Y14674   3.888   5.836   8.824 -0.0070  0.5830 -1.3938
  135SAPE  C31314675   3.872   6.046   8.855 -0.1517  0.0842  0.6165
  135SAPE  H13X14676   3.926   6.067   8.760  0.3494 -2.7720  0.1650
  135SAPE  H13Y14677   3.957   6.060   8.926  1.3255  0.3075 -1.1268
  135SAPE  C31414678   3.783   6.165   8.883  0.2724  0.0136 -0.0746
  135SAPE  H14X14679   3.782   6.194   8.991 -2.5714  0.2530 -0.0703
  135SAPE  H14Y14680   3.677   6.141   8.858  0.4257 -0.9555  0.1605
  135SAPE  C31514681   3.810   6.283   8.788  0.2107  0.3501 -0.1996
  135SAPE  H15X14682   3.722   6.350   8.795 -1.8889 -2.2378  0.1202
  135SAPE  H15Y14683   3.813   6.238   8.686  1.7685 -1.0459  0.4072
  135SAPE  C31614684   3.932   6.351   8.845  0.0375 -0.9810 -0.4621
  135SAPE  H16X14685   4.022   6.292   8.820  1.5745  1.0431  0.0052
  135SAPE  H16Y14686   3.922   6.367   8.955  0.0630  0.7944 -0.6908
  135SAPE  C31714687   3.955   6.485   8.774  0.3144  0.6973  0.0015
  135SAPE  H17X14688   4.055   6.522   8.805  1.5739 -1.2724 -1.4688
  135SAPE  H17Y14689   3.883   6.561   8.811  2.0059  2.7547 -0.7526
  135SAPE  C31814690   3.963   6.482   8.627  0.3126 -0.5473  0.4323
  135SAPE  H18X14691   3.999   6.581   8.593  0.4976 -0.8028 -0.1369
  135SAPE  H18Y14692   3.865   6.465   8.576  0.2480  3.0542 -0.9064
  135SAPE  H18Z14693   4.035   6.407   8.586  0.4293 -0.6915  0.9023
  136SAPE     N14694   6.150   5.215  11.178 -0.0354  0.2145  0.4800
  136SAPE   HN114695   6.099   5.302  11.203  0.2003  0.4859  0.0385
  136SAPE   HN214696   6.205   5.177  11.257  0.9226  1.9933  0.7022
  136SAPE   HN314697   6.218   5.235  11.102  0.7497 -0.0906  1.0963
  136SAPE   C1214698   6.059   5.109  11.125  0.7460  0.7697 -0.3865
  136SAPE  H12A14699   6.004   5.073  11.215  0.6817 -3.0479 -1.7819
  136SAPE  H12B14700   6.126   5.026  11.094 -0.9963  0.3185 -3.4335
  136SAPE   C1114701   5.968   5.158  11.016 -0.4722 -0.4418  0.1431
  136SAPE  H11A14702   5.914   5.069  10.977 -0.9310  0.4935 -1.4292
  136SAPE  H11B14703   6.027   5.207  10.936 -0.1340  1.6855  1.6065
  136SAPE     P14704   5.854   5.395  11.016  0.4662  0.0170  0.2309
  136SAPE   O1314705   5.731   5.455  11.071  0.1562  0.6659  0.1358
  136SAPE   O1414706   5.982   5.458  11.050  0.2772  0.3773 -0.0836
  136SAPE   O1214707   5.866   5.242  11.072 -0.0178  0.3448  0.4664
  136SAPE   O1114708   5.842   5.384  10.857 -0.4187  0.4457 -0.2858
  136SAPE    C114709   5.716   5.347  10.797 -0.0399 -0.1495  0.6536
  136SAPE    HA14710   5.632   5.337  10.869  0.5845 -1.0992  1.2723
  136SAPE    HB14711   5.684   5.429  10.728  0.7026  0.9890  1.6215
  136SAPE    C214712   5.734   5.208  10.720  0.7041  0.0246 -0.2821
  136SAPE    HS14713   5.762   5.132  10.795  1.8487 -0.1394 -0.8474
  136SAPE   O2114714   5.824   5.234  10.610  0.5550  0.3485 -0.2530
  136SAPE   C2114715   5.938   5.164  10.601 -0.1899 -0.0729  0.4812
  136SAPE   O2214716   5.973   5.074  10.675 -0.1536  0.2553 -0.3189
  136SAPE   C2214717   6.016   5.223  10.485 -0.1340  0.3335 -0.9164
  136SAPE   H2R14718   5.951   5.279  10.414 -1.4302 -0.0119 -0.0433
  136SAPE   H2S14719   6.083   5.296  10.536 -1.7514  0.2178  1.5368
  136SAPE    C314720   5.608   5.161  10.654  0.1165  0.8318  0.0430
  136SAPE    HX14721   5.581   5.226  10.568 -4.2269  1.9483  1.9302
  136SAPE    HY14722   5.513   5.160  10.712 -2.1909 -0.1824 -3.4591
  136SAPE   O3114723   5.630   5.025  10.614  0.5902  0.1970  0.0519
  136SAPE   C3114724   5.657   5.004  10.482  0.5892 -0.8034 -0.2367
  136SAPE   O3214725   5.645   5.085  10.391  0.2849 -0.0335 -0.3196
  136SAPE   C3214726   5.684   4.857  10.465  0.4602 -0.8710 -0.2749
  136SAPE   H2X14727   5.604   4.796  10.510 -0.6334  0.4997 -0.3013
  136SAPE   H2Y14728   5.775   4.834  10.525 -0.2119 -0.9733  0.7177
  136SAPE   C2314729   6.090   5.116  10.408 -0.1796 -0.1346 -0.0945
  136SAPE   H3R14730   6.021   5.038  10.369  0.3553  0.8173 -3.1985
  136SAPE   H3S14731   6.171   5.091  10.480  1.0840  0.5034 -1.2562
  136SAPE   C2414732   6.154   5.178  10.280 -0.3463  0.1022 -0.1478
  136SAPE   H4R14733   6.069   5.201  10.213  1.4771  0.2289 -2.5316
  136SAPE   H4S14734   6.210   5.093  10.235 -2.3585 -0.2115 -2.1826
  136SAPE   C2514735   6.246   5.290  10.315 -0.2165 -0.8263  0.0546
  136SAPE   H5R14736   6.319   5.273  10.396  1.2927 -0.2014 -1.1177
  136SAPE   C2614737   6.250   5.412  10.265  0.5814 -0.9503  0.5547
  136SAPE   H6R14738   6.307   5.488  10.321  1.6383 -1.4303  0.1563
  136SAPE   C2714739   6.149   5.468  10.167 -0.7546 -0.3973  0.8155
  136SAPE   H7R14740   6.092   5.551  10.213 -1.6678  0.7630 -2.1936
  136SAPE   H7S14741   6.074   5.394  10.130  0.1558 -0.5875 -0.7207
  136SAPE   C2814742   6.221   5.531  10.048 -0.2915  0.5178 -0.0923
  136SAPE   H8R14743   6.272   5.625  10.074 -0.4364  0.2466  1.2931
  136SAPE   C2914744   6.239   5.470   9.925 -0.3748  0.2195  0.4312
  136SAPE   H9R14745   6.278   5.527   9.839 -1.1027 -2.9876 -2.2395
  136SAPE  C21014746   6.191   5.331   9.889  0.0029 -0.3004  0.3993
  136SAPE  H10R14747   6.082   5.339   9.867 -0.1218  2.5349  1.5684
  136SAPE  H10S14748   6.202   5.274   9.983 -1.5419  1.4419  1.7021
  136SAPE  C21114749   6.273   5.255   9.784 -0.4037  0.4774  0.1365
  136SAPE  H11R14750   6.322   5.161   9.815 -1.6320 -0.5380 -0.9442
  136SAPE  C21214751   6.269   5.281   9.656  0.2174 -0.6480 -1.1699
  136SAPE  H12R14752   6.336   5.225   9.590  0.6612  0.3277 -1.5677
  136SAPE  C21314753   6.182   5.386   9.588 -0.3556 -0.7098 -0.0845
  136SAPE  H13R14754   6.105   5.425   9.657  0.5249  0.2209  0.3881
  136SAPE  H13S14755   6.130   5.321   9.514 -0.4922  0.6562 -1.2203
  136SAPE  C21414756   6.261   5.499   9.535 -0.2569 -0.6939  0.0893
  136SAPE  H14R14757   6.322   5.553   9.608  0.5117 -2.1187  0.5417
  136SAPE  C21514758   6.267   5.538   9.404  0.4547 -0.3126  0.3457
  136SAPE  H15R14759   6.304   5.637   9.375 -0.7897  0.0535 -0.0652
  136SAPE  C21614760   6.175   5.476   9.303  0.0517  0.2897 -0.1792
  136SAPE  H16R14761   6.138   5.553   9.232 -0.1637 -0.1306 -0.5192
  136SAPE  H16S14762   6.089   5.423   9.349  1.2200 -1.9182 -0.4267
  136SAPE  C21714763   6.250   5.369   9.230 -0.3089  0.4395  0.5475
  136SAPE  H17R14764   6.306   5.302   9.297 -1.2354  0.1851  1.0897
  136SAPE  H17S14765   6.328   5.421   9.170 -0.7752  1.1553  0.5415
  136SAPE  C21814766   6.164   5.289   9.126  0.7544  0.4996 -0.6768
  136SAPE  H18R14767   6.078   5.236   9.172  0.3640  0.7844 -1.0619
  136SAPE  H18S14768   6.232   5.214   9.080 -1.1785 -2.1116  0.4875
  136SAPE  C21914769   6.119   5.382   9.018  1.3262  0.4103 -0.6195
  136SAPE  H19R14770   6.196   5.459   8.994  1.8596 -0.0168 -0.2854
  136SAPE  H19S14771   6.034   5.446   9.051  0.6635  0.1204 -1.7187
  136SAPE  C22014772   6.089   5.311   8.889  0.3087  0.3665  0.1344
  136SAPE  H20R14773   6.169   5.240   8.861 -1.9993 -2.4809  0.2644
  136SAPE  H20S14774   6.057   5.382   8.809 -3.4992 -2.0524 -0.7397
  136SAPE  H20T14775   6.001   5.244   8.897 -0.2981  0.5635 -3.1593
  136SAPE   C3314776   5.697   4.804  10.319 -0.8504  0.2953 -0.2815
  136SAPE   H3X14777   5.795   4.841  10.284 -0.9121 -0.7886 -1.6823
  136SAPE   H3Y14778   5.612   4.840  10.257  0.4601 -0.0195 -2.3775
  136SAPE   C3414779   5.703   4.645  10.327  0.3490  0.2704  1.0172
  136SAPE   H4X14780   5.629   4.621  10.406  1.0144  0.4994  1.7150
  136SAPE   H4Y14781   5.802   4.606  10.358  1.5999  1.2481 -1.4089
  136SAPE   C3514782   5.668   4.569  10.199 -0.8221  0.6953  0.5679
  136SAPE   H5X14783   5.561   4.585  10.174 -0.4469  0.1874 -1.5187
  136SAPE   H5Y14784   5.693   4.463  10.217 -1.2784  0.6414  0.9156
  136SAPE   C3614785   5.768   4.617  10.088  0.5103 -0.4580  0.0043
  136SAPE   H6X14786   5.874   4.612  10.121  0.9302  0.8665 -1.0509
  136SAPE   H6Y14787   5.744   4.721  10.058  1.9395 -0.5213 -1.5187
  136SAPE   C3714788   5.749   4.541   9.953 -0.3694  0.6489  0.9397
  136SAPE   H7X14789   5.763   4.433   9.976 -0.8881 -0.3342 -2.6463
  136SAPE   H7Y14790   5.833   4.573   9.889 -0.7478  0.4683  0.3384
  136SAPE   C3814791   5.617   4.577   9.877 -0.8507  0.2598  0.6219
  136SAPE   H8X14792   5.638   4.682   9.847  0.9350 -0.8618 -2.5223
  136SAPE   H8Y14793   5.529   4.572   9.945 -1.3476  0.1326 -0.0172
  136SAPE   C3914794   5.603   4.511   9.743  0.1713  0.5376  0.7370
  136SAPE   H9X14795   5.607   4.400   9.753 -1.7768  0.4026  0.3358
  136SAPE   H9Y14796   5.683   4.553   9.678  2.1906 -0.0470  2.7157
  136SAPE  C31014797   5.468   4.541   9.675 -1.1473 -0.6561  0.4085
  136SAPE  H10X14798   5.445   4.649   9.683 -4.1278 -1.3024  1.8492
  136SAPE  H10Y14799   5.389   4.493   9.737  0.2607 -1.1480  1.8721
  136SAPE  C31114800   5.467   4.477   9.529 -0.5005  0.5681 -0.3077
  136SAPE  H11X14801   5.366   4.439   9.503  0.0291  0.5203 -2.5167
  136SAPE  H11Y14802   5.537   4.392   9.523  0.8204  1.5763  0.3119
  136SAPE  C31214803   5.501   4.586   9.422 -0.0795 -0.3620 -0.3120
  136SAPE  H12X14804   5.609   4.614   9.419  0.2176 -1.4882 -0.7903
  136SAPE  H12Y14805   5.438   4.676   9.431 -0.0567 -0.3975  0.2376
  136SAPE  C31314806   5.464   4.536   9.276  0.1443 -0.7391 -0.4893
  136SAPE  H13X14807   5.476   4.630   9.218  1.1473  0.5729  1.6971
  136SAPE  H13Y14808   5.355   4.515   9.279 -0.1760  0.8478  0.3976
  136SAPE  C31414809   5.562   4.440   9.216  0.0750  0.5545  0.5454
  136SAPE  H14X14810   5.561   4.355   9.288 -1.2404  1.7894  2.0708
  136SAPE  H14Y14811   5.666   4.478   9.208  0.3008  0.5916  2.8430
  136SAPE  C31514812   5.514   4.387   9.079  0.0745  0.6024  0.0253
  136SAPE  H15X14813   5.447   4.299   9.092  0.7704 -0.0076 -0.4472
  136SAPE  H15Y14814   5.605   4.347   9.030 -0.6257  0.0451 -0.8611
  136SAPE  C31614815   5.423   4.474   8.992 -0.6515  0.1951 -0.5859
  136SAPE  H16X14816   5.339   4.499   9.060  0.9172 -1.1672  2.0302
  136SAPE  H16Y14817   5.386   4.406   8.912  2.1326 -1.3472 -0.7118
  136SAPE  C31714818   5.491   4.596   8.932 -0.1505  0.4751  0.7532
  136SAPE  H17X14819   5.559   4.558   8.852 -1.8862  1.6866 -1.4073
  136SAPE  H17Y14820   5.550   4.640   9.015  2.4978  0.4983 -0.9867
  136SAPE  C31814821   5.416   4.706   8.866 -0.3520  0.6522  0.1739
  136SAPE  H18X14822   5.489   4.785   8.838  0.3055 -0.4377 -1.3188
  136SAPE  H18Y14823   5.324   4.736   8.922 -1.1856  2.2252 -1.9006
  136SAPE  H18Z14824   5.367   4.668   8.773  0.4523 -2.2437  0.8524
  137SAPE     N14825   4.340   1.436  10.897  0.0879 -0.0212  0.1100
  137SAPE   HN114826   4.394   1.366  10.841 -0.3960 -1.4950  1.4300
  137SAPE   HN214827   4.252   1.390  10.926  0.6071 -0.1396  1.5607
  137SAPE   HN314828   4.307   1.520  10.846  0.6468  1.4147  2.0300
  137SAPE   C1214829   4.429   1.489  11.002  1.4395  0.3717 -0.6280
  137SAPE  H12A14830   4.437   1.412  11.082 -2.3437 -0.5975 -0.9924
  137SAPE  H12B14831   4.372   1.571  11.051  0.0421 -0.3580 -0.9909
  137SAPE   C1114832   4.572   1.530  10.952 -0.1396 -0.0456 -0.2589
  137SAPE  H11A14833   4.609   1.443  10.895 -0.9797 -0.2542 -0.5128
  137SAPE  H11B14834   4.619   1.547  11.050 -1.9287  0.2295  0.5962
  137SAPE     P14835   4.705   1.721  10.834  0.6769 -0.0906 -0.3095
  137SAPE   O1314836   4.703   1.832  10.935  0.8115 -0.2345  0.1001
  137SAPE   O1414837   4.816   1.623  10.855 -0.0649 -0.0660  0.2206
  137SAPE   O1214838   4.564   1.645  10.860 -0.3464  0.7306 -0.0899
  137SAPE   O1114839   4.707   1.787  10.697  0.1536 -0.2799 -0.4104
  137SAPE    C114840   4.580   1.823  10.639 -0.1869  0.9494  0.1991
  137SAPE    HA14841   4.502   1.743  10.646 -1.0678  1.8179  0.5875
  137SAPE    HB14842   4.540   1.912  10.693 -0.0435  0.3746  1.2832
  137SAPE    C214843   4.613   1.853  10.488  0.3094 -0.3802  0.1908
  137SAPE    HS14844   4.701   1.921  10.487  1.8137 -2.2118  1.4353
  137SAPE   O2114845   4.497   1.902  10.419  0.2382  0.0016  0.0280
  137SAPE   C2114846   4.458   2.025  10.435 -0.0605  0.7438 -0.2025
  137SAPE   O2214847   4.515   2.108  10.508 -0.2236  0.3537  0.0320
  137SAPE   C2214848   4.333   2.053  10.358  0.0145 -0.4590 -0.2251
  137SAPE   H2R14849   4.255   1.994  10.410 -0.7665  1.8392  1.3722
  137SAPE   H2S14850   4.308   2.153  10.398  0.6555  0.5670 -2.2207
  137SAPE    C314851   4.670   1.724  10.417 -0.3467 -0.5085  0.3975
  137SAPE    HX14852   4.589   1.647  10.415 -1.8432  1.0043 -1.4032
  137SAPE    HY14853   4.754   1.688  10.479 -0.0773 -0.4681  0.0626
  137SAPE   O3114854   4.711   1.758  10.283  0.1641 -0.0233 -0.8120
  137SAPE   C3114855   4.647   1.716  10.181 -0.1880 -0.2434 -0.1694
  137SAPE   O3214856   4.550   1.642  10.184 -0.4712  0.0988  0.1441
  137SAPE   C3214857   4.716   1.768  10.056 -1.0736  0.4320  0.6373
  137SAPE   H2X14858   4.819   1.727  10.045 -0.8093  1.5338 -1.4690
  137SAPE   H2Y14859   4.724   1.878  10.064 -0.2683  0.2948  1.8038
  137SAPE   C2314860   4.346   2.045  10.209 -0.1875  0.1783 -0.0693
  137SAPE   H3R14861   4.246   2.069  10.165 -0.9387  0.4449  1.7143
  137SAPE   H3S14862   4.373   1.940  10.188 -1.4908 -0.4013  1.0568
  137SAPE   C2414863   4.456   2.128  10.159 -0.3578 -0.4095  0.3617
  137SAPE   H4R14864   4.497   2.090  10.063  0.2603 -0.7120  0.7367
  137SAPE   H4S14865   4.537   2.111  10.233  0.5899 -0.1507 -0.5958
  137SAPE   C2514866   4.408   2.265  10.144 -0.2369 -0.3080 -0.6574
  137SAPE   H5R14867   4.408   2.332  10.231  1.1213  1.7675 -2.1322
  137SAPE   C2614868   4.367   2.309  10.020  0.0337 -0.6840 -0.2796
  137SAPE   H6R14869   4.312   2.403  10.012 -0.4395 -0.9096  0.2535
  137SAPE   C2714870   4.367   2.243   9.876 -0.3853 -0.0409 -0.2183
  137SAPE   H7R14871   4.355   2.133   9.875  1.2821 -0.2473 -0.7286
  137SAPE   H7S14872   4.470   2.248   9.833 -0.3496 -0.6320 -0.2072
  137SAPE   C2814873   4.252   2.293   9.791  0.2848  0.7583 -0.6519
  137SAPE   H8R14874   4.180   2.351   9.851  0.4791  2.1701 -1.7217
  137SAPE   C2914875   4.227   2.296   9.660  0.2116 -0.3021  0.9301
  137SAPE   H9R14876   4.144   2.350   9.614  1.3577  1.1294  0.4635
  137SAPE  C21014877   4.314   2.228   9.553  0.9105  0.7774 -0.2003
  137SAPE  H10R14878   4.384   2.160   9.606 -2.2914 -0.0274  3.5096
  137SAPE  H10S14879   4.372   2.303   9.497 -0.5473  1.7312 -0.4885
  137SAPE  C21114880   4.233   2.151   9.449 -1.0440 -0.2469  0.4241
  137SAPE  H11R14881   4.227   2.043   9.468  1.7766 -0.5033  0.2552
  137SAPE  C21214882   4.165   2.201   9.347 -0.0537  0.3829 -1.2644
  137SAPE  H12R14883   4.115   2.129   9.280 -1.4282  0.1545 -0.0620
  137SAPE  C21314884   4.169   2.351   9.301 -0.0389 -0.4348  0.1016
  137SAPE  H13R14885   4.265   2.375   9.252  1.0067  0.0565  2.2536
  137SAPE  H13S14886   4.162   2.419   9.389 -1.2856  1.0560 -1.0961
  137SAPE  C21414887   4.053   2.390   9.205 -0.7740  0.1234  0.2478
  137SAPE  H14R14888   3.953   2.423   9.239 -0.7048  0.0764  0.5018
  137SAPE  C21514889   4.068   2.387   9.070  0.3219  0.0800  0.1307
  137SAPE  H15R14890   3.976   2.393   9.010  0.1277 -1.7517  0.1955
  137SAPE  C21614891   4.195   2.336   9.001  0.5401 -0.7594  0.8975
  137SAPE  H16R14892   4.274   2.299   9.069  0.2318 -0.1651  1.5981
  137SAPE  H16S14893   4.231   2.421   8.939 -1.4614 -2.3130 -2.6727
  137SAPE  C21714894   4.153   2.231   8.899 -0.9500  0.6005 -0.1506
  137SAPE  H17R14895   4.092   2.151   8.946  1.3124 -0.4157  1.2499
  137SAPE  H17S14896   4.251   2.193   8.862  0.0232  2.9876 -0.1816
  137SAPE  C21814897   4.074   2.280   8.775  0.1954  0.6294  0.2610
  137SAPE  H18R14898   4.129   2.365   8.730  4.2833 -1.2716  1.2510
  137SAPE  H18S14899   3.970   2.307   8.804 -0.2695  0.5563 -1.2388
  137SAPE  C21914900   4.070   2.174   8.667  0.4476 -0.4597  0.7332
  137SAPE  H19R14901   3.982   2.197   8.602 -0.3079 -0.9291  1.5685
  137SAPE  H19S14902   4.041   2.077   8.713 -1.3601  0.1138  0.9021
  137SAPE  C22014903   4.197   2.172   8.582  0.4182 -0.0413 -0.4173
  137SAPE  H20R14904   4.226   2.276   8.555 -1.1898  0.7257  0.6721
  137SAPE  H20S14905   4.187   2.116   8.486 -0.2533  1.1021 -1.0329
  137SAPE  H20T14906   4.279   2.147   8.652  1.1044  2.6876 -0.1589
  137SAPE   C3314907   4.629   1.740   9.938  0.1001 -0.4594 -0.6592
  137SAPE   H3X14908   4.525   1.776   9.954 -1.1221 -4.1542  0.6113
  137SAPE   H3Y14909   4.614   1.635   9.907  0.9032 -1.4233  1.9520
  137SAPE   C3414910   4.688   1.830   9.823  0.7115 -0.2671  0.1895
  137SAPE   H4X14911   4.794   1.802   9.812  0.8824  0.2427  0.4968
  137SAPE   H4Y14912   4.686   1.933   9.864  0.0570  0.0300 -0.5688
  137SAPE   C3514913   4.600   1.806   9.699  0.1185 -0.7962 -0.1815
  137SAPE   H5X14914   4.494   1.826   9.726 -0.6581 -2.3053 -1.8991
  137SAPE   H5Y14915   4.603   1.698   9.669 -0.8735 -0.5076 -1.4044
  137SAPE   C3614916   4.651   1.889   9.579 -0.0372 -0.8126  0.1865
  137SAPE   H6X14917   4.761   1.900   9.584 -0.0082  1.5326 -2.5883
  137SAPE   H6Y14918   4.628   1.998   9.589 -1.5075 -1.0973  0.1380
  137SAPE   C3714919   4.614   1.851   9.437  0.2772 -0.1155 -0.5301
  137SAPE   H7X14920   4.504   1.849   9.424 -0.1226  2.3252  1.5881
  137SAPE   H7Y14921   4.649   1.749   9.409 -1.6951 -0.1881 -3.1022
  137SAPE   C3814922   4.681   1.935   9.328  0.4572  0.1317 -0.2871
  137SAPE   H8X14923   4.791   1.949   9.338  0.5627 -1.2018  0.7746
  137SAPE   H8Y14924   4.641   2.035   9.354 -1.7273 -1.2206  2.0422
  137SAPE   C3914925   4.633   1.895   9.193  0.0699 -0.2455 -0.1320
  137SAPE   H9X14926   4.606   1.789   9.177  1.9763 -0.7522 -0.1684
  137SAPE   H9Y14927   4.718   1.923   9.128 -0.3084  0.9355 -0.1465
  137SAPE  C31014928   4.506   1.982   9.160  0.1943 -0.1081 -0.8454
  137SAPE  H10X14929   4.545   2.086   9.162  1.9158 -0.7129  0.9883
  137SAPE  H10Y14930   4.425   1.979   9.236 -0.2445  1.0773 -1.2384
  137SAPE  C31114931   4.451   1.955   9.025 -0.0367  0.1242 -0.3019
  137SAPE  H11X14932   4.374   2.030   8.995  0.7994  1.1421  0.0505
  137SAPE  H11Y14933   4.397   1.858   9.036  1.5536 -0.7727 -0.2339
  137SAPE  C31214934   4.556   1.959   8.919  0.9213 -0.0524  0.7163
  137SAPE  H12X14935   4.620   1.869   8.924  0.6583 -0.2837 -0.0566
  137SAPE  H12Y14936   4.621   2.048   8.933 -0.6345  0.9173  2.3337
  137SAPE  C31314937   4.491   1.974   8.776 -0.5354  0.3908  0.2602
  137SAPE  H13X14938   4.440   2.072   8.764  1.3936  1.3314 -0.8859
  137SAPE  H13Y14939   4.415   1.896   8.754  0.3118 -0.4973  0.4284
  137SAPE  C31414940   4.593   1.970   8.662  0.2566 -0.3301 -0.4580
  137SAPE  H14X14941   4.664   1.885   8.673  1.8549  1.1042  0.7794
  137SAPE  H14Y14942   4.654   2.062   8.676  0.8836 -0.4583 -2.1429
  137SAPE  C31514943   4.537   1.970   8.523 -0.1286 -0.7007 -0.1239
  137SAPE  H15X14944   4.622   1.979   8.452  0.3078 -1.0991  0.3436
  137SAPE  H15Y14945   4.482   2.066   8.519  1.6875  0.3897  0.0490
  137SAPE  C31614946   4.454   1.841   8.495  0.1691  0.0266 -0.6350
  137SAPE  H16X14947   4.358   1.847   8.552 -0.3311 -0.5189 -1.4082
  137SAPE  H16Y14948   4.520   1.766   8.542  0.5236  0.5262 -0.3237
  137SAPE  C31714949   4.412   1.826   8.348 -0.7569 -0.0943 -0.0561
  137SAPE  H17X14950   4.372   1.724   8.330 -0.3570 -0.4795  1.1200
  137SAPE  H17Y14951   4.508   1.832   8.292 -0.5933  3.0071  0.4027
  137SAPE  C31814952   4.307   1.923   8.296 -0.0771  0.0186 -0.1674
  137SAPE  H18X14953   4.210   1.906   8.347  0.5865 -0.3198  1.0260
  137SAPE  H18Y14954   4.302   1.891   8.189  2.5862  1.3232 -0.7605
  137SAPE  H18Z14955   4.325   2.031   8.281  2.5288 -0.3746 -0.4032
  138SAPE     N14956   2.934   1.081  10.352 -0.8198  0.6529  0.0853
  138SAPE   HN114957   2.996   1.020  10.408 -0.3685  2.9119  2.2142
  138SAPE   HN214958   2.953   1.058  10.252 -0.3853 -1.8270  0.6799
  138SAPE   HN314959   2.955   1.179  10.379 -1.2160  1.0209 -0.8856
  138SAPE   C1214960   2.790   1.062  10.376 -0.4294  0.1378 -1.0009
  138SAPE  H12A14961   2.777   0.952  10.384  1.0015 -0.0731 -1.3868
  138SAPE  H12B14962   2.734   1.111  10.294  0.4802  1.5206 -0.8208
  138SAPE   C1114963   2.748   1.125  10.510  0.1714  0.0201  0.2722
  138SAPE  H11A14964   2.662   1.063  10.545 -2.4524  2.9682 -0.4662
  138SAPE  H11B14965   2.701   1.225  10.491 -2.4298 -0.8419  1.5921
  138SAPE     P14966   2.938   1.265  10.628 -0.3356 -0.0703  0.7456
  138SAPE   O1314967   2.857   1.353  10.717 -0.1437  0.2033 -0.6245
  138SAPE   O1414968   3.076   1.232  10.668  0.4954 -0.7639 -0.0581
  138SAPE   O1214969   2.855   1.129  10.606 -0.3103 -0.6283  0.1627
  138SAPE   O1114970   2.924   1.318  10.478 -0.4827  0.3775  0.0978
  138SAPE    C114971   2.947   1.459  10.457 -0.6769  0.3630 -0.4284
  138SAPE    HA14972   3.012   1.510  10.531  0.5218 -0.0491 -1.1865
  138SAPE    HB14973   3.004   1.483  10.365 -0.1966 -0.3595 -0.3288
  138SAPE    C214974   2.814   1.535  10.447 -0.0447 -0.6181 -0.3442
  138SAPE    HS14975   2.763   1.515  10.543  0.9623 -0.8355  0.1568
  138SAPE   O2114976   2.736   1.482  10.340  0.5754 -0.4793  0.1855
  138SAPE   C2114977   2.607   1.514  10.346 -0.8104 -0.1492 -0.2641
  138SAPE   O2214978   2.554   1.579  10.435  0.3497  0.0620  0.3800
  138SAPE   C2214979   2.536   1.461  10.224  0.1485  0.2645 -0.3273
  138SAPE   H2R14980   2.475   1.540  10.175  2.4528  2.1379 -0.3371
  138SAPE   H2S14981   2.609   1.425  10.148 -0.4958 -3.4784  0.6379
  138SAPE    C314982   2.845   1.696  10.439 -0.0964 -0.3795 -0.7913
  138SAPE    HX14983   2.923   1.714  10.516  0.6840 -0.5808 -1.5235
  138SAPE    HY14984   2.755   1.752  10.472  0.8615  1.3745 -1.0454
  138SAPE   O3114985   2.888   1.736  10.311  0.0754  0.1227 -0.1701
  138SAPE   C3114986   2.801   1.795  10.226 -0.0955  0.1284  0.0135
  138SAPE   O3214987   2.680   1.809  10.245  0.0070  0.4024  0.5676
  138SAPE   C3214988   2.871   1.838  10.094  1.1783 -0.0770 -0.0084
  138SAPE   H2X14989   2.941   1.755  10.070 -0.4591 -2.1107  1.8140
  138SAPE   H2Y14990   2.928   1.931  10.115 -1.3984  1.4852  0.5171
  138SAPE   C2314991   2.448   1.342  10.268  0.0204  0.0365 -0.3907
  138SAPE   H3R14992   2.381   1.365  10.353  0.2722  1.1491 -0.4789
  138SAPE   H3S14993   2.513   1.258  10.299 -1.5356 -1.1561 -0.2181
  138SAPE   C2414994   2.364   1.288  10.149  0.3065 -0.4717  0.7818
  138SAPE   H4R14995   2.331   1.185  10.173 -0.2710 -2.0251 -5.0666
  138SAPE   H4S14996   2.440   1.271  10.069 -0.6622 -1.0661 -0.0407
  138SAPE   C2514997   2.254   1.373  10.091  0.6009  0.0601  0.4023
  138SAPE   H5R14998   2.172   1.398  10.160  1.1039  2.4478  0.2204
  138SAPE   C2614999   2.245   1.431   9.973  0.3059 -0.0795 -0.2087
  138SAPE   H6R15000   2.162   1.501   9.957 -0.4799 -0.8391  0.4353
  138SAPE   C2715001   2.343   1.419   9.861 -0.0961  0.4042  0.0889
  138SAPE   H7R15002   2.422   1.342   9.875 -0.3125  0.2492  0.4880
  138SAPE   H7S15003   2.407   1.511   9.855  0.3337  0.5160  3.8365
  138SAPE   C2815004   2.277   1.377   9.729  0.1089 -0.8560 -0.1039
  138SAPE   H8R15005   2.190   1.311   9.743 -0.9720  0.6550  0.5552
  138SAPE   C2915006   2.326   1.401   9.605  0.5608 -0.1214  0.3279
  138SAPE   H9R15007   2.268   1.363   9.520 -3.8479  0.0787  2.9331
  138SAPE  C21015008   2.458   1.471   9.575  1.5795  0.0736  0.2143
  138SAPE  H10R15009   2.538   1.430   9.640  0.8714  0.1774  1.1659
  138SAPE  H10S15010   2.449   1.576   9.610  0.4545 -0.6950  2.4607
  138SAPE  C21115011   2.507   1.454   9.434 -0.8276  0.5943 -1.3861
  138SAPE  H11R15012   2.594   1.388   9.421  0.2838  2.1718 -2.3976
  138SAPE  C21215013   2.451   1.500   9.319  0.0110  0.7475  0.4503
  138SAPE  H12R15014   2.504   1.486   9.224  1.9680 -2.7594  1.8806
  138SAPE  C21315015   2.321   1.571   9.300  0.0511 -0.8814  0.2248
  138SAPE  H13R15016   2.333   1.656   9.229  0.0362 -0.3996  0.7906
  138SAPE  H13S15017   2.284   1.625   9.390  2.0532 -0.3274  0.7696
  138SAPE  C21415018   2.219   1.471   9.255 -0.0917 -1.0161 -0.3840
  138SAPE  H14R15019   2.171   1.414   9.337  0.8208  1.4060  1.9791
  138SAPE  C21515020   2.194   1.442   9.126 -0.6880  0.2512 -1.0327
  138SAPE  H15R15021   2.122   1.361   9.105 -3.1698  1.9368  0.4894
  138SAPE  C21615022   2.253   1.492   8.996  0.0738 -0.5924 -0.0827
  138SAPE  H16R15023   2.254   1.411   8.920  0.5367  0.8355 -1.6638
  138SAPE  H16S15024   2.361   1.517   9.000  0.6779 -2.6941 -1.3578
  138SAPE  C21715025   2.167   1.609   8.931  0.4841  0.3256 -0.7691
  138SAPE  H17R15026   2.172   1.697   8.998 -0.7689 -2.2083  2.9799
  138SAPE  H17S15027   2.064   1.571   8.948  1.6293 -2.1608  1.3766
  138SAPE  C21815028   2.201   1.631   8.786  0.1971  0.2536  0.5824
  138SAPE  H18R15029   2.175   1.544   8.722  1.9414 -0.0328  0.2342
  138SAPE  H18S15030   2.311   1.640   8.786  0.2820  1.6142 -4.2337
  138SAPE  C21915031   2.143   1.751   8.718 -0.1345 -0.6449  0.1500
  138SAPE  H19R15032   2.154   1.842   8.782  0.9323  0.8266 -2.0257
  138SAPE  H19S15033   2.036   1.743   8.690  0.0062  0.1832 -0.6407
  138SAPE  C22015034   2.215   1.788   8.587 -0.6028  0.4988  0.1445
  138SAPE  H20R15035   2.207   1.701   8.518 -0.0017  0.4801  0.0881
  138SAPE  H20S15036   2.324   1.798   8.605 -0.1614 -0.1941 -1.8401
  138SAPE  H20T15037   2.169   1.877   8.540 -0.0318  1.1851  0.8527
  138SAPE   C3315038   2.769   1.859   9.985  0.5627  0.5349 -0.6669
  138SAPE   H3X15039   2.718   1.956  10.001 -0.0047  0.4335 -1.7564
  138SAPE   H3Y15040   2.696   1.775   9.991  1.2519  0.0139  1.1643
  138SAPE   C3415041   2.827   1.852   9.844 -0.4394 -0.6753 -0.2747
  138SAPE   H4X15042   2.859   1.748   9.819 -1.2026 -0.0042 -4.9983
  138SAPE   H4Y15043   2.917   1.917   9.833 -0.4621 -0.1095  2.3732
  138SAPE   C3515044   2.713   1.881   9.744  0.1287 -0.2911 -0.2786
  138SAPE   H5X15045   2.646   1.964   9.775  1.2007  0.4161  0.1650
  138SAPE   H5Y15046   2.648   1.792   9.762  0.5389 -0.5075  0.1361
  138SAPE   C3615047   2.754   1.903   9.597  1.3823  0.5825 -0.0283
  138SAPE   H6X15048   2.817   1.819   9.560  1.1813  0.3527  0.1510
  138SAPE   H6Y15049   2.804   2.002   9.584  2.0972  0.4162  1.3736
  138SAPE   C3715050   2.637   1.889   9.497 -0.2514  0.2178  0.4231
  138SAPE   H7X15051   2.560   1.962   9.528  0.4523  0.6098  1.2796
  138SAPE   H7Y15052   2.585   1.791   9.492 -0.1742  0.2211 -1.5409
  138SAPE   C3815053   2.698   1.909   9.353 -0.0088 -0.2807  0.1412
  138SAPE   H8X15054   2.790   1.847   9.347 -0.6484 -1.6265  2.7514
  138SAPE   H8Y15055   2.731   2.014   9.337 -0.7691 -0.2352 -1.3689
  138SAPE   C3915056   2.610   1.878   9.231  0.2293  0.4279 -0.3016
  138SAPE   H9X15057   2.524   1.947   9.242 -0.9693 -0.9453 -0.7233
  138SAPE   H9Y15058   2.583   1.770   9.231  2.6256 -0.2439  0.6571
  138SAPE  C31015059   2.692   1.906   9.107 -0.1323 -0.9396  0.1887
  138SAPE  H10X15060   2.793   1.861   9.117  0.8524  1.2466  0.6244
  138SAPE  H10Y15061   2.705   2.016   9.098 -3.0682 -0.6371 -3.2842
  138SAPE  C31115062   2.617   1.863   8.979  0.6729  0.0605 -0.0191
  138SAPE  H11X15063   2.535   1.936   8.966  0.4971  0.0093  0.7642
  138SAPE  H11Y15064   2.561   1.767   8.984 -0.4284  0.7507  2.7390
  138SAPE  C31215065   2.712   1.859   8.863 -0.4057 -0.1745 -0.1370
  138SAPE  H12X15066   2.812   1.819   8.891  0.9843  2.0258 -1.6456
  138SAPE  H12Y15067   2.733   1.954   8.809 -0.2389  1.5565  2.7670
  138SAPE  C31315068   2.665   1.753   8.755 -0.6976 -0.4981 -0.2305
  138SAPE  H13X15069   2.724   1.769   8.662 -2.5539 -1.2598 -1.5995
  138SAPE  H13Y15070   2.560   1.770   8.724 -0.7512 -0.0468  0.1923
  138SAPE  C31415071   2.678   1.609   8.813 -0.6195 -0.1877  0.7351
  138SAPE  H14X15072   2.575   1.568   8.801 -0.2677 -0.6696 -0.9506
  138SAPE  H14Y15073   2.708   1.614   8.920  1.9661 -1.8096  0.1699
  138SAPE  C31515074   2.785   1.520   8.747 -0.2319 -0.2951  0.5011
  138SAPE  H15X15075   2.881   1.555   8.791 -0.5040  0.4006  0.5592
  138SAPE  H15Y15076   2.788   1.535   8.637  1.3434 -3.0659  0.0765
  138SAPE  C31615077   2.769   1.368   8.774 -0.2672  0.2424  0.6945
  138SAPE  H16X15078   2.667   1.341   8.740 -0.0531  0.8261 -0.4642
  138SAPE  H16Y15079   2.776   1.362   8.885  0.1229  0.6610  0.6974
  138SAPE  C31715080   2.874   1.287   8.705  0.3665 -0.0060 -0.5164
  138SAPE  H17X15081   2.870   1.187   8.754  0.1340  0.3821  0.2748
  138SAPE  H17Y15082   2.975   1.331   8.724  0.0061  1.6116 -2.0918
  138SAPE  C31815083   2.852   1.265   8.547  0.8137 -0.1825  0.0004
  138SAPE  H18X15084   2.896   1.353   8.495  0.7506  0.2433  0.6567
  138SAPE  H18Y15085   2.743   1.249   8.533  0.5340  1.4425  0.0712
  138SAPE  H18Z15086   2.891   1.171   8.503  1.0836 -0.7953  1.4982
  139SAPE     N15087   2.107   6.693  10.583 -0.4545  0.0095  0.1967
  139SAPE   HN115088   2.055   6.628  10.646  1.7177 -1.3761  0.6522
  139SAPE   HN215089   2.205   6.668  10.605 -0.6117 -1.5700 -0.7853
  139SAPE   HN315090   2.084   6.793  10.602 -2.7690 -0.3914 -0.1424
  139SAPE   C1215091   2.067   6.642  10.452 -0.4315  0.5222  0.3965
  139SAPE  H12A15092   2.106   6.702  10.368  0.8861 -0.0189  0.5950
  139SAPE  H12B15093   1.956   6.640  10.458 -0.3719  0.7595  2.5585
  139SAPE   C1115094   2.096   6.498  10.417  0.9275  1.0693 -0.1428
  139SAPE  H11A15095   2.199   6.494  10.376 -0.2788 -0.6840 -3.3185
  139SAPE  H11B15096   2.028   6.464  10.337  1.5607 -2.8012  0.7700
  139SAPE     P15097   1.922   6.401  10.601 -0.1418 -0.1791  0.1982
  139SAPE   O1315098   1.914   6.261  10.645 -0.2699  0.1905 -0.2318
  139SAPE   O1415099   1.900   6.506  10.703 -0.5432  0.3832 -0.0347
  139SAPE   O1215100   2.072   6.417  10.536 -0.0606  0.1123 -0.3667
  139SAPE   O1115101   1.831   6.424  10.475 -0.0111  0.2606 -0.1671
  139SAPE    C115102   1.713   6.494  10.466 -0.2261 -0.4342  0.1231
  139SAPE    HA15103   1.630   6.458  10.530 -0.5213  1.5833  0.9400
  139SAPE    HB15104   1.729   6.601  10.492  0.6926 -0.2217 -1.2051
  139SAPE    C215105   1.676   6.517  10.317  0.0565 -0.0315 -0.6346
  139SAPE    HS15106   1.666   6.410  10.287 -1.1160 -0.3235  0.7052
  139SAPE   O2115107   1.772   6.589  10.239  0.4838 -0.1405 -0.3789
  139SAPE   C2115108   1.743   6.571  10.109  0.0551 -0.0909 -0.0202
  139SAPE   O2215109   1.675   6.480  10.060 -0.4358 -0.1105  0.5426
  139SAPE   C2215110   1.817   6.673  10.021 -0.6704 -0.3560  0.0866
  139SAPE   H2R15111   1.812   6.647   9.913  0.2442 -0.9991  0.1933
  139SAPE   H2S15112   1.760   6.767  10.039 -0.6712 -0.7218  2.3421
  139SAPE    C315113   1.546   6.604  10.326  0.5081  0.7629 -0.3502
  139SAPE    HX15114   1.587   6.706  10.342  0.7841  0.5273  0.4524
  139SAPE    HY15115   1.485   6.568  10.411  0.9372 -0.5214 -0.5573
  139SAPE   O3115116   1.457   6.598  10.217 -0.4896 -0.0219  0.5102
  139SAPE   C3115117   1.386   6.477  10.188 -0.2976 -0.6486 -0.1546
  139SAPE   O3215118   1.400   6.375  10.255 -0.5015  0.5941 -0.1701
  139SAPE   C3215119   1.281   6.511  10.086 -0.2198 -0.4784 -0.2600
  139SAPE   H2X15120   1.268   6.621  10.080  3.0651  0.1479  1.6283
  139SAPE   H2Y15121   1.189   6.478  10.140  0.5245 -1.9410  0.1692
  139SAPE   C2315122   1.965   6.694  10.057  0.0209  0.2737  0.3755
  139SAPE   H3R15123   1.981   6.734  10.160 -1.3217  0.0143  0.7054
  139SAPE   H3S15124   1.996   6.772   9.984 -2.2719  0.2528 -0.7216
  139SAPE   C2415125   2.057   6.573  10.012 -0.1352  0.4153  0.1196
  139SAPE   H4R15126   2.048   6.564   9.902  1.0933 -0.2681  0.0654
  139SAPE   H4S15127   2.005   6.485  10.055  2.6794 -0.8802  1.1320
  139SAPE   C2515128   2.204   6.580  10.043  0.8675  0.2846 -0.5686
  139SAPE   H5R15129   2.257   6.671  10.012 -0.3591  1.1462 -0.2002
  139SAPE   C2615130   2.291   6.483  10.093 -0.0766  0.0235  0.6175
  139SAPE   H6R15131   2.397   6.507  10.103 -0.2478  1.8305 -1.2517
  139SAPE   C2715132   2.252   6.345  10.138 -0.3392  0.3974  0.0580
  139SAPE   H7R15133   2.144   6.323  10.120 -0.8277  2.5291  0.1233
  139SAPE   H7S15134   2.266   6.333  10.247  1.0387 -0.0307 -0.1499
  139SAPE   C2815135   2.341   6.239  10.077  0.1630 -0.4595  0.1837
  139SAPE   H8R15136   2.418   6.212  10.151  1.3290  2.4240  0.1273
  139SAPE   C2915137   2.334   6.191   9.950  0.0043 -0.1690  0.2239
  139SAPE   H9R15138   2.409   6.119   9.914 -2.0949 -0.8881 -3.0463
  139SAPE  C21015139   2.246   6.249   9.847  0.4157 -0.4496  0.0099
  139SAPE  H10R15140   2.311   6.257   9.757  0.0409 -0.9305 -0.3064
  139SAPE  H10S15141   2.192   6.345   9.863 -2.2876 -2.1404  1.9854
  139SAPE  C21115142   2.144   6.142   9.822  0.4925 -0.2643 -0.4417
  139SAPE  H11R15143   2.160   6.040   9.862 -3.0382 -0.5277  0.6477
  139SAPE  C21215144   2.030   6.161   9.755  0.2047  0.5964  0.5162
  139SAPE  H12R15145   1.964   6.074   9.740  1.8659 -0.4826 -0.9722
  139SAPE  C21315146   1.977   6.290   9.689  0.1636 -0.5884 -0.4926
  139SAPE  H13R15147   1.960   6.269   9.582  2.2176 -0.4854 -0.8823
  139SAPE  H13S15148   2.053   6.370   9.690  1.5725 -1.8626 -1.3017
  139SAPE  C21415149   1.861   6.340   9.773  0.0414 -0.9563 -0.3316
  139SAPE  H14R15150   1.862   6.314   9.879  2.1907  1.3136  0.3028
  139SAPE  C21515151   1.764   6.420   9.739 -0.3797 -0.7894  0.2505
  139SAPE  H15R15152   1.690   6.444   9.817  0.7410 -0.4048  1.2186
  139SAPE  C21615153   1.741   6.501   9.609 -0.0772  1.0635  0.1630
  139SAPE  H16R15154   1.807   6.453   9.534 -4.2515 -0.7329 -2.7582
  139SAPE  H16S15155   1.758   6.611   9.617  1.9406  0.7757  0.4294
  139SAPE  C21715156   1.599   6.479   9.554  0.3329  0.0058  0.4430
  139SAPE  H17R15157   1.530   6.519   9.630 -0.2369  2.6520 -1.3135
  139SAPE  H17S15158   1.584   6.372   9.525 -0.6947  0.4968 -0.9392
  139SAPE  C21815159   1.570   6.573   9.432  0.5974  0.2213  0.3550
  139SAPE  H18R15160   1.649   6.567   9.353 -0.9969  2.1264 -1.5112
  139SAPE  H18S15161   1.574   6.676   9.474  1.5963 -0.3297  1.7168
  139SAPE  C21915162   1.430   6.565   9.360 -0.1201  0.6647 -0.2453
  139SAPE  H19R15163   1.354   6.587   9.438 -0.3943  1.6184 -0.7665
  139SAPE  H19S15164   1.420   6.459   9.329  1.8830  0.2838  0.2757
  139SAPE  C22015165   1.422   6.646   9.226  0.2461  0.4236 -0.4768
  139SAPE  H20R15166   1.424   6.754   9.253  1.8408 -0.0943  1.7107
  139SAPE  H20S15167   1.327   6.621   9.173  1.5910 -1.4486 -2.1713
  139SAPE  H20T15168   1.514   6.633   9.165  0.7462  2.1426 -0.1630
  139SAPE   C3315169   1.284   6.429   9.951  0.3358 -1.1316  0.2581
  139SAPE   H3X15170   1.329   6.330   9.972  1.9882 -0.1302  1.6889
  139SAPE   H3Y15171   1.363   6.467   9.883 -0.5622  2.4811  1.0317
  139SAPE   C3415172   1.142   6.418   9.897 -0.2583 -0.4987  0.0591
  139SAPE   H4X15173   1.096   6.518   9.890  0.0850 -0.2043  1.5939
  139SAPE   H4Y15174   1.086   6.368   9.978  1.6157 -1.0705  1.0728
  139SAPE   C3515175   1.121   6.345   9.766 -0.0943 -0.3437  0.3069
  139SAPE   H5X15176   1.022   6.297   9.776  1.3645 -3.3074  1.7957
  139SAPE   H5Y15177   1.193   6.261   9.755  1.0548  0.5201  0.9863
  139SAPE   C3615178   1.121   6.431   9.642 -0.1718  0.2903  0.3347
  139SAPE   H6X15179   1.221   6.471   9.617  0.5646 -1.1387  0.8517
  139SAPE   H6Y15180   1.047   6.513   9.651  0.0153  0.4495  0.4222
  139SAPE   C3715181   1.091   6.332   9.524  0.5469  0.2231  0.3593
  139SAPE   H7X15182   1.041   6.241   9.566  0.3222 -0.0910 -0.5522
  139SAPE   H7Y15183   1.183   6.280   9.489  0.6369  0.5568  0.1008
  139SAPE   C3815184   1.010   6.390   9.406  0.3222 -1.0369  1.3213
  139SAPE   H8X15185   1.079   6.448   9.341  1.0120 -0.0703  2.8746
  139SAPE   H8Y15186   0.927   6.452   9.446  0.6091  1.8448 -2.0737
  139SAPE   C3915187   0.942   6.273   9.326  0.6130 -0.6283 -0.3473
  139SAPE   H9X15188   0.878   6.220   9.400 -0.6758  2.8200  1.2149
  139SAPE   H9Y15189   1.035   6.228   9.284  2.4145  1.1511  1.5300
  139SAPE  C31015190   0.858   6.313   9.206  0.1056  1.0915  0.2634
  139SAPE  H10X15191   0.786   6.233   9.178  0.6345  0.8543 -0.4499
  139SAPE  H10Y15192   0.917   6.339   9.116  0.0029 -0.6877 -0.3538
  139SAPE  C31115193   0.769   6.435   9.235  0.6362  0.2819  0.4288
  139SAPE  H11X15194   0.838   6.516   9.268 -0.1866  0.8452  0.7894
  139SAPE  H11Y15195   0.692   6.405   9.310 -1.1272  0.9949 -1.0421
  139SAPE  C31215196   0.682   6.477   9.113 -0.4097 -0.6909  0.4586
  139SAPE  H12X15197   0.610   6.551   9.153 -2.5194 -0.6839 -2.9523
  139SAPE  H12Y15198   0.634   6.389   9.065  0.6956 -0.5078 -1.0474
  139SAPE  C31315199   0.761   6.559   9.007 -0.0744  0.5629 -0.1341
  139SAPE  H13X15200   0.856   6.503   8.994 -0.4600 -0.3971  0.9785
  139SAPE  H13Y15201   0.789   6.652   9.061 -0.8042  0.7865 -0.1301
  139SAPE  C31415202   0.688   6.599   8.880  0.3735 -0.4081  0.3183
  139SAPE  H14X15203   0.663   6.509   8.819 -1.2075 -1.3467  2.2394
  139SAPE  H14Y15204   0.760   6.655   8.817  0.4699  0.3570  1.0893
  139SAPE  C31515205   0.564   6.682   8.905 -0.5840 -0.8202 -0.6710
  139SAPE  H15X15206   0.582   6.755   8.988  0.8432 -2.5881  0.6406
  139SAPE  H15Y15207   0.483   6.620   8.951 -3.1653  1.2445 -2.1177
  139SAPE  C31615208   0.496   6.743   8.790 -0.2111 -0.8033 -0.1025
  139SAPE  H16X15209   0.392   6.775   8.812 -0.6102 -3.4907  2.5051
  139SAPE  H16Y15210   0.551   6.835   8.757  0.5434 -1.4377 -0.6554
  139SAPE  C31715211   0.487   6.655   8.667  0.0593  0.0147 -0.2712
  139SAPE  H17X15212   0.589   6.628   8.633 -0.3595 -0.5375 -1.1069
  139SAPE  H17Y15213   0.450   6.722   8.586  0.4990  1.9247  1.0385
  139SAPE  C31815214   0.396   6.530   8.684  0.4603 -0.1325  0.1395
  139SAPE  H18X15215   0.415   6.483   8.783 -1.5461  0.1772  0.7209
  139SAPE  H18Y15216   0.427   6.448   8.616 -0.3081 -0.0880 -0.2768
  139SAPE  H18Z15217   0.286   6.542   8.681  0.0619 -2.1681  2.7193
  140SAPE     N15218   4.463   4.021  10.781  0.7120 -0.2291 -0.9502
  140SAPE   HN115219   4.478   3.932  10.832  0.0286 -0.2036 -0.6902
  140SAPE   HN215220   4.385   3.998  10.716 -0.3930 -0.4952  0.4269
  140SAPE   HN315221   4.550   4.046  10.731  0.4534  0.9147 -0.8524
  140SAPE   C1215222   4.425   4.119  10.894 -0.4282 -0.7631 -0.1894
  140SAPE  H12A15223   4.433   4.226  10.864 -0.6287 -0.6724  0.0809
  140SAPE  H12B15224   4.498   4.108  10.977 -0.6039  0.8704  0.2151
  140SAPE   C1115225   4.279   4.088  10.941 -0.8940 -0.9169 -0.4914
  140SAPE  H11A15226   4.274   3.986  10.985  0.5336 -0.9883 -0.4341
  140SAPE  H11B15227   4.204   4.101  10.860 -0.3199  0.4179 -0.8311
  140SAPE     P15228   4.205   4.332  11.025  0.2829  0.1908 -0.2823
  140SAPE   O1315229   4.060   4.335  11.033 -0.3061  0.2923  0.4384
  140SAPE   O1415230   4.286   4.420  11.118  0.2515  0.0405  0.1545
  140SAPE   O1215231   4.258   4.184  11.045  0.4210 -0.4276 -0.4175
  140SAPE   O1115232   4.245   4.364  10.873 -0.0395 -0.4647 -0.2173
  140SAPE    C115233   4.166   4.430  10.770  0.6668  0.8326 -0.0599
  140SAPE    HA15234   4.058   4.409  10.786  0.4803  0.1229 -1.9767
  140SAPE    HB15235   4.168   4.538  10.796  0.4597  0.3909  1.9859
  140SAPE    C215236   4.204   4.409  10.627  0.3283  0.1839 -0.5172
  140SAPE    HS15237   4.295   4.468  10.601  0.6043  0.2742  0.6150
  140SAPE   O2115238   4.087   4.459  10.553 -0.0364 -0.1663 -0.6852
  140SAPE   C2115239   4.091   4.587  10.521  0.1729 -0.2899  0.3398
  140SAPE   O2215240   4.186   4.662  10.541  0.8840 -0.4669 -0.0945
  140SAPE   C2215241   3.957   4.635  10.471  0.5280 -0.5492  0.2973
  140SAPE   H2R15242   3.875   4.562  10.486  1.5005 -1.6479  0.4218
  140SAPE   H2S15243   3.940   4.728  10.529 -0.7547  1.2315 -2.6916
  140SAPE    C315244   4.230   4.262  10.584 -0.6065 -0.7462  0.1147
  140SAPE    HX15245   4.130   4.214  10.575 -0.1295 -1.8540  0.5945
  140SAPE    HY15246   4.278   4.212  10.670 -2.2253 -0.6812  1.1086
  140SAPE   O3115247   4.309   4.259  10.462 -0.5161 -0.1027 -0.1463
  140SAPE   C3115248   4.436   4.278  10.485  1.2555  0.0055  0.3964
  140SAPE   O3215249   4.484   4.285  10.595  0.1419 -0.3436 -0.4710
  140SAPE   C3215250   4.508   4.277  10.346  0.8504 -0.2220  0.1548
  140SAPE   H2X15251   4.453   4.344  10.276  0.4428 -0.1443  0.5444
  140SAPE   H2Y15252   4.505   4.175  10.303 -1.4897 -0.1819  0.0845
  140SAPE   C2315253   3.959   4.676  10.321 -0.0224 -0.3439 -0.0636
  140SAPE   H3R15254   3.979   4.585  10.260  1.2654 -0.0877 -0.0642
  140SAPE   H3S15255   4.033   4.757  10.300 -2.0072  2.0530  1.6445
  140SAPE   C2415256   3.819   4.720  10.273 -0.3752  0.2713  0.0180
  140SAPE   H4R15257   3.831   4.792  10.189  1.4079  0.4817  0.4051
  140SAPE   H4S15258   3.770   4.769  10.359 -0.6362 -0.0335  0.0452
  140SAPE   C2515259   3.729   4.602  10.231  0.1984 -0.5854  0.4239
  140SAPE   H5R15260   3.669   4.554  10.309 -1.2798 -0.5987 -0.6948
  140SAPE   C2615261   3.721   4.550  10.105  0.0319 -0.1008  0.3341
  140SAPE   H6R15262   3.668   4.455  10.090  0.3455  0.0715 -2.4293
  140SAPE   C2715263   3.801   4.584   9.987 -0.8096 -0.4922  0.2095
  140SAPE   H7R15264   3.852   4.682   9.995 -2.5937  0.3941  1.5037
  140SAPE   H7S15265   3.738   4.602   9.897 -0.1853  0.3894 -0.0621
  140SAPE   C2815266   3.899   4.468   9.987 -0.4704  0.4380  0.5503
  140SAPE   H8R15267   3.977   4.471  10.064  1.0266  0.4477 -0.9119
  140SAPE   C2915268   3.926   4.387   9.880  0.4043  0.3573 -0.1026
  140SAPE   H9R15269   3.985   4.298   9.905 -1.9816 -1.2177  0.3016
  140SAPE  C21015270   3.868   4.388   9.744  0.3444 -0.2407  0.4009
  140SAPE  H10R15271   3.784   4.461   9.734 -1.1671 -2.1019 -1.6271
  140SAPE  H10S15272   3.813   4.292   9.734 -1.5211  0.8997 -1.0862
  140SAPE  C21115273   3.977   4.398   9.638  1.0998  0.5165  0.1602
  140SAPE  H11R15274   4.079   4.416   9.676  0.7108  0.6178  1.1804
  140SAPE  C21215275   3.957   4.382   9.506 -0.5756  0.2104  0.0032
  140SAPE  H12R15276   4.041   4.386   9.434 -1.6427  0.4959 -1.2662
  140SAPE  C21315277   3.819   4.355   9.450  0.7724 -0.6072 -0.3680
  140SAPE  H13R15278   3.749   4.303   9.518 -0.3507  0.3341 -0.7540
  140SAPE  H13S15279   3.843   4.294   9.361 -0.0394 -0.2378 -0.8580
  140SAPE  C21415280   3.742   4.483   9.429 -0.6498 -0.3515 -0.0390
  140SAPE  H14R15281   3.748   4.553   9.514 -1.2664  0.0728 -0.3393
  140SAPE  C21515282   3.665   4.504   9.329  0.4742 -0.4271  0.6218
  140SAPE  H15R15283   3.612   4.601   9.331  2.4899  0.7493 -0.0512
  140SAPE  C21615284   3.643   4.407   9.214 -0.4702  0.3309 -0.3826
  140SAPE  H16R15285   3.537   4.382   9.193 -0.8612  1.1582  0.5288
  140SAPE  H16S15286   3.704   4.316   9.231 -0.5120  0.0728 -1.5362
  140SAPE  C21715287   3.707   4.461   9.080  0.4221 -0.8739 -0.6724
  140SAPE  H17R15288   3.680   4.566   9.055 -0.2946 -0.8850  0.0258
  140SAPE  H17S15289   3.675   4.394   8.998  0.5865 -0.0872 -1.3939
  140SAPE  C21815290   3.865   4.447   9.076  0.6734  0.7873  0.2307
  140SAPE  H18R15291   3.896   4.354   9.127  0.8949  0.6860 -0.0819
  140SAPE  H18S15292   3.908   4.526   9.141  0.4373 -0.3641  1.8152
  140SAPE  C21915293   3.920   4.435   8.939  0.2121  0.2838  0.1975
  140SAPE  H19R15294   3.871   4.509   8.872 -0.6681 -2.5622 -2.5352
  140SAPE  H19S15295   3.884   4.340   8.893 -1.4941 -0.0989  2.1633
  140SAPE  C22015296   4.073   4.437   8.923  0.2242 -0.6810  0.0022
  140SAPE  H20R15297   4.122   4.341   8.948 -0.8241 -0.7753  1.9535
  140SAPE  H20S15298   4.115   4.517   8.988 -1.7329 -0.6164  1.2737
  140SAPE  H20T15299   4.093   4.459   8.816 -0.7719  0.0912 -0.0441
  140SAPE   C3315300   4.652   4.327  10.359  0.1976 -0.4418 -0.2797
  140SAPE   H3X15301   4.715   4.257  10.419  0.3574 -1.9120 -2.0739
  140SAPE   H3Y15302   4.649   4.427  10.407  0.6373 -0.7729  0.4658
  140SAPE   C3415303   4.718   4.342  10.218  0.6020 -0.2636 -0.2834
  140SAPE   H4X15304   4.824   4.373  10.236  0.5906 -0.5130  0.2274
  140SAPE   H4Y15305   4.655   4.413  10.160 -0.0770 -1.8807 -1.6078
  140SAPE   C3515306   4.723   4.216  10.129  0.5417  1.0964  0.2455
  140SAPE   H5X15307   4.638   4.148  10.150  1.8220 -0.2089  1.3493
  140SAPE   H5Y15308   4.818   4.162  10.146  0.1936  0.9893  1.9629
  140SAPE   C3615309   4.715   4.242   9.983 -0.1862 -0.6118  0.1574
  140SAPE   H6X15310   4.615   4.290   9.969  0.9548  1.8495  0.0145
  140SAPE   H6Y15311   4.700   4.147   9.927 -2.4796 -0.7157  0.8391
  140SAPE   C3715312   4.821   4.334   9.917 -0.2188 -0.3793  0.4345
  140SAPE   H7X15313   4.916   4.278   9.931 -0.6948 -1.4362 -0.3962
  140SAPE   H7Y15314   4.848   4.424   9.975  1.3014  1.9649 -3.5145
  140SAPE   C3815315   4.797   4.355   9.765  0.3024  0.3657  1.1877
  140SAPE   H8X15316   4.802   4.464   9.747 -0.3419  0.3796  1.0795
  140SAPE   H8Y15317   4.693   4.333   9.733  0.9352  0.7330 -1.3656
  140SAPE   C3915318   4.905   4.291   9.678 -0.2526  0.3984  0.6378
  140SAPE   H9X15319   4.939   4.188   9.702  0.7086  0.2778 -1.0564
  140SAPE   H9Y15320   4.993   4.354   9.703 -0.8595  0.8879  1.5995
  140SAPE  C31015321   4.878   4.295   9.523  0.3569 -0.4901  0.2475
  140SAPE  H10X15322   4.862   4.401   9.495  0.5806 -0.9169 -1.6054
  140SAPE  H10Y15323   4.793   4.232   9.489 -0.0365  0.1531  0.0357
  140SAPE  C31115324   5.003   4.244   9.445  0.1557  0.0979 -0.2542
  140SAPE  H11X15325   5.031   4.142   9.479  0.5818  0.1043 -0.5714
  140SAPE  H11Y15326   5.086   4.317   9.459  1.8230 -2.2994  4.2899
  140SAPE  C31215327   4.969   4.239   9.293 -0.1659 -0.7923 -0.4724
  140SAPE  H12X15328   4.954   4.346   9.266 -0.0850 -0.6695 -0.0352
  140SAPE  H12Y15329   4.873   4.183   9.282 -0.5305 -0.6399  1.5396
  140SAPE  C31315330   5.092   4.214   9.207  0.2992 -0.6851  1.0069
  140SAPE  H13X15331   5.147   4.125   9.245 -1.3423 -1.3034  2.0358
  140SAPE  H13Y15332   5.172   4.290   9.205  1.1917 -1.4796 -3.3430
  140SAPE  C31415333   5.052   4.189   9.056  0.1802 -0.4200 -0.2512
  140SAPE  H14X15334   5.017   4.285   9.014  0.1297 -1.5130 -2.9104
  140SAPE  H14Y15335   4.977   4.109   9.040  0.9353 -0.9126 -1.4481
  140SAPE  C31515336   5.180   4.146   8.977  0.5975 -0.1728 -0.1435
  140SAPE  H15X15337   5.231   4.062   9.028  0.5229 -0.9875 -1.3659
  140SAPE  H15Y15338   5.257   4.226   8.989  1.0670 -0.5875 -0.3754
  140SAPE  C31615339   5.146   4.118   8.830  0.1647 -0.3042 -0.3020
  140SAPE  H16X15340   5.097   4.210   8.791 -1.9549 -2.7999 -4.3226
  140SAPE  H16Y15341   5.069   4.039   8.817 -0.8434  0.3491  1.4251
  140SAPE  C31715342   5.264   4.066   8.753  0.1783 -0.2745  0.0764
  140SAPE  H17X15343   5.293   3.963   8.785 -0.4633  0.3111  2.7580
  140SAPE  H17Y15344   5.358   4.121   8.776  0.5167 -1.3230  1.3786
  140SAPE  C31815345   5.220   4.068   8.606 -0.0746 -0.3112  0.3444
  140SAPE  H18X15346   5.295   4.018   8.541  0.4563  2.1278 -1.0617
  140SAPE  H18Y15347   5.204   4.172   8.570 -0.2304  0.0087  1.3073
  140SAPE  H18Z15348   5.122   4.019   8.590 -0.1232 -0.1129  0.0270
  141SAPE     N15349   4.677   5.989  10.732 -0.3693  0.0708  0.8473
  141SAPE   HN115350   4.585   6.023  10.697  0.1030  0.0578 -0.4846
  141SAPE   HN215351   4.758   6.033  10.683 -0.6875  0.4121  0.6168
  141SAPE   HN315352   4.677   5.897  10.683  1.2769  1.0192 -1.1116
  141SAPE   C1215353   4.697   5.966  10.880  0.8693  0.4267 -0.2041
  141SAPE  H12A15354   4.596   5.991  10.919  1.7636  1.0974  1.7920
  141SAPE  H12B15355   4.785   6.023  10.917  0.0343  1.3223  0.4403
  141SAPE   C1115356   4.719   5.815  10.904 -0.1489  0.5504  0.2104
  141SAPE  H11A15357   4.628   5.770  10.858 -1.8093  2.5965  1.3054
  141SAPE  H11B15358   4.722   5.788  11.011 -0.0795 -2.7087 -0.5317
  141SAPE     P15359   4.915   5.642  10.898 -0.2030  0.0840  0.5275
  141SAPE   O1315360   5.052   5.674  10.947  0.0393 -0.2637 -0.4168
  141SAPE   O1415361   4.828   5.559  10.980  0.6194 -0.3789 -0.2677
  141SAPE   O1215362   4.838   5.776  10.845 -0.2403  0.0819 -0.1227
  141SAPE   O1115363   4.938   5.552  10.765 -0.5181 -0.4604 -0.1525
  141SAPE    C115364   5.017   5.611  10.664  0.1177 -0.1031 -0.1249
  141SAPE    HA15365   5.102   5.672  10.703  0.2008 -0.5204  0.3582
  141SAPE    HB15366   5.056   5.529  10.601  1.3898  0.3716  0.0115
  141SAPE    C215367   4.935   5.702  10.570 -0.4934  0.2019  0.5039
  141SAPE    HS15368   4.908   5.793  10.627 -2.8071 -1.1481  1.7015
  141SAPE   O2115369   4.835   5.622  10.504 -0.2384  0.0365  0.5207
  141SAPE   C2115370   4.711   5.673  10.522  0.1008  0.0156  0.4361
  141SAPE   O2215371   4.687   5.774  10.580  0.1266 -0.4318 -0.3106
  141SAPE   C2215372   4.612   5.578  10.454  0.5117 -0.3322  0.3794
  141SAPE   H2R15373   4.659   5.486  10.412  0.9729 -0.2976  0.8154
  141SAPE   H2S15374   4.537   5.543  10.529 -0.1329  0.3436  0.0618
  141SAPE    C315375   5.029   5.757  10.469  0.2309 -0.8755 -0.0522
  141SAPE    HX15376   5.121   5.808  10.505  0.6985 -1.0691 -0.9550
  141SAPE    HY15377   4.971   5.842  10.426  0.5529 -0.7192 -0.1780
  141SAPE   O3115378   5.065   5.668  10.370 -0.1256  0.4505 -0.1932
  141SAPE   C3115379   5.043   5.684  10.243 -0.6911  0.4317  0.0606
  141SAPE   O3215380   4.985   5.777  10.192  0.5866 -0.6230 -0.1465
  141SAPE   C3215381   5.111   5.570  10.157  0.8600 -0.3486 -1.1809
  141SAPE   H2X15382   5.036   5.561  10.076 -1.0549 -3.5639  0.7045
  141SAPE   H2Y15383   5.102   5.478  10.220  0.4517 -0.0446 -0.7907
  141SAPE   C2315384   4.540   5.638  10.335 -0.1997  0.0198 -0.9198
  141SAPE   H3R15385   4.609   5.683  10.261  2.1192 -0.3714  0.9031
  141SAPE   H3S15386   4.473   5.718  10.373 -0.7794 -0.7655 -0.2489
  141SAPE   C2415387   4.454   5.530  10.266 -0.1025  0.5457 -0.4787
  141SAPE   H4R15388   4.385   5.481  10.337  1.1253 -1.4526 -0.5719
  141SAPE   H4S15389   4.524   5.454  10.224  0.5821  0.8389  0.1127
  141SAPE   C2515390   4.375   5.596  10.162 -0.3245 -0.2413 -0.2327
  141SAPE   H5R15391   4.276   5.635  10.188 -0.8447 -1.2574 -0.6155
  141SAPE   C2615392   4.415   5.613  10.037 -0.2681  0.2992  0.1235
  141SAPE   H6R15393   4.345   5.670   9.975  1.6744  1.5557 -1.0158
  141SAPE   C2715394   4.546   5.569   9.969 -0.1278  0.4832 -0.4914
  141SAPE   H7R15395   4.540   5.464   9.932  1.9568 -0.5751  1.8295
  141SAPE   H7S15396   4.627   5.578  10.045 -1.6243 -1.6163  1.4901
  141SAPE   C2815397   4.574   5.653   9.850 -0.0398 -0.6990 -0.3090
  141SAPE   H8R15398   4.615   5.753   9.873  1.3408 -1.2971 -0.0376
  141SAPE   C2915399   4.570   5.628   9.719  1.0034  0.0022 -0.1875
  141SAPE   H9R15400   4.594   5.707   9.647  0.7019  0.0110 -0.2801
  141SAPE  C21015401   4.528   5.499   9.646  0.1967  0.1074  0.6842
  141SAPE  H10R15402   4.511   5.428   9.730  1.1906  1.1761  1.8218
  141SAPE  H10S15403   4.618   5.453   9.600 -0.4921 -0.9561  0.3627
  141SAPE  C21115404   4.414   5.522   9.550 -0.3031  0.0958 -0.6434
  141SAPE  H11R15405   4.418   5.622   9.504 -1.6535 -0.3993 -1.9308
  141SAPE  C21215406   4.302   5.443   9.533 -0.3141 -1.0113 -0.3152
  141SAPE  H12R15407   4.224   5.473   9.461  0.4752 -1.7496 -1.5118
  141SAPE  C21315408   4.276   5.310   9.606  0.0689  1.1387  0.7204
  141SAPE  H13R15409   4.189   5.312   9.675  0.4072  1.9407  1.1261
  141SAPE  H13S15410   4.361   5.268   9.665 -0.5249 -3.5027 -1.2351
  141SAPE  C21415411   4.237   5.210   9.500  0.4916 -0.6218  0.2976
  141SAPE  H14R15412   4.324   5.160   9.455 -0.7865 -0.3488 -2.7012
  141SAPE  C21515413   4.117   5.180   9.461  0.6671 -0.1799 -0.1604
  141SAPE  H15R15414   4.114   5.103   9.382 -0.8907 -0.2808 -0.0409
  141SAPE  C21615415   3.989   5.236   9.503  0.7440  0.3886 -0.4893
  141SAPE  H16R15416   4.004   5.312   9.583 -0.5523  0.8027 -0.6255
  141SAPE  H16S15417   3.946   5.144   9.548  2.2392 -0.7738 -1.3438
  141SAPE  C21715418   3.900   5.292   9.387  0.4460 -0.9254 -0.7591
  141SAPE  H17R15419   3.896   5.210   9.311  0.7327 -2.6109  0.9626
  141SAPE  H17S15420   3.956   5.382   9.352 -1.1464 -0.1007 -1.2515
  141SAPE  C21815421   3.763   5.357   9.423  0.2321 -0.5520 -0.3802
  141SAPE  H18R15422   3.721   5.412   9.336  0.9024  1.4650  0.5192
  141SAPE  H18S15423   3.765   5.431   9.506 -3.1603 -0.9315  0.1941
  141SAPE  C21915424   3.667   5.246   9.470  0.5741 -1.0484  0.2063
  141SAPE  H19R15425   3.578   5.305   9.498  0.6729 -1.3138  1.1103
  141SAPE  H19S15426   3.698   5.189   9.561 -0.0671 -0.9699  0.4802
  141SAPE  C22015427   3.629   5.151   9.363 -0.8467  0.7399 -0.7637
  141SAPE  H20R15428   3.553   5.076   9.394  0.5964  0.2146  1.8220
  141SAPE  H20S15429   3.721   5.097   9.333  0.2970  1.1546  1.7440
  141SAPE  H20T15430   3.588   5.194   9.269  0.2596  0.2893 -1.4686
  141SAPE   C3315431   5.260   5.583  10.121  0.3044  0.6636  1.1151
  141SAPE   H3X15432   5.283   5.499  10.053  0.4952 -0.8233  2.9547
  141SAPE   H3Y15433   5.328   5.545  10.200 -0.9350 -3.4758  0.4373
  141SAPE   C3415434   5.294   5.721  10.057 -0.3053 -0.6416  0.0979
  141SAPE   H4X15435   5.404   5.716  10.051 -0.1193 -0.2142  2.3817
  141SAPE   H4Y15436   5.256   5.796  10.130 -0.4910  0.0374 -0.6896
  141SAPE   C3515437   5.223   5.756   9.923 -0.3790  0.2535 -0.1589
  141SAPE   H5X15438   5.268   5.854   9.896  1.4263 -0.5429 -0.1946
  141SAPE   H5Y15439   5.115   5.768   9.946 -1.5528 -1.8765 -3.7864
  141SAPE   C3615440   5.244   5.666   9.803  0.0513  0.4983  0.0007
  141SAPE   H6X15441   5.177   5.578   9.813  0.2386  0.6088  4.0799
  141SAPE   H6Y15442   5.352   5.641   9.809  0.1423  0.8244 -0.2748
  141SAPE   C3715443   5.214   5.729   9.666 -0.0499 -0.7847 -0.1345
  141SAPE   H7X15444   5.258   5.831   9.668 -2.3652  0.3628 -2.0381
  141SAPE   H7Y15445   5.104   5.745   9.660 -0.1944 -2.1010 -2.8225
  141SAPE   C3815446   5.262   5.641   9.542  0.0045  0.0632 -1.0007
  141SAPE   H8X15447   5.232   5.534   9.548  0.1159 -0.0335 -1.9080
  141SAPE   H8Y15448   5.372   5.634   9.539 -0.0369 -0.6208 -1.1244
  141SAPE   C3915449   5.209   5.705   9.413 -0.2179  0.6278  0.7629
  141SAPE   H9X15450   5.256   5.801   9.383  0.0222 -0.1518 -1.5018
  141SAPE   H9Y15451   5.098   5.718   9.419 -0.3000  0.9938 -0.9985
  141SAPE  C31015452   5.252   5.608   9.305  0.0910  0.0680  0.3743
  141SAPE  H10X15453   5.190   5.518   9.327 -0.0888  0.1597  0.2441
  141SAPE  H10Y15454   5.358   5.574   9.308 -0.3908 -2.0086 -2.4537
  141SAPE  C31115455   5.201   5.656   9.170 -0.7392  0.0264 -0.2404
  141SAPE  H11X15456   5.261   5.739   9.126 -0.8686  0.4739  0.4026
  141SAPE  H11Y15457   5.098   5.692   9.189 -0.1960  1.8862 -0.6162
  141SAPE  C31215458   5.189   5.548   9.063  0.5596 -0.3245 -0.5392
  141SAPE  H12X15459   5.125   5.465   9.099 -1.9565  2.1510  1.2190
  141SAPE  H12Y15460   5.290   5.507   9.045  1.4600  0.7348  1.6916
  141SAPE  C31315461   5.143   5.593   8.923 -0.5420 -0.1056  0.0447
  141SAPE  H13X15462   5.189   5.693   8.903 -1.5685  0.6983  1.5309
  141SAPE  H13Y15463   5.034   5.610   8.921 -0.7762 -1.3765  0.8647
  141SAPE  C31415464   5.168   5.504   8.806  0.4335 -0.0214 -0.5629
  141SAPE  H14X15465   5.094   5.422   8.813  1.9563 -1.3297  1.0068
  141SAPE  H14Y15466   5.266   5.453   8.795  0.0472 -0.8848 -0.0662
  141SAPE  C31515467   5.134   5.589   8.674  0.1580  0.0529  0.1134
  141SAPE  H15X15468   5.228   5.645   8.657 -0.0069  0.2971  0.0118
  141SAPE  H15Y15469   5.044   5.653   8.686  0.1603 -0.1060  1.0426
  141SAPE  C31615470   5.114   5.492   8.555 -0.5604 -1.2910 -0.2127
  141SAPE  H16X15471   5.006   5.473   8.536 -0.5229  1.3134 -4.4724
  141SAPE  H16Y15472   5.163   5.394   8.573 -0.8559 -0.8620  3.8286
  141SAPE  C31715473   5.157   5.547   8.415  0.5212 -0.4228  0.1231
  141SAPE  H17X15474   5.159   5.459   8.346  0.1075 -0.0377 -0.3806
  141SAPE  H17Y15475   5.257   5.596   8.414  0.0510  0.6120 -2.2302
  141SAPE  C31815476   5.045   5.637   8.362  0.5320  0.5549  0.3338
  141SAPE  H18X15477   4.952   5.581   8.341  0.6654 -0.0576  1.2958
  141SAPE  H18Y15478   5.081   5.695   8.275 -0.0594 -1.2286 -1.1641
  141SAPE  H18Z15479   5.022   5.715   8.438  1.4436  2.8154 -1.5946
  142SAPE     N15480   5.620   3.972  11.430 -0.9156 -0.0828 -0.1448
  142SAPE   HN115481   5.538   4.034  11.413 -0.3008  0.7133 -0.2756
  142SAPE   HN215482   5.586   3.906  11.503  1.6289 -0.1772  1.0813
  142SAPE   HN315483   5.697   4.034  11.464  0.3796 -2.1916  1.0013
  142SAPE   C1215484   5.652   3.899  11.302 -0.8455  0.0491 -0.2249
  142SAPE  H12A15485   5.568   3.830  11.278 -0.5470 -0.1314 -0.7771
  142SAPE  H12B15486   5.743   3.837  11.308 -0.7818 -0.2495 -3.0808
  142SAPE   C1115487   5.693   3.993  11.187  0.0562 -0.3702  0.3768
  142SAPE  H11A15488   5.596   4.042  11.162  0.6331  0.2210 -0.7620
  142SAPE  H11B15489   5.740   3.942  11.100  1.1268  1.8692 -0.4274
  142SAPE     P15490   5.928   4.110  11.226 -0.0034 -0.2631  0.1208
  142SAPE   O1315491   5.966   4.249  11.267 -0.0203  0.0512  0.4455
  142SAPE   O1415492   5.972   4.004  11.316  0.3976  0.2584  0.4905
  142SAPE   O1215493   5.767   4.109  11.225 -0.2654  0.3805  0.6557
  142SAPE   O1115494   5.985   4.081  11.076  0.4924 -0.2652 -0.1825
  142SAPE    C115495   5.957   4.168  10.961  0.5564  0.2943 -0.5050
  142SAPE    HA15496   5.966   4.276  10.986  0.5190  0.3556 -0.7548
  142SAPE    HB15497   6.035   4.145  10.885  1.3220 -0.7547  0.5526
  142SAPE    C215498   5.819   4.133  10.895 -0.2488  0.1103  0.2036
  142SAPE    HS15499   5.739   4.155  10.968  0.2713  0.8048  0.5797
  142SAPE   O2115500   5.819   4.003  10.843 -0.4853  0.1204  0.0239
  142SAPE   C2115501   5.703   3.954  10.808  0.3019  0.2140  0.2378
  142SAPE   O2215502   5.590   3.994  10.836 -0.2707 -0.5927 -0.9606
  142SAPE   C2215503   5.735   3.823  10.751  0.1840  0.6587  0.5628
  142SAPE   H2R15504   5.843   3.814  10.727 -0.1466 -2.4180 -0.1415
  142SAPE   H2S15505   5.717   3.750  10.833  2.3021 -1.4242 -0.7098
  142SAPE    C315506   5.804   4.228  10.772  0.4178 -0.3653 -0.3500
  142SAPE    HX15507   5.796   4.329  10.818 -0.6636 -0.2612 -0.7282
  142SAPE    HY15508   5.705   4.204  10.728  2.2200 -1.5919 -4.1487
  142SAPE   O3115509   5.915   4.219  10.677  0.7409  0.6438 -0.3536
  142SAPE   C3115510   5.899   4.301  10.576 -0.9771  0.3255  0.9669
  142SAPE   O3215511   5.802   4.367  10.550  0.4762  0.2476  0.3532
  142SAPE   C3215512   6.020   4.288  10.479 -0.9852 -0.7953  0.0590
  142SAPE   H2X15513   6.099   4.221  10.520 -0.0998  0.2698  0.1245
  142SAPE   H2Y15514   6.066   4.389  10.479 -0.5550 -0.9053  3.1611
  142SAPE   C2315515   5.662   3.797  10.614 -0.0206 -0.1764 -0.0589
  142SAPE   H3R15516   5.558   3.824  10.640 -0.7404 -2.2351 -0.6784
  142SAPE   H3S15517   5.669   3.688  10.595  2.9169  0.0908 -1.0646
  142SAPE   C2415518   5.701   3.895  10.501  0.1986  0.5442 -0.3678
  142SAPE   H4R15519   5.649   3.991  10.520  3.3046  2.2052  0.3500
  142SAPE   H4S15520   5.647   3.861  10.410  0.3502 -2.8840  0.6617
  142SAPE   C2515521   5.851   3.910  10.483  0.6095 -0.0379  0.1428
  142SAPE   H5R15522   5.909   3.940  10.572 -0.2224 -0.7116  0.9290
  142SAPE   C2615523   5.919   3.877  10.369  0.8175 -0.4185 -0.7556
  142SAPE   H6R15524   6.028   3.882  10.359  0.6942  0.2098 -2.1035
  142SAPE   C2715525   5.865   3.821  10.242  0.1832  0.3835 -0.8334
  142SAPE   H7R15526   5.948   3.849  10.174  3.2340  1.7801  3.0832
  142SAPE   H7S15527   5.774   3.873  10.204  0.5489  0.3450 -1.7911
  142SAPE   C2815528   5.840   3.673  10.261 -0.1117 -0.3643 -0.3098
  142SAPE   H8R15529   5.827   3.644  10.366  0.5545  0.9666  0.1616
  142SAPE   C2915530   5.849   3.576  10.177  0.9505  0.3043  0.7105
  142SAPE   H9R15531   5.829   3.472  10.205 -0.3655 -0.0205 -1.2368
  142SAPE  C21015532   5.900   3.592  10.040 -0.4583 -0.1124  0.1511
  142SAPE  H10R15533   5.980   3.669  10.034  0.2041 -0.8664 -3.8081
  142SAPE  H10S15534   5.812   3.624   9.980 -1.9879 -2.8139  0.7898
  142SAPE  C21115535   5.961   3.463   9.979  0.1501 -0.2748  0.4869
  142SAPE  H11R15536   6.060   3.428  10.013 -0.0982 -0.2762  1.2375
  142SAPE  C21215537   5.907   3.406   9.877  0.6700  0.4808 -0.0951
  142SAPE  H12R15538   5.964   3.328   9.825  0.3719  1.4979 -2.0241
  142SAPE  C21315539   5.773   3.443   9.812 -0.0440  0.1298 -0.1708
  142SAPE  H13R15540   5.703   3.497   9.879 -0.3360  0.9779 -1.1193
  142SAPE  H13S15541   5.706   3.358   9.787 -1.8049  1.6772 -0.9447
  142SAPE  C21415542   5.784   3.529   9.687  0.4345 -0.1545 -0.0771
  142SAPE  H14R15543   5.839   3.623   9.696 -0.4209  0.3989 -0.4815
  142SAPE  C21515544   5.750   3.496   9.559 -0.7932  0.0344 -0.1645
  142SAPE  H15R15545   5.769   3.575   9.484  2.8658  1.4463  2.0187
  142SAPE  C21615546   5.698   3.361   9.512  1.0405 -0.8920 -0.3709
  142SAPE  H16R15547   5.681   3.293   9.598 -0.1357  0.0577  0.1810
  142SAPE  H16S15548   5.771   3.317   9.441  2.4850 -0.0447  0.5448
  142SAPE  C21715549   5.564   3.379   9.434  0.1717  0.0675  0.9242
  142SAPE  H17R15550   5.493   3.426   9.505 -1.1236 -1.1432  0.4924
  142SAPE  H17S15551   5.521   3.280   9.407 -2.8623  1.8675 -1.6049
  142SAPE  C21815552   5.576   3.476   9.308 -0.3328  0.6881 -0.4834
  142SAPE  H18R15553   5.670   3.457   9.251 -0.5443  0.6650 -0.8307
  142SAPE  H18S15554   5.573   3.584   9.332 -0.6636  0.8398 -1.1818
  142SAPE  C21915555   5.463   3.459   9.204 -0.3622  0.1807  0.4266
  142SAPE  H19R15556   5.463   3.533   9.121  0.6088 -0.6891 -0.3730
  142SAPE  H19S15557   5.364   3.473   9.252 -0.1022 -1.0450  1.3544
  142SAPE  C22015558   5.462   3.314   9.150 -0.2315 -0.3364  0.4011
  142SAPE  H20R15559   5.426   3.242   9.226 -1.3485  0.0752  0.2860
  142SAPE  H20S15560   5.565   3.290   9.116 -0.4645  1.5030 -1.8230
  142SAPE  H20T15561   5.400   3.313   9.058 -2.8911 -0.3654  2.0909
  142SAPE   C3315562   5.982   4.256  10.331 -0.4199 -0.7572  0.1216
  142SAPE   H3X15563   5.936   4.348  10.289  0.2769 -0.4948 -0.0770
  142SAPE   H3Y15564   5.906   4.177  10.312  0.8371 -1.7332 -1.0657
  142SAPE   C3415565   6.119   4.229  10.260 -0.7355 -0.0489  0.4686
  142SAPE   H4X15566   6.174   4.158  10.325  0.7138 -1.7203 -2.4405
  142SAPE   H4Y15567   6.178   4.323  10.258 -0.0669 -0.4411 -2.6074
  142SAPE   C3515568   6.105   4.165  10.114  0.6393 -0.2237  0.1264
  142SAPE   H5X15569   6.052   4.067  10.120  2.6929 -1.3794  0.5193
  142SAPE   H5Y15570   6.209   4.139  10.082 -0.0956 -3.5712  0.0562
  142SAPE   C3615571   6.028   4.266  10.015 -0.3074 -0.0700  0.5467
  142SAPE   H6X15572   6.101   4.349  10.005  0.9434 -1.3176 -1.4428
  142SAPE   H6Y15573   5.942   4.304  10.073  0.0976  0.6012  0.7150
  142SAPE   C3715574   6.002   4.206   9.875  0.7076 -0.6805 -0.0773
  142SAPE   H7X15575   5.927   4.126   9.891  0.4476 -0.5922 -0.8254
  142SAPE   H7Y15576   6.096   4.150   9.860 -0.1497 -2.1659 -0.1658
  142SAPE   C3815577   5.976   4.309   9.771  0.4890  0.7442  0.4022
  142SAPE   H8X15578   6.036   4.403   9.782  1.3245  0.3225 -0.3747
  142SAPE   H8Y15579   5.879   4.354   9.802  1.6852  0.6864  4.9604
  142SAPE   C3915580   5.971   4.247   9.635 -0.6579  0.0909 -0.9149
  142SAPE   H9X15581   5.896   4.167   9.623  0.5622 -1.3337  0.4958
  142SAPE   H9Y15582   6.072   4.208   9.610  0.7323  0.9532  2.7438
  142SAPE  C31015583   5.939   4.354   9.531  0.1610  0.3719  0.0714
  142SAPE  H10X15584   5.990   4.451   9.552  1.0914 -0.2991  1.0425
  142SAPE  H10Y15585   5.832   4.385   9.536  0.6215  1.8636  1.4493
  142SAPE  C31115586   5.977   4.310   9.392  0.0040  0.0602 -0.8970
  142SAPE  H11X15587   5.929   4.212   9.369 -1.0635  0.7586 -1.7355
  142SAPE  H11Y15588   6.085   4.283   9.385 -0.1427 -1.2099  0.9400
  142SAPE  C31215589   5.958   4.408   9.287  0.2042  0.0741 -0.6050
  142SAPE  H12X15590   6.027   4.492   9.309  1.4504 -1.0320 -0.1783
  142SAPE  H12Y15591   5.854   4.447   9.298  0.3736 -0.0518  1.8911
  142SAPE  C31315592   5.988   4.350   9.144  0.7062 -0.1818  0.9876
  142SAPE  H13X15593   5.932   4.256   9.123  2.2950 -1.3387  1.6594
  142SAPE  H13Y15594   6.097   4.331   9.134  1.0047  2.1703 -0.9828
  142SAPE  C31415595   5.937   4.454   9.042 -0.0874  0.2984  0.0754
  142SAPE  H14X15596   5.985   4.553   9.058 -0.7123  1.0937 -2.4943
  142SAPE  H14Y15597   5.829   4.475   9.063  0.3237  0.3563  2.3885
  142SAPE  C31515598   5.957   4.407   8.895 -0.1890 -0.8686 -0.4630
  142SAPE  H15X15599   5.949   4.296   8.902  1.6781 -1.0510 -0.7184
  142SAPE  H15Y15600   6.060   4.430   8.860  0.5553 -1.2064  1.3711
  142SAPE  C31615601   5.849   4.449   8.801  0.4587 -0.0524 -1.1360
  142SAPE  H16X15602   5.840   4.559   8.801 -0.2452 -0.0053  1.8109
  142SAPE  H16Y15603   5.750   4.417   8.843  0.9220 -0.0713 -0.0218
  142SAPE  C31715604   5.861   4.390   8.664 -0.3573  0.7959  0.3131
  142SAPE  H17X15605   5.964   4.408   8.626 -0.3454  0.2566  0.0809
  142SAPE  H17Y15606   5.786   4.435   8.595  1.2501 -1.1887 -3.0317
  142SAPE  C31815607   5.836   4.237   8.676  0.5406 -1.0400  0.4652
  142SAPE  H18X15608   5.764   4.212   8.758  2.4069 -0.1912  2.4656
  142SAPE  H18Y15609   5.927   4.190   8.719  0.0388  0.5195  3.5370
  142SAPE  H18Z15610   5.815   4.202   8.573  0.0260 -1.9454  0.8589
  143SAPE     N15611   6.815   3.548  10.694  0.0826 -0.2615 -0.1678
  143SAPE   HN115612   6.841   3.617  10.767 -0.0582  0.5098 -0.8205
  143SAPE   HN215613   6.868   3.570  10.607  2.2034 -1.6441  0.6945
  143SAPE   HN315614   6.715   3.569  10.674  0.7205  1.9434 -1.4529
  143SAPE   C1215615   6.843   3.405  10.737  0.0183  0.1752  0.3967
  143SAPE  H12A15616   6.833   3.336  10.650 -2.0184 -0.3367  0.9681
  143SAPE  H12B15617   6.765   3.375  10.811 -0.2135  0.3221  0.2139
  143SAPE   C1115618   6.975   3.381  10.808  0.4648 -0.3037 -0.4686
  143SAPE  H11A15619   7.051   3.352  10.732 -1.8084 -0.9652 -2.6341
  143SAPE  H11B15620   6.972   3.290  10.873 -1.4725  1.2302  1.7737
  143SAPE     P15621   7.164   3.539  10.904  0.0918  0.0418 -0.1951
  143SAPE   O1315622   7.168   3.673  10.971  0.6655 -0.4727 -0.2834
  143SAPE   O1415623   7.243   3.432  10.972  0.4218  0.1925 -0.1469
  143SAPE   O1215624   7.009   3.494  10.896 -0.5180  0.2126  0.3235
  143SAPE   O1115625   7.187   3.544  10.747 -0.2737 -0.0622  0.3399
  143SAPE    C115626   7.321   3.554  10.699  0.3443  0.0314  0.5200
  143SAPE    HA15627   7.369   3.639  10.752 -0.2406  1.8970 -1.7636
  143SAPE    HB15628   7.381   3.461  10.710  1.1998  0.3158 -1.3787
  143SAPE    C215629   7.323   3.626  10.562 -0.3030  0.0461 -0.2118
  143SAPE    HS15630   7.430   3.645  10.542 -0.2973 -1.2578 -1.5912
  143SAPE   O2115631   7.252   3.753  10.564  0.0775  1.2479 -0.3338
  143SAPE   C2115632   7.319   3.857  10.603 -0.6582 -0.3973  0.1674
  143SAPE   O2215633   7.425   3.858  10.658 -0.6226 -0.5635 -0.5604
  143SAPE   C2215634   7.257   3.989  10.544 -0.4200  0.4974 -0.2640
  143SAPE   H2R15635   7.150   3.966  10.521 -0.5029 -2.4780  2.3604
  143SAPE   H2S15636   7.268   4.049  10.637  0.7601 -1.9956  1.3238
  143SAPE    C315637   7.281   3.536  10.449 -0.3768 -0.7007  0.7202
  143SAPE    HX15638   7.171   3.526  10.458 -0.3898 -1.9679 -0.4582
  143SAPE    HY15639   7.317   3.433  10.465 -0.8056 -0.9720  0.0108
  143SAPE   O3115640   7.332   3.580  10.322 -0.5398  0.0486 -0.3201
  143SAPE   C3115641   7.237   3.622  10.235 -0.1351  0.4292 -0.4027
  143SAPE   O3215642   7.118   3.614  10.253 -0.1313 -0.2899  0.0699
  143SAPE   C3215643   7.297   3.688  10.114  0.3352  0.0673 -0.0555
  143SAPE   H2X15644   7.392   3.634  10.093 -0.6848 -2.4419  1.3676
  143SAPE   H2Y15645   7.311   3.794  10.145 -1.9951  0.2149  0.6882
  143SAPE   C2315646   7.329   4.059  10.424  0.5496 -0.1992  0.3670
  143SAPE   H3R15647   7.349   3.985  10.344  1.9029 -0.6664  1.1067
  143SAPE   H3S15648   7.433   4.078  10.456  0.4670  1.2494 -0.1396
  143SAPE   C2415649   7.267   4.189  10.388  0.0202  0.0611  0.0152
  143SAPE   H4R15650   7.258   4.244  10.484  0.5731  0.3986 -0.1260
  143SAPE   H4S15651   7.167   4.151  10.357 -0.3917  0.9629  0.2104
  143SAPE   C2515652   7.325   4.275  10.279  0.0641 -0.5525 -0.7529
  143SAPE   H5R15653   7.345   4.379  10.310  0.2014 -0.8881  0.3210
  143SAPE   C2615654   7.359   4.254  10.152 -0.2251 -0.6744 -0.0822
  143SAPE   H6R15655   7.394   4.340  10.093  1.2928 -0.9530  0.3643
  143SAPE   C2715656   7.359   4.124  10.077 -0.6395 -0.0923  0.1789
  143SAPE   H7R15657   7.323   4.032  10.129 -0.8351 -1.3700 -2.0992
  143SAPE   H7S15658   7.462   4.092  10.052 -1.4036 -2.3111 -0.4044
  143SAPE   C2815659   7.270   4.132   9.946 -0.1337 -0.2688 -0.7442
  143SAPE   H8R15660   7.164   4.137   9.972 -0.1430 -2.8623 -0.0145
  143SAPE   C2915661   7.308   4.101   9.817  0.0140 -0.5758  0.6249
  143SAPE   H9R15662   7.243   4.128   9.732  1.3798 -0.4793 -0.4242
  143SAPE  C21015663   7.450   4.069   9.772 -0.5063  0.1688  0.2358
  143SAPE  H10R15664   7.520   4.057   9.858  0.7478  2.4382 -0.3775
  143SAPE  H10S15665   7.486   4.162   9.723 -1.2229  0.9642  1.1696
  143SAPE  C21115666   7.472   3.947   9.680 -0.1227  0.3193 -0.1278
  143SAPE  H11R15667   7.470   3.847   9.724 -0.4205  0.9271  1.3156
  143SAPE  C21215668   7.459   3.953   9.550  0.5540  0.4891 -0.2264
  143SAPE  H12R15669   7.460   3.857   9.496 -1.2272  0.4047 -0.1717
  143SAPE  C21315670   7.402   4.064   9.467  0.6454  0.3980 -0.9266
  143SAPE  H13R15671   7.386   4.154   9.530  1.5154  0.4377 -0.7517
  143SAPE  H13S15672   7.302   4.033   9.429  0.1480  1.3732 -0.4552
  143SAPE  C21415673   7.490   4.102   9.350  0.6009 -0.5332 -0.2457
  143SAPE  H14R15674   7.596   4.119   9.372  0.1003  2.6797  0.1475
  143SAPE  C21515675   7.447   4.126   9.221 -0.0595 -0.0561  0.1734
  143SAPE  H15R15676   7.517   4.166   9.145  0.0628  0.3833  0.5152
  143SAPE  C21615677   7.303   4.097   9.171  0.1935 -0.7497 -0.3787
  143SAPE  H16R15678   7.225   4.144   9.234  0.8735 -2.6249  2.0141
  143SAPE  H16S15679   7.290   3.987   9.178  0.5315 -0.8040 -0.5992
  143SAPE  C21715680   7.275   4.112   9.019  0.4975  0.5517  0.2024
  143SAPE  H17R15681   7.296   4.217   8.990  2.1642  0.3559  0.5707
  143SAPE  H17S15682   7.171   4.084   8.993 -0.0430  1.9706  0.7371
  143SAPE  C21815683   7.366   4.019   8.929 -0.2747 -0.1624 -0.6444
  143SAPE  H18R15684   7.324   3.917   8.941 -0.0423 -0.5292 -2.5889
  143SAPE  H18S15685   7.469   4.014   8.971 -0.0597 -0.0420 -1.1519
  143SAPE  C21915686   7.359   4.055   8.780 -0.2272  0.0100  0.4855
  143SAPE  H19R15687   7.397   4.160   8.779 -0.7889  0.2291 -0.9530
  143SAPE  H19S15688   7.251   4.057   8.755 -0.0587  0.6491 -0.2555
  143SAPE  C22015689   7.436   3.970   8.685  0.2458 -0.0552  0.4909
  143SAPE  H20R15690   7.408   3.995   8.581  3.3200 -1.1757 -0.7316
  143SAPE  H20S15691   7.399   3.866   8.693  1.0093 -0.2531  1.6934
  143SAPE  H20T15692   7.544   3.967   8.713  0.0612 -0.6149  1.1690
  143SAPE   C3315693   7.196   3.672   9.998 -0.7574  0.0222  0.1124
  143SAPE   H3X15694   7.092   3.708  10.011  0.1693  3.2976 -0.7141
  143SAPE   H3Y15695   7.196   3.561   9.988  2.1630  0.1973 -3.8837
  143SAPE   C3415696   7.233   3.703   9.854  0.2180 -0.2836  1.2125
  143SAPE   H4X15697   7.331   3.661   9.822 -1.1211 -1.4399 -1.7832
  143SAPE   H4Y15698   7.238   3.812   9.831 -0.4725 -0.8142 -2.0749
  143SAPE   C3515699   7.133   3.633   9.755  0.8888  0.1279  0.4568
  143SAPE   H5X15700   7.031   3.666   9.783  1.2848  0.2763  1.8113
  143SAPE   H5Y15701   7.115   3.523   9.749 -2.1413  0.6072 -1.2482
  143SAPE   C3615702   7.172   3.684   9.616 -0.1842  0.2448 -0.2266
  143SAPE   H6X15703   7.211   3.787   9.625 -0.7390  0.4375 -0.0019
  143SAPE   H6Y15704   7.081   3.696   9.554  0.8315  0.0533 -1.8268
  143SAPE   C3715705   7.280   3.594   9.551 -0.2895 -0.5445 -0.0410
  143SAPE   H7X15706   7.277   3.492   9.593 -3.8876 -0.2779  0.7241
  143SAPE   H7Y15707   7.387   3.620   9.566 -0.1961 -0.6620 -0.4913
  143SAPE   C3815708   7.260   3.581   9.394 -0.4689  0.2933 -0.2645
  143SAPE   H8X15709   7.246   3.686   9.359 -1.1141 -0.3045 -1.8755
  143SAPE   H8Y15710   7.165   3.530   9.368 -0.7603 -0.2430  1.6943
  143SAPE   C3915711   7.379   3.508   9.327  0.6125  0.0231  0.0931
  143SAPE   H9X15712   7.348   3.406   9.295 -0.5678  1.2521 -3.0706
  143SAPE   H9Y15713   7.457   3.503   9.406  0.6303  1.8529  0.2375
  143SAPE  C31015714   7.429   3.595   9.209  0.0938 -0.3485 -0.6695
  143SAPE  H10X15715   7.524   3.540   9.190  1.4212  1.0912  1.4120
  143SAPE  H10Y15716   7.463   3.697   9.235  0.2271  0.0283 -2.2276
  143SAPE  C31115717   7.338   3.599   9.086  0.4018  0.3210  0.1587
  143SAPE  H11X15718   7.390   3.658   9.007  0.6262 -1.1294 -0.8199
  143SAPE  H11Y15719   7.244   3.648   9.121 -0.5919 -2.3260  1.3809
  143SAPE  C31215720   7.293   3.464   9.018  0.4267 -0.8287  0.2481
  143SAPE  H12X15721   7.207   3.471   8.948 -0.5750  2.3166  1.6305
  143SAPE  H12Y15722   7.247   3.414   9.106 -2.2363 -0.3266 -0.7640
  143SAPE  C31315723   7.407   3.388   8.956  0.1977 -0.1228  0.5516
  143SAPE  H13X15724   7.383   3.281   8.933 -0.9423  0.4954 -1.4175
  143SAPE  H13Y15725   7.473   3.387   9.045 -0.0358  1.6628  0.7709
  143SAPE  C31415726   7.476   3.456   8.832 -0.8823 -0.8355 -1.0926
  143SAPE  H14X15727   7.507   3.558   8.864 -0.5138 -0.9396 -1.1136
  143SAPE  H14Y15728   7.409   3.476   8.746  1.1680 -0.4724 -2.6849
  143SAPE  C31515729   7.593   3.370   8.789 -0.3077  0.0982  0.1481
  143SAPE  H15X15730   7.557   3.277   8.738  0.6409 -0.3853  0.3458
  143SAPE  H15Y15731   7.663   3.335   8.867  0.1300  0.0698 -0.2550
  143SAPE  C31615732   7.679   3.447   8.685  0.5280  0.5010  0.3165
  143SAPE  H16X15733   7.708   3.550   8.715  0.1832  0.4919  0.6861
  143SAPE  H16Y15734   7.611   3.457   8.598  1.0203  0.2968 -0.0998
  143SAPE  C31715735   7.804   3.372   8.632 -0.1284 -0.4432  0.2402
  143SAPE  H17X15736   7.838   3.421   8.538 -0.1066  1.3796  1.1622
  143SAPE  H17Y15737   7.780   3.264   8.619  0.0834 -0.7923  2.4066
  143SAPE  C31815738   7.916   3.378   8.738 -0.5355 -0.1570 -0.1174
  143SAPE  H18X15739   7.943   3.485   8.751 -0.4108  0.0490 -1.7477
  143SAPE  H18Y15740   8.010   3.335   8.695 -0.2074  0.3627  0.0814
  143SAPE  H18Z15741   7.898   3.327   8.834  0.8303 -0.4849 -0.0052
  144SAPE     N15742   3.662   2.239  11.153  0.2932 -0.2221  0.1346
  144SAPE   HN115743   3.725   2.164  11.188 -0.2134 -0.6167  0.2141
  144SAPE   HN215744   3.714   2.323  11.122 -4.3461  2.6330 -0.8236
  144SAPE   HN315745   3.593   2.265  11.225 -0.6839 -0.4644 -0.6940
  144SAPE   C1215746   3.583   2.179  11.039 -0.1161 -0.6891  0.5870
  144SAPE  H12A15747   3.547   2.262  10.975  1.9495 -1.2983 -1.4868
  144SAPE  H12B15748   3.503   2.118  11.087 -0.5451 -0.5146  0.1006
  144SAPE   C1115749   3.668   2.086  10.948  0.9058  0.5258 -0.2441
  144SAPE  H11A15750   3.758   2.128  10.898 -0.2667  0.4634 -2.5735
  144SAPE  H11B15751   3.607   2.063  10.858 -2.2730 -1.2327  2.1467
  144SAPE     P15752   3.608   1.838  11.013 -0.2771 -0.4858  0.1925
  144SAPE   O1315753   3.685   1.715  11.046 -0.4965  0.3963 -0.5419
  144SAPE   O1415754   3.491   1.864  11.090 -0.4130  0.1499  0.2209
  144SAPE   O1215755   3.702   1.964  11.025 -0.8686 -0.4666  0.2654
  144SAPE   O1115756   3.556   1.828  10.862  0.2244 -0.3393  0.1231
  144SAPE    C115757   3.653   1.802  10.761 -0.2164 -0.6600  0.4144
  144SAPE    HA15758   3.738   1.873  10.759  1.4782 -2.5194  2.0310
  144SAPE    HB15759   3.694   1.700  10.782  1.5193 -0.2510 -0.7441
  144SAPE    C215760   3.607   1.807  10.612  0.5710 -0.8511 -0.1720
  144SAPE    HS15761   3.572   1.907  10.579 -0.9103 -1.5066 -0.6706
  144SAPE   O2115762   3.508   1.698  10.599 -0.1348  0.4901  0.1898
  144SAPE   C2115763   3.387   1.743  10.613  0.3682  1.1599  0.8431
  144SAPE   O2215764   3.354   1.858  10.629 -0.2808 -0.0128 -0.1663
  144SAPE   C2215765   3.277   1.638  10.584  0.0957  0.0133  0.1826
  144SAPE   H2R15766   3.256   1.592  10.683  0.9398  1.0346  0.8634
  144SAPE   H2S15767   3.186   1.700  10.569  0.4625  0.1595 -1.6161
  144SAPE    C315768   3.729   1.778  10.524 -0.0168 -0.0819 -0.7460
  144SAPE    HX15769   3.788   1.697  10.572 -0.3825  0.3246  0.4331
  144SAPE    HY15770   3.796   1.866  10.528 -2.1082  1.5525  1.5324
  144SAPE   O3115771   3.681   1.751  10.388 -0.5476  0.2999  0.6258
  144SAPE   C3115772   3.693   1.629  10.341  0.3652 -0.0678  0.2793
  144SAPE   O3215773   3.729   1.529  10.401  0.2375 -0.6796 -0.2513
  144SAPE   C3215774   3.659   1.637  10.190 -0.2351  0.0103 -0.0826
  144SAPE   H2X15775   3.715   1.726  10.152  0.0222  0.9486  2.2942
  144SAPE   H2Y15776   3.549   1.650  10.184 -0.4941  0.1555  3.0102
  144SAPE   C2315777   3.308   1.532  10.469 -0.2875 -0.1676 -0.2746
  144SAPE   H3R15778   3.238   1.447  10.474 -1.0198  0.3815 -0.9178
  144SAPE   H3S15779   3.407   1.486  10.492 -1.0953 -1.6108  0.4069
  144SAPE   C2415780   3.302   1.593  10.330 -0.0062  0.3661 -0.3326
  144SAPE   H4R15781   3.375   1.677  10.322  1.0304 -0.5291 -0.5629
  144SAPE   H4S15782   3.210   1.653  10.313  0.9579  1.7878 -0.7023
  144SAPE   C2515783   3.310   1.485  10.224 -0.1306 -0.3953  0.3958
  144SAPE   H5R15784   3.396   1.416  10.229  1.7275  1.6565 -0.8371
  144SAPE   C2615785   3.226   1.466  10.121  0.1187  0.4826  0.0120
  144SAPE   H6R15786   3.243   1.377  10.058 -1.0564  0.6095 -0.5153
  144SAPE   C2715787   3.101   1.536  10.085  0.5822 -0.5540 -0.3337
  144SAPE   H7R15788   3.079   1.628  10.143 -0.2049 -0.9452 -0.0064
  144SAPE   H7S15789   3.018   1.465  10.106  1.1628 -0.6919  1.6940
  144SAPE   C2815790   3.099   1.588   9.941  0.1949 -0.0458 -0.5381
  144SAPE   H8R15791   3.167   1.671   9.919 -0.7287  0.8879  0.0349
  144SAPE   C2915792   3.025   1.537   9.841 -0.5385 -0.5307 -0.2192
  144SAPE   H9R15793   3.037   1.570   9.737 -2.6763  0.2535 -0.2592
  144SAPE  C21015794   2.923   1.425   9.857  0.6476  0.4067  0.3435
  144SAPE  H10R15795   2.855   1.443   9.944 -0.3890  0.4964 -0.4711
  144SAPE  H10S15796   2.987   1.339   9.887 -0.0428  0.0504  0.8219
  144SAPE  C21115797   2.843   1.375   9.737 -0.0448 -0.0126  0.5174
  144SAPE  H11R15798   2.734   1.390   9.738 -0.4262 -0.9478 -4.1472
  144SAPE  C21215799   2.884   1.290   9.646  0.6517 -0.1558  0.7664
  144SAPE  H12R15800   2.802   1.248   9.585  0.8937 -1.2885  1.2019
  144SAPE  C21315801   3.018   1.233   9.613  0.0953  0.2741 -0.6271
  144SAPE  H13R15802   3.097   1.269   9.683 -1.5242  2.1987  0.2841
  144SAPE  H13S15803   3.048   1.262   9.510  0.8290 -1.5571 -0.9776
  144SAPE  C21415804   3.023   1.088   9.627 -0.0422 -0.5123  0.2463
  144SAPE  H14R15805   3.017   1.050   9.730 -4.9486 -2.3090 -0.4826
  144SAPE  C21515806   3.039   0.994   9.523  0.4188 -0.1174 -0.5282
  144SAPE  H15R15807   3.035   0.887   9.550 -2.4462 -0.2265 -1.0523
  144SAPE  C21615808   3.051   1.029   9.377 -0.2686  0.5871 -0.7271
  144SAPE  H16R15809   3.145   0.993   9.330 -0.1488 -0.2927  0.1476
  144SAPE  H16S15810   3.056   1.138   9.361  2.2462  0.6138 -0.0815
  144SAPE  C21715811   2.935   0.972   9.293  0.6313 -0.5654 -0.4002
  144SAPE  H17R15812   2.832   1.005   9.319 -0.3901 -1.9760 -2.3428
  144SAPE  H17S15813   2.943   0.861   9.305 -2.1385 -1.1987 -3.0793
  144SAPE  C21815814   2.961   1.013   9.152  0.7996  0.2039  0.6186
  144SAPE  H18R15815   2.916   0.926   9.099  1.8670 -0.2103  0.3636
  144SAPE  H18S15816   3.070   1.020   9.131  0.5283  2.9164 -0.2295
  144SAPE  C21915817   2.894   1.145   9.101 -0.0715  0.0679  0.6412
  144SAPE  H19R15818   2.785   1.146   9.123 -0.4785  0.9444 -1.2067
  144SAPE  H19S15819   2.903   1.153   8.990 -0.7990  1.5071  0.6498
  144SAPE  C22015820   2.945   1.282   9.161  0.9306  0.1801 -0.3737
  144SAPE  H20R15821   2.938   1.288   9.272 -0.7680 -0.7272 -0.3898
  144SAPE  H20S15822   2.908   1.373   9.111 -0.0077  0.6673  1.1244
  144SAPE  H20T15823   3.051   1.290   9.129  0.5854 -0.5441 -1.7458
  144SAPE   C3315824   3.708   1.517  10.104  0.3101  0.4743 -0.2847
  144SAPE   H3X15825   3.652   1.423  10.125  2.5200 -0.9916 -0.6098
  144SAPE   H3Y15826   3.816   1.498  10.123  0.3729  1.6844  0.6829
  144SAPE   C3415827   3.679   1.556   9.964  0.4563  0.6899 -0.9435
  144SAPE   H4X15828   3.738   1.644   9.931  0.2924  1.0504 -0.3002
  144SAPE   H4Y15829   3.572   1.580   9.945  0.2286 -0.7334 -1.5681
  144SAPE   C3515830   3.731   1.453   9.863  0.2145  0.6974 -0.1685
  144SAPE   H5X15831   3.688   1.361   9.908  3.6546  0.1692  2.5017
  144SAPE   H5Y15832   3.841   1.436   9.853  0.3082  0.2864  1.3089
  144SAPE   C3615833   3.672   1.488   9.722  0.9943  0.4935 -0.0789
  144SAPE   H6X15834   3.572   1.534   9.733  1.1699  0.7080  0.6955
  144SAPE   H6Y15835   3.657   1.391   9.670 -0.3249  1.1741 -1.0250
  144SAPE   C3715836   3.758   1.574   9.629  0.7510  0.2196 -0.3820
  144SAPE   H7X15837   3.856   1.525   9.610  0.6518 -0.3541  0.5538
  144SAPE   H7Y15838   3.771   1.673   9.678  0.0780 -0.3635  1.0075
  144SAPE   C3815839   3.687   1.596   9.490  0.0627  0.4852 -0.2628
  144SAPE   H8X15840   3.582   1.624   9.511  0.3090  0.7201  0.7006
  144SAPE   H8Y15841   3.669   1.499   9.440  3.0653  0.4733 -1.5505
  144SAPE   C3915842   3.753   1.697   9.399 -0.1156 -0.1969 -0.1221
  144SAPE   H9X15843   3.853   1.656   9.369  0.5594  0.0550  1.6702
  144SAPE   H9Y15844   3.784   1.783   9.462  1.2951 -1.2830  0.7175
  144SAPE  C31015845   3.670   1.741   9.277 -0.0166  0.2275  0.7656
  144SAPE  H10X15846   3.722   1.813   9.210 -3.5764  2.2721 -0.0511
  144SAPE  H10Y15847   3.576   1.796   9.297 -1.1906 -0.9118 -1.3264
  144SAPE  C31115848   3.643   1.624   9.182 -0.5099 -0.0168  0.0982
  144SAPE  H11X15849   3.561   1.565   9.227 -0.8334  0.1273 -0.2940
  144SAPE  H11Y15850   3.734   1.562   9.168 -0.0509 -0.2789  3.5736
  144SAPE  C31215851   3.599   1.687   9.042 -0.5739 -0.5025 -0.2131
  144SAPE  H12X15852   3.693   1.710   8.987  0.5337 -3.0376  0.5182
  144SAPE  H12Y15853   3.545   1.782   9.064  0.8915  0.0718  1.1486
  144SAPE  C31315854   3.526   1.604   8.944  0.2283  0.0600  0.1546
  144SAPE  H13X15855   3.424   1.581   8.981 -0.7387  0.7997 -1.8634
  144SAPE  H13Y15856   3.575   1.505   8.936 -1.9369 -1.0093 -0.5754
  144SAPE  C31415857   3.501   1.664   8.804  0.2741 -0.0602 -0.2368
  144SAPE  H14X15858   3.595   1.686   8.748 -0.3036  2.7167 -0.2330
  144SAPE  H14Y15859   3.449   1.758   8.832 -1.0163 -0.8913  0.2354
  144SAPE  C31515860   3.409   1.578   8.719  0.4676 -0.0506 -0.0461
  144SAPE  H15X15861   3.316   1.555   8.776 -1.8071  3.6487 -1.8517
  144SAPE  H15Y15862   3.457   1.480   8.700  0.6366 -0.4217  2.0301
  144SAPE  C31615863   3.372   1.642   8.585 -0.7576 -0.9040  0.4002
  144SAPE  H16X15864   3.344   1.748   8.599  0.8599 -0.4390  0.3308
  144SAPE  H16Y15865   3.280   1.597   8.543  0.3523 -3.0726  0.1346
  144SAPE  C31715866   3.501   1.625   8.488 -0.3847  0.3557  0.4547
  144SAPE  H17X15867   3.490   1.530   8.432 -0.1490  0.1076  0.8274
  144SAPE  H17Y15868   3.583   1.609   8.561 -0.1692  0.9507  0.3480
  144SAPE  C31815869   3.521   1.747   8.395  0.0729 -0.3691  0.2099
  144SAPE  H18X15870   3.533   1.842   8.451 -2.8777 -0.1594  0.6271
  144SAPE  H18Y15871   3.433   1.753   8.328 -1.5410  0.5376  2.2946
  144SAPE  H18Z15872   3.604   1.732   8.323 -1.2867 -0.0609 -1.4583
  145SAPE     N15873   0.652   3.849  10.992  0.4782 -0.2224 -0.0730
  145SAPE   HN115874   0.685   3.943  11.019 -0.1001  0.6163 -2.1118
  145SAPE   HN215875   0.577   3.862  10.922 -0.7846  1.6597  1.5416
  145SAPE   HN315876   0.627   3.789  11.073 -1.8237 -1.0768 -1.3151
  145SAPE   C1215877   0.770   3.791  10.926  0.3031  0.6598 -0.0208
  145SAPE  H12A15878   0.797   3.839  10.830 -2.2984 -0.1524 -1.2186
  145SAPE  H12B15879   0.753   3.683  10.906 -0.4952  0.8009 -0.1293
  145SAPE   C1115880   0.895   3.796  11.017  0.7641  0.6680 -0.3019
  145SAPE  H11A15881   0.914   3.903  11.038  0.0275  0.8631 -0.5880
  145SAPE  H11B15882   0.986   3.765  10.962  1.3194 -1.1963  1.5404
  145SAPE     P15883   0.944   3.575  11.150  0.1878  0.2477 -0.0447
  145SAPE   O1315884   1.091   3.583  11.174  0.0730 -0.0064 -0.5213
  145SAPE   O1415885   0.869   3.486  11.241  0.5324  0.3539  0.0309
  145SAPE   O1215886   0.877   3.720  11.139 -0.0778 -0.1640 -0.6097
  145SAPE   O1115887   0.920   3.516  11.004 -0.1709  0.2803  0.0974
  145SAPE    C115888   1.021   3.474  10.916 -0.5400 -0.4823  0.2772
  145SAPE    HA15889   1.105   3.546  10.928 -1.0252 -0.0032  0.8140
  145SAPE    HB15890   1.056   3.373  10.948  0.3623  0.1268  1.3001
  145SAPE    C215891   0.978   3.482  10.764 -0.8142  0.5397 -0.3923
  145SAPE    HS15892   1.050   3.415  10.712 -1.2930  0.2802 -0.7318
  145SAPE   O2115893   0.993   3.617  10.711 -0.4618  0.5488  0.2963
  145SAPE   C2115894   1.104   3.649  10.649  0.1806  0.1210 -0.0298
  145SAPE   O2215895   1.195   3.573  10.626  0.4305  0.1384  0.9743
  145SAPE   C2215896   1.094   3.795  10.605 -0.8464 -0.1026 -0.5202
  145SAPE   H2R15897   1.105   3.857  10.696  1.0182 -3.4713  1.7756
  145SAPE   H2S15898   1.182   3.817  10.540 -1.0885  0.4979 -0.6492
  145SAPE    C315899   0.839   3.417  10.752  0.1188  0.6556  0.1515
  145SAPE    HX15900   0.763   3.483  10.799 -1.6366  0.8927 -2.7557
  145SAPE    HY15901   0.826   3.317  10.798 -0.2131 -0.0438 -1.4281
  145SAPE   O3115902   0.805   3.408  10.614 -0.2980  0.0125 -0.3546
  145SAPE   C3115903   0.855   3.307  10.549  0.5590  0.5085  0.5375
  145SAPE   O3215904   0.933   3.221  10.591 -0.6499  0.2523 -0.2522
  145SAPE   C3215905   0.786   3.312  10.413  0.3316  0.3597  0.1324
  145SAPE   H2X15906   0.837   3.395  10.361  1.0685 -0.1068  0.0939
  145SAPE   H2Y15907   0.676   3.323  10.426  0.2168 -0.8212  0.2521
  145SAPE   C2315908   0.962   3.822  10.532 -0.1115 -0.2267 -0.0975
  145SAPE   H3R15909   0.925   3.924  10.554  1.6320  0.2475  0.8266
  145SAPE   H3S15910   0.878   3.759  10.568 -0.1279  0.8478  1.8692
  145SAPE   C2415911   0.971   3.815  10.381  0.4406  0.7056  0.0978
  145SAPE   H4R15912   1.028   3.721  10.364 -1.1409 -0.2870  0.0543
  145SAPE   H4S15913   1.038   3.896  10.343  3.3073 -0.9934  1.1634
  145SAPE   C2515914   0.847   3.807  10.301  0.2974  0.0981  0.1502
  145SAPE   H5R15915   0.752   3.837  10.349 -0.6052 -2.3051  0.0181
  145SAPE   C2615916   0.846   3.776  10.172  0.1730 -0.4927  0.1259
  145SAPE   H6R15917   0.748   3.756  10.127  0.2280 -0.7466  0.1157
  145SAPE   C2715918   0.965   3.729  10.090  0.3655 -0.1719 -1.0630
  145SAPE   H7R15919   0.954   3.623  10.058  0.1040  0.0643 -1.7587
  145SAPE   H7S15920   1.056   3.722  10.154  0.0781 -1.2285 -0.7514
  145SAPE   C2815921   0.998   3.828   9.983 -0.0435  0.1041  0.1695
  145SAPE   H8R15922   1.044   3.917  10.030  2.0719  0.2850 -2.0144
  145SAPE   C2915923   0.978   3.808   9.851  0.0327 -0.1310 -0.5998
  145SAPE   H9R15924   1.016   3.886   9.783  2.6626  0.3346  1.2385
  145SAPE  C21015925   0.929   3.682   9.785 -0.6240 -0.3953  0.7052
  145SAPE  H10R15926   0.832   3.720   9.746 -0.2447  0.8791  0.9868
  145SAPE  H10S15927   0.900   3.600   9.854  0.0045 -0.9929  0.2799
  145SAPE  C21115928   1.019   3.635   9.678 -0.2256 -0.3675  0.2223
  145SAPE  H11R15929   1.119   3.605   9.713  0.1538 -2.6676 -2.4862
  145SAPE  C21215930   0.991   3.614   9.550 -0.0187 -0.5656 -0.2480
  145SAPE  H12R15931   1.075   3.588   9.484 -1.0661  3.7971 -3.8029
  145SAPE  C21315932   0.868   3.653   9.473 -0.1032 -0.1436 -0.1789
  145SAPE  H13R15933   0.788   3.699   9.534  0.8871  0.1642  0.9252
  145SAPE  H13S15934   0.834   3.563   9.417  0.6816  0.5058 -1.7645
  145SAPE  C21415935   0.912   3.767   9.384  0.2293  0.0561  0.5629
  145SAPE  H14R15936   0.890   3.867   9.425 -4.0943 -0.8007  0.8206
  145SAPE  C21515937   0.975   3.757   9.266 -0.1066 -0.0802  0.5991
  145SAPE  H15R15938   0.998   3.848   9.210  0.5570 -0.4608  0.2445
  145SAPE  C21615939   1.006   3.627   9.194  0.3152  0.1741  0.0716
  145SAPE  H16R15940   0.930   3.551   9.221  0.2216  0.4829  0.7059
  145SAPE  H16S15941   1.108   3.591   9.219  0.4043  0.4222  0.0754
  145SAPE  C21715942   1.005   3.657   9.042 -0.2592 -0.8193  0.1724
  145SAPE  H17R15943   0.909   3.707   9.019  0.3787  0.8365  0.9618
  145SAPE  H17S15944   1.028   3.566   8.982 -0.4551 -1.4069  0.9559
  145SAPE  C21815945   1.115   3.753   9.001 -1.1543  0.5868 -0.5952
  145SAPE  H18R15946   1.132   3.839   9.069 -0.0047  0.5437 -0.8163
  145SAPE  H18S15947   1.074   3.799   8.909  0.0541 -0.9679 -1.9729
  145SAPE  C21915948   1.253   3.678   8.958 -0.3261 -0.1085  0.3561
  145SAPE  H19R15949   1.234   3.594   8.888  0.9581 -0.7418  0.7375
  145SAPE  H19S15950   1.289   3.644   9.057  2.0790  1.5808  0.1777
  145SAPE  C22015951   1.360   3.762   8.901  0.0739 -0.2655  0.4512
  145SAPE  H20R15952   1.316   3.842   8.838  1.3933 -1.2237 -1.8103
  145SAPE  H20S15953   1.417   3.693   8.835 -0.9045  0.1154 -0.8252
  145SAPE  H20T15954   1.424   3.810   8.978  1.3549 -0.0395 -0.7145
  145SAPE   C3315955   0.799   3.185  10.328  0.1141  0.5137  1.2982
  145SAPE   H3X15956   0.762   3.096  10.384  0.7833 -0.3869  0.3532
  145SAPE   H3Y15957   0.907   3.158  10.316 -0.1807 -0.3423  0.4556
  145SAPE   C3415958   0.723   3.198  10.193 -0.2547 -0.3973  0.1736
  145SAPE   H4X15959   0.618   3.231  10.212  0.1077  1.2689 -0.6112
  145SAPE   H4Y15960   0.693   3.100  10.151  0.9317 -0.4308 -0.6115
  145SAPE   C3515961   0.785   3.281  10.086  0.2007  0.5556 -0.8929
  145SAPE   H5X15962   0.890   3.254  10.059  0.2761  0.2659 -0.3353
  145SAPE   H5Y15963   0.774   3.389  10.110 -0.9462  0.1728  0.4067
  145SAPE   C3615964   0.715   3.261   9.958  1.0711  0.1275 -0.3942
  145SAPE   H6X15965   0.608   3.279   9.980  1.5289  2.9736 -0.0547
  145SAPE   H6Y15966   0.720   3.157   9.921 -1.5862 -0.1126 -0.2532
  145SAPE   C3715967   0.752   3.372   9.859  0.7010 -0.0629  0.5336
  145SAPE   H7X15968   0.863   3.368   9.853  0.8971  1.2110  2.6784
  145SAPE   H7Y15969   0.729   3.469   9.907  0.8927 -0.7288  2.0006
  145SAPE   C3815970   0.689   3.368   9.720 -0.6484 -0.0267 -1.3814
  145SAPE   H8X15971   0.710   3.460   9.660  1.1396  1.5327  1.4137
  145SAPE   H8Y15972   0.579   3.367   9.735 -0.8680  3.1597 -2.0421
  145SAPE   C3915973   0.735   3.237   9.649 -0.4149  0.2103  0.6319
  145SAPE   H9X15974   0.684   3.149   9.695  1.3912 -1.4950 -0.4784
  145SAPE   H9Y15975   0.844   3.216   9.661 -0.3445  0.5772  0.6305
  145SAPE  C31015976   0.682   3.233   9.505  0.1918 -0.2847  0.6079
  145SAPE  H10X15977   0.738   3.317   9.458 -0.3886  0.6245  1.5171
  145SAPE  H10Y15978   0.574   3.251   9.488  0.5774  0.6662 -1.1490
  145SAPE  C31115979   0.720   3.104   9.431  0.4170  1.4682  0.5494
  145SAPE  H11X15980   0.677   3.010   9.472 -0.9448  0.7570 -2.2139
  145SAPE  H11Y15981   0.830   3.092   9.422  0.0340 -1.8784 -1.5468
  145SAPE  C31215982   0.686   3.109   9.279  0.7129 -0.1816  0.6606
  145SAPE  H12X15983   0.762   3.169   9.225  0.7083 -0.7978 -0.0573
  145SAPE  H12Y15984   0.586   3.157   9.267 -0.3867 -2.2010  1.1853
  145SAPE  C31315985   0.699   2.971   9.216 -0.7638 -0.5940 -0.3978
  145SAPE  H13X15986   0.625   2.899   9.257 -1.6563  1.7984  2.6139
  145SAPE  H13Y15987   0.797   2.935   9.255 -0.5054 -0.3871 -0.8510
  145SAPE  C31415988   0.703   2.983   9.059  0.6529  0.1552 -0.2243
  145SAPE  H14X15989   0.774   3.065   9.038  2.9612 -1.1645  1.8478
  145SAPE  H14Y15990   0.600   3.012   9.029 -0.2031 -1.2057  1.2231
  145SAPE  C31515991   0.731   2.852   8.983 -0.4035 -0.2340  0.2567
  145SAPE  H15X15992   0.671   2.769   9.027 -0.3187 -0.7330 -0.5410
  145SAPE  H15Y15993   0.839   2.825   8.991 -0.4694 -1.2546 -1.5996
  145SAPE  C31615994   0.693   2.862   8.831 -0.6109 -0.2252  0.1034
  145SAPE  H16X15995   0.584   2.886   8.828 -0.9895 -1.4851  1.9399
  145SAPE  H16Y15996   0.714   2.760   8.795  2.2613  0.1377  0.5268
  145SAPE  C31715997   0.760   2.970   8.748  0.6719 -0.1792  0.6603
  145SAPE  H17X15998   0.868   2.944   8.739  0.3469 -1.9413  1.3513
  145SAPE  H17Y15999   0.747   3.067   8.800  0.9328  0.7154 -0.8832
  145SAPE  C31816000   0.707   2.998   8.602  0.3538  0.9012 -0.4542
  145SAPE  H18X16001   0.748   3.092   8.560 -0.4862  1.3653 -0.2565
  145SAPE  H18Y16002   0.597   2.983   8.605  0.4660  0.0247 -0.3156
  145SAPE  H18Z16003   0.747   2.909   8.549 -0.2088  0.0469  0.4962
  146SAPE     N16004   4.116   2.816  11.125 -0.0639  0.0525 -0.3201
  146SAPE   HN116005   4.190   2.884  11.097 -0.7881  0.8488 -0.3393
  146SAPE   HN216006   4.044   2.870  11.177 -0.7001  0.5522 -1.6840
  146SAPE   HN316007   4.149   2.743  11.192  1.9346 -0.1048 -1.3804
  146SAPE   C1216008   4.059   2.750  11.005 -0.2333 -0.6007  0.3214
  146SAPE  H12A16009   4.006   2.822  10.939  1.9549 -0.0832 -0.9809
  146SAPE  H12B16010   3.992   2.665  11.029 -1.4806  0.3763  0.4325
  146SAPE   C1116011   4.179   2.698  10.922  0.6758 -0.6039 -0.8411
  146SAPE  H11A16012   4.246   2.776  10.880  1.0093 -0.5644 -0.2494
  146SAPE  H11B16013   4.139   2.640  10.836 -2.0875 -2.1972  1.3282
  146SAPE     P16014   4.264   2.458  10.988 -0.3585  0.0229 -0.0074
  146SAPE   O1316015   4.399   2.415  11.025 -0.0042  0.3822 -0.1047
  146SAPE   O1416016   4.152   2.399  11.061  0.2294  0.1035 -0.3287
  146SAPE   O1216017   4.257   2.613  10.999 -0.1119 -0.5659 -0.7079
  146SAPE   O1116018   4.252   2.437  10.827 -0.1028  0.4788 -0.0816
  146SAPE    C116019   4.367   2.451  10.741  0.1310  0.0197  0.7085
  146SAPE    HA16020   4.454   2.475  10.806 -0.2980 -0.5120  1.5003
  146SAPE    HB16021   4.387   2.353  10.693  0.3686  1.0761 -1.4606
  146SAPE    C216022   4.347   2.547  10.618 -0.7979 -0.2032 -0.0516
  146SAPE    HS16023   4.343   2.649  10.663  1.1806  1.0046 -2.3880
  146SAPE   O2116024   4.224   2.516  10.556 -0.6415  0.1758  0.1074
  146SAPE   C2116025   4.162   2.619  10.505  0.0916 -0.5125  0.3683
  146SAPE   O2216026   4.197   2.736  10.517 -0.4461  0.1002  0.7261
  146SAPE   C2216027   4.042   2.570  10.424 -0.0771 -0.1819  0.5256
  146SAPE   H2R16028   4.067   2.475  10.372  1.7724  0.5934 -0.0639
  146SAPE   H2S16029   3.963   2.537  10.496 -0.1092  0.1960  0.6646
  146SAPE    C316030   4.465   2.520  10.511 -0.2516 -0.3227  0.2042
  146SAPE    HX16031   4.466   2.417  10.471 -2.6190 -0.4100  0.2454
  146SAPE    HY16032   4.565   2.527  10.558 -0.4632  0.1294  0.6036
  146SAPE   O3116033   4.449   2.608  10.394 -0.0971 -0.2810 -0.2789
  146SAPE   C3116034   4.560   2.647  10.325  0.0699 -0.1679 -0.3800
  146SAPE   O3216035   4.668   2.592  10.345  0.2193  0.0908  0.0362
  146SAPE   C3216036   4.523   2.751  10.230  0.1895  0.6993  0.2126
  146SAPE   H2X16037   4.497   2.846  10.282  0.1556  2.0584 -2.1536
  146SAPE   H2Y16038   4.437   2.707  10.175  0.9228 -2.2733  1.2402
  146SAPE   C2316039   3.989   2.677  10.324  0.5696 -0.5424  0.6868
  146SAPE   H3R16040   3.955   2.769  10.375 -0.4104  0.7445 -2.1095
  146SAPE   H3S16041   3.896   2.633  10.282  0.1696 -0.9567  1.9808
  146SAPE   C2416042   4.089   2.698  10.207 -0.5292 -0.0897 -0.0991
  146SAPE   H4R16043   4.105   2.603  10.152  0.9466 -0.7292  1.3087
  146SAPE   H4S16044   4.190   2.725  10.246 -0.9224  2.7878 -0.8520
  146SAPE   C2516045   4.039   2.801  10.115  0.0957  0.3533  0.2130
  146SAPE   H5R16046   3.988   2.882  10.169  0.2551  0.9675 -0.5364
  146SAPE   C2616047   4.055   2.816   9.978 -0.1845  0.2390 -0.0716
  146SAPE   H6R16048   4.033   2.914   9.932 -0.2398 -0.9352 -2.7497
  146SAPE   C2716049   4.121   2.721   9.880  0.0449  0.4039  0.2205
  146SAPE   H7R16050   4.139   2.774   9.784 -0.7250 -1.3005 -0.9111
  146SAPE   H7S16051   4.046   2.639   9.877  1.0624 -0.5171 -0.4028
  146SAPE   C2816052   4.263   2.673   9.917 -0.6205 -0.0373 -0.4742
  146SAPE   H8R16053   4.273   2.627  10.016  1.8143  1.1477 -0.0961
  146SAPE   C2916054   4.382   2.685   9.851 -0.3726  0.4801  0.3470
  146SAPE   H9R16055   4.477   2.653   9.894  0.3708 -0.0580 -1.5840
  146SAPE  C21016056   4.404   2.744   9.707 -0.3193 -0.0178  0.6572
  146SAPE  H10R16057   4.472   2.830   9.726  0.1926 -0.7569  2.3182
  146SAPE  H10S16058   4.312   2.788   9.664  0.1783  1.1221  0.7367
  146SAPE  C21116059   4.463   2.628   9.616 -0.4150 -0.5824 -0.5427
  146SAPE  H11R16060   4.525   2.549   9.660  1.2282  0.6551 -0.5440
  146SAPE  C21216061   4.448   2.622   9.483  0.2925 -0.4751 -0.1939
  146SAPE  H12R16062   4.488   2.537   9.426  0.9598 -0.2261 -0.0987
  146SAPE  C21316063   4.365   2.719   9.395  0.5116 -0.7657 -0.5400
  146SAPE  H13R16064   4.415   2.819   9.394  1.4996 -1.2352 -1.6563
  146SAPE  H13S16065   4.262   2.724   9.435  1.4333  0.6479  1.8940
  146SAPE  C21416066   4.342   2.668   9.260 -0.2398  0.1798  0.5700
  146SAPE  H14R16067   4.235   2.648   9.243  0.2835  0.6591 -4.7385
  146SAPE  C21516068   4.403   2.668   9.146 -0.9153 -0.1609  0.0543
  146SAPE  H15R16069   4.349   2.628   9.059  0.9968 -1.2558 -0.6981
  146SAPE  C21616070   4.537   2.724   9.121 -0.1596 -0.5431 -0.5357
  146SAPE  H16R16071   4.600   2.641   9.082 -1.5517 -1.7611 -0.2844
  146SAPE  H16S16072   4.589   2.754   9.215  1.0818  0.8237 -1.5993
  146SAPE  C21716073   4.532   2.846   9.025  0.3129 -0.3150  0.4196
  146SAPE  H17R16074   4.452   2.829   8.950  0.0189  1.6880  0.2190
  146SAPE  H17S16075   4.627   2.854   8.968  2.3047 -1.7844  3.3202
  146SAPE  C21816076   4.512   2.985   9.087  0.2674 -0.0306 -0.3198
  146SAPE  H18R16077   4.586   3.004   9.168 -0.6198  3.1162 -0.1002
  146SAPE  H18S16078   4.411   3.003   9.130  0.5240  3.0549 -0.7179
  146SAPE  C21916079   4.542   3.101   8.988 -0.1348  0.5821 -0.0952
  146SAPE  H19R16080   4.647   3.089   8.956 -0.8042  0.1454 -2.2979
  146SAPE  H19S16081   4.529   3.200   9.038  0.0190 -0.0869  1.3270
  146SAPE  C22016082   4.456   3.106   8.858 -0.8169 -0.3827 -0.8419
  146SAPE  H20R16083   4.517   3.157   8.781 -0.6115 -0.5276 -0.7743
  146SAPE  H20S16084   4.366   3.171   8.860  0.2182  1.1219 -1.3979
  146SAPE  H20T16085   4.434   3.006   8.813  0.6969 -0.2941 -1.8327
  146SAPE   C3316086   4.647   2.773  10.139 -0.3856  0.2327  0.5560
  146SAPE   H3X16087   4.677   2.680  10.087  0.7221  0.4015  0.8816
  146SAPE   H3Y16088   4.736   2.790  10.203  0.0052 -1.0277  0.3604
  146SAPE   C3416089   4.626   2.889  10.045 -0.4322 -0.3358 -0.2325
  146SAPE   H4X16090   4.649   2.983  10.099  0.2198  0.7609 -2.3027
  146SAPE   H4Y16091   4.522   2.898  10.006 -0.7417  0.4842  0.7369
  146SAPE   C3516092   4.724   2.892   9.924 -0.2254 -0.0490 -0.4163
  146SAPE   H5X16093   4.709   2.795   9.872  0.8998 -0.9453  0.8536
  146SAPE   H5Y16094   4.823   2.891   9.976 -0.6077 -0.1435  0.3167
  146SAPE   C3616095   4.724   3.016   9.844 -0.1543  0.3743  0.5821
  146SAPE   H6X16096   4.746   3.107   9.905  0.4108 -1.2222  2.8897
  146SAPE   H6Y16097   4.616   3.024   9.819 -1.0299 -0.3399  3.6916
  146SAPE   C3716098   4.831   3.001   9.728  0.1911  0.1130 -0.0021
  146SAPE   H7X16099   4.935   2.989   9.765 -0.1443  1.6971  1.5738
  146SAPE   H7Y16100   4.825   3.096   9.670  0.8265  0.5246  0.5951
  146SAPE   C3816101   4.804   2.875   9.643  0.2504 -0.3734  0.1709
  146SAPE   H8X16102   4.695   2.876   9.624  0.5660  0.5398 -1.9288
  146SAPE   H8Y16103   4.834   2.781   9.694  1.1180 -0.5881 -0.7086
  146SAPE   C3916104   4.878   2.890   9.518 -0.0071  0.6498  0.5702
  146SAPE   H9X16105   4.988   2.907   9.521  0.1899 -0.1450 -1.1501
  146SAPE   H9Y16106   4.842   2.975   9.457 -3.5045 -0.5755  0.7099
  146SAPE  C31016107   4.853   2.760   9.427  0.2821 -0.0038  0.6181
  146SAPE  H10X16108   4.743   2.747   9.425  0.1267  1.1110  0.9800
  146SAPE  H10Y16109   4.899   2.670   9.473  1.1942 -0.3910 -0.9838
  146SAPE  C31116110   4.920   2.774   9.284  0.2553  0.2454 -0.2902
  146SAPE  H11X16111   4.882   2.681   9.237 -1.6436  0.2032  1.1731
  146SAPE  H11Y16112   5.031   2.769   9.288  0.2885  0.0435 -1.2783
  146SAPE  C31216113   4.869   2.895   9.208  0.5929 -0.4275  0.9137
  146SAPE  H12X16114   4.895   2.989   9.261 -0.7079  1.2231 -1.2124
  146SAPE  H12Y16115   4.758   2.888   9.204  0.6624 -2.2047  1.3124
  146SAPE  C31316116   4.922   2.906   9.059  0.1536 -0.2326 -0.1587
  146SAPE  H13X16117   4.868   2.985   9.002 -1.4782 -1.7239 -0.7846
  146SAPE  H13Y16118   4.888   2.811   9.012  0.9141 -0.2243 -0.7504
  146SAPE  C31416119   5.074   2.940   9.043 -0.2011  0.1273 -0.4040
  146SAPE  H14X16120   5.139   2.871   9.101 -0.8900 -0.9871 -0.9359
  146SAPE  H14Y16121   5.092   3.041   9.085  1.0549 -0.6404  1.0255
  146SAPE  C31516122   5.121   2.941   8.897 -0.6829 -0.0086  0.5547
  146SAPE  H15X16123   5.070   3.010   8.826  0.0287 -3.0077 -3.1903
  146SAPE  H15Y16124   5.095   2.840   8.858 -2.9752  0.9562 -0.6375
  146SAPE  C31616125   5.273   2.966   8.889 -0.0147 -0.6795 -0.3232
  146SAPE  H16X16126   5.332   2.882   8.932  0.9867  0.0025 -0.3267
  146SAPE  H16Y16127   5.306   3.053   8.949 -1.2676 -0.0738 -0.4798
  146SAPE  C31716128   5.323   2.985   8.741  0.1373  0.2952  0.3751
  146SAPE  H17X16129   5.429   3.018   8.748  1.2031 -3.0874  3.8520
  146SAPE  H17Y16130   5.259   3.067   8.704 -0.2330  1.2320  2.9106
  146SAPE  C31816131   5.303   2.861   8.650  0.0240 -0.1042  0.5897
  146SAPE  H18X16132   5.355   2.775   8.698 -0.4785 -0.0734  1.2062
  146SAPE  H18Y16133   5.342   2.876   8.547  0.2471  1.3886  0.8567
  146SAPE  H18Z16134   5.195   2.838   8.637 -0.3251  1.8229 -0.3629
  147SAPE     N16135   6.601   1.371   6.482  0.2795 -0.8463  1.0290
  147SAPE   HN116136   6.516   1.430   6.473 -0.1495 -0.5550  5.1577
  147SAPE   HN216137   6.678   1.440   6.491 -1.2623  1.0764  0.1673
  147SAPE   HN316138   6.614   1.317   6.393  0.0560 -2.0697  1.7173
  147SAPE   C1216139   6.582   1.269   6.589 -0.2182 -0.4488 -0.4931
  147SAPE  H12A16140   6.494   1.203   6.581 -0.9355 -0.4458  4.2420
  147SAPE  H12B16141   6.568   1.329   6.682  2.3284 -0.1773 -0.2099
  147SAPE   C1116142   6.705   1.185   6.610 -0.8438 -0.1366  0.1715
  147SAPE  H11A16143   6.695   1.141   6.711 -0.2254 -0.2959  0.1646
  147SAPE  H11B16144   6.790   1.255   6.615 -0.1111 -1.0674  1.3248
  147SAPE     P16145   6.795   1.091   6.367  0.0880  0.3481 -0.1378
  147SAPE   O1316146   6.747   0.979   6.280  1.0059 -0.4763 -0.5038
  147SAPE   O1416147   6.783   1.228   6.318 -0.8138 -0.2295  0.3653
  147SAPE   O1216148   6.724   1.080   6.515  0.8150 -0.6031 -0.5946
  147SAPE   O1116149   6.941   1.068   6.399  0.1314 -0.1545  0.2022
  147SAPE    C116150   7.031   1.141   6.479  0.3683  0.4769 -0.8419
  147SAPE    HA16151   7.013   1.250   6.490  4.5615  1.3161 -0.4495
  147SAPE    HB16152   7.019   1.108   6.585 -3.1012  0.3795 -1.1489
  147SAPE    C216153   7.182   1.129   6.443  0.1825 -0.5077 -0.5772
  147SAPE    HS16154   7.190   1.155   6.335 -1.7337  3.8281  0.1235
  147SAPE   O2116155   7.233   0.999   6.482 -0.5020  0.0380 -0.0783
  147SAPE   C2116156   7.359   0.980   6.442 -0.8212  0.2025  0.1754
  147SAPE   O2216157   7.425   1.054   6.377  0.1866 -0.5168  0.2623
  147SAPE   C2216158   7.407   0.841   6.500 -0.2325  0.2144 -0.1663
  147SAPE   H2R16159   7.320   0.775   6.482 -0.1087 -0.6096  1.8965
  147SAPE   H2S16160   7.487   0.807   6.431  0.3482  0.6224  0.2969
  147SAPE    C316161   7.257   1.250   6.508 -0.0462  0.3476  0.3307
  147SAPE    HX16162   7.222   1.347   6.467  1.3727  0.9737  0.5451
  147SAPE    HY16163   7.361   1.249   6.470 -0.4708  0.8716 -0.9131
  147SAPE   O3116164   7.225   1.249   6.649  0.0563  0.1673  0.2182
  147SAPE   C3116165   7.325   1.252   6.730 -0.1034  0.0591 -0.3092
  147SAPE   O3216166   7.444   1.245   6.695  0.0287 -0.5055 -0.2706
  147SAPE   C3216167   7.281   1.267   6.870  0.1359  0.5076  0.0981
  147SAPE   H2X16168   7.212   1.182   6.892  2.2189 -0.5338  3.3456
  147SAPE   H2Y16169   7.214   1.355   6.860  0.4515  0.7161 -0.1712
  147SAPE   C2316170   7.441   0.848   6.657 -1.0164 -0.3904 -0.1895
  147SAPE   H3R16171   7.384   0.770   6.713 -0.8031  0.6561  1.5890
  147SAPE   H3S16172   7.421   0.944   6.709  0.5395 -1.5198  2.7841
  147SAPE   C2416173   7.588   0.806   6.685  0.1504  0.2429 -0.2392
  147SAPE   H4R16174   7.650   0.851   6.605  0.3483 -1.4498 -1.0748
  147SAPE   H4S16175   7.614   0.699   6.667  3.1376  1.0208 -1.1726
  147SAPE   C2516176   7.641   0.852   6.819  0.2621 -0.4084 -0.2610
  147SAPE   H5R16177   7.694   0.947   6.827  1.7717 -1.2873  0.4551
  147SAPE   C2616178   7.638   0.780   6.933 -0.3469 -0.0665  0.2527
  147SAPE   H6R16179   7.675   0.829   7.025 -0.9247 -0.7944  0.8882
  147SAPE   C2716180   7.580   0.645   6.950  0.7375 -0.0250  0.4826
  147SAPE   H7R16181   7.486   0.640   6.891 -0.1217  0.3060  1.7733
  147SAPE   H7S16182   7.541   0.635   7.054  0.0517  0.5235  0.2864
  147SAPE   C2816183   7.673   0.533   6.909  0.6283 -0.3553  1.5944
  147SAPE   H8R16184   7.761   0.583   6.865 -1.5084  2.8061  0.5721
  147SAPE   C2916185   7.656   0.400   6.918 -0.3836 -0.5277 -0.6621
  147SAPE   H9R16186   7.731   0.324   6.891 -0.5781 -1.0441  0.2050
  147SAPE  C21016187   7.536   0.333   6.983 -0.2971  0.2329  0.3347
  147SAPE  H10R16188   7.444   0.391   6.961  0.4552  0.9747 -0.9760
  147SAPE  H10S16189   7.550   0.341   7.093  1.5828 -2.0438  0.3328
  147SAPE  C21116190   7.514   0.184   6.942  0.3969  0.2971 -0.5565
  147SAPE  H11R16191   7.488   0.164   6.837  1.0056  0.6332 -0.7737
  147SAPE  C21216192   7.508   0.075   7.024  0.1515  0.4716  0.6813
  147SAPE  H12R16193   7.511  -0.025   6.977 -0.3664  0.4733  0.6353
  147SAPE  C21316194   7.535   0.086   7.171 -0.0757  1.0289 -0.2806
  147SAPE  H13R16195   7.590   0.179   7.194  0.5651  1.0151 -1.6496
  147SAPE  H13S16196   7.602  -0.002   7.185 -0.4006  0.4622 -2.0635
  147SAPE  C21416197   7.414   0.071   7.252  0.2334 -0.0229 -0.8408
  147SAPE  H14R16198   7.316   0.108   7.218 -0.9815  0.7329  3.0166
  147SAPE  C21516199   7.416   0.039   7.383 -0.3564  0.9061 -0.4880
  147SAPE  H15R16200   7.323   0.031   7.442 -0.7440  1.7423 -0.9701
  147SAPE  C21616201   7.534  -0.001   7.468 -0.4178 -0.4213  0.4800
  147SAPE  H16R16202   7.628  -0.010   7.410 -0.3473 -0.5304  0.6108
  147SAPE  H16S16203   7.518  -0.105   7.503  0.6784 -1.6809 -2.4922
  147SAPE  C21716204   7.549   0.101   7.579 -0.3374  0.2479 -0.3393
  147SAPE  H17R16205   7.635   0.071   7.643  0.2820  2.6801  0.0643
  147SAPE  H17S16206   7.460   0.109   7.645  0.8745 -0.9747  1.5485
  147SAPE  C21816207   7.584   0.238   7.534  0.0377  0.5605 -0.1998
  147SAPE  H18R16208   7.499   0.288   7.483  0.0374  2.8754  1.8620
  147SAPE  H18S16209   7.670   0.220   7.466  1.5594  0.0172  1.7650
  147SAPE  C21916210   7.627   0.326   7.655  0.3314 -0.8849 -0.9600
  147SAPE  H19R16211   7.710   0.280   7.712 -0.5527 -0.8077  0.4248
  147SAPE  H19S16212   7.551   0.339   7.735 -0.8137 -2.0772 -1.8097
  147SAPE  C22016213   7.680   0.463   7.613 -0.4545 -0.1372 -0.1041
  147SAPE  H20R16214   7.684   0.532   7.699 -0.5002 -1.2536  0.8079
  147SAPE  H20S16215   7.601   0.510   7.550 -2.0058 -0.8468  1.2586
  147SAPE  H20T16216   7.774   0.452   7.554 -0.2633 -3.1163  0.6092
  147SAPE   C3316217   7.384   1.277   6.981  0.8351  0.3285 -1.0834
  147SAPE   H3X16218   7.444   1.371   6.978  0.2619  0.8435  1.3817
  147SAPE   H3Y16219   7.467   1.203   6.986 -0.0410 -0.5952  1.4940
  147SAPE   C3416220   7.308   1.300   7.115  0.0992  0.2006  0.3862
  147SAPE   H4X16221   7.244   1.214   7.144  0.0637 -0.1186 -0.5836
  147SAPE   H4Y16222   7.247   1.391   7.098  0.6929  0.7112  0.9094
  147SAPE   C3516223   7.409   1.321   7.235 -0.5178  0.3698  0.4890
  147SAPE   H5X16224   7.480   1.403   7.211 -1.9352  1.0963 -1.4735
  147SAPE   H5Y16225   7.470   1.228   7.234  0.1781  0.8171  0.2849
  147SAPE   C3616226   7.345   1.349   7.365  0.6421 -0.4451  0.9381
  147SAPE   H6X16227   7.282   1.260   7.389 -0.4846 -0.4320 -1.6444
  147SAPE   H6Y16228   7.271   1.429   7.345  0.3964  0.1770  3.8435
  147SAPE   C3716229   7.443   1.365   7.480  0.4786 -0.1332 -0.5041
  147SAPE   H7X16230   7.514   1.446   7.454  3.2784 -0.9988  3.4874
  147SAPE   H7Y16231   7.510   1.283   7.516 -1.6224 -1.7362 -0.0644
  147SAPE   C3816232   7.386   1.391   7.616  0.2309  0.1297  0.3716
  147SAPE   H8X16233   7.328   1.302   7.649 -1.0680 -0.4882 -3.0697
  147SAPE   H8Y16234   7.315   1.474   7.596  0.2942  0.0022 -0.4265
  147SAPE   C3916235   7.490   1.441   7.717 -0.3807 -0.1212 -0.0895
  147SAPE   H9X16236   7.531   1.532   7.668 -3.0536  2.1315  1.5413
  147SAPE   H9Y16237   7.563   1.359   7.731 -0.9259 -0.6146 -0.0760
  147SAPE  C31016238   7.427   1.481   7.846  0.5341 -0.1909 -0.2635
  147SAPE  H10X16239   7.368   1.404   7.900 -0.9293 -0.6248 -2.3689
  147SAPE  H10Y16240   7.354   1.564   7.834  2.1695  1.4773  0.8367
  147SAPE  C31116241   7.524   1.521   7.957  0.5995 -0.5148  0.0726
  147SAPE  H11X16242   7.615   1.549   7.901  1.5502 -0.9413  1.3667
  147SAPE  H11Y16243   7.555   1.434   8.019  0.5119 -1.7469 -1.5560
  147SAPE  C31216244   7.475   1.646   8.041  0.0215  0.6647 -0.4011
  147SAPE  H12X16245   7.469   1.732   7.971  0.4031  1.6303  0.7325
  147SAPE  H12Y16246   7.556   1.679   8.109 -1.3564  4.0352 -0.1727
  147SAPE  C31316247   7.343   1.627   8.118  0.8261  0.4639 -0.0349
  147SAPE  H13X16248   7.263   1.588   8.051  0.3663 -1.5836  1.5995
  147SAPE  H13Y16249   7.307   1.721   8.165  1.7974  1.3794 -1.0640
  147SAPE  C31416250   7.333   1.518   8.222 -0.2784 -0.1410 -0.5218
  147SAPE  H14X16251   7.376   1.423   8.183 -1.9830 -0.9368 -0.5976
  147SAPE  H14Y16252   7.228   1.494   8.252  0.4839 -2.0549  0.8341
  147SAPE  C31516253   7.411   1.556   8.348 -0.0512 -0.0719 -0.1839
  147SAPE  H15X16254   7.386   1.663   8.368  1.7683  0.0241  1.8691
  147SAPE  H15Y16255   7.521   1.543   8.347 -0.2235 -1.7069 -0.2797
  147SAPE  C31616256   7.361   1.474   8.476 -0.1108 -0.0923 -0.1860
  147SAPE  H16X16257   7.352   1.367   8.449 -1.3295  0.2982 -1.4745
  147SAPE  H16Y16258   7.256   1.497   8.505  0.4752  3.1078 -0.2239
  147SAPE  C31716259   7.441   1.494   8.606 -0.1555 -0.6671 -0.2830
  147SAPE  H17X16260   7.545   1.461   8.585  0.0696  0.2104 -0.5565
  147SAPE  H17Y16261   7.414   1.426   8.690  2.1679 -0.1307  0.9968
  147SAPE  C31816262   7.448   1.639   8.657  0.2236  0.3852  0.0079
  147SAPE  H18X16263   7.512   1.650   8.747  1.7373  0.7601 -1.0720
  147SAPE  H18Y16264   7.347   1.670   8.691 -0.3587  0.0337 -1.3387
  147SAPE  H18Z16265   7.488   1.699   8.572  1.6738 -0.1292  0.2879
  148SAPE     N16266   0.650   6.317   6.533  0.2826 -0.2114 -0.2406
  148SAPE   HN116267   0.573   6.387   6.532  0.2175 -0.2817 -0.0597
  148SAPE   HN216268   0.611   6.230   6.489 -0.3071 -0.6399  1.0616
  148SAPE   HN316269   0.683   6.303   6.630 -2.0747  3.2530  1.2559
  148SAPE   C1216270   0.769   6.356   6.448 -0.2900  0.4238 -0.0986
  148SAPE  H12A16271   0.750   6.329   6.342  0.9615 -2.9652  0.3917
  148SAPE  H12B16272   0.849   6.288   6.484 -2.2587 -1.8782  0.1841
  148SAPE   C1116273   0.819   6.503   6.470 -0.7590  0.6321  0.1884
  148SAPE  H11A16274   0.910   6.528   6.411  1.6304 -2.2290  2.3302
  148SAPE  H11B16275   0.860   6.501   6.574  2.6989  3.4147 -0.9070
  148SAPE     P16276   0.743   6.758   6.479 -0.0179 -0.2267  0.1144
  148SAPE   O1316277   0.844   6.804   6.379  0.4257 -0.8127  0.4902
  148SAPE   O1416278   0.608   6.823   6.476  0.0627 -0.4294 -0.0807
  148SAPE   O1216279   0.719   6.601   6.471  0.3422  0.1673 -0.2855
  148SAPE   O1116280   0.810   6.771   6.624  0.6704  0.0783  0.1110
  148SAPE    C116281   0.938   6.810   6.659 -0.2905  0.0394  0.4167
  148SAPE    HA16282   0.997   6.847   6.572 -1.7521  0.4145 -0.4383
  148SAPE    HB16283   0.922   6.895   6.727 -2.0762  1.1655 -1.3079
  148SAPE    C216284   1.029   6.707   6.742 -0.2511  0.0146 -0.4746
  148SAPE    HS16285   1.043   6.617   6.680 -0.9470 -0.6364  0.2855
  148SAPE   O2116286   0.946   6.671   6.862 -0.1209 -0.2709  0.0947
  148SAPE   C2116287   0.989   6.554   6.918  0.7065 -0.3894 -0.1229
  148SAPE   O2216288   1.078   6.485   6.876  0.6027 -0.3372  0.1943
  148SAPE   C2216289   0.901   6.530   7.038  0.4388  0.0008  0.2844
  148SAPE   H2R16290   0.911   6.610   7.114 -0.6493 -1.0752  1.6206
  148SAPE   H2S16291   0.797   6.543   6.998  0.9736 -0.7378 -1.4683
  148SAPE    C316292   1.166   6.771   6.782  0.0411  0.1747  0.1891
  148SAPE    HX16293   1.211   6.797   6.684 -1.8771  1.3243 -0.4466
  148SAPE    HY16294   1.216   6.681   6.822 -3.6081 -3.0678 -1.8910
  148SAPE   O3116295   1.147   6.882   6.870  0.0459  0.0591  0.1446
  148SAPE   C3116296   1.158   6.860   6.994  0.2121 -0.4032 -0.0455
  148SAPE   O3216297   1.187   6.755   7.049 -0.1758 -0.2968  0.6034
  148SAPE   C3216298   1.127   6.990   7.074  0.3291  0.0985 -0.0214
  148SAPE   H2X16299   1.025   7.015   7.038 -0.6267 -2.1722  0.9019
  148SAPE   H2Y16300   1.194   7.073   7.042 -0.1341  0.5426  0.1602
  148SAPE   C2316301   0.905   6.395   7.109  0.0902 -0.1243 -0.3675
  148SAPE   H3R16302   1.006   6.396   7.156  0.2826  0.1261 -0.7746
  148SAPE   H3S16303   0.901   6.310   7.038 -1.3314 -0.4749  0.1009
  148SAPE   C2416304   0.795   6.367   7.213 -0.6264 -0.5318  0.4321
  148SAPE   H4R16305   0.816   6.268   7.259 -0.9628 -1.2054 -0.8320
  148SAPE   H4S16306   0.691   6.374   7.175 -0.3270  1.4616 -0.1318
  148SAPE   C2516307   0.799   6.470   7.321  0.4428  0.0661 -0.4625
  148SAPE   H5R16308   0.774   6.570   7.283  1.8414  0.0541 -1.4734
  148SAPE   C2616309   0.825   6.452   7.450 -0.2481  0.4573 -0.1789
  148SAPE   H6R16310   0.815   6.541   7.514  2.7056  0.9655 -0.2740
  148SAPE   C2716311   0.852   6.329   7.530 -0.0669 -0.5674  0.4691
  148SAPE   H7R16312   0.931   6.339   7.607  1.6524 -1.0180 -1.1611
  148SAPE   H7S16313   0.902   6.260   7.459  3.4192  0.7037  1.4991
  148SAPE   C2816314   0.722   6.269   7.578  0.2507  0.2094 -0.1738
  148SAPE   H8R16315   0.654   6.221   7.506 -0.4814  0.7690  0.1276
  148SAPE   C2916316   0.683   6.262   7.709 -0.4671  0.6897  0.8401
  148SAPE   H9R16317   0.587   6.215   7.735  0.5714 -2.3350 -0.2628
  148SAPE  C21016318   0.766   6.297   7.829  0.8352 -0.7178 -0.1707
  148SAPE  H10R16319   0.699   6.308   7.917  0.1469  0.3710 -0.8099
  148SAPE  H10S16320   0.824   6.390   7.811 -2.6489  1.1536 -3.2703
  148SAPE  C21116321   0.859   6.187   7.863  0.2951  0.2782  0.2605
  148SAPE  H11R16322   0.829   6.090   7.819 -1.8501  0.6235  0.8397
  148SAPE  C21216323   0.973   6.192   7.932  0.5244 -0.6651 -0.5331
  148SAPE  H12R16324   1.016   6.094   7.957  1.4371 -0.4596 -1.2120
  148SAPE  C21316325   1.023   6.312   8.002  0.0186  0.1372  0.4259
  148SAPE  H13R16326   0.945   6.345   8.075  1.1844  1.9127  0.9479
  148SAPE  H13S16327   1.016   6.396   7.929 -3.2361 -0.7407 -0.4649
  148SAPE  C21416328   1.153   6.292   8.078 -0.0387 -0.3568  0.0433
  148SAPE  H14R16329   1.241   6.297   8.012 -0.0809 -2.6984 -0.2740
  148SAPE  C21516330   1.182   6.271   8.209 -0.0731  0.7480 -0.0070
  148SAPE  H15R16331   1.285   6.261   8.248 -0.6102 -0.9039  1.1365
  148SAPE  C21616332   1.079   6.266   8.315  0.1302 -0.2830  0.2560
  148SAPE  H16R16333   1.004   6.195   8.274  2.5995 -2.3661 -0.9734
  148SAPE  H16S16334   1.037   6.366   8.334  0.7426 -0.1719  1.1009
  148SAPE  C21716335   1.144   6.223   8.448  0.1493  0.0150 -0.8649
  148SAPE  H17R16336   1.210   6.139   8.420  1.3819  0.2968  0.9960
  148SAPE  H17S16337   1.068   6.185   8.519  0.0814  0.8935 -0.4496
  148SAPE  C21816338   1.228   6.337   8.517 -0.4656  0.5520  0.2110
  148SAPE  H18R16339   1.182   6.433   8.487 -2.5766 -1.0246 -2.0096
  148SAPE  H18S16340   1.331   6.332   8.475  0.2252  0.1778  1.8610
  148SAPE  C21916341   1.241   6.328   8.673 -0.1706 -0.7117  0.6805
  148SAPE  H19R16342   1.288   6.230   8.698  2.4184  0.1143 -0.5600
  148SAPE  H19S16343   1.138   6.353   8.705  1.0208  4.9515  1.2160
  148SAPE  C22016344   1.326   6.444   8.743 -0.3844  0.1926  0.4620
  148SAPE  H20R16345   1.322   6.433   8.853 -0.0875 -1.8805  0.3086
  148SAPE  H20S16346   1.299   6.548   8.717  2.2349  0.6888 -0.6079
  148SAPE  H20T16347   1.434   6.425   8.723 -0.3155  0.7892  0.2397
  148SAPE   C3316348   1.113   6.972   7.230  0.6662  0.0659  0.3202
  148SAPE   H3X16349   1.043   6.886   7.242  0.7075 -0.1522 -0.8569
  148SAPE   H3Y16350   1.063   7.063   7.269 -0.2828  0.7717 -2.3727
  148SAPE   C3416351   1.241   6.941   7.308 -0.4701  0.1934  0.0642
  148SAPE   H4X16352   1.312   7.021   7.278  0.3690  0.2070  1.9412
  148SAPE   H4Y16353   1.281   6.842   7.278  0.9745  0.8250 -0.1585
  148SAPE   C3516354   1.229   6.948   7.464  0.8130  0.2902 -0.3999
  148SAPE   H5X16355   1.179   7.042   7.495 -1.7131 -1.4038  1.1257
  148SAPE   H5Y16356   1.330   6.954   7.510  0.1155  0.2696  1.2074
  148SAPE   C3616357   1.149   6.831   7.526 -0.8938  0.1661  0.4265
  148SAPE   H6X16358   1.201   6.737   7.497  0.4093  0.8548  0.4507
  148SAPE   H6Y16359   1.051   6.835   7.475 -1.4123  0.9153  1.4481
  148SAPE   C3716360   1.130   6.842   7.681 -0.0190  0.5023 -0.3665
  148SAPE   H7X16361   1.077   6.937   7.703  0.6577  1.0766 -1.1289
  148SAPE   H7Y16362   1.226   6.862   7.732  1.2810  0.9034 -2.8158
  148SAPE   C3816363   1.056   6.729   7.752  0.0086  1.0199  0.0397
  148SAPE   H8X16364   1.105   6.633   7.726 -0.0519  0.7358  0.9352
  148SAPE   H8Y16365   0.960   6.726   7.695  1.1475  1.0048 -1.9607
  148SAPE   C3916366   1.029   6.735   7.903  0.2616 -0.2415 -0.0016
  148SAPE   H9X16367   0.949   6.659   7.916 -0.8702  0.7440 -1.0072
  148SAPE   H9Y16368   0.989   6.834   7.933  0.2499 -0.1489 -0.3230
  148SAPE  C31016369   1.133   6.680   7.999 -0.6514 -0.4241  0.1449
  148SAPE  H10X16370   1.219   6.750   7.996  0.0776 -1.3239 -0.7509
  148SAPE  H10Y16371   1.163   6.582   7.957 -1.8676 -0.5719 -0.4045
  148SAPE  C31116372   1.085   6.672   8.147 -0.0543 -0.5451 -0.7590
  148SAPE  H11X16373   1.167   6.638   8.214 -1.2019 -0.4310  0.7550
  148SAPE  H11Y16374   1.007   6.595   8.163  0.8487 -1.1343  1.2089
  148SAPE  C31216375   1.042   6.804   8.200 -0.4051  0.3415 -0.2724
  148SAPE  H12X16376   0.944   6.819   8.150 -1.1443  0.1012  1.0619
  148SAPE  H12Y16377   1.114   6.888   8.191 -1.5735  1.1258 -4.0601
  148SAPE  C31316378   1.004   6.784   8.354 -0.0309  0.3904 -0.2283
  148SAPE  H13X16379   1.078   6.726   8.412 -1.6482 -1.3440  0.2112
  148SAPE  H13Y16380   0.909   6.727   8.343 -0.4709  1.3935 -2.1236
  148SAPE  C31416381   0.965   6.908   8.425 -0.8680 -0.5918  0.4266
  148SAPE  H14X16382   0.897   6.969   8.361 -1.1012 -1.2035  0.0792
  148SAPE  H14Y16383   1.065   6.946   8.452 -1.1999 -0.2102  1.1446
  148SAPE  C31516384   0.882   6.871   8.551 -0.2532 -0.2381  0.2343
  148SAPE  H15X16385   0.951   6.814   8.618  1.3707  1.2708 -0.0658
  148SAPE  H15Y16386   0.798   6.802   8.528 -1.1298  0.7625  0.3529
  148SAPE  C31616387   0.837   6.995   8.636  0.9194 -0.3786 -0.2784
  148SAPE  H16X16388   0.750   6.960   8.696  2.4947 -3.1282  0.6027
  148SAPE  H16Y16389   0.809   7.070   8.559  2.4971  0.2650 -0.2492
  148SAPE  C31716390   0.944   7.061   8.722  0.2391 -0.6137  0.3364
  148SAPE  H17X16391   1.041   7.082   8.672  2.2984 -1.0089  3.7927
  148SAPE  H17Y16392   0.970   6.983   8.797  1.2654 -0.3469  0.2756
  148SAPE  C31816393   0.894   7.179   8.802  0.2023 -0.0711  0.0272
  148SAPE  H18X16394   0.846   7.257   8.738 -0.3783 -0.9256 -0.5993
  148SAPE  H18Y16395   0.980   7.227   8.853  0.6941 -1.3479  0.4439
  148SAPE  H18Z16396   0.820   7.153   8.880  0.3008  2.0903  0.9067
  149SAPE     N16397   4.819   5.739   6.695 -0.3578  0.1712  0.1369
  149SAPE   HN116398   4.736   5.697   6.649 -0.7303 -1.3589  2.0556
  149SAPE   HN216399   4.905   5.714   6.641 -0.0603  1.2379  0.0798
  149SAPE   HN316400   4.823   5.708   6.794  1.0488 -3.4117 -0.8918
  149SAPE   C1216401   4.816   5.885   6.690 -0.3773 -0.3496  0.2991
  149SAPE  H12A16402   4.729   5.906   6.755  0.2613  2.8818  0.2496
  149SAPE  H12B16403   4.802   5.912   6.584  0.9193 -2.1061 -0.3860
  149SAPE   C1116404   4.946   5.935   6.754  0.1729 -0.0803  0.0311
  149SAPE  H11A16405   4.947   5.878   6.849 -0.6374 -1.7326 -0.9136
  149SAPE  H11B16406   4.939   6.044   6.776 -1.1280 -0.3214  0.9432
  149SAPE     P16407   5.127   6.010   6.572 -0.4886  0.4114 -0.3779
  149SAPE   O1316408   5.229   5.954   6.487  0.0400  0.2120 -0.1532
  149SAPE   O1416409   5.017   6.083   6.508  0.4503  0.4194 -0.1497
  149SAPE   O1216410   5.071   5.902   6.679  0.2069 -0.0829  0.0921
  149SAPE   O1116411   5.202   6.108   6.674 -0.3129  1.0737  0.4869
  149SAPE    C116412   5.349   6.105   6.704 -0.2136  0.9466  0.6885
  149SAPE    HA16413   5.385   6.000   6.696 -2.9461 -0.1289  1.3525
  149SAPE    HB16414   5.400   6.173   6.633 -4.7286  1.8374 -2.1294
  149SAPE    C216415   5.379   6.162   6.841  1.0679 -0.7576  0.7255
  149SAPE    HS16416   5.490   6.156   6.852  1.4887 -0.3892 -2.3751
  149SAPE   O2116417   5.301   6.094   6.945 -0.3741  0.1388  0.6726
  149SAPE   C2116418   5.355   5.980   6.977  0.1827 -0.3152 -0.3893
  149SAPE   O2216419   5.461   5.942   6.940 -0.5338 -0.1993  0.7563
  149SAPE   C2216420   5.249   5.910   7.067  0.2879 -0.4112 -0.0474
  149SAPE   H2R16421   5.165   5.980   7.082  1.4165  0.6180  1.8709
  149SAPE   H2S16422   5.222   5.813   7.020  1.0407 -0.4730 -0.3698
  149SAPE    C316423   5.346   6.316   6.846  0.2611  0.3691  0.4980
  149SAPE    HX16424   5.239   6.327   6.817  0.1726 -2.1776 -0.4097
  149SAPE    HY16425   5.406   6.362   6.764  2.1449 -2.0941  0.3765
  149SAPE   O3116426   5.380   6.379   6.970 -0.0077 -0.3273 -0.0388
  149SAPE   C3116427   5.504   6.405   6.999  0.3969 -0.7600  0.7448
  149SAPE   O3216428   5.600   6.377   6.930  0.0666 -0.1912  0.0905
  149SAPE   C3216429   5.508   6.458   7.137 -0.8064 -0.4431 -0.0525
  149SAPE   H2X16430   5.463   6.559   7.146 -0.2151 -0.1527 -0.2699
  149SAPE   H2Y16431   5.615   6.466   7.168 -0.8354 -1.3062  0.2918
  149SAPE   C2316432   5.319   5.902   7.208 -0.6285  0.7538 -0.1565
  149SAPE   H3R16433   5.313   6.002   7.257 -0.6591 -0.0228  1.4750
  149SAPE   H3S16434   5.423   5.865   7.200 -1.5584 -1.9351 -0.7288
  149SAPE   C2416435   5.244   5.805   7.304  0.1414 -0.2316 -0.0627
  149SAPE   H4R16436   5.219   5.715   7.243 -0.4962 -0.9794  1.2556
  149SAPE   H4S16437   5.154   5.851   7.351  0.8870  0.9407  0.2701
  149SAPE   C2516438   5.330   5.750   7.420 -0.9434 -0.6458  0.3486
  149SAPE   H5R16439   5.417   5.695   7.382  0.0373  1.4036 -0.5469
  149SAPE   C2616440   5.307   5.757   7.553  0.4727 -0.5243  0.6951
  149SAPE   H6R16441   5.378   5.705   7.619  1.6180 -1.0234 -0.8733
  149SAPE   C2716442   5.192   5.829   7.620  0.0541 -0.4115 -0.1642
  149SAPE   H7R16443   5.134   5.750   7.673 -1.1249  0.0184 -0.7783
  149SAPE   H7S16444   5.116   5.871   7.550 -1.1108 -0.5467  0.9670
  149SAPE   C2816445   5.217   5.932   7.722  0.0820 -0.3735  0.2829
  149SAPE   H8R16446   5.263   6.027   7.690 -0.0496 -0.4033  0.0044
  149SAPE   C2916447   5.230   5.914   7.857 -0.1140  0.1431  0.6622
  149SAPE   H9R16448   5.274   6.000   7.909  0.8121  0.6925 -0.9511
  149SAPE  C21016449   5.210   5.792   7.939  0.1420 -0.7099 -0.4280
  149SAPE  H10R16450   5.163   5.706   7.886 -0.8553 -1.0103  0.9078
  149SAPE  H10S16451   5.132   5.815   8.014 -1.9222 -0.7319 -2.4320
  149SAPE  C21116452   5.332   5.750   8.017  1.0544 -0.1649  0.2141
  149SAPE  H11R16453   5.370   5.651   7.990 -2.0085 -1.1545 -0.9132
  149SAPE  C21216454   5.402   5.810   8.118  0.2762  0.9599  0.9472
  149SAPE  H12R16455   5.496   5.767   8.155  1.5821 -0.7554 -3.7011
  149SAPE  C21316456   5.350   5.938   8.178 -0.2184  0.3636 -0.4015
  149SAPE  H13R16457   5.256   5.930   8.236 -1.4178  2.6637 -1.8786
  149SAPE  H13S16458   5.320   6.016   8.104 -0.8465 -0.2281 -0.7855
  149SAPE  C21416459   5.431   5.999   8.288  0.3609 -0.3772 -0.1872
  149SAPE  H14R16460   5.474   6.098   8.263 -1.1850  0.2676 -0.4187
  149SAPE  C21516461   5.452   5.955   8.414  0.1096 -0.4121  0.1359
  149SAPE  H15R16462   5.533   6.009   8.467  0.1238  1.0962 -1.3197
  149SAPE  C21616463   5.410   5.824   8.475 -0.2157 -0.6247  0.4996
  149SAPE  H16R16464   5.429   5.738   8.408  0.6710  0.6954 -1.0016
  149SAPE  H16S16465   5.302   5.830   8.500  0.0112 -0.4314  1.4748
  149SAPE  C21716466   5.481   5.789   8.609  0.1490  0.0331  0.2475
  149SAPE  H17R16467   5.591   5.777   8.603  0.0759 -0.3063 -0.7821
  149SAPE  H17S16468   5.435   5.692   8.640 -0.4569  0.7171  1.5555
  149SAPE  C21816469   5.441   5.887   8.724 -1.0057  0.2120  0.0153
  149SAPE  H18R16470   5.332   5.879   8.745 -0.7987  1.6561  1.8316
  149SAPE  H18S16471   5.469   5.991   8.697 -3.4526  0.9997  0.2644
  149SAPE  C21916472   5.507   5.839   8.861  0.0138 -0.6074 -0.0830
  149SAPE  H19R16473   5.466   5.740   8.892 -0.3514 -0.6787 -0.7716
  149SAPE  H19S16474   5.478   5.918   8.934  1.9083 -0.1390  0.2185
  149SAPE  C22016475   5.664   5.852   8.865  0.0780 -0.3823  0.6702
  149SAPE  H20R16476   5.699   5.953   8.838 -1.3524 -0.0988 -0.2423
  149SAPE  H20S16477   5.713   5.770   8.808  1.0426  0.4302  0.3028
  149SAPE  H20T16478   5.707   5.840   8.967 -0.0248  0.5468  0.8303
  149SAPE   C3316479   5.450   6.363   7.241  0.0534 -0.3328  0.0370
  149SAPE   H3X16480   5.349   6.327   7.213  0.4010 -3.1666  1.9811
  149SAPE   H3Y16481   5.432   6.411   7.339 -0.2037  0.8902 -0.5851
  149SAPE   C3416482   5.539   6.247   7.286  0.1837 -0.2802 -0.1452
  149SAPE   H4X16483   5.641   6.288   7.271 -0.2188 -0.0423 -2.5975
  149SAPE   H4Y16484   5.531   6.174   7.203  0.0428 -0.2478 -0.1611
  149SAPE   C3516485   5.499   6.184   7.414  0.0648  0.4764 -0.2794
  149SAPE   H5X16486   5.443   6.088   7.406 -0.0155  0.5462 -0.5875
  149SAPE   H5Y16487   5.424   6.246   7.468 -0.4887 -1.4830  1.3128
  149SAPE   C3616488   5.609   6.161   7.511 -0.4260 -0.6170 -0.1139
  149SAPE   H6X16489   5.656   6.257   7.539 -0.8452 -0.0405 -1.2942
  149SAPE   H6Y16490   5.688   6.112   7.450 -1.3403 -1.7374 -0.4460
  149SAPE   C3716491   5.576   6.078   7.636  0.3373  0.2128  0.6951
  149SAPE   H7X16492   5.528   5.983   7.604  0.1686  0.3348  0.5826
  149SAPE   H7Y16493   5.495   6.143   7.677  1.9984  2.2606  0.9212
  149SAPE   C3816494   5.686   6.058   7.736  0.1984 -1.1127 -0.3531
  149SAPE   H8X16495   5.722   6.156   7.772 -0.6104 -0.6636 -0.7476
  149SAPE   H8Y16496   5.778   6.006   7.703  2.0558  0.4315  2.0879
  149SAPE   C3916497   5.636   5.990   7.866 -0.3006 -0.1834  0.1697
  149SAPE   H9X16498   5.589   5.897   7.828 -0.1445 -0.6087  0.9962
  149SAPE   H9Y16499   5.570   6.064   7.916  0.0284  0.3098 -0.1142
  149SAPE  C31016500   5.745   5.947   7.964  0.4958  0.4006  0.0797
  149SAPE  H10X16501   5.842   5.956   7.911 -0.3333 -0.0948 -1.6182
  149SAPE  H10Y16502   5.721   5.843   7.996  1.2041 -0.1231 -1.0430
  149SAPE  C31116503   5.744   6.048   8.079  0.6326  0.1780  0.8684
  149SAPE  H11X16504   5.651   6.034   8.139 -0.2849 -2.2519 -0.9459
  149SAPE  H11Y16505   5.774   6.147   8.038  0.5275 -0.9616 -2.2119
  149SAPE  C31216506   5.868   6.001   8.167  0.7949 -0.1910 -0.2095
  149SAPE  H12X16507   5.964   6.046   8.133  0.0397  1.5287 -0.1536
  149SAPE  H12Y16508   5.887   5.894   8.141  1.2206  0.1350 -1.3360
  149SAPE  C31316509   5.830   6.022   8.318  0.2871 -0.2493 -0.3244
  149SAPE  H13X16510   5.752   5.944   8.328  0.1550 -0.1041 -0.2189
  149SAPE  H13Y16511   5.786   6.124   8.327  0.1062 -0.3902  0.4939
  149SAPE  C31416512   5.948   5.994   8.412  0.3586 -0.0609  0.2556
  149SAPE  H14X16513   5.939   6.044   8.510 -2.0041 -0.9010  0.5379
  149SAPE  H14Y16514   6.040   6.032   8.363  0.3543 -1.5114 -0.9513
  149SAPE  C31516515   5.966   5.850   8.448  0.0663  0.5597 -0.0730
  149SAPE  H15X16516   6.028   5.812   8.364 -0.3943  2.6229 -1.4056
  149SAPE  H15Y16517   5.872   5.790   8.442 -0.3881  1.2851 -0.3212
  149SAPE  C31616518   6.053   5.824   8.567 -0.0279  0.0401  0.8588
  149SAPE  H16X16519   5.985   5.849   8.651 -2.2797  0.6512 -1.0360
  149SAPE  H16Y16520   6.146   5.885   8.564  0.2184 -0.3698 -0.1897
  149SAPE  C31716521   6.092   5.677   8.590 -0.5266 -0.3243 -0.2140
  149SAPE  H17X16522   6.169   5.636   8.520 -0.5768 -1.7318  0.5230
  149SAPE  H17Y16523   5.998   5.619   8.576  0.2732 -1.9112  0.6546
  149SAPE  C31816524   6.150   5.677   8.734 -0.0066 -0.4224  0.1506
  149SAPE  H18X16525   6.231   5.753   8.741  0.2490 -0.7457  0.8506
  149SAPE  H18Y16526   6.183   5.574   8.758  0.0789 -0.8475 -1.6472
  149SAPE  H18Z16527   6.069   5.695   8.808  0.6495 -1.2505  1.1055
  150SAPE     N16528   5.286   0.285   6.389 -0.4588 -0.0123 -0.0517
  150SAPE   HN116529   5.317   0.323   6.297  0.6104 -2.4559 -0.7961
  150SAPE   HN216530   5.198   0.230   6.377 -0.4286  0.3451 -2.5955
  150SAPE   HN316531   5.264   0.359   6.458 -0.0501  0.2481 -0.1952
  150SAPE   C1216532   5.398   0.210   6.451 -0.1591 -0.2182 -0.4001
  150SAPE  H12A16533   5.433   0.138   6.373  0.0420 -0.3343 -0.2032
  150SAPE  H12B16534   5.356   0.156   6.538  1.6282 -0.2087  0.5118
  150SAPE   C1116535   5.513   0.305   6.489 -0.1724  0.2363  0.5075
  150SAPE  H11A16536   5.586   0.251   6.552 -2.1131 -1.8143  1.1613
  150SAPE  H11B16537   5.485   0.395   6.547  0.7346  0.7433  0.1711
  150SAPE     P16538   5.721   0.365   6.349  0.2762  0.3638  0.1699
  150SAPE   O1316539   5.777   0.230   6.346 -0.0290  0.1694 -1.2831
  150SAPE   O1416540   5.753   0.453   6.235 -0.0218 -0.0278  0.6430
  150SAPE   O1216541   5.567   0.355   6.372 -0.0746 -0.1941  0.2013
  150SAPE   O1116542   5.766   0.441   6.484  0.2497  0.5047  0.5218
  150SAPE    C116543   5.697   0.559   6.515 -0.7457 -0.1737 -0.4014
  150SAPE    HA16544   5.735   0.639   6.448 -2.8673  2.8364  1.7333
  150SAPE    HB16545   5.586   0.562   6.505 -0.9872  1.6558  2.0230
  150SAPE    C216546   5.722   0.588   6.666 -0.4211 -0.6669 -0.0020
  150SAPE    HS16547   5.827   0.566   6.696 -0.7007 -2.4789 -0.2630
  150SAPE   O2116548   5.635   0.500   6.738  0.6125  0.5479 -0.5785
  150SAPE   C2116549   5.687   0.404   6.804  0.0786 -0.1421 -0.1331
  150SAPE   O2216550   5.805   0.368   6.799 -0.1051  0.1719 -0.3213
  150SAPE   C2216551   5.573   0.334   6.873  0.8920 -0.1311  0.1159
  150SAPE   H2R16552   5.507   0.408   6.923  0.9458 -0.1632  0.2343
  150SAPE   H2S16553   5.524   0.278   6.791  3.1351 -2.9865  0.5577
  150SAPE    C316554   5.696   0.742   6.696 -0.1041 -0.5380  0.4345
  150SAPE    HX16555   5.586   0.755   6.685 -0.1469 -0.3234  1.0741
  150SAPE    HY16556   5.751   0.785   6.610 -2.2184 -0.6963 -1.0671
  150SAPE   O3116557   5.740   0.791   6.821  0.0153 -0.3982 -0.0229
  150SAPE   C3116558   5.867   0.821   6.834  0.4077 -0.0120 -0.7554
  150SAPE   O3216559   5.950   0.812   6.743 -0.1000 -0.2973 -0.4954
  150SAPE   C3216560   5.889   0.845   6.983  0.8306 -0.3538  0.6102
  150SAPE   H2X16561   5.867   0.752   7.039  1.8066 -0.0169  1.5868
  150SAPE   H2Y16562   5.818   0.924   7.015  0.6779 -0.2069 -0.0704
  150SAPE   C2316563   5.615   0.245   6.994  0.1992 -0.2049  0.0981
  150SAPE   H3R16564   5.641   0.301   7.086 -1.4079 -1.3682  1.3321
  150SAPE   H3S16565   5.688   0.175   6.946  0.1914 -0.2037  0.0853
  150SAPE   C2416566   5.496   0.156   7.035  0.0849 -0.8056  0.4963
  150SAPE   H4R16567   5.541   0.071   7.091  1.2330 -0.1769  0.5530
  150SAPE   H4S16568   5.460   0.116   6.938 -0.6895  0.1345  0.3856
  150SAPE   C2516569   5.395   0.235   7.116  0.3879 -0.3981  0.9868
  150SAPE   H5R16570   5.316   0.273   7.049  1.7671 -0.6950 -0.8667
  150SAPE   C2616571   5.408   0.257   7.250  0.0026 -0.2124  0.3544
  150SAPE   H6R16572   5.333   0.323   7.295  0.3312  1.2567 -1.1859
  150SAPE   C2716573   5.523   0.212   7.341 -0.7042  0.3899 -0.0480
  150SAPE   H7R16574   5.601   0.158   7.285  0.8872 -0.1871  2.5481
  150SAPE   H7S16575   5.490   0.145   7.423  0.6830  0.3367  0.4939
  150SAPE   C2816576   5.590   0.335   7.392 -0.7622  0.8308  0.4031
  150SAPE   H8R16577   5.649   0.392   7.318  0.6788  0.0123  0.8739
  150SAPE   C2916578   5.579   0.384   7.520  0.6310  0.0581  0.4823
  150SAPE   H9R16579   5.630   0.479   7.540  0.4311 -0.0153  1.3613
  150SAPE  C21016580   5.500   0.325   7.634 -0.1579 -0.3396 -0.3555
  150SAPE  H10R16581   5.576   0.292   7.708 -0.4463  1.4979  0.8284
  150SAPE  H10S16582   5.439   0.241   7.596 -2.3273  0.0611  1.9799
  150SAPE  C21116583   5.408   0.429   7.696  0.1369 -0.0532  0.5790
  150SAPE  H11R16584   5.404   0.529   7.651 -0.8363  0.1315  1.0294
  150SAPE  C21216585   5.350   0.407   7.816  0.3216  0.3095  0.4655
  150SAPE  H12R16586   5.297   0.496   7.853  0.2393  0.1925  0.6297
  150SAPE  C21316587   5.358   0.287   7.905 -0.1709 -0.2789  0.5668
  150SAPE  H13R16588   5.389   0.192   7.856 -2.9441 -0.6347 -0.7096
  150SAPE  H13S16589   5.250   0.276   7.932 -1.0508 -0.2130 -2.5214
  150SAPE  C21416590   5.449   0.315   8.013 -0.9298 -0.0177 -0.4035
  150SAPE  H14R16591   5.551   0.341   7.981 -1.3565  1.3934 -0.6626
  150SAPE  C21516592   5.432   0.298   8.141 -0.1532 -0.3781  0.4489
  150SAPE  H15R16593   5.518   0.316   8.207 -0.1891  5.8304 -0.5766
  150SAPE  C21616594   5.313   0.252   8.223 -0.4222  0.1364  0.1611
  150SAPE  H16R16595   5.218   0.268   8.167 -0.1301 -0.7057 -0.5869
  150SAPE  H16S16596   5.303   0.301   8.323  1.8290 -0.0136  0.5039
  150SAPE  C21716597   5.313   0.099   8.238 -0.1799 -0.4842 -0.0308
  150SAPE  H17R16598   5.402   0.076   8.300 -0.0185 -1.4704 -0.5960
  150SAPE  H17S16599   5.320   0.049   8.139  0.3607 -0.2386 -0.1150
  150SAPE  C21816600   5.183   0.051   8.305  0.4897 -0.0327 -0.2646
  150SAPE  H18R16601   5.160   0.113   8.395 -0.5684 -1.4871  0.5131
  150SAPE  H18S16602   5.181  -0.058   8.325 -0.7071 -0.0247 -0.2894
  150SAPE  C21916603   5.064   0.059   8.206  0.8577  0.1839 -0.0638
  150SAPE  H19R16604   5.093   0.022   8.105  0.6894 -0.0324 -0.0327
  150SAPE  H19S16605   5.031   0.164   8.187  0.9953 -0.2073 -3.0612
  150SAPE  C22016606   4.941  -0.016   8.256 -0.2347 -0.5662 -0.5281
  150SAPE  H20R16607   4.966  -0.125   8.261  0.7574 -0.3453 -0.4977
  150SAPE  H20S16608   4.857   0.007   8.187 -0.7039  2.4349  0.9019
  150SAPE  H20T16609   4.905   0.029   8.351 -1.9197 -0.6188 -1.0991
  150SAPE   C3316610   6.033   0.892   7.017  0.2931  0.7471 -0.0710
  150SAPE   H3X16611   6.057   0.987   6.963 -0.8177  0.7763 -0.5241
  150SAPE   H3Y16612   6.101   0.814   6.976  1.4061  1.5461  0.2093
  150SAPE   C3416613   6.058   0.899   7.162 -0.9709 -0.7462 -0.1129
  150SAPE   H4X16614   6.052   0.797   7.206 -0.0947 -0.2938  1.1086
  150SAPE   H4Y16615   5.980   0.962   7.209 -2.3301 -0.9020 -2.0274
  150SAPE   C3516616   6.189   0.957   7.220 -0.8976  0.0307 -0.0658
  150SAPE   H5X16617   6.192   1.065   7.195 -0.9250 -0.2302 -1.2873
  150SAPE   H5Y16618   6.260   0.905   7.152 -0.7867 -0.6066  0.5309
  150SAPE   C3616619   6.219   0.918   7.365  0.1810 -0.2782 -0.3464
  150SAPE   H6X16620   6.133   0.950   7.428 -0.3958 -0.4011 -1.0479
  150SAPE   H6Y16621   6.306   0.974   7.405 -0.5506  2.3787 -2.2131
  150SAPE   C3716622   6.222   0.765   7.396 -0.6259 -0.7403 -0.2045
  150SAPE   H7X16623   6.264   0.721   7.303  1.3130 -0.5500  0.5207
  150SAPE   H7Y16624   6.126   0.718   7.424  0.2468 -0.4283  4.0115
  150SAPE   C3816625   6.323   0.730   7.506  0.1994 -0.6590 -0.6350
  150SAPE   H8X16626   6.424   0.769   7.478 -0.6833  1.9581 -0.4401
  150SAPE   H8Y16627   6.321   0.621   7.528 -2.0657 -0.8243 -1.4016
  150SAPE   C3916628   6.287   0.791   7.643  0.5510  0.2096 -0.5324
  150SAPE   H9X16629   6.207   0.728   7.688  0.3019 -0.2163 -1.5257
  150SAPE   H9Y16630   6.241   0.888   7.617  1.4365  0.4413 -1.3009
  150SAPE  C31016631   6.405   0.814   7.740  0.7275  1.2023  0.1992
  150SAPE  H10X16632   6.494   0.866   7.698  2.0113  1.2671  2.8042
  150SAPE  H10Y16633   6.452   0.721   7.778  1.7302  0.9764 -1.4591
  150SAPE  C31116634   6.368   0.908   7.861  0.0999 -0.8437 -0.4724
  150SAPE  H11X16635   6.324   1.006   7.829  0.4246 -0.8923 -1.0778
  150SAPE  H11Y16636   6.464   0.935   7.909 -0.0527 -0.0774 -0.5775
  150SAPE  C31216637   6.271   0.841   7.960 -0.0732 -1.0640  0.4503
  150SAPE  H12X16638   6.299   0.739   7.992 -1.0957 -1.9371 -1.3024
  150SAPE  H12Y16639   6.172   0.826   7.911  0.0145  1.7889 -0.8399
  150SAPE  C31316640   6.242   0.909   8.093 -0.3593 -0.1569 -0.6875
  150SAPE  H13X16641   6.172   0.855   8.159  0.8505  0.9657  1.6114
  150SAPE  H13Y16642   6.197   1.008   8.071 -2.1814 -0.8964 -0.4596
  150SAPE  C31416643   6.368   0.936   8.184  0.0644 -0.0287  0.8677
  150SAPE  H14X16644   6.403   1.040   8.167 -1.1312  0.5347  1.6556
  150SAPE  H14Y16645   6.446   0.860   8.161  0.2468 -0.3750  2.5129
  150SAPE  C31516646   6.325   0.929   8.331 -0.2038 -0.6824 -0.0349
  150SAPE  H15X16647   6.276   0.831   8.351  0.6360 -1.2749 -0.7769
  150SAPE  H15Y16648   6.254   1.009   8.358 -0.9986 -1.4159  0.0834
  150SAPE  C31616649   6.444   0.929   8.426  0.3874  0.0860 -0.6382
  150SAPE  H16X16650   6.485   0.826   8.420  3.8241  1.3886 -1.9837
  150SAPE  H16Y16651   6.412   0.948   8.531  0.1931  1.5272 -0.9402
  150SAPE  C31716652   6.564   1.022   8.398 -0.1504 -0.2594  0.1999
  150SAPE  H17X16653   6.538   1.130   8.394  3.0078  0.6443  1.4797
  150SAPE  H17Y16654   6.598   1.001   8.294  0.0358 -1.4714  0.4947
  150SAPE  C31816655   6.668   0.998   8.502  0.7107 -1.1874  0.4431
  150SAPE  H18X16656   6.758   1.058   8.475 -0.7265  1.1437  0.5700
  150SAPE  H18Y16657   6.703   0.893   8.501 -0.4555 -1.6529 -3.1153
  150SAPE  H18Z16658   6.631   1.027   8.603  0.9338  0.2948  0.1332
  151SAPE     N16659   0.700   4.295   6.177 -0.1098  0.2694  0.7285
  151SAPE   HN116660   0.739   4.257   6.088  0.1677 -0.3245  1.1024
  151SAPE   HN216661   0.661   4.215   6.231  2.9817 -0.8131  1.5085
  151SAPE   HN316662   0.615   4.351   6.152 -1.0066 -2.1272 -2.2829
  151SAPE   C1216663   0.801   4.376   6.245 -0.1972 -0.4692  0.0335
  151SAPE  H12A16664   0.855   4.436   6.168 -0.1530 -1.1148 -0.4459
  151SAPE  H12B16665   0.882   4.314   6.290  1.7526  0.8416 -1.4406
  151SAPE   C1116666   0.737   4.466   6.356  0.4025  0.5166  0.0801
  151SAPE  H11A16667   0.816   4.529   6.402 -0.8258  0.4816  2.3790
  151SAPE  H11B16668   0.697   4.397   6.433  2.0377 -0.2275  0.3135
  151SAPE     P16669   0.642   4.694   6.290 -0.1594 -0.3266  0.1709
  151SAPE   O1316670   0.760   4.734   6.205 -0.1001 -0.2134  0.0422
  151SAPE   O1416671   0.517   4.753   6.243  0.7586 -0.3171 -0.0994
  151SAPE   O1216672   0.625   4.538   6.311  0.4977  0.6909  0.5592
  151SAPE   O1116673   0.671   4.746   6.437 -0.4111  0.0001  0.3806
  151SAPE    C116674   0.584   4.697   6.539 -0.0636  0.3438  0.2096
  151SAPE    HA16675   0.488   4.751   6.532  0.9326  2.1279 -0.3358
  151SAPE    HB16676   0.580   4.586   6.546  2.4624  0.2604  1.7827
  151SAPE    C216677   0.648   4.720   6.677 -0.1460 -0.2541  0.1684
  151SAPE    HS16678   0.646   4.830   6.692  1.1006 -0.3198  0.9182
  151SAPE   O2116679   0.781   4.659   6.677  0.2737  0.3412 -0.7129
  151SAPE   C2116680   0.876   4.730   6.731 -0.1918  0.6927 -0.7654
  151SAPE   O2216681   0.870   4.837   6.777 -0.5924 -0.0407  0.0499
  151SAPE   C2216682   0.998   4.637   6.736 -0.1611  0.5595 -0.1698
  151SAPE   H2R16683   1.000   4.541   6.680  0.1214 -0.2163  1.1139
  151SAPE   H2S16684   1.081   4.698   6.695  0.7607 -0.2035  0.5071
  151SAPE    C316685   0.562   4.659   6.790  0.0408  0.1196 -0.2730
  151SAPE    HX16686   0.549   4.552   6.765  0.2672  0.2352 -0.9061
  151SAPE    HY16687   0.460   4.703   6.788  0.5177  1.3421  0.8345
  151SAPE   O3116688   0.625   4.666   6.923 -0.1563 -0.1153  0.9433
  151SAPE   C3116689   0.596   4.781   6.991  0.1000 -0.4741 -0.2624
  151SAPE   O3216690   0.518   4.867   6.949 -0.7753  0.3169  0.2853
  151SAPE   C3216691   0.689   4.782   7.118  0.7462  0.3750 -0.0628
  151SAPE   H2X16692   0.787   4.815   7.077  1.6088 -2.6001 -0.6908
  151SAPE   H2Y16693   0.711   4.679   7.155 -1.2288  0.1352  0.5331
  151SAPE   C2316694   1.046   4.616   6.880 -0.6169  0.9277 -0.1257
  151SAPE   H3R16695   1.103   4.701   6.924  0.1721  0.2475  0.1771
  151SAPE   H3S16696   1.122   4.535   6.872 -2.0857 -0.5095  0.1825
  151SAPE   C2416697   0.945   4.557   6.982 -0.6217 -0.1206 -0.1273
  151SAPE   H4R16698   0.884   4.481   6.929  0.1707  0.7262 -2.3824
  151SAPE   H4S16699   0.874   4.637   7.013 -0.2358 -0.6676  2.3573
  151SAPE   C2516700   1.013   4.480   7.093 -0.0844  0.3388  0.2924
  151SAPE   H5R16701   1.080   4.397   7.065 -1.0990 -1.0622  1.8661
  151SAPE   C2616702   1.002   4.503   7.223 -0.2271 -0.2727 -0.8464
  151SAPE   H6R16703   1.066   4.445   7.291 -1.7218 -0.0489  0.8438
  151SAPE   C2716704   0.913   4.601   7.290 -0.4137  0.0421 -0.4559
  151SAPE   H7R16705   0.805   4.573   7.283 -0.2272 -1.9739  2.9633
  151SAPE   H7S16706   0.936   4.703   7.250  0.9329  0.6962  1.8117
  151SAPE   C2816707   0.953   4.597   7.441  0.1036 -0.2025  0.6091
  151SAPE   H8R16708   1.020   4.678   7.474 -0.6071 -0.0931  1.8558
  151SAPE   C2916709   0.907   4.511   7.538  0.5881 -0.7827 -0.4799
  151SAPE   H9R16710   0.936   4.537   7.641  0.4530 -0.7885 -0.4396
  151SAPE  C21016711   0.811   4.398   7.515 -0.3618  0.7890 -1.0157
  151SAPE  H10R16712   0.770   4.403   7.412 -0.1861 -0.8756 -1.1843
  151SAPE  H10S16713   0.733   4.422   7.590  1.7421 -0.6573  1.8216
  151SAPE  C21116714   0.862   4.261   7.559  0.3062  0.7052  1.1657
  151SAPE  H11R16715   0.966   4.251   7.526 -0.3572 -2.4386 -0.4091
  151SAPE  C21216716   0.802   4.160   7.637 -0.4153 -0.2126  0.5820
  151SAPE  H12R16717   0.862   4.068   7.647 -0.5992 -0.6872 -1.8976
  151SAPE  C21316718   0.662   4.156   7.697  0.3588 -0.6529 -0.2329
  151SAPE  H13R16719   0.623   4.258   7.719  1.6363 -0.6475  2.3611
  151SAPE  H13S16720   0.670   4.099   7.793  0.0823 -0.1173  0.1157
  151SAPE  C21416721   0.557   4.077   7.618  0.3501  0.6287  0.2550
  151SAPE  H14R16722   0.571   4.052   7.511 -0.1776 -1.8279  0.6871
  151SAPE  C21516723   0.446   4.015   7.662  0.5450 -0.2428  0.4788
  151SAPE  H15R16724   0.390   3.943   7.600 -0.7708  1.7338 -0.7429
  151SAPE  C21616725   0.401   4.020   7.802  0.0102  0.0019  0.5102
  151SAPE  H16R16726   0.295   4.053   7.807  0.1812  0.7544 -0.4257
  151SAPE  H16S16727   0.458   4.096   7.859 -0.0332  0.7150 -0.3719
  151SAPE  C21716728   0.392   3.888   7.883 -0.0729 -0.5131 -0.1998
  151SAPE  H17R16729   0.380   3.926   7.987 -1.7581 -0.2980 -0.4589
  151SAPE  H17S16730   0.480   3.821   7.890  0.3088  0.1241  3.0165
  151SAPE  C21816731   0.275   3.793   7.856  0.1132 -0.4112  0.0082
  151SAPE  H18R16732   0.297   3.741   7.760  0.6882 -1.5650  0.7323
  151SAPE  H18S16733   0.178   3.842   7.837  0.9070  0.6542 -1.5443
  151SAPE  C21916734   0.264   3.678   7.961 -0.8025  0.3405  0.3370
  151SAPE  H19R16735   0.253   3.709   8.067  1.6021  1.1900  0.3984
  151SAPE  H19S16736   0.360   3.622   7.963 -0.4870  0.8451 -0.1055
  151SAPE  C22016737   0.160   3.578   7.920 -0.0659 -0.1931 -0.2291
  151SAPE  H20R16738   0.192   3.531   7.824 -0.2211 -1.0089  0.1075
  151SAPE  H20S16739   0.147   3.497   7.994  0.1617 -3.6530 -3.6471
  151SAPE  H20T16740   0.066   3.634   7.901 -0.4150 -0.8037 -0.3465
  151SAPE   C3316741   0.638   4.874   7.233  0.9897  0.0859  0.0574
  151SAPE   H3X16742   0.594   4.968   7.192  1.6675  0.5759  0.4377
  151SAPE   H3Y16743   0.727   4.890   7.298 -0.1087 -1.2188  1.9799
  151SAPE   C3416744   0.536   4.793   7.315  0.2220 -0.3098 -0.8619
  151SAPE   H4X16745   0.574   4.689   7.326  1.2322  0.1519  0.3414
  151SAPE   H4Y16746   0.443   4.800   7.256 -0.7458  0.1145  0.6541
  151SAPE   C3516747   0.512   4.840   7.460  0.2564 -1.1144  0.4564
  151SAPE   H5X16748   0.411   4.802   7.489 -1.5587  2.3046 -0.8053
  151SAPE   H5Y16749   0.492   4.949   7.465 -1.4419 -1.3823  0.2406
  151SAPE   C3616750   0.621   4.796   7.554 -0.4651 -0.0406  0.0155
  151SAPE   H6X16751   0.722   4.819   7.516 -0.6735 -0.6317 -0.9449
  151SAPE   H6Y16752   0.628   4.685   7.550  2.1441  0.1036 -0.7614
  151SAPE   C3716753   0.599   4.839   7.697  0.1840 -0.1309 -0.5179
  151SAPE   H7X16754   0.499   4.802   7.732  0.2241 -0.7674 -1.0513
  151SAPE   H7Y16755   0.588   4.949   7.700  0.3247 -0.1308  0.4410
  151SAPE   C3816756   0.718   4.788   7.791 -0.4678 -0.6205  0.0535
  151SAPE   H8X16757   0.712   4.862   7.874 -1.4412 -1.6045  0.8961
  151SAPE   H8Y16758   0.806   4.818   7.731  0.5230  0.5505  2.0111
  151SAPE   C3916759   0.714   4.646   7.833 -0.1325  0.9075  0.3688
  151SAPE   H9X16760   0.718   4.590   7.737  0.9613  1.8836 -0.1844
  151SAPE   H9Y16761   0.611   4.619   7.864  0.0641  0.4983  0.6734
  151SAPE  C31016762   0.826   4.611   7.926 -0.1692 -0.1696 -0.3647
  151SAPE  H10X16763   0.821   4.672   8.019  0.6305 -0.1589 -0.3253
  151SAPE  H10Y16764   0.923   4.633   7.877  0.4347 -0.9624  0.4382
  151SAPE  C31116765   0.825   4.464   7.966 -0.2135  0.5995 -1.1833
  151SAPE  H11X16766   0.838   4.409   7.871 -0.5191  0.2812 -1.0426
  151SAPE  H11Y16767   0.730   4.449   8.021 -0.7720  2.1648 -1.6725
  151SAPE  C31216768   0.940   4.423   8.060  0.1203 -0.1869 -0.1978
  151SAPE  H12X16769   1.041   4.452   8.023 -0.0880 -1.2680 -1.7161
  151SAPE  H12Y16770   0.930   4.313   8.059  3.1716 -0.5351 -0.6869
  151SAPE  C31316771   0.922   4.497   8.194  0.0862  1.0734 -0.6078
  151SAPE  H13X16772   0.815   4.499   8.221  0.3178  2.5271  0.3059
  151SAPE  H13Y16773   0.967   4.599   8.188  0.2023  1.2619  2.1865
  151SAPE  C31416774   1.000   4.442   8.313 -0.1048  0.3640  0.4131
  151SAPE  H14X16775   0.985   4.335   8.339  0.9867  0.6793  2.5013
  151SAPE  H14Y16776   0.984   4.500   8.406 -0.8412 -1.5802  1.5549
  151SAPE  C31516777   1.151   4.446   8.298  0.8602  0.3221 -0.7893
  151SAPE  H15X16778   1.176   4.402   8.199 -0.5727 -2.2135 -0.1190
  151SAPE  H15Y16779   1.195   4.371   8.368 -1.0718 -0.8703 -0.7907
  151SAPE  C31616780   1.207   4.588   8.313  0.2081  0.3318  0.7188
  151SAPE  H16X16781   1.179   4.651   8.400  2.1620  1.2034  0.7710
  151SAPE  H16Y16782   1.170   4.646   8.226  0.3259 -0.6296  0.0074
  151SAPE  C31716783   1.359   4.606   8.315  0.3901  0.0330 -0.3106
  151SAPE  H17X16784   1.370   4.717   8.324 -0.3228  0.2680 -2.0215
  151SAPE  H17Y16785   1.411   4.585   8.219  1.8333 -1.5672  0.7525
  151SAPE  C31816786   1.429   4.536   8.433 -0.1920 -0.0121 -0.4143
  151SAPE  H18X16787   1.479   4.443   8.401 -0.6919 -0.1064 -0.9311
  151SAPE  H18Y16788   1.349   4.515   8.508  0.0082 -0.6038 -0.3600
  151SAPE  H18Z16789   1.502   4.609   8.475  1.2899  0.0685 -2.9602
  152SAPE     N16790   5.117   6.577   6.176 -0.3624 -0.8471  0.0264
  152SAPE   HN116791   5.083   6.598   6.080 -1.3711 -1.8155  0.1427
  152SAPE   HN216792   5.168   6.666   6.192  0.6695 -1.7428  2.1601
  152SAPE   HN316793   5.171   6.488   6.171 -0.2422 -1.2160  4.0957
  152SAPE   C1216794   5.009   6.547   6.272  0.3926  0.6945  0.0258
  152SAPE  H12A16795   5.056   6.485   6.351 -0.0516 -0.7111 -0.7740
  152SAPE  H12B16796   4.938   6.478   6.222  0.3944 -0.3275  1.3962
  152SAPE   C1116797   4.942   6.674   6.329  0.1254  0.8442 -0.5175
  152SAPE  H11A16798   5.001   6.705   6.418  0.2999 -0.8950  0.0016
  152SAPE  H11B16799   4.843   6.651   6.373  0.8368 -0.1069  0.6622
  152SAPE     P16800   5.024   6.905   6.220  0.3369  0.1451 -0.3735
  152SAPE   O1316801   5.167   6.867   6.185  0.1227 -0.0017  0.6539
  152SAPE   O1416802   4.949   6.995   6.123 -0.3494 -0.7493  0.9816
  152SAPE   O1216803   4.931   6.777   6.231 -0.0583  0.0262 -0.2180
  152SAPE   O1116804   5.022   6.968   6.368  0.3454 -0.1873 -0.1367
  152SAPE    C116805   4.911   7.064   6.387 -0.5945  1.0237 -0.0739
  152SAPE    HA16806   4.919   7.147   6.314  1.5448  0.4919 -0.5150
  152SAPE    HB16807   4.814   7.013   6.370 -1.4281  1.8318  1.9113
  152SAPE    C216808   4.900   7.108   6.536  0.7843  0.0848  1.0138
  152SAPE    HS16809   4.984   7.179   6.547  0.1783  0.8762  0.6637
  152SAPE   O2116810   4.913   6.994   6.632  0.1282 -0.0356  0.0704
  152SAPE   C2116811   5.038   6.967   6.670  1.3181  0.2591  0.0338
  152SAPE   O2216812   5.131   7.042   6.667  0.0719  0.2204  0.3788
  152SAPE   C2216813   5.052   6.827   6.729  1.0791  0.2411 -0.0443
  152SAPE   H2R16814   4.951   6.798   6.763 -0.6485  2.3923 -2.8892
  152SAPE   H2S16815   5.083   6.760   6.646 -0.8755  0.8323 -1.3171
  152SAPE    C316816   4.756   7.179   6.565  0.0904 -0.6097 -0.1163
  152SAPE    HX16817   4.694   7.088   6.547 -0.6941  0.2208 -1.8185
  152SAPE    HY16818   4.747   7.255   6.484  1.1231 -1.6375 -1.2390
  152SAPE   O3116819   4.751   7.242   6.694  0.4464  0.2378 -0.1253
  152SAPE   C3116820   4.644   7.214   6.763  0.1177  0.6855  0.2497
  152SAPE   O3216821   4.546   7.159   6.719 -0.5225  0.6712 -0.3309
  152SAPE   C3216822   4.652   7.262   6.910  0.7521  0.5122  0.1478
  152SAPE   H2X16823   4.557   7.309   6.942  1.2085  0.8969  0.9767
  152SAPE   H2Y16824   4.720   7.350   6.913 -0.1205  1.2231 -0.5897
  152SAPE   C2316825   5.156   6.814   6.839 -0.2412 -0.2090  0.7217
  152SAPE   H3R16826   5.134   6.883   6.923  0.4442 -0.1594  0.8645
  152SAPE   H3S16827   5.247   6.855   6.791 -0.8728 -0.6811 -0.9367
  152SAPE   C2416828   5.199   6.673   6.880  0.0406  0.1685 -0.5247
  152SAPE   H4R16829   5.309   6.672   6.890  0.0605  2.2876 -0.0364
  152SAPE   H4S16830   5.188   6.604   6.793  0.8544 -0.4503 -0.1451
  152SAPE   C2516831   5.138   6.602   7.000 -0.3532 -0.1549 -0.7281
  152SAPE   H5R16832   5.094   6.504   6.976 -0.3259 -0.4084  0.2275
  152SAPE   C2616833   5.114   6.641   7.128 -0.0890 -0.4146 -0.3747
  152SAPE   H6R16834   5.043   6.581   7.186 -0.4920 -0.5214 -0.9674
  152SAPE   C2716835   5.159   6.774   7.189  0.6441 -0.0496  0.5914
  152SAPE   H7R16836   5.067   6.831   7.216  1.2693  2.2024 -1.7189
  152SAPE   H7S16837   5.209   6.843   7.118 -0.5752 -0.5790 -0.8349
  152SAPE   C2816838   5.244   6.740   7.303 -0.3334  0.1241  0.1877
  152SAPE   H8R16839   5.327   6.672   7.278 -0.6200  0.1338 -0.8292
  152SAPE   C2916840   5.229   6.768   7.432 -0.0599 -0.4249 -1.2044
  152SAPE   H9R16841   5.306   6.726   7.498 -0.3449 -1.3564 -1.4444
  152SAPE  C21016842   5.123   6.857   7.503  0.3066 -0.2432 -0.2472
  152SAPE  H10R16843   5.049   6.887   7.426 -0.3796 -1.9650 -0.3072
  152SAPE  H10S16844   5.171   6.951   7.538  1.0139 -0.3438 -0.8956
  152SAPE  C21116845   5.051   6.790   7.615  0.2522  0.1650  0.2189
  152SAPE  H11R16846   5.005   6.692   7.592  1.7171 -0.4140 -0.4124
  152SAPE  C21216847   5.015   6.860   7.726 -0.7199 -0.2417 -0.6607
  152SAPE  H12R16848   4.960   6.805   7.804 -1.9251  0.9636 -0.6235
  152SAPE  C21316849   5.052   6.997   7.756  0.2246 -1.2229 -0.6726
  152SAPE  H13R16850   5.142   7.035   7.704  0.2080 -0.9434 -0.5009
  152SAPE  H13S16851   5.074   7.010   7.864 -1.9180  1.8243 -0.4698
  152SAPE  C21416852   4.940   7.089   7.710  0.0517 -0.2027  0.3090
  152SAPE  H14R16853   4.959   7.123   7.607 -1.9272  0.4283  0.0967
  152SAPE  C21516854   4.832   7.117   7.768 -0.0868  0.0969  0.3875
  152SAPE  H15R16855   4.763   7.184   7.715  0.1332  1.6750  2.0009
  152SAPE  C21616856   4.781   7.085   7.904 -0.5402  0.3868 -0.1721
  152SAPE  H16R16857   4.777   6.974   7.914  2.4314  0.2343  0.1349
  152SAPE  H16S16858   4.673   7.111   7.903 -0.4684  0.7884  1.0137
  152SAPE  C21716859   4.849   7.139   8.021  0.4225  0.0139  0.9321
  152SAPE  H17R16860   4.956   7.118   8.004  0.3230  1.5060 -2.1759
  152SAPE  H17S16861   4.821   7.093   8.118  0.2045  0.0609  0.8923
  152SAPE  C21816862   4.831   7.292   8.047  0.0293 -0.2904 -0.1282
  152SAPE  H18R16863   4.730   7.316   8.087 -0.1662 -0.7369 -0.3453
  152SAPE  H18S16864   4.856   7.342   7.951 -0.6977 -1.0224 -0.7187
  152SAPE  C21916865   4.939   7.346   8.146 -0.3229  0.0062 -0.2708
  152SAPE  H19R16866   4.927   7.455   8.164 -0.0844  0.2218 -1.2997
  152SAPE  H19S16867   5.039   7.331   8.100 -0.3428 -0.2238 -0.2411
  152SAPE  C22016868   4.940   7.280   8.287 -0.2250 -0.5528 -0.7527
  152SAPE  H20R16869   5.015   7.331   8.352 -1.1484 -0.7260  0.4811
  152SAPE  H20S16870   4.950   7.170   8.281 -0.9252 -0.5766 -1.5393
  152SAPE  H20T16871   4.840   7.311   8.323 -1.1609 -0.7792 -3.0106
  152SAPE   C3316872   4.681   7.157   7.013 -0.5227 -0.0937  0.2490
  152SAPE   H3X16873   4.620   7.064   7.013 -0.1020 -0.3711  0.6831
  152SAPE   H3Y16874   4.655   7.196   7.113  1.0542  1.7421 -0.0082
  152SAPE   C3416875   4.834   7.125   7.021 -0.4997 -0.2762  0.1754
  152SAPE   H4X16876   4.858   7.073   6.925  1.1859 -1.1840  1.0505
  152SAPE   H4Y16877   4.841   7.048   7.100 -1.1409  0.0109  0.5250
  152SAPE   C3516878   4.919   7.246   7.048 -0.3472 -0.4166  0.4778
  152SAPE   H5X16879   4.930   7.308   6.956  1.0044  2.1222  2.2155
  152SAPE   H5Y16880   5.024   7.212   7.057  0.0234  0.0853 -1.5395
  152SAPE   C3616881   4.872   7.333   7.169 -0.8457  0.5348  0.3109
  152SAPE   H6X16882   4.769   7.367   7.147 -1.0381  0.3516  0.9075
  152SAPE   H6Y16883   4.946   7.416   7.177 -0.4062 -0.0002  2.5820
  152SAPE   C3716884   4.879   7.271   7.307  0.1037 -0.4564  0.1472
  152SAPE   H7X16885   4.961   7.198   7.322  0.2293  0.0360  2.1148
  152SAPE   H7Y16886   4.789   7.206   7.305  1.2496 -2.1746  1.4457
  152SAPE   C3816887   4.877   7.374   7.432 -0.5771  0.0890  1.1790
  152SAPE   H8X16888   4.839   7.323   7.523 -1.5638 -0.3287  0.5514
  152SAPE   H8Y16889   4.803   7.453   7.407 -0.7863  0.2029  2.1074
  152SAPE   C3916890   5.012   7.460   7.445  0.4486 -0.1482  0.1285
  152SAPE   H9X16891   5.014   7.537   7.365  0.4096  0.3065  0.5612
  152SAPE   H9Y16892   5.091   7.385   7.424  1.0222  0.5758 -0.3738
  152SAPE  C31016893   5.015   7.529   7.576 -0.1639 -0.3297  0.2353
  152SAPE  H10X16894   4.922   7.587   7.594  0.7685  0.7552  1.8685
  152SAPE  H10Y16895   5.094   7.607   7.563 -0.8942  0.1147 -2.0030
  152SAPE  C31116896   5.062   7.437   7.693 -0.3178 -0.2659 -0.4720
  152SAPE  H11X16897   5.160   7.396   7.661  0.7636  2.1387 -0.4565
  152SAPE  H11Y16898   4.989   7.353   7.698 -0.0047 -0.5270 -0.2237
  152SAPE  C31216899   5.081   7.521   7.820  1.3031  0.2879  0.0277
  152SAPE  H12X16900   5.112   7.456   7.905 -0.6819  1.1864  1.5085
  152SAPE  H12Y16901   4.987   7.576   7.843 -0.6218 -1.6954 -2.5778
  152SAPE  C31316902   5.204   7.618   7.820 -0.4853 -0.6736 -0.2099
  152SAPE  H13X16903   5.157   7.699   7.760 -2.0356 -1.0015  0.5219
  152SAPE  H13Y16904   5.290   7.571   7.767 -0.9964 -0.1149 -1.5775
  152SAPE  C31416905   5.242   7.670   7.954  0.0522 -0.6211  0.4822
  152SAPE  H14X16906   5.150   7.701   8.008  0.1791  0.1982  0.2465
  152SAPE  H14Y16907   5.290   7.770   7.944 -2.0789  0.3634 -0.6471
  152SAPE  C31516908   5.331   7.583   8.043  0.8211 -0.5244 -0.7308
  152SAPE  H15X16909   5.406   7.533   7.977  1.7708  1.3372 -1.1428
  152SAPE  H15Y16910   5.253   7.515   8.083 -0.3296  1.2187  0.1425
  152SAPE  C31616911   5.394   7.654   8.158  0.2736  0.1254 -0.4684
  152SAPE  H16X16912   5.471   7.724   8.120  0.7775  0.8454  1.7442
  152SAPE  H16Y16913   5.429   7.570   8.221 -2.1783  0.0530  0.9336
  152SAPE  C31716914   5.298   7.727   8.255  0.4534 -0.6585  0.7948
  152SAPE  H17X16915   5.222   7.651   8.284  1.3131 -1.9760 -0.2632
  152SAPE  H17Y16916   5.244   7.804   8.196  0.0381 -1.8958 -0.4980
  152SAPE  C31816917   5.358   7.788   8.382 -1.1113  0.4424 -0.0902
  152SAPE  H18X16918   5.383   7.709   8.457 -1.1607 -0.9909 -1.5290
  152SAPE  H18Y16919   5.295   7.863   8.435 -1.4710 -0.8146  1.3454
  152SAPE  H18Z16920   5.447   7.847   8.351 -0.6099  1.3578  2.7894
  153SAPE     N16921   1.610   2.589   6.278  0.1008  0.8428 -0.4944
  153SAPE   HN116922   1.596   2.515   6.207  0.0765  2.0407 -1.7737
  153SAPE   HN216923   1.602   2.534   6.366  3.1211 -1.5264 -1.4894
  153SAPE   HN316924   1.526   2.650   6.272 -1.1364 -0.7267  0.1184
  153SAPE   C1216925   1.749   2.641   6.268 -0.0755  0.2080  0.5221
  153SAPE  H12A16926   1.759   2.739   6.319  0.2388 -0.2556  1.3595
  153SAPE  H12B16927   1.778   2.650   6.161  1.7015  0.2657  0.9703
  153SAPE   C1116928   1.854   2.538   6.320 -0.8180  0.1392 -0.0604
  153SAPE  H11A16929   1.834   2.512   6.426 -0.9483  2.6388  0.6029
  153SAPE  H11B16930   1.951   2.590   6.304 -0.0575 -1.3314 -0.3665
  153SAPE     P16931   1.939   2.294   6.280 -0.4311 -0.2033  0.0546
  153SAPE   O1316932   1.856   2.175   6.305  0.3665 -0.3801 -0.3162
  153SAPE   O1416933   2.035   2.284   6.167  0.0815  0.5288  0.5115
  153SAPE   O1216934   1.843   2.409   6.256  0.0240 -0.2867  0.0570
  153SAPE   O1116935   2.021   2.336   6.412  0.0184 -0.7749  0.4032
  153SAPE    C116936   2.167   2.324   6.413 -0.1130 -0.2118 -0.0690
  153SAPE    HA16937   2.199   2.218   6.403 -1.2813 -0.7467  1.3919
  153SAPE    HB16938   2.220   2.394   6.344 -0.4619  0.2346  0.1090
  153SAPE    C216939   2.224   2.384   6.545  0.0432 -0.4663 -0.8805
  153SAPE    HS16940   2.334   2.368   6.537  0.1287 -0.4878  0.1641
  153SAPE   O2116941   2.174   2.312   6.658 -0.0971 -0.3067 -0.1775
  153SAPE   C2116942   2.231   2.192   6.672 -0.7579 -0.0991 -0.3568
  153SAPE   O2216943   2.318   2.148   6.596  1.0668  0.0760  0.7041
  153SAPE   C2216944   2.169   2.123   6.799 -0.4206 -0.8475  0.3335
  153SAPE   H2R16945   2.147   2.195   6.880  4.5646  0.5249  0.8225
  153SAPE   H2S16946   2.078   2.067   6.768 -0.1506 -0.9426 -0.3037
  153SAPE    C316947   2.206   2.535   6.566 -0.3730  0.3090  1.2723
  153SAPE    HX16948   2.098   2.558   6.552 -0.2442  0.8188  1.1145
  153SAPE    HY16949   2.270   2.577   6.486 -1.1086 -0.9517 -0.0341
  153SAPE   O3116950   2.238   2.580   6.691  0.6688  0.4076  0.2365
  153SAPE   C3116951   2.364   2.586   6.726 -0.3117 -0.5399  0.3654
  153SAPE   O3216952   2.461   2.547   6.663 -0.2743 -0.4168 -1.1305
  153SAPE   C3216953   2.369   2.622   6.879 -0.4846  0.1225  0.5235
  153SAPE   H2X16954   2.312   2.714   6.904 -2.8409 -1.5762  1.8202
  153SAPE   H2Y16955   2.479   2.629   6.895  0.3326 -1.9076 -3.1165
  153SAPE   C2316956   2.271   2.024   6.846  0.3982  0.5507  0.6673
  153SAPE   H3R16957   2.375   2.060   6.840  0.4516  0.2156 -1.9578
  153SAPE   H3S16958   2.266   1.938   6.775  1.1795  1.3895 -0.4387
  153SAPE   C2416959   2.243   1.980   6.991 -0.0661  0.3247 -0.1331
  153SAPE   H4R16960   2.249   2.067   7.060  0.0953 -2.5617  3.8314
  153SAPE   H4S16961   2.318   1.906   7.026 -0.2289 -0.7804 -1.9480
  153SAPE   C2516962   2.101   1.917   7.008 -0.0006  0.3427  0.2092
  153SAPE   H5R16963   2.081   1.833   6.940 -1.0616 -0.4997  1.4818
  153SAPE   C2616964   1.992   1.966   7.082 -0.6150 -0.4993  0.0871
  153SAPE   H6R16965   1.899   1.908   7.089  0.7742 -2.6261  2.8779
  153SAPE   C2716966   2.007   2.087   7.179 -0.0098  0.2035 -0.2860
  153SAPE   H7R16967   2.054   2.178   7.136 -0.4006  0.4654 -0.1624
  153SAPE   H7S16968   2.082   2.059   7.255  1.9795 -2.3146 -2.9830
  153SAPE   C2816969   1.871   2.134   7.227 -0.0053  0.7000  0.1711
  153SAPE   H8R16970   1.800   2.144   7.143  1.4348  1.2843 -1.0365
  153SAPE   C2916971   1.826   2.148   7.353  0.5526  0.0093 -0.7911
  153SAPE   H9R16972   1.716   2.144   7.359  0.6681 -3.0496  1.7160
  153SAPE  C21016973   1.894   2.114   7.480  0.8862  0.9906  0.3197
  153SAPE  H10R16974   2.002   2.097   7.465  1.1680 -1.5422  3.8910
  153SAPE  H10S16975   1.862   2.013   7.513 -0.5559  0.5233 -2.2340
  153SAPE  C21116976   1.875   2.213   7.588 -0.0504  0.0421  0.4289
  153SAPE  H11R16977   1.800   2.288   7.560 -0.3573 -0.6533 -0.6931
  153SAPE  C21216978   1.923   2.203   7.711  0.0941  0.2534  0.2495
  153SAPE  H12R16979   1.904   2.289   7.776  1.9706  1.2536 -0.4597
  153SAPE  C21316980   2.007   2.089   7.752 -0.3591 -0.6507 -0.1329
  153SAPE  H13R16981   2.066   2.046   7.669  2.2285 -2.3642  2.3921
  153SAPE  H13S16982   1.935   2.009   7.779 -2.0074  1.1120  0.9326
  153SAPE  C21416983   2.107   2.131   7.859 -0.4269  0.6096 -0.3830
  153SAPE  H14R16984   2.202   2.166   7.815 -0.5740  0.6387 -0.6791
  153SAPE  C21516985   2.094   2.134   7.999 -0.9155  0.5335  0.4219
  153SAPE  H15R16986   2.180   2.169   8.057 -0.8948 -0.3289  0.9281
  153SAPE  C21616987   1.968   2.098   8.072 -0.6695 -0.2945  0.2128
  153SAPE  H16R16988   1.983   1.992   8.099 -0.3340 -0.1737  0.5187
  153SAPE  H16S16989   1.879   2.110   8.007  0.1945 -3.1934 -1.6860
  153SAPE  C21716990   1.949   2.187   8.195  0.2306 -0.6781 -1.1464
  153SAPE  H17R16991   2.036   2.178   8.264 -0.9303 -0.1052  0.4690
  153SAPE  H17S16992   1.855   2.151   8.243 -0.0544  2.0505  0.5731
  153SAPE  C21816993   1.917   2.340   8.166 -0.6522  0.0696  0.3768
  153SAPE  H18R16994   1.835   2.346   8.091  0.8208 -0.0545 -1.3342
  153SAPE  H18S16995   1.998   2.383   8.102 -2.2021  1.2515 -0.9026
  153SAPE  C21916996   1.891   2.420   8.292  0.3541  0.7937  0.1000
  153SAPE  H19R16997   1.975   2.423   8.365 -0.0233 -3.7576  1.0420
  153SAPE  H19S16998   1.813   2.369   8.353  0.9199 -1.7650 -1.1753
  153SAPE  C22016999   1.854   2.562   8.261 -0.1160 -0.2106  0.0215
  153SAPE  H20R17000   1.852   2.632   8.348 -0.0998  0.1334 -0.2525
  153SAPE  H20S17001   1.753   2.566   8.214  0.2758  0.5658 -0.7814
  153SAPE  H20T17002   1.926   2.605   8.188  0.5740 -0.9557  0.2641
  153SAPE   C3317003   2.302   2.509   6.965 -0.3809  0.1989 -0.1136
  153SAPE   H3X17004   2.347   2.411   6.939 -0.8166 -0.4520  1.5072
  153SAPE   H3Y17005   2.194   2.505   6.937  0.1987 -2.0776 -2.3857
  153SAPE   C3417006   2.326   2.523   7.112 -0.3382  0.4431  0.4132
  153SAPE   H4X17007   2.284   2.621   7.142 -0.1839  0.6969 -0.1784
  153SAPE   H4Y17008   2.435   2.515   7.127 -0.2827  1.1787  0.4329
  153SAPE   C3517009   2.275   2.394   7.182  0.2607 -0.4102 -0.2666
  153SAPE   H5X17010   2.317   2.302   7.135  0.9126  1.2306 -3.1749
  153SAPE   H5Y17011   2.164   2.399   7.173  0.0115  1.5364  2.6698
  153SAPE   C3617012   2.309   2.386   7.336  0.2110 -0.4884 -0.1119
  153SAPE   H6X17013   2.270   2.481   7.376  3.7520  1.0816 -0.0263
  153SAPE   H6Y17014   2.420   2.386   7.327  0.2089  0.4130 -0.2299
  153SAPE   C3717015   2.253   2.262   7.407  0.1711  0.3556  0.4884
  153SAPE   H7X17016   2.303   2.171   7.365 -0.1659 -0.3231  1.5297
  153SAPE   H7Y17017   2.144   2.261   7.384  0.5770 -0.1826 -1.6368
  153SAPE   C3817018   2.281   2.272   7.564  0.6439  0.5696  0.4879
  153SAPE   H8X17019   2.278   2.171   7.610 -0.5637  0.9637  1.3348
  153SAPE   H8Y17020   2.206   2.331   7.621 -0.0257  0.1113  0.0959
  153SAPE   C3917021   2.413   2.332   7.607  0.0282 -0.0500  0.2519
  153SAPE   H9X17022   2.407   2.442   7.613  0.1562 -0.0932  1.2634
  153SAPE   H9Y17023   2.486   2.304   7.528  0.2310  0.4119  0.2765
  153SAPE  C31017024   2.449   2.285   7.749  0.1064  0.4326 -0.2161
  153SAPE  H10X17025   2.361   2.316   7.809  0.4422  3.9040 -1.2958
  153SAPE  H10Y17026   2.532   2.354   7.777  0.0783  0.6106 -0.5641
  153SAPE  C31117027   2.490   2.142   7.785  0.3246  0.1320 -0.1223
  153SAPE  H11X17028   2.522   2.091   7.692 -0.3746  0.9190 -0.8160
  153SAPE  H11Y17029   2.402   2.081   7.817  0.1852 -1.2491 -2.8596
  153SAPE  C31217030   2.602   2.137   7.897 -0.4371  0.4134  0.8976
  153SAPE  H12X17031   2.690   2.186   7.850 -1.0441 -0.3778 -1.2057
  153SAPE  H12Y17032   2.633   2.031   7.909  1.9096  0.7514 -1.1954
  153SAPE  C31317033   2.562   2.196   8.027 -0.3408  0.1738  0.2951
  153SAPE  H13X17034   2.458   2.165   8.051 -1.1388  3.5115  1.6163
  153SAPE  H13Y17035   2.552   2.303   7.999 -0.7717 -0.1647 -0.9338
  153SAPE  C31417036   2.651   2.170   8.146  0.0059  0.2854 -0.2189
  153SAPE  H14X17037   2.716   2.254   8.177 -1.8036  0.8892  2.2321
  153SAPE  H14Y17038   2.707   2.076   8.126 -1.0563 -0.4878  0.3197
  153SAPE  C31517039   2.577   2.131   8.275  0.1304 -0.0286  0.2044
  153SAPE  H15X17040   2.490   2.068   8.245 -1.6325  1.5567  1.7399
  153SAPE  H15Y17041   2.541   2.222   8.326  0.6127  0.4711 -0.3332
  153SAPE  C31617042   2.662   2.048   8.375 -0.3187 -0.0340  0.6899
  153SAPE  H16X17043   2.752   2.098   8.417 -1.4086  0.3433  2.7336
  153SAPE  H16Y17044   2.704   1.964   8.316 -0.3402 -0.0591  0.7107
  153SAPE  C31717045   2.578   1.987   8.490 -0.2348  0.3529  0.0094
  153SAPE  H17X17046   2.631   1.892   8.515 -1.1598 -0.3062 -0.4645
  153SAPE  H17Y17047   2.474   1.976   8.452 -1.3144  3.5735  1.6548
  153SAPE  C31817048   2.579   2.075   8.616  0.1947 -0.5477 -0.5048
  153SAPE  H18X17049   2.522   2.167   8.593  0.6972  0.3400  1.5601
  153SAPE  H18Y17050   2.679   2.102   8.656  0.0017 -0.8756  0.2231
  153SAPE  H18Z17051   2.513   2.027   8.692 -0.7601  1.1683 -0.2187
  154SAPE     N17052   0.011   1.341   6.079 -0.4848 -0.2002 -0.0763
  154SAPE   HN117053   0.114   1.354   6.089 -0.1593 -1.1530 -1.8824
  154SAPE   HN217054  -0.028   1.324   6.174 -0.4901 -0.2355 -0.0849
  154SAPE   HN317055  -0.009   1.261   6.017 -3.8699  0.8560 -0.5783
  154SAPE   C1217056  -0.059   1.466   6.031  0.3901 -0.0509  0.0521
  154SAPE  H12A17057  -0.169   1.448   6.028  0.0185  1.9244  0.4530
  154SAPE  H12B17058  -0.019   1.493   5.931  1.1499 -0.6631  0.1803
  154SAPE   C1117059  -0.021   1.581   6.118 -0.5791 -0.1168 -0.0783
  154SAPE  H11A17060  -0.067   1.669   6.068 -3.3639 -0.1504  2.2060
  154SAPE  H11B17061   0.088   1.600   6.128 -0.2823 -2.0450  0.6910
  154SAPE     P17062  -0.052   1.667   6.357  0.2177  0.0421 -0.1491
  154SAPE   O1317063  -0.129   1.791   6.338 -0.5452  0.3575  0.0303
  154SAPE   O1417064  -0.080   1.603   6.490 -0.1208 -0.0187 -0.0265
  154SAPE   O1217065  -0.081   1.568   6.241  0.2712  0.0032 -0.0714
  154SAPE   O1117066   0.100   1.702   6.337 -0.6445  0.2108  0.1808
  154SAPE    C117067   0.210   1.645   6.391 -0.7582  0.4997 -0.3039
  154SAPE    HA17068   0.197   1.537   6.414  2.9932 -1.0620 -4.1945
  154SAPE    HB17069   0.294   1.645   6.318  0.0513  0.3052  0.5968
  154SAPE    C217070   0.270   1.730   6.512 -0.2094  0.0257  0.3380
  154SAPE    HS17071   0.369   1.689   6.544  0.9055  1.2191 -1.3708
  154SAPE   O2117072   0.178   1.738   6.626 -0.5790  0.6413  0.4222
  154SAPE   C2117073   0.164   1.623   6.689 -0.6695 -0.3442  0.2611
  154SAPE   O2217074   0.224   1.528   6.662 -0.8149  0.7966 -0.0466
  154SAPE   C2217075   0.076   1.635   6.806 -0.4134 -0.4458 -0.2858
  154SAPE   H2R17076   0.043   1.741   6.806 -1.1359 -0.6546  0.7457
  154SAPE   H2S17077  -0.007   1.562   6.811 -0.2515 -0.6953 -1.1564
  154SAPE    C317078   0.306   1.876   6.472  1.0863  0.2020  0.0179
  154SAPE    HX17079   0.218   1.930   6.432  0.8972  0.5512  0.8879
  154SAPE    HY17080   0.377   1.856   6.389 -0.1906 -0.4168 -0.9498
  154SAPE   O3117081   0.379   1.961   6.570 -0.8090  0.4269 -0.7567
  154SAPE   C3117082   0.299   2.030   6.648  0.1233 -0.9400  0.2015
  154SAPE   O3217083   0.178   2.027   6.639 -0.0734 -0.2990  0.1012
  154SAPE   C3217084   0.374   2.125   6.744 -0.4062  0.1941 -0.3705
  154SAPE   H2X17085   0.412   2.219   6.700  0.0016 -0.2827 -1.0415
  154SAPE   H2Y17086   0.468   2.076   6.776 -0.3991  1.1462  1.1989
  154SAPE   C2317087   0.150   1.618   6.942 -0.2182  0.4197 -0.1311
  154SAPE   H3R17088   0.223   1.702   6.938 -1.4627  1.4800 -1.9336
  154SAPE   H3S17089   0.196   1.517   6.942  0.4190  0.6946 -1.1461
  154SAPE   C2417090   0.053   1.635   7.061 -0.3912  0.2659 -0.0538
  154SAPE   H4R17091  -0.016   1.720   7.041 -2.2785 -1.5962 -1.8444
  154SAPE   H4S17092   0.121   1.659   7.146 -1.4988 -1.8064  1.5279
  154SAPE   C2517093  -0.022   1.514   7.108 -0.2697 -0.2625  0.0240
  154SAPE   H5R17094  -0.114   1.488   7.054 -0.6874  0.5657  0.3169
  154SAPE   C2617095   0.010   1.432   7.216  0.0301 -0.3025 -0.2098
  154SAPE   H6R17096  -0.058   1.349   7.241 -0.5981  0.4386  0.6091
  154SAPE   C2717097   0.120   1.441   7.316  0.4364  0.0183  0.3594
  154SAPE   H7R17098   0.218   1.460   7.267  0.3206  0.1472  0.1775
  154SAPE   H7S17099   0.127   1.339   7.360  1.1282 -0.8026 -1.5383
  154SAPE   C2817100   0.092   1.552   7.418  0.1267  0.1621 -0.2668
  154SAPE   H8R17101   0.074   1.652   7.376 -0.1780  0.4640  0.5507
  154SAPE   C2917102   0.107   1.540   7.549  0.1618  0.4505 -0.1035
  154SAPE   H9R17103   0.068   1.621   7.613  2.8379  1.5428  0.3123
  154SAPE  C21017104   0.162   1.418   7.616  0.0887  0.4033 -0.1873
  154SAPE  H10R17105   0.237   1.384   7.542  0.6464  1.8506 -0.3109
  154SAPE  H10S17106   0.088   1.335   7.604  0.4451  0.4055 -2.9847
  154SAPE  C21117107   0.206   1.431   7.758 -0.0487 -0.0959 -0.2506
  154SAPE  H11R17108   0.315   1.442   7.771 -0.0757 -1.2411  1.0826
  154SAPE  C21217109   0.120   1.423   7.864 -0.2633  0.0936 -0.6077
  154SAPE  H12R17110   0.166   1.415   7.963  3.8245 -0.5054 -2.3605
  154SAPE  C21317111  -0.024   1.381   7.855 -0.0444 -0.3902  0.0961
  154SAPE  H13R17112  -0.061   1.371   7.751  0.7689 -0.6582 -0.1741
  154SAPE  H13S17113  -0.088   1.464   7.893  1.8537  1.1929  0.0396
  154SAPE  C21417114  -0.064   1.256   7.929 -0.5018 -0.2248 -0.4628
  154SAPE  H14R17115  -0.047   1.169   7.864  0.2278  1.0603 -2.0811
  154SAPE  C21517116  -0.116   1.236   8.048  0.6727 -0.2394 -0.0561
  154SAPE  H15R17117  -0.146   1.132   8.067 -2.3593  0.6022  0.3391
  154SAPE  C21617118  -0.157   1.330   8.157  0.2104 -0.2599 -0.8369
  154SAPE  H16R17119  -0.117   1.429   8.129  1.1828 -0.7479 -1.2364
  154SAPE  H16S17120  -0.109   1.306   8.254  0.3110  0.8402 -0.6021
  154SAPE  C21717121  -0.309   1.348   8.182  0.5541 -0.3364  0.1885
  154SAPE  H17R17122  -0.311   1.396   8.283 -0.5042 -0.5012  0.2614
  154SAPE  H17S17123  -0.348   1.244   8.189 -0.0602 -0.0067  3.4726
  154SAPE  C21817124  -0.377   1.452   8.092 -0.2616  0.1758 -0.5169
  154SAPE  H18R17125  -0.344   1.405   7.997  1.6741 -0.4427  0.4147
  154SAPE  H18S17126  -0.320   1.547   8.104  1.4142 -0.9243  0.7033
  154SAPE  C21917127  -0.527   1.462   8.105 -0.5817  0.4169 -0.6174
  154SAPE  H19R17128  -0.542   1.520   8.198  2.0431  1.7325 -0.9038
  154SAPE  H19S17129  -0.566   1.360   8.122  0.5501 -0.0830 -0.9306
  154SAPE  C22017130  -0.596   1.532   7.987 -0.0051  0.2065  0.5792
  154SAPE  H20R17131  -0.705   1.552   7.991 -0.6386 -2.1434 -1.8887
  154SAPE  H20S17132  -0.573   1.486   7.889  1.3499  1.2634  0.3696
  154SAPE  H20T17133  -0.559   1.636   7.988 -0.2635  0.3018  1.5188
  154SAPE   C3317134   0.286   2.169   6.863 -0.5174 -0.3101 -0.2932
  154SAPE   H3X17135   0.198   2.229   6.832  0.2185  1.1072  0.2717
  154SAPE   H3Y17136   0.336   2.252   6.917  0.3442  0.1622 -1.7387
  154SAPE   C3417137   0.252   2.068   6.971  0.5690 -0.4242  0.4062
  154SAPE   H4X17138   0.346   2.038   7.020  1.0780 -0.6566 -0.6822
  154SAPE   H4Y17139   0.202   1.982   6.922  1.9879  0.1508 -2.2383
  154SAPE   C3517140   0.163   2.119   7.082  0.0814  0.3744 -0.6987
  154SAPE   H5X17141   0.059   2.131   7.046 -1.0684 -3.5649  0.8127
  154SAPE   H5Y17142   0.200   2.217   7.119  0.7922 -0.3574  0.6042
  154SAPE   C3617143   0.148   2.019   7.205 -0.0804  0.2105  0.4930
  154SAPE   H6X17144   0.251   1.996   7.239  0.2122  0.7148 -0.0225
  154SAPE   H6Y17145   0.106   1.920   7.175 -0.4903  0.3068  0.7425
  154SAPE   C3717146   0.059   2.060   7.326 -0.1157  0.1646 -0.0326
  154SAPE   H7X17147  -0.036   2.091   7.278  0.3891 -0.5781 -1.5894
  154SAPE   H7Y17148   0.100   2.153   7.371 -1.4984  1.2886 -1.0035
  154SAPE   C3817149   0.034   1.946   7.428  0.3028  0.3564  0.0585
  154SAPE   H8X17150   0.124   1.896   7.468 -0.2186 -0.3454  0.3774
  154SAPE   H8Y17151  -0.029   1.866   7.382 -1.5616  1.6911  0.1806
  154SAPE   C3917152  -0.042   2.003   7.547 -0.0348  0.0606  0.3149
  154SAPE   H9X17153  -0.131   2.063   7.521  0.0480  0.4965  1.0071
  154SAPE   H9Y17154   0.021   2.071   7.609 -0.7670  0.3227  0.7828
  154SAPE  C31017155  -0.099   1.885   7.630 -0.2485  0.0614  0.5058
  154SAPE  H10X17156  -0.029   1.800   7.641  0.4708  0.4493 -0.8926
  154SAPE  H10Y17157  -0.192   1.849   7.581  0.2167 -0.7546  0.2065
  154SAPE  C31117158  -0.130   1.936   7.767  0.8500  0.0956 -0.2791
  154SAPE  H11X17159  -0.184   2.032   7.778  2.4220  0.8798  1.1203
  154SAPE  H11Y17160  -0.033   1.961   7.814  1.2059  0.7066 -1.3058
  154SAPE  C31217161  -0.195   1.821   7.851  0.5061 -0.5521 -0.5976
  154SAPE  H12X17162  -0.163   1.721   7.814  1.1939 -1.4152  2.0553
  154SAPE  H12Y17163  -0.304   1.829   7.834 -0.8164 -4.5365  3.8022
  154SAPE  C31317164  -0.165   1.831   8.001  1.0071 -0.2258  0.5492
  154SAPE  H13X17165  -0.241   1.774   8.058 -0.0693  0.8579  0.2269
  154SAPE  H13Y17166  -0.172   1.934   8.041  0.5324 -0.0993  0.1448
  154SAPE  C31417167  -0.026   1.773   8.020  0.4394  0.1846 -0.3778
  154SAPE  H14X17168   0.044   1.855   7.990 -0.8081  1.3930 -0.0643
  154SAPE  H14Y17169  -0.010   1.679   7.963 -1.0529 -0.0611 -0.4260
  154SAPE  C31517170  -0.004   1.745   8.174 -0.3501 -0.2021  0.6118
  154SAPE  H15X17171  -0.075   1.673   8.220  0.2754  0.4687  2.7627
  154SAPE  H15Y17172  -0.020   1.841   8.228  0.7336  1.1644 -1.3699
  154SAPE  C31617173   0.143   1.700   8.185  0.1169 -0.4052 -0.4730
  154SAPE  H16X17174   0.203   1.772   8.125 -0.3761 -1.0440 -1.7595
  154SAPE  H16Y17175   0.145   1.606   8.126 -0.8379 -1.7718  1.5595
  154SAPE  C31717176   0.196   1.696   8.330 -0.1694  1.0821  0.5764
  154SAPE  H17X17177   0.177   1.788   8.390  1.4466  0.7119  1.7434
  154SAPE  H17Y17178   0.305   1.679   8.316 -0.7589 -1.6485 -1.4426
  154SAPE  C31817179   0.138   1.579   8.413 -0.2518  0.3802  0.2155
  154SAPE  H18X17180   0.029   1.594   8.431 -0.5375 -0.9960 -0.2459
  154SAPE  H18Y17181   0.195   1.585   8.508 -0.9382  1.4266  0.5872
  154SAPE  H18Z17182   0.161   1.484   8.361  0.7080 -0.0846  1.4239
  155SAPE     N17183   0.785   2.745   6.070 -0.6216 -0.6219 -0.1481
  155SAPE   HN117184   0.747   2.694   5.988 -0.3633 -0.9977 -0.0347
  155SAPE   HN217185   0.741   2.700   6.153  1.3631  1.2359  2.0935
  155SAPE   HN317186   0.757   2.845   6.066  1.6832  0.0354 -1.0812
  155SAPE   C1217187   0.938   2.739   6.094  0.0047  0.2062 -1.0409
  155SAPE  H12A17188   0.989   2.786   6.006  0.5841 -1.1376 -1.4409
  155SAPE  H12B17189   0.965   2.632   6.097  0.3906  0.3240  1.0971
  155SAPE   C1117190   0.976   2.820   6.219 -0.4879  0.6679  0.0155
  155SAPE  H11A17191   1.085   2.799   6.228 -0.7330 -0.5497  0.2977
  155SAPE  H11B17192   0.920   2.794   6.312 -1.8011 -1.7065 -1.3359
  155SAPE     P17193   1.054   3.064   6.267 -0.2689 -0.0614 -0.0693
  155SAPE   O1317194   1.187   3.010   6.279 -0.1052 -0.4068 -0.3073
  155SAPE   O1417195   1.039   3.190   6.192 -0.5527 -0.2128  0.9696
  155SAPE   O1217196   0.957   2.957   6.201 -0.0528 -0.0999  0.0764
  155SAPE   O1117197   0.997   3.090   6.409  0.2318 -0.3109 -0.2451
  155SAPE    C117198   0.862   3.054   6.445 -0.6706  0.7469 -0.1931
  155SAPE    HA17199   0.795   3.109   6.377 -0.1099  2.6752  0.7550
  155SAPE    HB17200   0.850   2.943   6.452 -0.7299  0.7948  0.5884
  155SAPE    C217201   0.824   3.075   6.597  0.6409  0.1322 -0.0828
  155SAPE    HS17202   0.799   3.183   6.603 -2.9472 -0.6254  0.6244
  155SAPE   O2117203   0.918   3.042   6.695 -0.0491 -0.3930  0.2496
  155SAPE   C2117204   1.034   3.115   6.688  0.2812 -0.0805 -0.1115
  155SAPE   O2217205   1.045   3.229   6.649 -0.3189  0.0943  0.0886
  155SAPE   C2217206   1.149   3.041   6.752  0.4179 -0.0134 -0.1414
  155SAPE   H2R17207   1.104   2.967   6.821 -0.3239  1.9037  1.4964
  155SAPE   H2S17208   1.193   2.982   6.668 -1.2912 -2.8565  0.8178
  155SAPE    C317209   0.699   2.992   6.640 -0.1972  0.2543  0.0055
  155SAPE    HX17210   0.724   2.885   6.626  0.2923  0.4872 -1.0229
  155SAPE    HY17211   0.629   3.033   6.564 -1.6360  1.5388  1.9315
  155SAPE   O3117212   0.648   3.030   6.766  0.6830  0.3547 -0.2129
  155SAPE   C3117213   0.531   2.980   6.794 -0.1650  0.5405  0.2713
  155SAPE   O3217214   0.452   2.920   6.722  0.2523  0.2383 -0.0943
  155SAPE   C3217215   0.498   3.021   6.938 -0.1623  0.6635 -0.2946
  155SAPE   H2X17216   0.459   3.125   6.940 -1.3383  0.2675 -1.5059
  155SAPE   H2Y17217   0.590   3.011   7.001  0.8981  0.7322 -1.7722
  155SAPE   C2317218   1.251   3.126   6.839  0.0283 -0.3205 -0.1417
  155SAPE   H3R17219   1.299   3.206   6.780 -0.4114  0.4716  0.5528
  155SAPE   H3S17220   1.332   3.059   6.876  1.3974  0.9389 -0.7714
  155SAPE   C2417221   1.186   3.202   6.957  0.3224  0.0813 -0.2343
  155SAPE   H4R17222   1.131   3.126   7.017 -0.9991  1.4545  0.3674
  155SAPE   H4S17223   1.114   3.276   6.917 -1.4425 -1.9421 -0.9847
  155SAPE   C2517224   1.301   3.264   7.037  0.6258 -0.2853  0.7345
  155SAPE   H5R17225   1.332   3.366   7.010 -2.0079  0.5524  0.5709
  155SAPE   C2617226   1.348   3.219   7.157  1.1605  0.3455  0.4750
  155SAPE   H6R17227   1.436   3.267   7.203  1.3178  0.8413 -0.3172
  155SAPE   C2717228   1.289   3.095   7.233  0.2986 -0.8641 -0.7604
  155SAPE   H7R17229   1.181   3.076   7.219 -0.2111  1.4418 -0.3927
  155SAPE   H7S17230   1.302   3.123   7.340 -2.6585  1.5562 -0.8935
  155SAPE   C2817231   1.353   2.962   7.195  0.2231 -1.1003 -0.3628
  155SAPE   H8R17232   1.326   2.938   7.091 -0.5779 -0.4055 -0.3336
  155SAPE   C2917233   1.445   2.895   7.262  0.5112  0.4642  0.0644
  155SAPE   H9R17234   1.495   2.815   7.205  0.8801  0.4043  0.4682
  155SAPE  C21017235   1.511   2.929   7.392 -0.1017 -0.3205  0.3571
  155SAPE  H10R17236   1.556   3.029   7.372 -0.0460 -0.1954  1.1051
  155SAPE  H10S17237   1.599   2.864   7.409  2.1189  2.1638 -0.9331
  155SAPE  C21117238   1.423   2.942   7.514 -0.1639  0.1659  0.6078
  155SAPE  H11R17239   1.314   2.928   7.499 -0.5185  2.7711  0.3107
  155SAPE  C21217240   1.455   2.975   7.642  0.0486  0.2230 -0.0716
  155SAPE  H12R17241   1.381   2.963   7.722  0.0702  3.4670  0.5541
  155SAPE  C21317242   1.592   3.007   7.696 -0.3327  0.0365 -0.2601
  155SAPE  H13R17243   1.585   3.095   7.763 -1.4091 -0.4255  0.2454
  155SAPE  H13S17244   1.661   3.040   7.615 -0.4427  0.7092 -0.0850
  155SAPE  C21417245   1.657   2.895   7.771 -0.4521  0.2132 -0.4026
  155SAPE  H14R17246   1.667   2.802   7.713  0.6881 -1.5470  2.3789
  155SAPE  C21517247   1.707   2.889   7.893 -0.7705 -0.0135  0.0478
  155SAPE  H15R17248   1.754   2.794   7.924 -1.3971 -0.1464  0.6024
  155SAPE  C21617249   1.701   3.002   7.983 -0.3267  0.5286 -0.5085
  155SAPE  H16R17250   1.594   3.025   8.002 -0.2091  1.8308 -1.3063
  155SAPE  H16S17251   1.747   3.094   7.940 -2.1580  2.4729  1.4459
  155SAPE  C21717252   1.768   2.981   8.120 -0.0777 -0.1893 -0.5254
  155SAPE  H17R17253   1.715   2.906   8.183  1.7545 -0.9164  0.2118
  155SAPE  H17S17254   1.759   3.078   8.174  0.6338 -0.4639  0.0960
  155SAPE  C21817255   1.918   2.954   8.101  0.0175 -0.3900  0.2560
  155SAPE  H18R17256   1.973   3.026   8.037  1.7845 -0.6910  1.3803
  155SAPE  H18S17257   1.941   2.852   8.064  0.4680 -0.3370  0.3842
  155SAPE  C21917258   2.001   2.955   8.228  0.1143  0.0440 -0.0484
  155SAPE  H19R17259   1.963   2.868   8.286  0.7569 -0.1429  0.0989
  155SAPE  H19S17260   1.978   3.052   8.277  0.7149 -0.5110  1.4141
  155SAPE  C22017261   2.147   2.931   8.212  0.3613  1.2743 -0.9248
  155SAPE  H20R17262   2.208   3.014   8.169  2.3074  1.6515  2.2699
  155SAPE  H20S17263   2.164   2.840   8.150 -0.3856  1.4139 -1.3429
  155SAPE  H20T17264   2.188   2.927   8.315  0.3907 -0.1396 -0.9762
  155SAPE   C3317265   0.389   2.933   7.003  0.5153 -0.3535  1.1611
  155SAPE   H3X17266   0.417   2.825   6.999  1.7281 -0.0330 -1.4073
  155SAPE   H3Y17267   0.291   2.930   6.949  0.8347  0.8751  0.4905
  155SAPE   C3417268   0.355   2.978   7.148 -0.9004  0.2443 -0.1002
  155SAPE   H4X17269   0.262   2.924   7.175 -1.3898  0.0252 -2.0142
  155SAPE   H4Y17270   0.339   3.088   7.152 -3.3456 -0.0783  1.2067
  155SAPE   C3517271   0.462   2.952   7.258 -0.2983  0.2614 -0.0837
  155SAPE   H5X17272   0.551   3.018   7.247  0.5270 -1.0242 -1.6400
  155SAPE   H5Y17273   0.497   2.847   7.255 -2.5766 -0.6228  1.3579
  155SAPE   C3617274   0.409   2.984   7.400 -0.5131 -0.4582  0.6498
  155SAPE   H6X17275   0.311   2.931   7.397 -0.0425 -1.3877  1.0862
  155SAPE   H6Y17276   0.388   3.092   7.412  1.3369  0.0382 -0.2018
  155SAPE   C3717277   0.499   2.933   7.512 -0.0910 -0.6083 -0.3421
  155SAPE   H7X17278   0.518   2.824   7.503 -0.6885 -0.6184 -1.8117
  155SAPE   H7Y17279   0.445   2.944   7.609 -0.9871 -1.2055 -0.7578
  155SAPE   C3817280   0.646   2.980   7.520 -0.3608  0.1874 -0.7201
  155SAPE   H8X17281   0.645   3.091   7.516  0.9898  0.3214  1.3408
  155SAPE   H8Y17282   0.709   2.949   7.434  1.5900  2.8585 -0.3851
  155SAPE   C3917283   0.723   2.942   7.645  0.1529 -0.4424  0.7221
  155SAPE   H9X17284   0.825   2.984   7.657  0.1104 -0.1591  0.0847
  155SAPE   H9Y17285   0.724   2.831   7.643 -1.2095 -0.5309  2.4689
  155SAPE  C31017286   0.645   2.983   7.768 -0.5314  0.4325  0.6850
  155SAPE  H10X17287   0.574   2.899   7.776  1.0308 -1.2795 -1.9297
  155SAPE  H10Y17288   0.586   3.075   7.746  0.1978  0.9353  0.7770
  155SAPE  C31117289   0.728   2.989   7.905 -0.0379 -0.0550  0.4401
  155SAPE  H11X17290   0.652   3.019   7.981 -0.9503 -0.1743 -0.4119
  155SAPE  H11Y17291   0.804   3.070   7.901  0.1356 -0.2680 -2.0621
  155SAPE  C31217292   0.786   2.859   7.951  0.4100  0.3415 -0.3794
  155SAPE  H12X17293   0.875   2.825   7.894 -0.4659  1.3455 -2.4493
  155SAPE  H12Y17294   0.719   2.771   7.943  3.2310 -1.9001 -1.0776
  155SAPE  C31317295   0.838   2.848   8.102 -0.2283 -0.1845  0.5818
  155SAPE  H13X17296   0.872   2.743   8.112  0.4368  0.0668  1.0558
  155SAPE  H13Y17297   0.757   2.864   8.175 -1.3247  1.8637 -0.9636
  155SAPE  C31417298   0.960   2.943   8.115  0.4340  0.0690  0.3590
  155SAPE  H14X17299   0.940   3.042   8.067  0.6701 -0.8988 -1.8438
  155SAPE  H14Y17300   1.040   2.883   8.067 -0.8478 -1.5049  0.0932
  155SAPE  C31517301   0.986   2.983   8.259  0.5194 -0.6480 -0.4094
  155SAPE  H15X17302   0.979   2.895   8.326  2.1972  0.4979  1.3778
  155SAPE  H15Y17303   0.902   3.052   8.281  1.3314  0.2673 -0.1347
  155SAPE  C31617304   1.121   3.052   8.285  0.4534  0.6346 -0.2894
  155SAPE  H16X17305   1.117   3.139   8.215 -1.7511 -1.7203 -3.3920
  155SAPE  H16Y17306   1.201   2.982   8.254  0.8515  0.0985  1.8070
  155SAPE  C31717307   1.146   3.089   8.430  0.3220  0.6487  0.0994
  155SAPE  H17X17308   1.135   3.006   8.503  1.5551  0.9397  0.6385
  155SAPE  H17Y17309   1.069   3.168   8.443 -0.8162  0.3852 -3.7830
  155SAPE  C31817310   1.282   3.149   8.450  0.0726 -0.5542  0.1320
  155SAPE  H18X17311   1.328   3.194   8.359  0.7822 -2.1697 -0.3581
  155SAPE  H18Y17312   1.343   3.058   8.467  1.0549 -0.0066 -0.3527
  155SAPE  H18Z17313   1.281   3.222   8.533 -1.8362  0.4394 -0.6981
  156SAPE     N17314   5.944   1.664   6.211 -0.1041  0.6023 -0.1838
  156SAPE   HN117315   5.906   1.742   6.153 -1.9909  1.2848  1.8125
  156SAPE   HN217316   6.040   1.632   6.190  0.0767  0.6812  0.4855
  156SAPE   HN317317   5.876   1.587   6.193 -0.6837  0.4917  2.1261
  156SAPE   C1217318   5.934   1.697   6.353 -0.3522 -0.0929 -0.0924
  156SAPE  H12A17319   5.826   1.715   6.369 -0.6412 -2.0127  0.3388
  156SAPE  H12B17320   5.999   1.784   6.378  0.9438 -1.2208  0.5875
  156SAPE   C1117321   5.986   1.575   6.436  0.3898 -0.4708  0.1824
  156SAPE  H11A17322   5.917   1.492   6.410 -0.2725 -0.2898  1.3036
  156SAPE  H11B17323   5.967   1.580   6.545 -1.7380 -0.8116 -0.1214
  156SAPE     P17324   6.242   1.556   6.491 -0.0627 -0.0841 -0.6577
  156SAPE   O1317325   6.364   1.490   6.436  0.1340 -0.6908  0.1139
  156SAPE   O1417326   6.258   1.698   6.526  0.2463  0.2833  0.1858
  156SAPE   O1217327   6.118   1.530   6.396  0.4007  0.6050  0.2620
  156SAPE   O1117328   6.208   1.478   6.620 -0.3122  0.7211 -0.0782
  156SAPE    C117329   6.154   1.345   6.625 -0.0215  0.1866 -0.3836
  156SAPE    HA17330   6.115   1.309   6.527 -3.9851  0.2064  0.9752
  156SAPE    HB17331   6.230   1.274   6.663 -1.8066 -1.2564  0.6673
  156SAPE    C217332   6.037   1.344   6.727  0.4532 -0.5602 -0.0812
  156SAPE    HS17333   5.944   1.380   6.677  0.9880  0.6607 -0.2264
  156SAPE   O2117334   6.064   1.429   6.844  0.0078  0.0952  0.8356
  156SAPE   C2117335   5.969   1.504   6.895  0.1015  0.4290  0.3705
  156SAPE   O2217336   5.849   1.504   6.872  0.2730  0.0594  0.0767
  156SAPE   C2217337   6.041   1.585   7.000 -0.0023  0.4279 -0.1781
  156SAPE   H2R17338   6.088   1.520   7.077 -0.2133  3.3175  2.6008
  156SAPE   H2S17339   6.127   1.641   6.959  2.6523 -0.8214  3.1903
  156SAPE    C317340   6.003   1.200   6.775 -0.0874  0.4951 -0.3977
  156SAPE    HX17341   6.097   1.152   6.810  0.3039  1.7482  0.3155
  156SAPE    HY17342   5.975   1.142   6.685  0.1232 -2.2187  1.1806
  156SAPE   O3117343   5.900   1.204   6.878  0.1229  0.3861 -0.4635
  156SAPE   C3117344   5.772   1.181   6.842 -0.4856 -0.9336  0.4433
  156SAPE   O3217345   5.731   1.176   6.730  0.4951 -0.1166 -0.3733
  156SAPE   C3217346   5.682   1.180   6.964  0.9648  0.5155  0.0449
  156SAPE   H2X17347   5.619   1.270   6.976 -1.4975 -1.1765  0.6331
  156SAPE   H2Y17348   5.747   1.166   7.053 -0.0367 -2.4090  0.4543
  156SAPE   C2317349   5.947   1.687   7.072 -0.2938  0.1564  0.0391
  156SAPE   H3R17350   5.852   1.645   7.111 -0.2605 -1.0500 -1.0870
  156SAPE   H3S17351   5.915   1.763   6.997 -0.4248 -0.3938 -0.4771
  156SAPE   C2417352   6.018   1.763   7.189 -0.6247  0.0305  0.4189
  156SAPE   H4R17353   6.100   1.827   7.151  0.2648  0.0254  2.2409
  156SAPE   H4S17354   6.078   1.692   7.249 -0.7181  0.6079  1.2270
  156SAPE   C2517355   5.918   1.839   7.274  0.1226 -0.2191 -0.1327
  156SAPE   H5R17356   5.849   1.907   7.222 -1.3968  0.2753  2.3371
  156SAPE   C2617357   5.920   1.854   7.410 -0.2614  0.7014 -0.4842
  156SAPE   H6R17358   5.851   1.923   7.460 -0.2461 -1.2779  2.5088
  156SAPE   C2717359   6.011   1.795   7.511 -0.0522  0.4693  0.0646
  156SAPE   H7R17360   6.018   1.684   7.500  0.4855  0.4943  0.1003
  156SAPE   H7S17361   5.963   1.807   7.610  2.1038  0.9431  1.1051
  156SAPE   C2817362   6.156   1.841   7.504 -0.5793 -0.3119  0.6711
  156SAPE   H8R17363   6.186   1.860   7.399  1.1998 -0.9641  1.0285
  156SAPE   C2917364   6.247   1.866   7.600  0.3959  0.4356 -0.4739
  156SAPE   H9R17365   6.349   1.880   7.562  1.1011 -0.6139  0.9147
  156SAPE  C21017366   6.224   1.848   7.751 -0.7135  0.1150 -0.2566
  156SAPE  H10R17367   6.310   1.801   7.803 -1.9894 -1.4686  0.5434
  156SAPE  H10S17368   6.140   1.776   7.765 -0.3423 -0.5494 -1.3059
  156SAPE  C21117369   6.171   1.979   7.815  0.3523 -0.1672  0.0537
  156SAPE  H11R17370   6.130   2.048   7.740 -2.2468 -1.0092  0.5808
  156SAPE  C21217371   6.204   2.018   7.944  0.0962 -0.2989  0.7084
  156SAPE  H12R17372   6.148   2.102   7.987 -0.7716 -0.1501 -0.6366
  156SAPE  C21317373   6.287   1.937   8.037  0.1821 -0.6774 -0.4417
  156SAPE  H13R17374   6.355   2.009   8.088  0.2004 -0.6801 -0.4631
  156SAPE  H13S17375   6.355   1.864   7.989  2.8823 -1.7362  4.3104
  156SAPE  C21417376   6.215   1.859   8.143  0.6550 -0.1445  0.6027
  156SAPE  H14R17377   6.108   1.839   8.127  0.2049  3.1074 -1.2446
  156SAPE  C21517378   6.275   1.803   8.253 -0.8653 -0.5120  0.0814
  156SAPE  H15R17379   6.211   1.734   8.311  2.0663 -3.5714  0.0421
  156SAPE  C21617380   6.420   1.818   8.293 -0.4477 -0.6924  0.3533
  156SAPE  H16R17381   6.488   1.881   8.231 -0.3072 -0.8937  0.3031
  156SAPE  H16S17382   6.462   1.717   8.276  2.3886  0.3981  0.4111
  156SAPE  C21717383   6.436   1.873   8.436 -0.1694  0.9571 -0.1457
  156SAPE  H17R17384   6.545   1.868   8.456 -0.1509 -3.1915 -0.5144
  156SAPE  H17S17385   6.375   1.802   8.496  1.0698 -1.3257 -1.4672
  156SAPE  C21817386   6.386   2.014   8.470  0.0322 -0.0282  0.5273
  156SAPE  H18R17387   6.411   2.035   8.576 -1.2918 -1.7796  1.2435
  156SAPE  H18S17388   6.275   2.021   8.471  0.0842  2.2608 -0.9471
  156SAPE  C21917389   6.455   2.104   8.373 -0.3263 -0.5721 -0.7413
  156SAPE  H19R17390   6.421   2.100   8.267 -0.6092  0.2708 -0.6901
  156SAPE  H19S17391   6.563   2.079   8.383  0.3793  2.4470  0.1484
  156SAPE  C22017392   6.424   2.249   8.420 -0.1732  0.0508  0.7286
  156SAPE  H20R17393   6.476   2.323   8.356  1.5218 -2.0796 -0.5232
  156SAPE  H20S17394   6.477   2.256   8.517  0.0333  1.0737  0.5484
  156SAPE  H20T17395   6.316   2.275   8.420  0.3932  2.7505 -0.9147
  156SAPE   C3317396   5.577   1.066   6.975 -0.3337  0.2457  0.4955
  156SAPE   H3X17397   5.618   0.964   6.957  0.2963  0.5271  0.3508
  156SAPE   H3Y17398   5.491   1.088   6.908 -0.2047 -1.6983 -0.3911
  156SAPE   C3417399   5.537   1.038   7.121  0.1392 -0.0726 -0.3812
  156SAPE   H4X17400   5.622   1.043   7.192 -0.9767 -0.3903  1.0151
  156SAPE   H4Y17401   5.493   0.937   7.136  0.2901 -0.0370  0.3552
  156SAPE   C3517402   5.436   1.141   7.179 -0.3470  0.1691 -0.3098
  156SAPE   H5X17403   5.349   1.138   7.110  0.8240 -3.1972 -1.8330
  156SAPE   H5Y17404   5.481   1.242   7.185 -0.2893  0.0876  0.7817
  156SAPE   C3617405   5.366   1.102   7.315  0.0155  0.1277 -0.1336
  156SAPE   H6X17406   5.321   1.000   7.315 -0.9002  0.5102  1.5738
  156SAPE   H6Y17407   5.273   1.161   7.325  0.7739  1.0362  1.9015
  156SAPE   C3717408   5.452   1.134   7.440  0.5201 -0.5533  0.4474
  156SAPE   H7X17409   5.524   1.211   7.405 -0.7252 -0.4068 -1.9725
  156SAPE   H7Y17410   5.529   1.055   7.453 -1.1231 -2.5245 -1.0759
  156SAPE   C3817411   5.374   1.177   7.570 -0.5429 -0.1545 -0.4975
  156SAPE   H8X17412   5.299   1.096   7.583  0.0383 -0.8444 -1.3501
  156SAPE   H8Y17413   5.317   1.270   7.550 -1.5690 -0.3312  1.3394
  156SAPE   C3917414   5.464   1.182   7.692  0.5400  0.5012 -0.1259
  156SAPE   H9X17415   5.542   1.261   7.691  0.3451  0.7222 -1.8618
  156SAPE   H9Y17416   5.518   1.085   7.693  3.5616  2.0241 -1.7070
  156SAPE  C31017417   5.386   1.200   7.830  0.8430  0.2621  0.9463
  156SAPE  H10X17418   5.324   1.108   7.841  2.9468 -1.5569 -1.2101
  156SAPE  H10Y17419   5.315   1.286   7.821  0.8642  0.0876 -1.6025
  156SAPE  C31117420   5.485   1.205   7.951  0.3716 -0.1849  0.4644
  156SAPE  H11X17421   5.576   1.258   7.917 -0.2767 -0.4006 -1.7247
  156SAPE  H11Y17422   5.511   1.102   7.985 -1.2051 -1.0718 -0.8809
  156SAPE  C31217423   5.420   1.283   8.070  0.4229 -0.3320  0.4173
  156SAPE  H12X17424   5.336   1.228   8.115  1.0982  0.2042  2.4158
  156SAPE  H12Y17425   5.399   1.381   8.021  1.4700 -1.0298 -1.5490
  156SAPE  C31317426   5.532   1.303   8.178  0.4045 -0.0455  0.3577
  156SAPE  H13X17427   5.619   1.361   8.141  0.4626  0.1915  0.8550
  156SAPE  H13Y17428   5.561   1.197   8.194 -2.3412 -0.7889  1.0775
  156SAPE  C31417429   5.466   1.352   8.308 -0.4357  0.9284 -0.4269
  156SAPE  H14X17430   5.405   1.265   8.340  0.2456  0.7117  0.2999
  156SAPE  H14Y17431   5.394   1.434   8.291 -1.5571  0.0991  0.2265
  156SAPE  C31517432   5.568   1.394   8.423 -0.1240 -0.3655  0.0006
  156SAPE  H15X17433   5.521   1.416   8.521  1.2801 -2.5782  1.2530
  156SAPE  H15Y17434   5.626   1.484   8.394  0.5243 -0.6727  0.3201
  156SAPE  C31617435   5.654   1.272   8.443 -1.0120  0.3156  0.6829
  156SAPE  H16X17436   5.698   1.248   8.344  0.4269 -0.4286  1.4699
  156SAPE  H16Y17437   5.605   1.179   8.480  1.5057 -1.2493  0.2915
  156SAPE  C31717438   5.775   1.302   8.537 -0.8567 -0.3078  0.0155
  156SAPE  H17X17439   5.841   1.374   8.485 -0.5242  0.7088  1.7458
  156SAPE  H17Y17440   5.844   1.215   8.539 -1.0724 -0.4761  0.4768
  156SAPE  C31817441   5.744   1.344   8.678 -0.0308  0.5963  1.1043
  156SAPE  H18X17442   5.651   1.287   8.702 -0.1903 -0.4430 -1.6432
  156SAPE  H18Y17443   5.715   1.451   8.685 -2.5303  0.1145 -0.6756
  156SAPE  H18Z17444   5.816   1.321   8.759 -2.6149  2.7372  4.2920
  157SAPE     N17445   1.807   5.383   6.260 -1.1245 -0.8077  0.4327
  157SAPE   HN117446   1.863   5.402   6.346 -1.9613 -0.3391  0.8879
  157SAPE   HN217447   1.746   5.468   6.258 -4.5554 -3.0606  1.3949
  157SAPE   HN317448   1.740   5.305   6.276  0.5525 -2.3542  0.2457
  157SAPE   C1217449   1.899   5.360   6.132 -0.5623 -0.1913 -0.3077
  157SAPE  H12A17450   1.971   5.444   6.143 -1.1502  0.1227  1.5076
  157SAPE  H12B17451   1.831   5.380   6.047 -0.5613  1.6434  0.0788
  157SAPE   C1117452   1.946   5.213   6.139 -0.4529 -0.2804 -0.6077
  157SAPE  H11A17453   1.985   5.194   6.036  1.6008 -0.7231  0.1959
  157SAPE  H11B17454   1.863   5.144   6.165  1.6877 -2.2299  1.5105
  157SAPE     P17455   2.168   5.083   6.213 -0.1061 -0.1054  0.2492
  157SAPE   O1317456   2.163   5.033   6.073  0.5091  0.0519 -0.3483
  157SAPE   O1417457   2.296   5.148   6.249  0.4615 -0.6314 -0.0081
  157SAPE   O1217458   2.050   5.187   6.238 -0.1928 -0.6904  0.2141
  157SAPE   O1117459   2.139   4.961   6.312  0.1570 -0.3513  0.1947
  157SAPE    C117460   2.002   4.936   6.341 -0.2913  0.7181 -0.0061
  157SAPE    HA17461   1.925   4.965   6.266  0.8163 -0.6768 -1.7556
  157SAPE    HB17462   1.998   4.826   6.355 -2.9921  0.5796 -1.2715
  157SAPE    C217463   1.952   5.013   6.471  1.0392 -0.4805 -0.2452
  157SAPE    HS17464   1.951   5.120   6.442 -2.1997 -0.4195 -0.2493
  157SAPE   O2117465   2.043   4.979   6.577 -0.1903 -0.3096 -0.1491
  157SAPE   C2117466   2.077   5.078   6.661 -0.4979  0.2711  0.6495
  157SAPE   O2217467   2.033   5.193   6.652 -0.0325 -0.2448 -0.0033
  157SAPE   C2217468   2.179   5.015   6.757 -0.1606 -0.0673 -0.6162
  157SAPE   H2R17469   2.131   4.935   6.817  2.0438 -0.4070  0.8413
  157SAPE   H2S17470   2.259   4.978   6.689  1.3082 -0.4103  1.1986
  157SAPE    C317471   1.802   4.959   6.509 -0.0424  0.1875  1.2389
  157SAPE    HX17472   1.814   4.852   6.533 -2.3434  0.1846  2.6870
  157SAPE    HY17473   1.727   4.961   6.427  1.8686 -1.5924 -0.6560
  157SAPE   O3117474   1.747   5.021   6.628 -0.5236 -0.5147 -0.0939
  157SAPE   C3117475   1.700   5.138   6.611  0.8210 -0.7604  0.0401
  157SAPE   O3217476   1.701   5.200   6.506  0.0553 -0.0396  0.2146
  157SAPE   C3217477   1.630   5.189   6.738  0.0718 -0.2501 -0.3386
  157SAPE   H2X17478   1.545   5.119   6.753 -0.1456 -0.2218 -1.3289
  157SAPE   H2Y17479   1.591   5.292   6.721  2.4231  0.8339  0.4983
  157SAPE   C2317480   2.244   5.122   6.848  0.4839  0.2022 -0.0956
  157SAPE   H3R17481   2.274   5.208   6.785  1.2722  0.4899  0.6576
  157SAPE   H3S17482   2.337   5.074   6.885 -1.5895 -1.6446  3.2181
  157SAPE   C2417483   2.155   5.163   6.968  0.4370 -0.5084 -0.9152
  157SAPE   H4R17484   2.051   5.181   6.933  0.0963  0.7106  0.6517
  157SAPE   H4S17485   2.191   5.261   7.004 -0.3013 -0.6251  0.1911
  157SAPE   C2517486   2.163   5.060   7.078 -0.2489  0.1244  0.1341
  157SAPE   H5R17487   2.150   4.956   7.045 -2.4086  0.4581 -0.2452
  157SAPE   C2617488   2.182   5.085   7.212  0.1323 -0.6747  0.1126
  157SAPE   H6R17489   2.199   4.997   7.277  0.7878 -1.4613 -1.0795
  157SAPE   C2717490   2.204   5.226   7.272 -0.4389 -0.3105 -0.0920
  157SAPE   H7R17491   2.103   5.272   7.272 -0.5999 -0.4349  3.0518
  157SAPE   H7S17492   2.276   5.279   7.206  0.7455 -3.5997 -1.6660
  157SAPE   C2817493   2.236   5.241   7.418  0.4365  0.2386 -0.2471
  157SAPE   H8R17494   2.335   5.287   7.433  0.4412  0.0409  0.3389
  157SAPE   C2917495   2.154   5.210   7.522 -0.5472  0.6354  1.3721
  157SAPE   H9R17496   2.192   5.240   7.621 -2.2998  2.6922  1.4663
  157SAPE  C21017497   2.009   5.158   7.525 -0.1032 -0.6846  0.2988
  157SAPE  H10R17498   1.974   5.128   7.424 -0.3166  1.0404 -0.1595
  157SAPE  H10S17499   1.946   5.242   7.559  1.1812  0.5897 -0.3779
  157SAPE  C21117500   1.985   5.034   7.607 -1.1836 -0.3920 -0.1863
  157SAPE  H11R17501   1.967   4.939   7.555 -0.5972 -1.0520  0.7929
  157SAPE  C21217502   2.009   5.021   7.735 -0.4027 -1.1738 -0.5354
  157SAPE  H12R17503   1.976   4.927   7.783  2.3668 -1.9373  0.0381
  157SAPE  C21317504   2.056   5.136   7.819  0.5328  0.3286 -0.2839
  157SAPE  H13R17505   2.069   5.229   7.759 -0.4571  0.8535  0.2915
  157SAPE  H13S17506   2.146   5.104   7.874  0.4691  0.8105  0.1044
  157SAPE  C21417507   1.942   5.169   7.913  0.0366  0.5160 -0.0751
  157SAPE  H14R17508   1.848   5.186   7.859  0.8161  1.6783 -1.1444
  157SAPE  C21517509   1.953   5.181   8.048  0.2046 -0.8641 -0.1891
  157SAPE  H15R17510   1.858   5.204   8.098 -0.2550  1.1809 -1.8748
  157SAPE  C21617511   2.072   5.169   8.143 -0.5211 -0.9619  0.2012
  157SAPE  H16R17512   2.171   5.134   8.106 -0.1744 -2.6197  2.4572
  157SAPE  H16S17513   2.052   5.099   8.227  1.5009  0.2648  1.8030
  157SAPE  C21717514   2.090   5.314   8.218  0.1451  0.1284 -0.3373
  157SAPE  H17R17515   2.002   5.329   8.284  0.3014  1.0927 -0.3274
  157SAPE  H17S17516   2.087   5.386   8.134 -0.1166 -2.4186 -2.6436
  157SAPE  C21817517   2.222   5.330   8.296 -0.3237  0.3127  0.5993
  157SAPE  H18R17518   2.305   5.328   8.222 -0.9840  0.1800 -0.1486
  157SAPE  H18S17519   2.237   5.243   8.363  1.1107  0.0404 -0.0535
  157SAPE  C21917520   2.239   5.460   8.369 -0.1737  0.3418 -0.4851
  157SAPE  H19R17521   2.142   5.493   8.411  1.2750  2.1910  1.7033
  157SAPE  H19S17522   2.268   5.545   8.304  3.3549 -0.2191  0.1339
  157SAPE  C22017523   2.345   5.452   8.479 -0.2274  0.6658 -0.0329
  157SAPE  H20R17524   2.328   5.371   8.553  1.3948 -0.0727 -0.4331
  157SAPE  H20S17525   2.353   5.552   8.527  0.6986  0.4755  0.2312
  157SAPE  H20T17526   2.443   5.424   8.434 -0.7914  0.7345 -1.3537
  157SAPE   C3317527   1.727   5.183   6.859 -0.8196 -0.3481  0.4382
  157SAPE   H3X17528   1.801   5.265   6.846 -0.6924 -0.6679 -1.0858
  157SAPE   H3Y17529   1.776   5.084   6.874  0.6016 -0.2537 -2.8780
  157SAPE   C3417530   1.653   5.218   6.991 -0.8583  0.2591 -0.1295
  157SAPE   H4X17531   1.557   5.163   6.977  0.1619 -2.0189  1.2202
  157SAPE   H4Y17532   1.633   5.326   7.011  0.2176  0.1641  1.6106
  157SAPE   C3517533   1.716   5.149   7.119  0.2641 -0.3105  0.1985
  157SAPE   H5X17534   1.816   5.187   7.151  0.3816  0.4860 -1.0592
  157SAPE   H5Y17535   1.724   5.042   7.093 -3.5533 -0.5710 -0.4733
  157SAPE   C3617536   1.624   5.174   7.237 -0.0656 -0.2823  0.0096
  157SAPE   H6X17537   1.518   5.176   7.203 -0.0487 -3.0153 -0.4210
  157SAPE   H6Y17538   1.656   5.268   7.286 -1.1440 -0.2859  0.7615
  157SAPE   C3717539   1.644   5.064   7.340  0.5362  0.3543  0.5279
  157SAPE   H7X17540   1.751   5.046   7.365  0.0476 -1.7966  1.3308
  157SAPE   H7Y17541   1.601   4.970   7.299 -3.4576  1.3867  1.8129
  157SAPE   C3817542   1.567   5.085   7.470 -0.1631  0.3036  0.4863
  157SAPE   H8X17543   1.460   5.097   7.442 -0.5933 -1.6406  1.1119
  157SAPE   H8Y17544   1.585   5.174   7.535  0.0177 -1.1413  2.5079
  157SAPE   C3917545   1.580   4.964   7.555 -0.2824  0.4063 -0.0303
  157SAPE   H9X17546   1.673   4.904   7.544 -1.0875 -1.6729  3.2422
  157SAPE   H9Y17547   1.508   4.883   7.533 -0.6575  0.6516  0.2928
  157SAPE  C31017548   1.582   4.988   7.709  0.3700 -0.2408  0.7085
  157SAPE  H10X17549   1.486   5.036   7.738 -0.5110 -1.8903  0.6317
  157SAPE  H10Y17550   1.670   5.050   7.734 -0.3064  1.8790 -1.7249
  157SAPE  C31117551   1.602   4.853   7.779  0.3912  0.4747 -0.4494
  157SAPE  H11X17552   1.711   4.831   7.778  0.3344  0.2300 -1.2412
  157SAPE  H11Y17553   1.542   4.773   7.730 -0.7005 -0.3379  2.0370
  157SAPE  C31217554   1.550   4.864   7.925  0.2069 -0.5733  0.7457
  157SAPE  H12X17555   1.537   4.759   7.962 -2.0733 -0.1416  1.3387
  157SAPE  H12Y17556   1.442   4.891   7.924  0.3589  0.0413  0.6056
  157SAPE  C31317557   1.630   4.949   8.013 -0.2508 -0.2107 -0.0967
  157SAPE  H13X17558   1.670   5.045   7.974  1.8318 -0.9946 -0.0423
  157SAPE  H13Y17559   1.728   4.904   8.039  0.3086  0.8026 -0.3970
  157SAPE  C31417560   1.557   4.983   8.140  0.2366  0.2636  0.3956
  157SAPE  H14X17561   1.514   4.888   8.178 -0.0804 -0.2416 -1.1529
  157SAPE  H14Y17562   1.468   5.041   8.107  0.8681  0.5891 -0.8071
  157SAPE  C31517563   1.631   5.057   8.251  0.7221 -0.0662  0.4436
  157SAPE  H15X17564   1.566   5.071   8.340 -0.6830 -0.6792 -0.4531
  157SAPE  H15Y17565   1.666   5.157   8.217  2.3031 -0.8606 -0.3561
  157SAPE  C31617566   1.751   4.985   8.316  0.9281  0.4159  0.1245
  157SAPE  H16X17567   1.833   4.966   8.244 -0.7555 -0.9895 -1.5283
  157SAPE  H16Y17568   1.715   4.886   8.353 -0.3233  1.9015  3.2581
  157SAPE  C31717569   1.793   5.065   8.446  0.2664  0.3514 -0.0009
  157SAPE  H17X17570   1.699   5.084   8.502  0.1148 -1.7423  0.5438
  157SAPE  H17Y17571   1.842   5.162   8.422  1.8648 -0.2271  0.7164
  157SAPE  C31817572   1.890   4.989   8.545  0.3171  0.5150  0.2237
  157SAPE  H18X17573   1.918   5.056   8.630  0.3850 -0.1257  0.7192
  157SAPE  H18Y17574   1.987   4.973   8.494  0.2614 -1.2164  0.6005
  157SAPE  H18Z17575   1.845   4.892   8.574  1.0134  0.0961 -0.0743
  158SAPE     N17576   4.970   0.362   5.930 -0.4313  0.2089  0.4668
  158SAPE   HN117577   5.036   0.311   5.869 -0.5423  1.1673 -0.4827
  158SAPE   HN217578   4.951   0.300   6.012 -1.2289  1.1271  1.0036
  158SAPE   HN317579   4.885   0.362   5.871  0.2395 -0.1819 -0.5235
  158SAPE   C1217580   5.011   0.504   5.979  0.1786  0.1086 -0.1548
  158SAPE  H12A17581   4.998   0.572   5.892  0.1606 -0.7543 -0.8514
  158SAPE  H12B17582   5.119   0.499   6.004 -0.3658 -0.7247  2.3090
  158SAPE   C1117583   4.941   0.538   6.112  0.4768  0.3888 -0.3435
  158SAPE  H11A17584   4.949   0.465   6.196 -2.3164 -2.4585 -2.3215
  158SAPE  H11B17585   4.834   0.528   6.084  0.3711 -0.0572  0.2077
  158SAPE     P17586   5.077   0.713   6.260 -0.3525  0.3035 -0.3928
  158SAPE   O1317587   5.200   0.652   6.207 -0.1914  0.5712 -0.0592
  158SAPE   O1417588   5.079   0.858   6.286 -0.0685  0.5797 -0.1401
  158SAPE   O1217589   4.963   0.674   6.152 -0.2709 -0.3510 -0.7960
  158SAPE   O1117590   5.035   0.631   6.390 -0.5114  0.4270  0.6131
  158SAPE    C117591   4.931   0.680   6.480  0.7493  0.2569  0.0604
  158SAPE    HA17592   4.864   0.749   6.424  0.6832 -0.6957 -1.0509
  158SAPE    HB17593   4.874   0.598   6.528 -0.4646  1.1690  0.2293
  158SAPE    C217594   4.977   0.766   6.602  0.0381  0.9795 -0.3032
  158SAPE    HS17595   5.009   0.864   6.561  0.0076  1.2910  0.4020
  158SAPE   O2117596   5.083   0.690   6.668  0.4178  0.4774  0.1645
  158SAPE   C2117597   5.181   0.759   6.724 -0.6324 -0.2187 -0.4836
  158SAPE   O2217598   5.193   0.881   6.725 -0.1541 -0.0507  0.8784
  158SAPE   C2217599   5.286   0.659   6.794  0.0973  0.5401  0.5521
  158SAPE   H2R17600   5.223   0.574   6.828  0.6028 -0.4710 -0.9671
  158SAPE   H2S17601   5.348   0.614   6.714 -1.4354  0.1976 -0.4794
  158SAPE    C317602   4.854   0.793   6.696  0.7739 -0.4057 -0.2910
  158SAPE    HX17603   4.802   0.697   6.713 -1.0135  0.4843 -0.4810
  158SAPE    HY17604   4.787   0.857   6.634  2.1090  1.0818 -0.2696
  158SAPE   O3117605   4.889   0.864   6.817  0.5389  0.8029 -0.5547
  158SAPE   C3117606   4.921   0.991   6.804 -0.0644 -0.4103  0.2880
  158SAPE   O3217607   4.913   1.054   6.697  0.4689 -0.2821 -0.6122
  158SAPE   C3217608   4.982   1.051   6.925 -0.7655  0.0999 -0.4779
  158SAPE   H2X17609   4.967   1.161   6.919 -0.7662  0.1353  0.1407
  158SAPE   H2Y17610   5.092   1.033   6.921 -0.6034  0.8143  0.4218
  158SAPE   C2317611   5.361   0.719   6.910  0.5416 -0.7538 -0.7888
  158SAPE   H3R17612   5.425   0.804   6.877 -0.5058  0.3982  0.0546
  158SAPE   H3S17613   5.430   0.645   6.954 -1.8127 -2.2356  0.6403
  158SAPE   C2417614   5.263   0.773   7.018 -0.7035  0.3279  0.4890
  158SAPE   H4R17615   5.182   0.828   6.966  2.0632  1.5443 -2.8776
  158SAPE   H4S17616   5.313   0.850   7.080  1.6840 -0.7633  0.0256
  158SAPE   C2517617   5.201   0.665   7.093  0.2706 -0.4243  1.1689
  158SAPE   H5R17618   5.109   0.617   7.057  0.7026 -1.7963  1.8609
  158SAPE   C2617619   5.257   0.602   7.194  0.0634  0.3401  0.0914
  158SAPE   H6R17620   5.197   0.519   7.233  0.3979  0.1463  0.2024
  158SAPE   C2717621   5.390   0.623   7.264  0.5379 -0.3619  0.1330
  158SAPE   H7R17622   5.443   0.691   7.194 -0.0641 -1.1730 -1.1503
  158SAPE   H7S17623   5.451   0.530   7.272  1.6672  0.1277 -2.0566
  158SAPE   C2817624   5.392   0.696   7.397  0.5928 -0.1235  0.0986
  158SAPE   H8R17625   5.300   0.719   7.454  0.8963 -0.7652  0.8640
  158SAPE   C2917626   5.511   0.737   7.446  0.1182 -0.3395 -0.7934
  158SAPE   H9R17627   5.507   0.796   7.539  0.0049 -0.0990 -0.9501
  158SAPE  C21017628   5.651   0.718   7.382 -0.9531 -0.1523  0.1021
  158SAPE  H10R17629   5.643   0.700   7.273  0.5136  3.6231 -0.7952
  158SAPE  H10S17630   5.689   0.625   7.430 -0.1053  0.4913  0.7219
  158SAPE  C21117631   5.747   0.828   7.393 -0.4770 -0.4995 -0.4000
  158SAPE  H11R17632   5.766   0.894   7.307  2.3758 -0.9487 -0.2234
  158SAPE  C21217633   5.825   0.854   7.502  0.3554  0.0078  0.6784
  158SAPE  H12R17634   5.878   0.950   7.492 -0.6609  0.4201 -1.3654
  158SAPE  C21317635   5.819   0.768   7.631  0.1654  0.2130 -0.3391
  158SAPE  H13R17636   5.923   0.738   7.655 -0.4526 -0.0684  2.2706
  158SAPE  H13S17637   5.783   0.667   7.604  0.4912 -0.3508  1.2089
  158SAPE  C21417638   5.751   0.843   7.748 -0.1114  0.8059 -0.6418
  158SAPE  H14R17639   5.751   0.952   7.736  1.5455  0.9869  0.6206
  158SAPE  C21517640   5.692   0.795   7.861  0.3186  0.5609  0.1711
  158SAPE  H15R17641   5.644   0.857   7.938 -1.0807 -2.0982  1.5604
  158SAPE  C21617642   5.677   0.647   7.894 -0.5633  0.0161 -0.4537
  158SAPE  H16R17643   5.684   0.575   7.810 -3.5531 -2.8380  1.4775
  158SAPE  H16S17644   5.572   0.633   7.930 -0.2143 -1.9460 -0.0453
  158SAPE  C21717645   5.773   0.590   8.004 -0.6190  0.4701 -0.3241
  158SAPE  H17R17646   5.870   0.642   7.990  0.0205 -0.7994 -0.6528
  158SAPE  H17S17647   5.802   0.491   7.965 -3.0916 -0.9469  1.1599
  158SAPE  C21817648   5.714   0.590   8.146 -0.0962  0.2829 -0.5210
  158SAPE  H18R17649   5.641   0.506   8.138  0.6035 -0.2923 -0.9330
  158SAPE  H18S17650   5.657   0.683   8.167  0.4769  0.5478 -0.1500
  158SAPE  C21917651   5.809   0.564   8.256  0.7752  0.0727  0.0074
  158SAPE  H19R17652   5.905   0.618   8.240  1.4618 -0.8516  0.9235
  158SAPE  H19S17653   5.843   0.459   8.244 -2.3601 -1.0349  0.1305
  158SAPE  C22017654   5.752   0.581   8.395  0.4463 -0.3110 -0.2741
  158SAPE  H20R17655   5.665   0.512   8.405  0.4420 -0.6769 -2.2838
  158SAPE  H20S17656   5.717   0.686   8.402 -0.4051 -0.5555 -0.7927
  158SAPE  H20T17657   5.826   0.557   8.475  0.6804  2.1790  0.3463
  158SAPE   C3317658   4.914   1.001   7.061  1.0281 -0.1711  0.1425
  158SAPE   H3X17659   4.920   0.891   7.062 -2.3597 -0.5272 -2.0357
  158SAPE   H3Y17660   4.804   1.013   7.055  0.7377 -1.8026  1.5717
  158SAPE   C3417661   4.980   1.065   7.186 -0.5294  0.0146 -0.8111
  158SAPE   H4X17662   4.977   1.176   7.177 -2.3812  0.0485 -0.3154
  158SAPE   H4Y17663   5.088   1.042   7.199 -0.4849  1.1425  1.3580
  158SAPE   C3517664   4.905   1.020   7.312  0.1111  0.0646  0.5313
  158SAPE   H5X17665   4.897   0.910   7.320 -0.2330  0.0657  0.1989
  158SAPE   H5Y17666   4.806   1.066   7.290  0.4794  0.6018 -0.0432
  158SAPE   C3617667   4.979   1.070   7.439  0.2021 -0.1157 -0.1745
  158SAPE   H6X17668   5.013   1.173   7.419 -2.5052  0.9865  0.4389
  158SAPE   H6Y17669   5.073   1.017   7.466  0.0588 -0.7123 -0.8278
  158SAPE   C3717670   4.893   1.081   7.559 -0.0029  0.4052 -0.2456
  158SAPE   H7X17671   4.827   1.162   7.523  0.4097  0.0625 -1.8264
  158SAPE   H7Y17672   4.838   0.987   7.579  1.6058 -0.4942  0.1802
  158SAPE   C3817673   4.972   1.127   7.683  0.5694 -0.3020 -0.0835
  158SAPE   H8X17674   5.018   1.226   7.665  1.0719  0.1460  3.0744
  158SAPE   H8Y17675   5.053   1.051   7.694 -1.3061 -2.2935  0.5656
  158SAPE   C3917676   4.889   1.145   7.815 -0.0098  0.4446  0.0142
  158SAPE   H9X17677   4.843   1.047   7.842  2.3402 -0.6246  0.3769
  158SAPE   H9Y17678   4.803   1.207   7.783 -0.4899 -0.7956 -1.2425
  158SAPE  C31017679   4.969   1.215   7.926 -0.7466  0.2803 -0.3719
  158SAPE  H10X17680   4.989   1.317   7.887  0.6753 -0.0543 -0.5654
  158SAPE  H10Y17681   5.070   1.169   7.929 -0.3163  1.2133 -0.2035
  158SAPE  C31117682   4.918   1.207   8.070 -0.5110 -0.0191 -0.1158
  158SAPE  H11X17683   4.883   1.104   8.095 -1.4517  0.2893 -0.1296
  158SAPE  H11Y17684   4.830   1.274   8.075  0.3204  0.9975  1.8309
  158SAPE  C31217685   5.023   1.256   8.180  0.5189  1.6529 -0.4190
  158SAPE  H12X17686   5.066   1.355   8.156  1.6136  0.7715 -2.3274
  158SAPE  H12Y17687   5.103   1.180   8.193 -1.5099 -0.2439  1.8976
  158SAPE  C31317688   4.950   1.246   8.320  0.6726 -0.5556 -0.0960
  158SAPE  H13X17689   4.863   1.315   8.319 -0.9638 -2.5334  0.3241
  158SAPE  H13Y17690   5.012   1.289   8.401 -0.7217  0.2330  0.5901
  158SAPE  C31417691   4.906   1.102   8.361 -0.0765 -0.8345  1.0450
  158SAPE  H14X17692   4.980   1.020   8.354 -1.6845 -2.3158  0.6789
  158SAPE  H14Y17693   4.824   1.072   8.292  0.5800 -1.2090  0.4188
  158SAPE  C31517694   4.846   1.090   8.501 -0.0008 -0.2335 -0.1055
  158SAPE  H15X17695   4.845   0.982   8.528 -1.0076 -0.1889  0.0696
  158SAPE  H15Y17696   4.743   1.131   8.500  0.6640  1.4921 -0.4952
  158SAPE  C31617697   4.916   1.168   8.613  0.0742 -0.3410  0.5489
  158SAPE  H16X17698   4.895   1.275   8.593 -3.1394 -1.0373 -0.3398
  158SAPE  H16Y17699   5.025   1.148   8.622 -0.2768 -1.9767  1.8115
  158SAPE  C31717700   4.851   1.140   8.752  0.0576  0.1984  0.3293
  158SAPE  H17X17701   4.741   1.146   8.741 -0.1007 -3.6052 -2.1446
  158SAPE  H17Y17702   4.884   1.224   8.817 -0.3700  0.1455  0.6135
  158SAPE  C31817703   4.891   1.014   8.817 -0.3400  0.5704  0.1951
  158SAPE  H18X17704   4.997   1.025   8.847  0.3871  0.5539 -2.2451
  158SAPE  H18Y17705   4.908   0.939   8.738 -0.1072  1.9251 -1.0745
  158SAPE  H18Z17706   4.813   0.985   8.891 -1.0061  0.5021 -0.5245
  159SAPE     N17707   2.947   6.276   6.349  0.3753  0.1432 -0.7155
  159SAPE   HN117708   2.888   6.312   6.271 -0.8948  0.9672  0.5905
  159SAPE   HN217709   2.967   6.345   6.424 -0.4022 -0.2461 -0.1292
  159SAPE   HN317710   3.039   6.248   6.309  2.0095 -0.7655  3.2308
  159SAPE   C1217711   2.893   6.149   6.412 -0.9457  0.2637  0.7351
  159SAPE  H12A17712   2.785   6.171   6.425 -1.7122 -0.7951 -2.7006
  159SAPE  H12B17713   2.939   6.134   6.511  1.1677 -0.0864 -0.2513
  159SAPE   C1117714   2.911   6.027   6.323  0.3824 -0.6121  0.3932
  159SAPE  H11A17715   2.861   5.938   6.367  1.1253  0.2382  3.0907
  159SAPE  H11B17716   3.020   6.007   6.318  0.6507  0.7987  0.2958
  159SAPE     P17717   2.715   6.023   6.155  0.0452  0.0813  0.0956
  159SAPE   O1317718   2.652   6.138   6.086 -0.0718 -0.5410 -0.1384
  159SAPE   O1417719   2.719   5.889   6.094  0.3235  0.0378 -0.0584
  159SAPE   O1217720   2.864   6.061   6.191 -0.3231  0.1316  0.2356
  159SAPE   O1117721   2.650   6.002   6.297  0.0790  0.1159  0.3349
  159SAPE    C117722   2.509   5.992   6.307 -0.1774  0.3063 -0.2301
  159SAPE    HA17723   2.471   6.076   6.245 -0.0129  1.1932  0.8389
  159SAPE    HB17724   2.468   5.901   6.258 -1.2714  0.4592  0.3450
  159SAPE    C217725   2.469   6.005   6.456 -0.1402  0.5782  0.7457
  159SAPE    HS17726   2.360   6.027   6.454 -0.0131  1.2824  1.2860
  159SAPE   O2117727   2.553   6.110   6.524 -0.2431  0.0365  0.3153
  159SAPE   C2117728   2.493   6.173   6.614  0.3822 -0.4384  0.8233
  159SAPE   O2217729   2.387   6.154   6.671  0.1625  0.4046  0.5695
  159SAPE   C2217730   2.581   6.293   6.640  0.2517 -0.3843  0.2865
  159SAPE   H2R17731   2.687   6.261   6.635  0.0239 -0.9382 -1.5472
  159SAPE   H2S17732   2.568   6.370   6.561  0.0255 -0.9762 -0.2603
  159SAPE    C317733   2.495   5.869   6.528 -0.3490 -0.0390  0.1666
  159SAPE    HX17734   2.601   5.850   6.504 -0.2817  1.6509 -1.0375
  159SAPE    HY17735   2.423   5.798   6.481  0.7407 -0.8677 -0.2740
  159SAPE   O3117736   2.472   5.872   6.674 -0.2708  0.0407 -0.3257
  159SAPE   C3117737   2.350   5.861   6.723 -0.6768 -0.0638 -0.2583
  159SAPE   O3217738   2.258   5.827   6.655 -0.2435 -0.4262  0.2985
  159SAPE   C3217739   2.359   5.882   6.877 -0.1227 -0.1367 -0.2502
  159SAPE   H2X17740   2.369   5.990   6.902  0.9288 -0.6381  1.6689
  159SAPE   H2Y17741   2.453   5.834   6.910  0.5903 -0.6357 -2.7469
  159SAPE   C2317742   2.566   6.355   6.782  0.2793 -0.5897  0.2052
  159SAPE   H3R17743   2.564   6.283   6.867 -2.8469  2.8175  3.4319
  159SAPE   H3S17744   2.468   6.406   6.790  1.1456  1.0478  0.8296
  159SAPE   C2417745   2.666   6.464   6.808  0.1619 -0.4121 -0.3565
  159SAPE   H4R17746   2.650   6.531   6.721 -1.0749 -1.1001 -0.6860
  159SAPE   H4S17747   2.766   6.416   6.812 -0.3178 -1.4750 -0.8627
  159SAPE   C2517748   2.647   6.532   6.943  0.5309 -0.1420  1.5432
  159SAPE   H5R17749   2.541   6.540   6.970 -0.6811  2.2081 -2.9153
  159SAPE   C2617750   2.738   6.580   7.030 -0.3535  0.2046 -0.4202
  159SAPE   H6R17751   2.700   6.629   7.121  3.0329  0.8739  0.7703
  159SAPE   C2717752   2.889   6.579   7.007  0.5259  0.8951  0.0554
  159SAPE   H7R17753   2.935   6.680   7.002  2.6206 -0.0356 -0.7758
  159SAPE   H7S17754   2.908   6.532   6.908  0.0304 -0.1797  0.4530
  159SAPE   C2817755   2.954   6.508   7.118 -0.0831  0.5851 -0.5138
  159SAPE   H8R17756   2.969   6.402   7.096 -0.8522  0.6713 -1.5549
  159SAPE   C2917757   2.998   6.565   7.231  0.4382  0.4192 -0.6697
  159SAPE   H9R17758   3.046   6.506   7.310  1.1027  1.6089 -0.1564
  159SAPE  C21017759   2.992   6.714   7.262  0.2921 -0.7531 -0.4927
  159SAPE  H10R17760   2.945   6.721   7.362  0.1003 -0.9493 -0.5672
  159SAPE  H10S17761   2.931   6.775   7.192  0.7417  0.8414  0.4735
  159SAPE  C21117762   3.127   6.785   7.259  0.5713  0.4776  0.5656
  159SAPE  H11R17763   3.207   6.764   7.186  1.5260 -0.1111  1.7295
  159SAPE  C21217764   3.180   6.848   7.362 -0.3146 -0.2297  0.5758
  159SAPE  H12R17765   3.279   6.892   7.343  0.2823 -1.2579  1.1844
  159SAPE  C21317766   3.127   6.854   7.504  0.2078  0.3938 -0.2184
  159SAPE  H13R17767   3.198   6.794   7.565  1.9105  0.2858 -2.1484
  159SAPE  H13S17768   3.021   6.823   7.519 -0.0434  1.1631 -0.3990
  159SAPE  C21417769   3.121   6.993   7.551  0.3411 -0.0588 -0.2940
  159SAPE  H14R17770   3.091   7.062   7.472  0.1876 -0.5701 -0.6874
  159SAPE  C21517771   3.153   7.045   7.673  0.6801  0.6469 -0.8156
  159SAPE  H15R17772   3.170   7.153   7.680  1.5380  0.4402  0.8727
  159SAPE  C21617773   3.208   6.967   7.792 -0.0068 -0.0916 -0.6648
  159SAPE  H16R17774   3.300   7.018   7.828 -0.2276 -1.0041  1.3123
  159SAPE  H16S17775   3.236   6.862   7.771  1.8829 -0.4905  2.9811
  159SAPE  C21717776   3.118   6.961   7.919 -0.2319 -0.5604 -0.2396
  159SAPE  H17R17777   3.076   7.063   7.927 -2.3144 -1.2854 -1.2355
  159SAPE  H17S17778   3.184   6.945   8.007  0.7048  0.4973 -0.7149
  159SAPE  C21817779   3.003   6.859   7.913 -0.4071  0.5678 -0.0731
  159SAPE  H18R17780   3.039   6.755   7.920 -0.7767  0.4336 -0.1593
  159SAPE  H18S17781   2.955   6.874   7.814 -1.3489  0.8865  0.4173
  159SAPE  C21917782   2.892   6.894   8.014 -0.5068  0.2893  0.2719
  159SAPE  H19R17783   2.794   6.873   7.966 -2.1944  1.9500  2.7754
  159SAPE  H19S17784   2.885   7.001   8.042 -1.2519  0.0063  1.2231
  159SAPE  C22017785   2.890   6.810   8.144 -0.5061 -0.3316 -0.1625
  159SAPE  H20R17786   2.877   6.701   8.127 -3.2783 -0.5995  2.6796
  159SAPE  H20S17787   2.803   6.836   8.208 -1.0203 -2.8868  0.2858
  159SAPE  H20T17788   2.983   6.823   8.204 -0.5094 -1.0083 -0.0022
  159SAPE   C3317789   2.230   5.830   6.951  0.2172 -0.2066  0.1466
  159SAPE   H3X17790   2.213   5.725   6.921 -1.0651  0.4014 -1.4398
  159SAPE   H3Y17791   2.136   5.876   6.913 -0.0365 -0.9670 -0.1628
  159SAPE   C3417792   2.228   5.845   7.108 -0.5769 -0.7563  0.2637
  159SAPE   H4X17793   2.314   5.789   7.151  1.0563  0.3288 -1.4116
  159SAPE   H4Y17794   2.132   5.802   7.143 -0.4512 -0.4698  0.9700
  159SAPE   C3517795   2.259   5.988   7.160  0.2084  0.4143 -0.5334
  159SAPE   H5X17796   2.203   6.065   7.103  0.5024  0.4928 -0.7171
  159SAPE   H5Y17797   2.369   5.998   7.150  0.3095 -0.1969 -0.1284
  159SAPE   C3617798   2.237   6.007   7.312 -0.5871 -1.0955 -0.3755
  159SAPE   H6X17799   2.140   5.967   7.350  0.3234 -1.2556  1.9403
  159SAPE   H6Y17800   2.230   6.117   7.326 -1.4998 -1.1534 -0.2846
  159SAPE   C3717801   2.339   5.940   7.404  0.2265  0.4775  0.4179
  159SAPE   H7X17802   2.439   5.986   7.390  0.4075  0.6027  1.9327
  159SAPE   H7Y17803   2.351   5.832   7.378 -1.1414  0.0444  1.4456
  159SAPE   C3817804   2.304   5.974   7.550  0.3922 -0.2700  0.1724
  159SAPE   H8X17805   2.202   5.938   7.574  0.2638 -0.1441 -0.1833
  159SAPE   H8Y17806   2.304   6.083   7.568 -0.3802 -0.5706  2.2551
  159SAPE   C3917807   2.405   5.913   7.651 -0.1537 -0.0988 -0.3722
  159SAPE   H9X17808   2.436   5.807   7.635  0.4435  0.0629 -0.3028
  159SAPE   H9Y17809   2.359   5.921   7.752 -0.2160  2.2662 -0.5280
  159SAPE  C31017810   2.540   5.993   7.663  0.7930  0.1427  0.0672
  159SAPE  H10X17811   2.507   6.096   7.640  1.1059  0.3802  0.6474
  159SAPE  H10Y17812   2.615   5.968   7.586  0.0566 -1.1515 -0.2677
  159SAPE  C31117813   2.585   5.988   7.810 -0.1402 -0.5751 -0.0003
  159SAPE  H11X17814   2.618   5.883   7.824 -1.8702 -1.3677 -1.4923
  159SAPE  H11Y17815   2.495   6.008   7.871 -0.0489  2.3160 -0.6691
  159SAPE  C31217816   2.701   6.088   7.830  0.0818  0.3306  0.4249
  159SAPE  H12X17817   2.658   6.190   7.828  0.8858  0.6945  1.2905
  159SAPE  H12Y17818   2.764   6.063   7.742 -0.3414  0.9169 -0.0535
  159SAPE  C31317819   2.798   6.075   7.947  0.8724 -0.0709 -0.0834
  159SAPE  H13X17820   2.845   5.975   7.959  0.5918  0.0070  1.9705
  159SAPE  H13Y17821   2.735   6.084   8.038  0.6480  3.2120 -0.4482
  159SAPE  C31417822   2.897   6.186   7.954 -0.2868 -0.1195 -0.2406
  159SAPE  H14X17823   2.851   6.281   7.918  1.7264  1.1271  0.3123
  159SAPE  H14Y17824   2.986   6.169   7.890  0.8954  1.1617  0.9979
  159SAPE  C31517825   2.939   6.216   8.101  0.3622  0.3230  0.2715
  159SAPE  H15X17826   2.849   6.249   8.157  0.2675  2.2132 -0.9181
  159SAPE  H15Y17827   2.999   6.308   8.089 -2.3379  2.2837  0.7680
  159SAPE  C31617828   3.005   6.098   8.173 -0.4927 -0.2952  0.3339
  159SAPE  H16X17829   3.109   6.084   8.136  0.2319 -0.0765  2.2159
  159SAPE  H16Y17830   2.954   6.003   8.149  1.2760 -1.4404  0.9116
  159SAPE  C31717831   3.019   6.119   8.325  0.3653 -0.7244 -0.0082
  159SAPE  H17X17832   3.058   6.223   8.331  0.7781 -0.8639 -0.2153
  159SAPE  H17Y17833   3.095   6.057   8.378  2.9467  0.3290 -2.2164
  159SAPE  C31817834   2.889   6.121   8.407  0.4319 -0.1735  0.4894
  159SAPE  H18X17835   2.852   6.016   8.406  0.4360 -0.2141  2.0353
  159SAPE  H18Y17836   2.818   6.201   8.379  1.3133  0.5134  0.1785
  159SAPE  H18Z17837   2.917   6.150   8.511 -0.4642 -0.2833  0.7683
  160SAPE     N17838   3.973   2.751   6.285  0.5116 -0.2933  0.4437
  160SAPE   HN117839   3.934   2.657   6.264  1.6703 -1.7051  3.8805
  160SAPE   HN217840   3.955   2.810   6.201  1.1147 -0.7283 -0.0013
  160SAPE   HN317841   4.077   2.745   6.289  0.4466 -1.1015  1.1689
  160SAPE   C1217842   3.913   2.796   6.419  0.7350 -0.0611 -0.2514
  160SAPE  H12A17843   3.901   2.703   6.480 -0.1526  0.3563  0.2321
  160SAPE  H12B17844   3.813   2.839   6.399  0.3333 -1.0978 -0.5428
  160SAPE   C1117845   3.996   2.906   6.486  0.7708  0.5026  0.7377
  160SAPE  H11A17846   3.952   2.944   6.580 -0.3048 -0.5066  0.6658
  160SAPE  H11B17847   3.982   2.993   6.417  0.5077  0.5517  0.8560
  160SAPE     P17848   4.226   2.999   6.540 -0.2647  0.0662  0.0112
  160SAPE   O1317849   4.357   2.938   6.546  0.0731 -0.0947 -0.4047
  160SAPE   O1417850   4.206   3.112   6.441 -0.3471 -0.0224 -0.5128
  160SAPE   O1217851   4.139   2.881   6.500  0.0755  0.0639  0.3333
  160SAPE   O1117852   4.162   3.045   6.682 -0.1570  0.2885  0.3053
  160SAPE    C117853   4.139   2.940   6.774  0.6759 -0.4492  0.2503
  160SAPE    HA17854   4.083   2.852   6.734 -1.4773  1.1692 -0.5387
  160SAPE    HB17855   4.235   2.904   6.815  0.9969 -0.6675 -0.6658
  160SAPE    C217856   4.050   2.995   6.892  0.3002  0.1591  0.1878
  160SAPE    HS17857   4.028   2.914   6.965 -1.7237  0.9220  0.4894
  160SAPE   O2117858   3.926   3.044   6.828 -0.0856  0.0989 -0.3541
  160SAPE   C2117859   3.834   2.955   6.789  0.3369  0.7727 -0.5698
  160SAPE   O2217860   3.851   2.836   6.775 -0.2569 -0.2186 -0.3145
  160SAPE   C2217861   3.710   3.038   6.766  0.0750  0.1987  0.0530
  160SAPE   H2R17862   3.704   3.131   6.826 -1.7182  0.4653 -0.4901
  160SAPE   H2S17863   3.711   3.057   6.657 -1.1041  1.9560  0.3072
  160SAPE    C317864   4.120   3.115   6.954 -1.2442 -1.2034  0.1643
  160SAPE    HX17865   4.132   3.198   6.882 -2.6089 -1.2323 -0.1259
  160SAPE    HY17866   4.222   3.082   6.981 -0.5470 -0.4189 -1.3893
  160SAPE   O3117867   4.071   3.165   7.078  0.5036 -0.2826 -0.4532
  160SAPE   C3117868   3.996   3.268   7.085 -0.0368 -0.3168  0.6254
  160SAPE   O3217869   3.944   3.325   6.987 -0.4804 -0.3640  0.2389
  160SAPE   C3217870   3.964   3.315   7.233 -0.1461  1.1543  0.0996
  160SAPE   H2X17871   3.859   3.348   7.226 -0.8897 -0.7800  1.3548
  160SAPE   H2Y17872   4.023   3.405   7.264  1.4553  0.5548 -1.0696
  160SAPE   C2317873   3.584   2.955   6.806 -0.1466  0.5498 -0.4786
  160SAPE   H3R17874   3.576   2.945   6.917 -1.4449 -0.8927 -0.6727
  160SAPE   H3S17875   3.593   2.851   6.768 -1.6657  0.4163 -0.5551
  160SAPE   C2417876   3.463   3.008   6.736  0.8149 -0.1319  0.2056
  160SAPE   H4R17877   3.494   3.004   6.629 -1.4486 -0.1295 -0.4976
  160SAPE   H4S17878   3.452   3.111   6.776 -0.3304  0.0691 -0.5728
  160SAPE   C2517879   3.337   2.918   6.756  0.6060  0.2722 -0.3009
  160SAPE   H5R17880   3.349   2.816   6.717  2.4304  0.1591  0.4768
  160SAPE   C2617881   3.228   2.946   6.820 -0.3031 -0.2157 -0.6948
  160SAPE   H6R17882   3.148   2.871   6.832 -1.1198  0.4795 -1.6569
  160SAPE   C2717883   3.193   3.075   6.890 -0.0786  0.1158  0.3194
  160SAPE   H7R17884   3.244   3.155   6.833  0.1481 -0.5584 -0.4394
  160SAPE   H7S17885   3.234   3.077   6.993 -1.6649 -0.5251  1.0102
  160SAPE   C2817886   3.042   3.094   6.893  0.2366 -0.8868  0.5169
  160SAPE   H8R17887   2.987   3.105   6.799 -0.1023 -0.9217  0.7118
  160SAPE   C2917888   2.971   3.105   7.004  0.3195 -0.1441 -0.3571
  160SAPE   H9R17889   2.863   3.112   6.985  0.1343 -1.0789  0.2608
  160SAPE  C21017890   3.007   3.094   7.151 -0.2523 -0.4371 -0.1851
  160SAPE  H10R17891   3.044   3.194   7.182 -0.3846  0.2620 -2.1205
  160SAPE  H10S17892   3.104   3.041   7.156  1.2863  2.0455 -1.4697
  160SAPE  C21117893   2.909   3.048   7.258  0.1327 -0.3904  0.2483
  160SAPE  H11R17894   2.835   3.124   7.289  1.9728  1.7531 -0.3407
  160SAPE  C21217895   2.911   2.928   7.313 -0.0023  0.3532 -0.3746
  160SAPE  H12R17896   2.840   2.895   7.390  1.3287 -1.1708  0.2629
  160SAPE  C21317897   3.010   2.818   7.273 -0.2336  0.4073  0.1199
  160SAPE  H13R17898   3.006   2.797   7.164 -2.1753  1.7964 -0.1375
  160SAPE  H13S17899   2.965   2.727   7.319  0.5906 -0.8672 -1.4957
  160SAPE  C21417900   3.149   2.829   7.330 -0.1260 -0.1139 -0.7872
  160SAPE  H14R17901   3.150   2.829   7.440 -1.1082  2.2168 -0.7195
  160SAPE  C21517902   3.266   2.828   7.265  0.2225 -0.5033  0.5552
  160SAPE  H15R17903   3.354   2.827   7.331  0.9437  1.7456 -0.2899
  160SAPE  C21617904   3.293   2.804   7.120 -0.0136  0.2604  0.3179
  160SAPE  H16R17905   3.366   2.879   7.081 -1.8981  1.2241 -1.6290
  160SAPE  H16S17906   3.200   2.808   7.059  0.1293 -1.5530 -0.0662
  160SAPE  C21717907   3.347   2.662   7.082  0.9441 -0.7176  0.4804
  160SAPE  H17R17908   3.436   2.631   7.141  0.8578 -1.8108  0.0557
  160SAPE  H17S17909   3.381   2.675   6.977 -0.3116 -0.5187  0.0808
  160SAPE  C21817910   3.236   2.553   7.083 -0.6403 -0.8374 -0.1399
  160SAPE  H18R17911   3.142   2.597   7.044 -0.1518 -0.2530 -0.6687
  160SAPE  H18S17912   3.224   2.532   7.192  0.8325 -0.8711  0.0324
  160SAPE  C21917913   3.275   2.430   7.003  0.0039 -0.4994  0.2738
  160SAPE  H19R17914   3.368   2.387   7.045  0.3985  1.1563  1.2074
  160SAPE  H19S17915   3.295   2.458   6.897  0.6493  0.3398  0.6037
  160SAPE  C22017916   3.158   2.331   7.012  0.2892 -0.1239  0.0471
  160SAPE  H20R17917   3.152   2.268   7.104  1.0238 -0.1390  0.0844
  160SAPE  H20S17918   3.166   2.259   6.928 -0.1905 -0.2387  0.0947
  160SAPE  H20T17919   3.062   2.387   7.003  0.3029 -0.1772 -0.4465
  160SAPE   C3317920   3.978   3.199   7.338 -0.2122  1.0431  0.7162
  160SAPE   H3X17921   4.079   3.154   7.345 -0.3128  0.6742 -0.0913
  160SAPE   H3Y17922   3.923   3.109   7.302  0.7016  0.5792  0.4625
  160SAPE   C3417923   3.939   3.244   7.476 -0.0005 -0.2959 -0.5797
  160SAPE   H4X17924   3.830   3.240   7.496  0.0611  2.1705  0.6303
  160SAPE   H4Y17925   3.972   3.350   7.480 -1.4387  0.1411  0.1039
  160SAPE   C3517926   4.013   3.167   7.590 -0.2500 -0.2772 -0.2463
  160SAPE   H5X17927   4.120   3.160   7.562 -0.0841  1.2954 -0.0909
  160SAPE   H5Y17928   3.971   3.064   7.595  0.2905 -0.5771 -1.5611
  160SAPE   C3617929   4.002   3.259   7.714 -0.1856 -0.8247  0.0563
  160SAPE   H6X17930   3.897   3.279   7.741  0.0317  1.2634 -0.5168
  160SAPE   H6Y17931   4.059   3.352   7.694  1.6778 -1.7940  0.5730
  160SAPE   C3717932   4.069   3.191   7.837 -0.1900 -0.6849 -0.6368
  160SAPE   H7X17933   4.174   3.165   7.812 -0.3512 -1.0473 -0.9551
  160SAPE   H7Y17934   4.008   3.099   7.851 -0.7791 -0.5307 -2.0632
  160SAPE   C3817935   4.073   3.285   7.964 -0.9429 -0.8373  0.4731
  160SAPE   H8X17936   4.122   3.381   7.937  0.6152 -1.7327 -0.0371
  160SAPE   H8Y17937   4.143   3.231   8.032  4.0410  0.2589 -3.1507
  160SAPE   C3917938   3.938   3.304   8.026  0.2108  0.0062  0.2129
  160SAPE   H9X17939   3.881   3.209   8.029  0.6097 -0.2088  2.3876
  160SAPE   H9Y17940   3.868   3.365   7.964 -0.9786  0.8308  2.2583
  160SAPE  C31017941   3.945   3.375   8.164  0.1856 -0.6540  0.4501
  160SAPE  H10X17942   3.847   3.420   8.189 -0.2649 -2.2879  1.8114
  160SAPE  H10Y17943   4.005   3.468   8.154  1.2737 -1.3086  0.6839
  160SAPE  C31117944   3.997   3.284   8.274 -0.0281  0.3600  0.5009
  160SAPE  H11X17945   4.105   3.263   8.264 -0.3678 -2.2601  1.4986
  160SAPE  H11Y17946   3.944   3.188   8.260 -0.7266  0.9629 -1.2519
  160SAPE  C31217947   3.952   3.336   8.409  0.0534 -0.4401 -0.7197
  160SAPE  H12X17948   3.841   3.332   8.398 -0.3617  3.1305  0.8847
  160SAPE  H12Y17949   3.975   3.444   8.421  2.3464 -0.6128 -2.8517
  160SAPE  C31317950   3.991   3.246   8.528  0.3286 -0.0835 -0.4912
  160SAPE  H13X17951   3.977   3.308   8.619 -1.4734  2.6679 -2.4935
  160SAPE  H13Y17952   4.101   3.230   8.531  0.0663 -2.0382  0.4208
  160SAPE  C31417953   3.903   3.120   8.531 -0.6102 -0.1186  0.2975
  160SAPE  H14X17954   3.935   3.060   8.443  0.6302 -0.7301  1.1456
  160SAPE  H14Y17955   3.800   3.159   8.513  0.2948  1.6585 -1.4439
  160SAPE  C31517956   3.919   3.040   8.657 -0.2961  0.0325 -0.4644
  160SAPE  H15X17957   3.832   2.974   8.680 -0.2775  0.2427  0.2318
  160SAPE  H15Y17958   3.938   3.105   8.746  0.9483  0.9782 -1.3962
  160SAPE  C31617959   4.036   2.952   8.661 -0.2360 -0.2749  0.7532
  160SAPE  H16X17960   4.128   3.002   8.624  0.2901 -0.7609  1.3856
  160SAPE  H16Y17961   4.001   2.882   8.582 -1.6034 -0.8736  1.8468
  160SAPE  C31717962   4.057   2.870   8.783 -0.6769 -0.0929  0.3148
  160SAPE  H17X17963   3.957   2.844   8.824 -0.1966  1.7011  2.8691
  160SAPE  H17Y17964   4.101   2.930   8.866 -1.5944 -1.0853  1.5631
  160SAPE  C31817965   4.130   2.732   8.765  0.6036  0.3248 -0.2738
  160SAPE  H18X17966   4.230   2.742   8.717  0.6697 -0.6795 -0.3692
  160SAPE  H18Y17967   4.080   2.650   8.710 -1.8832  1.0870  0.7188
  160SAPE  H18Z17968   4.153   2.703   8.870  0.1772  2.0234  0.3147
  161SOPE     N17969   3.663   4.293  10.882 -0.0726  0.5185 -0.0958
  161SOPE   HN117970   3.604   4.295  10.968 -0.0045 -1.7333  0.0737
  161SOPE   HN217971   3.715   4.383  10.884 -1.3484  1.2617  1.1454
  161SOPE   HN317972   3.599   4.295  10.800  1.7174 -0.3911 -1.5782
  161SOPE   C1217973   3.750   4.170  10.879  0.4573 -0.2032 -0.1099
  161SOPE  H12A17974   3.697   4.074  10.893  0.3258 -0.2737 -1.0266
  161SOPE  H12B17975   3.824   4.173  10.962  0.7656  0.0445 -0.3929
  161SOPE   C1117976   3.829   4.168  10.745 -0.7582 -0.7424 -0.2110
  161SOPE  H11A17977   3.894   4.258  10.738 -2.3523  0.3835 -1.4264
  161SOPE  H11B17978   3.762   4.178  10.657  0.7858 -0.0028 -1.3445
  161SOPE     P17979   3.853   3.929  10.671 -0.0032  0.4242 -0.0717
  161SOPE   O1317980   3.743   3.863  10.751  0.2888  0.4404  0.2454
  161SOPE   O1417981   3.977   3.855  10.643  0.1087 -0.1339  0.0846
  161SOPE   O1217982   3.910   4.052  10.744  0.2734 -0.1515  0.0380
  161SOPE   O1117983   3.796   3.999  10.537  0.1453 -0.2201  0.1924
  161SOPE    C117984   3.665   3.971  10.500 -0.6526 -0.0167  0.3158
  161SOPE    HA17985   3.611   4.060  10.459 -2.8795 -1.0600  0.8492
  161SOPE    HB17986   3.604   3.944  10.588  1.0481 -2.4598  0.8226
  161SOPE    C217987   3.653   3.860  10.394  0.6294  1.4107 -0.0377
  161SOPE    HS17988   3.741   3.794  10.412  0.9129  0.2855 -4.5243
  161SOPE   O2117989   3.668   3.922  10.268  0.1289  0.1119 -0.1808
  161SOPE   C2117990   3.790   3.929  10.214 -0.2929 -0.0639  0.0616
  161SOPE   O2217991   3.895   3.877  10.253  0.1331  0.9760  0.5760
  161SOPE   C2217992   3.775   4.003  10.080 -0.1649 -0.9915  0.7108
  161SOPE   H2R17993   3.741   4.107  10.104  0.7782 -0.4904 -0.0748
  161SOPE   H2S17994   3.688   3.965  10.023 -0.5968  0.8049  0.0851
  161SOPE    C317995   3.519   3.788  10.408 -0.0053 -0.5967  0.3680
  161SOPE    HX17996   3.446   3.870  10.390 -0.4939 -0.9173  0.8568
  161SOPE    HY17997   3.514   3.760  10.515 -0.4880 -0.2023  0.4527
  161SOPE   O3117998   3.502   3.686  10.317 -0.3361  0.0472  0.2283
  161SOPE   C3117999   3.375   3.640  10.316  0.3196 -0.5682 -0.6563
  161SOPE   O3218000   3.292   3.684  10.392 -0.3816  0.2665  0.0391
  161SOPE   C3218001   3.345   3.550  10.197  0.6724 -0.4494  0.5579
  161SOPE   H2X18002   3.304   3.627  10.128  2.6017  0.0317 -0.0910
  161SOPE   H2Y18003   3.259   3.488  10.232 -1.0406  0.0931 -2.3791
  161SOPE   C2318004   3.899   3.995   9.993 -0.2872  0.1541 -0.3377
  161SOPE   H3R18005   3.988   4.011  10.058 -1.0200  0.4643  0.6085
  161SOPE   H3S18006   3.897   4.077   9.919 -0.4469 -0.7914 -1.4180
  161SOPE   C2418007   3.923   3.850   9.938 -0.4106  0.3830 -0.0993
  161SOPE   H4R18008   3.963   3.783  10.018 -0.8794 -3.9014 -3.1175
  161SOPE   H4S18009   3.824   3.804   9.919 -2.0049  2.4175  2.4888
  161SOPE   C2518010   4.010   3.838   9.814  0.0738  0.1402 -0.2934
  161SOPE   H5R18011   3.967   3.907   9.738 -1.7038  0.3359  0.8306
  161SOPE   H5S18012   4.116   3.841   9.846  0.5912  0.9228 -1.9627
  161SOPE   C2618013   3.984   3.701   9.747  0.1477 -0.5124 -0.4388
  161SOPE   H6R18014   3.999   3.615   9.816  2.6541 -1.4198 -2.0146
  161SOPE   H6S18015   3.879   3.703   9.710  0.4750  1.8404 -1.4062
  161SOPE   C2718016   4.073   3.676   9.621  0.6498 -0.4363  0.3145
  161SOPE   H7R18017   4.181   3.676   9.650  0.6337 -0.9414  0.3883
  161SOPE   H7S18018   4.048   3.572   9.590  1.1160 -0.3576 -0.3475
  161SOPE   C2818019   4.050   3.772   9.504 -0.0178 -0.0598  0.4978
  161SOPE   H8R18020   3.945   3.763   9.470 -0.2384 -0.8233  1.3724
  161SOPE   H8S18021   4.066   3.877   9.539  0.4257  0.3509 -0.8515
  161SOPE   C2918022   4.145   3.749   9.397  0.0264 -0.1518 -0.5546
  161SOPE   H9118023   4.233   3.815   9.392  0.2064 -0.2995  0.4972
  161SOPE  C21018024   4.126   3.664   9.294  0.1823 -0.1242  0.2472
  161SOPE  H10118025   4.204   3.660   9.218 -0.1061 -1.1292 -0.0129
  161SOPE  C21118026   4.007   3.564   9.269 -0.0742 -0.3325  0.0778
  161SOPE  H11R18027   3.913   3.616   9.299 -0.6381 -1.6158  0.6203
  161SOPE  H11S18028   4.042   3.481   9.334 -1.5605 -0.1483  1.1774
  161SOPE  C21218029   4.000   3.539   9.120 -0.4804 -0.0098  0.2785
  161SOPE  H12R18030   3.943   3.451   9.083  0.2306 -0.0476 -0.7547
  161SOPE  H12S18031   4.103   3.520   9.084  0.1004  0.2584  1.7258
  161SOPE  C21318032   3.943   3.659   9.042 -0.7677  0.9531 -0.2649
  161SOPE  H13R18033   3.964   3.656   8.933 -0.0812  3.0672 -0.2392
  161SOPE  H13S18034   3.997   3.752   9.070 -1.2068  2.0490 -2.7692
  161SOPE  C21418035   3.799   3.674   9.055 -0.1487 -0.1290 -0.2240
  161SOPE  H14R18036   3.784   3.776   9.015 -1.1140  0.5408  1.7273
  161SOPE  H14S18037   3.767   3.671   9.161 -1.6802 -2.6267 -0.6607
  161SOPE  C21518038   3.727   3.580   8.960  0.4220 -0.3204  0.2658
  161SOPE  H15R18039   3.714   3.481   9.009 -2.7125 -0.0057  0.3023
  161SOPE  H15S18040   3.785   3.566   8.867  0.1993 -1.3183  0.2651
  161SOPE  C21618041   3.588   3.640   8.933 -0.1071  0.2708  0.4240
  161SOPE  H16R18042   3.591   3.747   8.903 -0.4369  0.2698  0.3821
  161SOPE  H16S18043   3.528   3.645   9.027 -3.0394 -1.3285 -1.2201
  161SOPE  C21718044   3.508   3.561   8.829  0.1645 -0.0855  0.0193
  161SOPE  H17R18045   3.522   3.451   8.835 -0.5684 -0.1184  1.8002
  161SOPE  H17S18046   3.549   3.604   8.735 -1.5693 -0.2895 -0.8883
  161SOPE  C21818047   3.359   3.594   8.828  0.0572 -0.6862  0.0790
  161SOPE  H18R18048   3.297   3.547   8.749 -0.0002  1.3837 -1.1882
  161SOPE  H18S18049   3.345   3.705   8.826  4.2788  0.0032  0.1889
  161SOPE  H18T18050   3.316   3.572   8.928 -5.6780  0.9124 -1.6265
  161SOPE   C3318051   3.451   3.456  10.144 -0.3417 -0.5675  0.4319
  161SOPE   H3X18052   3.403   3.380  10.077 -0.0615 -2.0192  1.8075
  161SOPE   H3Y18053   3.491   3.400  10.231  0.3638  0.0976  0.5402
  161SOPE   C3418054   3.568   3.527  10.075 -0.5491  0.0225 -0.0251
  161SOPE   H4X18055   3.641   3.452  10.038  1.1991  1.7697 -0.2798
  161SOPE   H4Y18056   3.620   3.594  10.146 -0.7863 -1.1631  1.2995
  161SOPE   C3518057   3.526   3.622   9.960 -0.0644 -0.0550  0.0979
  161SOPE   H5X18058   3.620   3.663   9.917 -0.5422  2.0389  0.9463
  161SOPE   H5Y18059   3.455   3.698   9.999  0.7507  0.4235  0.6786
  161SOPE   C3618060   3.453   3.548   9.845 -0.6111  0.2972  0.4442
  161SOPE   H6X18061   3.352   3.511   9.873 -1.5020  2.5927  0.4784
  161SOPE   H6Y18062   3.508   3.455   9.822 -0.6856 -1.1943  5.1958
  161SOPE   C3718063   3.442   3.625   9.716 -0.0617 -0.2212 -0.1456
  161SOPE   H7X18064   3.544   3.663   9.695  0.8944 -1.3192  2.1993
  161SOPE   H7Y18065   3.370   3.709   9.724 -1.4707 -1.2317 -1.6003
  161SOPE   C3818066   3.399   3.543   9.597 -0.3877  0.3544 -0.2620
  161SOPE   H8X18067   3.467   3.459   9.570 -1.2811 -0.8687  1.0857
  161SOPE   H8Y18068   3.374   3.605   9.509  0.1541  1.6360  0.4648
  161SOPE   C3918069   3.268   3.466   9.620  0.2129 -0.1899  0.0603
  161SOPE   H9X18070   3.176   3.529   9.628 -0.6327 -1.1997 -1.1279
  161SOPE   H9Y18071   3.267   3.414   9.718 -2.3334  1.7613  1.2020
  161SOPE  C31018072   3.235   3.361   9.503 -0.0068 -0.0204  0.0376
  161SOPE  H10X18073   3.151   3.292   9.523  2.3495 -2.7965  1.1005
  161SOPE  H10Y18074   3.330   3.303   9.498  1.7285  2.7333 -2.6758
  161SOPE  C31118075   3.221   3.419   9.362 -0.4903 -0.2957 -0.5941
  161SOPE  H11X18076   3.310   3.482   9.339 -1.1933  0.8165 -0.3508
  161SOPE  H11Y18077   3.131   3.484   9.367 -0.1642  0.1610 -0.6242
  161SOPE  C31218078   3.194   3.321   9.241 -0.6191  0.8024 -0.9857
  161SOPE  H12X18079   3.109   3.268   9.288 -0.6208  1.5279 -0.1487
  161SOPE  H12Y18080   3.279   3.252   9.225 -1.0786 -0.3512  1.2060
  161SOPE  C31318081   3.146   3.381   9.109 -0.8210  0.2056  0.1244
  161SOPE  H13X18082   3.218   3.459   9.074 -0.7144 -0.6955 -1.7679
  161SOPE  H13Y18083   3.049   3.430   9.133  0.2617  1.3773  2.4963
  161SOPE  C31418084   3.118   3.272   9.006  0.3096 -0.4286  0.4898
  161SOPE  H14X18085   3.048   3.199   9.054 -2.5627  1.8324  0.0668
  161SOPE  H14Y18086   3.218   3.241   8.970  0.1373  0.2199 -0.6059
  161SOPE  C31518087   3.045   3.321   8.875 -0.3650  1.2843  0.0906
  161SOPE  H15X18088   3.112   3.405   8.846  0.1672  0.9941  0.4563
  161SOPE  H15Y18089   2.941   3.353   8.897 -0.4875  0.5934  0.5190
  161SOPE  C31618090   3.052   3.217   8.759 -0.7590  0.0117  0.1115
  161SOPE  H16X18091   2.997   3.124   8.785 -3.8931  1.6643 -0.2597
  161SOPE  H16Y18092   3.160   3.192   8.748 -0.5415 -0.9477  3.3496
  161SOPE  C31718093   3.003   3.268   8.623 -0.1363  0.2387 -0.3521
  161SOPE  H17X18094   3.018   3.377   8.606 -2.0241  0.6222  0.1846
  161SOPE  H17Y18095   2.892   3.261   8.620 -0.4656  3.1823  1.4534
  161SOPE  C31818096   3.062   3.189   8.510  0.1755  0.9217  0.4738
  161SOPE  H18X18097   3.011   3.206   8.413  1.7151  1.2437 -0.3023
  161SOPE  H18Y18098   3.060   3.079   8.529 -2.0201  0.4585 -1.8938
  161SOPE  H18Z18099   3.171   3.197   8.494  0.0288 -0.5542 -1.7400
  162SOPE     N18100   2.316   3.883  11.203 -0.1927  0.1143  0.1879
  162SOPE   HN118101   2.292   3.893  11.304  1.1527  1.2253  0.4286
  162SOPE   HN218102   2.318   3.782  11.179 -1.1473  0.0894  0.1726
  162SOPE   HN318103   2.412   3.922  11.194  1.3754 -3.4671 -0.0430
  162SOPE   C1218104   2.220   3.952  11.118  0.4465 -0.1587  0.8041
  162SOPE  H12A18105   2.191   4.046  11.169  0.1164 -0.3834  1.0357
  162SOPE  H12B18106   2.128   3.890  11.108 -0.4457  0.8159  2.5027
  162SOPE   C1118107   2.295   3.977  10.978  1.0378  0.1486  0.3326
  162SOPE  H11A18108   2.378   4.043  11.011 -1.0383  3.4115 -0.6032
  162SOPE  H11B18109   2.226   4.038  10.916 -0.3787 -1.3022  0.4258
  162SOPE     P18110   2.489   3.814  10.895 -0.4457 -0.0812 -0.5504
  162SOPE   O1318111   2.513   3.696  10.811 -0.4345 -0.1910  0.1852
  162SOPE   O1418112   2.546   3.822  11.037  0.8744  0.1497  0.4557
  162SOPE   O1218113   2.338   3.852  10.918 -0.0539  0.2772 -0.1557
  162SOPE   O1118114   2.540   3.936  10.818  0.6124  0.0147 -0.0137
  162SOPE    C118115   2.472   3.990  10.706  0.3409  0.4834  0.4694
  162SOPE    HA18116   2.441   4.093  10.733  0.8316  1.4333 -2.2461
  162SOPE    HB18117   2.373   3.940  10.693  0.9649 -1.6116  2.9081
  162SOPE    C218118   2.565   4.001  10.591  0.3548  0.7218 -0.5775
  162SOPE    HS18119   2.520   4.077  10.524 -0.5785  1.2169  0.5740
  162SOPE   O2118120   2.565   3.879  10.519 -0.1174 -0.1686  0.6399
  162SOPE   C2118121   2.467   3.863  10.430 -0.1062 -0.6675  0.1232
  162SOPE   O2218122   2.369   3.939  10.408  0.1003 -0.0502  0.3894
  162SOPE   C2218123   2.489   3.721  10.359 -0.0313 -0.3563 -0.1869
  162SOPE   H2R18124   2.420   3.655  10.416  1.3695 -2.7432 -1.1214
  162SOPE   H2S18125   2.597   3.700  10.377  0.1171  1.4272  1.2898
  162SOPE    C318126   2.709   4.044  10.623 -0.1224 -0.3872 -0.2519
  162SOPE    HX18127   2.756   3.971  10.692  0.2843  0.8846  0.8465
  162SOPE    HY18128   2.707   4.140  10.678  0.0887  0.8204 -2.2490
  162SOPE   O3118129   2.800   4.066  10.508  0.6560 -0.0665  0.0358
  162SOPE   C3118130   2.855   3.957  10.457  0.1047  0.0505  0.0847
  162SOPE   O3218131   2.826   3.846  10.495 -0.0148  0.2460 -0.7617
  162SOPE   C3218132   2.936   3.991  10.339 -0.7462 -0.3136  0.7643
  162SOPE   H2X18133   3.021   4.053  10.374 -0.1615 -1.0179  0.6069
  162SOPE   H2Y18134   2.891   4.071  10.276  1.5953 -0.5041 -1.3086
  162SOPE   C2318135   2.459   3.732  10.209  0.0467 -0.6574  0.3528
  162SOPE   H3R18136   2.358   3.776  10.196 -0.2262 -0.7958  1.8378
  162SOPE   H3S18137   2.468   3.631  10.164  0.0751 -0.8995  0.8904
  162SOPE   C2418138   2.548   3.825  10.130 -0.6607  0.1116 -0.2712
  162SOPE   H4R18139   2.574   3.918  10.186 -1.7178  0.2537  0.0091
  162SOPE   H4S18140   2.647   3.779  10.107  0.7246  1.8675  1.7078
  162SOPE   C2518141   2.478   3.876  10.007 -0.0786 -0.0675 -0.1156
  162SOPE   H5R18142   2.424   3.787   9.966  0.2750 -0.6183  0.5850
  162SOPE   H5S18143   2.397   3.950  10.024 -0.4568  0.0448 -2.0972
  162SOPE   C2618144   2.575   3.917   9.900 -0.2023 -0.0421  0.0284
  162SOPE   H6R18145   2.604   4.022   9.922 -0.0525  0.2119 -1.2803
  162SOPE   H6S18146   2.670   3.859   9.898  1.2812  2.1549  1.3910
  162SOPE   C2718147   2.512   3.898   9.755 -0.1134  0.6602  0.4127
  162SOPE   H7R18148   2.485   3.791   9.745 -0.0676  0.6552  0.3408
  162SOPE   H7S18149   2.422   3.962   9.754  0.4302  1.4465  0.4310
  162SOPE   C2818150   2.606   3.919   9.638 -0.2977 -0.3403  0.1904
  162SOPE   H8R18151   2.699   3.858   9.644 -1.4957 -2.4873 -1.4152
  162SOPE   H8S18152   2.552   3.881   9.549  1.1466 -0.0813 -0.8269
  162SOPE   C2918153   2.638   4.060   9.623  0.8575 -0.6450 -0.5115
  162SOPE   H9118154   2.613   4.124   9.709  0.0299 -1.0162 -0.4645
  162SOPE  C21018155   2.697   4.107   9.515 -0.5844  0.2153  0.3829
  162SOPE  H10118156   2.724   4.213   9.518 -0.6883  0.2712 -0.5053
  162SOPE  C21118157   2.744   4.035   9.390  0.0993  0.3415  0.6045
  162SOPE  H11R18158   2.777   3.931   9.410  0.5936  0.3443 -0.1723
  162SOPE  H11S18159   2.833   4.081   9.343  0.1438  1.1370  1.4324
  162SOPE  C21218160   2.634   4.035   9.283 -0.0392 -0.1028 -0.1227
  162SOPE  H12R18161   2.623   4.132   9.231  0.0293  0.4801  0.9221
  162SOPE  H12S18162   2.539   4.006   9.332  0.4377 -2.1942 -0.3280
  162SOPE  C21318163   2.657   3.930   9.171 -0.4543 -0.1615  0.1007
  162SOPE  H13R18164   2.701   3.841   9.220  1.0611  1.5228  1.9944
  162SOPE  H13S18165   2.731   3.964   9.096 -0.6247  0.2598  0.1208
  162SOPE  C21418166   2.526   3.909   9.089 -0.2655 -0.9762 -0.6005
  162SOPE  H14R18167   2.549   3.881   8.984  1.8655  1.0149 -0.7287
  162SOPE  H14S18168   2.474   4.007   9.087 -0.1383 -0.8671  0.7129
  162SOPE  C21518169   2.431   3.810   9.150 -0.1412  0.2640  0.0648
  162SOPE  H15R18170   2.333   3.823   9.100 -1.1776  0.3379  2.0623
  162SOPE  H15S18171   2.418   3.829   9.258 -1.8515  1.5688 -0.3265
  162SOPE  C21618172   2.468   3.661   9.121 -0.3075 -0.4153  0.2025
  162SOPE  H16R18173   2.569   3.643   9.165  0.6642 -0.4699 -1.9089
  162SOPE  H16S18174   2.471   3.655   9.010  1.3075 -0.8355  0.2379
  162SOPE  C21718175   2.359   3.571   9.188 -0.4761 -0.5907 -0.5858
  162SOPE  H17R18176   2.346   3.607   9.293 -0.4863  0.7683 -1.0397
  162SOPE  H17S18177   2.383   3.463   9.190  2.9632  0.0562  1.1449
  162SOPE  C21818178   2.226   3.591   9.112 -0.1753  0.5249 -0.0857
  162SOPE  H18R18179   2.251   3.575   9.005 -1.3506  1.4512 -0.5079
  162SOPE  H18S18180   2.187   3.690   9.144  0.5099  0.1034  2.2494
  162SOPE  H18T18181   2.170   3.506   9.156  0.6354 -0.2132 -0.4498
  162SOPE   C3318182   2.991   3.874  10.258 -0.4232  0.6332 -0.5677
  162SOPE   H3X18183   2.910   3.832  10.196 -0.9758  0.1826  0.4323
  162SOPE   H3Y18184   3.008   3.794  10.333  0.2411  0.1099 -1.2549
  162SOPE   C3418185   3.111   3.908  10.171 -0.4500  0.3801 -0.2879
  162SOPE   H4X18186   3.201   3.853  10.205 -0.1025  1.1743  0.1008
  162SOPE   H4Y18187   3.137   4.016  10.172  1.9069 -0.1361  0.7314
  162SOPE   C3518188   3.085   3.885  10.017 -0.1802  0.1640  0.7318
  162SOPE   H5X18189   3.026   3.793   9.996 -0.8915  0.6639  0.4924
  162SOPE   H5Y18190   3.179   3.867   9.962 -1.0587 -1.8892 -0.2015
  162SOPE   C3618191   3.013   4.007   9.952  0.7883 -0.2227  0.1662
  162SOPE   H6X18192   3.077   4.093   9.982  1.3395  0.5255 -2.7835
  162SOPE   H6Y18193   2.915   4.021  10.002  0.8708  2.6131 -0.3235
  162SOPE   C3718194   2.991   4.006   9.800  0.2297  0.6428  0.1614
  162SOPE   H7X18195   2.941   4.099   9.766 -0.8613  0.4117  1.0689
  162SOPE   H7Y18196   2.930   3.916   9.776  0.9541  0.3653 -0.6708
  162SOPE   C3818197   3.111   3.982   9.716  0.1846  0.4496 -0.6555
  162SOPE   H8X18198   3.172   3.895   9.749 -1.5349 -0.3433  0.5468
  162SOPE   H8Y18199   3.178   4.069   9.696  0.7510  0.2955  0.4755
  162SOPE   C3918200   3.080   3.942   9.567  0.2805 -0.1107  0.3383
  162SOPE   H9X18201   3.010   4.020   9.529 -0.3850 -0.5499  0.6380
  162SOPE   H9Y18202   3.023   3.847   9.564  1.8303 -1.0673 -0.1936
  162SOPE  C31018203   3.201   3.930   9.478 -0.1045  0.1068 -0.0806
  162SOPE  H10X18204   3.290   3.911   9.542 -0.2911  0.2626  0.2244
  162SOPE  H10Y18205   3.210   4.029   9.428 -4.1800  0.7465  0.1643
  162SOPE  C31118206   3.187   3.824   9.364 -0.7090  0.2446  0.0789
  162SOPE  H11X18207   3.194   3.723   9.409 -3.0115 -0.5570 -1.2037
  162SOPE  H11Y18208   3.267   3.843   9.289 -1.2390  1.7586 -0.1411
  162SOPE  C31218209   3.053   3.813   9.293 -0.6421  0.5321  0.9024
  162SOPE  H12X18210   3.030   3.918   9.265  1.1502  0.0777 -2.7978
  162SOPE  H12Y18211   2.986   3.756   9.361  0.4709 -0.0687  1.5257
  162SOPE  C31318212   3.067   3.743   9.159 -0.0015  0.3585 -0.4996
  162SOPE  H13X18213   3.080   3.633   9.171  0.2337  0.3826 -0.5317
  162SOPE  H13Y18214   3.148   3.785   9.096  0.0109  0.4526 -0.4205
  162SOPE  C31418215   2.945   3.759   9.066  0.1056  0.0023  0.5748
  162SOPE  H14X18216   2.929   3.869   9.062  1.4154  0.2254  1.0115
  162SOPE  H14Y18217   2.851   3.712   9.101 -0.3239 -0.9541 -1.6288
  162SOPE  C31518218   2.958   3.714   8.916 -0.4656  0.4053 -0.4833
  162SOPE  H15X18219   3.022   3.623   8.923  0.0282  0.7757 -0.1398
  162SOPE  H15Y18220   3.014   3.797   8.868  0.4417 -0.0414 -0.2224
  162SOPE  C31618221   2.828   3.690   8.853 -0.3304  0.1166 -0.3673
  162SOPE  H16X18222   2.772   3.785   8.863 -1.0716 -0.4310  0.9240
  162SOPE  H16Y18223   2.776   3.614   8.915  0.3791 -1.6363 -1.8140
  162SOPE  C31718224   2.821   3.642   8.711 -0.6134  0.1127 -0.3150
  162SOPE  H17X18225   2.866   3.541   8.713  0.4404  0.5719  0.0346
  162SOPE  H17Y18226   2.869   3.717   8.644 -2.7048  1.6442 -0.2044
  162SOPE  C31818227   2.676   3.626   8.672 -0.3913 -0.1815  0.5973
  162SOPE  H18X18228   2.678   3.569   8.577 -2.5225 -0.7062  0.8192
  162SOPE  H18Y18229   2.621   3.722   8.656  0.3483  0.2171  0.3862
  162SOPE  H18Z18230   2.633   3.572   8.759  2.8606 -0.8931  1.9034
  163SOPE     N18231   1.895   1.696  10.718 -0.3921 -0.1079 -0.2758
  163SOPE   HN118232   1.902   1.658  10.622  0.0382  0.1809 -0.3577
  163SOPE   HN218233   1.977   1.676  10.779 -0.9540 -1.7752  0.0008
  163SOPE   HN318234   1.816   1.648  10.766 -1.7974 -0.6013 -2.8970
  163SOPE   C1218235   1.851   1.843  10.713 -0.7523 -0.7383 -0.1450
  163SOPE  H12A18236   1.838   1.882  10.816  0.4414  1.7146 -0.8432
  163SOPE  H12B18237   1.766   1.862  10.644 -0.6169  1.7130  0.2529
  163SOPE   C1118238   1.955   1.941  10.660  0.2540  0.2971 -0.6007
  163SOPE  H11A18239   1.913   2.044  10.670  0.0804  0.1798 -0.0861
  163SOPE  H11B18240   1.994   1.931  10.556  0.6292  1.9232 -0.6433
  163SOPE     P18241   2.180   2.046  10.738 -0.0988  0.1499  0.4400
  163SOPE   O1318242   2.299   2.002  10.808 -0.3251  0.7933 -0.1260
  163SOPE   O1418243   2.120   2.173  10.771 -0.0821  0.6059 -0.1613
  163SOPE   O1218244   2.059   1.936  10.752  0.0561  0.0306 -0.8139
  163SOPE   O1118245   2.209   2.032  10.586 -0.0721 -0.2734  0.3413
  163SOPE    C118246   2.298   2.115  10.516  0.0572 -0.4039  0.3422
  163SOPE    HA18247   2.357   2.067  10.436  2.0995  1.2118  0.7730
  163SOPE    HB18248   2.370   2.156  10.591 -0.7702  1.1337  0.3428
  163SOPE    C218249   2.220   2.240  10.461  0.7891  0.0074 -0.1798
  163SOPE    HS18250   2.159   2.276  10.546  0.4736 -1.5598  0.2941
  163SOPE   O2118251   2.125   2.205  10.358 -0.0944  0.1228  0.5111
  163SOPE   C2118252   1.996   2.205  10.393  0.2372 -0.1877 -0.3065
  163SOPE   O2218253   1.951   2.230  10.501  0.4042 -0.3243  0.2692
  163SOPE   C2218254   1.920   2.193  10.266 -0.0425 -0.3610 -0.2042
  163SOPE   H2R18255   1.980   2.133  10.195 -0.9895 -1.0373 -0.4531
  163SOPE   H2S18256   1.916   2.294  10.221  3.3668 -0.7349 -1.6812
  163SOPE    C318257   2.307   2.354  10.417 -0.9688 -0.7567  0.0987
  163SOPE    HX18258   2.363   2.387  10.507 -3.0866 -0.6472  1.4448
  163SOPE    HY18259   2.253   2.444  10.383 -0.4755 -1.0404 -1.5109
  163SOPE   O3118260   2.379   2.298  10.307 -0.2457 -0.2520  0.6139
  163SOPE   C3118261   2.515   2.319  10.300  0.2230 -1.3294 -0.9580
  163SOPE   O3218262   2.578   2.370  10.393 -0.2533  1.0948  0.0575
  163SOPE   C3218263   2.572   2.275  10.164  0.3232 -0.6827  0.5562
  163SOPE   H2X18264   2.490   2.262  10.091  1.3281 -0.1320 -0.7150
  163SOPE   H2Y18265   2.622   2.179  10.190 -1.4071 -1.4087  1.3229
  163SOPE   C2318266   1.781   2.132  10.306  0.5847 -0.8999 -0.6217
  163SOPE   H3R18267   1.725   2.215  10.355  2.0747  0.2191 -0.7122
  163SOPE   H3S18268   1.796   2.046  10.375 -1.5491 -3.9151 -3.6084
  163SOPE   C2418269   1.706   2.100  10.177 -0.7896 -0.9961  0.0436
  163SOPE   H4R18270   1.599   2.097  10.204 -0.6152  1.2761  1.2666
  163SOPE   H4S18271   1.716   2.177  10.097  1.8099 -2.2959 -1.0137
  163SOPE   C2518272   1.762   1.977  10.107  0.1780 -0.0156 -0.6290
  163SOPE   H5R18273   1.873   1.977  10.105  0.3276 -1.4737  2.2492
  163SOPE   H5S18274   1.745   1.896  10.181 -0.9937  0.2392 -0.6033
  163SOPE   C2618275   1.714   1.944   9.964 -0.7030  0.5362  0.8127
  163SOPE   H6R18276   1.755   1.850   9.923  0.1979  0.5808  1.5874
  163SOPE   H6S18277   1.603   1.934   9.968 -0.7707  0.9221  0.0389
  163SOPE   C2718278   1.759   2.052   9.858 -0.5741  0.0398 -0.1994
  163SOPE   H7R18279   1.717   2.153   9.877  0.1311  0.2196  0.4339
  163SOPE   H7S18280   1.868   2.068   9.858 -0.7664  1.5536 -1.4794
  163SOPE   C2818281   1.718   2.007   9.714 -0.3168 -0.4518 -0.5486
  163SOPE   H8R18282   1.782   2.063   9.642 -2.0693  3.0914  0.4262
  163SOPE   H8S18283   1.724   1.896   9.714 -0.1183 -0.4621 -1.7240
  163SOPE   C2918284   1.575   2.042   9.692  0.5674 -0.0990  1.0789
  163SOPE   H9118285   1.514   2.041   9.784  1.8153 -0.7275  1.9256
  163SOPE  C21018286   1.518   2.074   9.575 -0.1348 -0.5241 -0.5288
  163SOPE  H10118287   1.414   2.106   9.591  0.2297 -0.6058  2.7142
  163SOPE  C21118288   1.585   2.094   9.444  0.6868 -0.6822  0.4641
  163SOPE  H11R18289   1.695   2.102   9.452  0.5168  1.3682  1.2508
  163SOPE  H11S18290   1.557   2.191   9.398  0.8359 -0.3947  0.9677
  163SOPE  C21218291   1.557   1.971   9.361  0.0745  0.8718 -0.6691
  163SOPE  H12R18292   1.447   1.968   9.343  0.0055  1.3059 -0.3443
  163SOPE  H12S18293   1.591   1.881   9.417 -0.3778  0.5440 -0.9093
  163SOPE  C21318294   1.628   1.971   9.224 -0.0967  0.1522 -0.0954
  163SOPE  H13R18295   1.737   1.982   9.238  0.1612 -1.2254 -0.8396
  163SOPE  H13S18296   1.589   2.065   9.179 -0.1530  0.1456 -0.0606
  163SOPE  C21418297   1.595   1.843   9.150 -0.2076 -0.0721 -0.0117
  163SOPE  H14R18298   1.484   1.831   9.145 -0.7655  3.7641  0.3155
  163SOPE  H14S18299   1.642   1.754   9.197  0.9113 -1.0900 -2.8682
  163SOPE  C21518300   1.640   1.846   9.000 -0.1004  0.6229 -0.8025
  163SOPE  H15R18301   1.748   1.821   9.004 -0.2524  0.1080  0.9604
  163SOPE  H15S18302   1.627   1.953   8.973  1.6779  0.8867 -0.7414
  163SOPE  C21618303   1.563   1.756   8.897 -0.0514  0.2559  0.2681
  163SOPE  H16R18304   1.465   1.799   8.866  0.3175 -0.9041 -2.8986
  163SOPE  H16S18305   1.542   1.659   8.946 -0.5606  0.2339  0.0139
  163SOPE  C21718306   1.634   1.731   8.762 -0.5295 -0.1229  0.7240
  163SOPE  H17R18307   1.593   1.649   8.699  2.4578  0.1378 -1.8569
  163SOPE  H17S18308   1.737   1.703   8.793 -1.0729  1.2417  4.1270
  163SOPE  C21818309   1.639   1.861   8.680  0.4280 -0.2266  0.9795
  163SOPE  H18R18310   1.662   1.836   8.574 -2.3245  1.2511 -0.0640
  163SOPE  H18S18311   1.723   1.923   8.716 -0.9620  0.5408  3.0968
  163SOPE  H18T18312   1.546   1.921   8.693  0.5275 -0.5058  3.3012
  163SOPE   C3318313   2.679   2.368  10.110 -0.2721 -0.0614 -0.6074
  163SOPE   H3X18314   2.730   2.421  10.193 -0.5688 -1.3033  0.3868
  163SOPE   H3Y18315   2.629   2.441  10.042  0.2786  0.3514 -0.5736
  163SOPE   C3418316   2.791   2.290  10.032  0.1196  0.2404  0.1632
  163SOPE   H4X18317   2.840   2.217  10.100 -0.9107 -1.4243 -0.8146
  163SOPE   H4Y18318   2.863   2.373  10.016 -0.1444  0.3746 -0.3589
  163SOPE   C3518319   2.739   2.227   9.904 -0.1776  0.7289  0.4942
  163SOPE   H5X18320   2.668   2.142   9.908 -0.3867  0.6069 -3.0320
  163SOPE   H5Y18321   2.827   2.181   9.856 -0.6740  0.5632 -0.2779
  163SOPE   C3618322   2.669   2.322   9.805  0.1225  0.1711  0.2223
  163SOPE   H6X18323   2.732   2.414   9.795  0.2007 -0.0168 -1.2802
  163SOPE   H6Y18324   2.567   2.357   9.830 -0.5149 -0.5208 -1.2894
  163SOPE   C3718325   2.650   2.272   9.664 -0.9151  0.2843 -0.3962
  163SOPE   H7X18326   2.554   2.219   9.644 -1.4721  0.9626  0.4451
  163SOPE   H7Y18327   2.738   2.205   9.652 -1.5249 -0.6256  0.0941
  163SOPE   C3818328   2.654   2.385   9.562  0.1618 -0.0013 -0.0370
  163SOPE   H8X18329   2.744   2.448   9.577  1.5188 -1.6434 -0.9285
  163SOPE   H8Y18330   2.567   2.453   9.574  0.9893  1.4889 -1.8811
  163SOPE   C3918331   2.669   2.347   9.416  0.2893  0.0494 -0.4954
  163SOPE   H9X18332   2.744   2.266   9.410 -0.2063 -0.5584  0.9952
  163SOPE   H9Y18333   2.706   2.439   9.367  0.1939 -0.3618 -1.3440
  163SOPE  C31018334   2.538   2.283   9.352  0.3203  0.3726 -0.4873
  163SOPE  H10X18335   2.450   2.341   9.388 -0.3216 -0.4738 -0.6695
  163SOPE  H10Y18336   2.536   2.177   9.384  1.1030  0.2893 -0.6862
  163SOPE  C31118337   2.546   2.280   9.199  0.4020 -0.0216 -0.3356
  163SOPE  H11X18338   2.521   2.177   9.168  1.9368 -0.7796  0.8011
  163SOPE  H11Y18339   2.656   2.293   9.189  0.3929 -0.5140 -1.2518
  163SOPE  C31218340   2.450   2.382   9.126 -0.5105  0.3544  0.0999
  163SOPE  H12X18341   2.468   2.478   9.180 -2.5976 -0.6089  2.6855
  163SOPE  H12Y18342   2.346   2.353   9.148 -0.2264 -0.7732  0.0171
  163SOPE  C31318343   2.488   2.387   8.980  0.4434  0.3136 -0.4382
  163SOPE  H13X18344   2.480   2.285   8.937  3.7110  0.6965 -2.3028
  163SOPE  H13Y18345   2.597   2.404   8.979  0.7223 -1.1919  0.9436
  163SOPE  C31418346   2.403   2.482   8.896 -0.1856 -0.5861  0.2792
  163SOPE  H14X18347   2.444   2.580   8.931 -0.2416 -0.3923 -0.1954
  163SOPE  H14Y18348   2.294   2.476   8.916  0.1222 -1.5382  1.8319
  163SOPE  C31518349   2.430   2.480   8.744  0.2635  0.0497 -0.0320
  163SOPE  H15X18350   2.362   2.414   8.687  0.3660 -0.7041  0.7027
  163SOPE  H15Y18351   2.532   2.443   8.717 -0.0205 -0.7800  0.0111
  163SOPE  C31618352   2.421   2.624   8.680  0.5303  0.5311  0.9332
  163SOPE  H16X18353   2.457   2.606   8.577  0.4420 -1.8265  1.2589
  163SOPE  H16Y18354   2.478   2.691   8.748 -1.2280 -0.3138  3.4278
  163SOPE  C31718355   2.275   2.661   8.660  0.5797 -0.0739  0.2037
  163SOPE  H17X18356   2.222   2.645   8.756  0.6055  0.3796  0.2978
  163SOPE  H17Y18357   2.226   2.592   8.588  1.6493 -1.5475  0.8588
  163SOPE  C31818358   2.242   2.805   8.611  0.2692 -0.4394  0.4253
  163SOPE  H18X18359   2.279   2.819   8.508 -0.9821 -2.2673 -0.3239
  163SOPE  H18Y18360   2.275   2.884   8.682 -0.7296 -0.3064  0.7668
  163SOPE  H18Z18361   2.131   2.809   8.607  0.2468 -1.5939 -0.6802
  164SOPE     N18362   5.415   1.547  10.817 -0.1545 -0.0445  0.1087
  164SOPE   HN118363   5.408   1.604  10.903 -1.9410 -0.6289  0.4085
  164SOPE   HN218364   5.319   1.506  10.813  0.0347 -0.9486  2.9576
  164SOPE   HN318365   5.482   1.469  10.834 -4.0178 -4.0884 -1.1258
  164SOPE   C1218366   5.448   1.623  10.694 -0.4199 -0.1773  1.0363
  164SOPE  H12A18367   5.420   1.730  10.702  0.7969  0.0609  2.6028
  164SOPE  H12B18368   5.390   1.569  10.616 -0.9361  3.2148 -1.1629
  164SOPE   C1118369   5.597   1.607  10.659  0.0233  0.4594 -0.4740
  164SOPE  H11A18370   5.611   1.641  10.555 -0.7497 -2.0208 -1.4473
  164SOPE  H11B18371   5.635   1.503  10.662  0.0672  0.4916  1.0376
  164SOPE     P18372   5.819   1.679  10.769 -0.2199  0.0474 -0.6914
  164SOPE   O1318373   5.841   1.581  10.872 -0.1618  0.4191  0.4447
  164SOPE   O1418374   5.879   1.811  10.796 -0.3396  1.0024  0.3455
  164SOPE   O1218375   5.660   1.688  10.749 -0.6789 -0.1395  0.0881
  164SOPE   O1118376   5.878   1.617  10.639  0.3189  0.0813 -0.3463
  164SOPE    C118377   6.018   1.623  10.623  0.3145  0.2553  0.2968
  164SOPE    HA18378   6.070   1.543  10.680  0.5078 -1.5219 -2.1901
  164SOPE    HB18379   6.064   1.722  10.647  1.4587  0.8433 -3.5402
  164SOPE    C218380   6.051   1.594  10.477 -0.2244 -0.2339  0.3088
  164SOPE    HS18381   6.030   1.682  10.412  2.7917 -0.6223 -1.3465
  164SOPE   O2118382   5.985   1.478  10.440  0.4831  0.2296 -0.6048
  164SOPE   C2118383   5.950   1.460  10.313  0.7581 -0.1392 -0.3602
  164SOPE   O2218384   5.968   1.541  10.226 -0.2993 -0.3358 -0.1313
  164SOPE   C2218385   5.870   1.329  10.286  0.8170  0.2372 -0.1363
  164SOPE   H2R18386   5.763   1.357  10.284  1.2812  2.1003 -1.5212
  164SOPE   H2S18387   5.888   1.259  10.371  0.9916  2.3439  1.6748
  164SOPE    C318388   6.210   1.592  10.450 -0.0557 -0.6191 -0.3956
  164SOPE    HX18389   6.257   1.497  10.484  1.3650 -0.4557 -1.8265
  164SOPE    HY18390   6.259   1.668  10.513 -1.4636 -0.9158  1.1324
  164SOPE   O3118391   6.230   1.626  10.314  0.0111 -0.6210  0.3666
  164SOPE   C3118392   6.270   1.533  10.230  0.7578 -0.0343  0.2726
  164SOPE   O3218393   6.300   1.419  10.259  0.1661 -0.1473 -0.1073
  164SOPE   C3218394   6.255   1.585  10.092  0.6682 -0.9367  0.2615
  164SOPE   H2X18395   6.329   1.666  10.074 -2.3241  2.4192  1.9263
  164SOPE   H2Y18396   6.153   1.628  10.085 -0.5350 -3.8027 -1.7173
  164SOPE   C2318397   5.919   1.277  10.147 -0.5433  0.1763 -0.0879
  164SOPE   H3R18398   6.030   1.275  10.147 -0.4145  1.8726 -2.7122
  164SOPE   H3S18399   5.892   1.347  10.066 -2.7756  0.5545  0.9131
  164SOPE   C2418400   5.869   1.131  10.111 -0.4822 -0.4496 -0.3628
  164SOPE   H4R18401   5.907   1.058  10.186  0.4173 -0.1575 -0.5344
  164SOPE   H4S18402   5.758   1.131  10.124 -0.3496  0.3763  1.0132
  164SOPE   C2518403   5.917   1.092   9.969 -0.4495 -0.2343  0.1622
  164SOPE   H5R18404   6.021   1.128   9.954 -0.6997 -0.2475 -1.8885
  164SOPE   H5S18405   5.918   0.981   9.966 -1.3819 -0.2456 -0.0391
  164SOPE   C2618406   5.832   1.129   9.845  0.3045 -0.1961 -0.1823
  164SOPE   H6R18407   5.729   1.092   9.859  0.3316 -0.3048 -0.2684
  164SOPE   H6S18408   5.843   1.239   9.858  1.4170 -0.5210  2.2197
  164SOPE   C2718409   5.899   1.082   9.714 -0.4791  0.0430 -0.5899
  164SOPE   H7R18410   6.000   1.128   9.716 -0.6645  0.4202  0.4327
  164SOPE   H7S18411   5.906   0.974   9.740  0.1237 -0.3708 -2.3284
  164SOPE   C2818412   5.835   1.095   9.575 -0.4032 -0.5558  0.1546
  164SOPE   H8R18413   5.898   1.039   9.503 -0.8304  0.5265 -1.0866
  164SOPE   H8S18414   5.740   1.038   9.584 -0.2149 -0.7151  1.2723
  164SOPE   C2918415   5.807   1.235   9.537  0.3329 -0.4891 -0.3688
  164SOPE   H9118416   5.749   1.284   9.617  1.8933  0.5405  0.1832
  164SOPE  C21018417   5.855   1.299   9.429 -0.2548  0.7248 -0.1625
  164SOPE  H10118418   5.861   1.409   9.430 -0.8942  0.8781 -3.1681
  164SOPE  C21118419   5.943   1.246   9.321 -1.1363 -0.2598 -1.1703
  164SOPE  H11R18420   5.992   1.149   9.347 -1.2430 -0.0952 -0.3289
  164SOPE  H11S18421   6.017   1.323   9.292 -1.5679  1.7217  2.4960
  164SOPE  C21218422   5.861   1.227   9.191 -1.0006 -0.4131  0.2021
  164SOPE  H12R18423   5.805   1.319   9.163  0.2484  0.7224  1.2962
  164SOPE  H12S18424   5.785   1.150   9.216 -2.3830  0.6871 -0.3977
  164SOPE  C21318425   5.950   1.177   9.075 -0.5216 -0.0076  0.0413
  164SOPE  H13R18426   5.879   1.133   9.002 -1.0233  0.4805  0.2264
  164SOPE  H13S18427   6.013   1.089   9.097  0.5268  1.1056  1.7812
  164SOPE  C21418428   6.036   1.283   9.004  0.1939 -0.3381 -0.2469
  164SOPE  H14R18429   6.086   1.347   9.081 -1.0606 -1.5628  1.6788
  164SOPE  H14S18430   5.960   1.344   8.950  1.7466  1.5624 -0.4189
  164SOPE  C21518431   6.147   1.236   8.920 -0.3524 -0.2826  0.8538
  164SOPE  H15R18432   6.209   1.169   8.983 -1.1857 -1.5844  0.3433
  164SOPE  H15S18433   6.210   1.322   8.889 -0.9133 -0.2843 -0.3329
  164SOPE  C21618434   6.110   1.167   8.787 -0.5398 -0.8843  0.3282
  164SOPE  H16R18435   6.039   1.233   8.733  1.3557 -1.8258 -3.6798
  164SOPE  H16S18436   6.064   1.067   8.802  0.3532 -1.3826 -0.1345
  164SOPE  C21718437   6.232   1.167   8.693  0.1492 -0.0462 -0.2112
  164SOPE  H17R18438   6.226   1.079   8.625 -0.0972 -0.1940  0.0032
  164SOPE  H17S18439   6.317   1.147   8.762 -0.4645 -3.1922 -0.2468
  164SOPE  C21818440   6.247   1.296   8.602 -0.2567 -0.2366 -0.7982
  164SOPE  H18R18441   6.167   1.302   8.525  0.5754 -2.8282 -1.9602
  164SOPE  H18S18442   6.339   1.266   8.548 -0.4321 -0.1386 -1.1548
  164SOPE  H18T18443   6.272   1.385   8.664  2.0098 -0.2943 -1.5451
  164SOPE   C3318444   6.280   1.478   9.995 -0.1284  0.3528  0.2920
  164SOPE   H3X18445   6.212   1.391  10.006 -0.5837  0.6062 -0.4777
  164SOPE   H3Y18446   6.382   1.434  10.001 -0.7241 -0.8942  3.9532
  164SOPE   C3418447   6.270   1.530   9.853 -0.3273  0.1939  0.4323
  164SOPE   H4X18448   6.360   1.590   9.830 -0.7311  0.3894 -0.6891
  164SOPE   H4Y18449   6.191   1.608   9.846 -1.1571 -0.5983  0.7511
  164SOPE   C3518450   6.261   1.413   9.749  0.1048 -0.2052 -0.0534
  164SOPE   H5X18451   6.163   1.360   9.746  0.1956 -0.3196 -2.3074
  164SOPE   H5Y18452   6.340   1.337   9.764  0.8925  0.3467 -1.2880
  164SOPE   C3618453   6.292   1.461   9.610  0.4719  0.0555  0.0780
  164SOPE   H6X18454   6.396   1.499   9.614  0.6438 -0.4842  2.7092
  164SOPE   H6Y18455   6.223   1.545   9.585  1.5406  1.4095  1.4520
  164SOPE   C3718456   6.284   1.357   9.500  0.2902  1.1802  0.1207
  164SOPE   H7X18457   6.204   1.287   9.535  0.2329  0.6703 -0.9906
  164SOPE   H7Y18458   6.378   1.298   9.493 -1.7607 -2.2688 -1.6839
  164SOPE   C3818459   6.270   1.413   9.362 -0.3401  0.0895 -0.4105
  164SOPE   H8X18460   6.180   1.478   9.370 -0.8894 -0.8479  1.9415
  164SOPE   H8Y18461   6.247   1.329   9.293 -0.7615  1.2635 -1.7316
  164SOPE   C3918462   6.396   1.486   9.318 -0.3676  0.5529  0.4721
  164SOPE   H9X18463   6.486   1.429   9.349 -0.2671  0.7599  0.5613
  164SOPE   H9Y18464   6.405   1.581   9.376 -0.6431  0.5613  0.5007
  164SOPE  C31018465   6.374   1.512   9.169 -0.2977 -0.9182  0.1899
  164SOPE  H10X18466   6.274   1.541   9.132  0.8942 -0.0402 -2.5671
  164SOPE  H10Y18467   6.388   1.414   9.119 -3.5812 -2.1117  1.3409
  164SOPE  C31118468   6.475   1.622   9.121  0.1499 -0.0656 -0.6323
  164SOPE  H11X18469   6.575   1.588   9.153 -0.7733 -1.0977  1.3157
  164SOPE  H11Y18470   6.463   1.716   9.179  0.0144 -1.1242  1.1187
  164SOPE  C31218471   6.453   1.651   8.973 -0.1902  0.4723  0.0513
  164SOPE  H12X18472   6.346   1.672   8.954 -0.6457 -2.7796 -1.6544
  164SOPE  H12Y18473   6.477   1.566   8.906  2.7791  0.7143  0.6698
  164SOPE  C31318474   6.541   1.776   8.936 -0.2215  0.5369 -0.3584
  164SOPE  H13X18475   6.597   1.806   9.027  0.4493 -0.1082 -0.5570
  164SOPE  H13Y18476   6.475   1.865   8.921 -1.3621  0.1780  2.0351
  164SOPE  C31418477   6.633   1.769   8.812 -0.7224  0.2011  1.0817
  164SOPE  H14X18478   6.569   1.777   8.722  0.2193 -1.6345  0.1939
  164SOPE  H14Y18479   6.682   1.669   8.808 -1.4308 -0.1188 -1.4409
  164SOPE  C31518480   6.740   1.879   8.797  0.2248  0.6756 -0.0507
  164SOPE  H15X18481   6.785   1.881   8.899 -1.5287 -0.7408  0.8144
  164SOPE  H15Y18482   6.694   1.977   8.772 -2.7520 -0.2836  1.1851
  164SOPE  C31618483   6.842   1.844   8.686  0.2678  0.8383  0.1057
  164SOPE  H16X18484   6.798   1.859   8.585 -1.0014 -1.6618  0.2223
  164SOPE  H16Y18485   6.898   1.748   8.685  0.7178  1.0114  2.2154
  164SOPE  C31718486   6.952   1.953   8.702 -0.2626  0.7840 -0.2327
  164SOPE  H17X18487   6.977   1.954   8.810 -1.9923 -1.5363  0.2848
  164SOPE  H17Y18488   6.924   2.056   8.671 -3.3402 -0.2311 -1.2188
  164SOPE  C31818489   7.077   1.910   8.625  0.5396 -0.5841 -0.3660
  164SOPE  H18X18490   7.096   1.801   8.631 -1.7334 -1.0336 -0.5096
  164SOPE  H18Y18491   7.167   1.960   8.667  0.4953 -0.1838 -0.7359
  164SOPE  H18Z18492   7.076   1.954   8.523  0.9632  1.0151  0.2813
  165SOPE     N18493   5.225   2.412  10.669  0.4745 -0.3935 -0.4898
  165SOPE   HN118494   5.130   2.427  10.709  1.0983  1.6767  0.3661
  165SOPE   HN218495   5.294   2.449  10.737  0.0677 -0.8151  0.1570
  165SOPE   HN318496   5.218   2.470  10.583 -1.7145 -0.5844 -0.5015
  165SOPE   C1218497   5.269   2.272  10.631  0.4893  0.1433  0.1515
  165SOPE  H12A18498   5.365   2.266  10.576 -0.3977 -2.2666 -1.2801
  165SOPE  H12B18499   5.189   2.235  10.564 -0.5739  2.4268  0.0712
  165SOPE   C1118500   5.276   2.187  10.761  0.1762  0.1986 -0.3002
  165SOPE  H11A18501   5.358   2.208  10.833 -1.3154  0.3005  1.4576
  165SOPE  H11B18502   5.293   2.080  10.736  1.9256 -0.4822  3.2452
  165SOPE     P18503   5.115   2.089  10.937 -0.0258  0.1440  0.1284
  165SOPE   O1318504   4.977   2.102  10.975  0.3431 -0.2692  0.5064
  165SOPE   O1418505   5.215   2.104  11.045 -0.2383 -0.4155 -0.1579
  165SOPE   O1218506   5.154   2.202  10.834 -0.5272 -0.3563  0.3900
  165SOPE   O1118507   5.145   1.952  10.853 -0.4932 -0.2398 -0.7267
  165SOPE    C118508   5.041   1.875  10.785  0.1223 -0.5106  0.3175
  165SOPE    HA18509   4.946   1.882  10.842 -0.7567 -3.0160 -0.7129
  165SOPE    HB18510   5.073   1.768  10.781  0.3970 -0.3937 -1.3035
  165SOPE    C218511   5.014   1.924  10.636  0.1534 -0.9793  0.5811
  165SOPE    HS18512   4.958   1.844  10.583  0.1038  0.1435 -1.1572
  165SOPE   O2118513   5.139   1.960  10.573 -0.2802  0.0661  0.2360
  165SOPE   C2118514   5.210   1.858  10.543 -0.1718  0.0847 -0.8793
  165SOPE   O2218515   5.185   1.743  10.570  0.3705 -0.0063 -0.3503
  165SOPE   C2218516   5.327   1.895  10.462 -0.0608  0.3596  0.0658
  165SOPE   H2R18517   5.356   1.808  10.400 -0.9396 -0.3745  0.6665
  165SOPE   H2S18518   5.414   1.920  10.526  0.1736  0.4553 -0.2859
  165SOPE    C318519   4.917   2.041  10.615 -0.5894  0.5442  0.9425
  165SOPE    HX18520   4.963   2.136  10.651 -0.4289 -0.2133  2.9182
  165SOPE    HY18521   4.829   2.020  10.679 -1.4163  0.8646 -0.0637
  165SOPE   O3118522   4.879   2.042  10.475  0.4576  0.3131  0.5798
  165SOPE   C3118523   4.924   2.143  10.403  0.5821 -0.4568 -0.0574
  165SOPE   O3218524   5.003   2.224  10.443  0.1365 -0.3159  0.0574
  165SOPE   C3218525   4.864   2.146  10.266 -0.4405 -0.4375 -0.5987
  165SOPE   H2X18526   4.758   2.113  10.276 -0.9348  0.8298 -1.3864
  165SOPE   H2Y18527   4.906   2.064  10.202  0.5050 -0.7544  0.4047
  165SOPE   C2318528   5.308   2.005  10.358  0.0294  0.5405 -0.1281
  165SOPE   H3R18529   5.407   2.040  10.322 -0.3048  3.1579  1.2484
  165SOPE   H3S18530   5.261   2.096  10.401  1.0776  0.8984  0.3010
  165SOPE   C2418531   5.213   1.973  10.232 -0.0427  0.1424 -0.0734
  165SOPE   H4R18532   5.253   1.880  10.186  1.1615  0.3639  0.4761
  165SOPE   H4S18533   5.107   1.954  10.258 -0.3328 -1.8507 -2.3311
  165SOPE   C2518534   5.201   2.076  10.118  0.2618 -0.5628  0.7372
  165SOPE   H5R18535   5.150   2.168  10.155 -0.3902 -0.5310 -0.2136
  165SOPE   H5S18536   5.303   2.093  10.078 -0.3714 -0.5051 -0.9141
  165SOPE   C2618537   5.126   2.035   9.989  0.5377  0.5710 -0.1965
  165SOPE   H6R18538   5.177   1.944   9.952 -0.3367 -0.7219  1.6335
  165SOPE   H6S18539   5.022   2.011  10.020  1.2225  0.9326  2.7295
  165SOPE   C2718540   5.115   2.150   9.893 -0.6398  0.0845  0.8191
  165SOPE   H7R18541   5.059   2.239   9.928 -0.2162 -0.0194  1.7842
  165SOPE   H7S18542   5.219   2.179   9.867 -1.3553  3.0138  0.8962
  165SOPE   C2818543   5.051   2.097   9.756 -0.2232  0.3670  0.2249
  165SOPE   H8R18544   4.943   2.077   9.774 -0.1242 -2.2200 -1.5727
  165SOPE   H8S18545   5.053   2.177   9.680  2.4192  0.1104 -0.0859
  165SOPE   C2918546   5.112   1.967   9.695  0.1955 -0.1716 -0.5705
  165SOPE   H9118547   5.089   1.882   9.761  1.7873  0.7939  1.3317
  165SOPE  C21018548   5.205   1.958   9.599 -0.7309  0.4298 -0.3828
  165SOPE  H10118549   5.238   1.859   9.563 -1.4237 -0.2153  0.7069
  165SOPE  C21118550   5.272   2.071   9.521  0.6363  0.5603  0.2172
  165SOPE  H11R18551   5.383   2.063   9.530  0.6617  0.5956 -0.0515
  165SOPE  H11S18552   5.247   2.170   9.565 -4.0162 -0.8080  1.1623
  165SOPE  C21218553   5.264   2.076   9.367  0.0522  0.2773 -0.2860
  165SOPE  H12R18554   5.315   2.168   9.332 -1.6874  1.5035  0.2315
  165SOPE  H12S18555   5.157   2.093   9.341 -0.1883  0.2614  0.6654
  165SOPE  C21318556   5.318   1.942   9.309  0.1054 -0.8488  0.6683
  165SOPE  H13R18557   5.266   1.849   9.342  0.1544 -1.0475  0.1941
  165SOPE  H13S18558   5.426   1.936   9.332  1.0414  1.5228 -2.4992
  165SOPE  C21418559   5.289   1.936   9.156  0.7945  0.4452 -0.0980
  165SOPE  H14R18560   5.179   1.947   9.145  0.6292 -0.2858  0.7178
  165SOPE  H14S18561   5.320   1.835   9.121 -0.2217 -0.0730  0.4489
  165SOPE  C21518562   5.352   2.047   9.072  0.3491 -0.3481 -0.2987
  165SOPE  H15R18563   5.322   2.144   9.117  2.5521  0.5803 -0.7055
  165SOPE  H15S18564   5.306   2.036   8.972 -1.3148 -0.8686  0.4996
  165SOPE  C21618565   5.499   2.048   9.047 -0.0882  0.5227  0.8211
  165SOPE  H16R18566   5.532   1.963   8.982 -0.3338  1.3037 -0.3599
  165SOPE  H16S18567   5.554   2.044   9.143  0.6776 -2.4201  0.3731
  165SOPE  C21718568   5.560   2.173   8.985 -0.5315  0.5442  0.2120
  165SOPE  H17R18569   5.541   2.267   9.042  0.6690  0.5194  0.6712
  165SOPE  H17S18570   5.518   2.188   8.883 -0.3696  0.5992  0.1542
  165SOPE  C21818571   5.711   2.148   8.968  0.3331 -0.4644 -0.7054
  165SOPE  H18R18572   5.735   2.088   8.877  0.5029 -1.7486  0.1486
  165SOPE  H18S18573   5.758   2.095   9.054  0.2165  1.0209  0.3142
  165SOPE  H18T18574   5.767   2.242   8.953  0.9319 -0.8845 -1.1683
  165SOPE   C3318575   4.853   2.283  10.197 -0.4048 -0.1668 -0.4352
  165SOPE   H3X18576   4.954   2.322  10.173 -0.8785  0.9500 -0.6576
  165SOPE   H3Y18577   4.795   2.355  10.259 -1.1157 -1.7936  0.8753
  165SOPE   C3418578   4.787   2.278  10.064  0.5955 -0.3315 -0.1756
  165SOPE   H4X18579   4.681   2.245  10.075 -0.2362  2.2046  0.1022
  165SOPE   H4Y18580   4.838   2.209   9.993 -1.6885 -0.0025 -2.2936
  165SOPE   C3518581   4.792   2.410   9.990  0.2139  0.1926 -0.6849
  165SOPE   H5X18582   4.898   2.433   9.967 -0.0286  0.4952 -1.5042
  165SOPE   H5Y18583   4.747   2.482  10.061  0.5774 -1.3182  1.1725
  165SOPE   C3618584   4.719   2.422   9.862 -0.2462 -0.0509  0.4806
  165SOPE   H6X18585   4.737   2.525   9.825 -2.0281 -0.3478 -1.4039
  165SOPE   H6Y18586   4.611   2.409   9.884 -0.3253  0.7527  0.5713
  165SOPE   C3718587   4.763   2.324   9.755  0.1123 -0.0006  0.0451
  165SOPE   H7X18588   4.729   2.220   9.768  0.7693 -0.7132 -3.1108
  165SOPE   H7Y18589   4.874   2.314   9.758  0.0126 -0.8376  1.2920
  165SOPE   C3818590   4.730   2.370   9.616  0.3525  0.3499 -0.1143
  165SOPE   H8X18591   4.737   2.480   9.603  0.0691  0.1728 -2.0291
  165SOPE   H8Y18592   4.623   2.340   9.608 -0.2104  1.7238  1.6011
  165SOPE   C3918593   4.818   2.297   9.502 -0.0750 -0.2349 -0.1714
  165SOPE   H9X18594   4.789   2.190   9.499  0.0140 -0.2572 -0.2285
  165SOPE   H9Y18595   4.928   2.309   9.518  0.0153  0.9982 -1.4838
  165SOPE  C31018596   4.791   2.365   9.365  1.3198  0.1711  0.2322
  165SOPE  H10X18597   4.803   2.475   9.371 -1.7710  0.8029 -2.2647
  165SOPE  H10Y18598   4.682   2.362   9.347  1.1686 -0.8311  1.1897
  165SOPE  C31118599   4.874   2.307   9.243  0.9404 -0.9578  0.4396
  165SOPE  H11X18600   4.863   2.197   9.255  0.6042 -1.2830 -2.2093
  165SOPE  H11Y18601   4.984   2.317   9.258  0.9354  2.6725 -0.7838
  165SOPE  C31218602   4.835   2.370   9.104 -0.1249 -0.2217 -0.9242
  165SOPE  H12X18603   4.906   2.317   9.036  0.2040 -0.6308 -0.2633
  165SOPE  H12Y18604   4.869   2.475   9.119 -1.1381  0.1956 -1.4808
  165SOPE  C31318605   4.684   2.347   9.064  0.0850 -0.5932  0.0307
  165SOPE  H13X18606   4.620   2.419   9.119  0.7821 -0.8954  1.2657
  165SOPE  H13Y18607   4.666   2.238   9.069 -0.5852 -0.4560  0.7675
  165SOPE  C31418608   4.671   2.386   8.915  0.0658  0.0956 -0.6738
  165SOPE  H14X18609   4.718   2.307   8.852  2.2286  1.5982 -1.0419
  165SOPE  H14Y18610   4.716   2.487   8.908  0.8608  0.3037  4.0685
  165SOPE  C31518611   4.527   2.395   8.876  0.0183 -0.2470  0.1739
  165SOPE  H15X18612   4.470   2.447   8.956  2.1750 -0.3018  1.8554
  165SOPE  H15Y18613   4.489   2.291   8.867  0.5765 -0.3860 -0.6375
  165SOPE  C31618614   4.516   2.462   8.734 -0.3189  0.1833 -0.3304
  165SOPE  H16X18615   4.592   2.404   8.677 -1.4422 -0.0778 -1.6058
  165SOPE  H16Y18616   4.562   2.563   8.742 -0.1631  0.1058 -0.2433
  165SOPE  C31718617   4.382   2.475   8.672 -0.4558  0.8576 -0.2840
  165SOPE  H17X18618   4.313   2.524   8.744  1.1332  1.3814  0.9565
  165SOPE  H17Y18619   4.343   2.371   8.665  0.0397  0.5411  1.2466
  165SOPE  C31818620   4.375   2.544   8.542 -0.0953  0.0444  0.1572
  165SOPE  H18X18621   4.294   2.498   8.482  0.7369 -0.1392 -0.8569
  165SOPE  H18Y18622   4.472   2.518   8.494 -0.3948 -0.6068 -0.1104
  165SOPE  H18Z18623   4.367   2.654   8.553  0.2318  0.1024 -0.1512
  166SOPE     N18624   0.544   1.413  11.184 -0.4196 -0.1289  0.0383
  166SOPE   HN118625   0.591   1.389  11.274  1.0410 -1.1169 -0.9340
  166SOPE   HN218626   0.615   1.431  11.110 -0.4230 -0.7048 -0.1075
  166SOPE   HN318627   0.497   1.506  11.189  0.4467  0.2899  0.7215
  166SOPE   C1218628   0.450   1.309  11.131  0.1944 -0.1867 -0.7293
  166SOPE  H12A18629   0.370   1.300  11.208  1.5406  1.0470  0.9005
  166SOPE  H12B18630   0.499   1.210  11.127 -1.4660 -1.1174  0.6984
  166SOPE   C1118631   0.401   1.363  10.990 -0.1665  0.7013 -0.6287
  166SOPE  H11A18632   0.330   1.448  11.005 -2.7415 -1.1898 -1.4287
  166SOPE  H11B18633   0.343   1.281  10.943 -0.0491  0.3947 -0.2402
  166SOPE     P18634   0.581   1.325  10.807 -0.3356  0.1457 -0.3701
  166SOPE   O1318635   0.631   1.205  10.873 -0.2502  0.2273 -0.0783
  166SOPE   O1418636   0.690   1.405  10.749  0.5423 -1.0613  0.5757
  166SOPE   O1218637   0.508   1.413  10.915  0.1822  0.2434  0.4313
  166SOPE   O1118638   0.467   1.279  10.705  0.1611 -0.0401  0.4989
  166SOPE    C118639   0.389   1.378  10.644 -0.1704 -0.1181 -0.0856
  166SOPE    HA18640   0.385   1.473  10.701  2.4465  0.2275 -0.3854
  166SOPE    HB18641   0.285   1.338  10.650 -1.0948  2.2356  0.5840
  166SOPE    C218642   0.418   1.421  10.495 -0.0990  0.0726 -0.1104
  166SOPE    HS18643   0.335   1.487  10.463  0.7425  1.4540  0.4453
  166SOPE   O2118644   0.430   1.305  10.411  0.3934  0.1092  0.0720
  166SOPE   C2118645   0.323   1.234  10.406 -0.6734  0.4699 -0.1057
  166SOPE   O2218646   0.217   1.259  10.455  0.3589 -0.1672  0.0887
  166SOPE   C2218647   0.364   1.104  10.329  0.2535  0.7920  0.5790
  166SOPE   H2R18648   0.328   1.018  10.389  1.2362  1.3138  1.9657
  166SOPE   H2S18649   0.475   1.101  10.319  0.0544  0.0032 -1.8916
  166SOPE    C318650   0.548   1.508  10.478  0.7012 -0.0056 -0.2759
  166SOPE    HX18651   0.636   1.446  10.507  0.7947  0.9870  1.6871
  166SOPE    HY18652   0.542   1.584  10.559 -0.3716 -0.6723  0.2799
  166SOPE   O3118653   0.572   1.553  10.344  0.2825  0.9810  0.4692
  166SOPE   C3118654   0.664   1.646  10.340 -0.9641 -0.4762  0.7694
  166SOPE   O3218655   0.750   1.661  10.422  0.5742 -0.0546 -0.5265
  166SOPE   C3218656   0.656   1.707  10.197  0.0099  0.8621  0.0842
  166SOPE   H2X18657   0.585   1.792  10.204 -0.5554  0.3850  0.1889
  166SOPE   H2Y18658   0.618   1.631  10.125 -1.4050  0.6892  0.9742
  166SOPE   C2318659   0.282   1.102  10.194 -0.0493 -0.5996 -0.6938
  166SOPE   H3R18660   0.323   1.188  10.137 -1.6339 -0.0653 -1.0615
  166SOPE   H3S18661   0.176   1.125  10.217  0.4464  0.6470  0.4433
  166SOPE   C2418662   0.282   0.975  10.118  0.2933 -0.4591  0.4170
  166SOPE   H4R18663   0.387   0.940  10.117  0.3456 -0.2919 -0.2028
  166SOPE   H4S18664   0.216   0.907  10.176 -0.9921 -0.1563 -0.6264
  166SOPE   C2518665   0.222   0.990   9.979 -0.3890 -0.9381  0.7112
  166SOPE   H5R18666   0.112   0.995   9.985 -0.3538 -1.8977  2.9157
  166SOPE   H5S18667   0.265   1.084   9.938  0.2611  0.8316  4.9309
  166SOPE   C2618668   0.254   0.880   9.881 -0.1063 -0.2394  0.2017
  166SOPE   H6R18669   0.356   0.835   9.875  0.1819  0.0135  2.4989
  166SOPE   H6S18670   0.200   0.790   9.916 -0.6002  0.0288  0.1358
  166SOPE   C2718671   0.204   0.930   9.748 -0.4130 -1.1929 -0.3389
  166SOPE   H7R18672   0.098   0.958   9.761 -0.0755  1.5960 -2.5905
  166SOPE   H7S18673   0.254   1.024   9.716 -0.4405 -0.8120  0.6793
  166SOPE   C2818674   0.211   0.829   9.627 -0.0359  0.2566  0.0081
  166SOPE   H8R18675   0.318   0.801   9.618 -0.1320 -0.0412 -0.1981
  166SOPE   H8S18676   0.162   0.734   9.656 -1.4909  0.0475 -2.8223
  166SOPE   C2918677   0.157   0.889   9.503  0.2874 -0.1336  0.0319
  166SOPE   H9118678   0.212   0.972   9.456  0.8691  0.0224  0.9496
  166SOPE  C21018679   0.049   0.845   9.436 -0.2565 -0.0883  0.0307
  166SOPE  H10118680   0.019   0.910   9.352 -0.6139  0.2262  0.4000
  166SOPE  C21118681  -0.042   0.729   9.478  0.4877 -0.5420 -0.2198
  166SOPE  H11R18682  -0.134   0.757   9.532  0.2084  0.8531 -1.3642
  166SOPE  H11S18683   0.010   0.659   9.547  0.4599 -0.3753 -0.0291
  166SOPE  C21218684  -0.081   0.631   9.364 -0.0432  0.5882 -0.7043
  166SOPE  H12R18685  -0.144   0.549   9.405 -1.6664  1.4396 -1.3970
  166SOPE  H12S18686   0.010   0.585   9.320  0.3555  0.6814 -0.0035
  166SOPE  C21318687  -0.167   0.693   9.248  0.4074 -0.2442  0.0281
  166SOPE  H13R18688  -0.150   0.803   9.244 -0.4215 -0.1432 -2.7853
  166SOPE  H13S18689  -0.276   0.682   9.270  0.3339  2.3047  1.2602
  166SOPE  C21418690  -0.128   0.630   9.114  0.3603  0.7159 -0.2087
  166SOPE  H14R18691  -0.157   0.524   9.104  1.0646  0.4319  0.5936
  166SOPE  H14S18692  -0.018   0.639   9.100  0.6689  0.1615  1.5507
  166SOPE  C21518693  -0.192   0.702   8.983  0.1907 -0.5539 -0.2298
  166SOPE  H15R18694  -0.185   0.813   8.996 -0.0185 -0.5820  0.1447
  166SOPE  H15S18695  -0.302   0.688   8.993  0.2667 -1.1471 -0.2366
  166SOPE  C21618696  -0.145   0.658   8.845 -0.6349 -0.1711 -0.0508
  166SOPE  H16R18697  -0.151   0.547   8.848 -0.1258 -0.2104 -0.2642
  166SOPE  H16S18698  -0.037   0.683   8.834 -0.8457  0.1195 -1.8695
  166SOPE  C21718699  -0.217   0.701   8.721  0.8211 -0.0242 -0.3698
  166SOPE  H17R18700  -0.200   0.809   8.702 -1.7726  0.5927  0.4476
  166SOPE  H17S18701  -0.326   0.687   8.730  0.8754 -0.3790 -0.2292
  166SOPE  C21818702  -0.173   0.617   8.598  0.0137  0.1255 -0.4856
  166SOPE  H18R18703  -0.063   0.630   8.607  0.2136  0.2139 -2.5513
  166SOPE  H18S18704  -0.220   0.650   8.503 -0.0532  1.4960 -0.0001
  166SOPE  H18T18705  -0.200   0.510   8.607  1.7075 -0.4554 -1.7620
  166SOPE   C3318706   0.792   1.750  10.143  0.3800 -0.2692 -0.0960
  166SOPE   H3X18707   0.861   1.665  10.124  2.2920  1.1097  0.3551
  166SOPE   H3Y18708   0.840   1.821  10.215  0.7978 -0.6421 -0.0049
  166SOPE   C3418709   0.790   1.829  10.008  0.7011  0.1058 -0.2332
  166SOPE   H4X18710   0.887   1.878   9.985  0.6885  1.3155  1.9553
  166SOPE   H4Y18711   0.702   1.895  10.025 -0.4076 -1.4474  0.2538
  166SOPE   C3518712   0.753   1.733   9.890 -0.1556  0.3587  1.0266
  166SOPE   H5X18713   0.671   1.663   9.917 -2.4990  2.3548 -0.5045
  166SOPE   H5Y18714   0.841   1.669   9.867 -0.0998  1.0714 -0.9098
  166SOPE   C3618715   0.731   1.799   9.756 -0.3696  0.5181 -0.0516
  166SOPE   H6X18716   0.807   1.877   9.733  1.4809 -1.0326  0.5269
  166SOPE   H6Y18717   0.628   1.841   9.760 -1.1605 -1.2463 -0.8055
  166SOPE   C3718718   0.742   1.702   9.633  0.6498  0.6854 -0.1947
  166SOPE   H7X18719   0.675   1.617   9.655 -0.7230  2.0727  1.1795
  166SOPE   H7Y18720   0.842   1.654   9.623 -0.1936 -0.9516 -1.2393
  166SOPE   C3818721   0.708   1.772   9.501 -0.3577 -0.0327  0.4093
  166SOPE   H8X18722   0.769   1.864   9.506 -2.8345  1.6435  2.2156
  166SOPE   H8Y18723   0.607   1.816   9.482 -0.5324 -1.0778 -1.3699
  166SOPE   C3918724   0.742   1.685   9.380 -0.4225  0.3508 -0.5171
  166SOPE   H9X18725   0.678   1.595   9.369 -0.0441  0.0822 -0.5632
  166SOPE   H9Y18726   0.847   1.650   9.389  0.0669  1.7847 -0.3599
  166SOPE  C31018727   0.739   1.765   9.246 -0.0010  0.7995  0.1248
  166SOPE  H10X18728   0.639   1.814   9.252  0.3781  1.6206 -0.1456
  166SOPE  H10Y18729   0.751   1.690   9.165 -3.8870  0.4758 -0.3829
  166SOPE  C31118730   0.848   1.881   9.231  0.4840  0.5107  0.3571
  166SOPE  H11X18731   0.943   1.839   9.192  0.5354  0.4989  0.4973
  166SOPE  H11Y18732   0.878   1.912   9.333 -0.1377 -0.5713  0.8766
  166SOPE  C31218733   0.822   1.989   9.126  0.2479  0.0124 -0.1659
  166SOPE  H12X18734   0.908   2.060   9.125 -0.1141  0.4508  0.0634
  166SOPE  H12Y18735   0.738   2.042   9.175 -0.8763 -1.2248 -0.6810
  166SOPE  C31318736   0.778   1.949   8.990  0.1891  0.3966 -0.1002
  166SOPE  H13X18737   0.702   1.868   9.002 -1.3554  1.8773  0.3958
  166SOPE  H13Y18738   0.867   1.919   8.930 -0.5873  1.0168 -1.6376
  166SOPE  C31418739   0.712   2.067   8.918 -0.1702  0.1115 -0.3154
  166SOPE  H14X18740   0.774   2.159   8.928 -3.1871  2.3490 -0.4850
  166SOPE  H14Y18741   0.625   2.104   8.977  1.4292  0.7312  1.7863
  166SOPE  C31518742   0.664   2.026   8.779  0.6613  0.3436  0.4933
  166SOPE  H15X18743   0.605   1.932   8.785  3.4659 -1.9531 -3.5337
  166SOPE  H15Y18744   0.752   1.988   8.724  1.1239 -0.7758  1.9451
  166SOPE  C31618745   0.588   2.135   8.698 -0.0073  0.1799  0.1416
  166SOPE  H16X18746   0.495   2.168   8.751  1.1120  1.2518  1.5157
  166SOPE  H16Y18747   0.560   2.081   8.605 -0.3630  0.4894  0.0636
  166SOPE  C31718748   0.680   2.250   8.647  0.5688  0.3253 -0.3091
  166SOPE  H17X18749   0.757   2.280   8.722  0.8055  1.6080 -1.0425
  166SOPE  H17Y18750   0.625   2.343   8.622  2.1054  0.7219 -2.5004
  166SOPE  C31818751   0.753   2.205   8.518  0.7810 -1.1511  0.1170
  166SOPE  H18X18752   0.800   2.295   8.472  0.9257 -1.1036  0.3530
  166SOPE  H18Y18753   0.696   2.150   8.440 -2.6468  0.9888  0.9096
  166SOPE  H18Z18754   0.835   2.133   8.541  2.9201  1.2283  0.4499
  167SOPE     N18755   0.605   0.283   6.526  0.0081  0.7816  0.6515
  167SOPE   HN118756   0.539   0.341   6.469 -1.5921 -3.0921 -1.8267
  167SOPE   HN218757   0.645   0.205   6.470  1.7752  0.0721  2.7520
  167SOPE   HN318758   0.544   0.234   6.595  3.2252 -2.6571  1.3760
  167SOPE   C1218759   0.714   0.373   6.587  0.4200  0.2612 -0.3727
  167SOPE  H12A18760   0.794   0.314   6.635 -0.4044  0.1770  0.9308
  167SOPE  H12B18761   0.666   0.428   6.671  0.2118 -2.2330  1.2265
  167SOPE   C1118762   0.769   0.466   6.481 -0.0943 -0.3761  0.0416
  167SOPE  H11A18763   0.853   0.524   6.527 -0.2347 -0.3402  0.2554
  167SOPE  H11B18764   0.693   0.537   6.442  0.3467 -0.5452 -1.1767
  167SOPE     P18765   0.927   0.438   6.273  0.3926 -0.2346  0.0795
  167SOPE   O1318766   0.897   0.578   6.236  0.6756 -0.2419  0.0448
  167SOPE   O1418767   0.941   0.346   6.156 -0.0644 -0.5345 -0.4538
  167SOPE   O1218768   0.816   0.393   6.375 -0.3850  0.8568  0.2394
  167SOPE   O1118769   1.055   0.427   6.365  0.5756  0.3707 -0.4702
  167SOPE    C118770   1.064   0.299   6.425 -0.2624  0.0819  0.9001
  167SOPE    HA18771   1.079   0.223   6.346  0.4290  2.0835 -0.9901
  167SOPE    HB18772   0.982   0.268   6.494 -0.0721 -0.7609  0.7653
  167SOPE    C218773   1.189   0.275   6.517  0.6845  0.3362  0.1241
  167SOPE    HS18774   1.149   0.198   6.586 -0.6148  0.4197 -0.4990
  167SOPE   O2118775   1.238   0.394   6.580  0.5661 -0.2597  0.2944
  167SOPE   C2118776   1.150   0.441   6.666 -0.0763  0.1361 -0.5517
  167SOPE   O2218777   1.063   0.380   6.717 -0.8898  0.4254 -0.3515
  167SOPE   C2218778   1.169   0.591   6.679 -0.0321 -0.4331 -0.1147
  167SOPE   H2R18779   1.082   0.645   6.722  0.0931 -0.7406  0.5365
  167SOPE   H2S18780   1.168   0.624   6.573 -0.5970  0.0222  0.0265
  167SOPE    C318781   1.303   0.203   6.438  0.7724  0.0435  0.3309
  167SOPE    HX18782   1.333   0.285   6.369 -0.3077  1.1368  1.1180
  167SOPE    HY18783   1.254   0.125   6.376 -1.1406  0.5406  1.1545
  167SOPE   O3118784   1.412   0.155   6.526 -0.2920 -0.5176 -0.1066
  167SOPE   C3118785   1.512   0.240   6.549  0.1378  0.8470  0.3743
  167SOPE   O3218786   1.535   0.342   6.489  0.1513 -0.4686  0.1425
  167SOPE   C3218787   1.594   0.192   6.668  0.0985 -0.1465 -0.2755
  167SOPE   H2X18788   1.687   0.252   6.665  0.1597 -0.1534  0.9530
  167SOPE   H2Y18789   1.616   0.084   6.656 -0.9452 -0.3626 -0.3837
  167SOPE   C2318790   1.303   0.633   6.746 -0.8390 -0.3092  0.2013
  167SOPE   H3R18791   1.325   0.741   6.729  0.0052 -0.4303  0.4782
  167SOPE   H3S18792   1.394   0.582   6.708 -1.0394  1.5451 -3.1136
  167SOPE   C2418793   1.306   0.599   6.900 -0.2173  0.3826 -0.2383
  167SOPE   H4R18794   1.277   0.493   6.920  0.6842  0.4708  1.9188
  167SOPE   H4S18795   1.404   0.613   6.952 -1.1135 -0.7796  1.9062
  167SOPE   C2518796   1.215   0.685   6.992  0.0306 -0.6794  0.0267
  167SOPE   H5R18797   1.273   0.769   7.036 -1.5244 -0.5303  1.9010
  167SOPE   H5S18798   1.131   0.731   6.936  0.1375  0.5283  0.8126
  167SOPE   C2618799   1.138   0.622   7.110 -0.1245 -0.2451 -0.2654
  167SOPE   H6R18800   1.084   0.705   7.162  1.8858  0.3963  0.9388
  167SOPE   H6S18801   1.061   0.548   7.080 -0.8178 -0.1456  1.1745
  167SOPE   C2718802   1.228   0.550   7.209 -0.2070 -0.1294  0.7268
  167SOPE   H7R18803   1.260   0.454   7.164 -2.7896 -0.6420 -0.1864
  167SOPE   H7S18804   1.319   0.612   7.224  0.0704 -0.3231 -0.0708
  167SOPE   C2818805   1.162   0.509   7.336 -0.8492  0.0120 -0.6974
  167SOPE   H8R18806   1.057   0.483   7.309 -1.3713  1.3729 -0.0571
  167SOPE   H8S18807   1.213   0.424   7.387  0.3943  1.3591  0.3931
  167SOPE   C2918808   1.168   0.626   7.429 -0.5174  0.0074 -0.6428
  167SOPE   H9118809   1.139   0.723   7.387 -0.4037  0.8054  1.0269
  167SOPE  C21018810   1.208   0.622   7.557 -0.0367 -0.0608 -0.5099
  167SOPE  H10118811   1.206   0.715   7.616 -0.1734  0.9649 -2.0764
  167SOPE  C21118812   1.250   0.497   7.636 -0.1619  0.1249 -0.0992
  167SOPE  H11R18813   1.352   0.467   7.603 -0.1257 -1.6762  1.4894
  167SOPE  H11S18814   1.179   0.416   7.611 -2.0525  0.6285  3.0985
  167SOPE  C21218815   1.243   0.515   7.793  0.0340  0.3186  0.2646
  167SOPE  H12R18816   1.133   0.509   7.809  0.0306 -0.6723 -0.1110
  167SOPE  H12S18817   1.268   0.619   7.823  1.1081  0.3580 -0.7178
  167SOPE  C21318818   1.304   0.406   7.871 -0.1646 -0.1566 -0.8036
  167SOPE  H13R18819   1.414   0.408   7.857  0.3214 -2.1066  1.8210
  167SOPE  H13S18820   1.269   0.303   7.850  0.4007 -0.6315  0.4689
  167SOPE  C21418821   1.293   0.408   8.027 -0.1153  0.2556 -0.1490
  167SOPE  H14R18822   1.350   0.496   8.065  0.2396  0.1665 -0.4606
  167SOPE  H14S18823   1.328   0.310   8.065  0.9920  0.1087 -1.4486
  167SOPE  C21518824   1.138   0.431   8.074 -0.7750 -0.6710  0.8819
  167SOPE  H15R18825   1.078   0.349   8.029 -0.3792  0.2336 -1.3902
  167SOPE  H15S18826   1.097   0.524   8.031 -0.9699 -0.0186  2.3942
  167SOPE  C21618827   1.124   0.427   8.222  0.5806 -0.3021 -0.8574
  167SOPE  H16R18828   1.162   0.330   8.260  2.0772  1.1456  1.6144
  167SOPE  H16S18829   1.022   0.437   8.263  0.6787 -1.7882 -0.1898
  167SOPE  C21718830   1.213   0.521   8.299  0.3509 -0.1392  0.5952
  167SOPE  H17R18831   1.197   0.624   8.259 -2.4622 -1.1599 -1.1864
  167SOPE  H17S18832   1.320   0.512   8.271  0.6269 -0.2111  1.6098
  167SOPE  C21818833   1.181   0.514   8.446  0.0007  0.1279 -0.6707
  167SOPE  H18R18834   1.251   0.575   8.506 -0.6021 -0.6880  0.9358
  167SOPE  H18S18835   1.190   0.411   8.489 -1.2726  0.5571  0.7046
  167SOPE  H18T18836   1.075   0.541   8.465 -0.0092  0.2705 -0.9234
  167SOPE   C3318837   1.514   0.212   6.798  0.1581 -0.9620 -0.8296
  167SOPE   H3X18838   1.422   0.151   6.791 -1.3951  1.0906  0.7112
  167SOPE   H3Y18839   1.480   0.318   6.802 -0.1954 -1.0240 -1.9466
  167SOPE   C3418840   1.567   0.163   6.927 -0.2372  0.1828 -0.4121
  167SOPE   H4X18841   1.502   0.199   7.010 -1.2382 -2.2805 -0.0598
  167SOPE   H4Y18842   1.663   0.209   6.959 -0.0935  0.3531 -1.0931
  167SOPE   C3518843   1.586   0.014   6.927  0.4883  0.1050  0.3409
  167SOPE   H5X18844   1.657  -0.007   6.845  0.4695 -1.6445  0.7367
  167SOPE   H5Y18845   1.492  -0.039   6.900  0.8271  0.1499 -0.9782
  167SOPE   C3618846   1.648  -0.032   7.052 -0.9783  0.6347 -0.5060
  167SOPE   H6X18847   1.578  -0.024   7.138 -1.3057 -2.8362 -0.3261
  167SOPE   H6Y18848   1.732   0.031   7.087  1.3400 -3.0489  1.0827
  167SOPE   C3718849   1.701  -0.174   7.041 -0.3492 -0.1003  0.5213
  167SOPE   H7X18850   1.762  -0.183   6.949 -0.3861  2.8562  0.1091
  167SOPE   H7Y18851   1.612  -0.238   7.028 -0.8417  0.8459 -1.0078
  167SOPE   C3818852   1.784  -0.220   7.155  0.1539  0.5094  0.2532
  167SOPE   H8X18853   1.886  -0.184   7.132  0.2086  0.1561 -0.0631
  167SOPE   H8Y18854   1.795  -0.330   7.158  1.6622  0.6033 -0.8378
  167SOPE   C3918855   1.720  -0.165   7.291 -0.0745  0.4648  0.1574
  167SOPE   H9X18856   1.611  -0.189   7.299 -0.2269  0.2646 -1.8999
  167SOPE   H9Y18857   1.741  -0.057   7.287 -0.6173  0.5618 -0.2068
  167SOPE  C31018858   1.794  -0.228   7.415 -0.7749  0.2003  0.3013
  167SOPE  H10X18859   1.901  -0.215   7.388 -0.2129  0.6133  2.5117
  167SOPE  H10Y18860   1.755  -0.327   7.446 -2.3043  0.5325 -0.4818
  167SOPE  C31118861   1.790  -0.147   7.540 -0.7486 -1.0157  0.2432
  167SOPE  H11X18862   1.811  -0.046   7.500  2.4558 -1.7935 -0.3653
  167SOPE  H11Y18863   1.874  -0.174   7.608 -0.4625  1.3390  0.9064
  167SOPE  C31218864   1.674  -0.161   7.627  0.2151  0.0276  0.2194
  167SOPE  H12X18865   1.689  -0.258   7.680  0.3228 -0.4369 -0.6524
  167SOPE  H12Y18866   1.584  -0.166   7.562  1.3304  1.4173 -1.4979
  167SOPE  C31318867   1.669  -0.047   7.725 -0.0683  0.4030  0.4794
  167SOPE  H13X18868   1.683   0.053   7.679  0.2482 -0.9721 -2.6960
  167SOPE  H13Y18869   1.740  -0.059   7.809  1.4948  2.2585 -0.5030
  167SOPE  C31418870   1.527  -0.038   7.792 -0.8169  0.3014 -0.1973
  167SOPE  H14X18871   1.448  -0.013   7.717 -3.5796 -0.0291  2.4226
  167SOPE  H14Y18872   1.534   0.043   7.868  1.7138  0.0840 -0.1194
  167SOPE  C31518873   1.472  -0.160   7.861 -0.6199 -0.0791  0.1244
  167SOPE  H15X18874   1.502  -0.240   7.791  2.1418 -0.5148  1.6620
  167SOPE  H15Y18875   1.364  -0.141   7.844 -0.6013 -0.3838 -0.3337
  167SOPE  C31618876   1.525  -0.194   7.999  0.6158 -0.4259 -0.4627
  167SOPE  H16X18877   1.496  -0.115   8.071  1.2315 -1.3268  0.8000
  167SOPE  H16Y18878   1.635  -0.200   7.990  0.6571  1.3634 -1.7550
  167SOPE  C31718879   1.472  -0.331   8.051  0.2462 -0.0483 -0.8237
  167SOPE  H17X18880   1.504  -0.411   7.981 -1.5624 -1.6852  0.1086
  167SOPE  H17Y18881   1.361  -0.326   8.050  0.1803 -1.2420 -0.7957
  167SOPE  C31818882   1.514  -0.345   8.202 -0.6078  0.5086  0.6026
  167SOPE  H18X18883   1.622  -0.357   8.225 -0.3502  0.9882 -0.3257
  167SOPE  H18Y18884   1.463  -0.436   8.241 -1.2753  1.3421  1.7815
  167SOPE  H18Z18885   1.469  -0.268   8.270 -0.8839  0.3894  0.5578
  168SOPE     N18886   0.268   4.252   6.567 -0.6324 -0.2102  0.4096
  168SOPE   HN118887   0.206   4.171   6.547  0.5994 -0.9978 -0.3602
  168SOPE   HN218888   0.220   4.333   6.611 -0.3873  0.1659 -0.0056
  168SOPE   HN318889   0.318   4.276   6.479  0.4824 -0.9073  0.8328
  168SOPE   C1218890   0.372   4.198   6.662 -0.2136 -0.4061 -0.0033
  168SOPE  H12A18891   0.333   4.207   6.766  0.2763  1.6534  0.0589
  168SOPE  H12B18892   0.463   4.262   6.660  0.8191 -1.8194  0.3515
  168SOPE   C1118893   0.413   4.055   6.625 -0.3105 -0.5652  0.6506
  168SOPE  H11A18894   0.330   3.988   6.653 -0.1824 -1.6085 -1.2486
  168SOPE  H11B18895   0.502   4.029   6.686  0.5545  0.5431 -0.0761
  168SOPE     P18896   0.600   4.064   6.451 -0.2468  0.4389 -0.4043
  168SOPE   O1318897   0.604   4.067   6.306 -1.3774 -0.3230 -0.5068
  168SOPE   O1418898   0.682   3.961   6.522 -0.5066 -0.0126 -0.2612
  168SOPE   O1218899   0.444   4.037   6.495  0.6770  0.4471 -0.9908
  168SOPE   O1118900   0.638   4.202   6.514 -0.1439  0.7482 -0.6452
  168SOPE    C118901   0.766   4.218   6.586  0.0672 -0.3629 -0.8641
  168SOPE    HA18902   0.797   4.325   6.592  0.5086 -0.5416  0.4520
  168SOPE    HB18903   0.847   4.177   6.523  0.3424 -0.3941 -0.4929
  168SOPE    C218904   0.752   4.175   6.742  0.1846  0.4742  0.6911
  168SOPE    HS18905   0.707   4.074   6.732 -0.3934  0.6168  1.7111
  168SOPE   O2118906   0.673   4.271   6.811 -0.2243 -0.0365 -0.1938
  168SOPE   C2118907   0.619   4.224   6.921  0.3675 -0.0452  0.6887
  168SOPE   O2218908   0.603   4.104   6.944  0.2936  0.1624  0.1085
  168SOPE   C2218909   0.580   4.345   7.008 -0.6179  0.0751 -0.1902
  168SOPE   H2R18910   0.488   4.385   6.961 -1.1668  0.1070  0.8831
  168SOPE   H2S18911   0.649   4.431   6.993  0.8106 -1.0159 -0.1555
  168SOPE    C318912   0.897   4.153   6.806  0.1475  0.9641  0.1922
  168SOPE    HX18913   0.947   4.252   6.813  2.2219  0.0699 -1.0310
  168SOPE    HY18914   0.958   4.085   6.743 -0.6786 -0.7382  1.1588
  168SOPE   O3118915   0.879   4.093   6.938  0.3502 -0.2424 -0.2457
  168SOPE   C3118916   0.896   3.962   6.941  0.0025 -0.3596  0.2944
  168SOPE   O3218917   0.938   3.898   6.845 -0.4575 -0.0806 -0.0415
  168SOPE   C3218918   0.868   3.908   7.081  0.1486 -0.0270  0.2076
  168SOPE   H2X18919   0.890   3.996   7.145 -0.7131  2.6542 -2.9210
  168SOPE   H2Y18920   0.947   3.831   7.098  0.7695  0.3034 -1.0545
  168SOPE   C2318921   0.565   4.322   7.156 -0.2162  0.4303 -0.4189
  168SOPE   H3R18922   0.659   4.347   7.210 -0.9070  2.5497 -0.0930
  168SOPE   H3S18923   0.538   4.217   7.179 -0.6224  0.8115  0.9828
  168SOPE   C2418924   0.447   4.401   7.209  0.0191  0.2135 -0.2051
  168SOPE   H4R18925   0.470   4.510   7.211  0.0645  0.1960  0.6270
  168SOPE   H4S18926   0.357   4.400   7.143  0.7564  2.1205 -1.3124
  168SOPE   C2518927   0.395   4.359   7.354 -0.4075 -0.4864 -0.4592
  168SOPE   H5R18928   0.367   4.254   7.375 -0.6942  0.2576  4.0029
  168SOPE   H5S18929   0.486   4.375   7.416 -0.7467  0.3152 -0.1604
  168SOPE   C2618930   0.281   4.441   7.411 -0.4583  0.1363  0.1672
  168SOPE   H6R18931   0.307   4.549   7.404  0.1672 -0.0685 -0.8658
  168SOPE   H6S18932   0.189   4.429   7.350 -0.5823  2.0220 -0.0700
  168SOPE   C2718933   0.256   4.416   7.559  0.6433 -0.1300  1.0213
  168SOPE   H7R18934   0.153   4.452   7.580  0.6738 -0.3068  1.4814
  168SOPE   H7S18935   0.239   4.309   7.582 -2.2946 -0.5605 -2.2155
  168SOPE   C2818936   0.361   4.497   7.641  0.2238  1.0474 -0.2301
  168SOPE   H8R18937   0.465   4.483   7.605  1.3582  0.0649  3.0404
  168SOPE   H8S18938   0.343   4.606   7.626  1.1571  1.3144  0.4944
  168SOPE   C2918939   0.373   4.456   7.788  0.1350 -0.1252 -0.4412
  168SOPE   H9118940   0.456   4.387   7.808 -1.4589 -2.1887 -0.5455
  168SOPE  C21018941   0.292   4.499   7.891  0.0935 -0.2178 -0.0215
  168SOPE  H10118942   0.321   4.459   7.990  1.1707 -0.5373 -0.4470
  168SOPE  C21118943   0.187   4.605   7.879  0.2385 -0.1968  0.0040
  168SOPE  H11R18944   0.085   4.567   7.899 -0.3450 -0.1842 -2.6844
  168SOPE  H11S18945   0.173   4.630   7.772 -1.7462 -1.5125 -0.0898
  168SOPE  C21218946   0.226   4.744   7.936  0.3212 -0.2744 -0.2216
  168SOPE  H12R18947   0.190   4.824   7.867 -0.6926 -1.6585 -1.3529
  168SOPE  H12S18948   0.336   4.761   7.937  0.4976 -0.4385 -3.6044
  168SOPE  C21318949   0.157   4.785   8.072  0.0821 -1.2213 -0.0778
  168SOPE  H13R18950   0.049   4.761   8.063 -0.2860 -0.4156  1.6828
  168SOPE  H13S18951   0.167   4.895   8.085 -2.3845 -0.7728 -1.2788
  168SOPE  C21418952   0.215   4.701   8.186 -0.4725  0.9487 -0.1500
  168SOPE  H14R18953   0.193   4.596   8.156  0.7874  0.5446  0.2668
  168SOPE  H14S18954   0.160   4.716   8.281  3.0037 -2.5097  2.7449
  168SOPE  C21518955   0.367   4.718   8.200 -0.4889  0.1585  0.2388
  168SOPE  H15R18956   0.402   4.817   8.162 -0.0655 -1.5510 -4.4164
  168SOPE  H15S18957   0.421   4.636   8.149 -1.0157 -0.1069  0.1009
  168SOPE  C21618958   0.419   4.705   8.342  0.3058  0.4448 -0.3738
  168SOPE  H16R18959   0.363   4.779   8.402  0.4072  0.5051 -0.3530
  168SOPE  H16S18960   0.523   4.744   8.351  0.1894  0.2696  2.8056
  168SOPE  C21718961   0.405   4.564   8.404 -0.2674 -0.2290 -0.4457
  168SOPE  H17R18962   0.487   4.493   8.382  2.4486  1.2901  3.6876
  168SOPE  H17S18963   0.314   4.515   8.364 -0.4586  0.9313 -1.4896
  168SOPE  C21818964   0.386   4.577   8.557  0.1851 -0.0483 -0.6806
  168SOPE  H18R18965   0.367   4.480   8.607 -1.2185 -0.0009 -1.0801
  168SOPE  H18S18966   0.295   4.634   8.584 -1.6311 -3.1363  0.2217
  168SOPE  H18T18967   0.471   4.633   8.602 -2.6062  3.6443  0.4945
  168SOPE   C3318968   0.723   3.844   7.096  0.0910 -0.4297  0.6173
  168SOPE   H3X18969   0.698   3.776   7.012 -3.3971  1.2673  0.1317
  168SOPE   H3Y18970   0.656   3.933   7.100  1.1773  0.3934  1.2395
  168SOPE   C3418971   0.707   3.756   7.222 -0.4766 -0.4324  0.0304
  168SOPE   H4X18972   0.777   3.672   7.206  0.4333  0.3925 -0.4226
  168SOPE   H4Y18973   0.599   3.728   7.223 -0.1758 -1.6075  0.1735
  168SOPE   C3518974   0.756   3.827   7.353 -0.2227 -0.0788 -0.1023
  168SOPE   H5X18975   0.698   3.921   7.368  1.6930  1.1885 -0.2597
  168SOPE   H5Y18976   0.860   3.864   7.340 -0.9280  1.0781 -3.2884
  168SOPE   C3618977   0.732   3.737   7.471  0.7964  0.8428  0.0711
  168SOPE   H6X18978   0.743   3.639   7.421  0.6604  0.3996  0.8919
  168SOPE   H6Y18979   0.628   3.744   7.510  0.4368  1.8852 -1.0029
  168SOPE   C3718980   0.820   3.758   7.593  0.7583  0.6142  0.4646
  168SOPE   H7X18981   0.846   3.865   7.602  0.7954  0.4784  2.4617
  168SOPE   H7Y18982   0.914   3.700   7.578  0.1666 -0.0386 -0.8972
  168SOPE   C3818983   0.749   3.717   7.718 -0.2639 -0.3220 -0.5869
  168SOPE   H8X18984   0.728   3.608   7.726 -0.7069 -0.1304  1.3040
  168SOPE   H8Y18985   0.654   3.774   7.722  0.2928  0.6340 -0.6728
  168SOPE   C3918986   0.834   3.762   7.841 -0.3660 -0.4474  0.6112
  168SOPE   H9X18987   0.874   3.866   7.832 -1.2387 -0.2663 -2.0884
  168SOPE   H9Y18988   0.923   3.696   7.853 -1.0188 -1.1998  1.3834
  168SOPE  C31018989   0.749   3.744   7.973 -0.4372  0.1573  1.0924
  168SOPE  H10X18990   0.697   3.645   7.972  0.4288 -0.3002  0.1220
  168SOPE  H10Y18991   0.685   3.835   7.979 -2.9762 -1.3574 -0.6379
  168SOPE  C31118992   0.838   3.769   8.097 -0.3199  0.1107  0.0052
  168SOPE  H11X18993   0.909   3.852   8.078 -3.2201  2.7736 -0.0011
  168SOPE  H11Y18994   0.887   3.670   8.112 -0.8306 -0.2255 -0.4992
  168SOPE  C31218995   0.768   3.808   8.225  0.1074 -0.3205  0.4799
  168SOPE  H12X18996   0.735   3.913   8.214 -0.1517 -0.6061 -2.3100
  168SOPE  H12Y18997   0.849   3.808   8.301 -1.0592 -0.2716  1.7514
  168SOPE  C31318998   0.656   3.714   8.274  0.3807  0.3959  0.6536
  168SOPE  H13X18999   0.692   3.612   8.300 -0.8680 -0.4309 -0.6665
  168SOPE  H13Y19000   0.586   3.702   8.189  0.8171 -2.2000  0.5754
  168SOPE  C31419001   0.597   3.764   8.400  0.6529  0.0912  0.2466
  168SOPE  H14X19002   0.567   3.870   8.381 -0.0159 -0.0942  0.2356
  168SOPE  H14Y19003   0.673   3.753   8.480 -0.0762  0.2955  0.9900
  168SOPE  C31519004   0.480   3.663   8.437  0.2536 -0.2864 -0.4332
  168SOPE  H15X19005   0.415   3.702   8.519  0.4610 -0.6642 -0.0864
  168SOPE  H15Y19006   0.521   3.570   8.480  3.7114  2.0110  1.7133
  168SOPE  C31619007   0.387   3.623   8.322  0.4497 -0.1507  0.2864
  168SOPE  H16X19008   0.440   3.571   8.241  1.2688 -2.0660  1.9627
  168SOPE  H16Y19009   0.354   3.725   8.292 -2.3945 -0.5873  1.5332
  168SOPE  C31719010   0.255   3.546   8.363  0.0569  0.3382  0.0468
  168SOPE  H17X19011   0.168   3.571   8.298  0.3655 -1.6416 -1.2009
  168SOPE  H17Y19012   0.233   3.573   8.469  1.7166  1.5641  0.1238
  168SOPE  C31819013   0.271   3.399   8.355 -0.5464  0.1608  0.1092
  168SOPE  H18X19014   0.179   3.349   8.392 -1.3148  2.5247  1.5987
  168SOPE  H18Y19015   0.358   3.376   8.420 -0.1576 -0.6535 -0.6700
  168SOPE  H18Z19016   0.294   3.372   8.249 -0.9504  3.3328 -0.8890
  169SOPE     N19017   2.121   6.654   6.288 -0.2453  0.4754 -0.6878
  169SOPE   HN119018   2.049   6.635   6.215 -0.6102 -0.2465 -0.1495
  169SOPE   HN219019   2.078   6.675   6.380  2.2398 -4.2557  1.9609
  169SOPE   HN319020   2.179   6.739   6.269  0.5064  0.2355  0.4338
  169SOPE   C1219021   2.225   6.543   6.309 -0.0473 -0.5766  0.4140
  169SOPE  H12A19022   2.277   6.549   6.211  0.4556  0.2337  0.7189
  169SOPE  H12B19023   2.172   6.446   6.319  3.2335 -2.3422  2.6767
  169SOPE   C1119024   2.315   6.582   6.417 -0.1541 -0.6651 -0.1950
  169SOPE  H11A19025   2.389   6.502   6.435  1.4125  0.2873 -2.0541
  169SOPE  H11B19026   2.264   6.590   6.515 -0.6626 -1.0659 -0.4233
  169SOPE     P19027   2.525   6.743   6.459 -0.1851  0.0819 -0.0799
  169SOPE   O1319028   2.567   6.864   6.389  0.1583 -0.0979  0.5268
  169SOPE   O1419029   2.623   6.636   6.462  0.2595  0.1804  0.2244
  169SOPE   O1219030   2.389   6.701   6.387 -0.0186  0.8939  0.0346
  169SOPE   O1119031   2.483   6.765   6.603  0.7221 -0.4591 -0.3785
  169SOPE    C119032   2.360   6.825   6.639  0.2460 -0.5055  1.3294
  169SOPE    HA19033   2.277   6.789   6.575  1.0740 -0.4347  0.1765
  169SOPE    HB19034   2.366   6.935   6.637  1.4488 -0.5154 -2.4322
  169SOPE    C219035   2.314   6.777   6.779 -0.2258  0.2510 -0.1181
  169SOPE    HS19036   2.223   6.831   6.812  0.3024  1.3970 -0.4587
  169SOPE   O2119037   2.419   6.802   6.875  0.4594  0.3547  0.2113
  169SOPE   C2119038   2.435   6.925   6.909 -0.2154  0.3681  0.4258
  169SOPE   O2219039   2.364   7.017   6.871  0.9633  0.2366  0.4054
  169SOPE   C2219040   2.550   6.940   7.012  0.2342  0.1135 -0.5373
  169SOPE   H2R19041   2.598   7.039   6.994  1.6017 -0.1893  1.1827
  169SOPE   H2S19042   2.625   6.863   6.985  1.5380  0.8257  0.8740
  169SOPE    C319043   2.288   6.624   6.772  0.2690  0.0240  0.0887
  169SOPE    HX19044   2.371   6.589   6.708  0.3752  0.1410  0.1628
  169SOPE    HY19045   2.194   6.617   6.713 -0.1177 -0.0311  0.6939
  169SOPE   O3119046   2.290   6.554   6.893 -0.3802 -0.2471  0.1953
  169SOPE   C3119047   2.177   6.559   6.960  0.3514  0.5263  0.3181
  169SOPE   O3219048   2.079   6.632   6.937 -0.1253 -0.2609 -0.0298
  169SOPE   C3219049   2.188   6.458   7.079  0.3950 -0.2974  0.1197
  169SOPE   H2X19050   2.275   6.392   7.056  0.5029 -0.0894 -0.0757
  169SOPE   H2Y19051   2.093   6.402   7.093 -0.3602  1.2694  1.5267
  169SOPE   C2319052   2.506   6.922   7.162 -0.3697 -0.0460  0.9028
  169SOPE   H3R19053   2.457   6.823   7.171 -2.1241  0.6953  0.0410
  169SOPE   H3S19054   2.427   6.998   7.180  0.0593  1.3797 -2.4999
  169SOPE   C2419055   2.629   6.934   7.248  0.4189 -0.0401  0.1934
  169SOPE   H4R19056   2.681   6.836   7.243 -2.1771 -1.4197 -2.6051
  169SOPE   H4S19057   2.695   7.014   7.208 -1.1847  1.0386 -0.3827
  169SOPE   C2519058   2.620   6.964   7.399 -0.1229 -0.0977  0.3247
  169SOPE   H5R19059   2.544   7.042   7.421  1.8069  1.3543  2.3114
  169SOPE   H5S19060   2.574   6.873   7.443  0.1720 -1.3930 -1.9400
  169SOPE   C2619061   2.748   6.993   7.461 -0.7658 -0.2744 -0.5666
  169SOPE   H6R19062   2.827   6.929   7.417 -2.3824 -0.8720 -2.7706
  169SOPE   H6S19063   2.786   7.093   7.432  1.4837 -0.5457  1.1436
  169SOPE   C2719064   2.756   6.977   7.618  0.0023 -0.5646  0.0348
  169SOPE   H7R19065   2.690   6.896   7.656 -0.8096 -0.2200 -0.6210
  169SOPE   H7S19066   2.863   6.957   7.642  0.5553 -0.7774 -2.3217
  169SOPE   C2819067   2.715   7.105   7.699 -0.2527 -0.1056 -0.1026
  169SOPE   H8R19068   2.611   7.124   7.667 -1.0657  0.0895  2.3943
  169SOPE   H8S19069   2.713   7.092   7.810  1.0790  3.0675  0.4117
  169SOPE   C2919070   2.803   7.224   7.683 -0.5805  0.1398  0.0519
  169SOPE   H9119071   2.865   7.222   7.592  1.4831  2.6330  1.2982
  169SOPE  C21019072   2.845   7.314   7.773 -0.2118  0.0831 -0.6098
  169SOPE  H10119073   2.929   7.380   7.749  1.0644 -1.3123 -0.1614
  169SOPE  C21119074   2.803   7.308   7.919 -0.4650 -0.8517  0.5958
  169SOPE  H11R19075   2.888   7.278   7.984  1.6358  2.5887 -0.2961
  169SOPE  H11S19076   2.720   7.238   7.943  0.1859 -1.4012  1.2789
  169SOPE  C21219077   2.754   7.453   7.955 -0.3035  0.7916 -0.4837
  169SOPE  H12R19078   2.720   7.460   8.061  1.1102  0.3977  0.0219
  169SOPE  H12S19079   2.656   7.471   7.907 -0.6238 -0.2644 -0.2440
  169SOPE  C21319080   2.857   7.564   7.939  0.7319 -0.6015  0.1941
  169SOPE  H13R19081   2.820   7.664   7.970  0.7904 -1.0660  1.8672
  169SOPE  H13S19082   2.882   7.556   7.831 -1.3971 -0.5909 -0.3498
  169SOPE  C21419083   2.991   7.550   8.019 -0.5221 -0.4386 -0.2520
  169SOPE  H14R19084   3.031   7.450   7.989  0.5786  0.1457 -0.7932
  169SOPE  H14S19085   2.957   7.542   8.125  1.3810  1.7661  0.6016
  169SOPE  C21519086   3.082   7.671   8.014 -0.1062 -0.5220  0.2815
  169SOPE  H15R19087   3.173   7.650   8.073  0.8390  0.5963 -0.7295
  169SOPE  H15S19088   3.033   7.761   8.055  1.9238 -0.5043  2.9117
  169SOPE  C21619089   3.139   7.689   7.870 -0.4796  0.0208 -0.5063
  169SOPE  H16R19090   3.056   7.735   7.813 -2.4678  0.1417  2.3344
  169SOPE  H16S19091   3.167   7.589   7.830 -0.5860 -0.2033 -0.0285
  169SOPE  C21719092   3.255   7.789   7.860  0.7311  0.3618  0.0389
  169SOPE  H17R19093   3.292   7.792   7.755  3.0332 -0.1536  0.7745
  169SOPE  H17S19094   3.339   7.765   7.929 -1.4885 -0.2375  2.7363
  169SOPE  C21819095   3.205   7.937   7.891 -0.5247  0.3204  0.0275
  169SOPE  H18R19096   3.286   8.013   7.900  0.8033 -1.0664  0.0798
  169SOPE  H18S19097   3.152   7.943   7.989 -0.1868 -3.1412  0.5498
  169SOPE  H18T19098   3.137   7.980   7.814 -0.7204  0.2843  0.1794
  169SOPE   C3319099   2.212   6.538   7.204 -0.8187  0.1468  0.7333
  169SOPE   H3X19100   2.126   6.609   7.209 -1.6221 -0.8040  0.8087
  169SOPE   H3Y19101   2.304   6.600   7.206 -0.5750 -0.2169  0.9304
  169SOPE   C3419102   2.200   6.449   7.329 -0.0523 -0.0125 -0.5989
  169SOPE   H4X19103   2.253   6.353   7.312  1.3768  0.2140  1.9599
  169SOPE   H4Y19104   2.093   6.422   7.337 -0.1647  0.1480 -1.4502
  169SOPE   C3519105   2.241   6.529   7.451  0.2622 -0.1993  0.3063
  169SOPE   H5X19106   2.347   6.561   7.439  0.0776 -0.2737 -1.7953
  169SOPE   H5Y19107   2.234   6.460   7.538  1.3428 -1.1480 -0.3330
  169SOPE   C3619108   2.153   6.647   7.498  0.0523  0.2796  0.1209
  169SOPE   H6X19109   2.055   6.601   7.525 -0.2479  0.8335 -0.0056
  169SOPE   H6Y19110   2.133   6.723   7.419  0.7890  1.1010  0.7093
  169SOPE   C3719111   2.218   6.732   7.611  0.5037  0.1904 -0.7068
  169SOPE   H7X19112   2.291   6.666   7.663  0.6394  1.9784  1.5606
  169SOPE   H7Y19113   2.140   6.762   7.684 -1.3030  0.2660 -2.5875
  169SOPE   C3819114   2.282   6.859   7.562 -0.9147  0.1232  0.4446
  169SOPE   H8X19115   2.322   6.832   7.462 -1.2660 -0.4934  0.4671
  169SOPE   H8Y19116   2.203   6.934   7.539 -0.4784  0.5387  0.2866
  169SOPE   C3919117   2.372   6.933   7.660  0.3728  0.5272 -0.3333
  169SOPE   H9X19118   2.419   7.021   7.612 -0.4961  1.6748  0.8335
  169SOPE   H9Y19119   2.455   6.864   7.685  0.6387  0.8692 -0.2677
  169SOPE  C31019120   2.301   6.986   7.786  0.6499 -0.3776  0.0376
  169SOPE  H10X19121   2.240   6.905   7.833  1.3449 -0.5753  0.6270
  169SOPE  H10Y19122   2.239   7.071   7.754  2.2233  0.1971 -1.6191
  169SOPE  C31119123   2.408   7.057   7.882  0.0263  0.5086 -0.4725
  169SOPE  H11X19124   2.444   7.149   7.830  0.3657  0.2143 -0.7578
  169SOPE  H11Y19125   2.494   6.988   7.883 -1.2533 -1.1335  0.6334
  169SOPE  C31219126   2.354   7.077   8.026  0.4951 -0.4049 -0.5248
  169SOPE  H12X19127   2.335   6.979   8.073  3.2292 -1.5361 -1.5607
  169SOPE  H12Y19128   2.266   7.141   8.005  1.2455  0.5191 -0.9957
  169SOPE  C31319129   2.453   7.159   8.125 -0.4246 -0.0229  0.2949
  169SOPE  H13X19130   2.396   7.191   8.215  1.0808  1.6288  0.7286
  169SOPE  H13Y19131   2.485   7.249   8.069 -0.8916  0.7480  1.2450
  169SOPE  C31419132   2.587   7.100   8.178 -0.2964 -0.7196 -0.3022
  169SOPE  H14X19133   2.651   7.069   8.093 -0.8020 -0.5851 -0.7427
  169SOPE  H14Y19134   2.570   7.017   8.250  2.0532 -0.2107  0.9250
  169SOPE  C31519135   2.666   7.204   8.264  0.9088 -1.0711  0.7266
  169SOPE  H15X19136   2.584   7.242   8.329  1.8330 -0.7697  1.7301
  169SOPE  H15Y19137   2.720   7.282   8.207  1.7467 -0.7155  1.9698
  169SOPE  C31619138   2.773   7.130   8.338 -0.2964 -0.3222  0.2144
  169SOPE  H16X19139   2.836   7.079   8.262  0.5895 -2.0059  1.9886
  169SOPE  H16Y19140   2.726   7.054   8.404 -1.1578  0.3041  0.3404
  169SOPE  C31719141   2.861   7.214   8.425 -0.7400 -0.4565 -0.4208
  169SOPE  H17X19142   2.913   7.158   8.505  0.4504  0.2585 -0.6820
  169SOPE  H17Y19143   2.816   7.297   8.484 -0.4315 -1.1838  0.8691
  169SOPE  C31819144   2.982   7.272   8.351  0.1091  0.1967 -0.5127
  169SOPE  H18X19145   2.954   7.288   8.245 -1.4294  2.1057  0.1302
  169SOPE  H18Y19146   3.061   7.195   8.343 -0.4117 -0.5609  1.2445
  169SOPE  H18Z19147   3.031   7.361   8.397 -0.6701  0.5284 -0.3034
  170SOPE     N19148   3.623   3.213   6.265  0.1569  0.1606  0.2144
  170SOPE   HN119149   3.529   3.217   6.221 -0.3118 -0.5154  1.1202
  170SOPE   HN219150   3.668   3.306   6.263 -1.2189  0.8538 -0.0480
  170SOPE   HN319151   3.680   3.145   6.210  0.7180  0.4434  0.4414
  170SOPE   C1219152   3.616   3.166   6.406 -0.0925 -0.7326 -0.5277
  170SOPE  H12A19153   3.722   3.151   6.436 -0.5229 -2.1618  0.3415
  170SOPE  H12B19154   3.563   3.069   6.413 -0.4050 -0.5270 -0.0294
  170SOPE   C1119155   3.534   3.270   6.486 -0.0811  0.4572  0.1001
  170SOPE  H11A19156   3.572   3.374   6.489 -0.3805  0.6725 -2.1487
  170SOPE  H11B19157   3.543   3.232   6.590 -2.9909  1.4179  0.7913
  170SOPE     P19158   3.324   3.386   6.389 -0.8242 -0.1696 -0.5056
  170SOPE   O1319159   3.200   3.339   6.326  0.3142  0.0690 -0.2405
  170SOPE   O1419160   3.426   3.451   6.301 -0.0380 -0.2194 -0.0787
  170SOPE   O1219161   3.392   3.255   6.457  0.4985  0.1389  0.3206
  170SOPE   O1119162   3.294   3.481   6.514 -0.1027 -0.1724 -0.2843
  170SOPE    C119163   3.210   3.430   6.623  0.0673 -0.4482  0.0821
  170SOPE    HA19164   3.241   3.324   6.637  2.8831 -0.3447 -3.6765
  170SOPE    HB19165   3.104   3.426   6.591  0.3379  0.3787 -0.9750
  170SOPE    C219166   3.221   3.515   6.754 -0.9127  0.6482 -0.3532
  170SOPE    HS19167   3.220   3.626   6.743  1.8794  0.8370  0.4634
  170SOPE   O2119168   3.335   3.460   6.828  0.5526 -0.0789  0.1643
  170SOPE   C2119169   3.452   3.526   6.807 -0.1768  0.7347  0.1778
  170SOPE   O2219170   3.466   3.632   6.748  0.0118  0.1724  0.1320
  170SOPE   C2219171   3.573   3.449   6.863  0.6558 -0.5829  0.3782
  170SOPE   H2R19172   3.661   3.509   6.832  0.0367 -0.0985 -0.4889
  170SOPE   H2S19173   3.584   3.346   6.822  0.9327 -1.2447  2.0210
  170SOPE    C319174   3.097   3.484   6.840  0.2225 -0.4275 -0.2301
  170SOPE    HX19175   3.084   3.374   6.846 -0.8511 -0.4656 -2.1750
  170SOPE    HY19176   3.003   3.530   6.801  1.0007  1.4465 -0.0406
  170SOPE   O3119177   3.118   3.523   6.980  0.6586  0.0716  0.8595
  170SOPE   C3119178   3.093   3.652   7.001 -0.4507 -0.0037  0.0065
  170SOPE   O3219179   3.054   3.728   6.915 -0.3934 -0.0482 -0.0441
  170SOPE   C3219180   3.116   3.685   7.147 -0.1822 -0.3167 -0.1837
  170SOPE   H2X19181   3.155   3.592   7.194 -1.7219 -0.1806  1.4991
  170SOPE   H2Y19182   3.015   3.717   7.181 -0.0258 -0.6229  0.5986
  170SOPE   C2319183   3.573   3.443   7.018  0.6514 -0.0310  0.6842
  170SOPE   H3R19184   3.522   3.531   7.061 -0.5669 -0.7550  0.7798
  170SOPE   H3S19185   3.682   3.448   7.040  1.2525  0.7462 -2.0818
  170SOPE   C2419186   3.500   3.314   7.072 -0.1132  0.0062 -0.3891
  170SOPE   H4R19187   3.391   3.321   7.054 -0.0103  0.9950 -0.6914
  170SOPE   H4S19188   3.529   3.222   7.017  0.1740 -1.2476  1.7533
  170SOPE   C2519189   3.526   3.276   7.216  0.2773 -0.3470  0.2346
  170SOPE   H5R19190   3.482   3.178   7.243  0.7078 -0.7164 -0.3698
  170SOPE   H5S19191   3.637   3.273   7.217  0.2659 -1.3022  1.1852
  170SOPE   C2619192   3.476   3.381   7.320  0.1991 -0.1134 -0.4160
  170SOPE   H6R19193   3.527   3.369   7.417  0.9889  0.0007 -0.8072
  170SOPE   H6S19194   3.525   3.477   7.290 -1.9597  1.5223  0.9933
  170SOPE   C2719195   3.330   3.399   7.347  0.3858 -0.1564 -0.5325
  170SOPE   H7R19196   3.302   3.493   7.398  0.3684 -0.5876  0.2719
  170SOPE   H7S19197   3.278   3.412   7.250 -1.6500  1.2488  0.6727
  170SOPE   C2819198   3.265   3.281   7.423 -0.1224 -0.5031 -0.6821
  170SOPE   H8R19199   3.280   3.191   7.359 -0.7862 -1.7194  0.7962
  170SOPE   H8S19200   3.328   3.254   7.511  0.4617 -0.2146 -1.0060
  170SOPE   C2919201   3.119   3.300   7.458  0.0949  0.6387 -0.3357
  170SOPE   H9119202   3.049   3.261   7.382  2.0560 -0.2534 -1.7564
  170SOPE  C21019203   3.071   3.345   7.574 -0.7650  0.1016  0.0078
  170SOPE  H10119204   2.964   3.364   7.591 -0.5033  0.0640  1.8789
  170SOPE  C21119205   3.152   3.384   7.700  0.3122 -0.0574  0.4940
  170SOPE  H11R19206   3.117   3.483   7.735 -0.4033  0.3763 -1.3311
  170SOPE  H11S19207   3.259   3.392   7.669  0.3222 -1.7813 -0.0311
  170SOPE  C21219208   3.144   3.277   7.815  0.0766  0.3394 -0.5080
  170SOPE  H12R19209   3.159   3.182   7.761 -0.8320  0.4724 -1.0043
  170SOPE  H12S19210   3.041   3.269   7.854  0.7257 -0.1490  1.2062
  170SOPE  C21319211   3.254   3.295   7.928  0.0364 -0.4973 -0.2998
  170SOPE  H13R19212   3.358   3.285   7.892  0.1199  0.6984 -0.4316
  170SOPE  H13S19213   3.240   3.200   7.985  2.6237 -1.7317 -1.5635
  170SOPE  C21419214   3.231   3.416   8.017 -0.4027 -1.4504  0.4040
  170SOPE  H14R19215   3.144   3.388   8.080  0.1726 -0.4109  1.6983
  170SOPE  H14S19216   3.214   3.506   7.955 -1.3969  0.7579  3.6482
  170SOPE  C21519217   3.358   3.461   8.104  0.0198 -0.8665 -0.4137
  170SOPE  H15R19218   3.336   3.569   8.119 -2.2116 -1.1162 -1.5632
  170SOPE  H15S19219   3.449   3.466   8.041  0.2549  1.8207 -0.0217
  170SOPE  C21619220   3.361   3.384   8.229 -0.5418  0.7228 -0.1666
  170SOPE  H16R19221   3.402   3.284   8.203  0.5404  0.8557  0.9177
  170SOPE  H16S19222   3.254   3.373   8.257 -0.7401 -1.2686 -1.4898
  170SOPE  C21719223   3.448   3.452   8.337 -0.3255  1.1000 -0.0293
  170SOPE  H17R19224   3.426   3.560   8.337 -1.8646  0.8246  1.1591
  170SOPE  H17S19225   3.553   3.445   8.301 -0.6955  0.5325 -1.0449
  170SOPE  C21819226   3.436   3.387   8.482 -0.1833 -0.7826  0.6298
  170SOPE  H18R19227   3.327   3.370   8.501 -0.2155  1.0382  2.3717
  170SOPE  H18S19228   3.476   3.460   8.555 -0.5581  2.1020 -1.8190
  170SOPE  H18T19229   3.487   3.289   8.487  2.2922  0.4036  0.0355
  170SOPE   C3319230   3.214   3.803   7.178  0.8775 -0.0945 -0.4653
  170SOPE   H3X19231   3.160   3.896   7.150  0.4336  0.1691  1.1315
  170SOPE   H3Y19232   3.310   3.814   7.123  0.1203  1.2272 -1.5644
  170SOPE   C3419233   3.236   3.806   7.335 -0.0194  0.2156 -0.2245
  170SOPE   H4X19234   3.300   3.892   7.364 -1.8523  1.6615 -0.2780
  170SOPE   H4Y19235   3.277   3.709   7.371 -0.0790 -0.6230 -2.2799
  170SOPE   C3519236   3.101   3.834   7.403  0.0679  0.1650 -0.3266
  170SOPE   H5X19237   3.022   3.765   7.366 -0.2336  0.4004 -0.1340
  170SOPE   H5Y19238   3.074   3.941   7.385 -0.4328  0.8628  3.7217
  170SOPE   C3619239   3.106   3.814   7.556  0.1164 -0.4381  0.2670
  170SOPE   H6X19240   3.137   3.708   7.571  1.3559 -0.4308 -1.8855
  170SOPE   H6Y19241   3.009   3.819   7.611  0.1696 -2.8538  0.7310
  170SOPE   C3719242   3.206   3.905   7.624  0.3094 -0.6273 -0.7326
  170SOPE   H7X19243   3.162   4.005   7.643 -1.1608 -1.1674 -1.1183
  170SOPE   H7Y19244   3.299   3.909   7.563  1.6479 -1.9397  1.1050
  170SOPE   C3819245   3.247   3.851   7.762  0.0282 -1.0858  0.3218
  170SOPE   H8X19246   3.351   3.879   7.790  0.1927 -1.1754 -0.1862
  170SOPE   H8Y19247   3.237   3.741   7.748  1.7000 -1.1559 -0.6722
  170SOPE   C3919248   3.162   3.911   7.868  0.5747 -0.4530  0.0699
  170SOPE   H9X19249   3.056   3.903   7.838  0.1084 -0.1924  1.5508
  170SOPE   H9Y19250   3.175   4.020   7.885 -0.0355 -0.3694  0.0114
  170SOPE  C31019251   3.183   3.844   8.005  0.4467  0.3248  0.0512
  170SOPE  H10X19252   3.189   3.734   7.996  1.5325  0.3134  0.7359
  170SOPE  H10Y19253   3.089   3.861   8.062 -0.8656 -2.9134 -0.9198
  170SOPE  C31119254   3.297   3.896   8.076 -0.0158  0.5180 -0.5938
  170SOPE  H11X19255   3.290   4.007   8.067  0.3394  0.8107  1.8960
  170SOPE  H11Y19256   3.395   3.866   8.034 -0.4009 -1.2935 -0.2966
  170SOPE  C31219257   3.293   3.860   8.227 -0.0348 -0.2166 -0.5285
  170SOPE  H12X19258   3.282   3.752   8.249  0.2244 -0.3100 -0.8596
  170SOPE  H12Y19259   3.207   3.918   8.268 -0.0541 -1.0356  0.6404
  170SOPE  C31319260   3.427   3.905   8.293  0.2093  0.5625  0.1325
  170SOPE  H13X19261   3.452   4.008   8.260  0.8047  0.4459  0.2114
  170SOPE  H13Y19262   3.510   3.837   8.265  0.6958  0.8966  0.7470
  170SOPE  C31419263   3.413   3.918   8.448 -0.0451 -1.0910 -0.1267
  170SOPE  H14X19264   3.376   3.822   8.490 -3.0984 -0.4328 -1.0213
  170SOPE  H14Y19265   3.340   4.001   8.462 -0.9957 -1.6002 -1.7619
  170SOPE  C31519266   3.552   3.947   8.508  0.1657  0.0984  0.3342
  170SOPE  H15X19267   3.550   3.988   8.611 -0.5856  2.7465 -0.6503
  170SOPE  H15Y19268   3.615   4.010   8.442  0.7451 -0.0006  0.7799
  170SOPE  C31619269   3.639   3.819   8.507  0.3627  0.6172 -0.1911
  170SOPE  H16X19270   3.677   3.799   8.405 -0.4594 -0.8613 -0.2274
  170SOPE  H16Y19271   3.577   3.731   8.534 -1.1569  1.8489  0.5016
  170SOPE  C31719272   3.766   3.827   8.585 -1.0361 -0.3464 -0.1393
  170SOPE  H17X19273   3.738   3.847   8.691  1.2500  1.4683  0.1987
  170SOPE  H17Y19274   3.812   3.918   8.542 -1.3604  0.0292  0.3048
  170SOPE  C31819275   3.859   3.702   8.568  0.2595  0.0466  0.5056
  170SOPE  H18X19276   3.887   3.692   8.461  2.1157  2.6800  0.6491
  170SOPE  H18Y19277   3.815   3.607   8.605 -0.9776 -0.6309 -2.4045
  170SOPE  H18Z19278   3.950   3.721   8.629  0.9204 -1.8247  0.1511
  171SOPE     N19279   4.196   0.920   6.197 -0.2271 -0.3155 -0.1227
  171SOPE   HN119280   4.150   0.885   6.111 -0.1259 -2.9324  0.8077
  171SOPE   HN219281   4.285   0.867   6.197 -1.9385 -3.4120  0.5075
  171SOPE   HN319282   4.139   0.881   6.275 -0.3888 -0.0273 -0.0946
  171SOPE   C1219283   4.218   1.065   6.230 -0.0702 -0.1010  0.1898
  171SOPE  H12A19284   4.118   1.111   6.247  0.2765  1.3381 -1.3475
  171SOPE  H12B19285   4.233   1.123   6.136  1.0104  2.1476  1.6704
  171SOPE   C1119286   4.325   1.092   6.340 -0.6080 -0.1803 -0.3953
  171SOPE  H11A19287   4.259   1.090   6.429 -0.6535  0.6073 -0.4042
  171SOPE  H11B19288   4.369   1.193   6.326  1.3657 -0.4441  2.7865
  171SOPE     P19289   4.571   1.013   6.406  0.2119  0.3050 -0.2175
  171SOPE   O1319290   4.576   1.137   6.483 -0.2958 -0.9292 -0.2386
  171SOPE   O1419291   4.660   1.014   6.285 -0.4755 -0.5757 -0.1358
  171SOPE   O1219292   4.433   0.991   6.348  0.1966  0.5273  0.2679
  171SOPE   O1119293   4.600   0.888   6.503 -0.6395  0.2020  0.0151
  171SOPE    C119294   4.518   0.777   6.472  0.2151  0.4139 -0.1629
  171SOPE    HA19295   4.572   0.682   6.492 -0.0668  0.1278 -0.7370
  171SOPE    HB19296   4.485   0.767   6.367 -0.8218 -0.2289  0.1977
  171SOPE    C219297   4.389   0.779   6.560 -0.3798  0.7831  0.1246
  171SOPE    HS19298   4.347   0.882   6.557 -0.1020  0.8951  0.0864
  171SOPE   O2119299   4.417   0.738   6.690  0.2947 -0.0649 -0.5152
  171SOPE   C2119300   4.422   0.836   6.783  0.3253 -0.0926  0.2086
  171SOPE   O2219301   4.419   0.955   6.764 -0.1476  0.7384  0.2081
  171SOPE   C2219302   4.461   0.777   6.917 -0.1660 -0.6629 -1.0088
  171SOPE   H2R19303   4.510   0.679   6.901  2.4298  0.6769 -1.7987
  171SOPE   H2S19304   4.366   0.767   6.974  0.1616  0.0079 -0.3191
  171SOPE    C319305   4.286   0.675   6.503  0.4564 -0.7778 -0.4088
  171SOPE    HX19306   4.341   0.580   6.519  0.9564 -0.0778  2.6940
  171SOPE    HY19307   4.274   0.703   6.396  1.6614  0.1243 -0.3220
  171SOPE   O3119308   4.161   0.679   6.579  0.1920 -0.5925 -0.0683
  171SOPE   C3119309   4.063   0.762   6.531 -0.3526  0.2441  0.6753
  171SOPE   O3219310   4.075   0.823   6.426  0.3727 -0.4539 -0.3624
  171SOPE   C3219311   3.951   0.785   6.633 -0.3763 -0.0701 -0.0077
  171SOPE   H2X19312   3.971   0.727   6.726 -1.6014  1.1866  1.0781
  171SOPE   H2Y19313   3.857   0.752   6.583 -0.8520 -2.0011  2.0079
  171SOPE   C2319314   4.546   0.867   6.999 -0.3580  0.2995  0.0733
  171SOPE   H3R19315   4.503   0.968   7.012 -1.1469 -0.2101  1.5644
  171SOPE   H3S19316   4.638   0.868   6.936 -1.0056  1.5088 -0.8944
  171SOPE   C2419317   4.580   0.803   7.137 -0.3332  0.2499  0.1644
  171SOPE   H4R19318   4.579   0.694   7.113 -2.2263  0.4183 -0.6793
  171SOPE   H4S19319   4.686   0.833   7.152  0.1272 -1.2091  0.0230
  171SOPE   C2519320   4.490   0.835   7.261 -0.8890  0.2550  0.1516
  171SOPE   H5R19321   4.494   0.944   7.283 -1.9201  0.5704 -1.1545
  171SOPE   H5S19322   4.384   0.808   7.245 -0.9558  0.9762 -0.6606
  171SOPE   C2619323   4.543   0.761   7.383 -0.5719  0.2151  0.5978
  171SOPE   H6R19324   4.554   0.652   7.364  0.7316  0.5583 -0.8401
  171SOPE   H6S19325   4.644   0.805   7.398 -0.2298  0.4579 -1.9718
  171SOPE   C2719326   4.455   0.787   7.503  0.1997 -0.2921  0.3153
  171SOPE   H7R19327   4.457   0.895   7.531 -0.3053 -0.5386  1.3587
  171SOPE   H7S19328   4.350   0.754   7.487  0.4233 -0.4116 -1.0073
  171SOPE   C2819329   4.493   0.714   7.634  0.8503 -0.0745  0.7670
  171SOPE   H8R19330   4.411   0.710   7.710 -0.3783 -1.2645 -0.5512
  171SOPE   H8S19331   4.511   0.607   7.611 -0.1120 -0.5947  2.2775
  171SOPE   C2919332   4.618   0.758   7.698 -0.0584  0.3593  0.2924
  171SOPE   H9119333   4.710   0.710   7.660  1.0481  1.6816  1.1665
  171SOPE  C21019334   4.624   0.824   7.816 -0.5205 -1.2320  0.7743
  171SOPE  H10119335   4.722   0.847   7.858 -0.6247  2.1635 -0.5468
  171SOPE  C21119336   4.501   0.868   7.897  0.0560  0.0237 -0.2549
  171SOPE  H11R19337   4.440   0.783   7.934  0.3002  0.3920  1.0482
  171SOPE  H11S19338   4.435   0.932   7.836  0.6970 -0.5349 -1.5592
  171SOPE  C21219339   4.543   0.937   8.032 -0.3951 -0.1536  0.3864
  171SOPE  H12R19340   4.456   0.971   8.091  0.0349  2.0358 -0.1291
  171SOPE  H12S19341   4.600   1.026   7.997 -0.3551 -1.1775 -2.3933
  171SOPE  C21319342   4.623   0.845   8.126  0.0962  0.7111 -0.3683
  171SOPE  H13R19343   4.731   0.864   8.109 -0.2853  2.8460 -0.6226
  171SOPE  H13S19344   4.601   0.741   8.093 -3.7660  1.4790 -0.6574
  171SOPE  C21419345   4.573   0.847   8.276  0.0709  0.2027 -0.0765
  171SOPE  H14R19346   4.462   0.847   8.284 -0.0950 -0.6443 -1.8549
  171SOPE  H14S19347   4.609   0.944   8.317  0.6639  0.2944 -0.7972
  171SOPE  C21519348   4.636   0.735   8.356  0.3542 -0.3053  0.3373
  171SOPE  H15R19349   4.743   0.730   8.328  0.8400 -2.7051  2.2352
  171SOPE  H15S19350   4.588   0.637   8.335  0.4648 -0.3395  0.2408
  171SOPE  C21619351   4.624   0.755   8.512  0.7117 -0.1976 -0.6114
  171SOPE  H16R19352   4.662   0.858   8.526 -0.5433  0.3078 -0.8053
  171SOPE  H16S19353   4.684   0.681   8.569 -0.1128 -0.6134 -0.2668
  171SOPE  C21719354   4.479   0.775   8.560 -0.1638  0.2691 -0.5089
  171SOPE  H17R19355   4.440   0.671   8.564 -2.8459  1.2396  0.5477
  171SOPE  H17S19356   4.412   0.839   8.499 -0.0160  2.1652  1.1883
  171SOPE  C21819357   4.482   0.831   8.703  0.2059  0.0346 -0.0006
  171SOPE  H18R19358   4.542   0.773   8.777 -1.2353  2.1838  3.0760
  171SOPE  H18S19359   4.378   0.841   8.738 -0.0845 -1.2161 -0.4563
  171SOPE  H18T19360   4.525   0.932   8.687 -0.0479 -0.2048 -2.7421
  171SOPE   C3319361   3.932   0.931   6.671  0.4242 -0.1101  0.1299
  171SOPE   H3X19362   3.832   0.927   6.720  0.4857 -0.1847  0.2530
  171SOPE   H3Y19363   3.928   1.006   6.590 -0.9131  2.0587  2.0689
  171SOPE   C3419364   4.030   0.991   6.774 -0.1836  0.0059  0.5130
  171SOPE   H4X19365   3.999   1.092   6.810  0.2426  0.3402 -0.0284
  171SOPE   H4Y19366   4.133   1.009   6.735 -1.1795  0.0214 -2.3153
  171SOPE   C3519367   4.037   0.902   6.902 -0.5224 -0.2863  0.1459
  171SOPE   H5X19368   4.105   0.821   6.871  1.1283  1.8272 -2.2061
  171SOPE   H5Y19369   3.932   0.865   6.908 -1.2113  1.4798 -0.1583
  171SOPE   C3619370   4.089   0.981   7.023  0.3903 -0.3281 -0.3428
  171SOPE   H6X19371   4.010   1.056   7.044 -0.8485 -1.8468  0.6393
  171SOPE   H6Y19372   4.179   1.036   6.987 -0.3277 -0.7267 -2.9170
  171SOPE   C3719373   4.120   0.906   7.155  0.6083 -0.5097 -1.0161
  171SOPE   H7X19374   4.201   0.832   7.141  0.8124 -0.8040  1.2492
  171SOPE   H7Y19375   4.029   0.852   7.190 -0.5844  1.2091 -1.3554
  171SOPE   C3819376   4.167   0.992   7.278 -0.2961  0.6573  1.4243
  171SOPE   H8X19377   4.116   1.090   7.269 -3.2453 -0.9055 -1.4844
  171SOPE   H8Y19378   4.278   0.999   7.279 -0.3732  2.0856  2.0634
  171SOPE   C3919379   4.114   0.933   7.414 -0.9188  0.2983  0.2510
  171SOPE   H9X19380   4.167   0.835   7.417  0.0087  0.6938 -1.7593
  171SOPE   H9Y19381   4.006   0.912   7.399 -1.7242  2.0921  2.8959
  171SOPE  C31019382   4.130   1.029   7.535 -0.0948  0.5321  0.9265
  171SOPE  H10X19383   4.058   1.113   7.534 -0.6530  0.0584  0.1843
  171SOPE  H10Y19384   4.234   1.064   7.522 -0.6720  2.2520  0.7702
  171SOPE  C31119385   4.094   0.956   7.664 -0.2035  0.0049 -0.6196
  171SOPE  H11X19386   4.135   0.853   7.671 -1.1856 -0.3369  0.2568
  171SOPE  H11Y19387   3.983   0.948   7.668 -0.4036  2.2881  0.2443
  171SOPE  C31219388   4.134   1.026   7.796 -0.4471 -0.3084  0.2132
  171SOPE  H12X19389   4.095   1.129   7.798 -0.1449 -0.2004  0.7500
  171SOPE  H12Y19390   4.245   1.038   7.797 -0.2217 -2.0810  0.2405
  171SOPE  C31319391   4.104   0.931   7.910 -0.4565 -0.0096  0.0846
  171SOPE  H13X19392   4.143   0.829   7.888 -0.9829  0.3339 -2.7682
  171SOPE  H13Y19393   3.993   0.925   7.909 -0.5176  0.7330  0.8780
  171SOPE  C31419394   4.137   0.988   8.052 -0.8936 -0.1777 -0.0263
  171SOPE  H14X19395   4.091   1.089   8.059 -1.7489 -0.4856 -0.9746
  171SOPE  H14Y19396   4.248   0.995   8.054 -0.6803 -2.4894 -0.8336
  171SOPE  C31519397   4.060   0.916   8.162 -0.4941 -0.0919 -0.4258
  171SOPE  H15X19398   4.091   0.810   8.156 -0.7644 -0.4619  2.8661
  171SOPE  H15Y19399   3.950   0.931   8.169 -0.2616  0.9175  2.9798
  171SOPE  C31619400   4.121   0.964   8.297  0.1362  0.1496 -0.6989
  171SOPE  H16X19401   4.074   1.061   8.325 -0.5803 -0.2345 -0.5803
  171SOPE  H16Y19402   4.231   0.982   8.287  0.2016  2.0420  2.2513
  171SOPE  C31719403   4.099   0.855   8.406 -0.4843 -0.8462  0.2407
  171SOPE  H17X19404   4.165   0.770   8.378  0.2032  0.2602 -1.6474
  171SOPE  H17Y19405   3.991   0.829   8.405 -0.4246 -1.1711  1.2382
  171SOPE  C31819406   4.123   0.905   8.543 -0.8571  0.6046 -0.4707
  171SOPE  H18X19407   4.207   0.978   8.544 -0.4379  0.1543  1.2294
  171SOPE  H18Y19408   4.117   0.830   8.625  0.3593 -1.2154 -1.9618
  171SOPE  H18Z19409   4.047   0.981   8.572 -1.3450 -0.2917  0.6962
  172SOPE     N19410   6.058   2.333   6.281  0.1144  0.5705 -0.2157
  172SOPE   HN119411   6.023   2.341   6.184  0.2928 -1.4877 -0.4753
  172SOPE   HN219412   6.141   2.394   6.296  0.4750 -0.1076  0.6328
  172SOPE   HN319413   6.087   2.234   6.286  1.1707  0.8333 -0.8889
  172SOPE   C1219414   5.945   2.340   6.381 -0.4095  0.1598 -0.0635
  172SOPE  H12A19415   5.869   2.268   6.344  1.9702 -0.7841 -3.7224
  172SOPE  H12B19416   5.902   2.443   6.381  0.3798  0.5102  1.0146
  172SOPE   C1119417   5.995   2.303   6.519  0.2725  0.1501  0.3533
  172SOPE  H11A19418   5.938   2.353   6.600  1.2167  2.3634 -0.2772
  172SOPE  H11B19419   6.098   2.343   6.537  1.0867 -0.7154 -2.0184
  172SOPE     P19420   5.886   2.075   6.594  0.2188 -0.0255 -0.0828
  172SOPE   O1319421   5.912   1.932   6.605 -0.5014  1.0523 -0.1362
  172SOPE   O1419422   5.762   2.115   6.519 -0.1851  0.3838 -0.5480
  172SOPE   O1219423   6.004   2.158   6.530  0.2446 -0.1875 -0.1830
  172SOPE   O1119424   5.861   2.131   6.739  0.2820  0.5730 -0.3846
  172SOPE    C119425   5.957   2.115   6.849  0.4416  0.4359 -0.6777
  172SOPE    HA19426   6.051   2.171   6.831  0.2904  0.0233 -2.9759
  172SOPE    HB19427   5.981   2.007   6.862  1.7615  0.9353  1.5523
  172SOPE    C219428   5.892   2.162   6.987  0.7777  0.5574  0.0415
  172SOPE    HS19429   5.853   2.265   6.975 -1.1741 -0.3311 -2.0674
  172SOPE   O2119430   5.980   2.146   7.094  0.1449  0.0012  0.7687
  172SOPE   C2119431   6.096   2.213   7.085  0.0856  0.1094  0.8300
  172SOPE   O2219432   6.122   2.305   7.008 -0.6406  0.2869  0.0464
  172SOPE   C2219433   6.179   2.153   7.204  0.0498 -0.7339  0.3608
  172SOPE   H2R19434   6.216   2.054   7.166  0.4468 -0.4492 -0.0106
  172SOPE   H2S19435   6.111   2.136   7.290 -1.9979  0.1033 -1.0278
  172SOPE    C319436   5.776   2.059   7.009 -0.4508  0.0944 -0.1050
  172SOPE    HX19437   5.815   1.955   7.014 -1.0204 -0.0887  1.0108
  172SOPE    HY19438   5.726   2.072   6.912  0.0974  1.0090 -0.2735
  172SOPE   O3119439   5.701   2.095   7.123 -0.0659  0.2617  0.3190
  172SOPE   C3119440   5.617   2.201   7.104 -0.0556 -0.2685 -0.5384
  172SOPE   O3219441   5.609   2.268   7.010  0.2744  0.0720  0.0665
  172SOPE   C3219442   5.542   2.232   7.227 -0.2165  0.0782  0.8933
  172SOPE   H2X19443   5.438   2.194   7.211  0.0693  0.4709 -2.7907
  172SOPE   H2Y19444   5.534   2.342   7.242 -2.0708  0.1061  0.1066
  172SOPE   C2319445   6.295   2.256   7.228 -0.0487 -0.0372 -0.5673
  172SOPE   H3R19446   6.252   2.358   7.238  0.0525 -0.0439 -0.0309
  172SOPE   H3S19447   6.368   2.262   7.145 -0.1389 -0.8509 -0.7121
  172SOPE   C2419448   6.382   2.229   7.350 -1.0935 -0.4697  0.1121
  172SOPE   H4R19449   6.389   2.122   7.379  3.7131 -0.4597 -0.1243
  172SOPE   H4S19450   6.489   2.248   7.324 -1.0724  0.1982  0.6838
  172SOPE   C2519451   6.355   2.312   7.471 -0.1451 -0.8484 -0.4641
  172SOPE   H5R19452   6.408   2.407   7.447 -1.5862  0.1478  0.1496
  172SOPE   H5S19453   6.248   2.341   7.485  0.0081 -0.5585  0.1919
  172SOPE   C2619454   6.421   2.253   7.602 -0.0738 -0.2817 -0.0364
  172SOPE   H6R19455   6.373   2.153   7.612 -0.7832 -0.0695 -1.2101
  172SOPE   H6S19456   6.530   2.244   7.584 -0.1015 -1.0887  0.1529
  172SOPE   C2719457   6.416   2.343   7.725 -0.3084  0.4415 -0.0842
  172SOPE   H7R19458   6.448   2.448   7.708 -1.2412  0.6577 -0.5754
  172SOPE   H7S19459   6.308   2.347   7.748 -0.5194 -3.6552  0.4363
  172SOPE   C2819460   6.497   2.292   7.856  0.5407  0.8091  0.3608
  172SOPE   H8R19461   6.465   2.354   7.942 -1.4871 -0.1361  0.3463
  172SOPE   H8S19462   6.474   2.185   7.879  0.9363  0.4506 -0.8400
  172SOPE   C2919463   6.644   2.310   7.826  0.2604 -0.2165  1.0344
  172SOPE   H9119464   6.663   2.343   7.723 -1.0660 -1.1793  0.4466
  172SOPE  C21019465   6.744   2.289   7.911 -0.3132 -1.0483  0.3159
  172SOPE  H10119466   6.842   2.325   7.877 -0.8117 -0.1879 -0.2579
  172SOPE  C21119467   6.748   2.253   8.056 -0.3459 -0.1961  0.5130
  172SOPE  H11R19468   6.810   2.161   8.055 -0.3094 -0.1813  0.9664
  172SOPE  H11S19469   6.650   2.227   8.103 -1.0590  0.7462 -0.3835
  172SOPE  C21219470   6.816   2.371   8.135  0.3568  0.9729 -0.3949
  172SOPE  H12R19471   6.767   2.468   8.113  2.0295  1.6927 -1.1175
  172SOPE  H12S19472   6.914   2.386   8.084  0.7877 -0.5799 -0.0889
  172SOPE  C21319473   6.840   2.338   8.290  0.6511 -0.2573  0.1645
  172SOPE  H13R19474   6.897   2.243   8.294 -3.0186 -2.6451  3.5796
  172SOPE  H13S19475   6.743   2.330   8.343 -0.2856  1.6924 -1.1376
  172SOPE  C21419476   6.929   2.447   8.354 -0.0037 -0.0132 -0.2633
  172SOPE  H14R19477   6.875   2.543   8.344  0.8340  0.2944 -2.3070
  172SOPE  H14S19478   7.023   2.454   8.294 -0.2869  0.0782 -0.6971
  172SOPE  C21519479   6.944   2.415   8.507 -0.0693 -0.9340  1.1192
  172SOPE  H15R19480   7.005   2.323   8.516  1.2515 -0.0687  1.1846
  172SOPE  H15S19481   6.844   2.399   8.553 -1.1446  0.6052 -0.5438
  172SOPE  C21619482   7.017   2.531   8.575 -0.5353  0.6078 -0.2543
  172SOPE  H16R19483   6.968   2.628   8.548 -1.1495  1.1881  2.6052
  172SOPE  H16S19484   7.123   2.547   8.547 -0.4428  0.5991  0.0829
  172SOPE  C21719485   7.008   2.516   8.731 -0.0352 -0.6081  0.3015
  172SOPE  H17R19486   7.066   2.430   8.770  2.5770  0.2681 -1.3646
  172SOPE  H17S19487   6.901   2.500   8.755 -0.1342 -0.1576  0.1667
  172SOPE  C21819488   7.049   2.635   8.816  0.1565  0.0209 -0.0460
  172SOPE  H18R19489   7.087   2.601   8.915  1.1933 -0.2969 -0.5334
  172SOPE  H18S19490   6.963   2.705   8.820  0.0611 -0.1225  0.5358
  172SOPE  H18T19491   7.135   2.674   8.756  0.9133 -3.0696 -1.1781
  172SOPE   C3319492   5.584   2.158   7.356 -0.2959  0.4810 -0.5414
  172SOPE   H3X19493   5.679   2.198   7.400 -0.5673  0.8740 -0.3072
  172SOPE   H3Y19494   5.608   2.056   7.320  0.4870  1.1762 -2.0819
  172SOPE   C3419495   5.481   2.150   7.470 -0.0629  0.4655  0.6939
  172SOPE   H4X19496   5.406   2.081   7.424  0.0822  0.4591  0.4639
  172SOPE   H4Y19497   5.450   2.256   7.484  0.4315  0.4444  2.1103
  172SOPE   C3519498   5.537   2.077   7.589  0.5813 -0.1250 -0.3913
  172SOPE   H5X19499   5.615   2.135   7.642 -0.3974 -0.1411  1.1100
  172SOPE   H5Y19500   5.572   1.974   7.564  0.9118 -0.0116 -0.4027
  172SOPE   C3619501   5.435   2.055   7.693  0.1082 -0.0218 -0.2070
  172SOPE   H6X19502   5.353   2.003   7.639 -1.0808  2.4658 -0.9577
  172SOPE   H6Y19503   5.402   2.160   7.707 -0.9974 -0.4316  0.4032
  172SOPE   C3719504   5.495   1.985   7.814 -0.7293  0.6497 -0.3065
  172SOPE   H7X19505   5.590   2.039   7.828 -0.0197 -0.7015  0.2812
  172SOPE   H7Y19506   5.538   1.885   7.793 -1.9357  0.7224 -3.7344
  172SOPE   C3819507   5.400   2.000   7.936  0.4145  0.8134 -0.0060
  172SOPE   H8X19508   5.307   1.942   7.920  0.2019  1.2550 -0.3621
  172SOPE   H8Y19509   5.364   2.103   7.954 -0.0199  0.8139 -0.8491
  172SOPE   C3919510   5.474   1.963   8.065  0.0214  1.1141  0.1245
  172SOPE   H9X19511   5.563   2.030   8.062 -0.2149  1.4082 -1.2001
  172SOPE   H9Y19512   5.511   1.859   8.060 -0.9666  0.7578 -0.0315
  172SOPE  C31019513   5.377   1.969   8.184 -0.0898  0.2936  0.1925
  172SOPE  H10X19514   5.296   1.894   8.173 -1.5030  1.5639  1.4456
  172SOPE  H10Y19515   5.329   2.069   8.180 -4.0585 -1.4091  0.2952
  172SOPE  C31119516   5.437   1.945   8.326  0.4291 -0.0203  0.0573
  172SOPE  H11X19517   5.544   1.976   8.334 -0.0371  1.6867  0.1496
  172SOPE  H11Y19518   5.432   1.835   8.337 -1.7472  0.0271 -0.2146
  172SOPE  C31219519   5.358   2.016   8.437 -0.8638 -0.0984  0.6774
  172SOPE  H12X19520   5.259   1.964   8.438 -0.5305 -0.7424  0.9331
  172SOPE  H12Y19521   5.351   2.123   8.409 -1.7083  0.0083  1.2630
  172SOPE  C31319522   5.408   1.985   8.584  0.1618 -0.0101 -0.8202
  172SOPE  H13X19523   5.349   2.058   8.644  0.5896 -0.8694  0.6923
  172SOPE  H13Y19524   5.515   2.012   8.600 -0.1165  0.8407 -0.3363
  172SOPE  C31419525   5.383   1.839   8.631 -0.0098  0.2529 -0.0617
  172SOPE  H14X19526   5.462   1.786   8.574 -0.1486  0.4462 -0.4417
  172SOPE  H14Y19527   5.282   1.803   8.604  0.0554  0.1893 -0.2281
  172SOPE  C31519528   5.419   1.812   8.777 -0.2121  0.3548  0.1052
  172SOPE  H15X19529   5.347   1.859   8.848  0.8453 -0.3545  1.7067
  172SOPE  H15Y19530   5.507   1.874   8.804 -1.0903  1.0541  1.5101
  172SOPE  C31619531   5.434   1.667   8.801 -0.7534 -0.7888 -0.0910
  172SOPE  H16X19532   5.506   1.645   8.883  1.4130 -0.8492 -1.9295
  172SOPE  H16Y19533   5.472   1.617   8.709 -0.7917 -0.7313 -0.1379
  172SOPE  C31719534   5.298   1.605   8.837  0.3986  0.0164  0.9914
  172SOPE  H17X19535   5.224   1.650   8.768 -0.1590 -2.4114 -0.1071
  172SOPE  H17Y19536   5.248   1.622   8.934 -2.7205 -0.0272 -0.4819
  172SOPE  C31819537   5.317   1.453   8.830 -0.1685 -1.1303  0.1374
  172SOPE  H18X19538   5.255   1.409   8.911  1.1620 -1.6465  0.9151
  172SOPE  H18Y19539   5.427   1.440   8.843  0.4797  2.4195 -0.8216
  172SOPE  H18Z19540   5.281   1.415   8.733 -0.4322  0.5030 -0.4340
  173SAPI   C1219541   0.786   0.664  11.024 -0.3544  0.7018 -0.7785
  173SAPI    H219542   0.684   0.628  11.050  0.7061 -1.5205  0.6800
  173SAPI    O219543   0.776   0.731  10.901 -0.2604 -1.1350 -0.5552
  173SAPI   HO219544   0.701   0.789  10.909  0.2034 -0.5674 -0.2444
  173SAPI   C1319545   0.833   0.754  11.136 -0.8492  0.2546 -0.0463
  173SAPI    H319546   0.830   0.696  11.231 -3.8248  0.3921  0.0383
  173SAPI    O319547   0.736   0.856  11.166  0.0802 -0.3901 -0.0852
  173SAPI   HO319548   0.771   0.936  11.126  0.3810 -0.1574  0.6317
  173SAPI   C1419549   0.969   0.812  11.107 -0.1636  0.6150 -0.5879
  173SAPI    H419550   0.962   0.860  11.007 -0.4963 -0.2869 -1.0121
  173SAPI    O419551   1.011   0.919  11.189  0.1537  0.0419  0.2806
  173SAPI   HO419552   1.099   0.946  11.164  0.2733  0.1940  0.8462
  173SAPI   C1519553   1.077   0.703  11.087  0.0348 -0.0591 -0.1280
  173SAPI    H519554   1.093   0.652  11.184 -0.2110 -1.7818 -0.9569
  173SAPI    O519555   1.205   0.758  11.043 -0.0334  0.7053  0.2361
  173SAPI   HO519556   1.188   0.810  10.964  1.8516  1.6016  0.3529
  173SAPI   C1619557   1.025   0.592  10.987  0.3487 -0.1333  0.0141
  173SAPI    H619558   1.026   0.635  10.884  1.2458  0.4808  0.2659
  173SAPI    O619559   1.121   0.483  10.988  0.3416  0.0010  0.7872
  173SAPI   HO619560   1.063   0.419  10.946 -0.8335  1.2084  0.4691
  173SAPI   C1119561   0.890   0.542  11.022  0.1035 -0.2174  0.0898
  173SAPI    H119562   0.888   0.505  11.127 -0.6801 -0.7919 -0.1107
  173SAPI     P19563   0.717   0.344  10.950  0.2172  0.0928  0.7247
  173SAPI   O1319564   0.697   0.312  11.088  0.1900  0.1720  0.3383
  173SAPI   O1419565   0.730   0.234  10.854 -0.0144 -0.1197  0.2233
  173SAPI   O1219566   0.845   0.451  10.932 -0.2735  0.4613 -0.1717
  173SAPI   O1119567   0.597   0.435  10.907 -0.5866  0.7972  0.5333
  173SAPI    C119568   0.579   0.465  10.766 -0.1711 -0.0948  0.5163
  173SAPI    HA19569   0.675   0.501  10.722 -0.4698  1.9734  1.4514
  173SAPI    HB19570   0.540   0.375  10.714 -3.3978 -0.3869  3.0776
  173SAPI    C219571   0.471   0.576  10.755  0.2773 -0.0175  0.2648
  173SAPI    HS19572   0.493   0.653  10.833 -0.5622 -0.6853  1.1940
  173SAPI   O2119573   0.343   0.517  10.787 -0.3170  0.4038  0.1694
  173SAPI   C2119574   0.240   0.590  10.792 -0.2497  0.2019  0.3331
  173SAPI   O2219575   0.239   0.713  10.780 -0.2223  0.0564  0.5722
  173SAPI   C2219576   0.115   0.499  10.806  0.0785 -0.0716 -0.0582
  173SAPI   H2R19577   0.125   0.400  10.756 -2.6913 -0.8674  0.7977
  173SAPI   H2S19578   0.096   0.470  10.911 -0.8689  0.1118 -0.1725
  173SAPI    C319579   0.478   0.641  10.614  0.0583  0.2596 -0.4663
  173SAPI    HX19580   0.582   0.674  10.592  0.1958 -1.0433 -1.9131
  173SAPI    HY19581   0.410   0.729  10.622  0.1368  0.2825 -0.0153
  173SAPI   O3119582   0.433   0.536  10.521 -0.0977 -0.8389 -0.3584
  173SAPI   C3119583   0.358   0.580  10.431  0.0617  0.5843  0.8256
  173SAPI   O3219584   0.302   0.690  10.427  0.7070  0.1433  0.4240
  173SAPI   C3219585   0.341   0.463  10.325 -0.3993  0.2578  0.1178
  173SAPI   H2X19586   0.254   0.397  10.345  0.4070 -1.2280 -1.0846
  173SAPI   H2Y19587   0.429   0.395  10.324  0.9158  1.8972 -0.0979
  173SAPI   C2319588  -0.020   0.548  10.752  0.4431  0.6205  1.1602
  173SAPI   H3R19589  -0.013   0.582  10.647 -3.4225 -0.4035  0.4241
  173SAPI   H3S19590  -0.047   0.629  10.823  0.1379  0.2063  1.5225
  173SAPI   C2419591  -0.122   0.424  10.763 -0.6140  0.1976 -0.0946
  173SAPI   H4R19592  -0.224   0.458  10.735 -0.0842  2.8498  0.9077
  173SAPI   H4S19593  -0.114   0.390  10.868  1.5110 -1.6772 -0.7981
  173SAPI   C2519594  -0.083   0.311  10.672 -0.3486  0.3065 -0.6008
  173SAPI   H5R19595  -0.055   0.225  10.734  0.0134  1.0602  0.3155
  173SAPI   C2619596  -0.094   0.305  10.541  0.5231 -0.2450 -0.4246
  173SAPI   H6R19597  -0.047   0.223  10.485 -0.4035 -2.9332  2.4144
  173SAPI   C2719598  -0.144   0.416  10.450  0.3087 -0.5390 -0.7342
  173SAPI   H7R19599  -0.054   0.467  10.409  0.7351  0.0508  0.8549
  173SAPI   H7S19600  -0.196   0.493  10.510  3.4565 -0.9527  2.8503
  173SAPI   C2819601  -0.232   0.377  10.334 -0.4026  0.2692 -0.3045
  173SAPI   H8R19602  -0.264   0.272  10.334 -1.5417  0.6034 -0.0596
  173SAPI   C2919603  -0.274   0.466  10.241  1.0780 -0.4432  0.5248
  173SAPI   H9R19604  -0.348   0.432  10.167  0.9922 -0.2984  0.5431
  173SAPI  C21019605  -0.251   0.615  10.242  0.5139  0.2241 -0.3977
  173SAPI  H10R19606  -0.239   0.651  10.346  0.5862  0.4456 -0.4845
  173SAPI  H10S19607  -0.350   0.655  10.210 -1.8557 -2.8781  2.3394
  173SAPI  C21119608  -0.130   0.651  10.164 -0.4299 -0.8354 -0.3764
  173SAPI  H11R19609  -0.035   0.641  10.218 -0.5325  1.2417  0.2548
  173SAPI  C21219610  -0.128   0.687  10.036 -0.3799 -0.1116 -0.3004
  173SAPI  H12R19611  -0.030   0.709   9.990  0.5353 -2.5889  0.2860
  173SAPI  C21319612  -0.249   0.709   9.946  0.0905  0.2264 -0.3225
  173SAPI  H13R19613  -0.294   0.810   9.959  0.0238  0.4965 -2.2988
  173SAPI  H13S19614  -0.337   0.647   9.974 -0.3460  1.2403  0.6266
  173SAPI  C21419615  -0.221   0.682   9.805  0.1983 -0.5859  0.7260
  173SAPI  H14R19616  -0.204   0.775   9.750 -1.8823 -0.3508  0.3943
  173SAPI  C21519617  -0.222   0.567   9.729 -0.4475 -0.9723  0.1481
  173SAPI  H15R19618  -0.215   0.577   9.620 -0.5138 -1.4113  0.1028
  173SAPI  C21619619  -0.255   0.431   9.782 -0.8309 -0.2891  0.0641
  173SAPI  H16R19620  -0.354   0.386   9.759 -0.8825 -1.4630  2.2906
  173SAPI  H16S19621  -0.255   0.432   9.893 -2.7292  0.0091  0.1087
  173SAPI  C21719622  -0.141   0.328   9.751  0.9707 -0.2094  0.2858
  173SAPI  H17R19623  -0.167   0.236   9.807 -0.4359 -0.0598 -0.1005
  173SAPI  H17S19624  -0.045   0.365   9.793 -0.6720  0.2967  4.0393
  173SAPI  C21819625  -0.131   0.297   9.602 -0.1547 -0.1286  0.1691
  173SAPI  H18R19626  -0.033   0.245   9.592 -0.4966 -0.4199 -2.2522
  173SAPI  H18S19627  -0.118   0.385   9.536  1.3670  0.1025  0.7487
  173SAPI  C21919628  -0.242   0.217   9.546  0.3655 -0.1476  0.3707
  173SAPI  H19R19629  -0.345   0.252   9.566 -1.0464 -1.7645 -3.2392
  173SAPI  H19S19630  -0.242   0.115   9.590 -4.3961 -2.3332 -3.6816
  173SAPI  C22019631  -0.234   0.192   9.399 -0.1605 -0.1550 -0.0778
  173SAPI  H20R19632  -0.170   0.105   9.378 -1.3010 -1.3992  1.3284
  173SAPI  H20S19633  -0.199   0.286   9.352 -1.0954  1.7883  2.8292
  173SAPI  H20T19634  -0.338   0.180   9.361 -0.9048  1.2505  1.3904
  173SAPI   C3319635   0.313   0.519  10.180  0.0989 -0.4331  0.6582
  173SAPI   H3X19636   0.394   0.585  10.142 -0.7122 -0.2629 -0.8373
  173SAPI   H3Y19637   0.227   0.588  10.186  0.3832  0.0357 -0.4726
  173SAPI   C3419638   0.295   0.412  10.077  0.6501 -0.4942 -0.2323
  173SAPI   H4X19639   0.207   0.350  10.107  0.9756 -0.8504 -0.0160
  173SAPI   H4Y19640   0.376   0.336  10.069 -0.7040 -1.7966 -2.6974
  173SAPI   C3519641   0.263   0.482   9.942 -0.4402 -0.8376  0.6142
  173SAPI   H5X19642   0.345   0.556   9.929  0.7609 -2.2907 -0.4081
  173SAPI   H5Y19643   0.168   0.541   9.947  0.6539  1.0341  0.4859
  173SAPI   C3619644   0.255   0.390   9.815  0.1233  0.5253 -0.2849
  173SAPI   H6X19645   0.187   0.307   9.846 -1.4912  1.2320 -1.8040
  173SAPI   H6Y19646   0.352   0.337   9.803 -0.1731 -0.3950  1.0923
  173SAPI   C3719647   0.227   0.455   9.680  0.0402  0.1956  0.5109
  173SAPI   H7X19648   0.291   0.546   9.676  1.5717 -0.8664 -0.0367
  173SAPI   H7Y19649   0.119   0.479   9.666  0.3228  0.2918 -1.9053
  173SAPI   C3819650   0.259   0.359   9.563  0.1993 -0.1873 -0.1963
  173SAPI   H8X19651   0.195   0.270   9.582 -0.3576 -0.0301 -1.3090
  173SAPI   H8Y19652   0.366   0.328   9.556  0.4866  1.0073 -1.4970
  173SAPI   C3919653   0.223   0.415   9.428  0.1701 -0.2292  0.5732
  173SAPI   H9X19654   0.113   0.416   9.410  0.2451  0.6953  0.0917
  173SAPI   H9Y19655   0.259   0.343   9.352  1.5879 -0.8658  1.8063
  173SAPI  C31019656   0.271   0.559   9.410 -0.6391  1.1391 -0.3404
  173SAPI  H10X19657   0.378   0.555   9.437 -0.2704 -2.0173 -1.8458
  173SAPI  H10Y19658   0.220   0.628   9.481 -0.1208  0.1548  1.0229
  173SAPI  C31119659   0.274   0.610   9.267 -0.0853  0.0139  0.1619
  173SAPI  H11X19660   0.183   0.674   9.260 -0.4714 -0.3129  1.8446
  173SAPI  H11Y19661   0.270   0.530   9.190 -2.8705  0.2256 -0.0072
  173SAPI  C31219662   0.385   0.706   9.245 -0.6700 -0.8723 -0.2446
  173SAPI  H12X19663   0.476   0.657   9.204  0.7843  2.3506 -1.1617
  173SAPI  H12Y19664   0.425   0.757   9.335 -2.0681  0.8081 -0.5240
  173SAPI  C31319665   0.353   0.818   9.141 -0.6613  0.1845  0.0322
  173SAPI  H13X19666   0.439   0.888   9.150 -0.9273  0.4432  0.5634
  173SAPI  H13Y19667   0.257   0.862   9.174 -0.3411  2.8658 -2.1766
  173SAPI  C31419668   0.351   0.765   8.999 -0.6032 -0.0071  0.2656
  173SAPI  H14X19669   0.291   0.672   8.985  0.3263 -0.4880 -0.6753
  173SAPI  H14Y19670   0.450   0.727   8.964 -0.8770 -1.8779  1.3908
  173SAPI  C31519671   0.303   0.876   8.905  0.5280 -0.4084  0.4051
  173SAPI  H15X19672   0.388   0.940   8.874 -0.7442  0.3974 -1.5819
  173SAPI  H15Y19673   0.219   0.934   8.949 -1.1017  1.1394 -4.1857
  173SAPI  C31619674   0.244   0.820   8.762  0.6000 -0.5492  0.1586
  173SAPI  H16X19675   0.183   0.729   8.782  0.1699 -0.5206 -0.9593
  173SAPI  H16Y19676   0.334   0.801   8.700  0.9555 -0.3762  0.6195
  173SAPI  C31719677   0.148   0.927   8.689 -0.6773 -0.2596 -0.5173
  173SAPI  H17X19678   0.062   0.933   8.759 -0.2872 -1.8520  0.1595
  173SAPI  H17Y19679   0.121   0.876   8.595 -0.2263  0.1766 -0.8905
  173SAPI  C31819680   0.209   1.064   8.668 -0.8077 -0.3868  0.0700
  173SAPI  H18X19681   0.237   1.115   8.763  0.0801  1.1249 -0.9606
  173SAPI  H18Y19682   0.139   1.128   8.611  1.0099  1.5403 -0.1337
  173SAPI  H18Z19683   0.308   1.055   8.618  0.3001 -0.7102  2.1860
  174SAPI   C1219684   5.140   0.707  11.296  0.3179  1.3532  0.1375
  174SAPI    H219685   5.196   0.615  11.270 -0.7919  0.6960  0.0023
  174SAPI    O219686   5.021   0.664  11.363 -0.0598 -0.0590  0.0757
  174SAPI   HO219687   4.944   0.699  11.319 -0.2247 -0.8142 -0.2443
  174SAPI   C1319688   5.225   0.798  11.389  0.3625 -0.0278  0.2061
  174SAPI    H319689   5.318   0.820  11.333 -0.4358 -0.9814 -1.5656
  174SAPI    O319690   5.270   0.720  11.506  0.6291 -0.5142  1.2315
  174SAPI   HO319691   5.316   0.779  11.566 -1.0351  1.1106  0.9939
  174SAPI   C1419692   5.143   0.921  11.419  0.3445  0.0599  0.1125
  174SAPI    H419693   5.050   0.889  11.471  1.7976 -1.2559  2.0118
  174SAPI    O419694   5.200   1.009  11.518 -0.1232  0.2774 -0.3859
  174SAPI   HO419695   5.142   1.085  11.525 -0.8769 -0.3327  0.1654
  174SAPI   C1519696   5.105   0.991  11.288 -0.1192  0.0314  0.0179
  174SAPI    H519697   5.203   1.017  11.242 -0.4855 -0.2290 -0.9314
  174SAPI    O519698   5.043   1.118  11.309  0.0171 -0.3623 -0.4738
  174SAPI   HO519699   5.089   1.167  11.241 -0.0921 -1.1474 -1.1290
  174SAPI   C1619700   5.029   0.904  11.185 -0.1125 -0.3324  0.4203
  174SAPI    H619701   4.926   0.878  11.217  0.7090 -3.3423  0.9246
  174SAPI    O619702   5.025   0.976  11.055  1.1332 -0.0464 -0.8039
  174SAPI   HO619703   4.967   0.926  10.997  0.0769  1.1042 -0.7799
  174SAPI   C1119704   5.111   0.779  11.168  0.4718 -0.1289  0.2454
  174SAPI    H119705   5.213   0.801  11.129  0.3690  1.6576  0.9007
  174SAPI     P19706   5.065   0.684  10.916 -0.2406 -0.0847 -0.2090
  174SAPI   O1319707   5.012   0.548  10.873  0.1120 -0.7168  0.1027
  174SAPI   O1419708   5.201   0.728  10.871  0.2221  0.1180 -0.2337
  174SAPI   O1219709   5.053   0.682  11.076 -0.3104  0.0815  0.0146
  174SAPI   O1119710   4.961   0.793  10.875  0.1895  0.0967  0.1585
  174SAPI    C119711   4.872   0.772  10.765  0.6537  0.0839  0.0524
  174SAPI    HA19712   4.818   0.675  10.772 -1.6199  0.6430 -4.9976
  174SAPI    HB19713   4.782   0.833  10.790  0.5549 -0.8772  2.1800
  174SAPI    C219714   4.931   0.802  10.623  0.5118  0.3675  0.5878
  174SAPI    HS19715   4.841   0.810  10.558  1.5434 -0.9249 -1.0927
  174SAPI   O2119716   5.026   0.706  10.582 -0.3710 -0.9119  0.2650
  174SAPI   C2119717   5.027   0.685  10.453 -0.2576 -0.6788  0.4373
  174SAPI   O2219718   4.955   0.741  10.369  0.5330 -0.3486 -0.2802
  174SAPI   C2219719   5.137   0.581  10.429  0.2156 -0.3324 -0.1277
  174SAPI   H2R19720   5.227   0.610  10.489  0.5121 -0.9566 -0.2513
  174SAPI   H2S19721   5.110   0.484  10.477  1.7936 -0.6667  0.1482
  174SAPI    C319722   4.995   0.948  10.622 -0.5741 -0.7537 -0.1068
  174SAPI    HX19723   5.096   0.936  10.667  0.6770  3.8706 -1.2338
  174SAPI    HY19724   4.928   1.008  10.687 -0.2586 -1.1844  0.6307
  174SAPI   O3119725   5.007   1.004  10.484 -0.0644 -0.0900 -0.3363
  174SAPI   C3119726   4.901   1.061  10.432  0.7433 -0.0270  0.2682
  174SAPI   O3219727   4.795   1.072  10.490  0.3638 -0.4675  0.0347
  174SAPI   C3219728   4.932   1.116  10.292  0.7202 -0.0643  0.1564
  174SAPI   H2X19729   4.857   1.069  10.225 -1.4513  0.7591  1.8985
  174SAPI   H2Y19730   5.030   1.069  10.270  0.9924 -0.2740  1.7343
  174SAPI   C2319731   5.170   0.566  10.280 -0.0118 -0.0213  1.0106
  174SAPI   H3R19732   5.191   0.664  10.234  2.9356 -0.9275  0.1838
  174SAPI   H3S19733   5.087   0.527  10.216  0.4574  0.1843  0.2607
  174SAPI   C2419734   5.294   0.477  10.255 -0.7839  0.4626  0.6853
  174SAPI   H4R19735   5.266   0.388  10.315 -2.9911  0.6506  0.0165
  174SAPI   H4S19736   5.389   0.513  10.300  1.6409 -3.5358 -0.6963
  174SAPI   C2519737   5.304   0.450  10.106 -0.0164  0.0916 -0.0644
  174SAPI   H5R19738   5.224   0.390  10.061 -0.5844 -0.9528  2.1856
  174SAPI   C2619739   5.402   0.511  10.030  0.5723  0.3116 -0.2757
  174SAPI   H6R19740   5.415   0.482   9.925 -2.7935  0.4065 -0.8141
  174SAPI   C2719741   5.501   0.621  10.061  0.4966  0.3232 -0.0971
  174SAPI   H7R19742   5.484   0.650  10.166  0.0449  0.5518 -0.2319
  174SAPI   H7S19743   5.467   0.706   9.999  2.1654 -0.2579 -1.9232
  174SAPI   C2819744   5.646   0.597  10.044  0.0834  0.0738  0.0588
  174SAPI   H8R19745   5.685   0.508  10.097  2.0690 -0.1945 -1.6908
  174SAPI   C2919746   5.724   0.654   9.949 -1.0379 -0.4113 -0.1508
  174SAPI   H9R19747   5.830   0.629   9.940 -1.1352 -0.4465 -1.2702
  174SAPI  C21019748   5.676   0.744   9.841 -0.7298  0.2571  0.1059
  174SAPI  H10R19749   5.750   0.812   9.795  1.2058 -2.3335 -0.9044
  174SAPI  H10S19750   5.588   0.808   9.861  0.4748  3.3020 -3.2323
  174SAPI  C21119751   5.611   0.661   9.727  0.2796 -0.2402 -0.2467
  174SAPI  H11R19752   5.527   0.598   9.759  0.1797  0.4090  0.8143
  174SAPI  C21219753   5.643   0.664   9.597 -0.8929 -0.0961 -0.1887
  174SAPI  H12R19754   5.585   0.610   9.520 -0.5681  2.0436 -2.0555
  174SAPI  C21319755   5.757   0.742   9.538 -0.3843 -0.2371  0.2481
  174SAPI  H13R19756   5.828   0.775   9.617 -1.6584  0.8560  0.9731
  174SAPI  H13S19757   5.707   0.828   9.489  1.6273 -0.0265 -1.5821
  174SAPI  C21419758   5.835   0.672   9.430  0.2357  0.1357 -0.9439
  174SAPI  H14R19759   5.899   0.590   9.465  1.8432  0.7305 -2.3680
  174SAPI  C21519760   5.860   0.709   9.306  0.8830 -0.6060 -0.0921
  174SAPI  H15R19761   5.922   0.640   9.247  1.1636 -2.9328  2.7107
  174SAPI  C21619762   5.809   0.837   9.247  0.0944  0.3015 -0.0096
  174SAPI  H16R19763   5.879   0.859   9.164  2.0137 -2.3410  0.7618
  174SAPI  H16S19764   5.810   0.927   9.313  2.3162  0.3243  0.0007
  174SAPI  C21719765   5.668   0.827   9.185 -0.0121  0.0862 -0.2064
  174SAPI  H17R19766   5.633   0.932   9.177  3.9075  1.7615  1.9034
  174SAPI  H17S19767   5.604   0.776   9.260 -1.3384  0.2752 -1.1643
  174SAPI  C21819768   5.658   0.761   9.044  0.0275 -0.7517 -0.1866
  174SAPI  H18R19769   5.553   0.744   9.012 -0.2786  0.0680  0.3511
  174SAPI  H18S19770   5.726   0.673   9.038  1.3726  0.2666 -0.3356
  174SAPI  C21919771   5.710   0.854   8.940  0.4243  0.1471 -0.6636
  174SAPI  H19R19772   5.821   0.847   8.940  0.4807 -0.0358 -3.7939
  174SAPI  H19S19773   5.688   0.957   8.975  0.9083  0.8771 -2.4134
  174SAPI  C22019774   5.654   0.822   8.797  0.1700  0.9624  0.0847
  174SAPI  H20R19775   5.680   0.717   8.771  1.4686  1.4090 -0.4804
  174SAPI  H20S19776   5.702   0.891   8.725  1.8137 -0.6427 -0.4331
  174SAPI  H20T19777   5.544   0.842   8.792 -0.7030 -3.1843 -1.9462
  174SAPI   C3319778   4.929   1.275  10.276 -0.1149 -0.1266  0.4077
  174SAPI   H3X19779   5.017   1.331  10.315  0.0944  1.1902 -1.7572
  174SAPI   H3Y19780   4.836   1.311  10.325  0.5042 -0.1393  1.6422
  174SAPI   C3419781   4.918   1.298  10.120 -0.4704  0.0676 -0.2670
  174SAPI   H4X19782   4.818   1.253  10.102 -0.8605  0.2823  1.2933
  174SAPI   H4Y19783   5.004   1.242  10.076  0.6273 -0.4240  2.2976
  174SAPI   C3519784   4.915   1.447  10.078  0.0503  0.3388 -0.1703
  174SAPI   H5X19785   5.004   1.500  10.117  0.2050  1.4236 -1.8998
  174SAPI   H5Y19786   4.822   1.494  10.115  0.0140 -0.2141  0.4622
  174SAPI   C3619787   4.909   1.476   9.929 -0.0850 -0.0907  0.0552
  174SAPI   H6X19788   4.924   1.585   9.910  1.7692 -0.1035  1.1395
  174SAPI   H6Y19789   4.806   1.452   9.897  0.2038  1.7166 -2.5357
  174SAPI   C3719790   5.009   1.390   9.852  0.2312  0.1792  0.4241
  174SAPI   H7X19791   4.998   1.280   9.866 -1.8829 -0.0335 -2.0733
  174SAPI   H7Y19792   5.108   1.420   9.892  1.1859  0.6467 -2.1585
  174SAPI   C3819793   5.003   1.422   9.703  0.1599  0.4577  0.7080
  174SAPI   H8X19794   4.911   1.384   9.654  0.7539  3.6212 -3.4095
  174SAPI   H8Y19795   5.087   1.355   9.674 -0.6408 -0.1248 -0.3572
  174SAPI   C3919796   5.041   1.565   9.666  0.3727 -0.2208 -0.6460
  174SAPI   H9X19797   5.152   1.574   9.673  0.3344 -0.9115  1.5597
  174SAPI   H9Y19798   5.005   1.650   9.727  2.2260  0.9763 -1.1257
  174SAPI  C31019799   4.978   1.604   9.529 -0.0489  0.1601 -0.2964
  174SAPI  H10X19800   4.984   1.713   9.506  0.2551  0.2080 -0.0028
  174SAPI  H10Y19801   4.873   1.569   9.532  0.5781 -1.9033 -0.8993
  174SAPI  C31119802   5.049   1.538   9.412  0.2158  0.0405  0.2968
  174SAPI  H11X19803   5.041   1.429   9.432 -1.9306  0.1390  0.2025
  174SAPI  H11Y19804   5.153   1.577   9.412 -0.1468  1.0391 -0.7140
  174SAPI  C31219805   4.971   1.557   9.283  0.2130 -0.2175 -0.0686
  174SAPI  H12X19806   4.966   1.666   9.267 -1.5850 -0.0600  1.2880
  174SAPI  H12Y19807   4.869   1.514   9.272  0.3603 -0.6086  0.0420
  174SAPI  C31319808   5.053   1.519   9.161 -0.6732  0.2188  0.5945
  174SAPI  H13X19809   5.080   1.411   9.168  0.9763  0.5436 -0.1024
  174SAPI  H13Y19810   5.151   1.572   9.157 -0.7938  0.3918 -0.2407
  174SAPI  C31419811   4.988   1.553   9.027  0.1881  0.0846  0.3865
  174SAPI  H14X19812   5.055   1.515   8.947  0.0979 -1.6142  1.0719
  174SAPI  H14Y19813   4.975   1.663   9.030  0.4856  0.1824 -1.3138
  174SAPI  C31519814   4.854   1.489   8.993  0.3555  0.5437 -0.6899
  174SAPI  H15X19815   4.768   1.505   9.062 -1.4758 -0.0913 -2.6844
  174SAPI  H15Y19816   4.864   1.380   8.973 -0.4073  0.5557 -1.2034
  174SAPI  C31619817   4.804   1.531   8.847 -0.1741  0.2046  0.1527
  174SAPI  H16X19818   4.880   1.507   8.770  0.0490  0.3494  0.3221
  174SAPI  H16Y19819   4.797   1.642   8.847 -0.6783  0.1732  0.1488
  174SAPI  C31719820   4.669   1.463   8.816  0.0700 -0.5740  0.1574
  174SAPI  H17X19821   4.661   1.369   8.874 -1.0622 -0.7665 -0.2858
  174SAPI  H17Y19822   4.658   1.436   8.709  1.4213  0.8294 -0.3688
  174SAPI  C31819823   4.550   1.555   8.861 -0.4567  0.2245 -0.0660
  174SAPI  H18X19824   4.571   1.661   8.836  1.1166 -0.1224 -0.2854
  174SAPI  H18Y19825   4.556   1.560   8.972  0.2199 -1.8506  0.0336
  174SAPI  H18Z19826   4.453   1.530   8.813 -0.9574  2.6061 -0.4309
  175SAPI   C1219827   4.510   5.969   6.354  0.0332 -0.0320 -0.5728
  175SAPI    H219828   4.552   5.985   6.455 -0.6054 -0.6387 -0.2032
  175SAPI    O219829   4.396   6.048   6.347 -0.0335 -0.0617  0.1981
  175SAPI   HO219830   4.404   6.128   6.400 -1.1014  0.5139 -0.4664
  175SAPI   C1319831   4.600   5.992   6.239  0.2522  0.5272 -0.5310
  175SAPI    H319832   4.682   5.917   6.233 -0.7210 -0.5608 -0.5862
  175SAPI    O319833   4.655   6.124   6.246  0.2832  0.2393 -0.0894
  175SAPI   HO319834   4.586   6.190   6.236  0.2048  0.3466  1.0481
  175SAPI   C1419835   4.528   5.972   6.103  0.4666  0.0824  0.6336
  175SAPI    H419836   4.443   6.044   6.092  1.3247  0.8866 -1.0323
  175SAPI    O419837   4.611   6.011   5.993 -0.3224 -0.1160  0.0447
  175SAPI   HO419838   4.567   6.082   5.945  1.2990  0.5865 -0.4847
  175SAPI   C1519839   4.477   5.832   6.102 -0.0981 -0.2781 -0.2332
  175SAPI    H519840   4.565   5.773   6.136  0.2676  2.3480  4.0036
  175SAPI    O519841   4.429   5.795   5.966  0.4845 -0.1217 -1.2354
  175SAPI   HO519842   4.493   5.728   5.938 -0.0320 -2.3006  2.2259
  175SAPI   C1619843   4.381   5.794   6.218 -0.8297 -0.2806 -0.0089
  175SAPI    H619844   4.288   5.851   6.200 -0.9201 -1.1287 -2.6625
  175SAPI    O619845   4.341   5.659   6.215 -0.4244  0.2331 -0.0174
  175SAPI   HO619846   4.264   5.647   6.270  1.2501  1.0409  2.6816
  175SAPI   C1119847   4.461   5.823   6.351 -0.3307 -0.1660 -0.7462
  175SAPI    H119848   4.544   5.748   6.351 -1.7988 -1.9289  1.3293
  175SAPI     P19849   4.427   5.762   6.604  0.1529  0.1562 -0.0945
  175SAPI   O1319850   4.557   5.697   6.595 -0.1046 -0.2582  0.1011
  175SAPI   O1419851   4.322   5.701   6.695  0.0382 -0.2473  0.1916
  175SAPI   O1219852   4.370   5.794   6.459 -0.3217  0.1384 -0.3021
  175SAPI   O1119853   4.472   5.901   6.657  0.3641 -0.6305 -0.6716
  175SAPI    C119854   4.391   5.969   6.750  0.0198  1.1728  0.5065
  175SAPI    HA19855   4.283   5.943   6.748  0.1957  0.2407  1.7591
  175SAPI    HB19856   4.430   5.935   6.848  1.1054 -3.7408 -1.3176
  175SAPI    C219857   4.402   6.120   6.743 -0.5035 -0.2725 -0.1875
  175SAPI    HS19858   4.396   6.148   6.636 -0.0811  2.1133  0.3320
  175SAPI   O2119859   4.525   6.170   6.805  0.9698  0.4113  0.3770
  175SAPI   C2119860   4.576   6.281   6.741 -0.7474 -0.2921  0.0911
  175SAPI   O2219861   4.537   6.330   6.637 -0.2171 -0.0925  0.0811
  175SAPI   C2219862   4.673   6.346   6.841 -0.3714 -0.3107  0.5155
  175SAPI   H2R19863   4.718   6.432   6.787 -0.3089 -1.0954 -0.7250
  175SAPI   H2S19864   4.619   6.391   6.926 -0.3266 -0.2230  0.4973
  175SAPI    C319865   4.277   6.178   6.821  0.5379 -0.2289 -0.3532
  175SAPI    HX19866   4.190   6.122   6.780  1.0219 -1.8009  0.6769
  175SAPI    HY19867   4.264   6.284   6.791  2.0599 -0.6665 -2.8744
  175SAPI   O3119868   4.290   6.157   6.962  0.2235 -0.5256  0.4398
  175SAPI   C3119869   4.344   6.253   7.025 -0.9822  0.1332  0.9826
  175SAPI   O3219870   4.373   6.364   6.980 -0.3010 -0.1713  0.0964
  175SAPI   C3219871   4.349   6.215   7.173  0.3468 -0.0256  0.7438
  175SAPI   H2X19872   4.394   6.113   7.175  1.2967  0.3623  0.1506
  175SAPI   H2Y19873   4.249   6.213   7.222 -0.2308  1.3977 -0.3196
  175SAPI   C2319874   4.782   6.251   6.893 -0.0738  0.9457 -0.2385
  175SAPI   H3R19875   4.855   6.218   6.816  2.0258 -1.1133  2.4518
  175SAPI   H3S19876   4.736   6.160   6.935  0.6339  1.1038  0.9167
  175SAPI   C2419877   4.875   6.310   7.005  0.6720 -0.0666  0.0719
  175SAPI   H4R19878   4.811   6.291   7.094 -2.0592  0.3538 -1.6895
  175SAPI   H4S19879   4.884   6.420   6.990  2.1020  0.1075  1.8505
  175SAPI   C2519880   5.016   6.256   7.009  0.2760  0.2383 -0.2626
  175SAPI   H5R19881   5.058   6.230   6.911 -0.2988 -0.9133 -0.2161
  175SAPI   C2619882   5.093   6.263   7.120 -0.0129 -0.0418  1.0161
  175SAPI   H6R19883   5.197   6.227   7.126  0.0030  0.2091  3.3426
  175SAPI   C2719884   5.051   6.319   7.253 -0.3462  0.5761  0.1140
  175SAPI   H7R19885   4.943   6.345   7.259 -0.8067 -0.9276 -0.8898
  175SAPI   H7S19886   5.120   6.403   7.272  2.4366 -1.8006  1.2020
  175SAPI   C2819887   5.085   6.217   7.363 -0.5437  0.1360 -0.0377
  175SAPI   H8R19888   5.170   6.164   7.320 -0.5586  1.8148 -2.3528
  175SAPI   C2919889   5.033   6.197   7.484 -0.2482 -0.1907 -0.4650
  175SAPI   H9R19890   5.075   6.114   7.543 -2.5559 -1.3800 -0.3636
  175SAPI  C21019891   4.926   6.289   7.543 -0.2829  0.1126  0.2721
  175SAPI  H10R19892   4.842   6.284   7.471  0.8165 -1.1654 -0.9752
  175SAPI  H10S19893   4.972   6.390   7.549  1.0595 -0.3212 -1.7059
  175SAPI  C21119894   4.880   6.252   7.680  0.2434 -0.5497 -0.8514
  175SAPI  H11R19895   4.774   6.224   7.692  0.5280 -0.7527  1.5862
  175SAPI  C21219896   4.953   6.252   7.796 -0.0370 -0.2346  0.4445
  175SAPI  H12R19897   4.911   6.229   7.895  0.1283  0.6731  0.7374
  175SAPI  C21319898   5.090   6.296   7.809 -0.0399  0.4323 -0.7408
  175SAPI  H13R19899   5.152   6.224   7.751  1.1273 -0.4015  1.4096
  175SAPI  H13S19900   5.116   6.270   7.914  0.1196 -0.8848 -1.0981
  175SAPI  C21419901   5.118   6.445   7.791  0.0647  0.4652 -0.1225
  175SAPI  H14R19902   5.084   6.477   7.691 -0.2552  0.2865 -0.0733
  175SAPI  C21519903   5.211   6.516   7.857 -0.7693  0.1216 -0.2926
  175SAPI  H15R19904   5.226   6.621   7.829  2.0837  0.2168  1.2550
  175SAPI  C21619905   5.298   6.473   7.973  0.3773 -0.1916  1.2803
  175SAPI  H16R19906   5.400   6.456   7.932 -0.7322 -0.5932 -1.5179
  175SAPI  H16S19907   5.271   6.372   8.012 -0.0567  0.1589  1.9168
  175SAPI  C21719908   5.317   6.579   8.093 -0.2722 -0.0787 -0.0931
  175SAPI  H17R19909   5.218   6.603   8.138 -0.6893 -2.5792  0.4695
  175SAPI  H17S19910   5.373   6.672   8.070 -0.1558  0.0140  0.5595
  175SAPI  C21819911   5.395   6.497   8.199 -0.1372 -0.6347  0.5804
  175SAPI  H18R19912   5.498   6.477   8.162 -0.0675  1.3702 -0.4616
  175SAPI  H18S19913   5.343   6.401   8.218 -1.0084 -0.6104 -1.3703
  175SAPI  C21919914   5.393   6.565   8.337 -0.6527 -0.8567  0.3964
  175SAPI  H19R19915   5.285   6.580   8.358 -1.2065 -3.7034  0.0402
  175SAPI  H19S19916   5.442   6.664   8.322  0.8505 -1.2377  2.3991
  175SAPI  C22019917   5.457   6.492   8.453 -0.2076 -0.3771  0.8124
  175SAPI  H20R19918   5.450   6.548   8.548  1.5021 -0.2115  0.8626
  175SAPI  H20S19919   5.563   6.474   8.425 -0.4880 -0.5738 -0.1536
  175SAPI  H20T19920   5.400   6.396   8.452 -0.5963 -0.1547 -0.9396
  175SAPI   C3319921   4.436   6.314   7.249  0.5864  0.9042  0.5496
  175SAPI   H3X19922   4.389   6.415   7.255 -0.3966  0.4521  0.7119
  175SAPI   H3Y19923   4.527   6.338   7.190 -0.0882 -1.1411 -1.4753
  175SAPI   C3419924   4.481   6.255   7.381  0.2699  0.0414  0.1011
  175SAPI   H4X19925   4.578   6.302   7.407  1.5174 -1.0102 -2.3602
  175SAPI   H4Y19926   4.496   6.146   7.365 -0.2102 -0.2856  1.6909
  175SAPI   C3519927   4.399   6.271   7.506 -0.3911 -0.7745 -0.0288
  175SAPI   H5X19928   4.293   6.240   7.490 -1.1881  1.8241 -0.2235
  175SAPI   H5Y19929   4.400   6.379   7.533  1.2171 -0.9687  0.8166
  175SAPI   C3619930   4.443   6.193   7.624 -0.1213  0.1426  0.4667
  175SAPI   H6X19931   4.540   6.222   7.671  1.4448 -2.5807 -0.7885
  175SAPI   H6Y19932   4.464   6.089   7.590  2.9049  0.8808 -0.2018
  175SAPI   C3719933   4.341   6.203   7.744 -0.4772  0.3356  0.4246
  175SAPI   H7X19934   4.246   6.156   7.712 -0.9069  0.3369  1.6409
  175SAPI   H7Y19935   4.332   6.313   7.758 -0.0770  0.3485  0.5854
  175SAPI   C3819936   4.380   6.140   7.879  0.0883  0.5161  0.4340
  175SAPI   H8X19937   4.471   6.195   7.911  1.2374  2.4198 -5.0363
  175SAPI   H8Y19938   4.409   6.035   7.856  0.0657  0.6741 -0.3299
  175SAPI   C3919939   4.260   6.143   7.976 -0.3187 -0.1740  0.9050
  175SAPI   H9X19940   4.172   6.118   7.912  0.3819  1.5023 -0.7800
  175SAPI   H9Y19941   4.241   6.248   8.004 -0.3172  0.6296 -1.8745
  175SAPI  C31019942   4.289   6.067   8.102 -0.2917 -0.0855 -0.7429
  175SAPI  H10X19943   4.320   5.964   8.075 -1.8734  0.0735 -3.5297
  175SAPI  H10Y19944   4.198   6.073   8.165  0.3808 -0.0547  0.2458
  175SAPI  C31119945   4.406   6.143   8.179 -0.3311  0.1236 -0.4066
  175SAPI  H11X19946   4.369   6.245   8.201  0.5235 -0.2022  3.2927
  175SAPI  H11Y19947   4.506   6.159   8.133  1.0506 -1.7407  1.7273
  175SAPI  C31219948   4.442   6.078   8.315  0.3000 -0.7969 -0.6638
  175SAPI  H12X19949   4.495   5.981   8.311  0.7011 -0.7304  1.7996
  175SAPI  H12Y19950   4.344   6.056   8.362  0.6294 -0.0381  0.4137
  175SAPI  C31319951   4.514   6.175   8.412 -0.1585  0.0594  0.1562
  175SAPI  H13X19952   4.480   6.280   8.398  3.9626  1.6395  0.7270
  175SAPI  H13Y19953   4.618   6.182   8.373 -0.6018  0.4004 -1.0080
  175SAPI  C31419954   4.504   6.133   8.561 -0.0323  1.2347  0.8454
  175SAPI  H14X19955   4.568   6.047   8.588 -3.3448 -1.4354  0.9040
  175SAPI  H14Y19956   4.395   6.111   8.569 -0.3793  2.8080  0.7053
  175SAPI  C31519957   4.539   6.238   8.671  0.2260  0.3253 -0.3565
  175SAPI  H15X19958   4.638   6.277   8.641  1.4021 -0.3345  2.3797
  175SAPI  H15Y19959   4.540   6.187   8.769 -1.3294 -1.8418 -1.3959
  175SAPI  C31619960   4.446   6.362   8.666  0.5306 -0.0468 -0.0880
  175SAPI  H16X19961   4.416   6.396   8.564  1.4291 -1.1007 -0.7238
  175SAPI  H16Y19962   4.497   6.451   8.707 -0.8309  1.1122 -0.8481
  175SAPI  C31719963   4.315   6.349   8.748 -0.8857 -1.0064 -0.3732
  175SAPI  H17X19964   4.256   6.260   8.718  0.3887 -2.2085  0.5560
  175SAPI  H17Y19965   4.259   6.445   8.745 -0.4657 -0.7730 -0.9248
  175SAPI  C31819966   4.335   6.329   8.901  0.3197 -0.4992 -0.0155
  175SAPI  H18X19967   4.394   6.408   8.953  1.1434  0.6591 -2.5584
  175SAPI  H18Y19968   4.387   6.233   8.923 -1.1717 -1.5179 -0.7702
  175SAPI  H18Z19969   4.236   6.331   8.952  0.2549  1.2182 -0.1725
  176SAPI   C1219970   5.539   3.935   6.595  0.0066 -0.1195  0.9635
  176SAPI    H219971   5.577   3.996   6.680 -0.8652  2.4907 -0.4028
  176SAPI    O219972   5.606   3.965   6.469  0.1792  0.2218  0.0579
  176SAPI   HO219973   5.552   4.027   6.419  1.7517 -1.2556 -3.8571
  176SAPI   C1319974   5.575   3.791   6.642  0.1213 -0.4998 -0.2754
  176SAPI    H319975   5.542   3.748   6.738  1.5342 -2.9192 -0.8011
  176SAPI    O319976   5.717   3.780   6.644 -0.0091  0.6461 -0.7608
  176SAPI   HO319977   5.748   3.728   6.719  1.9698  1.1223 -1.1688
  176SAPI   C1419978   5.524   3.690   6.535 -0.0542 -0.2934 -0.4391
  176SAPI    H419979   5.576   3.715   6.439  0.5095  0.1499 -0.0254
  176SAPI    O419980   5.543   3.556   6.569 -0.7047 -0.1085  0.0184
  176SAPI   HO419981   5.627   3.528   6.533 -0.2680  1.2518 -0.0697
  176SAPI   C1519982   5.378   3.711   6.498 -0.3998 -0.4459 -0.4272
  176SAPI    H519983   5.314   3.688   6.586  0.3380 -1.3939 -0.1282
  176SAPI    O519984   5.337   3.617   6.401 -0.4463  1.0465  0.1153
  176SAPI   HO519985   5.249   3.587   6.427 -1.6716  2.7336 -1.8156
  176SAPI   C1619986   5.348   3.857   6.460 -0.6490  0.2261 -0.6124
  176SAPI    H619987   5.400   3.887   6.367 -0.4656  1.1534 -0.2179
  176SAPI    O619988   5.215   3.874   6.433 -0.5919  0.3131 -0.4171
  176SAPI   HO619989   5.194   3.963   6.463  2.4399  0.5236  1.5314
  176SAPI   C1119990   5.385   3.951   6.578 -0.5352  0.2251 -0.7587
  176SAPI    H119991   5.329   3.916   6.668 -0.8559 -1.0635 -1.4258
  176SAPI     P19992   5.245   4.180   6.607  0.3551 -0.5081 -0.6564
  176SAPI   O1319993   5.128   4.094   6.596 -0.2157  0.7638 -0.2680
  176SAPI   O1419994   5.238   4.317   6.551  0.2177 -0.5311 -0.1847
  176SAPI   O1219995   5.374   4.094   6.551  0.9488  0.0752  0.0695
  176SAPI   O1119996   5.290   4.187   6.757 -0.0266  0.2257  0.2964
  176SAPI    C119997   5.220   4.135   6.865  0.1115  0.6134 -0.3883
  176SAPI    HA19998   5.214   4.024   6.863  1.3058  0.2749  4.0944
  176SAPI    HB19999   5.269   4.179   6.955  0.3305  1.1991 -0.7817
  176SAPI    C220000   5.075   4.192   6.884  0.1173  0.5290 -0.4263
  176SAPI    HS20001   5.029   4.160   6.788  2.5215 -0.6036 -1.2921
  176SAPI   O2120002   5.082   4.339   6.892 -0.1378 -0.0647 -0.3247
  176SAPI   C2120003   4.984   4.403   6.835  0.4641  0.4096 -0.3868
  176SAPI   O2220004   4.888   4.344   6.787 -0.7039  0.5852  0.4310
  176SAPI   C2220005   5.004   4.549   6.842 -0.9071 -0.3225 -0.7085
  176SAPI   H2R20006   5.112   4.575   6.839 -0.9939  0.3434  0.7041
  176SAPI   H2S20007   4.956   4.593   6.752 -0.0570 -2.1741 -2.1121
  176SAPI    C320008   5.004   4.126   7.007 -0.0390 -0.4373  0.4896
  176SAPI    HX20009   4.963   4.026   6.979  0.2209 -0.1511 -1.0093
  176SAPI    HY20010   4.916   4.192   7.019  0.0311 -0.5698  1.9878
  176SAPI   O3120011   5.083   4.122   7.122 -0.2851 -0.3070 -0.0861
  176SAPI   C3120012   5.132   4.010   7.166  0.0127 -0.6583 -0.7957
  176SAPI   O3220013   5.088   3.902   7.134  0.1224  0.0956 -0.1717
  176SAPI   C3220014   5.221   4.048   7.288 -0.8206  0.4170 -0.9408
  176SAPI   H2X20015   5.181   4.142   7.332  0.4364  0.7729 -0.5227
  176SAPI   H2Y20016   5.316   4.065   7.234 -0.4198  0.6161 -0.1846
  176SAPI   C2320017   4.937   4.610   6.964 -0.3521  0.3841 -0.1633
  176SAPI   H3R20018   4.962   4.718   6.970  1.6997 -0.1136  2.2272
  176SAPI   H3S20019   4.985   4.563   7.052 -0.7911 -1.1807 -0.7190
  176SAPI   C2420020   4.787   4.578   6.975  0.1883 -0.0760 -0.2769
  176SAPI   H4R20021   4.776   4.472   7.007 -1.8136  0.0277 -0.4856
  176SAPI   H4S20022   4.741   4.571   6.875  2.8710 -2.0431 -1.4890
  176SAPI   C2520023   4.714   4.660   7.082  0.0547 -0.1851  0.1174
  176SAPI   H5R20024   4.667   4.749   7.039  2.5943  0.8417 -0.7160
  176SAPI   C2620025   4.705   4.629   7.214  0.4665 -0.7419  0.1202
  176SAPI   H6R20026   4.657   4.705   7.277  2.3287  0.8679 -0.3017
  176SAPI   C2720027   4.761   4.513   7.291 -0.2087  0.1604  0.9426
  176SAPI   H7R20028   4.850   4.556   7.342 -0.0851 -0.1419  0.9857
  176SAPI   H7S20029   4.807   4.448   7.214  0.0907  0.9255  0.4637
  176SAPI   C2820030   4.657   4.447   7.383  0.1300 -0.6216 -0.7167
  176SAPI   H8R20031   4.614   4.354   7.343 -0.1394 -0.9545  0.3057
  176SAPI   C2920032   4.604   4.501   7.495  0.0703  0.4063  0.0461
  176SAPI   H9R20033   4.522   4.450   7.548 -0.3203  1.7428  0.7853
  176SAPI  C21020034   4.641   4.633   7.551  0.5559 -0.3107 -0.3655
  176SAPI  H10R20035   4.640   4.703   7.465 -1.2381 -0.8190 -0.8041
  176SAPI  H10S20036   4.748   4.633   7.582  0.7249 -0.8450 -0.9220
  176SAPI  C21120037   4.545   4.678   7.661  0.6134 -0.5029 -0.2061
  176SAPI  H11R20038   4.452   4.725   7.625  0.8461 -1.2059 -1.8419
  176SAPI  C21220039   4.554   4.663   7.796  0.1854  0.5753  0.0571
  176SAPI  H12R20040   4.479   4.715   7.857 -1.8110 -3.6786  1.6252
  176SAPI  C21320041   4.661   4.588   7.873  0.0301  0.1765  0.1358
  176SAPI  H13R20042   4.755   4.646   7.886  2.5270 -3.4574 -0.4188
  176SAPI  H13S20043   4.703   4.502   7.818 -2.1981  0.0644 -1.5517
  176SAPI  C21420044   4.595   4.539   7.999 -0.2754 -0.0384  0.7007
  176SAPI  H14R20045   4.533   4.450   7.977  0.6811 -0.4298 -0.5405
  176SAPI  C21520046   4.617   4.589   8.122  0.1608 -0.2311  0.5254
  176SAPI  H15R20047   4.549   4.548   8.199 -0.6942  0.7704  0.3418
  176SAPI  C21620048   4.703   4.709   8.160  0.1328  0.9076 -0.4713
  176SAPI  H16R20049   4.746   4.758   8.069 -0.5077  1.2280 -0.6061
  176SAPI  H16S20050   4.784   4.676   8.229 -0.3456  2.5005  0.9280
  176SAPI  C21720051   4.617   4.822   8.226 -0.0357 -0.3223  0.1557
  176SAPI  H17R20052   4.512   4.802   8.193 -0.6544  0.6362  1.4914
  176SAPI  H17S20053   4.660   4.915   8.183 -1.3752 -0.2755 -1.1951
  176SAPI  C21820054   4.617   4.822   8.378  0.2376 -0.1211  0.2231
  176SAPI  H18R20055   4.570   4.914   8.418  1.0084  0.4666 -0.1908
  176SAPI  H18S20056   4.724   4.838   8.406  0.1533 -0.5854  0.8310
  176SAPI  C21920057   4.578   4.690   8.449 -0.1832  0.4352  0.5205
  176SAPI  H19R20058   4.649   4.609   8.421 -1.3853 -0.4404 -0.1200
  176SAPI  H19S20059   4.477   4.668   8.406 -0.0527  1.7175 -0.4831
  176SAPI  C22020060   4.564   4.703   8.602  0.7866  0.1543  0.6259
  176SAPI  H20R20061   4.469   4.758   8.622  1.6731  0.8464  3.4606
  176SAPI  H20S20062   4.639   4.756   8.666 -0.1541 -0.1219  2.0037
  176SAPI  H20T20063   4.538   4.604   8.643 -0.6700  0.5620  0.7393
  176SAPI   C3320064   5.235   3.930   7.392 -0.1772  0.5882  0.5536
  176SAPI   H3X20065   5.222   3.834   7.338  0.9888  0.0443  1.1997
  176SAPI   H3Y20066   5.151   3.935   7.464 -1.9090 -1.5124 -1.1732
  176SAPI   C3420067   5.371   3.913   7.452 -0.9552  0.5172  0.5520
  176SAPI   H4X20068   5.416   4.011   7.478  1.6152 -0.2919 -0.5335
  176SAPI   H4Y20069   5.438   3.875   7.372 -0.9936  1.9461 -0.1871
  176SAPI   C3520070   5.382   3.822   7.578 -0.3133 -1.3094 -0.0329
  176SAPI   H5X20071   5.491   3.805   7.586  0.5508  1.9057 -2.8327
  176SAPI   H5Y20072   5.324   3.730   7.557 -1.3647 -0.1731 -2.5689
  176SAPI   C3620073   5.325   3.890   7.709 -0.2371  0.3224  0.1895
  176SAPI   H6X20074   5.221   3.918   7.684  0.0692  0.0329 -1.5457
  176SAPI   H6Y20075   5.374   3.985   7.740 -0.6865  0.2451  1.1633
  176SAPI   C3720076   5.346   3.794   7.828 -0.3225 -0.0471  0.1755
  176SAPI   H7X20077   5.446   3.749   7.842  0.1399  0.9720  0.2254
  176SAPI   H7Y20078   5.283   3.706   7.803  1.3408 -0.5070 -2.7123
  176SAPI   C3820079   5.305   3.852   7.966  0.4621  0.2571  0.7724
  176SAPI   H8X20080   5.346   3.955   7.969 -1.5239  1.1119  0.0025
  176SAPI   H8Y20081   5.347   3.788   8.047  0.9752 -1.6197 -0.8969
  176SAPI   C3920082   5.160   3.861   8.004  0.2812  0.1780 -0.2617
  176SAPI   H9X20083   5.134   3.755   8.021 -1.3934  0.5912 -0.0300
  176SAPI   H9Y20084   5.101   3.908   7.922  0.6133 -0.7799 -1.0714
  176SAPI  C31020085   5.127   3.947   8.126  0.2394 -0.4648  0.9470
  176SAPI  H10X20086   5.152   4.050   8.091  0.9898 -1.0559 -0.3468
  176SAPI  H10Y20087   5.195   3.921   8.210  1.4284  1.1293  0.5391
  176SAPI  C31120088   4.985   3.931   8.176 -0.4624 -0.1393  0.4072
  176SAPI  H11X20089   4.964   3.822   8.179 -2.7269  0.2365  0.5766
  176SAPI  H11Y20090   4.923   3.976   8.095 -1.3431  0.7328  1.5193
  176SAPI  C31220091   4.941   3.991   8.308 -0.6623 -0.1537  0.1741
  176SAPI  H12X20092   5.010   3.963   8.390 -0.9126 -0.5570  0.2496
  176SAPI  H12Y20093   4.840   3.956   8.341 -0.1331 -0.8273  1.1095
  176SAPI  C31320094   4.932   4.146   8.296 -0.2848  0.1474 -0.1486
  176SAPI  H13X20095   4.852   4.176   8.225  1.5016  1.2869 -1.7898
  176SAPI  H13Y20096   5.029   4.179   8.254 -0.3499  1.2364  0.5269
  176SAPI  C31420097   4.925   4.220   8.425  0.2695  0.8298 -0.1762
  176SAPI  H14X20098   4.897   4.326   8.407  0.3991  1.3186  2.2145
  176SAPI  H14Y20099   5.024   4.233   8.473  0.0644 -1.5998  1.0461
  176SAPI  C31520100   4.826   4.161   8.521 -0.0490  0.1667 -0.3217
  176SAPI  H15X20101   4.847   4.057   8.554 -0.3062  0.5331  1.0641
  176SAPI  H15Y20102   4.726   4.150   8.473  1.1597  0.6856 -3.1972
  176SAPI  C31620103   4.822   4.237   8.653 -0.3771 -0.0109  0.5034
  176SAPI  H16X20104   4.752   4.322   8.645  0.8976  1.0784  0.6190
  176SAPI  H16Y20105   4.922   4.278   8.679 -0.4299  1.2204 -1.0718
  176SAPI  C31720106   4.765   4.143   8.757  0.2556  0.0142 -0.0213
  176SAPI  H17X20107   4.773   4.168   8.865 -0.1439 -2.0896  0.5401
  176SAPI  H17Y20108   4.818   4.047   8.738  0.4952  0.1253  0.0909
  176SAPI  C31820109   4.616   4.107   8.741 -0.1442 -0.2924 -0.4033
  176SAPI  H18X20110   4.595   4.095   8.633  1.9047 -1.1138 -0.7490
  176SAPI  H18Y20111   4.546   4.184   8.779 -0.2238 -0.8337  0.5803
  176SAPI  H18Z20112   4.597   4.007   8.786  0.3585  0.2372  1.0480
  177SLPC     N20113   5.579   1.893  11.168  0.1142  0.1239  0.3865
  177SLPC   C1320114   5.681   1.792  11.134 -0.6777 -0.1214  0.0261
  177SLPC  H13A20115   5.767   1.832  11.081  0.5583 -2.4373  0.1618
  177SLPC  H13B20116   5.734   1.754  11.220 -0.7240 -0.2483 -0.0008
  177SLPC  H13C20117   5.634   1.715  11.075 -1.2960 -0.9358  1.5540
  177SLPC   C1420118   5.626   2.015  11.245 -0.2868  0.5023  0.4006
  177SLPC  H14A20119   5.719   1.992  11.294  0.3169  3.0903  0.6126
  177SLPC  H14B20120   5.656   2.103  11.191 -1.0266  3.5618  4.4712
  177SLPC  H14C20121   5.541   2.052  11.300 -2.5296 -0.7500 -1.9745
  177SLPC   C1520122   5.474   1.824  11.251  0.0374  0.1484  0.2671
  177SLPC  H15A20123   5.517   1.778  11.339 -1.3463 -0.7130  0.5179
  177SLPC  H15B20124   5.390   1.881  11.286  0.0653 -0.2480  0.9936
  177SLPC  H15C20125   5.443   1.734  11.200  1.1164 -0.4664  0.6577
  177SLPC   C1220126   5.507   1.959  11.045  0.1281  0.1820  0.2385
  177SLPC  H12A20127   5.444   2.035  11.089 -0.9119  1.0397 -2.5424
  177SLPC  H12B20128   5.432   1.894  11.004  0.5028  0.3916 -0.8086
  177SLPC   C1120129   5.590   2.014  10.927 -0.2565 -0.3248 -0.4705
  177SLPC  H11A20130   5.526   2.050  10.844  0.0042 -0.8412 -0.9075
  177SLPC  H11B20131   5.638   1.928  10.874 -1.2490 -0.1930 -1.6354
  177SLPC     P20132   5.674   2.259  10.938  0.0962  0.2106  0.0752
  177SLPC   O1320133   5.540   2.313  10.977 -0.2438  0.2286  0.4574
  177SLPC   O1420134   5.794   2.328  10.994  0.0678 -0.2291 -0.4095
  177SLPC   O1220135   5.697   2.104  10.961  0.0070  0.0823 -0.0855
  177SLPC   O1120136   5.686   2.278  10.793  0.4890 -0.3887  0.2784
  177SLPC    C120137   5.794   2.228  10.715 -0.1344 -0.0728  1.2248
  177SLPC    HA20138   5.861   2.316  10.706  1.4867 -1.4567 -1.5202
  177SLPC    HB20139   5.851   2.152  10.772 -3.5081 -2.1916  2.0941
  177SLPC    C220140   5.750   2.184  10.574 -0.4354 -0.0469 -0.6722
  177SLPC    HS20141   5.839   2.194  10.509 -0.3028 -0.8038 -0.6118
  177SLPC   O2120142   5.647   2.259  10.519  0.0141 -0.6246 -0.4849
  177SLPC   C2120143   5.668   2.388  10.502  0.8295 -0.2088 -0.4898
  177SLPC   O2220144   5.764   2.457  10.537 -0.3355  0.3477  0.1706
  177SLPC   C2220145   5.542   2.449  10.438 -0.2660 -0.1895  0.2670
  177SLPC   H2R20146   5.458   2.448  10.511 -0.6242 -0.6767 -0.1423
  177SLPC   H2S20147   5.555   2.556  10.410 -1.1151  0.6043  2.6357
  177SLPC    C320148   5.696   2.039  10.581  0.2669  0.0909 -0.1650
  177SLPC    HX20149   5.595   2.045  10.625  0.2001  0.1677 -0.3272
  177SLPC    HY20150   5.747   1.966  10.647 -0.9852 -0.2392  0.4684
  177SLPC   O3120151   5.686   1.975  10.452  0.2945 -0.0482  0.4170
  177SLPC   C3120152   5.804   1.948  10.395 -0.3773 -0.1990 -0.5109
  177SLPC   O3220153   5.909   1.974  10.450  0.5198 -0.6682  0.6202
  177SLPC   C3220154   5.790   1.880  10.263  0.3567  0.2494 -0.2113
  177SLPC   H2X20155   5.691   1.902  10.219  0.8359  2.7345 -0.1905
  177SLPC   H2Y20156   5.821   1.774  10.276  2.4975  0.5572 -2.0659
  177SLPC   C2320157   5.501   2.375  10.305 -0.4312 -0.5824 -0.2916
  177SLPC   H3R20158   5.403   2.417  10.271 -0.7023 -0.4259  0.6562
  177SLPC   H3S20159   5.474   2.273  10.339  0.6144 -1.2677 -1.4408
  177SLPC   C2420160   5.596   2.371  10.189 -0.4153 -0.0261  0.0512
  177SLPC   H4R20161   5.696   2.339  10.223 -1.0370  0.1977  2.2286
  177SLPC   H4S20162   5.612   2.469  10.141 -0.5553  0.1414  0.3457
  177SLPC   C2520163   5.544   2.275  10.076  0.4733  1.0692 -0.2723
  177SLPC   H5R20164   5.452   2.314  10.028  0.5600  0.2450 -1.1373
  177SLPC   H5S20165   5.529   2.174  10.120 -0.3388  0.7347 -1.2839
  177SLPC   C2620166   5.653   2.243   9.965  0.5473  0.2686  0.0801
  177SLPC   H6R20167   5.636   2.133   9.955 -2.6828  0.6209  0.5882
  177SLPC   H6S20168   5.752   2.263  10.012  0.0695  0.5378  0.9878
  177SLPC   C2720169   5.638   2.307   9.823  0.1497 -0.2477 -0.1702
  177SLPC   H7R20170   5.743   2.313   9.786  1.6021 -0.2143  3.4457
  177SLPC   H7S20171   5.588   2.406   9.830  0.9591  0.4319 -2.9734
  177SLPC   C2820172   5.556   2.220   9.727 -0.1740 -0.1070 -0.0348
  177SLPC   H8R20173   5.470   2.184   9.787  0.9814 -2.7370  0.1780
  177SLPC   H8S20174   5.616   2.128   9.715 -1.9294 -1.6174  2.0070
  177SLPC   C2920175   5.524   2.290   9.596  0.1131  0.3089  0.6342
  177SLPC   H9R20176   5.417   2.317   9.593 -0.5845 -2.1619 -2.4792
  177SLPC  C21020177   5.601   2.307   9.487  0.4379  0.3028  0.1416
  177SLPC  H10R20178   5.560   2.343   9.392 -1.4766 -2.0142 -0.0262
  177SLPC  C21120179   5.738   2.245   9.489  0.1542  0.0170 -0.3471
  177SLPC  H11R20180   5.805   2.300   9.558  0.4832  0.3246 -0.9109
  177SLPC  H11S20181   5.758   2.144   9.532  0.0639  0.9918  2.1756
  177SLPC  C21220182   5.800   2.228   9.356  0.3252 -0.1621  0.5626
  177SLPC  H12R20183   5.764   2.147   9.291 -0.6445 -1.6332  2.8080
  177SLPC  C21320184   5.905   2.302   9.306 -0.1650 -0.1414  0.1008
  177SLPC  H13R20185   5.945   2.287   9.205  3.6260  2.1632  1.0521
  177SLPC  C21420186   5.978   2.416   9.374 -0.5348 -0.8077  0.8349
  177SLPC  H14R20187   6.073   2.380   9.419 -0.2383 -0.9365  0.1092
  177SLPC  H14S20188   5.907   2.441   9.456 -0.2574  0.4843  0.7000
  177SLPC  C21520189   6.011   2.540   9.291  0.4630 -0.4126  0.1688
  177SLPC  H15R20190   5.922   2.598   9.258  0.9810  1.1808  1.4596
  177SLPC  H15S20191   6.060   2.509   9.196  0.7888  1.5427 -0.3477
  177SLPC  C21620192   6.112   2.630   9.363 -0.5966  0.2075 -0.6882
  177SLPC  H16R20193   6.206   2.570   9.369 -1.1149 -0.5220  0.7770
  177SLPC  H16S20194   6.067   2.642   9.464 -2.5765 -0.8044 -1.4012
  177SLPC  C21720195   6.126   2.758   9.297  0.1190 -0.4294  0.2851
  177SLPC  H17R20196   6.032   2.814   9.313  0.2168 -0.1687 -0.0400
  177SLPC  H17S20197   6.129   2.744   9.187 -1.8376 -2.2567  0.3995
  177SLPC  C21820198   6.242   2.832   9.357  0.7694 -0.6616 -0.6617
  177SLPC  H18R20199   6.265   2.932   9.313 -0.7566 -0.8571 -2.0102
  177SLPC  H18S20200   6.337   2.775   9.350  1.4941  0.5493 -1.0291
  177SLPC  H18T20201   6.223   2.868   9.461  0.0171  0.4928 -1.1696
  177SLPC   C3320202   5.886   1.959  10.165  0.4673  0.1348  0.4264
  177SLPC   H3X20203   5.981   1.991  10.213  0.8235 -1.7054  1.0582
  177SLPC   H3Y20204   5.838   2.057  10.145  1.1902  0.0586 -2.0504
  177SLPC   C3420205   5.938   1.884  10.043 -0.4909 -0.0641  0.5034
  177SLPC   H4X20206   5.859   1.879   9.965 -0.5992 -3.5357  0.6973
  177SLPC   H4Y20207   5.960   1.780  10.075  1.2216  1.1474  3.7212
  177SLPC   C3520208   6.070   1.946   9.986  0.2147  0.1077 -0.1033
  177SLPC   H5X20209   6.160   1.919  10.045  0.3156 -0.3867 -0.4756
  177SLPC   H5Y20210   6.057   2.056   9.976  1.2749  0.4149  1.5520
  177SLPC   C3620211   6.097   1.898   9.845  0.0822 -0.0299 -0.0621
  177SLPC   H6X20212   6.013   1.935   9.783  0.0802 -0.7821 -0.5109
  177SLPC   H6Y20213   6.088   1.788   9.837 -2.4400  0.0024  1.2972
  177SLPC   C3720214   6.237   1.944   9.792 -0.1050 -0.1093 -0.6719
  177SLPC   H7X20215   6.317   1.899   9.855  0.1729  1.9040  0.5062
  177SLPC   H7Y20216   6.239   2.051   9.820 -0.9787 -1.2025  4.7706
  177SLPC   C3820217   6.272   1.892   9.648 -0.0841 -0.1954 -0.3138
  177SLPC   H8X20218   6.239   1.787   9.643 -1.4224  0.2375 -1.1408
  177SLPC   H8Y20219   6.381   1.913   9.636  0.3270 -1.2361  1.3315
  177SLPC   C3920220   6.187   1.969   9.547 -0.1308  0.6383 -0.2805
  177SLPC   H9X20221   6.220   2.075   9.552  3.3184  0.0425 -4.1241
  177SLPC   H9Y20222   6.079   1.953   9.567  0.1606 -0.5271  0.4848
  177SLPC  C31020223   6.211   1.918   9.402 -0.1532 -0.6868 -0.5763
  177SLPC  H10X20224   6.162   1.819   9.391 -2.0192  0.1309 -0.0156
  177SLPC  H10Y20225   6.322   1.908   9.398 -0.2085 -2.3623  0.9500
  177SLPC  C31120226   6.168   2.007   9.286 -0.4769 -0.1536 -0.2354
  177SLPC  H11X20227   6.241   2.091   9.287 -0.4813 -0.0500 -2.3502
  177SLPC  H11Y20228   6.065   2.044   9.304 -0.1902  0.8050 -0.4966
  177SLPC  C31220229   6.172   1.936   9.148  0.0084  0.7379 -0.0684
  177SLPC  H12X20230   6.132   1.835   9.169 -0.1656  1.4814  3.9810
  177SLPC  H12Y20231   6.277   1.909   9.124 -0.5268  0.1690 -1.9123
  177SLPC  C31320232   6.106   2.009   9.027  0.7579  0.0646 -0.4828
  177SLPC  H13X20233   5.996   2.019   9.041  0.8091 -0.5781  0.4724
  177SLPC  H13Y20234   6.119   1.940   8.941 -2.4604  0.5886 -1.5251
  177SLPC  C31420235   6.173   2.133   8.990  0.0694 -0.0443  0.5442
  177SLPC  H14X20236   6.277   2.112   8.960 -0.2079 -2.7269  1.2031
  177SLPC  H14Y20237   6.174   2.203   9.075  1.6095  2.1131 -1.1366
  177SLPC  C31520238   6.105   2.206   8.875  0.6369  0.2917  0.3730
  177SLPC  H15X20239   5.998   2.211   8.901  0.7875  0.8562  0.9092
  177SLPC  H15Y20240   6.116   2.134   8.791  0.8431  0.6578  0.0813
  177SLPC  C31620241   6.151   2.347   8.849 -0.1650  0.5409 -0.3790
  177SLPC  H16X20242   6.184   2.392   8.945  0.4176 -0.5426 -0.0503
  177SLPC  H16Y20243   6.063   2.402   8.810 -0.6342 -1.6984 -2.7381
  177SLPC  C31720244   6.274   2.371   8.754 -0.4066 -0.5348  0.9136
  177SLPC  H17X20245   6.252   2.321   8.657 -3.3530  0.7163  0.8530
  177SLPC  H17Y20246   6.365   2.314   8.783 -0.0508 -0.6078 -0.2802
  177SLPC  C31820247   6.312   2.520   8.736  0.1992  0.0394  0.1573
  177SLPC  H18X20248   6.219   2.577   8.716 -0.8262 -0.9785  1.7765
  177SLPC  H18Y20249   6.385   2.525   8.653  1.7841 -0.5242  1.4689
  177SLPC  H18Z20250   6.361   2.554   8.829  0.3277 -2.0701  0.9093
  178SLPC     N20251   6.799   5.375  10.734  0.1017  0.3631 -0.4063
  178SLPC   C1320252   6.766   5.517  10.737  0.2812  0.3288 -0.8095
  178SLPC  H13A20253   6.804   5.563  10.827  1.1816  1.1319 -1.5725
  178SLPC  H13B20254   6.809   5.579  10.659 -0.0012  1.7694  0.1441
  178SLPC  H13C20255   6.658   5.522  10.738  0.2749  1.0645 -2.0209
  178SLPC   C1420256   6.726   5.297  10.625 -0.4889  0.2328 -0.3639
  178SLPC  H14A20257   6.764   5.196  10.622  1.0757  0.7446  0.6109
  178SLPC  H14B20258   6.619   5.300  10.636 -0.3873 -0.0779  0.9004
  178SLPC  H14C20259   6.750   5.333  10.526 -0.0165  3.1271  0.7170
  178SLPC   C1520260   6.757   5.318  10.866  0.9390  0.4999  0.4583
  178SLPC  H15A20261   6.826   5.330  10.948  0.2935 -2.7875  1.6646
  178SLPC  H15B20262   6.661   5.358  10.894  1.7693  2.9315  0.0927
  178SLPC  H15C20263   6.755   5.211  10.853  1.8642  0.6247 -0.9314
  178SLPC   C1220264   6.948   5.353  10.718 -0.2605 -0.4957 -0.3670
  178SLPC  H12A20265   6.994   5.423  10.786 -0.8209  0.9829 -1.4456
  178SLPC  H12B20266   6.965   5.384  10.615 -1.0718 -1.5195 -0.8281
  178SLPC   C1120267   7.025   5.217  10.722  0.5165  0.9103 -0.4393
  178SLPC  H11A20268   7.125   5.238  10.679  1.3936 -0.7706  0.6798
  178SLPC  H11B20269   6.976   5.137  10.663 -0.6306 -0.0500  1.6739
  178SLPC     P20270   7.000   5.019  10.899  0.2315  0.0015 -0.1123
  178SLPC   O1320271   7.030   4.984  11.038  0.4483 -0.4604 -0.3909
  178SLPC   O1420272   6.873   4.980  10.837 -0.2359  0.1381 -0.0351
  178SLPC   O1220273   7.033   5.172  10.857 -0.2248  0.0237  0.2725
  178SLPC   O1120274   7.111   4.940  10.815  0.2411  0.3228  0.5619
  178SLPC    C120275   7.246   4.992  10.782 -0.1668 -0.5504 -0.2366
  178SLPC    HA20276   7.249   5.087  10.724 -1.5502 -1.5038 -1.9617
  178SLPC    HB20277   7.306   5.011  10.873 -0.4082 -1.0615  0.0332
  178SLPC    C220278   7.339   4.896  10.710 -0.3751 -0.2493 -0.3213
  178SLPC    HS20279   7.426   4.943  10.659 -1.2151  1.7185 -0.0176
  178SLPC   O2120280   7.251   4.844  10.606 -0.0133 -0.3793 -0.2420
  178SLPC   C2120281   7.216   4.934  10.512 -0.3018  0.3140 -0.2398
  178SLPC   O2220282   7.269   5.045  10.500  0.9663 -0.2431 -0.3510
  178SLPC   C2220283   7.088   4.879  10.441 -0.3298  0.1880 -0.1581
  178SLPC   H2R20284   7.121   4.783  10.395  1.9956  0.6381  0.4638
  178SLPC   H2S20285   7.016   4.853  10.521 -1.6090  1.2169 -0.9522
  178SLPC    C320286   7.395   4.781  10.800  0.5079 -0.9331 -0.8116
  178SLPC    HX20287   7.309   4.717  10.828  0.4224  0.0359  1.3559
  178SLPC    HY20288   7.431   4.831  10.893 -0.7208 -0.6389 -0.4749
  178SLPC   O3120289   7.498   4.705  10.741 -0.0701  0.7849  0.1892
  178SLPC   C3120290   7.537   4.597  10.799 -0.7505  0.2461  0.6904
  178SLPC   O3220291   7.483   4.549  10.899 -0.4378 -0.0021 -0.0997
  178SLPC   C3220292   7.662   4.549  10.728  0.5608 -0.2264  0.8523
  178SLPC   H2X20293   7.739   4.529  10.806  0.3046 -0.2423  1.1043
  178SLPC   H2Y20294   7.706   4.633  10.670  0.8084  0.1119  1.5206
  178SLPC   C2320295   7.047   4.967  10.323 -0.2284  0.3545 -0.5035
  178SLPC   H3R20296   7.135   4.987  10.258  2.6595 -1.5106  2.5246
  178SLPC   H3S20297   7.018   5.064  10.369 -1.4632  0.1713 -0.8518
  178SLPC   C2420298   6.933   4.909  10.230 -0.8439 -0.5070 -0.2198
  178SLPC   H4R20299   6.833   4.933  10.274 -0.9993  0.4108 -1.0417
  178SLPC   H4S20300   6.942   4.798  10.233  1.3877 -0.3662 -0.4920
  178SLPC   C2520301   6.953   4.959  10.084  0.0347  0.2837 -0.7689
  178SLPC   H5R20302   7.051   4.917  10.052 -0.1841 -0.3261 -0.6435
  178SLPC   H5S20303   6.958   5.070  10.091  0.9498  0.3707 -2.3103
  178SLPC   C2620304   6.836   4.916   9.985  0.1521  1.0446 -0.3560
  178SLPC   H6R20305   6.764   5.001   9.977 -1.6401 -0.5440 -2.1140
  178SLPC   H6S20306   6.783   4.831  10.034  0.4384  1.4065  0.6026
  178SLPC   C2720307   6.879   4.872   9.847  0.5892 -0.0755 -0.9525
  178SLPC   H7R20308   6.965   4.805   9.873  0.0498 -0.0218  1.1815
  178SLPC   H7S20309   6.919   4.956   9.787 -0.8728  0.6852 -0.9001
  178SLPC   C2820310   6.772   4.804   9.765  0.0990  0.7716 -0.0811
  178SLPC   H8R20311   6.693   4.878   9.739  0.2363  1.1169  0.4670
  178SLPC   H8S20312   6.721   4.728   9.828  0.1042 -1.6390 -2.7856
  178SLPC   C2920313   6.837   4.742   9.644  0.0449 -0.3032 -0.2085
  178SLPC   H9R20314   6.925   4.683   9.674  0.5195  0.7082  0.4687
  178SLPC  C21020315   6.797   4.731   9.509  0.3430  0.0505 -0.2999
  178SLPC  H10R20316   6.863   4.690   9.432  1.4777 -0.9392  1.1481
  178SLPC  C21120317   6.679   4.795   9.449 -0.4640 -0.8424  0.4188
  178SLPC  H11R20318   6.598   4.815   9.523  0.1481 -1.4798  1.2811
  178SLPC  H11S20319   6.627   4.725   9.381 -1.3813  1.1352 -1.0199
  178SLPC  C21220320   6.706   4.926   9.381 -0.3255  0.1898 -0.0945
  178SLPC  H12R20321   6.788   4.989   9.419  0.6987 -0.6505 -0.8573
  178SLPC  C21320322   6.646   4.974   9.269 -0.3235 -0.0945 -0.6117
  178SLPC  H13R20323   6.677   5.073   9.232  1.0516 -1.3442 -3.0565
  178SLPC  C21420324   6.540   4.899   9.187  0.4757 -0.1381  0.2089
  178SLPC  H14R20325   6.463   4.864   9.259 -1.5597 -0.1491 -1.8765
  178SLPC  H14S20326   6.584   4.813   9.132  0.7830 -1.7522  2.7835
  178SLPC  C21520327   6.492   4.988   9.074  0.4821 -0.2981  0.4018
  178SLPC  H15R20328   6.475   5.094   9.102  2.9226  0.6512 -1.4286
  178SLPC  H15S20329   6.402   4.958   9.015  0.2476 -0.4688  0.8381
  178SLPC  C21620330   6.602   5.006   8.961 -0.2112  0.2490 -1.2154
  178SLPC  H16R20331   6.652   4.911   8.933 -0.4749 -0.7007  1.2251
  178SLPC  H16S20332   6.675   5.079   9.000 -0.3843 -0.8406  1.3589
  178SLPC  C21720333   6.552   5.061   8.838  1.2203  0.4397  0.7773
  178SLPC  H17R20334   6.459   5.010   8.805  0.4960  2.9529 -1.3333
  178SLPC  H17S20335   6.627   5.048   8.758 -1.0328  0.3911 -1.4435
  178SLPC  C21820336   6.520   5.210   8.835  0.1405  0.7226 -0.0242
  178SLPC  H18R20337   6.476   5.247   8.930 -0.1919  0.8497 -0.2245
  178SLPC  H18S20338   6.441   5.220   8.757  0.8541  0.7786 -0.7546
  178SLPC  H18T20339   6.604   5.277   8.806 -0.4613  1.8130  0.6934
  178SLPC   C3320340   7.644   4.430  10.630 -0.4833 -0.2041 -0.5257
  178SLPC   H3X20341   7.538   4.426  10.597 -0.4532  0.2279 -0.6708
  178SLPC   H3Y20342   7.669   4.332  10.677  1.8657  1.1931  1.4095
  178SLPC   C3420343   7.738   4.444  10.510  0.0692  0.2235  0.8427
  178SLPC   H4X20344   7.844   4.475  10.524  0.4452  0.1526 -1.4194
  178SLPC   H4Y20345   7.704   4.527  10.444  1.4293  0.7205  0.7227
  178SLPC   C3520346   7.730   4.319  10.425  0.6228 -0.0949 -0.0798
  178SLPC   H5X20347   7.626   4.290  10.399 -0.0586 -0.3282  2.6297
  178SLPC   H5Y20348   7.781   4.236  10.480  0.2201 -1.1007 -1.1602
  178SLPC   C3620349   7.808   4.351  10.301 -0.6164 -0.3128  0.4906
  178SLPC   H6X20350   7.915   4.361  10.327 -0.6302 -0.3941  0.5817
  178SLPC   H6Y20351   7.773   4.445  10.253  2.6901  0.8873  0.1644
  178SLPC   C3720352   7.809   4.235  10.203  0.0118  0.7031  0.1795
  178SLPC   H7X20353   7.706   4.218  10.164  0.8024 -0.5262 -1.5049
  178SLPC   H7Y20354   7.850   4.146  10.254  0.9002  0.5298 -0.7838
  178SLPC   C3820355   7.900   4.278  10.082 -0.4496  0.6765 -0.2688
  178SLPC   H8X20356   8.005   4.266  10.114 -0.7464 -0.1521  0.4294
  178SLPC   H8Y20357   7.871   4.380  10.051 -0.0545  1.1387  0.8414
  178SLPC   C3920358   7.882   4.184   9.957  0.1234  0.0617  0.7516
  178SLPC   H9X20359   7.772   4.168   9.953  0.0797  0.5240 -0.1126
  178SLPC   H9Y20360   7.939   4.092   9.984  0.4739  0.6740  2.1891
  178SLPC  C31020361   7.932   4.245   9.826 -0.0237 -0.5815  0.2730
  178SLPC  H10X20362   8.043   4.245   9.833  0.1404  4.5518  1.8752
  178SLPC  H10Y20363   7.894   4.349   9.831  0.3509 -0.4388  0.2224
  178SLPC  C31120364   7.887   4.179   9.701  0.2954 -0.7411 -0.0496
  178SLPC  H11X20365   7.776   4.176   9.704  0.3329 -1.4240  1.1104
  178SLPC  H11Y20366   7.920   4.073   9.696 -0.0796 -0.8545 -4.1090
  178SLPC  C31220367   7.925   4.248   9.565  0.5629 -0.6641 -0.5850
  178SLPC  H12X20368   8.035   4.236   9.563  0.6440  0.1038 -2.0898
  178SLPC  H12Y20369   7.903   4.357   9.562  2.4315 -0.2608 -0.8261
  178SLPC  C31320370   7.877   4.168   9.441  0.3348  0.9709 -0.6375
  178SLPC  H13X20371   7.769   4.156   9.465  0.8072 -1.5863  0.5578
  178SLPC  H13Y20372   7.928   4.069   9.441 -1.7933 -0.1932 -1.6228
  178SLPC  C31420373   7.906   4.236   9.312  0.7110  0.7135 -1.6013
  178SLPC  H14X20374   8.016   4.248   9.308  1.4101 -3.3156  0.1930
  178SLPC  H14Y20375   7.863   4.338   9.309 -0.8402  0.1211 -0.7127
  178SLPC  C31520376   7.869   4.153   9.190  0.6785 -0.0897  0.0526
  178SLPC  H15X20377   7.939   4.067   9.193  1.5883  0.6334  1.9157
  178SLPC  H15Y20378   7.763   4.123   9.201  0.4644  0.9240  0.9087
  178SLPC  C31620379   7.891   4.221   9.047  0.1749  0.2661 -0.4784
  178SLPC  H16X20380   7.990   4.272   9.045  0.3376 -0.0604 -0.8603
  178SLPC  H16Y20381   7.809   4.296   9.040 -0.0443  0.2175  1.1007
  178SLPC  C31720382   7.869   4.120   8.931 -0.1783  0.2814 -0.1372
  178SLPC  H17X20383   7.953   4.047   8.940 -0.0735  0.3765 -0.3526
  178SLPC  H17Y20384   7.878   4.173   8.834  0.3882  0.2260 -0.1210
  178SLPC  C31820385   7.734   4.041   8.937  0.1425 -0.5831  0.9054
  178SLPC  H18X20386   7.718   3.993   9.036 -0.6392 -0.4103  0.8707
  178SLPC  H18Y20387   7.727   3.965   8.857  0.5089 -0.6573  0.9420
  178SLPC  H18Z20388   7.655   4.119   8.933 -0.2299 -0.9748  0.5566
  179SLPC     N20389   2.454   0.604  10.803 -0.0482 -0.2736 -0.2748
  179SLPC   C1320390   2.518   0.731  10.862 -0.3992  0.5439  0.4130
  179SLPC  H13A20391   2.438   0.798  10.888 -0.7214  0.6736 -0.8111
  179SLPC  H13B20392   2.581   0.707  10.946 -0.4192  0.5422  0.4270
  179SLPC  H13C20393   2.576   0.772  10.780 -0.4129 -0.4952 -0.1354
  179SLPC   C1420394   2.380   0.538  10.922 -0.4115  0.0526 -0.2884
  179SLPC  H14A20395   2.308   0.602  10.970  0.0679 -0.3079  0.9592
  179SLPC  H14B20396   2.320   0.457  10.884  1.3395 -1.6329  0.3662
  179SLPC  H14C20397   2.453   0.499  10.991  1.7045  1.5699 -1.5588
  179SLPC   C1520398   2.559   0.506  10.763  0.3857 -0.1129 -0.0318
  179SLPC  H15A20399   2.625   0.539  10.684  2.2776 -0.5811  1.2965
  179SLPC  H15B20400   2.634   0.477  10.834  0.5406 -0.3828 -0.3006
  179SLPC  H15C20401   2.515   0.410  10.739 -1.0059  0.2425  1.0130
  179SLPC   C1220402   2.345   0.633  10.700 -0.2592 -0.1259 -0.2185
  179SLPC  H12A20403   2.263   0.688  10.745 -1.4279 -0.5254 -1.7513
  179SLPC  H12B20404   2.311   0.539  10.659  1.8183 -1.3122  0.6275
  179SLPC   C1120405   2.399   0.710  10.580 -0.1195 -0.1938  0.4783
  179SLPC  H11A20406   2.460   0.798  10.610  0.2174  0.0339 -0.8501
  179SLPC  H11B20407   2.312   0.749  10.524  0.0517 -0.2858  0.1481
  179SLPC     P20408   2.415   0.514  10.411  0.1438 -0.0369  0.7827
  179SLPC   O1320409   2.526   0.435  10.350 -0.8501  0.1672  0.7544
  179SLPC   O1420410   2.322   0.437  10.498 -0.2582  0.3074  0.4242
  179SLPC   O1220411   2.481   0.633  10.492 -0.6485  0.0990 -0.2444
  179SLPC   O1120412   2.344   0.589  10.302  0.0610  0.1641  0.3152
  179SLPC    C120413   2.367   0.718  10.244  0.1143 -0.0075  0.2472
  179SLPC    HA20414   2.265   0.762  10.235  0.0680  0.0462  0.9700
  179SLPC    HB20415   2.432   0.793  10.295 -0.7605 -0.1860  1.7147
  179SLPC    C220416   2.422   0.696  10.099  0.1905  0.1775  0.1427
  179SLPC    HS20417   2.513   0.636  10.118  0.1130  0.1962  0.5767
  179SLPC   O2120418   2.449   0.819  10.034  0.3010  0.1695 -0.3467
  179SLPC   C2120419   2.560   0.886  10.070 -0.5272  0.4932 -0.6181
  179SLPC   O2220420   2.651   0.843  10.141 -0.2236 -0.6605  0.1393
  179SLPC   C2220421   2.549   1.028  10.016 -0.4462 -0.5752 -0.2678
  179SLPC   H2R20422   2.445   1.062  10.000 -0.4461 -0.6789 -0.4910
  179SLPC   H2S20423   2.606   1.093  10.086  2.2805 -0.5524 -2.3320
  179SLPC    C320424   2.338   0.605  10.008 -0.4453 -0.2117 -0.8409
  179SLPC    HX20425   2.233   0.643  10.016 -1.0615 -2.0664  0.5278
  179SLPC    HY20426   2.341   0.507  10.060  2.5954  0.8491  1.3099
  179SLPC   O3120427   2.388   0.583   9.874 -0.1147  0.3691 -0.6774
  179SLPC   C3120428   2.291   0.555   9.786 -0.5489  0.3943  0.1750
  179SLPC   O3220429   2.173   0.560   9.808  0.0651 -0.1781 -0.1318
  179SLPC   C3220430   2.355   0.526   9.657  0.9020 -0.8331  0.1506
  179SLPC   H2X20431   2.322   0.424   9.629 -0.0908 -0.6503  0.6299
  179SLPC   H2Y20432   2.466   0.525   9.663  0.9247 -1.3731 -0.2777
  179SLPC   C2320433   2.615   1.049   9.878 -0.0829  0.3734  0.5350
  179SLPC   H3R20434   2.706   0.986   9.875  0.0572  0.4853  1.9571
  179SLPC   H3S20435   2.634   1.157   9.861 -1.7594  0.6700  0.3477
  179SLPC   C2420436   2.515   1.001   9.763 -0.3891  0.7510 -0.2793
  179SLPC   H4R20437   2.416   1.051   9.776 -0.3203  0.5472  1.1867
  179SLPC   H4S20438   2.490   0.894   9.772 -1.2324  0.7015 -2.4600
  179SLPC   C2520439   2.567   1.025   9.623 -0.1340  0.1688  0.2697
  179SLPC   H5R20440   2.671   0.989   9.606  0.4818  2.3678 -0.9759
  179SLPC   H5S20441   2.579   1.134   9.607 -1.5603  0.5825  1.8133
  179SLPC   C2620442   2.473   0.982   9.501 -0.2295  0.3883 -0.4896
  179SLPC   H6R20443   2.372   1.024   9.517  0.2504  1.0091  1.1456
  179SLPC   H6S20444   2.450   0.873   9.502 -0.7080  0.4864 -0.7063
  179SLPC   C2720445   2.540   1.012   9.366 -0.2365 -0.2125 -0.4969
  179SLPC   H7R20446   2.642   0.971   9.352  0.2292  1.8717 -4.8018
  179SLPC   H7S20447   2.558   1.122   9.359 -2.6827  0.1036 -4.6700
  179SLPC   C2820448   2.456   0.973   9.245  0.4598  0.3995  0.5554
  179SLPC   H8R20449   2.375   1.049   9.244  0.1291  0.1010  2.1337
  179SLPC   H8S20450   2.405   0.876   9.265  1.0611 -0.0617 -0.1025
  179SLPC   C2920451   2.552   0.960   9.123 -0.7393  0.2305 -0.2241
  179SLPC   H9R20452   2.628   0.883   9.141  0.3011  1.5388  1.2061
  179SLPC  C21020453   2.562   1.045   9.014 -0.3216 -0.2444  0.9601
  179SLPC  H10R20454   2.632   1.019   8.933  0.2116 -0.6143  1.5271
  179SLPC  C21120455   2.480   1.165   8.987  0.0918 -0.0482 -1.1363
  179SLPC  H11R20456   2.512   1.217   8.895  2.7761  0.0068 -0.2559
  179SLPC  H11S20457   2.492   1.238   9.070  0.6016 -2.2677  0.8812
  179SLPC  C21220458   2.338   1.138   8.971  0.8792 -0.2540 -0.0442
  179SLPC  H12R20459   2.276   1.179   9.052  2.2332  2.6246 -0.3489
  179SLPC  C21320460   2.275   1.102   8.850 -0.5207 -0.4677 -0.5481
  179SLPC  H13R20461   2.165   1.106   8.845 -0.4950  2.4636 -0.4208
  179SLPC  C21420462   2.337   1.106   8.720 -0.0064  0.1015  1.0535
  179SLPC  H14R20463   2.304   1.021   8.656 -1.0633  0.1347  1.5437
  179SLPC  H14S20464   2.448   1.094   8.725  0.2369  0.1780 -2.1328
  179SLPC  C21520465   2.305   1.234   8.646  0.2470 -0.1676  0.1580
  179SLPC  H15R20466   2.345   1.321   8.702  0.2068 -0.3127  0.4156
  179SLPC  H15S20467   2.196   1.257   8.646  0.7425  2.4863  0.9727
  179SLPC  C21620468   2.362   1.238   8.504  0.2446  0.5637  0.0993
  179SLPC  H16R20469   2.366   1.142   8.448 -1.4690 -1.1909  2.7501
  179SLPC  H16S20470   2.465   1.272   8.529  1.0819 -1.2142 -0.7349
  179SLPC  C21720471   2.287   1.340   8.421 -0.1604 -0.3291 -0.1749
  179SLPC  H17R20472   2.304   1.441   8.465  0.8011 -0.1115 -0.9973
  179SLPC  H17S20473   2.181   1.317   8.444  0.1454  0.5287  2.3703
  179SLPC  C21820474   2.325   1.341   8.269 -0.2403  1.1962  0.5439
  179SLPC  H18R20475   2.315   1.237   8.231  0.8127  1.1526  0.3465
  179SLPC  H18S20476   2.419   1.391   8.239 -1.7237  3.3006 -0.8329
  179SLPC  H18T20477   2.242   1.384   8.210 -1.0893 -0.0558  0.7748
  179SLPC   C3320478   2.311   0.641   9.557 -0.3765 -0.2082  0.4575
  179SLPC   H3X20479   2.397   0.633   9.488  0.0488  0.1412  0.9344
  179SLPC   H3Y20480   2.321   0.742   9.603 -1.4868 -0.5774  1.5704
  179SLPC   C3420481   2.186   0.617   9.474 -0.3735  0.6657 -0.5369
  179SLPC   H4X20482   2.127   0.710   9.457 -1.7871 -0.1784 -0.4433
  179SLPC   H4Y20483   2.118   0.557   9.538 -0.4865  0.5602 -0.7556
  179SLPC   C3520484   2.201   0.563   9.331 -0.2670 -0.4714 -0.0814
  179SLPC   H5X20485   2.274   0.479   9.329 -2.1962 -2.2520  0.7834
  179SLPC   H5Y20486   2.237   0.641   9.260  0.0355 -0.7552 -0.2424
  179SLPC   C3620487   2.069   0.506   9.270 -0.7124  0.3139 -0.7889
  179SLPC   H6X20488   1.999   0.590   9.254  0.1007  1.4467  1.3326
  179SLPC   H6Y20489   2.028   0.439   9.348  1.3916 -0.4682 -0.3065
  179SLPC   C3720490   2.098   0.431   9.141 -0.8751  0.3907 -0.2199
  179SLPC   H7X20491   2.157   0.342   9.172 -1.9194  0.3692  1.8708
  179SLPC   H7Y20492   2.150   0.502   9.073 -0.0498 -0.7862 -0.8585
  179SLPC   C3820493   1.967   0.390   9.069 -0.2404 -0.1686  0.1559
  179SLPC   H8X20494   1.903   0.477   9.044  0.5028  0.8713  1.7156
  179SLPC   H8Y20495   1.911   0.333   9.146 -0.3650  2.9229  2.5567
  179SLPC   C3920496   2.002   0.314   8.940  0.7465 -0.1011 -0.6244
  179SLPC   H9X20497   2.085   0.243   8.958  0.2109 -0.7810 -0.7833
  179SLPC   H9Y20498   2.058   0.393   8.886  0.8021  1.4166  1.4979
  179SLPC  C31020499   1.877   0.273   8.859 -1.2107 -0.5060  0.0321
  179SLPC  H10X20500   1.801   0.353   8.854 -0.3905  0.2913  0.0506
  179SLPC  H10Y20501   1.846   0.187   8.922 -0.8337 -0.2274  0.6104
  179SLPC  C31120502   1.935   0.238   8.714 -0.6389 -0.5958  0.0276
  179SLPC  H11X20503   2.028   0.178   8.715 -0.7506 -0.8604 -1.9925
  179SLPC  H11Y20504   1.951   0.332   8.657  0.4692 -0.8195 -0.0539
  179SLPC  C31220505   1.836   0.147   8.644  0.2008  0.0961 -0.9384
  179SLPC  H12X20506   1.741   0.204   8.637 -1.0504 -1.7410  0.2112
  179SLPC  H12Y20507   1.814   0.062   8.712 -0.8225  0.4255 -0.8363
  179SLPC  C31320508   1.880   0.091   8.508  0.0894 -0.4906 -0.1416
  179SLPC  H13X20509   1.985   0.064   8.530  0.3016  0.9106  0.6724
  179SLPC  H13Y20510   1.889   0.166   8.426  0.4752  0.3526  0.6574
  179SLPC  C31420511   1.804  -0.032   8.468  0.2819  0.4619 -0.9484
  179SLPC  H14X20512   1.707  -0.006   8.419  0.2469  1.0253 -0.5869
  179SLPC  H14Y20513   1.782  -0.084   8.564  0.0787 -1.7405 -2.1272
  179SLPC  C31520514   1.878  -0.126   8.377  0.0842 -0.7977  0.1576
  179SLPC  H15X20515   1.819  -0.220   8.384 -0.6935 -0.5726 -2.3876
  179SLPC  H15Y20516   1.976  -0.143   8.427  0.2098  0.0431  0.2136
  179SLPC  C31620517   1.888  -0.084   8.234 -0.0479  0.7120  0.3073
  179SLPC  H16X20518   1.967  -0.007   8.222  0.0191  0.3481 -1.9318
  179SLPC  H16Y20519   1.799  -0.042   8.183  0.4967 -0.4579 -1.7020
  179SLPC  C31720520   1.945  -0.209   8.152 -0.6125  0.0647  0.4029
  179SLPC  H17X20521   1.876  -0.296   8.160 -0.0302 -0.4385  0.0677
  179SLPC  H17Y20522   2.045  -0.237   8.194  0.9431 -0.9023 -3.5496
  179SLPC  C31820523   1.958  -0.194   7.998 -0.1927 -0.2353 -0.0677
  179SLPC  H18X20524   2.021  -0.106   7.976  1.9961 -1.9954 -1.2766
  179SLPC  H18Y20525   1.856  -0.184   7.955 -0.3405 -1.2870  0.0066
  179SLPC  H18Z20526   2.005  -0.284   7.952 -1.0737  0.2620 -2.0685
  180SLPC     N20527   4.082   3.298  10.815 -0.0659  0.7229 -0.9267
  180SLPC   C1320528   4.163   3.219  10.903 -0.4429  0.2794  0.4927
  180SLPC  H13A20529   4.102   3.146  10.955 -0.3708  0.8408  1.3758
  180SLPC  H13B20530   4.223   3.155  10.839 -2.6100 -0.4981 -0.8670
  180SLPC  H13C20531   4.223   3.271  10.976 -1.3880 -1.8011  2.8770
  180SLPC   C1420532   4.010   3.205  10.727 -0.1774 -0.4265  0.5011
  180SLPC  H14A20533   3.955   3.263  10.654 -1.1773  0.3807  1.8621
  180SLPC  H14B20534   4.076   3.138  10.672  0.9965  1.4439 -0.4728
  180SLPC  H14C20535   3.945   3.130  10.769 -0.3470 -1.1686 -0.9930
  180SLPC   C1520536   4.175   3.377  10.735 -0.2769  0.4899 -0.2872
  180SLPC  H15A20537   4.235   3.447  10.791 -0.2375 -0.9973  1.6152
  180SLPC  H15B20538   4.257   3.316  10.698 -2.2114 -1.9177 -0.8938
  180SLPC  H15C20539   4.121   3.417  10.650  1.1076  1.5718 -0.7029
  180SLPC   C1220540   3.988   3.379  10.897  0.1660 -0.0162 -0.3436
  180SLPC  H12A20541   3.902   3.418  10.845 -0.8124 -1.1766  0.3536
  180SLPC  H12B20542   4.043   3.465  10.930  0.0274  0.8033 -2.1291
  180SLPC   C1120543   3.905   3.312  11.019 -0.7566  0.0941  0.1615
  180SLPC  H11A20544   3.852   3.397  11.066 -2.1228 -0.7647  0.2400
  180SLPC  H11B20545   3.988   3.271  11.081 -0.3269 -0.5327 -0.7953
  180SLPC     P20546   3.663   3.256  10.934 -0.0940 -0.6029 -0.5353
  180SLPC   O1320547   3.593   3.157  10.852  1.1657 -0.3218  0.1511
  180SLPC   O1420548   3.606   3.274  11.069 -0.6449 -0.1360  0.9748
  180SLPC   O1220549   3.815   3.207  10.961 -0.7331 -0.2540  0.0900
  180SLPC   O1120550   3.677   3.394  10.866 -0.0176  0.0724 -0.2226
  180SLPC    C120551   3.586   3.444  10.770  0.3160  0.7712 -0.2890
  180SLPC    HA20552   3.489   3.390  10.757  0.4679  0.5549 -0.5288
  180SLPC    HB20553   3.568   3.550  10.797 -1.0900  0.1067  1.6436
  180SLPC    C220554   3.648   3.452  10.633  0.6428  0.1983 -0.1887
  180SLPC    HS20555   3.573   3.482  10.557  2.0649  0.8628 -1.3913
  180SLPC   O2120556   3.700   3.322  10.598 -0.1603  0.7807  0.4076
  180SLPC   C2120557   3.620   3.240  10.531 -0.2010  0.3202  0.4410
  180SLPC   O2220558   3.497   3.256  10.525  0.3072  0.2310  0.2366
  180SLPC   C2220559   3.694   3.114  10.500 -0.8382  0.2382  0.3220
  180SLPC   H2R20560   3.797   3.115  10.540 -1.6983 -1.6459  2.7844
  180SLPC   H2S20561   3.640   3.031  10.551 -0.6730 -0.7853 -1.1048
  180SLPC    C320562   3.757   3.563  10.632 -0.0758  0.0952 -0.7552
  180SLPC    HX20563   3.831   3.524  10.705 -1.2702  1.7756  1.4831
  180SLPC    HY20564   3.709   3.651  10.682 -0.5160 -0.9731  0.7966
  180SLPC   O3120565   3.805   3.591  10.498 -0.1463 -0.3308  0.5056
  180SLPC   C3120566   3.906   3.517  10.457 -0.0888  0.0101 -0.8875
  180SLPC   O3220567   3.976   3.442  10.527  0.3598 -0.2887  0.4096
  180SLPC   C3220568   3.909   3.529  10.303 -0.4820  0.3268 -0.4501
  180SLPC   H2X20569   3.893   3.639  10.290 -0.1553  0.4469  0.1263
  180SLPC   H2Y20570   3.826   3.468  10.262 -0.3622 -0.3793  0.3428
  180SLPC   C2320571   3.689   3.066  10.353  0.3753 -0.2265  0.4157
  180SLPC   H3R20572   3.589   3.055  10.306  1.0844  1.8717 -1.8304
  180SLPC   H3S20573   3.735   2.965  10.351  2.6564  0.7526  0.4141
  180SLPC   C2420574   3.781   3.153  10.259  0.2890 -1.0251 -0.2564
  180SLPC   H4R20575   3.882   3.162  10.304  0.1283 -1.1418  0.1317
  180SLPC   H4S20576   3.742   3.257  10.265  2.2367 -0.3030  0.6230
  180SLPC   C2520577   3.780   3.103  10.115  0.3252  0.1960 -0.2595
  180SLPC   H5R20578   3.677   3.093  10.075 -0.6158 -3.6222  2.5379
  180SLPC   H5S20579   3.835   3.007  10.109 -1.5604 -0.9733  0.1790
  180SLPC   C2620580   3.862   3.196  10.022  0.0941  0.3674  0.5249
  180SLPC   H6R20581   3.966   3.185  10.060  0.2951  0.2172 -0.0660
  180SLPC   H6S20582   3.836   3.300  10.050 -1.5505  0.6246 -1.6951
  180SLPC   C2720583   3.855   3.165   9.868  0.2046  0.2794 -0.3263
  180SLPC   H7R20584   3.752   3.148   9.830  0.6491  0.5196 -1.6677
  180SLPC   H7S20585   3.910   3.070   9.853 -2.2157 -0.9340 -2.3126
  180SLPC   C2820586   3.931   3.274   9.786  0.1469  0.4283  0.4410
  180SLPC   H8R20587   3.970   3.226   9.694 -1.0506  0.4922 -0.1072
  180SLPC   H8S20588   4.025   3.317   9.828  1.1758  0.6044 -1.8743
  180SLPC   C2920589   3.833   3.384   9.755 -0.6128  0.0219  0.4235
  180SLPC   H9R20590   3.822   3.461   9.833 -1.0117  1.2735 -0.8268
  180SLPC  C21020591   3.745   3.391   9.657 -0.1964  0.5718  0.4579
  180SLPC  H10R20592   3.690   3.486   9.654  1.4976  1.5932  0.1843
  180SLPC  C21120593   3.730   3.300   9.540 -0.5313 -0.0594 -0.4558
  180SLPC  H11R20594   3.650   3.225   9.561 -2.7632  2.9923  3.3980
  180SLPC  H11S20595   3.822   3.239   9.535 -0.5965 -0.0894 -1.3465
  180SLPC  C21220596   3.723   3.375   9.416 -0.0709 -0.3772  0.0922
  180SLPC  H12R20597   3.749   3.481   9.411 -1.6809 -0.0243 -1.6036
  180SLPC  C21320598   3.657   3.332   9.299  0.1406 -0.0265 -1.0250
  180SLPC  H13R20599   3.665   3.390   9.206  1.0887  0.8429 -0.4285
  180SLPC  C21420600   3.588   3.199   9.289  0.4614 -0.2086  0.0221
  180SLPC  H14R20601   3.480   3.218   9.270 -0.5322  0.0663  4.7862
  180SLPC  H14S20602   3.593   3.133   9.378  1.8975 -0.3331 -0.1380
  180SLPC  C21520603   3.636   3.114   9.175  0.0960  0.4054 -0.0630
  180SLPC  H15R20604   3.576   3.020   9.171  0.7957 -0.1626  1.5150
  180SLPC  H15S20605   3.741   3.080   9.185 -0.3943 -1.0181  0.5244
  180SLPC  C21620606   3.627   3.180   9.035 -0.6009 -0.2482 -0.6512
  180SLPC  H16R20607   3.694   3.268   9.023 -0.4645 -0.2627 -0.0468
  180SLPC  H16S20608   3.526   3.225   9.025 -0.2593  1.4020  2.2239
  180SLPC  C21720609   3.652   3.083   8.918  0.2990 -0.6246  0.0467
  180SLPC  H17R20610   3.604   2.983   8.923  0.6213 -0.7827 -0.0229
  180SLPC  H17S20611   3.760   3.060   8.926 -0.4094 -5.4342 -1.3661
  180SLPC  C21820612   3.617   3.147   8.788 -0.3794 -0.1160 -0.5449
  180SLPC  H18R20613   3.509   3.174   8.792  0.0472  1.8318 -1.1051
  180SLPC  H18S20614   3.626   3.079   8.701  0.4495 -2.1594  1.0652
  180SLPC  H18T20615   3.682   3.235   8.764  0.6195 -0.4083  0.9897
  180SLPC   C3320616   4.051   3.491  10.262 -0.0974  0.3268  0.2959
  180SLPC   H3X20617   4.078   3.386  10.288  0.1025  0.6823  1.6154
  180SLPC   H3Y20618   4.110   3.555  10.330  0.4711  0.5293 -0.3724
  180SLPC   C3420619   4.074   3.507  10.115 -0.3023 -0.0020 -0.1216
  180SLPC   H4X20620   4.022   3.598  10.076 -1.0160 -0.2544  0.2210
  180SLPC   H4Y20621   4.026   3.431  10.049 -3.2570  0.9433  0.7421
  180SLPC   C3520622   4.222   3.519  10.086 -0.2656  0.1677  0.6165
  180SLPC   H5X20623   4.269   3.423  10.115 -1.0789 -0.5376 -0.3285
  180SLPC   H5Y20624   4.259   3.592  10.161  0.0378  0.3757  0.2651
  180SLPC   C3620625   4.259   3.533   9.938 -0.2575 -0.3924  0.2704
  180SLPC   H6X20626   4.230   3.634   9.902  1.5464  0.7573  1.7967
  180SLPC   H6Y20627   4.200   3.454   9.887  0.2315  1.0306 -2.7255
  180SLPC   C3720628   4.406   3.505   9.914  0.0959  0.2187  0.4128
  180SLPC   H7X20629   4.444   3.403   9.935 -1.8560  0.1168  4.1348
  180SLPC   H7Y20630   4.472   3.563   9.982  1.3582 -0.7649  0.0660
  180SLPC   C3820631   4.440   3.537   9.766  0.6670 -0.8108 -0.0703
  180SLPC   H8X20632   4.418   3.646   9.759 -0.4890 -1.0574 -0.5548
  180SLPC   H8Y20633   4.362   3.475   9.715 -2.6206  0.3587  3.0648
  180SLPC   C3920634   4.590   3.507   9.726 -0.0853 -0.5053  0.0521
  180SLPC   H9X20635   4.623   3.402   9.736  1.3586  0.0477  1.5928
  180SLPC   H9Y20636   4.641   3.567   9.805  0.2496 -0.2504 -0.3561
  180SLPC  C31020637   4.630   3.572   9.592  0.3723  0.3416 -0.4713
  180SLPC  H10X20638   4.737   3.548   9.571  0.2593 -2.7090  1.8109
  180SLPC  H10Y20639   4.606   3.680   9.598  2.9823  1.1383 -2.2318
  180SLPC  C31120640   4.544   3.502   9.481 -0.2825 -0.5426  0.3278
  180SLPC  H11X20641   4.434   3.518   9.494 -0.1041  1.0092  0.0935
  180SLPC  H11Y20642   4.560   3.392   9.488 -4.0985 -1.1892  1.6459
  180SLPC  C31220643   4.583   3.551   9.340  0.1164  0.3479  0.1534
  180SLPC  H12X20644   4.691   3.536   9.320 -0.4145 -0.8360 -2.2661
  180SLPC  H12Y20645   4.568   3.661   9.340  2.3813  0.7556 -2.1162
  180SLPC  C31320646   4.502   3.489   9.222 -0.2523  0.1469  0.3874
  180SLPC  H13X20647   4.397   3.517   9.247 -0.1880  3.9302 -2.6814
  180SLPC  H13Y20648   4.524   3.380   9.228  0.3092 -0.0477 -3.1037
  180SLPC  C31420649   4.531   3.555   9.086 -0.0320  0.1170 -0.0660
  180SLPC  H14X20650   4.590   3.495   9.013 -0.9111 -0.4043 -0.3591
  180SLPC  H14Y20651   4.589   3.648   9.107 -1.9223  1.1221  0.9596
  180SLPC  C31520652   4.403   3.602   9.009 -0.0436 -0.7005  0.7909
  180SLPC  H15X20653   4.340   3.667   9.072 -1.7152 -0.4461 -1.0213
  180SLPC  H15Y20654   4.335   3.517   8.986  0.0930  0.2696 -4.4662
  180SLPC  C31620655   4.428   3.685   8.882  0.1179 -0.8438 -0.3163
  180SLPC  H16X20656   4.462   3.787   8.911 -2.5296  0.4573 -1.3844
  180SLPC  H16Y20657   4.328   3.709   8.840 -0.8678 -1.9242  1.3067
  180SLPC  C31720658   4.505   3.623   8.770  0.3303 -0.1348 -0.1521
  180SLPC  H17X20659   4.609   3.607   8.805 -0.2599  1.0596  2.3908
  180SLPC  H17Y20660   4.515   3.694   8.685  1.3870 -0.6776 -0.4974
  180SLPC  C31820661   4.448   3.496   8.707 -0.6742 -0.1074 -0.5647
  180SLPC  H18X20662   4.483   3.477   8.603  0.0837  0.8054 -0.4850
  180SLPC  H18Y20663   4.338   3.499   8.692 -0.2899 -1.6369 -5.1400
  180SLPC  H18Z20664   4.482   3.408   8.766  0.9597  0.5002 -0.5770
  181SLPC     N20665   0.271   2.762  11.487 -0.2584  0.3875 -0.4110
  181SLPC   C1320666   0.151   2.700  11.557 -0.4083  0.4151  0.3287
  181SLPC  H13A20667   0.102   2.639  11.484  1.3443 -0.3669 -0.2539
  181SLPC  H13B20668   0.189   2.641  11.639  0.3528 -0.6050 -0.7170
  181SLPC  H13C20669   0.086   2.781  11.587 -1.8060 -0.6737  0.3358
  181SLPC   C1420670   0.370   2.656  11.462  0.1009 -0.3606 -0.2747
  181SLPC  H14A20671   0.461   2.697  11.418 -0.0420  0.3430  0.0646
  181SLPC  H14B20672   0.396   2.601  11.551 -2.9381 -0.0470  0.9102
  181SLPC  H14C20673   0.329   2.583  11.394  3.1616 -2.1852 -0.3411
  181SLPC   C1520674   0.333   2.863  11.583  0.0329 -0.0244  0.0162
  181SLPC  H15A20675   0.256   2.937  11.599 -0.5807 -0.7614  0.5927
  181SLPC  H15B20676   0.356   2.804  11.671 -0.2273  1.3493  1.0316
  181SLPC  H15C20677   0.420   2.915  11.545 -0.2945  1.7069  1.4968
  181SLPC   C1220678   0.227   2.826  11.355  0.2725  0.0523 -0.1751
  181SLPC  H12A20679   0.147   2.896  11.373  0.9983  0.6139  0.9462
  181SLPC  H12B20680   0.191   2.745  11.293  0.3548  0.0946 -0.2780
  181SLPC   C1120681   0.337   2.898  11.279 -0.5991 -0.5231  0.6668
  181SLPC  H11A20682   0.380   2.974  11.348  0.4116  1.4407 -1.9683
  181SLPC  H11B20683   0.283   2.958  11.203 -2.1519 -2.1025  0.4609
  181SLPC     P20684   0.423   2.748  11.076  0.2291  0.2835 -0.5224
  181SLPC   O1320685   0.546   2.671  11.042 -0.2890 -0.7371  0.0125
  181SLPC   O1420686   0.295   2.675  11.073 -0.1805 -0.5227  0.5486
  181SLPC   O1220687   0.447   2.817  11.222  0.7406 -0.9904 -0.6919
  181SLPC   O1120688   0.414   2.882  10.993  0.2693  0.1449  0.8340
  181SLPC    C120689   0.293   2.915  10.929 -0.1701  0.2925 -0.1757
  181SLPC    HA20690   0.204   2.897  10.994 -0.8556 -0.9281 -1.3851
  181SLPC    HB20691   0.299   3.023  10.904 -0.6589  0.0346 -1.5220
  181SLPC    C220692   0.252   2.814  10.805 -0.6299 -0.1839  0.4522
  181SLPC    HS20693   0.249   2.710  10.843  0.9757 -1.1308 -1.8420
  181SLPC   O2120694   0.356   2.813  10.711 -0.2629 -0.3801 -0.0790
  181SLPC   C2120695   0.367   2.706  10.639 -0.1944  0.2238 -0.7226
  181SLPC   O2220696   0.285   2.615  10.627 -0.0901 -0.0661  0.2112
  181SLPC   C2220697   0.506   2.694  10.575  0.1466  0.5428  0.5722
  181SLPC   H2R20698   0.520   2.786  10.514  1.2979 -0.5830 -0.9469
  181SLPC   H2S20699   0.589   2.673  10.646  0.3956 -1.7850 -0.3298
  181SLPC    C320700   0.109   2.846  10.750  0.1785 -0.3492 -0.2020
  181SLPC    HX20701   0.038   2.847  10.835  0.7194  2.3036  0.3079
  181SLPC    HY20702   0.079   2.757  10.690 -1.6476 -0.9933  1.5576
  181SLPC   O3120703   0.113   2.979  10.678 -0.1551 -0.2397  0.1369
  181SLPC   C3120704   0.143   2.971  10.546 -0.3480  0.1359  0.1248
  181SLPC   O3220705   0.176   2.871  10.488 -0.1667  0.0557  0.1852
  181SLPC   C3220706   0.139   3.116  10.500  0.4336 -0.7531  0.0374
  181SLPC   H2X20707   0.186   3.183  10.575 -2.4358  0.7722  0.6139
  181SLPC   H2Y20708   0.036   3.157  10.504  0.8710  0.3043  2.2012
  181SLPC   C2320709   0.531   2.580  10.476 -1.1111  0.1820  0.5165
  181SLPC   H3R20710   0.516   2.475  10.509  0.4310 -0.4377 -0.6136
  181SLPC   H3S20711   0.640   2.570  10.459 -1.2909 -3.4536  0.8282
  181SLPC   C2420712   0.454   2.602  10.344  0.0968 -0.9710 -0.8199
  181SLPC   H4R20713   0.443   2.710  10.320 -1.8303 -1.2342 -1.2881
  181SLPC   H4S20714   0.350   2.562  10.349  0.1306 -0.9231  1.0223
  181SLPC   C2520715   0.527   2.547  10.221 -0.0370 -0.2645  0.3500
  181SLPC   H5R20716   0.565   2.447  10.252 -1.0868 -0.4573  1.0794
  181SLPC   H5S20717   0.623   2.602  10.211  0.5564 -1.3366 -0.0145
  181SLPC   C2620718   0.438   2.543  10.091  0.2813  0.2041 -0.7764
  181SLPC   H6R20719   0.425   2.651  10.067  1.7641  0.3084 -1.2026
  181SLPC   H6S20720   0.335   2.509  10.117  0.4751 -0.8733 -1.3730
  181SLPC   C2720721   0.497   2.478   9.969 -0.0673 -0.0278 -0.6228
  181SLPC   H7R20722   0.472   2.371   9.987 -0.8353  0.1565 -0.5536
  181SLPC   H7S20723   0.607   2.491   9.973  0.0018 -0.7217 -0.0977
  181SLPC   C2820724   0.437   2.532   9.841  0.5129  0.0129 -0.4395
  181SLPC   H8R20725   0.328   2.544   9.857  0.6759 -2.5624  4.2323
  181SLPC   H8S20726   0.453   2.451   9.766  0.1614 -1.2460  0.8014
  181SLPC   C2920727   0.497   2.665   9.804  0.2708 -0.0174  0.5269
  181SLPC   H9R20728   0.487   2.749   9.875  1.0768  0.4557  0.1040
  181SLPC  C21020729   0.574   2.687   9.692 -0.5148 -0.2857 -0.1405
  181SLPC  H10R20730   0.600   2.792   9.669  2.2418 -1.1630 -1.4108
  181SLPC  C21120731   0.617   2.588   9.586 -0.5716  0.5507 -0.5920
  181SLPC  H11R20732   0.561   2.492   9.593 -3.2300  1.9820 -0.6943
  181SLPC  H11S20733   0.720   2.561   9.615 -0.9678  0.3735  0.7330
  181SLPC  C21220734   0.619   2.638   9.445  0.4739  0.6776  0.2761
  181SLPC  H12R20735   0.715   2.661   9.398 -0.3899  2.6269 -0.6408
  181SLPC  C21320736   0.518   2.645   9.361 -0.6757 -0.0654 -0.5664
  181SLPC  H13R20737   0.541   2.703   9.271  2.1712 -0.0596  0.0681
  181SLPC  C21420738   0.376   2.611   9.391  0.4425 -0.8562 -0.5807
  181SLPC  H14R20739   0.308   2.691   9.355  1.1959  1.2031  2.2511
  181SLPC  H14S20740   0.356   2.604   9.500 -2.1151  0.0723 -0.9309
  181SLPC  C21520741   0.323   2.485   9.312  0.3916 -0.0003 -0.0640
  181SLPC  H15R20742   0.213   2.486   9.326 -0.1529 -1.3938 -3.2354
  181SLPC  H15S20743   0.364   2.392   9.355 -0.9364 -0.9321 -0.7469
  181SLPC  C21620744   0.341   2.486   9.163  0.7269  0.1060  0.5481
  181SLPC  H16R20745   0.448   2.480   9.136  1.1707  1.7211  1.8710
  181SLPC  H16S20746   0.311   2.585   9.123 -0.1331 -0.1894  0.4181
  181SLPC  C21720747   0.258   2.374   9.096 -0.7918  0.4729 -0.0901
  181SLPC  H17R20748   0.224   2.409   8.996 -2.4848 -1.6565 -0.3465
  181SLPC  H17S20749   0.158   2.363   9.144 -0.8546 -0.1587 -0.3484
  181SLPC  C21820750   0.321   2.238   9.090 -0.2521 -0.5186 -0.0888
  181SLPC  H18R20751   0.354   2.192   9.185 -1.4466 -0.6281  0.2984
  181SLPC  H18S20752   0.400   2.244   9.012 -0.9808  1.5857 -0.7282
  181SLPC  H18T20753   0.244   2.163   9.059 -0.1472 -0.9853  0.7592
  181SLPC   C3320754   0.198   3.147  10.363  0.2931 -0.8825  0.1115
  181SLPC   H3X20755   0.193   3.258  10.354  1.0158 -0.9334 -1.1042
  181SLPC   H3Y20756   0.124   3.117  10.287 -1.4518  1.5962  0.6954
  181SLPC   C3420757   0.337   3.090  10.331 -0.0571  0.6534  0.4079
  181SLPC   H4X20758   0.371   3.010  10.400 -1.6326 -2.1720 -1.8777
  181SLPC   H4Y20759   0.410   3.174  10.336  0.3348  0.3272  0.2430
  181SLPC   C3520760   0.349   3.017  10.203  0.4421 -0.1259 -0.3123
  181SLPC   H5X20761   0.272   2.936  10.202  0.1254 -0.0107  3.0505
  181SLPC   H5Y20762   0.456   2.991  10.190  1.2113  1.9008  1.5201
  181SLPC   C3620763   0.330   3.096  10.074  0.6899 -0.7917  0.3743
  181SLPC   H6X20764   0.403   3.180  10.078  1.7893 -1.7487  0.9457
  181SLPC   H6Y20765   0.228   3.140  10.074  1.5328  1.3649 -1.7239
  181SLPC   C3720766   0.354   3.005   9.950  0.2294 -0.0226  0.2836
  181SLPC   H7X20767   0.269   2.935   9.934  0.3136  0.0216 -0.4190
  181SLPC   H7Y20768   0.446   2.944   9.968 -0.3661 -1.0977 -0.1965
  181SLPC   C3820769   0.363   3.086   9.816  0.0249  0.3181  0.4950
  181SLPC   H8X20770   0.382   3.015   9.732 -1.0156  0.1509  0.3927
  181SLPC   H8Y20771   0.447   3.158   9.828 -0.2553  0.6763  0.3011
  181SLPC   C3920772   0.235   3.172   9.782  0.2389  0.3146  0.8046
  181SLPC   H9X20773   0.220   3.252   9.858  0.1875  0.5028  0.5989
  181SLPC   H9Y20774   0.140   3.115   9.773 -0.0151  0.9125 -0.5731
  181SLPC  C31020775   0.250   3.239   9.643 -0.9465 -0.7241 -0.2872
  181SLPC  H10X20776   0.353   3.276   9.628 -0.4928 -1.5008  0.8174
  181SLPC  H10Y20777   0.180   3.325   9.637 -0.5734 -0.4885 -1.7377
  181SLPC  C31120778   0.230   3.128   9.537 -0.0932  0.2013 -0.4018
  181SLPC  H11X20779   0.147   3.055   9.540  1.1348 -1.3332 -1.5110
  181SLPC  H11Y20780   0.323   3.067   9.541 -0.3230 -0.1052  1.2003
  181SLPC  C31220781   0.220   3.194   9.397  0.4807 -0.4647 -0.1043
  181SLPC  H12X20782   0.299   3.270   9.379 -1.9438  1.8032 -1.9114
  181SLPC  H12Y20783   0.123   3.236   9.364  0.3377  0.5249  1.4826
  181SLPC  C31320784   0.266   3.098   9.286 -0.0298  0.1021  0.5230
  181SLPC  H13X20785   0.197   3.012   9.281 -1.0468  0.9507 -3.2291
  181SLPC  H13Y20786   0.370   3.061   9.301 -0.2028 -1.0405 -0.8638
  181SLPC  C31420787   0.243   3.163   9.142 -0.0040 -0.3409 -0.0953
  181SLPC  H14X20788   0.310   3.249   9.124  0.0577 -0.3811 -0.0559
  181SLPC  H14Y20789   0.134   3.184   9.138 -0.1851 -1.4161 -1.7852
  181SLPC  C31520790   0.248   3.061   9.028  0.6828  0.0931  0.7938
  181SLPC  H15X20791   0.175   2.978   9.041 -1.5144  1.8867  0.5641
  181SLPC  H15Y20792   0.351   3.020   9.020  0.4874 -0.1663 -0.7677
  181SLPC  C31620793   0.220   3.117   8.886  0.4002  0.2036  0.1253
  181SLPC  H16X20794   0.256   3.045   8.809  1.2452 -1.1435  1.7074
  181SLPC  H16Y20795   0.267   3.217   8.871 -0.9085  1.0553  1.4060
  181SLPC  C31720796   0.069   3.149   8.850  0.3748  0.3739 -0.1498
  181SLPC  H17X20797   0.029   3.222   8.923 -0.6515  0.2766 -0.6072
  181SLPC  H17Y20798   0.016   3.051   8.844  1.1339 -0.0609  0.0551
  181SLPC  C31820799   0.064   3.220   8.715 -0.4182 -0.0321  0.1125
  181SLPC  H18X20800  -0.037   3.244   8.675  1.0168 -0.0794 -4.0305
  181SLPC  H18Y20801   0.109   3.145   8.647 -1.0180 -0.8067  0.5512
  181SLPC  H18Z20802   0.133   3.307   8.722  1.2056 -1.0526 -2.0299
  182SLPC     N20803   4.679   3.520  11.210 -0.1099 -0.2581 -0.2557
  182SLPC   C1320804   4.624   3.411  11.289  0.2495  0.3501  0.3713
  182SLPC  H13A20805   4.516   3.410  11.281  0.2314  0.5127  0.5828
  182SLPC  H13B20806   4.654   3.311  11.260 -2.1255  0.7334 -4.3661
  182SLPC  H13C20807   4.643   3.424  11.395 -1.8652  0.9552  0.7275
  182SLPC   C1420808   4.814   3.546  11.254  0.1151  0.4474  0.3406
  182SLPC  H14A20809   4.865   3.625  11.199  0.5077  0.2227  0.3829
  182SLPC  H14B20810   4.821   3.564  11.360  1.3288 -0.0724  0.3535
  182SLPC  H14C20811   4.868   3.455  11.236 -2.1760 -1.1363  1.0491
  182SLPC   C1520812   4.609   3.647  11.230 -0.3556 -0.3507 -0.1074
  182SLPC  H15A20813   4.508   3.638  11.191 -1.1960 -2.0401  2.2182
  182SLPC  H15B20814   4.606   3.674  11.335  2.0260 -0.3953  0.0225
  182SLPC  H15C20815   4.657   3.727  11.176 -0.5299 -0.3438 -0.2561
  182SLPC   C1220816   4.691   3.473  11.065  0.4964 -0.5640  0.0268
  182SLPC  H12A20817   4.758   3.389  11.064  0.0459 -0.9768 -2.2858
  182SLPC  H12B20818   4.747   3.543  11.004 -0.7683  1.0522  0.6312
  182SLPC   C1120819   4.563   3.427  10.985  0.6067  0.2773 -0.7614
  182SLPC  H11A20820   4.510   3.344  11.037  1.1390 -1.5608 -2.9746
  182SLPC  H11B20821   4.577   3.387  10.882 -0.1930  1.5921 -1.4026
  182SLPC     P20822   4.459   3.635  10.847  0.3660  0.1786  0.2306
  182SLPC   O1320823   4.315   3.629  10.801 -0.4705 -0.0218  0.4093
  182SLPC   O1420824   4.514   3.766  10.886  0.6749  0.5579  0.1479
  182SLPC   O1220825   4.473   3.536  10.969  0.6312  0.1396  0.0430
  182SLPC   O1120826   4.547   3.563  10.735 -0.2260 -0.3247  0.0790
  182SLPC    C120827   4.686   3.579  10.733 -0.1271 -0.4326 -0.3247
  182SLPC    HA20828   4.734   3.598  10.831  2.6675 -1.6895 -1.3177
  182SLPC    HB20829   4.730   3.479  10.709  0.3703 -1.1268  2.9941
  182SLPC    C220830   4.734   3.684  10.627  0.2792  0.1095  0.3700
  182SLPC    HS20831   4.712   3.784  10.670  0.1265  0.3562 -0.2674
  182SLPC   O2120832   4.672   3.648  10.503  0.3426 -0.4543  0.5846
  182SLPC   C2120833   4.578   3.734  10.461 -1.3633  0.4392  0.0852
  182SLPC   O2220834   4.528   3.827  10.519  0.7953 -0.1643 -0.5687
  182SLPC   C2220835   4.542   3.689  10.322  0.0476 -0.4716 -0.2355
  182SLPC   H2R20836   4.615   3.611  10.290 -0.4143 -0.7500 -0.6337
  182SLPC   H2S20837   4.446   3.636  10.339  1.2948 -2.4055  1.2701
  182SLPC    C320838   4.880   3.680  10.604  0.1969 -0.1043  0.5972
  182SLPC    HX20839   4.908   3.574  10.585  1.2599  0.5566 -1.9439
  182SLPC    HY20840   4.948   3.702  10.689  2.1410 -3.5066  0.0942
  182SLPC   O3120841   4.926   3.737  10.482 -0.1566  0.1903  0.4946
  182SLPC   C3120842   4.934   3.870  10.481 -0.9928 -0.1440 -0.3644
  182SLPC   O3220843   4.903   3.942  10.574  0.0016 -0.2010 -0.0514
  182SLPC   C3220844   4.981   3.925  10.352 -0.0091 -0.2361  0.5800
  182SLPC   H2X20845   5.088   3.896  10.344 -0.1784 -0.6140 -0.3725
  182SLPC   H2Y20846   4.973   4.036  10.352 -1.0359 -0.2794 -0.9115
  182SLPC   C2320847   4.523   3.806  10.212 -0.1173 -0.1981 -0.2491
  182SLPC   H3R20848   4.557   3.758  10.118  2.9503 -0.6531  0.9754
  182SLPC   H3S20849   4.608   3.874  10.232 -0.0063 -0.5590  0.5150
  182SLPC   C2420850   4.390   3.875  10.216  0.0513 -0.1174  0.3009
  182SLPC   H4R20851   4.402   3.961  10.285 -0.2732 -0.0435  0.2633
  182SLPC   H4S20852   4.306   3.809  10.247 -0.4997 -0.0276 -0.9346
  182SLPC   C2520853   4.333   3.915  10.078  0.1292  0.2204  0.0799
  182SLPC   H5R20854   4.223   3.931  10.080 -0.1299 -1.3309  2.6751
  182SLPC   H5S20855   4.354   3.833  10.007  1.5695  0.4478  0.2034
  182SLPC   C2620856   4.387   4.044  10.024 -0.4657  0.2567 -0.1830
  182SLPC   H6R20857   4.492   4.024   9.995  0.4448  3.0737  0.8116
  182SLPC   H6S20858   4.383   4.125  10.101  1.8484 -1.1953  1.5796
  182SLPC   C2720859   4.307   4.080   9.902  0.4032  0.1893 -0.0154
  182SLPC   H7R20860   4.201   4.101   9.928  0.9598  1.6986  1.1794
  182SLPC   H7S20861   4.297   3.987   9.842  0.8316 -0.1974  0.5006
  182SLPC   C2820862   4.373   4.189   9.816  0.3777 -0.9146  0.1901
  182SLPC   H8R20863   4.336   4.173   9.713 -0.6103 -1.9157  0.6779
  182SLPC   H8S20864   4.482   4.173   9.812  0.3939 -0.7509 -0.0528
  182SLPC   C2920865   4.341   4.326   9.881 -0.3813 -0.1737  0.2010
  182SLPC   H9R20866   4.332   4.320   9.990  1.7352 -0.4566  0.4051
  182SLPC  C21020867   4.340   4.452   9.824 -0.2056 -0.6288  0.8177
  182SLPC  H10R20868   4.301   4.538   9.881  0.3688 -1.3547  2.3527
  182SLPC  C21120869   4.380   4.461   9.677  0.2609  0.4769  0.2761
  182SLPC  H11R20870   4.306   4.403   9.617 -1.0155 -1.0415  3.1198
  182SLPC  H11S20871   4.480   4.417   9.657  0.7481  1.3178  0.8512
  182SLPC  C21220872   4.379   4.615   9.651 -0.4882  1.0375  0.2611
  182SLPC  H12R20873   4.392   4.676   9.741  3.0135 -0.2953  0.7817
  182SLPC  C21320874   4.365   4.669   9.528 -0.2444 -0.7475 -0.4563
  182SLPC  H13R20875   4.345   4.777   9.527  0.7122 -0.5569  0.2236
  182SLPC  C21420876   4.351   4.591   9.394 -0.3304  0.4946 -1.0504
  182SLPC  H14R20877   4.261   4.625   9.339 -1.7798 -1.4008  0.0424
  182SLPC  H14S20878   4.332   4.485   9.422 -0.9821  1.2735  1.7499
  182SLPC  C21520879   4.473   4.587   9.306 -0.5001 -0.1279  0.5552
  182SLPC  H15R20880   4.562   4.542   9.356 -1.1012 -1.0396  0.8318
  182SLPC  H15S20881   4.490   4.696   9.290 -0.5660 -0.2806 -0.6507
  182SLPC  C21620882   4.446   4.517   9.171  0.5911 -0.2684 -0.3370
  182SLPC  H16R20883   4.353   4.560   9.128 -0.0561 -1.3015 -0.0064
  182SLPC  H16S20884   4.413   4.413   9.191 -0.3896 -0.1965 -1.4366
  182SLPC  C21720885   4.563   4.524   9.073 -0.1340  0.3789 -0.6340
  182SLPC  H17R20886   4.633   4.448   9.113  1.7668  1.5091 -1.6543
  182SLPC  H17S20887   4.596   4.629   9.060 -1.4316  0.7309 -1.2568
  182SLPC  C21820888   4.505   4.473   8.936  0.5641 -0.1627 -0.2080
  182SLPC  H18R20889   4.455   4.553   8.877 -1.5197 -0.9356  0.4426
  182SLPC  H18S20890   4.421   4.412   8.974 -0.9264  2.1312  0.3765
  182SLPC  H18T20891   4.588   4.424   8.880  0.4155 -2.4620  1.4557
  182SLPC   C3320892   4.909   3.865  10.223 -0.1767 -0.2985 -0.4355
  182SLPC   H3X20893   4.803   3.896  10.211 -0.4465 -0.9618  0.1468
  182SLPC   H3Y20894   4.921   3.755  10.228 -0.7934 -0.3607 -0.2985
  182SLPC   C3420895   4.992   3.913  10.111 -0.2500  0.1040 -0.4696
  182SLPC   H4X20896   5.090   3.861  10.107 -0.4381 -0.2629 -0.3084
  182SLPC   H4Y20897   5.011   4.022  10.128 -0.4306 -0.2284  2.2879
  182SLPC   C3520898   4.916   3.888   9.978  0.8155  0.1498  0.2830
  182SLPC   H5X20899   4.819   3.940   9.994 -0.2163 -2.5204  3.8905
  182SLPC   H5Y20900   4.895   3.781   9.953  0.1766  0.4111 -0.3437
  182SLPC   C3620901   4.991   3.950   9.857  0.2405  0.5265 -0.1787
  182SLPC   H6X20902   5.098   3.922   9.863  0.4770  0.9463 -1.8801
  182SLPC   H6Y20903   5.005   4.060   9.864 -0.8958  0.7440 -1.0178
  182SLPC   C3720904   4.935   3.904   9.725  0.4700 -0.2438 -0.0530
  182SLPC   H7X20905   4.945   3.794   9.731  3.2182 -0.0275  0.6004
  182SLPC   H7Y20906   5.002   3.946   9.647  2.1007 -1.2487  0.7373
  182SLPC   C3820907   4.789   3.942   9.692 -0.4491  0.2505  0.2051
  182SLPC   H8X20908   4.774   4.047   9.725 -0.7603 -0.4996  2.6929
  182SLPC   H8Y20909   4.723   3.885   9.760  0.7592  0.0285  1.2421
  182SLPC   C3920910   4.737   3.915   9.546 -1.2167  0.4648 -0.5400
  182SLPC   H9X20911   4.771   3.811   9.526  0.8423  0.7484  1.1348
  182SLPC   H9Y20912   4.806   3.982   9.491  0.5192 -1.8673 -1.3729
  182SLPC  C31020913   4.588   3.940   9.524  0.5051 -0.5883 -0.1494
  182SLPC  H10X20914   4.532   3.912   9.616 -0.6998 -0.0517 -0.6967
  182SLPC  H10Y20915   4.547   3.882   9.438 -0.2571  0.7903 -0.7507
  182SLPC  C31120916   4.552   4.086   9.490 -0.0629 -0.6349  0.3873
  182SLPC  H11X20917   4.618   4.123   9.409 -2.3009  0.8154 -0.8545
  182SLPC  H11Y20918   4.567   4.148   9.580  2.8282  0.6253 -0.8166
  182SLPC  C31220919   4.409   4.101   9.435 -0.3192 -0.6164 -0.2114
  182SLPC  H12X20920   4.378   4.207   9.441  0.5714 -0.4300  1.3951
  182SLPC  H12Y20921   4.343   4.047   9.506 -0.0328  0.3952  0.8507
  182SLPC  C31320922   4.378   4.039   9.291  0.0074  0.0719  0.3119
  182SLPC  H13X20923   4.383   3.929   9.306 -0.8398  0.3241  3.0804
  182SLPC  H13Y20924   4.454   4.080   9.221 -1.4987 -2.3204 -3.0025
  182SLPC  C31420925   4.241   4.092   9.237  0.4765  1.1445  0.3530
  182SLPC  H14X20926   4.238   4.203   9.235  1.9987  1.1961 -0.6841
  182SLPC  H14Y20927   4.160   4.045   9.297 -0.1437 -0.0865 -1.3480
  182SLPC  C31520928   4.232   4.047   9.085 -0.0074  0.0221 -0.8973
  182SLPC  H15X20929   4.269   3.944   9.102  0.5350  0.3990  0.3351
  182SLPC  H15Y20930   4.311   4.104   9.030  0.8222  1.0026  1.1967
  182SLPC  C31620931   4.103   4.066   9.017  0.5965 -0.2962  0.2573
  182SLPC  H16X20932   4.069   4.172   9.019  0.2932 -0.1792 -3.5694
  182SLPC  H16Y20933   4.029   4.000   9.066 -1.5303  2.0606  0.4181
  182SLPC  C31720934   4.099   4.024   8.870 -0.0639  0.4213 -0.2577
  182SLPC  H17X20935   4.137   3.920   8.870  0.6160  0.5544  2.8143
  182SLPC  H17Y20936   4.165   4.089   8.810 -0.3161  0.9530  0.0340
  182SLPC  C31820937   3.946   4.024   8.827 -0.3401 -0.0229  0.4296
  182SLPC  H18X20938   3.892   3.966   8.906 -1.4407  0.4930  0.0859
  182SLPC  H18Y20939   3.920   4.001   8.721  0.4233  2.0480 -0.2601
  182SLPC  H18Z20940   3.903   4.123   8.856  0.9732  0.5460  0.4768
  183SLPC     N20941   6.442   4.682  11.163 -0.4364 -0.1820 -0.5385
  183SLPC   C1320942   6.322   4.747  11.105  0.3966 -0.4976  0.0198
  183SLPC  H13A20943   6.332   4.845  11.061 -0.7154 -0.6906 -0.7098
  183SLPC  H13B20944   6.279   4.680  11.032  1.1314  0.8150 -1.7079
  183SLPC  H13C20945   6.245   4.763  11.179 -1.0056 -1.2531 -1.2284
  183SLPC   C1420946   6.413   4.559  11.237  0.3781  0.2913 -0.3094
  183SLPC  H14A20947   6.346   4.493  11.184  0.0579 -0.6080  1.1683
  183SLPC  H14B20948   6.497   4.494  11.258  0.5688 -0.0832 -2.0569
  183SLPC  H14C20949   6.363   4.584  11.329  0.0678  0.2445 -0.4670
  183SLPC   C1520950   6.523   4.779  11.250  0.0322  0.2822 -0.0782
  183SLPC  H15A20951   6.460   4.820  11.328  1.2111 -0.1428  1.1434
  183SLPC  H15B20952   6.597   4.719  11.301 -0.6315 -0.9393 -0.5106
  183SLPC  H15C20953   6.559   4.863  11.193 -1.7953  1.0259 -0.1995
  183SLPC   C1220954   6.540   4.646  11.041  1.2350  0.7780 -1.5971
  183SLPC  H12A20955   6.623   4.596  11.088 -0.7744 -2.7879 -1.5001
  183SLPC  H12B20956   6.568   4.741  10.999 -1.1453  3.2841  1.8839
  183SLPC   C1120957   6.496   4.536  10.940 -0.5567 -0.4243  0.9386
  183SLPC  H11A20958   6.463   4.445  10.994 -0.7330 -0.5750  0.5778
  183SLPC  H11B20959   6.585   4.508  10.879 -1.8845  1.2356 -1.9840
  183SLPC     P20960   6.416   4.708  10.765  0.5423  0.3252 -0.1703
  183SLPC   O1320961   6.302   4.799  10.790  0.2413 -0.0112  0.7214
  183SLPC   O1420962   6.544   4.773  10.797 -0.0871  0.3861  0.7578
  183SLPC   O1220963   6.400   4.574  10.843 -0.5516 -0.3494 -0.6733
  183SLPC   O1120964   6.408   4.668  10.614 -0.6578 -0.2748  0.1912
  183SLPC    C120965   6.394   4.538  10.559  0.0507  0.5369  0.3667
  183SLPC    HA20966   6.342   4.470  10.630 -0.4518 -0.6357 -1.0442
  183SLPC    HB20967   6.329   4.540  10.469  0.9204  1.3239 -0.2584
  183SLPC    C220968   6.533   4.465  10.526 -0.5043  0.4740 -0.7260
  183SLPC    HS20969   6.576   4.432  10.623 -1.6711 -0.8347 -0.6315
  183SLPC   O2120970   6.623   4.552  10.451 -0.4040  0.3869  0.5324
  183SLPC   C2120971   6.752   4.526  10.462  0.1730  0.0139  0.2290
  183SLPC   O2220972   6.799   4.445  10.542  0.3923  0.4285 -0.1554
  183SLPC   C2220973   6.829   4.591  10.344 -0.8329 -0.0108 -0.6505
  183SLPC   H2R20974   6.758   4.656  10.289 -0.6908  1.1994  0.5464
  183SLPC   H2S20975   6.911   4.650  10.391  0.1794 -1.0716 -1.0142
  183SLPC    C320976   6.507   4.325  10.454  0.6994  0.7118 -0.0474
  183SLPC    HX20977   6.430   4.283  10.522  1.2974  0.4944  0.5028
  183SLPC    HY20978   6.603   4.270  10.456  0.7337  0.6856 -1.5455
  183SLPC   O3120979   6.451   4.349  10.320  0.1373 -0.0090  0.2210
  183SLPC   C3120980   6.466   4.246  10.234  0.2798 -0.6118 -0.0586
  183SLPC   O3220981   6.503   4.137  10.262 -0.2440  0.1338  0.3931
  183SLPC   C3220982   6.443   4.307  10.098  0.4536  0.0222  0.5058
  183SLPC   H2X20983   6.504   4.399  10.098  3.0731 -1.6149  0.8073
  183SLPC   H2Y20984   6.336   4.331  10.081  0.8482  2.0823  0.6911
  183SLPC   C2320985   6.900   4.478  10.252 -0.2081  0.1474  0.0917
  183SLPC   H3R20986   6.835   4.390  10.271  1.5071 -0.7732  2.1106
  183SLPC   H3S20987   6.998   4.439  10.287 -1.0496 -1.7834  0.4673
  183SLPC   C2420988   6.907   4.513  10.102  1.2734  0.6196 -0.6032
  183SLPC   H4R20989   6.963   4.608  10.089  0.6986  1.2298  1.1112
  183SLPC   H4S20990   6.799   4.521  10.076  1.0287 -0.8843 -0.1636
  183SLPC   C2520991   6.966   4.399  10.025 -0.1559  0.3936  0.7738
  183SLPC   H5R20992   6.906   4.314  10.064  0.0649 -0.1530 -0.0462
  183SLPC   H5S20993   7.074   4.386  10.052  0.0209 -0.8146 -0.4125
  183SLPC   C2620994   6.964   4.403   9.876  0.1597  0.3108  0.4441
  183SLPC   H6R20995   7.047   4.341   9.835  0.0053 -0.1120  0.7595
  183SLPC   H6S20996   6.980   4.509   9.846 -0.1467  0.1231 -0.4082
  183SLPC   C2720997   6.826   4.360   9.820 -0.0891 -0.0254 -0.5382
  183SLPC   H7R20998   6.751   4.434   9.853 -0.2465 -0.0719 -0.7854
  183SLPC   H7S20999   6.795   4.266   9.871  0.4340  0.8202  1.4308
  183SLPC   C2821000   6.817   4.337   9.667  0.4499  0.4906  0.7057
  183SLPC   H8R21001   6.812   4.437   9.618  1.6187 -0.2521 -1.0100
  183SLPC   H8S21002   6.721   4.288   9.643 -0.1494  2.1660 -0.5008
  183SLPC   C2921003   6.912   4.239   9.605  0.1482  0.1514  0.0617
  183SLPC   H9R21004   6.955   4.162   9.670 -1.2523  0.1248  0.9956
  183SLPC  C21021005   6.943   4.255   9.473 -0.6420 -0.8153 -0.3001
  183SLPC  H10R21006   7.021   4.191   9.426 -0.6963 -0.3460 -1.0504
  183SLPC  C21121007   6.892   4.356   9.372 -0.7574 -0.5216  0.3448
  183SLPC  H11R21008   6.948   4.451   9.389  2.7395 -2.7595  2.5808
  183SLPC  H11S21009   6.784   4.377   9.387 -0.6678 -0.3221  0.7218
  183SLPC  C21221010   6.917   4.299   9.232  0.5285  0.1099 -0.0640
  183SLPC  H12R21011   7.017   4.321   9.193 -0.1652  0.1593 -1.9475
  183SLPC  C21321012   6.830   4.234   9.151  0.0572 -0.2187 -0.5478
  183SLPC  H13R21013   6.858   4.190   9.054  1.0046 -0.0288 -0.3710
  183SLPC  C21421014   6.689   4.198   9.191  0.6048 -0.6531  0.9588
  183SLPC  H14R21015   6.615   4.257   9.132  0.9378 -2.7119 -1.6737
  183SLPC  H14S21016   6.671   4.208   9.301 -0.1424 -1.3529  0.9149
  183SLPC  C21521017   6.665   4.050   9.169 -0.5323 -0.3657 -0.0906
  183SLPC  H15R21018   6.749   3.998   9.219  1.1830  3.0782  0.9500
  183SLPC  H15S21019   6.679   4.018   9.064  0.2135 -0.3601  0.0022
  183SLPC  C21621020   6.533   4.001   9.219  0.1163  0.1380 -0.4179
  183SLPC  H16R21021   6.455   4.078   9.201  1.3380  1.3252 -0.8416
  183SLPC  H16S21022   6.539   4.008   9.330 -1.7297  1.2913 -0.3374
  183SLPC  C21721023   6.504   3.847   9.198 -0.2193 -0.5090 -0.7586
  183SLPC  H17R21024   6.448   3.826   9.291 -0.9654  0.0447 -1.0710
  183SLPC  H17S21025   6.598   3.788   9.206  0.0303 -0.2004 -1.3093
  183SLPC  C21821026   6.431   3.793   9.077 -0.0236 -0.6533  0.1518
  183SLPC  H18R21027   6.364   3.708   9.101  1.3570 -2.0314 -0.6842
  183SLPC  H18S21028   6.506   3.755   9.004 -0.4210 -0.1885 -0.5041
  183SLPC  H18T21029   6.375   3.872   9.023 -1.1282 -0.4684  1.5154
  183SLPC   C3321030   6.492   4.209   9.980  0.6208  0.3008 -0.0868
  183SLPC   H3X21031   6.438   4.112   9.973 -1.6429  1.2931  2.2005
  183SLPC   H3Y21032   6.598   4.183  10.002  0.2584  0.2642  1.7809
  183SLPC   C3421033   6.467   4.281   9.847  0.0948  0.0961  0.1689
  183SLPC   H4X21034   6.540   4.361   9.822 -0.8213  1.0785  0.5401
  183SLPC   H4Y21035   6.363   4.321   9.848 -0.0268  0.0790 -2.6140
  183SLPC   C3521036   6.464   4.178   9.730 -0.3470  0.4315  0.0952
  183SLPC   H5X21037   6.406   4.091   9.769 -1.6799  1.5466  0.6994
  183SLPC   H5Y21038   6.572   4.155   9.723 -0.6389 -0.9105 -0.2945
  183SLPC   C3621039   6.407   4.221   9.597 -0.2636 -0.3914 -0.6473
  183SLPC   H6X21040   6.297   4.233   9.607  0.0314  0.9245  1.8813
  183SLPC   H6Y21041   6.430   4.141   9.523 -1.5912 -2.2384  0.8390
  183SLPC   C3721042   6.452   4.363   9.551 -1.0479 -0.0354 -0.2970
  183SLPC   H7X21043   6.561   4.364   9.529 -1.1893 -3.3527 -1.7105
  183SLPC   H7Y21044   6.435   4.442   9.628  0.4940  0.6140 -0.5801
  183SLPC   C3821045   6.387   4.410   9.424  0.4413 -0.1464  0.3916
  183SLPC   H8X21046   6.279   4.421   9.450  0.1578 -0.6333 -0.5303
  183SLPC   H8Y21047   6.390   4.331   9.346 -0.4340  0.2012 -0.0025
  183SLPC   C3921048   6.441   4.536   9.357  0.3503  0.0517  0.0778
  183SLPC   H9X21049   6.549   4.532   9.332  0.2894 -0.3395 -0.1455
  183SLPC   H9Y21050   6.433   4.617   9.432 -2.3757 -0.9548  0.9999
  183SLPC  C31021051   6.347   4.565   9.238 -0.3644 -0.0281  0.4838
  183SLPC  H10X21052   6.373   4.666   9.198  0.0458 -0.5871 -0.7298
  183SLPC  H10Y21053   6.244   4.574   9.278 -0.8194 -1.5145 -0.2655
  183SLPC  C31121054   6.366   4.469   9.123 -0.4301  0.5994 -0.0866
  183SLPC  H11X21055   6.328   4.370   9.157  0.0471  0.7893  1.0485
  183SLPC  H11Y21056   6.475   4.464   9.104 -0.3832 -2.5500  0.3491
  183SLPC  C31221057   6.292   4.496   8.998 -0.5243  0.5806  0.2079
  183SLPC  H12X21058   6.182   4.500   9.007 -0.5699  0.5836 -0.3116
  183SLPC  H12Y21059   6.316   4.419   8.922 -0.5879  0.3882  0.3810
  183SLPC  C31321060   6.339   4.626   8.934 -0.2481 -0.0157  0.1727
  183SLPC  H13X21061   6.449   4.615   8.920 -0.6612 -3.3252 -1.5538
  183SLPC  H13Y21062   6.316   4.716   8.994 -0.5088 -1.4166  2.2555
  183SLPC  C31421063   6.274   4.638   8.801  0.0250 -0.1168 -0.0269
  183SLPC  H14X21064   6.165   4.636   8.822  0.5073 -1.2911  2.8183
  183SLPC  H14Y21065   6.282   4.543   8.744 -2.6919 -1.6727  1.9604
  183SLPC  C31521066   6.323   4.757   8.725 -0.4847 -0.2433 -1.0912
  183SLPC  H15X21067   6.429   4.742   8.698 -0.4958  0.1440 -1.3511
  183SLPC  H15Y21068   6.296   4.830   8.805  0.3007 -0.2293 -0.8329
  183SLPC  C31621069   6.234   4.787   8.602 -0.3052  0.5881 -0.2558
  183SLPC  H16X21070   6.128   4.781   8.637 -0.4190  0.7967 -0.5599
  183SLPC  H16Y21071   6.235   4.703   8.529  2.2871  0.2243  0.1116
  183SLPC  C31721072   6.262   4.920   8.545 -0.9311  0.1802  0.6424
  183SLPC  H17X21073   6.264   4.991   8.630  1.2372  0.0650  0.7266
  183SLPC  H17Y21074   6.186   4.967   8.479  0.4501  4.0811  1.5733
  183SLPC  C31821075   6.399   4.916   8.470 -0.3145  0.4943 -0.1243
  183SLPC  H18X21076   6.477   4.868   8.534 -0.2056 -0.9436 -1.2878
  183SLPC  H18Y21077   6.420   5.022   8.442 -1.5541  0.5047 -1.0694
  183SLPC  H18Z21078   6.385   4.864   8.373 -2.9646  1.1952 -0.1951
  184SLPC     N21079   1.683   6.738  10.872 -0.3117 -0.2573 -0.0218
  184SLPC   C1321080   1.693   6.589  10.903 -0.4553  0.1164 -0.3231
  184SLPC  H13A21081   1.708   6.586  11.010 -2.6793  1.4574  0.0857
  184SLPC  H13B21082   1.608   6.534  10.866  0.4395 -1.5264 -0.0612
  184SLPC  H13C21083   1.779   6.548  10.851 -0.6081  0.1692 -0.6190
  184SLPC   C1421084   1.810   6.807  10.921  0.0913  0.3907  0.9052
  184SLPC  H14A21085   1.895   6.752  10.886  0.5383  2.1527 -0.9140
  184SLPC  H14B21086   1.815   6.909  10.886  0.8589  0.6224  1.6385
  184SLPC  H14C21087   1.802   6.802  11.029 -0.8103 -1.0712  0.7974
  184SLPC   C1521088   1.559   6.793  10.943  0.4391 -0.2977  0.4514
  184SLPC  H15A21089   1.548   6.896  10.913  0.2318 -0.9089 -1.7313
  184SLPC  H15B21090   1.474   6.739  10.904 -1.0266  0.1091  2.8783
  184SLPC  H15C21091   1.556   6.783  11.050  0.2557 -0.5120  0.4264
  184SLPC   C1221092   1.672   6.752  10.720 -1.0468 -0.6259 -0.6267
  184SLPC  H12A21093   1.581   6.706  10.686 -1.8895  0.7372 -0.3198
  184SLPC  H12B21094   1.756   6.708  10.668 -0.9328 -3.2175  1.5691
  184SLPC   C1121095   1.673   6.900  10.668  0.4343  0.0623  1.1456
  184SLPC  H11A21096   1.584   6.947  10.715  0.0191 -0.6174  1.0468
  184SLPC  H11B21097   1.658   6.885  10.559 -0.1728  2.5795  0.8093
  184SLPC     P21098   1.910   7.007  10.602  0.1612  0.0414  0.0408
  184SLPC   O1321099   1.919   7.157  10.584  0.0851  0.2807  0.0518
  184SLPC   O1421100   2.033   6.940  10.653  0.0112  0.3001 -0.0470
  184SLPC   O1221101   1.787   6.982  10.695  0.0909 -0.6138 -0.0300
  184SLPC   O1121102   1.870   6.932  10.467 -0.6242 -0.2401 -0.5483
  184SLPC    C121103   1.896   6.979  10.337 -0.0047 -0.3836  0.1557
  184SLPC    HA21104   2.003   7.007  10.331 -0.0343 -0.2250  0.3588
  184SLPC    HB21105   1.886   6.894  10.267 -0.7905 -0.7392  0.6867
  184SLPC    C221106   1.795   7.095  10.299  0.2250 -0.6297 -0.2048
  184SLPC    HS21107   1.822   7.174  10.373 -0.3031  0.5514 -1.2411
  184SLPC   O2121108   1.663   7.047  10.325  0.0488  0.4060 -0.3256
  184SLPC   C2121109   1.576   7.140  10.361  0.0794 -0.6192 -0.2303
  184SLPC   O2221110   1.611   7.251  10.397 -0.1774  0.0596 -0.6633
  184SLPC   C2221111   1.438   7.076  10.368 -0.2344  0.3124  0.2414
  184SLPC   H2R21112   1.442   6.965  10.361  2.3153  0.2284  1.9126
  184SLPC   H2S21113   1.406   7.082  10.474  0.0036 -0.7504  0.3933
  184SLPC    C321114   1.817   7.144  10.158 -0.5895 -0.5955  0.1338
  184SLPC    HX21115   1.812   7.054  10.093 -2.7359  0.6075 -1.4967
  184SLPC    HY21116   1.916   7.195  10.150 -1.5042  1.2247  0.0067
  184SLPC   O3121117   1.715   7.235  10.114 -0.3930  0.0447 -0.0028
  184SLPC   C3121118   1.755   7.350  10.052 -0.2655 -0.0275  0.3285
  184SLPC   O3221119   1.873   7.376  10.029  0.0675 -0.2923  0.1032
  184SLPC   C3221120   1.633   7.437  10.012  0.3936  0.8771 -0.1918
  184SLPC   H2X21121   1.618   7.513  10.092 -1.2285 -2.5919  3.1035
  184SLPC   H2Y21122   1.543   7.372  10.014  0.1390  1.1639  3.1478
  184SLPC   C2321123   1.329   7.137  10.276  0.3031  0.5939  0.2474
  184SLPC   H3R21124   1.313   7.245  10.295 -0.7309  0.2840  1.2739
  184SLPC   H3S21125   1.232   7.083  10.288  2.1863 -3.6382 -1.3505
  184SLPC   C2421126   1.350   7.121  10.127 -0.6046 -0.0206  0.2428
  184SLPC   H4R21127   1.428   7.197  10.104  1.3419 -2.3513 -1.4522
  184SLPC   H4S21128   1.259   7.152  10.072 -0.5393 -1.4142 -0.7122
  184SLPC   C2521129   1.407   6.980  10.086 -0.1794  0.5241 -0.0195
  184SLPC   H5R21130   1.376   6.900  10.156  2.3179 -0.3013  0.2507
  184SLPC   H5S21131   1.517   6.988  10.103  0.0542  0.3384 -1.3672
  184SLPC   C2621132   1.364   6.952   9.950 -0.2693 -0.2950 -0.1625
  184SLPC   H6R21133   1.364   7.049   9.897 -0.9889  0.1996  0.7326
  184SLPC   H6S21134   1.262   6.909   9.952 -0.0531 -0.8435  2.4191
  184SLPC   C2721135   1.452   6.844   9.866 -0.3895 -0.3975 -0.0451
  184SLPC   H7R21136   1.423   6.743   9.902 -1.0916  0.1618  1.0165
  184SLPC   H7S21137   1.557   6.861   9.898 -0.2621 -2.2186  0.6427
  184SLPC   C2821138   1.459   6.844   9.716  0.3503  0.6353 -0.0457
  184SLPC   H8R21139   1.545   6.779   9.688 -1.0604 -1.0061 -0.8033
  184SLPC   H8S21140   1.481   6.949   9.687  0.3054  0.8896  0.8217
  184SLPC   C2921141   1.339   6.791   9.638 -0.7332 -0.0944 -0.4915
  184SLPC   H9R21142   1.331   6.681   9.637 -1.8551 -0.0672  1.1839
  184SLPC  C21021143   1.247   6.860   9.572  0.1230 -0.5583  0.7633
  184SLPC  H10R21144   1.166   6.809   9.518  0.5368  0.7568 -1.2298
  184SLPC  C21121145   1.242   7.014   9.552 -0.1816 -0.7353 -0.3996
  184SLPC  H11R21146   1.314   7.030   9.468 -0.0914 -4.5926 -1.2353
  184SLPC  H11S21147   1.292   7.063   9.638  2.4550  0.5172 -2.4971
  184SLPC  C21221148   1.101   7.073   9.538 -0.0009  0.2006  0.2797
  184SLPC  H12R21149   1.045   7.096   9.630  0.6289  2.3954  0.1896
  184SLPC  C21321150   1.042   7.090   9.420 -0.3078  0.2344  0.0010
  184SLPC  H13R21151   0.937   7.122   9.423 -0.4835 -0.3856  1.0337
  184SLPC  C21421152   1.102   7.049   9.289  0.3453  0.1378  0.0473
  184SLPC  H14R21153   1.208   7.020   9.299  0.2832 -0.5502 -1.1039
  184SLPC  H14S21154   1.108   7.143   9.230  0.6820  0.4162  0.5138
  184SLPC  C21521155   1.020   6.936   9.223  0.2696  0.0867 -0.7152
  184SLPC  H15R21156   0.917   6.976   9.208  0.8897  2.9092  1.5344
  184SLPC  H15S21157   1.014   6.850   9.292 -0.5083  2.0079  1.7706
  184SLPC  C21621158   1.108   6.884   9.108  0.5794  0.4085  0.0480
  184SLPC  H16R21159   1.210   6.869   9.149  0.2793 -0.9816  0.3256
  184SLPC  H16S21160   1.117   6.968   9.036 -2.6486  1.2923  0.4990
  184SLPC  C21721161   1.043   6.765   9.041 -0.8875 -0.3371 -0.3509
  184SLPC  H17R21162   0.943   6.803   9.011 -0.4922  0.5220 -0.6185
  184SLPC  H17S21163   1.039   6.681   9.114 -0.6651  0.2758  0.3778
  184SLPC  C21821164   1.126   6.719   8.920 -0.3089 -0.7756 -0.2371
  184SLPC  H18R21165   1.076   6.624   8.890 -1.7329 -0.1118 -0.0761
  184SLPC  H18S21166   1.230   6.706   8.955 -0.0754  2.2496  0.4842
  184SLPC  H18T21167   1.129   6.796   8.840  1.2164  0.7869  1.2374
  184SLPC   C3321168   1.646   7.504   9.875 -0.7811  0.0482 -0.5685
  184SLPC   H3X21169   1.744   7.558   9.876 -1.0548  0.5771 -1.2020
  184SLPC   H3Y21170   1.580   7.592   9.861 -0.6214 -0.1480 -3.0692
  184SLPC   C3421171   1.651   7.412   9.755  0.3531  0.5192 -0.1945
  184SLPC   H4X21172   1.565   7.342   9.757 -0.6695  1.7447  2.3122
  184SLPC   H4Y21173   1.742   7.349   9.753 -0.7092 -1.1454  1.0911
  184SLPC   C3521174   1.666   7.493   9.621  0.1614 -0.1316 -0.1171
  184SLPC   H5X21175   1.739   7.575   9.635 -0.2938  0.3471 -0.5042
  184SLPC   H5Y21176   1.570   7.548   9.612  0.2783  0.1451  0.2841
  184SLPC   C3621177   1.697   7.397   9.506  0.4777 -0.1694  0.6919
  184SLPC   H6X21178   1.622   7.315   9.505  1.9406 -1.5692  1.3967
  184SLPC   H6Y21179   1.797   7.349   9.515 -0.0681 -1.7600 -1.0197
  184SLPC   C3721180   1.690   7.450   9.357  0.2162  0.2014  0.4817
  184SLPC   H7X21181   1.768   7.524   9.331  0.2074  1.0919  2.7930
  184SLPC   H7Y21182   1.589   7.496   9.343  0.3137  1.1699  2.6355
  184SLPC   C3821183   1.697   7.328   9.261 -0.0230  0.5052 -0.1406
  184SLPC   H8X21184   1.783   7.264   9.291 -1.2946 -1.1409  0.1648
  184SLPC   H8Y21185   1.695   7.363   9.156 -2.7389 -0.7816 -0.6225
  184SLPC   C3921186   1.571   7.236   9.257  0.2893 -0.4518  0.1582
  184SLPC   H9X21187   1.477   7.295   9.260  1.2046  1.0186  2.4142
  184SLPC   H9Y21188   1.561   7.173   9.347 -0.0704 -0.8546 -0.1604
  184SLPC  C31021189   1.573   7.144   9.134 -0.0622 -0.7281 -0.1853
  184SLPC  H10X21190   1.669   7.088   9.137 -0.5404 -1.5461  0.0726
  184SLPC  H10Y21191   1.590   7.205   9.043  0.7516  1.3471  1.2614
  184SLPC  C31121192   1.452   7.054   9.122  0.3609  0.2310 -0.0027
  184SLPC  H11X21193   1.366   7.124   9.109  0.5090  0.0858 -2.0711
  184SLPC  H11Y21194   1.437   7.007   9.222 -0.4860  0.7767  0.1379
  184SLPC  C31221195   1.464   6.949   9.009  0.4861 -0.1755  0.1782
  184SLPC  H12X21196   1.393   6.863   9.011 -0.0651  0.2692  0.0721
  184SLPC  H12Y21197   1.568   6.911   9.018  0.4765 -0.0728  0.8224
  184SLPC  C31321198   1.436   7.027   8.875  0.5581  0.1668 -0.1395
  184SLPC  H13X21199   1.490   7.124   8.878 -0.1010  0.5330  0.9469
  184SLPC  H13Y21200   1.330   7.061   8.888  0.8764  2.0821 -1.9366
  184SLPC  C31421201   1.453   6.945   8.756 -0.0145 -0.3962 -0.0298
  184SLPC  H14X21202   1.410   6.843   8.767 -0.3158 -0.4219 -1.3530
  184SLPC  H14Y21203   1.564   6.944   8.743  0.1240  2.1292  0.5006
  184SLPC  C31521204   1.377   7.000   8.633 -1.2650  0.0962 -0.6541
  184SLPC  H15X21205   1.397   7.109   8.624 -0.1420 -0.2280 -2.8278
  184SLPC  H15Y21206   1.269   6.981   8.654 -0.8596 -1.2649  0.3456
  184SLPC  C31621207   1.431   6.929   8.507 -0.0056  0.0070  0.1323
  184SLPC  H16X21208   1.422   6.820   8.524  0.6879  0.0659  0.9515
  184SLPC  H16Y21209   1.536   6.959   8.488 -0.3646  0.1636 -1.7887
  184SLPC  C31721210   1.343   6.965   8.383 -0.9148 -0.6685  0.1987
  184SLPC  H17X21211   1.316   7.072   8.384 -0.2094 -0.4917  1.8729
  184SLPC  H17Y21212   1.250   6.903   8.389 -2.3369  1.1523 -1.6141
  184SLPC  C31821213   1.424   6.932   8.256  0.0595  0.5703  0.1125
  184SLPC  H18X21214   1.508   7.004   8.248  0.3910  0.4709  2.1482
  184SLPC  H18Y21215   1.358   6.936   8.167  0.2205 -0.5967 -0.0847
  184SLPC  H18Z21216   1.472   6.832   8.265 -1.1597 -0.1797 -1.2105
  185SLPC     N21217   5.867   5.313   6.180 -0.2968 -0.3725  0.4745
  185SLPC   C1321218   5.767   5.367   6.074  0.2514 -0.2886 -0.4190
  185SLPC  H13A21219   5.815   5.376   5.978  0.1614  0.6285 -0.3779
  185SLPC  H13B21220   5.684   5.297   6.074  0.9194 -1.0948  0.2730
  185SLPC  H13C21221   5.721   5.463   6.090 -0.5024 -0.4952 -1.2153
  185SLPC   C1421222   5.800   5.314   6.316 -0.0928 -1.1353 -0.3302
  185SLPC  H14A21223   5.762   5.412   6.339 -0.6346 -1.8794  2.2420
  185SLPC  H14B21224   5.717   5.247   6.330 -0.9972  0.1114  0.5196
  185SLPC  H14C21225   5.871   5.288   6.394  0.6434 -0.0532 -0.6095
  185SLPC   C1521226   5.977   5.410   6.196 -0.4141 -0.0890  0.0498
  185SLPC  H15A21227   6.055   5.364   6.255  0.8300 -0.0085 -1.4516
  185SLPC  H15B21228   6.021   5.444   6.103  2.1063  4.0105  2.4363
  185SLPC  H15C21229   5.941   5.496   6.249 -0.1431 -1.4041  2.4935
  185SLPC   C1221230   5.915   5.175   6.144  0.4230 -0.1695 -0.0763
  185SLPC  H12A21231   5.930   5.171   6.038  1.9573 -0.0215  0.1091
  185SLPC  H12B21232   5.842   5.102   6.176 -0.7855 -0.2924 -2.8364
  185SLPC   C1121233   6.046   5.124   6.196  0.1260 -1.1754  0.5012
  185SLPC  H11A21234   6.129   5.197   6.205 -0.5393 -0.2758 -0.5272
  185SLPC  H11B21235   6.081   5.053   6.118  0.3904  0.6952 -1.1472
  185SLPC     P21236   6.046   4.907   6.352  0.1518 -0.3040  0.0626
  185SLPC   O1321237   5.907   4.846   6.321  0.0507 -0.4556  0.1449
  185SLPC   O1421238   6.158   4.863   6.265  0.1130  0.1106  0.4918
  185SLPC   O1221239   6.027   5.062   6.329  0.1594  0.0564  0.3851
  185SLPC   O1121240   6.086   4.900   6.510  0.2861  0.2433 -0.4426
  185SLPC    C121241   6.010   4.969   6.606 -0.0007 -0.3290  0.2437
  185SLPC    HA21242   6.083   5.021   6.671 -0.7700  0.4415  0.5101
  185SLPC    HB21243   5.946   5.051   6.566 -0.0235 -0.5486 -0.1705
  185SLPC    C221244   5.908   4.885   6.691 -0.3874 -0.3926  0.0458
  185SLPC    HS21245   5.835   4.831   6.626 -1.1706  1.6121 -0.8038
  185SLPC   O2121246   5.841   4.977   6.780  0.0304 -0.4536 -0.0479
  185SLPC   C2121247   5.708   4.968   6.794  0.2571 -0.6361  0.9092
  185SLPC   O2221248   5.630   4.894   6.735  0.1298 -0.6192  0.3557
  185SLPC   C2221249   5.660   5.078   6.892 -0.1680 -0.0668  0.3138
  185SLPC   H2R21250   5.749   5.099   6.956 -0.4105  0.8720  0.3727
  185SLPC   H2S21251   5.639   5.159   6.819 -1.0428 -0.4052  0.1762
  185SLPC    C321252   5.977   4.772   6.775 -0.4256 -0.0636  0.4084
  185SLPC    HX21253   6.070   4.810   6.822 -1.2543  0.8114  1.3944
  185SLPC    HY21254   6.003   4.694   6.700 -1.2619  1.5811 -1.6701
  185SLPC   O3121255   5.884   4.712   6.869 -0.5437 -0.1547 -0.4707
  185SLPC   C3121256   5.933   4.616   6.944  0.1468 -0.0263 -0.1224
  185SLPC   O3221257   6.047   4.578   6.952 -0.5390  0.4964 -0.1830
  185SLPC   C3221258   5.813   4.549   7.020  0.5198 -0.0747  0.6545
  185SLPC   H2X21259   5.759   4.483   6.948  3.1290 -2.6475  0.8616
  185SLPC   H2Y21260   5.747   4.636   7.045  0.2267 -0.9405  3.1422
  185SLPC   C2321261   5.550   5.044   6.993  0.3877 -0.1874 -0.0069
  185SLPC   H3R21262   5.476   4.973   6.950  1.9619 -0.7956 -1.8499
  185SLPC   H3S21263   5.487   5.134   7.007 -1.0994 -1.0074 -1.1174
  185SLPC   C2421264   5.591   4.993   7.129 -0.2607  0.0014 -0.4384
  185SLPC   H4R21265   5.667   5.061   7.174  0.5176 -1.0333 -0.1431
  185SLPC   H4S21266   5.643   4.897   7.108  0.5022  0.7492 -2.2613
  185SLPC   C2521267   5.475   4.972   7.230 -0.3081 -0.6570 -0.4185
  185SLPC   H5R21268   5.400   4.901   7.188 -0.8901  0.4025 -1.2118
  185SLPC   H5S21269   5.426   5.072   7.225  1.6031  0.3012 -1.0359
  185SLPC   C2621270   5.525   4.941   7.375  0.2321 -0.1881  1.0856
  185SLPC   H6R21271   5.580   5.032   7.407  1.0335 -0.7285  1.2744
  185SLPC   H6S21272   5.588   4.850   7.380 -1.3860 -1.5621 -1.3848
  185SLPC   C2721273   5.416   4.929   7.483  0.3550  0.1822  0.4199
  185SLPC   H7R21274   5.349   4.851   7.442 -1.4347  2.5962 -1.5885
  185SLPC   H7S21275   5.352   5.020   7.491  1.5203  1.1882 -1.0979
  185SLPC   C2821276   5.458   4.886   7.620 -0.1156  0.0773 -0.2580
  185SLPC   H8R21277   5.516   4.792   7.614 -1.0952 -0.4269 -4.3091
  185SLPC   H8S21278   5.365   4.863   7.676  0.0288 -0.4691 -0.2440
  185SLPC   C2921279   5.543   4.994   7.694  0.1626  0.4475 -0.1234
  185SLPC   H9R21280   5.615   5.043   7.627 -1.1702 -0.5693 -2.3953
  185SLPC  C21021281   5.555   5.021   7.827  0.1702 -0.0313  0.5037
  185SLPC  H10R21282   5.638   5.089   7.852 -1.0254  0.8272  2.3481
  185SLPC  C21121283   5.474   4.959   7.935 -0.7056  0.0261 -0.2416
  185SLPC  H11R21284   5.515   4.863   7.972 -1.6649 -0.3371 -0.0914
  185SLPC  H11S21285   5.374   4.933   7.894 -1.8748  1.1676  1.7186
  185SLPC  C21221286   5.451   5.058   8.042 -0.2088  0.6602 -0.7296
  185SLPC  H12R21287   5.350   5.096   8.063  0.1611  0.4894  1.5733
  185SLPC  C21321288   5.535   5.086   8.142 -0.0988  0.1909  0.6420
  185SLPC  H13R21289   5.504   5.159   8.218 -1.0688  1.2495 -0.7175
  185SLPC  C21421290   5.679   5.039   8.163 -0.1199 -0.2326  0.4960
  185SLPC  H14R21291   5.741   5.130   8.150  0.6037 -0.6997  0.6050
  185SLPC  H14S21292   5.711   4.967   8.085  0.0752 -1.6200  1.7920
  185SLPC  C21521293   5.707   4.992   8.307  0.4222  0.2662 -0.4726
  185SLPC  H15R21294   5.648   5.051   8.380  0.4544 -0.0763 -0.1731
  185SLPC  H15S21295   5.814   5.008   8.332 -0.4405  1.9449  2.7457
  185SLPC  C21621296   5.674   4.848   8.338 -0.0790  0.1199  0.8914
  185SLPC  H16R21297   5.759   4.794   8.291 -1.1501 -0.4609 -0.4259
  185SLPC  H16S21298   5.578   4.825   8.288 -0.5774  2.1242  0.8852
  185SLPC  C21721299   5.661   4.804   8.482  0.3506 -0.7779  0.5281
  185SLPC  H17R21300   5.567   4.745   8.488 -0.7519  0.9626  1.0176
  185SLPC  H17S21301   5.644   4.892   8.548  0.3867 -0.4412  0.0858
  185SLPC  C21821302   5.784   4.727   8.529  0.5235 -0.2733 -0.0721
  185SLPC  H18R21303   5.874   4.792   8.532  0.4018 -0.1370  1.0137
  185SLPC  H18S21304   5.803   4.636   8.468 -1.6009 -2.0530  1.7041
  185SLPC  H18T21305   5.769   4.700   8.635 -0.3878 -1.4973 -0.4835
  185SLPC   C3321306   5.862   4.472   7.150 -0.0118  0.0336 -0.0447
  185SLPC   H3X21307   5.931   4.538   7.207 -0.2721  0.6431 -0.4330
  185SLPC   H3Y21308   5.927   4.388   7.116 -1.5592 -0.5502 -1.7175
  185SLPC   C3421309   5.744   4.415   7.235  0.7396  0.1825 -0.1603
  185SLPC   H4X21310   5.699   4.338   7.169 -1.6890  0.3214  1.2020
  185SLPC   H4Y21311   5.661   4.489   7.244 -2.0051 -2.7714  0.4423
  185SLPC   C3521312   5.790   4.356   7.368  0.0982 -0.2038 -0.6838
  185SLPC   H5X21313   5.845   4.427   7.433 -0.6185  0.3797 -0.7129
  185SLPC   H5Y21314   5.856   4.267   7.356 -1.4350 -1.7231  1.3494
  185SLPC   C3621315   5.673   4.313   7.461 -0.5378  0.1915  0.3884
  185SLPC   H6X21316   5.624   4.232   7.403 -0.5187  0.2696  0.2627
  185SLPC   H6Y21317   5.607   4.400   7.482 -1.3148 -0.6469  1.5850
  185SLPC   C3721318   5.718   4.250   7.596 -0.5340  0.3715 -0.5369
  185SLPC   H7X21319   5.728   4.333   7.668 -0.9075  0.2024 -0.2851
  185SLPC   H7Y21320   5.818   4.200   7.591 -0.7615 -0.3853  1.4435
  185SLPC   C3821321   5.619   4.129   7.644  0.1002 -1.2015  0.8641
  185SLPC   H8X21322   5.651   4.038   7.589 -0.5917 -2.2010  2.0476
  185SLPC   H8Y21323   5.515   4.157   7.620 -0.5337 -1.5641  2.9758
  185SLPC   C3921324   5.623   4.114   7.799 -0.2310 -0.3192 -0.2300
  185SLPC   H9X21325   5.733   4.102   7.808 -0.3850 -0.6193  1.7860
  185SLPC   H9Y21326   5.572   4.019   7.829  1.1250 -0.8579  0.4605
  185SLPC  C31021327   5.552   4.233   7.877  0.0833  0.4218  0.3478
  185SLPC  H10X21328   5.446   4.230   7.845 -0.3330  1.2373  1.5581
  185SLPC  H10Y21329   5.609   4.322   7.842  1.3450 -0.7100 -0.5761
  185SLPC  C31121330   5.569   4.226   8.039  0.1076  0.0980 -0.5352
  185SLPC  H11X21331   5.533   4.126   8.072  0.2725  0.3681  0.5222
  185SLPC  H11Y21332   5.503   4.299   8.091 -2.3595 -1.0330 -1.9189
  185SLPC  C31221333   5.713   4.225   8.097 -0.2427 -0.5621 -0.8197
  185SLPC  H12X21334   5.750   4.329   8.108 -3.1182  0.5515 -0.6774
  185SLPC  H12Y21335   5.763   4.171   8.014 -1.0877  0.3762 -1.9676
  185SLPC  C31321336   5.736   4.155   8.237 -0.1635 -0.0549  0.3154
  185SLPC  H13X21337   5.661   4.194   8.309  2.1288  0.8217  2.3789
  185SLPC  H13Y21338   5.831   4.201   8.272  0.2058  1.2240 -2.1587
  185SLPC  C31421339   5.749   4.004   8.225 -0.1805 -0.7691  0.0471
  185SLPC  H14X21340   5.840   3.977   8.168 -0.9183 -2.9840 -0.1666
  185SLPC  H14Y21341   5.669   3.951   8.168 -0.0894 -1.7122  0.7731
  185SLPC  C31521342   5.770   3.945   8.362 -0.5332  0.8699  0.3930
  185SLPC  H15X21343   5.858   3.993   8.410  0.1879  1.6274 -1.5909
  185SLPC  H15Y21344   5.791   3.837   8.348  1.5293  0.8545  2.8050
  185SLPC  C31621345   5.643   3.940   8.449  0.1234 -0.7523 -0.2228
  185SLPC  H16X21346   5.561   3.914   8.379 -2.1195  0.3466  1.8548
  185SLPC  H16Y21347   5.630   4.044   8.485  3.2212  0.3602 -1.9440
  185SLPC  C31721348   5.652   3.834   8.561 -0.2049  0.0381 -1.0353
  185SLPC  H17X21349   5.722   3.856   8.644 -1.4078  1.4167 -0.3317
  185SLPC  H17Y21350   5.702   3.743   8.523  0.4721  0.6828 -1.7355
  185SLPC  C31821351   5.514   3.802   8.614 -0.4764 -0.2632 -0.6101
  185SLPC  H18X21352   5.462   3.890   8.659 -1.9361 -1.4810  0.1689
  185SLPC  H18Y21353   5.519   3.720   8.688  0.9449  0.0646 -0.3043
  185SLPC  H18Z21354   5.435   3.768   8.545 -2.4196  1.4696  0.6226
  186SLPC     N21355   0.198   0.508   5.913  0.5325 -0.0054 -0.0863
  186SLPC   C1321356   0.115   0.517   5.795  0.1711  0.4032 -0.4934
  186SLPC  H13A21357   0.184   0.528   5.713  2.3008 -0.7674  1.0368
  186SLPC  H13B21358   0.064   0.423   5.778 -1.8078  1.4681 -0.7670
  186SLPC  H13C21359   0.043   0.598   5.796  0.4267  0.6376  0.2026
  186SLPC   C1421360   0.279   0.633   5.935  0.6340  0.3894  0.1842
  186SLPC  H14A21361   0.343   0.627   6.022  0.7712 -3.2303 -0.0463
  186SLPC  H14B21362   0.346   0.655   5.853  4.2883 -2.4939  2.0865
  186SLPC  H14C21363   0.202   0.708   5.949 -1.0629 -1.2013 -0.2854
  186SLPC   C1521364   0.292   0.394   5.886 -0.1877  0.0723  0.0170
  186SLPC  H15A21365   0.331   0.404   5.786 -0.8765 -1.8581 -0.4848
  186SLPC  H15B21366   0.374   0.393   5.957 -0.1880 -0.2971  0.0142
  186SLPC  H15C21367   0.249   0.296   5.898  1.8974 -0.7542  1.3725
  186SLPC   C1221368   0.105   0.484   6.038 -0.1970  0.1037  0.4499
  186SLPC  H12A21369   0.043   0.400   6.011 -1.1706  1.2868 -1.1758
  186SLPC  H12B21370   0.046   0.574   6.050 -0.5413  0.1526 -1.2931
  186SLPC   C1121371   0.186   0.444   6.164  0.5217 -0.5329  0.5532
  186SLPC  H11A21372   0.230   0.345   6.140 -1.0132 -0.9962 -0.4873
  186SLPC  H11B21373   0.120   0.428   6.252  2.0499 -1.7761  1.5327
  186SLPC     P21374   0.390   0.546   6.314  0.2516 -0.3960  0.3161
  186SLPC   O1321375   0.442   0.411   6.356  0.3710  0.1984  0.0088
  186SLPC   O1421376   0.491   0.645   6.261  0.1989  0.3748 -0.5869
  186SLPC   O1221377   0.286   0.538   6.195  0.2863 -0.0409  0.8474
  186SLPC   O1121378   0.313   0.606   6.433 -0.1468  0.4176 -0.0453
  186SLPC    C121379   0.204   0.703   6.406 -0.4609 -0.5953  0.1144
  186SLPC    HA21380   0.255   0.800   6.390 -1.2743 -0.0907  0.4799
  186SLPC    HB21381   0.147   0.676   6.315  3.5790 -0.1002 -2.8135
  186SLPC    C221382   0.115   0.726   6.532  0.0165 -0.4028 -0.8300
  186SLPC    HS21383   0.045   0.810   6.512  0.8989  0.5043 -0.2204
  186SLPC   O2121384   0.205   0.769   6.641 -0.4370  0.1081  0.0596
  186SLPC   C2121385   0.153   0.843   6.739  0.2705  0.0969  0.2324
  186SLPC   O2221386   0.034   0.856   6.754 -0.3790 -0.6004  0.2942
  186SLPC   C2221387   0.271   0.906   6.806  0.7713 -0.4829  0.1862
  186SLPC   H2R21388   0.357   0.920   6.737  0.1590 -0.1882 -0.5376
  186SLPC   H2S21389   0.244   1.010   6.833  1.4621  0.2955 -1.9121
  186SLPC    C321390   0.043   0.590   6.564 -0.6018  0.4886  0.5069
  186SLPC    HX21391   0.128   0.524   6.592 -0.3682  0.8943  0.7688
  186SLPC    HY21392  -0.003   0.560   6.468 -0.4570  0.0775  0.5654
  186SLPC   O3121393  -0.063   0.609   6.664  0.4244  0.0265 -0.1172
  186SLPC   C3121394  -0.060   0.529   6.777  0.5192 -0.0820 -0.4650
  186SLPC   O3221395   0.021   0.448   6.812  0.3390 -0.6002  0.4536
  186SLPC   C3221396  -0.189   0.544   6.839  0.0784 -0.2978  0.7607
  186SLPC   H2X21397  -0.264   0.492   6.776  0.3689  1.5351 -1.2137
  186SLPC   H2Y21398  -0.212   0.653   6.836 -1.9080 -0.6862  0.5304
  186SLPC   C2321399   0.303   0.821   6.935 -0.7366  0.0803  0.9453
  186SLPC   H3R21400   0.347   0.726   6.896  2.6834  0.9425  2.3270
  186SLPC   H3S21401   0.211   0.815   6.996 -0.2816 -1.5109  1.5224
  186SLPC   C2421402   0.409   0.888   7.009 -0.7310  0.7018  0.0860
  186SLPC   H4R21403   0.372   0.986   7.046 -0.8469  1.4121 -1.7748
  186SLPC   H4S21404   0.496   0.905   6.941 -2.0713  1.1891 -1.5954
  186SLPC   C2521405   0.453   0.813   7.129  0.2706  0.3772 -0.2779
  186SLPC   H5R21406   0.469   0.707   7.101 -1.8293 -0.6724  2.1228
  186SLPC   H5S21407   0.358   0.814   7.187 -0.8305  2.2208 -1.9446
  186SLPC   C2621408   0.578   0.869   7.204 -0.0184  0.1869  0.5728
  186SLPC   H6R21409   0.557   0.976   7.225 -3.5294 -0.3011  0.1692
  186SLPC   H6S21410   0.668   0.859   7.140 -0.1163  0.4632  0.3927
  186SLPC   C2721411   0.612   0.788   7.334 -0.5948  0.0781 -0.1660
  186SLPC   H7R21412   0.602   0.684   7.297 -1.4340 -0.2975  1.0299
  186SLPC   H7S21413   0.531   0.811   7.407  0.2803  0.3149  0.7499
  186SLPC   C2821414   0.758   0.803   7.382  0.1295 -0.2353  0.6273
  186SLPC   H8R21415   0.823   0.809   7.292 -2.1370  0.9557 -1.0611
  186SLPC   H8S21416   0.788   0.720   7.449  3.5802  0.0914 -0.2994
  186SLPC   C2921417   0.788   0.940   7.446  0.5457 -0.3246 -0.2702
  186SLPC   H9R21418   0.749   1.021   7.382 -0.0872 -0.9632 -0.7147
  186SLPC  C21021419   0.831   0.960   7.569 -0.6875  0.3815  0.4112
  186SLPC  H10R21420   0.846   1.066   7.596  0.1030  0.6317 -0.9511
  186SLPC  C21121421   0.861   0.856   7.679  0.4836 -0.7588 -0.8855
  186SLPC  H11R21422   0.940   0.888   7.751 -1.8963 -0.0570  1.5724
  186SLPC  H11S21423   0.893   0.766   7.623  0.9710 -0.8535 -0.4655
  186SLPC  C21221424   0.737   0.822   7.764  0.8387  0.1854  0.7946
  186SLPC  H12R21425   0.641   0.809   7.713  1.2201  3.2809 -0.9690
  186SLPC  C21321426   0.743   0.778   7.886  0.3214  0.3709 -0.0846
  186SLPC  H13R21427   0.650   0.763   7.943 -1.1379 -3.3898 -3.0055
  186SLPC  C21421428   0.866   0.766   7.974 -0.1898  0.4074  0.4021
  186SLPC  H14R21429   0.954   0.817   7.929 -0.9825  1.2290 -0.2614
  186SLPC  H14S21430   0.894   0.660   7.990  0.8516  0.6468  0.2192
  186SLPC  C21521431   0.847   0.812   8.122 -0.4086 -0.2063 -0.2529
  186SLPC  H15R21432   0.809   0.915   8.111  0.7706  0.1668 -0.9699
  186SLPC  H15S21433   0.943   0.825   8.176 -1.1474 -0.0687  1.0679
  186SLPC  C21621434   0.741   0.736   8.199  0.9290 -0.0969 -0.5342
  186SLPC  H16R21435   0.661   0.702   8.130  1.2131 -1.1056 -0.3939
  186SLPC  H16S21436   0.699   0.805   8.275 -1.1705 -0.2124 -1.5312
  186SLPC  C21721437   0.791   0.612   8.274  0.1629  0.0274  0.2458
  186SLPC  H17R21438   0.891   0.620   8.322  0.1225  2.5691  0.0323
  186SLPC  H17S21439   0.800   0.531   8.198 -0.4987 -2.2300  2.4129
  186SLPC  C21821440   0.683   0.551   8.374  0.2370  0.5241 -0.3114
  186SLPC  H18R21441   0.691   0.597   8.474  0.6536  1.6017 -0.8178
  186SLPC  H18S21442   0.700   0.445   8.402  3.3725  1.1384  0.4172
  186SLPC  H18T21443   0.581   0.565   8.331  0.2211 -0.9446 -0.8207
  186SLPC   C3321444  -0.194   0.504   6.986  0.1273 -0.2894 -0.4345
  186SLPC   H3X21445  -0.107   0.547   7.040  1.5751 -1.3827 -1.8194
  186SLPC   H3Y21446  -0.177   0.395   6.994  3.4301  0.1662 -0.0957
  186SLPC   C3421447  -0.322   0.532   7.058  0.4081  0.2583 -0.5496
  186SLPC   H4X21448  -0.402   0.460   7.029 -0.4440  0.5866  0.8804
  186SLPC   H4Y21449  -0.356   0.632   7.025  0.4184 -0.7266 -3.9266
  186SLPC   C3521450  -0.317   0.539   7.206  0.8965 -0.1147  0.3737
  186SLPC   H5X21451  -0.423   0.536   7.237 -0.4186  1.2628 -3.3810
  186SLPC   H5Y21452  -0.277   0.630   7.254  1.3202  0.0581 -0.2839
  186SLPC   C3621453  -0.243   0.430   7.286  0.2404  0.4442  0.3491
  186SLPC   H6X21454  -0.139   0.412   7.251  0.7234  1.8792  0.9789
  186SLPC   H6Y21455  -0.303   0.337   7.290 -1.8877  1.5671 -2.2014
  186SLPC   C3721456  -0.238   0.466   7.437  0.0007 -0.1401 -0.2829
  186SLPC   H7X21457  -0.340   0.491   7.471 -0.0560 -0.4480 -0.2222
  186SLPC   H7Y21458  -0.163   0.546   7.454 -1.7482  1.0203  2.6294
  186SLPC   C3821459  -0.195   0.343   7.527  0.0946  0.7162  0.1409
  186SLPC   H8X21460  -0.090   0.313   7.510 -0.3998 -1.0231  0.0110
  186SLPC   H8Y21461  -0.267   0.264   7.497 -0.9073  1.5001  0.4337
  186SLPC   C3921462  -0.228   0.379   7.676  0.1957  0.3110  0.7563
  186SLPC   H9X21463  -0.324   0.434   7.689 -0.0816  0.5854 -1.8886
  186SLPC   H9Y21464  -0.148   0.442   7.718 -0.1977  1.2910  0.0772
  186SLPC  C31021465  -0.245   0.259   7.769  0.3677 -0.5815  0.3236
  186SLPC  H10X21466  -0.159   0.190   7.758  0.6835 -0.4051  1.4962
  186SLPC  H10Y21467  -0.340   0.214   7.733 -0.2050 -0.2242  1.3415
  186SLPC  C31121468  -0.266   0.292   7.921 -0.5317  0.5171  0.3018
  186SLPC  H11X21469  -0.291   0.198   7.973 -2.2150  0.1947 -1.0069
  186SLPC  H11Y21470  -0.355   0.355   7.941 -0.1971  1.6487 -1.4859
  186SLPC  C31221471  -0.139   0.360   7.984  0.6334  0.8224 -0.4089
  186SLPC  H12X21472  -0.105   0.446   7.923 -1.0239 -0.2589 -3.0258
  186SLPC  H12Y21473  -0.054   0.290   7.972 -1.1759 -1.1242 -3.0975
  186SLPC  C31321474  -0.165   0.391   8.140 -0.1877 -0.4510 -0.2926
  186SLPC  H13X21475  -0.187   0.299   8.199 -0.6143 -1.0376 -1.3522
  186SLPC  H13Y21476  -0.249   0.464   8.147  0.6727  0.4103  3.1474
  186SLPC  C31421477  -0.045   0.445   8.214 -0.1108  0.1480 -0.2395
  186SLPC  H14X21478   0.040   0.381   8.183 -0.2724 -1.0597  1.6377
  186SLPC  H14Y21479  -0.054   0.433   8.324 -0.2567 -1.6185 -0.4157
  186SLPC  C31521480  -0.020   0.596   8.200 -0.1496 -0.4471  0.3176
  186SLPC  H15X21481  -0.123   0.637   8.190 -0.2781 -0.9896 -0.6854
  186SLPC  H15Y21482   0.033   0.611   8.104  1.4287 -3.3658  0.6089
  186SLPC  C31621483   0.056   0.657   8.317 -0.2446  0.1775  0.2571
  186SLPC  H16X21484   0.006   0.641   8.415 -1.5777 -1.1397 -0.5957
  186SLPC  H16Y21485   0.068   0.767   8.311 -0.1193  0.2413  1.4981
  186SLPC  C31721486   0.197   0.587   8.337 -0.4445  1.0721 -0.1226
  186SLPC  H17X21487   0.270   0.615   8.257  0.0059 -2.6574 -1.2024
  186SLPC  H17Y21488   0.181   0.477   8.338 -1.6044  1.0547 -3.8114
  186SLPC  C31821489   0.266   0.632   8.463 -0.3590 -0.6897  0.0118
  186SLPC  H18X21490   0.370   0.595   8.480 -0.2576  0.3126  1.9090
  186SLPC  H18Y21491   0.215   0.602   8.557  0.6652  0.6345  1.0410
  186SLPC  H18Z21492   0.270   0.743   8.461 -1.4276 -0.5668  1.9668
  187SLPC     N21493   0.186   4.880   6.186 -0.1549  1.1330 -0.2929
  187SLPC   C1321494   0.284   4.990   6.196 -0.3165  0.2032  0.9132
  187SLPC  H13A21495   0.386   4.957   6.181 -0.6095 -0.3929  0.1941
  187SLPC  H13B21496   0.255   5.076   6.137 -0.3522 -0.4972 -0.1119
  187SLPC  H13C21497   0.285   5.033   6.295  0.0917 -2.0252  1.9273
  187SLPC   C1421498   0.174   4.833   6.045 -0.1676 -1.0392  0.0185
  187SLPC  H14A21499   0.265   4.803   5.995  0.2870  0.2362  0.0332
  187SLPC  H14B21500   0.109   4.747   6.035  1.2205 -2.2772  1.1948
  187SLPC  H14C21501   0.124   4.913   5.991 -1.8060 -1.0379  1.4561
  187SLPC   C1521502   0.051   4.931   6.222  0.5233  0.0664 -0.7391
  187SLPC  H15A21503   0.047   4.970   6.322 -0.6185  0.3160 -0.8737
  187SLPC  H15B21504   0.037   5.016   6.157 -0.7112  1.1114  0.8493
  187SLPC  H15C21505  -0.028   4.859   6.210  0.6537  0.0619 -1.6406
  187SLPC   C1221506   0.228   4.762   6.276  0.0597 -0.4036 -0.3995
  187SLPC  H12A21507   0.230   4.794   6.379  1.5198 -0.6568 -0.3203
  187SLPC  H12B21508   0.329   4.734   6.248  0.0472  1.2640 -2.4118
  187SLPC   C1121509   0.145   4.636   6.266  0.2891  0.2906  0.3838
  187SLPC  H11A21510   0.171   4.574   6.178 -1.4322  1.5545 -1.0728
  187SLPC  H11B21511   0.037   4.658   6.251  0.4656  1.3856  0.5841
  187SLPC     P21512   0.111   4.597   6.519  0.2617 -0.0180  0.0037
  187SLPC   O1321513   0.127   4.484   6.611  0.5787  0.3482  0.0736
  187SLPC   O1421514   0.174   4.722   6.559  0.8695 -0.2415 -0.1727
  187SLPC   O1221515   0.170   4.555   6.374 -0.0078  0.6932 -0.3691
  187SLPC   O1121516  -0.051   4.622   6.498  0.1681 -0.1650 -0.9218
  187SLPC    C121517  -0.107   4.742   6.562 -0.7631  0.2913 -0.6485
  187SLPC    HA21518  -0.056   4.835   6.531 -2.3403  0.8323 -1.7623
  187SLPC    HB21519  -0.208   4.753   6.515 -0.3042 -1.5320 -2.2076
  187SLPC    C221520  -0.135   4.737   6.719 -0.0796  0.8611 -0.4039
  187SLPC    HS21521  -0.179   4.834   6.751 -0.7019  0.0238  1.4254
  187SLPC   O2121522  -0.008   4.715   6.787  0.8855 -0.5663  0.0600
  187SLPC   C2121523   0.057   4.830   6.822  0.3262  0.5315  0.7079
  187SLPC   O2221524   0.015   4.941   6.803 -0.2022 -0.6461  0.6075
  187SLPC   C2221525   0.183   4.801   6.903  0.2898  0.0286  0.1476
  187SLPC   H2R21526   0.246   4.730   6.846  0.6251 -1.2336  1.9989
  187SLPC   H2S21527   0.229   4.902   6.908  1.5197 -0.4671 -0.6909
  187SLPC    C321528  -0.237   4.626   6.754 -0.4178 -0.4598 -0.0625
  187SLPC    HX21529  -0.186   4.532   6.723  0.1489  0.5742 -2.4211
  187SLPC    HY21530  -0.328   4.636   6.691  0.7491 -0.1287 -1.7675
  187SLPC   O3121531  -0.263   4.610   6.893  0.1693  0.6043  0.5766
  187SLPC   C3121532  -0.357   4.690   6.935  0.2247  0.1551  0.3006
  187SLPC   O3221533  -0.414   4.775   6.868 -0.6797 -0.2801  0.3010
  187SLPC   C3221534  -0.380   4.662   7.085  0.2732 -0.0860  0.9956
  187SLPC   H2X21535  -0.352   4.558   7.111 -1.4878 -0.1769  2.7297
  187SLPC   H2Y21536  -0.485   4.675   7.116  0.7385  0.8886  2.2389
  187SLPC   C2321537   0.173   4.738   7.042  0.5385  0.3923  0.1285
  187SLPC   H3R21538   0.268   4.694   7.078 -1.1586 -2.3634  1.6472
  187SLPC   H3S21539   0.104   4.651   7.037  0.4430  0.3723  1.5468
  187SLPC   C2421540   0.131   4.837   7.150  0.3479  0.4702  0.4788
  187SLPC   H4R21541   0.045   4.893   7.107 -1.2246 -1.4214  1.0368
  187SLPC   H4S21542   0.207   4.918   7.160 -0.1033  0.9269  0.2590
  187SLPC   C2521543   0.110   4.775   7.291 -0.7107  0.5658 -0.4743
  187SLPC   H5R21544   0.211   4.741   7.322 -0.4687  2.4447  0.9702
  187SLPC   H5S21545   0.053   4.680   7.290  1.6691 -0.9560  0.1830
  187SLPC   C2621546   0.046   4.877   7.388 -0.1163  0.5696 -0.5494
  187SLPC   H6R21547  -0.064   4.883   7.373 -0.2118  2.6578  0.5416
  187SLPC   H6S21548   0.089   4.979   7.379 -0.0905  0.5753 -0.3719
  187SLPC   C2721549   0.077   4.833   7.530 -0.0098  0.3538 -0.2546
  187SLPC   H7R21550   0.184   4.845   7.558 -0.2796  0.2732  0.8902
  187SLPC   H7S21551   0.058   4.723   7.534 -0.5532  0.4450 -0.2074
  187SLPC   C2821552  -0.021   4.905   7.627 -0.0622  0.1263  0.0275
  187SLPC   H8R21553  -0.003   4.861   7.728 -0.3367 -0.3759 -0.1413
  187SLPC   H8S21554  -0.128   4.891   7.599 -0.7328  1.9341  1.4895
  187SLPC   C2921555   0.005   5.058   7.621  0.3571  0.4593  0.9213
  187SLPC   H9R21556   0.003   5.095   7.517 -0.9246 -0.1626  0.7046
  187SLPC  C21021557   0.020   5.147   7.715  0.5775 -0.0221 -0.0390
  187SLPC  H10R21558   0.064   5.245   7.688  0.5856  0.3197  1.1425
  187SLPC  C21121559   0.013   5.115   7.863 -0.1579 -0.3842 -0.2243
  187SLPC  H11R21560   0.085   5.033   7.885 -1.0204 -1.0208  0.2471
  187SLPC  H11S21561  -0.082   5.066   7.890  0.8520 -2.3467 -0.0832
  187SLPC  C21221562   0.028   5.240   7.946 -0.1667 -0.2184 -0.4539
  187SLPC  H12R21563   0.082   5.321   7.894 -1.3648  1.2279  0.4788
  187SLPC  C21321564  -0.024   5.262   8.072  0.0086 -0.5883 -0.2163
  187SLPC  H13R21565   0.003   5.359   8.117 -0.9138 -1.1447  1.6517
  187SLPC  C21421566  -0.094   5.158   8.160 -0.1738 -0.4667 -0.0807
  187SLPC  H14R21567  -0.072   5.059   8.113 -0.0236 -0.5225  0.1112
  187SLPC  H14S21568  -0.204   5.171   8.158 -0.0348  0.8815 -2.3808
  187SLPC  C21521569  -0.038   5.152   8.302  0.4335 -0.0349 -0.0966
  187SLPC  H15R21570  -0.075   5.234   8.366 -1.4594 -0.3540 -0.7339
  187SLPC  H15S21571   0.073   5.157   8.299  0.4632  1.0396  1.7561
  187SLPC  C21621572  -0.067   5.028   8.388 -0.1238  0.0128 -0.1664
  187SLPC  H16R21573  -0.059   4.936   8.326 -1.2833 -0.5340  0.4763
  187SLPC  H16S21574  -0.174   5.020   8.415 -0.3166 -1.4560 -1.2466
  187SLPC  C21721575   0.019   5.008   8.509  0.0448  0.0360  0.0395
  187SLPC  H17R21576   0.015   5.096   8.576 -0.9207  2.1343 -2.5951
  187SLPC  H17S21577   0.124   5.013   8.474 -0.4275 -0.2746 -1.5314
  187SLPC  C21821578  -0.021   4.889   8.590 -0.3232  0.2081 -0.8243
  187SLPC  H18R21579   0.011   4.796   8.537 -1.0638 -0.5862  0.0887
  187SLPC  H18S21580  -0.130   4.882   8.609  0.1425 -0.2985  2.1960
  187SLPC  H18T21581   0.039   4.895   8.683 -1.2221 -1.7139 -0.0496
  187SLPC   C3321582  -0.290   4.753   7.175 -0.2476 -0.5185 -0.0471
  187SLPC   H3X21583  -0.315   4.858   7.150 -2.1403 -1.2335 -1.4910
  187SLPC   H3Y21584  -0.183   4.728   7.164  0.2413  0.6291  1.6698
  187SLPC   C3421585  -0.323   4.744   7.324 -0.0380  0.1745 -0.9238
  187SLPC   H4X21586  -0.425   4.779   7.352  0.0117 -0.9921  0.9642
  187SLPC   H4Y21587  -0.251   4.811   7.374  0.3699  0.4220 -1.8354
  187SLPC   C3521588  -0.299   4.607   7.396 -0.0998 -0.2161 -0.7077
  187SLPC   H5X21589  -0.194   4.572   7.380  0.6538  2.1727 -1.4765
  187SLPC   H5Y21590  -0.379   4.537   7.364 -1.0964 -1.0656  3.1445
  187SLPC   C3621591  -0.308   4.624   7.554 -1.2582  0.0344 -0.7715
  187SLPC   H6X21592  -0.389   4.691   7.592 -1.8612 -0.9896 -0.1787
  187SLPC   H6Y21593  -0.213   4.671   7.586  0.1645 -1.5781 -2.4544
  187SLPC   C3721594  -0.318   4.482   7.611 -0.0819 -0.4341 -0.3770
  187SLPC   H7X21595  -0.386   4.421   7.548 -1.2340  0.5106 -0.0860
  187SLPC   H7Y21596  -0.215   4.444   7.598 -0.2551 -1.6106  1.3303
  187SLPC   C3821597  -0.362   4.477   7.757 -0.1434 -0.0692 -0.6729
  187SLPC   H8X21598  -0.374   4.370   7.785  2.7268 -0.2641  0.1399
  187SLPC   H8Y21599  -0.460   4.529   7.761 -1.1803 -1.9927  0.7714
  187SLPC   C3921600  -0.265   4.544   7.845 -0.1459  0.0379  0.0004
  187SLPC   H9X21601  -0.261   4.654   7.833 -0.2064  0.1047  0.5682
  187SLPC   H9Y21602  -0.163   4.504   7.822  0.4115  0.9394  0.8258
  187SLPC  C31021603  -0.293   4.499   7.982 -0.1607 -0.0580  0.3836
  187SLPC  H10X21604  -0.348   4.403   7.996  1.0474 -0.6608  1.2176
  187SLPC  H10Y21605  -0.350   4.582   8.029  1.1694  0.9506  0.2835
  187SLPC  C31121606  -0.166   4.494   8.078  0.1960  0.5943 -0.6380
  187SLPC  H11X21607  -0.143   4.594   8.121 -1.8465  0.5719  0.6433
  187SLPC  H11Y21608  -0.083   4.466   8.010 -0.5146 -1.5260 -0.7056
  187SLPC  C31221609  -0.186   4.395   8.192 -0.3498 -0.2695  0.9815
  187SLPC  H12X21610  -0.226   4.301   8.149 -0.8100 -0.4662  1.8168
  187SLPC  H12Y21611  -0.257   4.439   8.265  0.4324  1.4454  0.7679
  187SLPC  C31321612  -0.051   4.375   8.258  0.1199 -0.0726  0.2135
  187SLPC  H13X21613  -0.050   4.333   8.361  0.2192 -0.6482 -0.0205
  187SLPC  H13Y21614  -0.004   4.475   8.264  0.7673 -0.2849 -1.0635
  187SLPC  C31421615   0.033   4.268   8.181  0.2010 -0.4951 -0.5691
  187SLPC  H14X21616   0.052   4.308   8.079  0.4788  1.9898  0.4047
  187SLPC  H14Y21617  -0.031   4.177   8.179 -0.0478 -0.3191 -0.7707
  187SLPC  C31521618   0.161   4.242   8.261  0.3836 -0.3964 -1.0341
  187SLPC  H15X21619   0.131   4.194   8.356 -0.2036 -0.0185 -1.0265
  187SLPC  H15Y21620   0.208   4.341   8.279  1.0515 -0.9138  0.1386
  187SLPC  C31621621   0.248   4.150   8.181  0.1472  0.4609  0.1093
  187SLPC  H16X21622   0.293   4.194   8.089 -0.8516 -0.6842 -0.9670
  187SLPC  H16Y21623   0.179   4.064   8.162  1.1426 -0.9680  2.4923
  187SLPC  C31721624   0.365   4.088   8.263  0.3029  0.7046  0.1620
  187SLPC  H17X21625   0.389   3.988   8.221 -2.3845  0.1535 -0.2301
  187SLPC  H17Y21626   0.329   4.081   8.368 -0.1831  1.2068  0.0301
  187SLPC  C31821627   0.487   4.184   8.260 -0.1453  0.0953  0.8279
  187SLPC  H18X21628   0.567   4.113   8.291  0.2515 -0.4307 -1.2751
  187SLPC  H18Y21629   0.458   4.269   8.326 -1.2529  1.2317 -1.0262
  187SLPC  H18Z21630   0.506   4.206   8.153  0.5565 -2.5681  0.3321
  188SLPC     N21631   0.774   5.093   6.432 -0.4859  0.5123 -0.2743
  188SLPC   C1321632   0.864   4.986   6.399 -0.4431  0.6289  0.5277
  188SLPC  H13A21633   0.844   4.899   6.460 -0.8513 -0.5899 -1.2540
  188SLPC  H13B21634   0.869   4.956   6.295  2.6352  1.0696  0.4507
  188SLPC  H13C21635   0.965   5.005   6.431  0.0558 -2.1421  0.9115
  188SLPC   C1421636   0.637   5.049   6.393 -0.3605  0.1990 -0.5853
  188SLPC  H14A21637   0.619   5.022   6.290 -1.1730 -2.2415  0.1024
  188SLPC  H14B21638   0.613   4.959   6.448  0.8204  0.0318 -0.3138
  188SLPC  H14C21639   0.564   5.122   6.427 -0.3212 -0.3636  0.7863
  188SLPC   C1521640   0.797   5.215   6.339  0.6161  0.7994  0.0785
  188SLPC  H15A21641   0.781   5.190   6.235  0.3387 -0.1309  0.3302
  188SLPC  H15B21642   0.735   5.296   6.373 -1.8546 -0.5943 -0.8433
  188SLPC  H15C21643   0.899   5.244   6.358  0.8198  0.6226 -0.7023
  188SLPC   C1221644   0.769   5.140   6.576 -0.3230 -0.0064  0.1395
  188SLPC  H12A21645   0.746   5.052   6.635  1.9019  0.4579  1.8563
  188SLPC  H12B21646   0.693   5.215   6.595 -0.8111 -0.0597 -1.4433
  188SLPC   C1121647   0.895   5.206   6.634  0.2913 -0.3254  0.3128
  188SLPC  H11A21648   0.971   5.131   6.603  0.3836  0.3572 -1.2062
  188SLPC  H11B21649   0.903   5.226   6.743 -1.6043  0.2245  0.3962
  188SLPC     P21650   0.842   5.460   6.597 -0.5362 -0.6490 -0.1746
  188SLPC   O1321651   0.862   5.537   6.473  0.2745 -0.0541 -0.1273
  188SLPC   O1421652   0.704   5.447   6.638  0.6488  0.4530 -0.2865
  188SLPC   O1221653   0.912   5.330   6.567 -0.1672 -0.0847 -0.2531
  188SLPC   O1121654   0.921   5.525   6.713  0.3295  0.6121  0.0389
  188SLPC    C121655   1.056   5.579   6.700 -0.4189 -0.4265 -0.3510
  188SLPC    HA21656   1.064   5.658   6.622  1.7176  0.9698  1.1955
  188SLPC    HB21657   1.073   5.634   6.795 -3.3640 -0.6130  0.3933
  188SLPC    C221658   1.167   5.464   6.696 -0.5597 -0.2554 -0.2345
  188SLPC    HS21659   1.153   5.408   6.601  0.0449 -1.3740  0.3235
  188SLPC   O2121660   1.142   5.379   6.815 -0.2301  0.0794 -0.1629
  188SLPC   C2121661   1.189   5.254   6.803  0.2204 -0.4095  0.0648
  188SLPC   O2221662   1.250   5.209   6.706 -0.0050 -0.6206  0.5305
  188SLPC   C2221663   1.135   5.182   6.918 -0.4329  0.8036 -1.4280
  188SLPC   H2R21664   1.062   5.246   6.971  0.8893  0.9950  0.2357
  188SLPC   H2S21665   1.075   5.098   6.876  0.8025  0.0809 -1.7979
  188SLPC    C321666   1.311   5.529   6.702  0.3417  0.2444 -0.2318
  188SLPC    HX21667   1.327   5.601   6.620  2.2196 -1.8026 -1.8102
  188SLPC    HY21668   1.389   5.449   6.705 -0.9680 -1.0463  1.5942
  188SLPC   O3121669   1.319   5.615   6.814 -0.0790 -0.5675 -0.0752
  188SLPC   C3121670   1.363   5.552   6.931  0.1118  0.5749  0.6236
  188SLPC   O3221671   1.393   5.437   6.944 -0.3516 -0.2132  0.0825
  188SLPC   C3221672   1.361   5.659   7.050  0.5583  0.1881 -0.7293
  188SLPC   H2X21673   1.336   5.756   7.002  0.6193 -0.5168 -2.2715
  188SLPC   H2Y21674   1.468   5.666   7.078  0.0746  0.5562  1.1269
  188SLPC   C2321675   1.241   5.135   7.015 -0.4765  0.7793  0.2786
  188SLPC   H3R21676   1.296   5.218   7.065  1.7327  0.2504 -1.1169
  188SLPC   H3S21677   1.318   5.073   6.964 -1.7511 -1.1813  0.6393
  188SLPC   C2421678   1.178   5.043   7.114  0.2773 -0.3225 -0.0809
  188SLPC   H4R21679   1.254   4.992   7.177 -0.4615  1.2307  2.1793
  188SLPC   H4S21680   1.138   4.958   7.054 -0.4901  0.2603 -0.4090
  188SLPC   C2521681   1.052   5.093   7.192 -0.3886  0.2523  0.1672
  188SLPC   H5R21682   0.961   5.089   7.129  0.4454 -3.9181 -1.0555
  188SLPC   H5S21683   1.066   5.194   7.237  1.4493  0.7935 -1.4541
  188SLPC   C2621684   1.027   5.006   7.320  0.2210  0.0309  0.7604
  188SLPC   H6R21685   1.114   4.941   7.343 -0.7203 -0.8839  1.8867
  188SLPC   H6S21686   0.945   4.932   7.302  1.8441 -1.6159 -0.2390
  188SLPC   C2721687   0.988   5.088   7.444  0.6238  0.3730  0.2389
  188SLPC   H7R21688   0.886   5.123   7.415  1.3119  0.2411 -2.6470
  188SLPC   H7S21689   1.049   5.179   7.456 -1.6532  1.7972  1.6529
  188SLPC   C2821690   0.987   5.004   7.575  0.1910 -0.2269  0.2046
  188SLPC   H8R21691   0.911   4.923   7.577  0.8715 -0.8830 -0.3102
  188SLPC   H8S21692   0.944   5.076   7.648  1.0112  2.0781 -1.4642
  188SLPC   C2921693   1.125   4.964   7.617  0.2543  0.1824  0.2289
  188SLPC   H9R21694   1.199   4.958   7.536  0.5286 -0.4600  0.5171
  188SLPC  C21021695   1.159   4.935   7.739 -0.0543  0.4058 -0.2269
  188SLPC  H10R21696   1.262   4.907   7.762  1.0475  3.0982 -1.4083
  188SLPC  C21121697   1.066   4.937   7.857  0.1780 -0.8034  0.7493
  188SLPC  H11R21698   1.072   4.839   7.909 -0.6362 -0.6785  1.0979
  188SLPC  H11S21699   0.958   4.954   7.837  0.8190  1.0882 -1.6102
  188SLPC  C21221700   1.114   5.050   7.953 -0.3699  0.2510 -0.5816
  188SLPC  H12R21701   1.183   5.129   7.920  0.1504  1.0955  2.2956
  188SLPC  C21321702   1.102   5.051   8.090 -0.6330  0.2037  0.4840
  188SLPC  H13R21703   1.158   5.126   8.148  1.8259 -2.9158  2.4921
  188SLPC  C21421704   1.025   4.949   8.174 -0.2430 -0.7685  0.5111
  188SLPC  H14R21705   1.075   4.936   8.273 -1.1368 -0.2123  1.0541
  188SLPC  H14S21706   1.022   4.850   8.126 -0.5860 -0.2680 -0.5257
  188SLPC  C21521707   0.879   4.984   8.209  0.2460 -0.4491 -0.1155
  188SLPC  H15R21708   0.835   5.001   8.109 -0.8232 -3.4349 -0.2728
  188SLPC  H15S21709   0.882   5.079   8.266 -0.4646 -0.3763 -0.1995
  188SLPC  C21621710   0.796   4.883   8.285  0.5335 -0.8491  0.0751
  188SLPC  H16R21711   0.815   4.784   8.239  0.7078 -1.0958  0.6664
  188SLPC  H16S21712   0.686   4.897   8.277  0.6100 -0.8560 -1.2951
  188SLPC  C21721713   0.837   4.874   8.432  0.2654  0.4152 -0.8496
  188SLPC  H17R21714   0.947   4.863   8.443  0.4052  1.8111 -0.6468
  188SLPC  H17S21715   0.789   4.782   8.472  0.3168  1.5267  2.0022
  188SLPC  C21821716   0.804   4.995   8.520  0.4706 -0.4629  0.3282
  188SLPC  H18R21717   0.698   5.014   8.494  0.1299 -0.5518  1.5885
  188SLPC  H18S21718   0.863   5.086   8.499 -2.4739  1.6753  0.6697
  188SLPC  H18T21719   0.801   4.983   8.630 -1.2809 -1.6901  0.1958
  188SLPC   C3321720   1.277   5.622   7.174  0.4002 -0.1460  0.0370
  188SLPC   H3X21721   1.170   5.612   7.146  0.1298  3.7291 -0.8717
  188SLPC   H3Y21722   1.275   5.710   7.240 -0.8295 -2.1820  2.9191
  188SLPC   C3421723   1.336   5.499   7.251  0.3549  0.1906  0.1479
  188SLPC   H4X21724   1.444   5.520   7.267  0.5599 -0.8197  0.1053
  188SLPC   H4Y21725   1.320   5.408   7.190 -0.4792  0.5440 -0.1784
  188SLPC   C3521726   1.269   5.481   7.389 -0.7244  0.0125  0.0666
  188SLPC   H5X21727   1.167   5.438   7.383 -0.7658 -0.0734  1.0804
  188SLPC   H5Y21728   1.262   5.580   7.439 -2.3610 -0.1439  0.1896
  188SLPC   C3621729   1.360   5.393   7.482  0.1417  0.4176 -0.0745
  188SLPC   H6X21730   1.466   5.408   7.455  0.0527 -0.2307 -0.8137
  188SLPC   H6Y21731   1.340   5.284   7.471  0.6381  0.4454 -1.5294
  188SLPC   C3721732   1.348   5.427   7.632 -0.2499 -0.1553  0.1144
  188SLPC   H7X21733   1.253   5.384   7.671 -0.3890 -0.0066 -0.0619
  188SLPC   H7Y21734   1.356   5.537   7.645  1.1678 -0.2624  0.2815
  188SLPC   C3821735   1.451   5.368   7.725 -0.1994  0.1002 -0.2216
  188SLPC   H8X21736   1.552   5.405   7.698 -0.3231  0.9340  0.4072
  188SLPC   H8Y21737   1.463   5.260   7.699  1.3410  0.0628  0.5158
  188SLPC   C3921738   1.426   5.379   7.868 -0.2442  0.0624  0.6921
  188SLPC   H9X21739   1.340   5.315   7.897 -2.0803  2.1110  0.0915
  188SLPC   H9Y21740   1.377   5.479   7.868  0.7999  0.6232 -1.3661
  188SLPC  C31021741   1.550   5.386   7.964  0.7756  0.2425 -0.7438
  188SLPC  H10X21742   1.618   5.466   7.929 -0.2758  1.1044 -0.8668
  188SLPC  H10Y21743   1.607   5.291   7.958  2.0430  0.7491  1.8638
  188SLPC  C31121744   1.518   5.423   8.116  0.2770 -0.0390  0.5339
  188SLPC  H11X21745   1.479   5.329   8.161  1.4282 -0.3728  0.8647
  188SLPC  H11Y21746   1.442   5.503   8.127 -1.4955 -1.3773 -1.1381
  188SLPC  C31221747   1.637   5.465   8.203 -0.0981  0.4409  0.3042
  188SLPC  H12X21748   1.639   5.576   8.192 -1.6055  0.5629  1.0190
  188SLPC  H12Y21749   1.731   5.421   8.163 -0.8700 -0.4742 -0.5549
  188SLPC  C31321750   1.615   5.436   8.355  0.1228  0.5046 -0.3659
  188SLPC  H13X21751   1.617   5.327   8.374  2.8087  0.1158 -2.2346
  188SLPC  H13Y21752   1.522   5.481   8.396  0.5081  2.3235 -1.3807
  188SLPC  C31421753   1.733   5.488   8.435 -0.4348  0.4931 -0.4310
  188SLPC  H14X21754   1.730   5.599   8.432 -2.6911  0.5489  1.2697
  188SLPC  H14Y21755   1.824   5.448   8.385  0.0850  2.4717 -1.1563
  188SLPC  C31521756   1.722   5.449   8.586  0.5487 -0.0724  0.0755
  188SLPC  H15X21757   1.694   5.342   8.598  0.8776 -0.1818 -0.1280
  188SLPC  H15Y21758   1.633   5.500   8.628  0.1853 -2.0520  1.8790
  188SLPC  C31621759   1.835   5.495   8.678 -0.1881 -0.4414  0.5982
  188SLPC  H16X21760   1.885   5.579   8.624 -0.1983 -1.1747 -0.5991
  188SLPC  H16Y21761   1.909   5.415   8.699  0.2974 -0.5328 -1.2956
  188SLPC  C31721762   1.785   5.545   8.815 -0.5233  0.4572 -0.1261
  188SLPC  H17X21763   1.695   5.488   8.847  0.0757  0.4228  1.6024
  188SLPC  H17Y21764   1.775   5.655   8.806 -0.4514  0.4295 -0.5991
  188SLPC  C31821765   1.901   5.528   8.919  0.7253  0.1369  0.0247
  188SLPC  H18X21766   1.915   5.420   8.942  2.1010  0.0934 -0.9096
  188SLPC  H18Y21767   1.868   5.589   9.006 -0.0856  0.7103 -0.6670
  188SLPC  H18Z21768   1.994   5.574   8.881  0.3092  0.8241 -0.1786
  189SLPC     N21769   3.355   6.744   6.140 -0.3460  0.2668  0.5463
  189SLPC   C1321770   3.256   6.774   6.246  0.3017 -0.4329 -0.3957
  189SLPC  H13A21771   3.265   6.874   6.285 -1.9181  0.0866 -1.0714
  189SLPC  H13B21772   3.157   6.767   6.205  0.0929  0.9232 -0.1617
  189SLPC  H13C21773   3.258   6.709   6.333  0.8808 -1.5729 -1.2305
  189SLPC   C1421774   3.342   6.610   6.087  0.1292 -0.1798 -0.5626
  189SLPC  H14A21775   3.417   6.587   6.012 -0.4970 -2.0185 -0.6792
  189SLPC  H14B21776   3.350   6.536   6.165  1.5247 -0.3749 -0.8570
  189SLPC  H14C21777   3.254   6.591   6.027  0.3754 -1.8296 -0.4339
  189SLPC   C1521778   3.493   6.765   6.187  0.2912  0.6210 -0.8786
  189SLPC  H15A21779   3.559   6.728   6.111  2.4692  3.5936 -0.6050
  189SLPC  H15B21780   3.505   6.872   6.199  2.1632  0.5649 -2.0170
  189SLPC  H15C21781   3.508   6.709   6.278 -2.0945 -0.5724 -1.1177
  189SLPC   C1221782   3.323   6.843   6.026  0.2403 -0.4402  0.3930
  189SLPC  H12A21783   3.225   6.819   5.987  0.9364 -0.5154 -1.4209
  189SLPC  H12B21784   3.394   6.830   5.945  2.6194  1.6666  1.9954
  189SLPC   C1121785   3.321   6.995   6.059 -0.9628 -0.2779  0.0058
  189SLPC  H11A21786   3.239   7.014   6.132  0.2215  0.1407  1.2793
  189SLPC  H11B21787   3.298   7.043   5.962 -1.1330 -0.9048 -0.2699
  189SLPC     P21788   3.473   7.173   6.187  0.3405 -0.3918  0.0449
  189SLPC   O1321789   3.617   7.176   6.224 -0.2802  0.8475 -0.4695
  189SLPC   O1421790   3.423   7.285   6.106  0.4922  0.0221 -0.3432
  189SLPC   O1221791   3.452   7.036   6.107  0.0916 -0.0747 -0.5456
  189SLPC   O1121792   3.386   7.159   6.318  0.0609 -0.1491 -0.0140
  189SLPC    C121793   3.425   7.056   6.419  0.6330  0.1015  0.8689
  189SLPC    HA21794   3.328   7.007   6.445 -0.7845  1.1700 -1.9059
  189SLPC    HB21795   3.496   6.983   6.376  0.6560  0.5990  0.0315
  189SLPC    C221796   3.468   7.123   6.553  0.4502  0.3655 -0.0784
  189SLPC    HS21797   3.579   7.127   6.556  0.6603 -2.0669 -1.7103
  189SLPC   O2121798   3.424   7.033   6.661  0.8711 -0.0342 -0.3913
  189SLPC   C2121799   3.494   6.918   6.658  0.3828  0.0019 -0.1701
  189SLPC   O2221800   3.600   6.904   6.601 -0.5683 -0.1059  0.3464
  189SLPC   C2221801   3.424   6.811   6.750 -0.1776  0.5343  0.1054
  189SLPC   H2R21802   3.385   6.733   6.682 -0.2922 -0.1594  0.9485
  189SLPC   H2S21803   3.511   6.770   6.806 -1.3606  0.1638  1.7281
  189SLPC    C321804   3.408   7.269   6.566 -0.0044 -0.7271  0.3864
  189SLPC    HX21805   3.305   7.246   6.532  1.4421 -0.7212 -4.8701
  189SLPC    HY21806   3.449   7.334   6.486  3.1753 -0.4539  2.0807
  189SLPC   O3121807   3.405   7.336   6.699 -0.2208 -0.2987  0.5048
  189SLPC   C3121808   3.525   7.395   6.721  0.1470  0.5278 -0.9691
  189SLPC   O3221809   3.622   7.384   6.651 -0.6796  0.3541 -0.1656
  189SLPC   C3221810   3.523   7.483   6.845  0.0500  0.3584  0.2756
  189SLPC   H2X21811   3.423   7.466   6.888  0.5754 -1.8779  0.7448
  189SLPC   H2Y21812   3.543   7.588   6.817  2.8379  0.4642  2.2487
  189SLPC   C2321813   3.319   6.845   6.867 -0.3583 -0.1248  0.0629
  189SLPC   H3R21814   3.297   6.760   6.936 -0.8220  0.6107  0.8476
  189SLPC   H3S21815   3.225   6.879   6.818  0.1780  0.4097 -0.6067
  189SLPC   C2421816   3.360   6.961   6.959 -0.2165 -0.8145 -0.2768
  189SLPC   H4R21817   3.284   6.978   7.039  1.8394 -0.2311  1.6640
  189SLPC   H4S21818   3.361   7.052   6.896  2.1824  0.4889  1.4639
  189SLPC   C2521819   3.496   6.943   7.030 -0.5431 -0.3075  0.4628
  189SLPC   H5R21820   3.575   6.914   6.958 -0.5181 -0.0015  0.3667
  189SLPC   H5S21821   3.485   6.854   7.095  0.1230 -0.3570  0.5145
  189SLPC   C2621822   3.541   7.077   7.094  0.1127 -0.5743  0.2932
  189SLPC   H6R21823   3.487   7.095   7.189  0.9133  3.0281  0.1899
  189SLPC   H6S21824   3.513   7.158   7.023  2.5078  1.1391  1.1769
  189SLPC   C2721825   3.692   7.100   7.122 -0.6269  1.3283  0.5385
  189SLPC   H7R21826   3.716   7.206   7.098 -2.0931  1.5195 -0.2471
  189SLPC   H7S21827   3.753   7.043   7.048 -2.2894 -0.4706  0.4600
  189SLPC   C2821828   3.743   7.060   7.260  0.6073 -0.5109  0.0597
  189SLPC   H8R21829   3.853   7.053   7.248  0.7449  0.2554  0.7804
  189SLPC   H8S21830   3.712   6.954   7.276  2.9798 -1.2025  0.3946
  189SLPC   C2921831   3.704   7.149   7.375 -0.7749  0.5592  0.0491
  189SLPC   H9R21832   3.606   7.199   7.373 -1.3136 -0.3873  1.2975
  189SLPC  C21021833   3.781   7.183   7.485  0.4443  0.1202 -0.9229
  189SLPC  H10R21834   3.739   7.238   7.570  1.2546  0.7232 -0.9056
  189SLPC  C21121835   3.920   7.141   7.516  0.3338 -0.3620 -0.0999
  189SLPC  H11R21836   3.965   7.063   7.451  0.2950  0.1884 -0.8024
  189SLPC  H11S21837   3.907   7.087   7.612 -0.1912 -0.6622 -0.3387
  189SLPC  C21221838   4.027   7.247   7.550  0.1149 -0.7197 -0.1891
  189SLPC  H12R21839   4.108   7.254   7.476 -1.3092 -0.1230 -1.7730
  189SLPC  C21321840   4.033   7.321   7.663 -0.0618  0.5169 -0.3649
  189SLPC  H13R21841   4.123   7.385   7.666  1.2386 -1.1856 -0.9097
  189SLPC  C21421842   3.934   7.308   7.775  0.3694  0.2771 -1.1385
  189SLPC  H14R21843   3.976   7.249   7.859  0.3860  1.7385 -0.0834
  189SLPC  H14S21844   3.842   7.252   7.747  0.6951 -2.2472  2.2084
  189SLPC  C21521845   3.887   7.451   7.811  0.3487  0.3454  0.1218
  189SLPC  H15R21846   3.969   7.523   7.831  1.8464 -1.5602  1.1979
  189SLPC  H15S21847   3.847   7.440   7.914  1.6598  0.3573  0.6525
  189SLPC  C21621848   3.771   7.506   7.717 -0.4358 -0.3774 -0.5688
  189SLPC  H16R21849   3.688   7.434   7.700 -1.4573  0.3177  1.2065
  189SLPC  H16S21850   3.825   7.522   7.621 -0.7124  2.4163 -0.3563
  189SLPC  C21721851   3.719   7.649   7.754  0.3468  0.5714  0.3494
  189SLPC  H17R21852   3.788   7.730   7.720 -0.1762  1.2491  0.8869
  189SLPC  H17S21853   3.721   7.648   7.865 -0.2539  1.3704  0.3757
  189SLPC  C21821854   3.573   7.676   7.705 -0.3081 -0.0306 -0.9587
  189SLPC  H18R21855   3.509   7.605   7.763  0.2289  1.0869  1.1183
  189SLPC  H18S21856   3.550   7.654   7.599 -1.4011 -1.2084 -0.5114
  189SLPC  H18T21857   3.544   7.779   7.735 -1.4357 -0.6134  0.0700
  189SLPC   C3321858   3.625   7.436   6.948 -0.1081 -0.5282  0.2193
  189SLPC   H3X21859   3.728   7.426   6.909 -1.2516 -4.1222 -2.3384
  189SLPC   H3Y21860   3.596   7.338   6.991  0.5954 -0.9706 -0.3037
  189SLPC   C3421861   3.623   7.532   7.071 -0.4151  0.3728  0.0758
  189SLPC   H4X21862   3.523   7.535   7.121 -0.3088  1.0990  0.2524
  189SLPC   H4Y21863   3.642   7.631   7.026  0.7881  0.8402  1.5163
  189SLPC   C3521864   3.740   7.520   7.174  0.3800 -0.4858 -0.3322
  189SLPC   H5X21865   3.830   7.544   7.113 -0.4470  0.1402 -1.3309
  189SLPC   H5Y21866   3.740   7.415   7.210 -0.0483  0.2667  2.0282
  189SLPC   C3621867   3.727   7.608   7.300  0.0629 -0.3377  0.3497
  189SLPC   H6X21868   3.798   7.569   7.376  0.0226 -2.0001 -0.4209
  189SLPC   H6Y21869   3.622   7.606   7.335 -0.1552  1.9911 -0.0441
  189SLPC   C3721870   3.752   7.761   7.283 -0.7720 -0.0556  0.6509
  189SLPC   H7X21871   3.685   7.797   7.202  1.0146 -0.8612 -1.2655
  189SLPC   H7Y21872   3.855   7.789   7.254 -0.7836  1.8920  2.2189
  189SLPC   C3821873   3.734   7.830   7.415  0.6906  0.7480 -0.2537
  189SLPC   H8X21874   3.811   7.794   7.486 -1.2682 -1.4677  0.9062
  189SLPC   H8Y21875   3.637   7.808   7.465  0.9074 -0.2347 -0.2466
  189SLPC   C3921876   3.754   7.974   7.401  0.3816 -0.0618 -0.2651
  189SLPC   H9X21877   3.690   8.012   7.318 -0.9368 -0.0308  0.7214
  189SLPC   H9Y21878   3.857   8.010   7.386  0.6925 -1.8979 -3.2538
  189SLPC  C31021879   3.702   8.055   7.524  0.0090 -0.1138  0.4794
  189SLPC  H10X21880   3.612   8.004   7.563 -0.8263  1.4811  0.6972
  189SLPC  H10Y21881   3.679   8.155   7.483  2.7291 -0.7830 -3.2144
  189SLPC  C31121882   3.804   8.057   7.639  0.2201  0.2311  0.0605
  189SLPC  H11X21883   3.895   8.099   7.590  1.0436 -0.3891  1.0264
  189SLPC  H11Y21884   3.821   7.952   7.672  0.9097 -0.0753 -1.1993
  189SLPC  C31221885   3.763   8.133   7.758  0.4439  0.1921 -0.1731
  189SLPC  H12X21886   3.680   8.073   7.802  1.2488 -0.1422  0.9366
  189SLPC  H12Y21887   3.724   8.231   7.723 -0.2305  0.6929  1.8247
  189SLPC  C31321888   3.866   8.147   7.870 -0.2082  0.2463 -0.1980
  189SLPC  H13X21889   3.960   8.196   7.837  1.0329 -0.5040  2.0058
  189SLPC  H13Y21890   3.902   8.044   7.891  2.1979  0.8658 -1.0093
  189SLPC  C31421891   3.814   8.216   7.991  0.5570 -0.0975 -0.9339
  189SLPC  H14X21892   3.728   8.167   8.041  1.8341 -1.3454  0.1029
  189SLPC  H14Y21893   3.774   8.318   7.974 -0.6418 -0.3194  0.3829
  189SLPC  C31521894   3.918   8.237   8.096 -0.7211 -0.0216 -0.0882
  189SLPC  H15X21895   3.984   8.323   8.071 -0.8488 -0.2149 -1.1311
  189SLPC  H15Y21896   3.976   8.143   8.092 -1.8639 -0.7739  0.5377
  189SLPC  C31621897   3.866   8.268   8.238  0.3394 -0.1639  0.7339
  189SLPC  H16X21898   3.795   8.192   8.279  1.0144 -0.4694  1.3613
  189SLPC  H16Y21899   3.792   8.351   8.235 -2.2022 -2.3206 -0.9064
  189SLPC  C31721900   3.972   8.285   8.344  0.2373 -0.0731  0.1839
  189SLPC  H17X21901   4.034   8.194   8.348  0.1025 -0.1726  0.0225
  189SLPC  H17Y21902   3.920   8.280   8.441 -0.8612 -2.1114 -0.4534
  189SLPC  C31821903   4.046   8.416   8.329 -0.7908 -0.1961  0.8741
  189SLPC  H18X21904   4.124   8.427   8.250  0.4878  0.8197  2.2285
  189SLPC  H18Y21905   4.091   8.436   8.428 -1.4440 -1.9630  1.5706
  189SLPC  H18Z21906   3.980   8.497   8.292  0.1923 -0.4804 -1.7310
  190SLPC     N21907   4.249   5.334   6.624 -0.1277 -0.2111 -0.0017
  190SLPC   C1321908   4.192   5.307   6.758  0.3487  0.2054 -0.0688
  190SLPC  H13A21909   4.227   5.379   6.830  0.9979 -0.5694  0.4020
  190SLPC  H13B21910   4.084   5.308   6.760  0.3179 -1.5637  0.8018
  190SLPC  H13C21911   4.222   5.207   6.785  1.4331  0.2392 -1.0604
  190SLPC   C1421912   4.393   5.380   6.642  0.6512 -0.1957 -0.1564
  190SLPC  H14A21913   4.409   5.477   6.687  0.2456 -0.1593 -0.0860
  190SLPC  H14B21914   4.446   5.316   6.711 -1.2073 -0.7686  0.7984
  190SLPC  H14C21915   4.453   5.377   6.552 -0.0219 -2.1396 -0.5979
  190SLPC   C1521916   4.176   5.447   6.571  0.4986 -0.0753 -0.1998
  190SLPC  H15A21917   4.081   5.402   6.547  1.6322 -2.6704 -0.0555
  190SLPC  H15B21918   4.161   5.531   6.637 -3.0219  1.8553 -3.0616
  190SLPC  H15C21919   4.223   5.485   6.481 -0.7126  0.2627 -0.7129
  190SLPC   C1221920   4.244   5.219   6.522  0.1556 -0.0878  0.3936
  190SLPC  H12A21921   4.315   5.142   6.550 -0.3912 -0.3936  0.9541
  190SLPC  H12B21922   4.277   5.256   6.426 -0.5554 -0.8945 -0.1794
  190SLPC   C1121923   4.109   5.144   6.504  0.1268 -0.1341  0.2506
  190SLPC  H11A21924   4.093   5.092   6.601 -1.2054  0.1289  0.1843
  190SLPC  H11B21925   4.117   5.065   6.427  2.5481 -0.6932  0.9836
  190SLPC     P21926   3.909   5.232   6.364  0.0931 -0.2791  0.1168
  190SLPC   O1321927   3.924   5.354   6.285 -0.1574  0.4235  0.0157
  190SLPC   O1421928   3.920   5.099   6.293 -0.1113 -0.4161 -0.8177
  190SLPC   O1221929   4.004   5.240   6.482  0.1328  0.0856  0.3360
  190SLPC   O1121930   3.760   5.237   6.422 -0.6820 -0.1366 -0.1001
  190SLPC    C121931   3.728   5.305   6.542 -0.1639  0.1742 -0.1827
  190SLPC    HA21932   3.780   5.404   6.550 -0.0364 -0.0097  1.4380
  190SLPC    HB21933   3.623   5.337   6.527 -0.0971  1.2687  1.4210
  190SLPC    C221934   3.749   5.218   6.672 -0.1809 -0.0806  0.2506
  190SLPC    HS21935   3.845   5.162   6.662 -0.8473 -1.0341 -1.0175
  190SLPC   O2121936   3.637   5.127   6.675  0.3244 -0.2765 -0.4479
  190SLPC   C2121937   3.669   5.002   6.648  0.4218 -0.2089 -0.0474
  190SLPC   O2221938   3.779   4.966   6.604  0.0039  0.4759  0.3768
  190SLPC   C2221939   3.556   4.916   6.708 -0.2031  0.6058 -0.3037
  190SLPC   H2R21940   3.490   4.868   6.633  1.4894 -0.0301 -1.4407
  190SLPC   H2S21941   3.615   4.834   6.754  0.9472  2.0042  0.8427
  190SLPC    C321942   3.770   5.299   6.802  0.4271 -0.3138 -0.6563
  190SLPC    HX21943   3.671   5.350   6.811 -0.5333 -2.2760  0.8128
  190SLPC    HY21944   3.845   5.381   6.802 -0.3141  0.3847 -0.7516
  190SLPC   O3121945   3.775   5.214   6.917 -0.0007 -0.4309  0.3526
  190SLPC   C3121946   3.893   5.147   6.940  0.2479  0.1154  0.5074
  190SLPC   O3221947   3.986   5.147   6.858 -0.0258 -0.2450  0.3184
  190SLPC   C3221948   3.899   5.099   7.093 -0.1913 -0.7186  0.1658
  190SLPC   H2X21949   3.846   5.002   7.104  0.4035 -0.9871  0.6938
  190SLPC   H2Y21950   3.851   5.175   7.158  3.0330 -0.5593  2.6126
  190SLPC   C2321951   3.462   4.970   6.817  0.0707 -0.3275 -0.5278
  190SLPC   H3R21952   3.368   4.912   6.819  0.0433 -0.3104  2.5232
  190SLPC   H3S21953   3.429   5.074   6.794  0.9926 -0.2402 -1.5901
  190SLPC   C2421954   3.527   4.966   6.958  0.6919 -0.2092 -0.0755
  190SLPC   H4R21955   3.606   5.043   6.969  0.3946  0.1681 -0.5543
  190SLPC   H4S21956   3.559   4.863   6.987 -0.1267 -0.0812  1.4519
  190SLPC   C2521957   3.426   5.009   7.065  0.4213  0.2298  0.3917
  190SLPC   H5R21958   3.338   4.943   7.072  0.5184 -0.1256 -1.3412
  190SLPC   H5S21959   3.377   5.104   7.035 -0.1073  0.1940  1.1402
  190SLPC   C2621960   3.479   5.042   7.206 -0.1252  0.3590  0.3071
  190SLPC   H6R21961   3.573   5.100   7.196 -0.4684  0.6867 -1.3482
  190SLPC   H6S21962   3.501   4.941   7.246  2.5424  0.2262 -1.2729
  190SLPC   C2721963   3.382   5.110   7.306 -0.5481  0.6327 -0.2672
  190SLPC   H7R21964   3.280   5.068   7.290 -0.2394 -1.7564  2.9100
  190SLPC   H7S21965   3.385   5.217   7.277 -2.0444  1.2098  1.5377
  190SLPC   C2821966   3.421   5.087   7.454 -0.6524 -0.7934  0.3528
  190SLPC   H8R21967   3.532   5.100   7.458 -1.0448  3.4040  1.2279
  190SLPC   H8S21968   3.405   4.978   7.472 -1.1732 -0.8533 -0.4349
  190SLPC   C2921969   3.356   5.181   7.546 -0.2282 -0.7694  0.0289
  190SLPC   H9R21970   3.255   5.152   7.579  0.6064 -3.3533  0.4923
  190SLPC  C21021971   3.415   5.293   7.598 -0.6302  0.2021 -0.3197
  190SLPC  H10R21972   3.361   5.367   7.659 -0.5958 -0.9357  1.1275
  190SLPC  C21121973   3.562   5.334   7.576 -0.9191  0.2479 -0.0825
  190SLPC  H11R21974   3.577   5.345   7.466 -1.1718  1.0860 -0.0397
  190SLPC  H11S21975   3.642   5.259   7.592  0.2408  1.7869  1.8781
  190SLPC  C21221976   3.611   5.456   7.660  0.3949 -0.0642  0.7849
  190SLPC  H12R21977   3.654   5.427   7.758 -2.2194 -1.5027  1.6075
  190SLPC  C21321978   3.593   5.584   7.627  0.1003 -0.0552 -0.1600
  190SLPC  H13R21979   3.629   5.670   7.687 -3.1570  1.8362 -0.7122
  190SLPC  C21421980   3.539   5.640   7.504  0.3536 -0.5489  0.2187
  190SLPC  H14R21981   3.484   5.736   7.517  0.7294 -0.1300 -1.1211
  190SLPC  H14S21982   3.453   5.584   7.462 -1.4445  2.0937  0.1731
  190SLPC  C21521983   3.639   5.657   7.382 -0.5778 -0.2009 -0.0722
  190SLPC  H15R21984   3.695   5.562   7.380 -2.5279 -1.3952 -0.1167
  190SLPC  H15S21985   3.705   5.746   7.396 -0.2733  0.0185 -2.4341
  190SLPC  C21621986   3.555   5.663   7.258 -0.6612  0.4686 -0.2114
  190SLPC  H16R21987   3.501   5.756   7.231 -2.0971 -0.2279  0.1714
  190SLPC  H16S21988   3.478   5.583   7.265  1.4957 -1.6295  1.5233
  190SLPC  C21721989   3.637   5.610   7.133 -0.0107  0.6845  0.1040
  190SLPC  H17R21990   3.663   5.503   7.150 -1.0406  0.5758  1.1356
  190SLPC  H17S21991   3.732   5.668   7.127  0.8397 -0.5798  0.9350
  190SLPC  C21821992   3.560   5.614   7.002  0.2452  0.0074 -0.0154
  190SLPC  H18R21993   3.533   5.714   6.962  0.5198 -0.1419 -0.5859
  190SLPC  H18S21994   3.467   5.553   6.995 -0.5251  1.3024 -1.7167
  190SLPC  H18T21995   3.624   5.557   6.932  1.4158 -2.2149  2.6430
  190SLPC   C3321996   4.041   5.094   7.140 -0.6555 -0.2380  0.3606
  190SLPC   H3X21997   4.092   5.191   7.124 -0.9290 -0.0970  0.3361
  190SLPC   H3Y21998   4.104   5.032   7.072 -0.5238  0.3488 -0.0550
  190SLPC   C3421999   4.050   5.059   7.290  0.0152 -0.2231 -0.6186
  190SLPC   H4X22000   4.159   5.048   7.307 -0.0673 -0.3410 -0.1481
  190SLPC   H4Y22001   4.004   4.962   7.318 -1.2273  0.8510  1.2779
  190SLPC   C3522002   4.004   5.167   7.389 -0.2397 -0.7477 -0.0469
  190SLPC   H5X22003   3.895   5.185   7.377  0.2639  2.1823 -1.2192
  190SLPC   H5Y22004   4.058   5.264   7.386 -0.8309 -0.4220 -0.7212
  190SLPC   C3622005   4.013   5.111   7.540  0.0465 -0.6253  0.2178
  190SLPC   H6X22006   4.120   5.089   7.555  0.2466  0.2321  0.0789
  190SLPC   H6Y22007   3.954   5.020   7.562 -2.5894  1.2888  1.6694
  190SLPC   C3722008   3.968   5.224   7.636 -0.9310  0.1475 -0.7813
  190SLPC   H7X22009   3.864   5.259   7.618 -0.0943  2.0645 -2.3377
  190SLPC   H7Y22010   4.026   5.314   7.605  0.5626 -0.8515 -0.9702
  190SLPC   C3822011   3.985   5.176   7.784  0.3227 -0.3133  0.3189
  190SLPC   H8X22012   4.087   5.133   7.794  0.3671  0.0415  1.4911
  190SLPC   H8Y22013   3.901   5.105   7.803 -0.1298 -0.3856 -1.7007
  190SLPC   C3922014   3.952   5.292   7.877  0.8289 -0.2155 -0.7880
  190SLPC   H9X22015   3.852   5.335   7.854 -0.5131 -2.0183  1.2711
  190SLPC   H9Y22016   4.024   5.374   7.861  0.6208 -0.0858 -1.0776
  190SLPC  C31022017   3.939   5.250   8.025  0.0275  0.3136 -0.0865
  190SLPC  H10X22018   4.032   5.199   8.058  0.0036 -1.0100 -1.9102
  190SLPC  H10Y22019   3.853   5.181   8.037  1.7383 -1.9062  0.1585
  190SLPC  C31122020   3.913   5.361   8.127 -0.4946 -0.0531 -0.6102
  190SLPC  H11X22021   3.819   5.407   8.090 -1.3577 -2.1788 -1.2105
  190SLPC  H11Y22022   3.997   5.433   8.117 -0.7038  0.5374  1.4407
  190SLPC  C31222023   3.902   5.300   8.270  0.3779 -0.8014  0.2459
  190SLPC  H12X22024   3.998   5.252   8.301  1.3093  0.6293 -0.3155
  190SLPC  H12Y22025   3.830   5.217   8.261 -0.0848 -0.4467  0.6279
  190SLPC  C31322026   3.827   5.394   8.364 -0.7409  0.5249  0.2452
  190SLPC  H13X22027   3.726   5.417   8.325 -0.5773  2.1250  0.6864
  190SLPC  H13Y22028   3.899   5.479   8.376  0.6202 -0.6031  0.3381
  190SLPC  C31422029   3.808   5.334   8.507  0.3224 -0.0212  0.0676
  190SLPC  H14X22030   3.888   5.260   8.528  0.3082  0.1857  0.8671
  190SLPC  H14Y22031   3.718   5.270   8.514  0.6263 -0.6958 -1.7239
  190SLPC  C31522032   3.795   5.444   8.618  0.1539  0.8630 -0.8771
  190SLPC  H15X22033   3.703   5.499   8.588 -0.7144  0.4715  0.9353
  190SLPC  H15Y22034   3.887   5.505   8.606  1.1189 -0.5828 -0.9799
  190SLPC  C31622035   3.780   5.393   8.757 -0.0868  0.5637  0.1897
  190SLPC  H16X22036   3.772   5.483   8.822 -0.1272 -0.3379  1.4570
  190SLPC  H16Y22037   3.880   5.353   8.784  0.2405  0.9999 -0.3526
  190SLPC  C31722038   3.661   5.309   8.794  0.6567  0.4552 -0.4513
  190SLPC  H17X22039   3.668   5.210   8.746 -0.0709 -0.2872  0.8974
  190SLPC  H17Y22040   3.567   5.363   8.769  2.4625  3.5130 -1.1891
  190SLPC  C31822041   3.663   5.273   8.946 -0.8584  0.3264 -0.5192
  190SLPC  H18X22042   3.680   5.361   9.011 -0.4374  0.5167 -0.8752
  190SLPC  H18Y22043   3.740   5.195   8.966 -1.9966 -0.8549 -0.6417
  190SLPC  H18Z22044   3.565   5.227   8.971 -0.9177  0.8564  0.2377
  191SLPC     N22045   3.527   2.290   5.668  0.1273  0.1110 -0.0916
  191SLPC   C1322046   3.411   2.351   5.591 -0.6261  0.6356 -0.5801
  191SLPC  H13A22047   3.388   2.448   5.631 -1.2041 -0.0232  0.7534
  191SLPC  H13B22048   3.429   2.351   5.485 -1.1603 -1.3274 -0.7181
  191SLPC  H13C22049   3.320   2.301   5.619  0.0374 -0.5079 -0.3910
  191SLPC   C1422050   3.651   2.352   5.607  0.9696  0.1509 -0.1781
  191SLPC  H14A22051   3.650   2.459   5.620  0.5095  0.1390 -0.0896
  191SLPC  H14B22052   3.739   2.316   5.659  0.2511 -0.7328  0.4776
  191SLPC  H14C22053   3.655   2.341   5.499  0.8597 -0.8941 -0.0898
  191SLPC   C1522054   3.526   2.144   5.640  0.2316  0.4678 -0.0015
  191SLPC  H15A22055   3.624   2.101   5.656  1.2396  2.4351 -0.5652
  191SLPC  H15B22056   3.447   2.100   5.699 -1.4022  2.1960 -0.8007
  191SLPC  H15C22057   3.507   2.119   5.537 -1.4022 -0.1696  0.4339
  191SLPC   C1222058   3.516   2.323   5.816 -0.3040  0.7433 -0.0587
  191SLPC  H12A22059   3.529   2.427   5.840 -3.0468  0.7699  1.8905
  191SLPC  H12B22060   3.591   2.266   5.869  0.0156  2.3775  1.3429
  191SLPC   C1122061   3.374   2.290   5.881 -0.1444 -0.8842  0.0486
  191SLPC  H11A22062   3.299   2.360   5.837  0.9443  2.9017  3.5082
  191SLPC  H11B22063   3.372   2.318   5.989  0.8258 -1.5814  0.2530
  191SLPC     P22064   3.201   2.091   5.880  0.4873  0.1739  0.0909
  191SLPC   O1322065   3.108   2.165   5.785 -0.5181  0.2482 -0.0647
  191SLPC   O1422066   3.209   1.940   5.869  0.0023 -0.4877 -0.2912
  191SLPC   O1222067   3.348   2.153   5.861 -0.7326 -0.7321  0.0424
  191SLPC   O1122068   3.158   2.136   6.026  0.2419  0.2969  0.2447
  191SLPC    C122069   3.239   2.103   6.144  0.2900  0.2755  0.3373
  191SLPC    HA22070   3.340   2.070   6.112  0.3980  2.3611 -1.7750
  191SLPC    HB22071   3.263   2.202   6.188  1.8891  0.6931 -1.3274
  191SLPC    C222072   3.179   1.999   6.250  1.0329 -0.0113 -0.9652
  191SLPC    HS22073   3.165   1.903   6.197  1.3687 -0.4046 -0.3467
  191SLPC   O2122074   3.054   2.057   6.297  0.4651 -0.5114 -0.0520
  191SLPC   C2122075   2.942   1.994   6.270 -0.2660  0.3366  0.2879
  191SLPC   O2222076   2.940   1.888   6.212  0.1297  0.1107 -0.2188
  191SLPC   C2222077   2.825   2.052   6.343 -0.1242  0.1438 -0.8115
  191SLPC   H2R22078   2.800   2.143   6.283 -1.1989  0.0840 -0.4683
  191SLPC   H2S22079   2.738   1.984   6.329 -1.8405  2.1038 -0.1368
  191SLPC    C322080   3.277   1.979   6.369 -0.3481  0.2583  0.6184
  191SLPC    HX22081   3.323   2.078   6.391  1.4469 -0.5205  0.4774
  191SLPC    HY22082   3.363   1.922   6.329 -0.4054  1.4057 -1.2559
  191SLPC   O3122083   3.227   1.903   6.485 -0.3655 -0.5404 -0.1178
  191SLPC   C3122084   3.199   1.981   6.596  0.2481  0.1975  0.2007
  191SLPC   O3222085   3.243   2.095   6.604  0.1647 -0.1731  0.4634
  191SLPC   C3222086   3.127   1.886   6.701  0.4784 -0.1833 -0.0516
  191SLPC   H2X22087   3.182   1.790   6.698  1.6865  0.4671  0.4963
  191SLPC   H2Y22088   3.027   1.864   6.658  0.6388  2.4442 -2.0610
  191SLPC   C2322089   2.856   2.080   6.494 -0.0235 -0.2645 -0.4986
  191SLPC   H3R22090   2.948   2.142   6.492 -1.6015  2.3083  1.2777
  191SLPC   H3S22091   2.880   1.986   6.547 -0.1601 -1.2765 -2.1497
  191SLPC   C2422092   2.743   2.165   6.551 -0.5164  0.4222 -0.3032
  191SLPC   H4R22093   2.645   2.146   6.501 -0.5063 -1.3035  0.2965
  191SLPC   H4S22094   2.768   2.272   6.533  2.1115 -0.2430 -0.9955
  191SLPC   C2522095   2.726   2.135   6.703  0.0264  0.5501 -0.0828
  191SLPC   H5R22096   2.826   2.115   6.748 -0.9324 -0.4663  1.7429
  191SLPC   H5S22097   2.673   2.038   6.692 -2.0994  1.7671 -1.0783
  191SLPC   C2622098   2.642   2.239   6.775 -0.1984  0.4261 -0.1666
  191SLPC   H6R22099   2.545   2.236   6.720  1.0151 -0.6438 -2.4163
  191SLPC   H6S22100   2.672   2.345   6.763 -2.1932  0.8157 -2.5083
  191SLPC   C2722101   2.616   2.198   6.919  0.4565 -0.8616 -0.1510
  191SLPC   H7R22102   2.619   2.087   6.923  0.0830 -0.8673  0.0226
  191SLPC   H7S22103   2.520   2.237   6.960  0.8618  1.0803 -0.9252
  191SLPC   C2822104   2.732   2.234   7.014  0.3706  0.3140 -1.0630
  191SLPC   H8R22105   2.745   2.343   6.999 -1.8592  0.7581 -0.0509
  191SLPC   H8S22106   2.828   2.188   6.981  0.2647  0.7638 -2.0446
  191SLPC   C2922107   2.715   2.193   7.159 -0.5638  0.1278  0.7385
  191SLPC   H9R22108   2.677   2.090   7.168  0.1406 -0.1328  0.7764
  191SLPC  C21022109   2.742   2.265   7.268  1.1438 -0.4580  0.5974
  191SLPC  H10R22110   2.705   2.219   7.361 -3.7842  1.0874 -0.2726
  191SLPC  C21122111   2.795   2.407   7.290 -0.1586  0.1301  0.2833
  191SLPC  H11R22112   2.832   2.457   7.198 -0.0775  1.7465  1.1520
  191SLPC  H11S22113   2.888   2.398   7.351  2.1505  0.7994 -2.8666
  191SLPC  C21222114   2.694   2.498   7.351  0.0577 -0.1570 -0.0759
  191SLPC  H12R22115   2.616   2.536   7.283 -1.0592 -1.3135  0.5209
  191SLPC  C21322116   2.683   2.536   7.479 -0.0161 -1.0613  0.0691
  191SLPC  H13R22117   2.604   2.607   7.507  0.4302 -0.4946 -0.1033
  191SLPC  C21422118   2.778   2.475   7.580  0.4001 -0.2297 -0.5056
  191SLPC  H14R22119   2.880   2.445   7.546  0.7438 -0.2705  0.5114
  191SLPC  H14S22120   2.735   2.380   7.620 -0.0296  0.0011 -0.4162
  191SLPC  C21522121   2.782   2.561   7.714 -0.2481 -0.8422 -0.3146
  191SLPC  H15R22122   2.835   2.498   7.788 -1.0332 -0.4244  0.6230
  191SLPC  H15S22123   2.681   2.589   7.751 -0.3231 -0.7901 -0.5554
  191SLPC  C21622124   2.867   2.686   7.696  0.8629  0.1051  0.0343
  191SLPC  H16R22125   2.809   2.754   7.630  0.4830  0.8603  1.1295
  191SLPC  H16S22126   2.962   2.662   7.642  0.4857 -0.8043 -0.2430
  191SLPC  C21722127   2.903   2.748   7.825 -0.4949 -0.2346 -0.5035
  191SLPC  H17R22128   2.962   2.837   7.796 -2.4669  0.7742 -1.6234
  191SLPC  H17S22129   2.973   2.675   7.872  0.2820 -0.1357 -1.4585
  191SLPC  C21822130   2.790   2.800   7.917 -0.4742 -0.0791  0.5420
  191SLPC  H18R22131   2.831   2.854   8.005 -1.4324  4.9332 -1.7800
  191SLPC  H18S22132   2.718   2.719   7.942 -0.2558 -1.1423 -2.0237
  191SLPC  H18T22133   2.730   2.867   7.853  1.3118  0.0641 -1.0754
  191SLPC   C3322134   3.130   1.946   6.838  0.4135 -0.2579  0.3061
  191SLPC   H3X22135   3.090   2.049   6.843 -0.0627 -0.4752  1.0537
  191SLPC   H3Y22136   3.237   1.959   6.865  1.2074  1.8160 -3.1995
  191SLPC   C3422137   3.050   1.871   6.945 -0.0221  0.3406  0.1958
  191SLPC   H4X22138   3.086   1.766   6.939 -1.0244  0.0217 -0.5121
  191SLPC   H4Y22139   2.941   1.872   6.922  0.1646 -2.1598 -1.1326
  191SLPC   C3522140   3.063   1.942   7.084 -0.2237  0.0707  0.0121
  191SLPC   H5X22141   3.051   2.051   7.070  1.7952  0.1739 -1.3307
  191SLPC   H5Y22142   3.169   1.921   7.111 -0.4653 -0.1346  0.8323
  191SLPC   C3622143   2.959   1.894   7.185 -0.3780 -0.2034 -0.7543
  191SLPC   H6X22144   2.963   1.783   7.187  0.0000 -0.2342 -2.3094
  191SLPC   H6Y22145   2.864   1.916   7.133 -1.8119 -2.6910  0.5893
  191SLPC   C3722146   2.968   1.973   7.315 -0.0797  0.4512  0.3344
  191SLPC   H7X22147   2.972   2.081   7.291 -0.5532  0.5677  0.7614
  191SLPC   H7Y22148   3.063   1.951   7.368 -0.5725 -0.6331  0.7971
  191SLPC   C3822149   2.860   1.941   7.420 -0.4120 -0.9019  0.0912
  191SLPC   H8X22150   2.868   1.834   7.448  0.9373 -0.4774  1.4331
  191SLPC   H8Y22151   2.759   1.964   7.380 -0.1928 -0.5171 -0.2493
  191SLPC   C3922152   2.874   2.014   7.554 -0.5218  0.0888 -0.2444
  191SLPC   H9X22153   2.783   1.992   7.613 -0.5547 -0.1504 -0.3802
  191SLPC   H9Y22154   2.873   2.120   7.520  1.2791  0.3822  0.5195
  191SLPC  C31022155   3.006   1.978   7.628  1.0160  0.1177  0.3829
  191SLPC  H10X22156   3.092   2.025   7.576  0.9976  0.2955  0.5135
  191SLPC  H10Y22157   3.019   1.869   7.615 -1.4824 -0.3059  0.8106
  191SLPC  C31122158   3.013   2.016   7.779  0.6078 -0.1035 -0.7883
  191SLPC  H11X22159   3.113   1.988   7.818  0.7977  2.6450  0.9885
  191SLPC  H11Y22160   2.933   1.957   7.830 -0.1182 -0.4126 -2.2396
  191SLPC  C31222161   3.004   2.169   7.791  0.4200 -0.7257  0.2204
  191SLPC  H12X22162   2.906   2.213   7.763 -0.3492 -1.7368  1.1960
  191SLPC  H12Y22163   3.075   2.213   7.718 -1.6766 -0.3160 -1.6850
  191SLPC  C31322164   3.048   2.223   7.930 -0.5334  0.3259 -0.5220
  191SLPC  H13X22165   3.139   2.166   7.959  0.9866  2.2505 -1.2607
  191SLPC  H13Y22166   2.965   2.197   7.999  1.4874  0.3559  2.1081
  191SLPC  C31422167   3.067   2.370   7.927  0.6016  0.3236  0.1975
  191SLPC  H14X22168   2.990   2.428   7.872 -0.2518 -0.6535  0.3222
  191SLPC  H14Y22169   3.161   2.382   7.870  0.0198 -0.1665 -0.8933
  191SLPC  C31522170   3.092   2.422   8.062 -0.2473 -0.6864  0.9107
  191SLPC  H15X22171   3.171   2.499   8.054  0.7443 -1.8027 -0.6746
  191SLPC  H15Y22172   3.136   2.349   8.134  0.8386 -0.9747 -0.0140
  191SLPC  C31622173   2.975   2.465   8.137  0.1443  0.3567  0.3841
  191SLPC  H16X22174   2.901   2.382   8.135  1.4434 -0.8370 -1.8684
  191SLPC  H16Y22175   2.932   2.557   8.092 -1.0657 -0.5100 -0.2946
  191SLPC  C31722176   3.000   2.528   8.279 -0.1351 -0.0553  0.1242
  191SLPC  H17X22177   2.913   2.594   8.302 -0.7770 -0.4870 -0.9556
  191SLPC  H17Y22178   3.096   2.582   8.269  1.4200 -2.5447  0.7191
  191SLPC  C31822179   3.010   2.424   8.397 -0.4915 -0.2549  0.6164
  191SLPC  H18X22180   3.046   2.479   8.487 -2.5310  0.1167  1.2474
  191SLPC  H18Y22181   3.076   2.345   8.357 -1.9712 -1.3665  0.3042
  191SLPC  H18Z22182   2.909   2.381   8.413 -0.6029 -1.1188 -1.9391
  192SLPC     N22183   4.723   1.510   6.412  0.3977  0.2351  0.3107
  192SLPC   C1322184   4.702   1.368   6.357  0.4713  0.1275 -0.0171
  192SLPC  H13A22185   4.797   1.317   6.349  0.8967  1.0251 -0.9296
  192SLPC  H13B22186   4.648   1.306   6.426  0.3215  0.8658  0.5470
  192SLPC  H13C22187   4.643   1.365   6.267  0.4769 -0.4327 -0.0062
  192SLPC   C1422188   4.598   1.584   6.393  1.0515 -0.1527 -0.3185
  192SLPC  H14A22189   4.527   1.546   6.465  0.5981 -0.8197 -1.0943
  192SLPC  H14B22190   4.606   1.690   6.408  0.3176 -0.1790  0.3386
  192SLPC  H14C22191   4.557   1.566   6.294  1.0525  0.4842 -0.4407
  192SLPC   C1522192   4.827   1.565   6.329 -0.4421  0.5448  0.3866
  192SLPC  H15A22193   4.909   1.495   6.321 -2.0766 -1.7441  2.1639
  192SLPC  H15B22194   4.800   1.580   6.226  1.6030 -1.2493 -0.4866
  192SLPC  H15C22195   4.864   1.657   6.373  1.4391  0.5661 -1.1204
  192SLPC   C1222196   4.763   1.492   6.555 -0.0118 -0.4159  0.5871
  192SLPC  H12A22197   4.848   1.426   6.554 -1.2254 -2.0400  0.1220
  192SLPC  H12B22198   4.685   1.436   6.604  0.0387 -0.6853  0.3639
  192SLPC   C1122199   4.799   1.613   6.650 -0.2853  0.0320  1.3934
  192SLPC  H11A22200   4.840   1.575   6.746  0.4070 -1.2757  0.6098
  192SLPC  H11B22201   4.710   1.676   6.671 -0.1244  1.6251 -2.0229
  192SLPC     P22202   5.049   1.682   6.610 -0.0283  0.1112  0.1947
  192SLPC   O1322203   5.098   1.543   6.580  0.1628  0.0233  0.1981
  192SLPC   O1422204   5.113   1.787   6.527 -0.5838  0.1382  0.3384
  192SLPC   O1222205   4.891   1.710   6.589 -0.9431  0.2731  0.7000
  192SLPC   O1122206   5.068   1.723   6.763  0.1448  0.3241  0.0667
  192SLPC    C122207   5.037   1.861   6.806  0.1872 -0.6480  0.8025
  192SLPC    HA22208   4.952   1.901   6.747  0.4281 -2.2275 -0.7136
  192SLPC    HB22209   5.010   1.857   6.913  1.4914  0.6136  1.2159
  192SLPC    C222210   5.163   1.948   6.789 -0.6673  0.2686  0.1546
  192SLPC    HS22211   5.188   1.956   6.681 -1.4581  2.4838  0.0896
  192SLPC   O2122212   5.266   1.884   6.854 -0.3863  0.3821 -0.1439
  192SLPC   C2122213   5.389   1.931   6.846  0.4499 -0.0718 -0.2909
  192SLPC   O2222214   5.429   2.025   6.777  0.0519 -0.4679  0.2094
  192SLPC   C2222215   5.481   1.839   6.923 -0.0073 -0.1587 -0.7097
  192SLPC   H2R22216   5.463   1.734   6.894  1.5963 -0.4004 -0.9302
  192SLPC   H2S22217   5.586   1.865   6.896  0.7854 -0.9454  1.3878
  192SLPC    C322218   5.135   2.093   6.840 -0.3546 -0.0043 -0.4175
  192SLPC    HX22219   5.086   2.144   6.755 -0.1122  1.8491  0.4944
  192SLPC    HY22220   5.226   2.157   6.847 -0.2820 -0.2881  2.5565
  192SLPC   O3122221   5.067   2.109   6.964 -0.3113 -0.0160 -0.0364
  192SLPC   C3122222   5.148   2.102   7.070 -0.3324 -0.0064 -0.1516
  192SLPC   O3222223   5.272   2.074   7.057  0.5802 -0.2359  0.1656
  192SLPC   C3222224   5.076   2.126   7.202 -0.3515 -0.2769 -0.4029
  192SLPC   H2X22225   5.049   2.027   7.246 -1.4680  0.1627 -0.0583
  192SLPC   H2Y22226   4.977   2.168   7.173 -0.5805 -0.9279 -0.5764
  192SLPC   C2322227   5.467   1.843   7.075  0.1730  0.3808 -0.4442
  192SLPC   H3R22228   5.363   1.841   7.114 -0.5391 -0.2668 -2.2699
  192SLPC   H3S22229   5.511   1.940   7.106 -0.1185  0.2856  0.2845
  192SLPC   C2422230   5.550   1.738   7.150  0.0834 -0.2846 -0.4862
  192SLPC   H4R22231   5.657   1.739   7.122 -0.0154 -0.1051 -0.8668
  192SLPC   H4S22232   5.507   1.638   7.125 -1.6502  0.2671  0.1011
  192SLPC   C2522233   5.547   1.763   7.306 -0.1310 -0.0273 -0.0845
  192SLPC   H5R22234   5.440   1.758   7.336 -0.9690  0.7757 -2.6663
  192SLPC   H5S22235   5.601   1.854   7.338  0.5690  0.5325 -2.6065
  192SLPC   C2622236   5.606   1.642   7.380  0.0909 -0.2898  0.8706
  192SLPC   H6R22237   5.717   1.642   7.370  0.1479 -0.3145  1.4324
  192SLPC   H6S22238   5.563   1.542   7.361 -0.7386  0.2607 -0.2522
  192SLPC   C2722239   5.589   1.666   7.531  0.3178 -0.2691  0.2950
  192SLPC   H7R22240   5.485   1.700   7.548 -0.2712 -1.9200  0.1481
  192SLPC   H7S22241   5.666   1.739   7.566 -0.7276  0.2690  1.5355
  192SLPC   C2822242   5.609   1.541   7.626 -0.2411  0.3116  0.5189
  192SLPC   H8R22243   5.711   1.499   7.612 -0.7085 -0.7592  0.1396
  192SLPC   H8S22244   5.544   1.456   7.595  1.1737 -0.0307 -1.7843
  192SLPC   C2922245   5.580   1.579   7.771 -0.0940 -0.0211 -0.5398
  192SLPC   H9R22246   5.487   1.637   7.777  0.6111  1.0680  0.2232
  192SLPC  C21022247   5.666   1.574   7.877  0.2392  0.2143  0.4252
  192SLPC  H10R22248   5.632   1.602   7.977  1.0123  1.0102  0.4780
  192SLPC  C21122249   5.799   1.505   7.862 -1.0304  0.0882 -0.3698
  192SLPC  H11R22250   5.872   1.580   7.823  0.4026  0.2802  2.4435
  192SLPC  H11S22251   5.801   1.415   7.797 -0.6387 -1.3060  1.5053
  192SLPC  C21222252   5.854   1.471   8.002  0.7075  0.3426  0.2735
  192SLPC  H12R22253   5.877   1.558   8.066  1.6058 -0.8251  1.5875
  192SLPC  C21322254   5.917   1.356   8.036 -0.6284 -0.2044  0.1151
  192SLPC  H13R22255   5.962   1.337   8.135 -3.0536  0.6402  1.4964
  192SLPC  C21422256   5.924   1.246   7.942  0.1086 -0.1304 -0.2464
  192SLPC  H14R22257   6.013   1.253   7.876  0.2906 -2.0735 -0.2863
  192SLPC  H14S22258   5.843   1.223   7.871  0.4893 -0.2829 -0.6365
  192SLPC  C21522259   5.934   1.108   8.016  0.2457 -0.2351 -0.3343
  192SLPC  H15R22260   6.017   1.115   8.090 -1.5420  2.6662  1.5707
  192SLPC  H15S22261   5.961   1.035   7.937 -1.3979 -1.0735 -0.1565
  192SLPC  C21622262   5.806   1.065   8.086  0.2762 -0.0904  0.1655
  192SLPC  H16R22263   5.723   1.053   8.014  1.9233  0.2057 -1.8779
  192SLPC  H16S22264   5.777   1.135   8.167 -1.1806 -1.0344  0.5018
  192SLPC  C21722265   5.818   0.927   8.159  0.2700  0.4772 -0.2719
  192SLPC  H17R22266   5.713   0.900   8.180  0.0301  1.0648 -0.6805
  192SLPC  H17S22267   5.861   0.844   8.099  1.8272 -0.4724  2.0148
  192SLPC  C21822268   5.902   0.931   8.286 -0.4090 -0.3617 -0.3200
  192SLPC  H18R22269   5.898   0.836   8.344  0.4258 -0.9747 -1.2261
  192SLPC  H18S22270   5.864   1.016   8.347 -0.2985  0.8870 -1.8947
  192SLPC  H18T22271   6.010   0.944   8.264 -0.4334 -0.8622 -0.7662
  192SLPC   C3322272   5.142   2.224   7.296 -0.1327 -0.4910  0.3270
  192SLPC   H3X22273   5.143   2.322   7.243 -1.2663  0.0388  1.2533
  192SLPC   H3Y22274   5.241   2.189   7.335 -0.9096 -0.2492  2.6543
  192SLPC   C3422275   5.054   2.247   7.414  0.0111  0.1367 -0.5857
  192SLPC   H4X22276   5.049   2.160   7.482 -0.4198  1.0447  0.5807
  192SLPC   H4Y22277   4.952   2.246   7.369  0.7324 -3.3696 -2.4643
  192SLPC   C3522278   5.080   2.386   7.480  0.6562  0.3175 -0.6977
  192SLPC   H5X22279   5.083   2.472   7.409  0.0439  1.5234  0.6880
  192SLPC   H5Y22280   5.179   2.380   7.531 -0.3204 -1.0591  1.1523
  192SLPC   C3622281   4.989   2.426   7.598 -0.1998 -0.0549  0.0349
  192SLPC   H6X22282   4.881   2.429   7.575 -0.3511 -1.8746  0.2897
  192SLPC   H6Y22283   5.017   2.519   7.651  0.3618  0.6169 -1.3986
  192SLPC   C3722284   4.999   2.308   7.698 -0.3591  0.4704 -0.1232
  192SLPC   H7X22285   5.104   2.272   7.701 -0.0506  1.3920  0.4338
  192SLPC   H7Y22286   4.939   2.219   7.669 -1.5355  0.4680  2.1046
  192SLPC   C3822287   4.966   2.350   7.839  0.4221  0.3915 -0.1131
  192SLPC   H8X22288   4.860   2.380   7.848  0.5807  1.4458 -1.5011
  192SLPC   H8Y22289   5.025   2.441   7.865 -1.2686  1.2968  0.7644
  192SLPC   C3922290   4.998   2.234   7.930 -0.1095 -0.3547 -0.0980
  192SLPC   H9X22291   5.100   2.206   7.896 -1.2090 -2.7377 -1.7197
  192SLPC   H9Y22292   4.933   2.146   7.908 -0.7618  0.2204 -0.5139
  192SLPC  C31022293   4.991   2.257   8.080 -0.1078 -0.3809  0.1609
  192SLPC  H10X22294   4.893   2.308   8.092 -0.1608 -0.2407 -0.7953
  192SLPC  H10Y22295   5.073   2.325   8.114  0.6838 -1.6205  0.7946
  192SLPC  C31122296   4.991   2.133   8.166 -0.2849 -0.1437  0.3292
  192SLPC  H11X22297   5.068   2.061   8.131  0.3242  0.7193 -0.1304
  192SLPC  H11Y22298   4.895   2.082   8.142  0.6842 -1.4465 -1.0264
  192SLPC  C31222299   5.006   2.146   8.321  0.6558  1.2593 -0.0661
  192SLPC  H12X22300   5.116   2.159   8.333  2.1530 -4.8237 -3.1584
  192SLPC  H12Y22301   4.969   2.051   8.365 -1.2892 -0.0248 -4.0814
  192SLPC  C31322302   4.926   2.253   8.383  0.1819  0.3313  0.5279
  192SLPC  H13X22303   4.820   2.220   8.374  0.6045 -0.6066 -1.8230
  192SLPC  H13Y22304   4.948   2.349   8.332  2.5026 -0.7580 -0.6943
  192SLPC  C31422305   4.958   2.275   8.533 -0.3687 -0.0998  0.7346
  192SLPC  H14X22306   4.874   2.335   8.573 -0.0416  1.3446 -0.6351
  192SLPC  H14Y22307   5.051   2.334   8.548  1.1966 -2.4288  0.7080
  192SLPC  C31522308   4.973   2.148   8.616  0.4414  0.4107 -0.6216
  192SLPC  H15X22309   5.062   2.097   8.574 -0.6566 -0.1903 -2.3326
  192SLPC  H15Y22310   4.890   2.075   8.604 -0.4512  1.2466  0.2431
  192SLPC  C31622311   4.978   2.172   8.767 -0.1652 -0.1036  0.0763
  192SLPC  H16X22312   4.902   2.238   8.811 -0.4122 -0.6006  0.4026
  192SLPC  H16Y22313   5.077   2.213   8.798 -0.9252  1.5376  0.4326
  192SLPC  C31722314   4.986   2.033   8.837 -0.2246  0.2793  0.5051
  192SLPC  H17X22315   5.075   1.988   8.789  0.9312  1.3921  1.5448
  192SLPC  H17Y22316   4.891   1.983   8.809  0.2607 -1.4707  1.7486
  192SLPC  C31822317   4.981   2.041   8.988  0.4161  0.4229  0.2197
  192SLPC  H18X22318   4.990   1.941   9.035 -0.0092 -0.0625 -0.7209
  192SLPC  H18Y22319   4.885   2.086   9.019  0.3459  1.7540 -1.7557
  192SLPC  H18Z22320   5.057   2.109   9.033  1.7589 -0.6210 -0.3804
  193SOD    SOD22321   2.598   0.328   2.699  0.1245  0.5042 -0.0587
  194SOD    SOD22322   6.543   4.649  16.433 -0.1958  0.5549 -0.0335
  195SOD    SOD22323   4.090   6.227  17.239  0.2670 -0.1485  0.3611
  196SOD    SOD22324   2.991   5.079   1.971  0.4523 -0.2843 -0.4397
  197SOD    SOD22325   0.050   2.312  15.873  0.2338 -0.5556  0.0095
  198SOD    SOD22326   3.120   5.700   4.020  0.4341  0.3495 -0.4883
  199SOD    SOD22327   3.480   4.303  15.095 -0.4385 -0.0587 -0.0320
  200SOD    SOD22328   4.648   4.916  13.252 -0.6517 -0.1518  0.1595
  201SOD    SOD22329   0.690   2.939   2.175  0.1030 -0.2832  0.1453
  202SOD    SOD22330   6.683   3.260   3.334  0.3673  0.4530 -0.2281
  203SOD    SOD22331   4.461   3.119   6.015 -0.3513  0.6392  0.2589
  204SOD    SOD22332   3.601   4.370   5.603 -0.0050 -0.0050  0.1038
  205SOD    SOD22333   5.149   0.222  11.039  0.2516 -0.0404  0.4808
  206SOD    SOD22334   4.818   6.510   5.905 -0.2514  0.0996  0.5798
  207SOD    SOD22335   0.116   1.960  12.548  0.4206 -0.0946  0.3836
  208SOD    SOD22336   3.022   3.541  11.007  0.0780  0.4439  0.6202
  209SOD    SOD22337   1.428   0.445   2.685 -0.4388  0.4606 -0.6754
  210SOD    SOD22338   2.071   4.845   1.170 -0.0530 -0.6940 -0.0303
  211SOD    SOD22339   6.077   3.214   5.036 -0.0301  0.7532 -0.2859
  212SOD    SOD22340   5.332   2.864  12.183  0.0709 -0.3094  0.1822
  213SOD    SOD22341   0.921   3.894   3.988  0.0921  0.0532 -0.1453
  214SOD    SOD22342   1.048   0.395   5.676  0.5563  0.1811  0.1774
  215SOD    SOD22343   3.626   3.682   4.459  0.0367  0.4411 -0.2983
  216SOD    SOD22344   0.576   6.114   6.043 -0.0910 -0.1345  0.2775
  217SOD    SOD22345   2.517   0.354  15.550  0.1729  0.2096 -0.0740
  218SOD    SOD22346   2.292   1.717   3.858  0.3735  0.4095 -0.4478
  219SOD    SOD22347   1.058   1.800   0.159  0.2916  0.2640  0.3807
  220SOD    SOD22348   5.650   2.642  16.060  0.3927 -0.1240 -0.3230
  221SOD    SOD22349   2.390   3.500   0.457  0.2249 -0.0406 -0.3949
  222SOD    SOD22350   5.123   3.091   4.331 -0.3284 -0.2427  0.4015
  223SOD    SOD22351   2.967   0.931   4.503 -0.5248  0.1918  0.2768
  224SOD    SOD22352   6.377   2.782   1.540 -0.4731 -0.5656  0.2169
  225SOD    SOD22353   4.303   4.698  13.710 -0.2321 -0.0734 -0.3321
  226SOD    SOD22354   4.540   6.220   3.659  0.2657  0.3186  0.3836
  227SOD    SOD22355   0.402   2.621   4.940 -0.5665 -0.1513 -0.5032
  228SOD    SOD22356   5.312   5.870  12.833  0.5540  0.1291 -0.0710
  229SOD    SOD22357   5.886   0.406  10.963 -0.5990 -0.3362  0.1323
  230SOD    SOD22358   1.402   0.628  10.636  0.3368 -0.0536  0.3432
  231SOD    SOD22359   0.499   5.872  13.260  0.0558 -0.4341  0.1646
  232SOD    SOD22360   3.482   0.945   4.225 -0.0523 -0.0285  0.2746
  233SOD    SOD22361   2.421   5.277  13.766  0.2595  0.4095 -0.2084
  234SOD    SOD22362   3.628   0.267  12.038 -0.3135  0.4952  0.5621
  235SOD    SOD22363   4.221   1.504   5.721  0.5765 -0.3618 -0.1069
  236SOD    SOD22364   0.774   2.770  10.988 -0.3278 -0.4127  0.1178
  237SOD    SOD22365   4.153   0.018   4.711  0.0354 -0.3283 -0.1342
  238SOD    SOD22366   3.298   3.209   4.355 -0.8089  0.3844 -0.5681
  239SOD    SOD22367   6.545   1.511  15.153  0.1483 -0.0833  0.2504
  240SOD    SOD22368   2.774   1.580   5.476  0.0074 -0.2244 -0.5830
  241SOD    SOD22369   2.684   5.309  15.786  0.0905  0.1562 -0.1173
  242SOD    SOD22370   2.497   6.192   3.194 -0.1227 -0.0216 -0.0781
  243SOD    SOD22371   2.394   3.358   6.445 -0.6899  0.3386 -0.6231
  244SOD    SOD22372   6.694   0.403  17.049  0.3466  0.3378  0.0916
  245SOD    SOD22373   3.982   6.342   2.598 -0.1227  0.0367  0.1561
  246SOD    SOD22374   6.215   2.727  14.691 -0.1593 -0.0873  0.3356
  247SOD    SOD22375   6.102   4.646   5.370  0.1392  0.3322 -0.4774
  248SOD    SOD22376   1.219   5.946  10.667  0.0520  0.1457  0.4190
  249SOD    SOD22377   6.614   5.065   5.889  0.2474 -0.2348  0.0764
  250SOD    SOD22378   0.997   3.901   2.532 -0.2986  0.2470  0.2935
  251SOD    SOD22379   5.726   1.768  15.426 -0.1419 -0.0002 -0.0158
  252SOD    SOD22380   5.182   1.362   6.676  0.0185 -0.0084 -0.0857
  253SOD    SOD22381   2.328   4.538  16.766 -0.2290 -0.5570  0.1828
  254SOD    SOD22382   6.035   6.806   4.471  0.0910  0.2399  0.0715
  255SOD    SOD22383   3.168   6.395  11.027 -0.0939 -0.4704 -0.0984
  256SOD    SOD22384   0.948   1.709  10.561  0.1959 -0.2030  0.0249
  257SOD    SOD22385   3.282   0.765   5.810 -0.6870  0.0824  0.0839
  258SOD    SOD22386   0.594   6.105   2.051  0.6092  0.2180 -0.0064
  259SOD    SOD22387   2.659   5.989   1.770  0.2869 -0.2297  0.5850
  260SOD    SOD22388   4.840   4.918  10.963 -0.2061  0.1288 -0.1286
  261SOD    SOD22389   5.017   0.546  12.223  0.3333  0.0203  0.1320
  262SOD    SOD22390   2.790   1.407  16.079  0.2337 -0.1827 -0.5279
  263SOD    SOD22391   2.646   0.056   4.877  0.0653 -0.5740  0.2600
  264SOD    SOD22392   5.663   2.008  13.525  0.0287 -0.1680  0.0310
  265SOD    SOD22393   3.386   0.977   1.306 -0.1504 -0.0679 -0.0126
  266CLA    CLA22394   5.912   0.662   1.945  0.2578 -0.0390 -0.2898
  267CLA    CLA22395   5.159   1.804  15.557 -0.4627 -0.1338  0.2879
  268CLA    CLA22396   5.775   5.115  13.344  0.2704 -0.4628  0.2745
  269CLA    CLA22397   2.795   6.413  16.337  0.1822 -0.0195  0.1389
  270CLA    CLA22398   5.501   6.165   4.797  0.1684  0.0616  0.0818
  271CLA    CLA22399   2.725   4.137   0.539  0.1771  0.2693  0.1336
  272CLA    CLA22400   2.232   6.348  14.277  0.2488 -0.1264 -0.3207
  273CLA    CLA22401   0.029   4.751   5.296 -0.3349  0.2363  0.0956
  274CLA    CLA22402   2.357   6.597   2.976  0.0580 -0.2999  0.0884
  275CLA    CLA22403   3.200   0.899  14.010  0.0708  0.3184  0.3325
  276CLA    CLA22404   4.269   0.780  15.310 -0.3682 -0.1790  0.3835
  277CLA    CLA22405   0.271   3.033   4.856 -0.1274  0.4325 -0.0276
  278CLA    CLA22406   2.320   2.256   3.985  0.1188 -0.1503 -0.1504
  279CLA    CLA22407   4.316   0.926  13.158 -0.1592  0.6018 -0.2119
  280CLA    CLA22408   2.255   1.641  14.114 -0.0349 -0.2351  0.1498
  281CLA    CLA22409   0.878   3.823   0.761 -0.3856 -0.0417 -0.1281
  282CLA    CLA22410   5.576   4.818   0.963 -0.3340 -0.3773  0.0846
  283CLA    CLA22411   6.600   2.342   0.540  0.0593 -0.4959 -0.0060
  284CLA    CLA22412   4.213   1.074   5.675 -0.3056 -0.1630  0.1378
  285CLA    CLA22413   6.363   2.358   4.188  0.0849 -0.1353  0.0113
  286CLA    CLA22414   3.360   3.444   0.743 -0.1807 -0.0255  0.4128
  287CLA    CLA22415   3.664   1.147  11.575  0.2739 -0.0419 -0.0862
  288CLA    CLA22416   4.160   3.175   4.716 -0.3062 -0.0704 -0.0623
  289CLA    CLA22417   1.720   3.635  14.526  0.4161  0.1827 -0.7369
  290CLA    CLA22418   2.564   1.588   4.998  0.7084 -0.1086  0.1808
  291CLA    CLA22419   4.165   1.237   0.332 -0.0027  0.2534 -0.0923
  292CLA    CLA22420   2.447   5.561   1.709  0.0564 -0.6804 -0.1588
  293CLA    CLA22421   6.731   1.723   5.731  0.0153 -0.2909 -0.0094
  294CLA    CLA22422   2.322   0.497  14.201 -0.0848  0.0057 -0.0601
  295CLA    CLA22423   3.473   0.096   4.574 -0.0849 -0.2195  0.1274
  296CLA    CLA22424   4.455   5.415   4.571  0.0437 -0.0276  0.2907
  297CLA    CLA22425   3.687   4.484  16.679 -0.8409 -0.3663 -0.4282
  298CLA    CLA22426   1.566   0.297   5.151  0.1942  0.3957 -0.0902
  299CLA    CLA22427   2.624   1.414   1.495 -0.2509  0.1026  0.0313
  300CLA    CLA22428   2.231   1.673   1.742  0.0237  0.1168  0.5398
  301CLA    CLA22429   0.267   2.172   0.377  0.0241  0.1628  0.5472
  302CLA    CLA22430   4.870   5.018  13.998  0.2463  0.4015  0.0177
  303CLA    CLA22431   1.157   3.459   2.320 -0.6182 -0.1730  0.3579
  304CLA    CLA22432   6.482   1.678  15.666  0.1584 -0.3363 -0.3292
  305CLA    CLA22433   3.834   4.551  14.837  0.5476  0.2949 -0.0126
  306CLA    CLA22434   4.370   6.616   3.061  0.1408  0.2576 -0.2127
  307CLA    CLA22435   3.279   0.948   4.998 -0.1683  0.1689  0.7274
  308CLA    CLA22436   6.547   0.681  13.183  0.1112 -0.1593 -0.2387
  309CLA    CLA22437   4.047   4.765   2.644 -0.1450  0.0816  0.3737
  310CLA    CLA22438   4.528   5.376   5.791  0.2293  0.1447  0.0187
  311CLA    CLA22439   2.425   2.545  14.317 -0.3815  0.1303  0.1502
  312CLA    CLA22440   5.800   6.078  13.242  0.1153  0.0124 -0.1404
  313CLA    CLA22441   0.494   4.330   3.554 -0.1048  0.0293  0.0946
  314CLA    CLA22442   3.157   5.804   2.951 -0.2342  0.3165  0.2646
  315CLA    CLA22443   5.339   6.477   3.856  0.7856  0.0870 -0.4979
  316CLA    CLA22444   6.505   4.142   2.895  0.1451  0.3986 -0.1343
  317CLA    CLA22445   5.285   1.643  11.705 -0.1302 -0.1134 -0.0198
  318CLA    CLA22446   3.566   0.098   2.450  0.0786  0.0368  0.1032
  319TIP3   OH222447   0.966   6.394   1.986  0.3301 -0.4131 -0.1560
  319TIP3    H122448   1.038   6.367   2.042  0.1793 -0.9005 -0.1916
  319TIP3    H222449   0.967   6.489   1.990 -0.6904 -0.4379  1.9508
  320TIP3   OH222450   3.740   1.183  16.695  0.3343 -0.2029  0.1856
  320TIP3    H122451   3.818   1.216  16.740  0.1019  1.2798 -0.4459
  320TIP3    H222452   3.667   1.211  16.750  0.0690  1.3382 -0.8842
  321TIP3   OH222453   3.313   4.309  15.259 -0.1120  0.0326 -0.7600
  321TIP3    H122454   3.245   4.242  15.263  0.1780 -0.2696 -0.8720
  321TIP3    H222455   3.265   4.391  15.249 -0.4442 -0.2221 -1.3083
  322TIP3   OH222456   4.910   4.401   1.292 -0.0322  0.5789 -0.1180
  322TIP3    H122457   4.909   4.320   1.343  0.6312  0.4532 -0.2949
  322TIP3    H222458   4.907   4.470   1.357 -1.9990  0.4353  0.0025
  323TIP3   OH222459   3.303   4.239   2.045  0.3239  0.3423 -0.3921
  323TIP3    H122460   3.321   4.186   2.124  2.3344 -0.9105 -1.6019
  323TIP3    H222461   3.354   4.319   2.058 -0.0813  0.5500 -0.0357
  324TIP3   OH222462   0.581   6.793   0.739 -0.0001  0.4332  0.1642
  324TIP3    H122463   0.566   6.884   0.713  0.1638  0.4119 -0.0047
  324TIP3    H222464   0.676   6.784   0.743  0.0017  0.1107 -0.3913
  325TIP3   OH222465   4.249   2.463   1.673  0.2644  0.3583 -0.1641
  325TIP3    H122466   4.179   2.437   1.733  0.3633 -1.0944 -0.6614
  325TIP3    H222467   4.228   2.421   1.590  1.1262  0.8303 -0.6414
  326TIP3   OH222468   3.540   2.491  17.230  0.1913  0.0702  0.3137
  326TIP3    H122469   3.467   2.552  17.223 -0.0684 -0.2417  0.2766
  326TIP3    H222470   3.509   2.411  17.186  0.4456 -0.1609  0.5495
  327TIP3   OH222471   3.328   1.234   0.079 -0.4890 -0.0815 -0.1084
  327TIP3    H122472   3.278   1.154   0.099 -0.1351 -0.9750 -2.4751
  327TIP3    H222473   3.269   1.305   0.104 -0.4693 -0.9860  2.9139
  328TIP3   OH222474   0.950   4.447  17.135  0.1768  0.4258  0.1554
  328TIP3    H122475   1.009   4.521  17.146 -0.4092  1.0701 -0.8538
  328TIP3    H222476   0.874   4.483  17.088 -0.6527 -0.5584  0.6981
  329TIP3   OH222477   0.717   2.259   5.866 -0.1835  0.4253 -0.2222
  329TIP3    H122478   0.773   2.219   5.800  0.2271  0.4310  0.1193
  329TIP3    H222479   0.636   2.209   5.862  0.6718 -1.1510  0.8934
  330TIP3   OH222480   0.450   0.933   4.142  0.2043  0.2371 -0.6065
  330TIP3    H122481   0.357   0.949   4.126  0.0921  0.6583  0.4062
  330TIP3    H222482   0.495   1.006   4.099  0.2172 -0.8359 -2.5580
  331TIP3   OH222483   1.394   1.521   6.056 -0.0583  0.6222  0.0457
  331TIP3    H122484   1.429   1.552   5.973 -0.0567 -0.5431 -0.4137
  331TIP3    H222485   1.388   1.599   6.110 -0.0211  1.3985 -1.0322
  332TIP3   OH222486   2.504   4.791   6.668 -0.1906 -0.0818  0.3561
  332TIP3    H122487   2.427   4.770   6.616 -0.8824 -0.0759  1.3475
  332TIP3    H222488   2.551   4.708   6.676 -0.5098 -0.2598  0.3998
  333TIP3   OH222489   3.399   6.241  13.025  0.1063 -0.0980 -0.0759
  333TIP3    H122490   3.485   6.205  13.002  1.0215  1.0785  1.3533
  333TIP3    H222491   3.397   6.241  13.120 -2.0937 -1.4265 -0.0481
  334TIP3   OH222492   5.818   4.669  16.497 -0.0712  0.6227  0.4775
  334TIP3    H122493   5.727   4.681  16.524 -0.7143  1.4744 -1.8014
  334TIP3    H222494   5.826   4.720  16.416  1.5804 -1.8358 -1.0537
  335TIP3   OH222495   2.341   6.324  16.643  0.1961 -0.0283  0.1004
  335TIP3    H122496   2.429   6.356  16.620  0.2895 -0.1800  0.2353
  335TIP3    H222497   2.312   6.383  16.713  1.1087 -1.2955  1.6111
  336TIP3   OH222498   5.310   5.145   5.287  0.2383 -0.0344 -0.0224
  336TIP3    H122499   5.254   5.219   5.310  0.9998  0.8340 -0.8489
  336TIP3    H222500   5.256   5.068   5.301 -1.1433  0.7679 -0.7374
  337TIP3   OH222501   2.630   4.346  14.586 -0.0858  0.0225  0.1603
  337TIP3    H122502   2.611   4.329  14.494 -0.5911 -1.3797  0.4828
  337TIP3    H222503   2.655   4.438  14.590  0.0009  0.0845 -1.3785
  338TIP3   OH222504   3.847   3.697   4.353 -0.2299  0.8598  0.0343
  338TIP3    H122505   3.883   3.759   4.290  0.0857  0.5740 -0.0683
  338TIP3    H222506   3.917   3.635   4.369 -0.4821  0.6308  0.2777
  339TIP3   OH222507   1.055   2.467   2.870  0.5772 -0.0585  0.3133
  339TIP3    H122508   1.112   2.414   2.814  0.1586 -1.0430  0.8010
  339TIP3    H222509   1.082   2.557   2.853  1.6102 -0.4518 -0.1935
  340TIP3   OH222510   0.774   0.147   3.122 -0.4382 -0.3578 -0.3731
  340TIP3    H122511   0.766   0.105   3.036 -1.3397 -0.0286 -0.4600
  340TIP3    H222512   0.711   0.218   3.119 -0.2140 -0.1256  0.4410
  341TIP3   OH222513   2.183   4.821  16.295  0.3607  0.2921 -0.0662
  341TIP3    H122514   2.184   4.727  16.279  1.0186 -0.0040  1.5028
  341TIP3    H222515   2.093   4.848  16.277 -0.2040 -0.9060  0.8250
  342TIP3   OH222516   2.917   5.691   3.540 -0.9531  0.0648 -0.4588
  342TIP3    H122517   2.877   5.766   3.585 -1.1397 -0.6808  0.6823
  342TIP3    H222518   3.008   5.716   3.527 -0.8751  0.2896  0.4277
  343TIP3   OH222519   0.677   3.998   0.220 -0.4974 -0.3464  0.2841
  343TIP3    H122520   0.737   3.951   0.278 -1.4452 -1.7968  0.1331
  343TIP3    H222521   0.733   4.031   0.150  0.3868 -0.1247  1.0748
  344TIP3   OH222522   0.382   5.067   3.599 -0.4038 -0.2524 -0.2507
  344TIP3    H122523   0.445   4.998   3.620 -0.2749 -0.2612 -0.6672
  344TIP3    H222524   0.368   5.059   3.505  0.9169  1.3944 -0.6284
  345TIP3   OH222525   6.597   4.291  14.836  0.0419 -0.1874 -0.8890
  345TIP3    H122526   6.559   4.204  14.844 -0.0682 -0.0332  0.4847
  345TIP3    H222527   6.541   4.336  14.772 -2.6062  0.2407  1.5005
  346TIP3   OH222528   2.076   0.359   2.253 -0.2259  0.4388  0.6147
  346TIP3    H122529   2.070   0.439   2.200  0.0826  0.4568  0.6058
  346TIP3    H222530   2.161   0.366   2.297 -0.5501  0.4937  1.2287
  347TIP3   OH222531   5.777   3.786  11.847 -0.0618 -0.2866 -0.0791
  347TIP3    H122532   5.851   3.769  11.789  0.3301  0.3046  0.2449
  347TIP3    H222533   5.772   3.708  11.903  0.3134 -0.3338 -0.1106
  348TIP3   OH222534   3.911   6.122  12.106  0.0345  0.3157  0.5679
  348TIP3    H122535   3.838   6.109  12.045  0.2720  3.2564 -0.5530
  348TIP3    H222536   3.966   6.188  12.063  1.7670  0.3980  2.7190
  349TIP3   OH222537   5.287   6.165  11.815  0.0020  0.1026  0.5175
  349TIP3    H122538   5.308   6.072  11.801 -1.1591 -0.0461 -0.4651
  349TIP3    H222539   5.213   6.181  11.755 -0.6364  1.3366  1.6004
  350TIP3   OH222540   0.229   1.659   3.323  0.3898 -0.0255 -0.2293
  350TIP3    H122541   0.193   1.739   3.362  1.0768  0.3074 -0.2697
  350TIP3    H222542   0.213   1.592   3.389  1.2603  0.4725  0.5115
  351TIP3   OH222543   3.663   1.791  16.572 -0.4192  0.4292 -0.3131
  351TIP3    H122544   3.671   1.877  16.530  0.0605 -0.2267 -1.6465
  351TIP3    H222545   3.581   1.795  16.620 -0.1936  1.7741 -0.0132
  352TIP3   OH222546   5.403   0.235   4.474 -0.4250  0.3554  0.2042
  352TIP3    H122547   5.462   0.193   4.536 -0.8488 -0.6137 -0.0347
  352TIP3    H222548   5.315   0.210   4.504 -0.7120  1.4597  0.3298
  353TIP3   OH222549   6.328   4.434  14.781  0.2675  0.5137  0.0041
  353TIP3    H122550   6.303   4.363  14.722 -0.1150  1.0196 -0.4570
  353TIP3    H222551   6.380   4.493  14.725  1.8706 -0.1439  0.7491
  354TIP3   OH222552   6.368   6.698   1.539 -0.1628 -0.2298  0.2494
  354TIP3    H122553   6.394   6.731   1.453  1.9078  0.9888  1.2630
  354TIP3    H222554   6.406   6.610   1.542  0.8010  0.1732  0.3323
  355TIP3   OH222555   0.538   5.261   0.985  0.5210  0.1401  0.0526
  355TIP3    H122556   0.462   5.208   0.958  0.2155  0.1583  0.8250
  355TIP3    H222557   0.511   5.351   0.968  0.2457  0.1656  0.5938
  356TIP3   OH222558   2.701   4.877   3.599  0.2900 -0.1013 -0.0927
  356TIP3    H122559   2.710   4.957   3.548 -0.4837  0.1512  0.1528
  356TIP3    H222560   2.682   4.907   3.688  0.8944 -0.5457  0.1879
  357TIP3   OH222561   6.566   5.718   2.658 -0.0530 -0.0732  0.0122
  357TIP3    H122562   6.548   5.634   2.700 -1.1676  0.5476  0.8291
  357TIP3    H222563   6.503   5.779   2.697  0.9360  1.2227 -0.3306
  358TIP3   OH222564   4.201   3.357   1.412  0.2313  0.0769  0.4800
  358TIP3    H122565   4.271   3.422   1.403 -0.1315  0.5455  0.9179
  358TIP3    H222566   4.158   3.356   1.327  0.6236 -0.0392  0.2823
  359TIP3   OH222567   4.427   3.878   5.967  0.0916 -0.3218 -0.7081
  359TIP3    H122568   4.443   3.920   6.052 -0.2868 -0.3011 -0.6480
  359TIP3    H222569   4.454   3.787   5.981  0.6063 -0.1792 -0.7459
  360TIP3   OH222570   0.889   4.265  16.348  0.0837 -0.2405  0.9817
  360TIP3    H122571   0.931   4.191  16.304 -0.2908  1.1456 -1.9392
  360TIP3    H222572   0.860   4.230  16.432  0.4009 -3.2473 -0.0546
  361TIP3   OH222573   0.539   0.741  15.979 -0.0591  0.2775  0.2839
  361TIP3    H122574   0.526   0.811  16.043  0.7848  2.1165 -1.4664
  361TIP3    H222575   0.631   0.715  15.991 -0.3880 -0.6384  0.9774
  362TIP3   OH222576   5.357   0.942  17.157 -0.4381  0.3864 -0.1118
  362TIP3    H122577   5.424   0.892  17.203  1.9507  1.3801 -2.2374
  362TIP3    H222578   5.299   0.975  17.225  2.3717  1.1015  2.0780
  363TIP3   OH222579   1.473   0.881   3.730  0.4521  0.0002 -0.0193
  363TIP3    H122580   1.401   0.865   3.790  0.5993  0.0117  0.1626
  363TIP3    H222581   1.543   0.823   3.760 -0.5542 -2.5700 -2.2201
  364TIP3   OH222582   5.163   3.375  14.359  0.2509 -0.3672 -0.1064
  364TIP3    H122583   5.073   3.351  14.337 -0.0246 -0.5786  1.1504
  364TIP3    H222584   5.197   3.299  14.407  1.1854 -0.3888 -0.7865
  365TIP3   OH222585   2.683   2.344  16.290  0.0433  0.1010  0.0288
  365TIP3    H122586   2.601   2.341  16.340  1.3342 -0.9596  2.2160
  365TIP3    H222587   2.681   2.265  16.236 -0.8932  0.7245 -0.9039
  366TIP3   OH222588   4.085   2.745   5.646  0.4588  0.5702 -0.0960
  366TIP3    H122589   4.049   2.672   5.595 -0.3347  1.7938 -1.3512
  366TIP3    H222590   4.159   2.706   5.693 -2.0177 -1.8979  2.1094
  367TIP3   OH222591   3.574   4.567  14.641 -0.2035  0.0737 -0.0025
  367TIP3    H122592   3.654   4.571  14.693 -0.6839  0.4843  0.7237
  367TIP3    H222593   3.598   4.603  14.556  0.8788 -1.6195 -0.4500
  368TIP3   OH222594   6.007   5.557  14.178 -0.1713 -0.2095  0.0114
  368TIP3    H122595   6.051   5.615  14.116 -1.8141 -1.0503 -2.0515
  368TIP3    H222596   6.026   5.469  14.147 -2.5873 -0.6165 -0.5162
  369TIP3   OH222597   3.670   3.690  11.561  0.5411 -0.5371 -0.6856
  369TIP3    H122598   3.680   3.688  11.466  0.6183 -1.0156 -0.6724
  369TIP3    H222599   3.607   3.760  11.578  1.1481  0.1000 -1.0320
  370TIP3   OH222600   1.601   0.371   3.166  0.2981  0.1423  0.6581
  370TIP3    H122601   1.662   0.434   3.204 -0.5980  1.4151  0.0481
  370TIP3    H222602   1.516   0.393   3.203 -0.1786 -0.1602 -0.2148
  371TIP3   OH222603   4.439   5.670  11.873 -0.4535  0.1632  0.0344
  371TIP3    H122604   4.360   5.624  11.845  0.3631 -0.4490 -1.3570
  371TIP3    H222605   4.453   5.642  11.964 -0.6781 -1.3652 -0.3808
  372TIP3   OH222606   2.927   2.096   2.454  0.2759 -0.9448 -0.1482
  372TIP3    H122607   3.010   2.143   2.466  0.7617 -1.2333 -1.9971
  372TIP3    H222608   2.918   2.043   2.533  1.6803 -0.6383  0.2475
  373TIP3   OH222609   2.085   5.509  14.413  0.0680  0.0045  0.5770
  373TIP3    H122610   2.089   5.596  14.372  0.5565 -0.0938  0.4160
  373TIP3    H222611   2.121   5.522  14.501 -0.5015  0.1072  0.7988
  374TIP3   OH222612   1.098   0.077   4.080 -0.3587 -0.0787 -0.5032
  374TIP3    H122613   1.088   0.060   4.174  0.1575  0.7104 -0.2893
  374TIP3    H222614   1.009   0.095   4.050 -0.3954  0.8775  0.1083
  375TIP3   OH222615   4.351   4.598  13.308  0.8674 -0.3418 -0.6091
  375TIP3    H122616   4.320   4.529  13.367 -0.7660 -1.0892 -2.2673
  375TIP3    H222617   4.437   4.568  13.279  2.0638  0.3778  1.8241
  376TIP3   OH222618   4.960   1.856  16.518 -0.3608  0.7382  0.3430
  376TIP3    H122619   4.967   1.876  16.612 -0.3892 -0.0804  0.5276
  376TIP3    H222620   5.035   1.901  16.479 -0.6880  1.5817  0.6671
  377TIP3   OH222621   1.533   5.844   5.588  0.4287  0.2207 -0.2442
  377TIP3    H122622   1.621   5.880   5.574 -0.4225  1.2818 -4.0357
  377TIP3    H222623   1.533   5.762   5.539 -1.0406  0.9511 -1.5621
  378TIP3   OH222624   1.126   1.684   0.349 -0.8736 -0.1788  0.3641
  378TIP3    H122625   1.112   1.738   0.427  1.6344  0.5042  0.4551
  378TIP3    H222626   1.214   1.648   0.362 -0.4370 -0.1236 -2.0891
  379TIP3   OH222627   1.456   1.856   5.860 -0.0875  0.6151  0.3645
  379TIP3    H122628   1.494   1.892   5.780  0.4008  0.4997  0.5352
  379TIP3    H222629   1.387   1.917   5.884 -1.8577 -0.5856 -1.4354
  380TIP3   OH222630   2.036   4.817   1.647 -0.5665 -0.2421 -0.6110
  380TIP3    H122631   1.970   4.879   1.678 -1.3465 -2.2324  2.1335
  380TIP3    H222632   2.115   4.839   1.697 -0.2070 -0.1527 -1.2067
  381TIP3   OH222633   4.537   2.033  12.809  0.0397 -0.6272  0.3920
  381TIP3    H122634   4.477   2.077  12.749  0.7834 -0.5269 -0.2989
  381TIP3    H222635   4.543   1.943  12.776 -1.5695 -1.3363  1.8677
  382TIP3   OH222636   0.700   3.832   5.786  0.1159  0.3304 -0.3498
  382TIP3    H122637   0.727   3.755   5.837  0.8224 -0.3436 -1.7050
  382TIP3    H222638   0.646   3.883   5.847  1.7095  0.0399  1.3828
  383TIP3   OH222639   4.928   6.258   5.267 -0.0550  0.6177 -0.0160
  383TIP3    H122640   4.854   6.199   5.252 -0.2321  0.6415  0.6990
  383TIP3    H222641   5.005   6.201   5.267 -0.2405  0.3406  0.8334
  384TIP3   OH222642   3.727   5.090   1.760 -0.5490 -0.1982 -0.1467
  384TIP3    H122643   3.761   5.064   1.675  1.6376  2.0751 -0.0852
  384TIP3    H222644   3.802   5.084   1.819 -1.0882  1.6217  0.8068
  385TIP3   OH222645   2.051   2.761   4.065 -0.1392 -0.3264 -0.2942
  385TIP3    H122646   2.029   2.781   4.156 -1.5263  0.6837 -0.8199
  385TIP3    H222647   2.009   2.677   4.048 -0.9144  0.0701 -0.3529
  386TIP3   OH222648   6.429   4.903  13.385 -0.1666  0.3078 -0.2790
  386TIP3    H122649   6.448   4.812  13.409  0.1870  0.0504 -1.4793
  386TIP3    H222650   6.342   4.900  13.345 -0.2741  0.5466 -0.0670
  387TIP3   OH222651   6.605   6.731  14.569 -0.1307  0.8002  0.5178
  387TIP3    H122652   6.623   6.665  14.635  3.2891 -0.8020 -1.6920
  387TIP3    H222653   6.544   6.689  14.508  0.0844  0.6048  0.4341
  388TIP3   OH222654   0.599   0.534  13.398  0.4294 -0.7373  0.3425
  388TIP3    H122655   0.624   0.618  13.438 -0.1593 -0.7075  0.6572
  388TIP3    H222656   0.614   0.547  13.304 -1.8084  0.5639  0.0705
  389TIP3   OH222657   6.103   6.132  15.257 -0.0435  0.2724  0.8514
  389TIP3    H122658   6.015   6.164  15.280 -0.4030  0.4242 -0.6111
  389TIP3    H222659   6.151   6.210  15.232 -0.1816 -0.0197 -0.4223
  390TIP3   OH222660   6.221   6.111  14.696 -0.2152  0.2549 -0.6161
  390TIP3    H122661   6.179   6.065  14.768 -1.0263 -0.3624 -1.4583
  390TIP3    H222662   6.203   6.204  14.714  0.6139  0.2036  0.5871
  391TIP3   OH222663   1.572   4.245  16.195  0.0697 -0.2688 -0.1754
  391TIP3    H122664   1.541   4.279  16.111 -2.3029  0.8522  1.0412
  391TIP3    H222665   1.655   4.289  16.210  0.9221 -1.0664 -2.2371
  392TIP3   OH222666   3.611   6.268  12.252 -0.8005 -0.0236  0.1310
  392TIP3    H122667   3.619   6.255  12.346 -0.8206 -0.5472  0.0642
  392TIP3    H222668   3.535   6.325  12.242 -1.7038 -1.1482  0.3611
  393TIP3   OH222669   6.523   5.764   5.427 -0.1834 -0.0584 -0.0302
  393TIP3    H122670   6.518   5.753   5.333  1.4581  0.3084 -0.1862
  393TIP3    H222671   6.522   5.859   5.441 -3.1252 -0.0722  0.5527
  394TIP3   OH222672   1.335   5.893   6.254  0.3149 -0.4224  0.0449
  394TIP3    H122673   1.353   5.913   6.346 -0.6071  1.4990 -0.1466
  394TIP3    H222674   1.350   5.975   6.208  0.0397 -1.1629 -1.4316
  395TIP3   OH222675   5.432   0.851  11.685  0.6162 -0.4582 -0.2343
  395TIP3    H122676   5.508   0.799  11.708  1.0208 -0.7597 -2.0952
  395TIP3    H222677   5.451   0.938  11.721  0.4661 -1.2231  1.8619
  396TIP3   OH222678   2.377   4.183  13.092 -0.1511 -0.3211 -0.0084
  396TIP3    H122679   2.449   4.164  13.152  1.4057  1.4131 -1.2172
  396TIP3    H222680   2.420   4.214  13.013 -2.2283  1.8545 -0.3882
  397TIP3   OH222681   0.213   0.265  13.401 -0.2033 -0.3775 -0.1678
  397TIP3    H122682   0.179   0.204  13.467 -0.9902  0.1077 -0.1199
  397TIP3    H222683   0.278   0.317  13.447 -2.9468  2.1404  1.1626
  398TIP3   OH222684   0.708   0.685  12.465  0.2479 -0.1100  0.0252
  398TIP3    H122685   0.731   0.718  12.551 -0.1044  0.4850 -0.1062
  398TIP3    H222686   0.612   0.684  12.464  0.2467 -0.7540 -0.1205
  399TIP3   OH222687   4.464   5.697  12.943  0.4896  0.2803  0.4339
  399TIP3    H122688   4.447   5.788  12.967  1.2469  0.7016 -0.5413
  399TIP3    H222689   4.401   5.646  12.994  1.0684  1.2063  2.1804
  400TIP3   OH222690   0.507   1.553  14.714  0.7496  0.3741  0.3519
  400TIP3    H122691   0.543   1.527  14.629 -0.4029 -1.1726  0.2947
  400TIP3    H222692   0.413   1.535  14.707  0.5491  0.7315  1.7794
  401TIP3   OH222693   2.322   1.256  16.071 -0.3652  0.1087 -0.0954
  401TIP3    H122694   2.297   1.221  16.157 -1.6819  0.8927 -0.1375
  401TIP3    H222695   2.282   1.197  16.008  0.0157 -0.0644 -0.1808
  402TIP3   OH222696   6.640   0.137  13.675  0.3369 -0.2831 -0.5078
  402TIP3    H122697   6.678   0.201  13.735  1.2154  0.2472 -1.5927
  402TIP3    H222698   6.714   0.104  13.625 -0.4073 -0.4983 -1.4992
  403TIP3   OH222699   1.106   6.033   0.277  0.3169  0.0877  0.0883
  403TIP3    H122700   1.128   6.093   0.348  2.2464 -0.1179 -0.2690
  403TIP3    H222701   1.058   6.087   0.214  2.1063  1.3580 -0.2799
  404TIP3   OH222702   2.603   6.795  10.684 -0.3058 -0.1598 -0.7534
  404TIP3    H122703   2.583   6.744  10.605  1.3254 -0.1067 -1.2296
  404TIP3    H222704   2.585   6.736  10.756 -2.5855  0.0361 -1.0797
  405TIP3   OH222705   2.868   2.495   3.961  0.0797 -0.3657 -0.0220
  405TIP3    H122706   2.823   2.418   3.996 -0.3817  0.4653  1.2593
  405TIP3    H222707   2.835   2.502   3.871 -1.9534 -0.1486  0.6745
  406TIP3   OH222708   5.124   4.244  15.257  0.5798  0.6598 -0.5721
  406TIP3    H122709   5.044   4.236  15.307  0.0747 -0.3788 -1.4924
  406TIP3    H222710   5.190   4.271  15.321 -0.4065  1.1313  0.2710
  407TIP3   OH222711   5.550   6.258  14.642  0.4810 -0.2907  0.2999
  407TIP3    H122712   5.476   6.216  14.596  1.6279 -3.0339  0.7432
  407TIP3    H222713   5.529   6.248  14.735  1.2781 -0.8869  0.4233
  408TIP3   OH222714   0.910   0.422   4.873 -0.1048 -0.0324 -0.0315
  408TIP3    H122715   0.967   0.410   4.948 -0.9459  0.4873  0.7078
  408TIP3    H222716   0.959   0.384   4.799  0.0278 -2.1446  1.0501
  409TIP3   OH222717   5.245   1.142   6.766 -0.1589 -0.4113  0.3125
  409TIP3    H122718   5.194   1.061   6.762  0.1578 -0.5842 -0.4290
  409TIP3    H222719   5.331   1.118   6.731  0.4965 -0.1576  1.6687
  410TIP3   OH222720   5.509   0.202  14.025  0.3891 -0.2670 -0.9390
  410TIP3    H122721   5.420   0.191  14.057  0.2606  0.0299 -1.1899
  410TIP3    H222722   5.550   0.263  14.088  0.0478  0.5488 -1.4920
  411TIP3   OH222723   5.593   4.005  17.229  0.2222  0.0395 -0.4713
  411TIP3    H122724   5.513   4.000  17.178 -0.5599  0.6477  0.6514
  411TIP3    H222725   5.580   3.943  17.300  0.5755  0.4201 -0.0672
  412TIP3   OH222726   1.190   5.869   4.674  0.1993  0.1263  0.0072
  412TIP3    H122727   1.268   5.815   4.681  0.3319  0.2877 -0.2108
  412TIP3    H222728   1.117   5.808   4.685  0.3303 -0.2447 -1.0766
  413TIP3   OH222729   6.383   5.999   6.788  0.3199 -0.2319 -0.0470
  413TIP3    H122730   6.311   5.950   6.750 -1.7546  1.6077  1.2611
  413TIP3    H222731   6.443   5.933   6.823 -0.7330 -1.8050 -1.1230
  414TIP3   OH222732   6.319   5.850   1.560  0.5821 -0.5080 -0.7218
  414TIP3    H122733   6.328   5.764   1.602  0.7712 -0.6518 -1.0545
  414TIP3    H222734   6.230   5.879   1.583  0.7168 -0.5421 -0.1439
  415TIP3   OH222735   2.542   4.177   6.138 -0.3183  0.3135 -0.3762
  415TIP3    H122736   2.493   4.184   6.056 -2.0504  1.8590  0.7164
  415TIP3    H222737   2.549   4.267   6.170  1.1759 -0.1521  0.6987
  416TIP3   OH222738   0.161   4.367   5.699  0.4791  0.3064  0.2619
  416TIP3    H122739   0.138   4.435   5.635 -2.0495 -1.8208 -1.3424
  416TIP3    H222740   0.132   4.285   5.657  2.6602 -1.6992  2.3929
  417TIP3   OH222741   4.877   6.422   4.167 -0.4442  0.0455 -0.2182
  417TIP3    H122742   4.959   6.467   4.149 -1.2386  0.2035 -4.5775
  417TIP3    H222743   4.899   6.358   4.235  2.3092  2.4199  1.3335
  418TIP3   OH222744   1.448   5.698   3.940  0.2403  0.0307  0.1153
  418TIP3    H122745   1.419   5.679   4.029 -0.4929 -2.5562 -0.5847
  418TIP3    H222746   1.376   5.747   3.901 -0.0707 -0.1254  0.4876
  419TIP3   OH222747   6.212   6.312   2.711  0.6709 -0.5790  0.0984
  419TIP3    H122748   6.284   6.320   2.773  0.2249  0.4692  0.5131
  419TIP3    H222749   6.133   6.311   2.766  0.3396 -1.1726 -0.3759
  420TIP3   OH222750   0.451   3.552  13.023  0.4627  0.3707 -0.2516
  420TIP3    H122751   0.529   3.498  13.039  0.4941 -0.2266 -2.1006
  420TIP3    H222752   0.380   3.504  13.064  0.7016 -0.4182 -0.7336
  421TIP3   OH222753   0.387   4.158  13.791  0.2532  0.5506 -0.2858
  421TIP3    H122754   0.392   4.102  13.714 -1.5810 -0.3240  0.1808
  421TIP3    H222755   0.304   4.204  13.783 -0.9761 -1.0423  2.0778
  422TIP3   OH222756   2.223   2.060  12.363 -0.2369 -0.1764  0.1562
  422TIP3    H122757   2.287   2.026  12.426  0.0177 -0.6994 -0.3790
  422TIP3    H222758   2.179   2.131  12.410  1.1941  0.6421  0.3047
  423TIP3   OH222759   3.724   2.008   2.741  0.2831  0.4153  0.0494
  423TIP3    H122760   3.700   1.915   2.745 -0.7372  0.6957  0.6973
  423TIP3    H222761   3.648   2.054   2.777 -0.1716  1.6746 -2.3461
  424TIP3   OH222762   4.712   6.243  17.200 -0.3306 -0.2145 -0.3434
  424TIP3    H122763   4.733   6.204  17.114  2.0040  2.0262 -0.9120
  424TIP3    H222764   4.708   6.337  17.183 -0.5825  0.2225  1.8870
  425TIP3   OH222765   0.821   0.094   4.125  0.0064 -0.3171  0.5865
  425TIP3    H122766   0.779   0.050   4.199 -0.1438  0.9525  1.2863
  425TIP3    H222767   0.751   0.108   4.061 -0.0397 -0.6639  0.5605
  426TIP3   OH222768   0.147   4.282  13.776  0.0591  0.3435  0.3557
  426TIP3    H122769   0.156   4.375  13.794  0.9888  0.1695  0.8992
  426TIP3    H222770   0.070   4.275  13.720  1.5563  1.7360 -2.0391
  427TIP3   OH222771   6.179   1.098  16.089  0.3206 -0.3033 -0.3252
  427TIP3    H122772   6.127   1.066  16.015  0.4108 -0.3995 -0.3474
  427TIP3    H222773   6.229   1.172  16.054  0.0434 -0.0769 -0.2520
  428TIP3   OH222774   4.396   3.324  15.381  0.0503  0.1143 -0.2195
  428TIP3    H122775   4.308   3.288  15.381  0.0843  0.0064 -1.0829
  428TIP3    H222776   4.384   3.416  15.358  0.1634  0.1054 -0.3144
  429TIP3   OH222777   3.307   5.465   0.573  0.3958 -0.5336  0.1760
  429TIP3    H122778   3.231   5.407   0.573 -0.1244  0.1262  0.7633
  429TIP3    H222779   3.271   5.551   0.595  1.0727  0.1255 -1.1527
  430TIP3   OH222780   6.497   4.943  15.991 -0.0530 -0.9465 -0.3202
  430TIP3    H122781   6.420   4.996  16.008 -0.1917 -0.5260 -2.0457
  430TIP3    H222782   6.549   4.995  15.929  1.6101 -1.2375  0.7658
  431TIP3   OH222783   3.721   2.714  15.337 -0.4317 -0.3277 -0.4930
  431TIP3    H122784   3.802   2.731  15.384 -0.0403 -0.7944 -0.9812
  431TIP3    H222785   3.707   2.619  15.345 -1.5364 -0.1070  0.5430
  432TIP3   OH222786   1.316   1.442   2.962  0.1323 -0.3288  0.4377
  432TIP3    H122787   1.245   1.395   2.920  0.3926 -0.5798  0.2703
  432TIP3    H222788   1.290   1.447   3.054 -0.0739 -0.4707  0.3882
  433TIP3   OH222789   1.428   3.179  11.400  0.6148 -0.2261 -0.4349
  433TIP3    H122790   1.344   3.134  11.391  0.8967 -1.0093  0.6171
  433TIP3    H222791   1.452   3.204  11.310 -1.2064  0.9274 -0.6597
  434TIP3   OH222792   6.238   3.073   3.999  0.3330  0.2973 -0.3020
  434TIP3    H122793   6.330   3.076   4.025  0.8095  2.3507 -1.8869
  434TIP3    H222794   6.195   3.139   4.054  0.2641  0.8144 -0.9548
  435TIP3   OH222795   6.182   1.392   5.477  0.3567 -0.1726  0.0920
  435TIP3    H122796   6.243   1.348   5.418  2.1031 -0.0073  1.6906
  435TIP3    H222797   6.188   1.342   5.559  1.2722  2.0921  1.4865
  436TIP3   OH222798   2.766   0.722   0.934  0.2911  0.5491 -0.3856
  436TIP3    H122799   2.693   0.665   0.910  1.1800 -0.3376 -1.0768
  436TIP3    H222800   2.732   0.811   0.923 -0.9913  0.1678  0.2913
  437TIP3   OH222801   4.567   5.735  13.565 -0.1973  0.0740  0.2671
  437TIP3    H122802   4.589   5.823  13.596 -0.4205  0.0976  0.3597
  437TIP3    H222803   4.489   5.711  13.614 -1.0892  0.4703 -0.9106
  438TIP3   OH222804   4.763   1.232  10.738  0.2290  0.3914  0.0887
  438TIP3    H122805   4.824   1.299  10.707  2.7680 -1.0223  1.6627
  438TIP3    H222806   4.771   1.161  10.673 -1.6676  1.1031 -1.0079
  439TIP3   OH222807   5.605   0.898  15.311 -0.6061 -0.2458 -0.1462
  439TIP3    H122808   5.638   0.810  15.290 -0.0701  0.0542 -0.5969
  439TIP3    H222809   5.530   0.883  15.368 -0.9063 -1.0243 -0.7278
  440TIP3   OH222810   5.147   4.994  11.254  0.3068  0.3911  0.1830
  440TIP3    H122811   5.097   4.918  11.226 -0.5249  0.8477  0.3843
  440TIP3    H222812   5.097   5.028  11.329  0.6853  1.1044  0.1166
  441TIP3   OH222813   4.425   5.918  10.620  0.5091 -0.1544 -0.0867
  441TIP3    H122814   4.352   5.943  10.562 -0.4223 -0.1180  1.0578
  441TIP3    H222815   4.414   5.824  10.633  0.8915 -0.2155 -0.1904
  442TIP3   OH222816   6.468   2.460  16.051 -0.1775 -0.2070  0.4198
  442TIP3    H122817   6.399   2.524  16.036 -1.3550 -2.0282 -3.0822
  442TIP3    H222818   6.422   2.380  16.076  0.5788 -1.3420 -1.5663
  443TIP3   OH222819   4.116   2.907   2.432 -0.6854 -0.1159  0.0149
  443TIP3    H122820   4.182   2.845   2.462 -0.8685  0.8761  2.6872
  443TIP3    H222821   4.159   2.992   2.434 -1.0113  0.1367 -1.7716
  444TIP3   OH222822   5.004   0.092   3.444  0.3704 -0.6496 -0.3363
  444TIP3    H122823   4.972   0.072   3.532  3.0430 -0.5099  0.7658
  444TIP3    H222824   5.081   0.036   3.433  2.2239  1.8337 -1.0659
  445TIP3   OH222825   1.285   5.750   3.574 -0.0749  0.2452 -0.5829
  445TIP3    H122826   1.243   5.691   3.636 -0.5716  1.8391  0.6737
  445TIP3    H222827   1.247   5.836   3.593  2.6281  1.5185 -0.4104
  446TIP3   OH222828   6.395   4.578   6.014 -0.1478 -0.0875  0.0407
  446TIP3    H122829   6.322   4.640   6.005 -0.6687 -0.7761 -0.6167
  446TIP3    H222830   6.389   4.522   5.936  2.1677  0.9303 -0.9568
  447TIP3   OH222831   6.639   2.817   4.348 -0.3714 -0.3544 -0.5114
  447TIP3    H122832   6.569   2.787   4.406  0.7510  1.2842  1.8008
  447TIP3    H222833   6.650   2.909   4.368  0.4580  0.1899 -3.0236
  448TIP3   OH222834   0.754   0.197  16.839  0.2662 -0.3708 -0.2437
  448TIP3    H122835   0.800   0.251  16.903 -0.3510 -1.4224  1.1409
  448TIP3    H222836   0.754   0.110  16.877 -0.2141 -1.0091 -1.6488
  449TIP3   OH222837   0.764   1.874  16.262 -0.0421  0.2180  0.0451
  449TIP3    H122838   0.834   1.809  16.257 -0.8342 -0.5874 -2.2092
  449TIP3    H222839   0.809   1.958  16.271  1.2166 -0.3267 -0.8526
  450TIP3   OH222840   3.774   6.119   3.280 -0.2159  0.4008  0.0107
  450TIP3    H122841   3.865   6.142   3.263 -0.8220  3.7486  0.6413
  450TIP3    H222842   3.778   6.032   3.319  2.5519 -0.1347 -1.2467
  451TIP3   OH222843   6.049   2.488  16.072  0.2409  0.4282 -0.2381
  451TIP3    H122844   6.085   2.526  15.992  0.9022 -0.9575 -0.6193
  451TIP3    H222845   6.055   2.393  16.059 -0.6507  0.1741  1.0031
  452TIP3   OH222846   3.697   2.418   1.693  0.1784  0.6859 -0.3299
  452TIP3    H122847   3.661   2.344   1.644 -0.0802  0.1204  0.6900
  452TIP3    H222848   3.788   2.394   1.709 -0.3559 -0.2748  1.5493
  453TIP3   OH222849   5.616   1.278  15.027  0.0185  0.2413  1.0474
  453TIP3    H122850   5.523   1.256  15.023 -0.2279  1.3408 -0.1075
  453TIP3    H222851   5.617   1.374  15.031  1.1107  0.3688 -1.0243
  454TIP3   OH222852   0.779   3.533   5.447 -0.3303 -0.1424 -0.0422
  454TIP3    H122853   0.795   3.579   5.364  1.0609 -2.5815 -1.2383
  454TIP3    H222854   0.704   3.476   5.429 -1.0911  0.5088  0.9514
  455TIP3   OH222855   5.319   3.833   1.452  0.4588  0.0566  0.2779
  455TIP3    H122856   5.351   3.898   1.515  2.7505 -0.7391  0.0324
  455TIP3    H222857   5.356   3.751   1.483 -1.2070 -0.9362 -0.2364
  456TIP3   OH222858   4.001   1.021   1.464  0.5439  0.0281 -0.4135
  456TIP3    H122859   3.949   0.950   1.501  0.7509  0.6195  1.0613
  456TIP3    H222860   3.938   1.075   1.416  0.0300  0.0125  0.2384
  457TIP3   OH222861   5.331   1.453   2.808  0.6480  0.3065 -0.1040
  457TIP3    H122862   5.297   1.534   2.769 -1.9420 -1.4700 -1.8039
  457TIP3    H222863   5.404   1.428   2.752  0.4914  0.6752 -0.4825
  458TIP3   OH222864   0.366   6.584  16.309  0.3360 -0.2016 -0.6107
  458TIP3    H122865   0.383   6.522  16.239  2.2102  0.2254 -0.5864
  458TIP3    H222866   0.377   6.534  16.390  0.7700 -0.1013 -0.6038
  459TIP3   OH222867   0.645   4.071   5.090 -0.1276  0.1582  0.1472
  459TIP3    H122868   0.670   3.982   5.067  1.3920  0.9325 -1.4925
  459TIP3    H222869   0.609   4.108   5.009  2.7206  2.1112 -0.3938
  460TIP3   OH222870   2.448   5.000   0.469  0.3920  0.3123 -0.1348
  460TIP3    H122871   2.432   5.014   0.376 -0.1501  1.8089  0.1404
  460TIP3    H222872   2.475   5.086   0.502  1.4434 -0.3847  0.9351
  461TIP3   OH222873   5.914   4.545   4.094 -0.3136  0.5885 -0.1773
  461TIP3    H122874   5.877   4.474   4.042  2.6858 -0.2183 -1.4046
  461TIP3    H222875   5.851   4.616   4.085 -1.9453 -0.9252 -1.3900
  462TIP3   OH222876   5.593   0.593   2.588 -0.4486  0.1334  0.2967
  462TIP3    H122877   5.626   0.645   2.662 -1.0559  1.3312 -0.2559
  462TIP3    H222878   5.498   0.596   2.597 -0.4910 -1.0886  0.3763
  463TIP3   OH222879   4.495   3.001   4.592  0.7524 -0.0791  0.2081
  463TIP3    H122880   4.453   3.086   4.599 -1.4257 -1.1191  0.6504
  463TIP3    H222881   4.493   2.965   4.681 -0.4096 -1.4855 -0.3500
  464TIP3   OH222882   1.597   6.565  12.031  0.2968  0.3465  0.4364
  464TIP3    H122883   1.613   6.472  12.048 -0.0915  0.4647  1.4605
  464TIP3    H222884   1.617   6.608  12.113 -0.4640  1.0689  0.2494
  465TIP3   OH222885   3.266   1.349  10.813 -0.3539 -0.1591  0.1873
  465TIP3    H122886   3.235   1.364  10.902  1.5081 -2.2055  1.2857
  465TIP3    H222887   3.199   1.294  10.773 -0.5416 -0.4093  0.8277
  466TIP3   OH222888   0.331   3.772  16.028  0.5663  0.3927 -0.1087
  466TIP3    H122889   0.367   3.846  15.978  0.9638 -0.6379 -1.3887
  466TIP3    H222890   0.315   3.808  16.115 -0.9194  2.4908 -1.1567
  467TIP3   OH222891   4.114   4.118  14.669 -0.0594  0.2387  0.1600
  467TIP3    H122892   4.151   4.201  14.637 -2.1203  1.6200  1.1262
  467TIP3    H222893   4.040   4.101  14.611  0.1191 -0.7599  0.2009
  468TIP3   OH222894   0.507   1.974   1.556 -0.2326 -0.6259 -0.4843
  468TIP3    H122895   0.425   1.939   1.590 -0.2976 -0.2134 -0.2137
  468TIP3    H222896   0.492   2.068   1.549  1.4824  0.0983  3.2988
  469TIP3   OH222897   2.671   5.999   1.127  0.2658  0.6433 -0.3004
  469TIP3    H122898   2.582   5.966   1.138  0.6638 -0.1298  0.8406
  469TIP3    H222899   2.670   6.087   1.164  0.0956  0.4342  0.1943
  470TIP3   OH222900   6.247   1.630  14.145  0.0901 -0.1051  0.0018
  470TIP3    H122901   6.269   1.617  14.053 -1.0729  0.3248 -0.3617
  470TIP3    H222902   6.231   1.724  14.153  0.9260 -0.0130  0.8326
  471TIP3   OH222903   2.619   4.941  11.242  0.1709  0.2989  0.4369
  471TIP3    H122904   2.711   4.949  11.219  0.4801 -0.9222  1.1569
  471TIP3    H222905   2.574   4.939  11.157  1.1390 -2.5083 -0.1236
  472TIP3   OH222906   0.089   2.343  12.972 -0.1209  0.0271  0.1277
  472TIP3    H122907   0.010   2.351  12.919 -1.0325  1.2794  1.6174
  472TIP3    H222908   0.149   2.408  12.936  0.1154 -0.6406 -0.7365
  473TIP3   OH222909   5.518   0.061   4.680  0.2138 -0.2326  0.2370
  473TIP3    H122910   5.490  -0.030   4.689  1.0392 -0.5688 -0.4565
  473TIP3    H222911   5.518   0.095   4.769 -3.9132  0.3019  0.2332
  474TIP3   OH222912   4.615   1.936   0.300  0.1979 -0.5004 -0.2591
  474TIP3    H122913   4.682   1.901   0.242 -0.8373 -0.7872 -1.3142
  474TIP3    H222914   4.557   1.862   0.318 -0.5625  0.0401 -0.4144
  475TIP3   OH222915   5.016   1.917   1.421 -0.1191 -0.2599 -0.4508
  475TIP3    H122916   4.936   1.900   1.472 -0.9844  1.4320 -1.1764
  475TIP3    H222917   5.036   1.832   1.381 -1.3335 -0.8262  0.0654
  476TIP3   OH222918   2.187   2.750  12.377 -0.1523  0.4457  0.6127
  476TIP3    H122919   2.129   2.814  12.334 -0.5747 -0.5608 -0.3598
  476TIP3    H222920   2.235   2.802  12.441  0.6834  2.0921 -1.2137
  477TIP3   OH222921   1.831   4.713  15.254  0.1619  0.1221  0.5749
  477TIP3    H122922   1.814   4.624  15.285  0.2096  0.2812  1.0667
  477TIP3    H222923   1.879   4.701  15.173  2.5961 -0.3010  1.9954
  478TIP3   OH222924   2.235   1.958  15.824  0.2636  0.3176 -0.2064
  478TIP3    H122925   2.319   1.974  15.868  0.0225  0.4193  0.2320
  478TIP3    H222926   2.174   2.015  15.870 -0.4518 -1.2050  0.8142
  479TIP3   OH222927   4.536   0.817  14.059  0.5208  0.4526  0.1351
  479TIP3    H122928   4.608   0.839  14.118 -0.8975  2.2508  1.2836
  479TIP3    H222929   4.574   0.826  13.972  1.9081  0.5615  0.7173
  480TIP3   OH222930   1.935   4.557   1.657 -0.0414  0.6858  0.7911
  480TIP3    H122931   2.018   4.529   1.696  1.0173  3.9693  1.1917
  480TIP3    H222932   1.947   4.650   1.638 -2.4650  0.5386 -2.3478
  481TIP3   OH222933   0.875   3.797   3.453 -0.3233  0.2753 -0.4528
  481TIP3    H122934   0.863   3.882   3.497 -0.5450 -0.5137  1.0633
  481TIP3    H222935   0.786   3.769   3.430 -0.1506  1.1979 -2.5275
  482TIP3   OH222936   6.201   4.297  12.629 -0.0741 -0.3838  0.3761
  482TIP3    H122937   6.217   4.274  12.720 -0.6938 -0.4390  0.4683
  482TIP3    H222938   6.124   4.247  12.604  0.1070 -0.3922 -0.1902
  483TIP3   OH222939   0.479   4.200   1.633  0.3188  0.4374  0.1426
  483TIP3    H122940   0.483   4.105   1.627  0.7572  0.4370  0.3348
  483TIP3    H222941   0.494   4.231   1.544  0.8766  0.3344  0.1945
  484TIP3   OH222942   5.441   6.067  11.144  0.3275  0.6661  0.0702
  484TIP3    H122943   5.430   6.161  11.152  2.1449  0.7549  2.8271
  484TIP3    H222944   5.529   6.055  11.109  0.9231  0.0572  1.6631
  485TIP3   OH222945   5.595   2.691  15.212 -0.2080 -0.6799 -0.0762
  485TIP3    H122946   5.651   2.649  15.148  2.3205  0.0778  1.5049
  485TIP3    H222947   5.540   2.750  15.161  0.2443 -1.6276 -1.7215
  486TIP3   OH222948   3.888   2.815   3.344 -0.4249 -0.3783  0.2772
  486TIP3    H122949   3.974   2.809   3.385  0.7652  0.5954 -1.9128
  486TIP3    H222950   3.878   2.908   3.323 -1.2271 -0.7458 -1.0878
  487TIP3   OH222951   3.061   4.765   5.297  0.1824  0.1792  0.0317
  487TIP3    H122952   3.092   4.690   5.348  2.2100 -0.2759 -1.7184
  487TIP3    H222953   3.098   4.751   5.210 -2.2808  1.4593 -1.3116
  488TIP3   OH222954   1.093   3.460   1.775 -0.5305  0.1296 -0.3657
  488TIP3    H122955   1.126   3.481   1.863  1.4131 -0.9565 -0.7706
  488TIP3    H222956   1.050   3.541   1.747 -0.3473  0.8305  1.2093
  489TIP3   OH222957   5.676   2.948   6.185 -0.4040  0.4943 -0.2877
  489TIP3    H122958   5.734   2.875   6.207  0.2527  1.6624  2.2411
  489TIP3    H222959   5.598   2.934   6.238 -0.8129  0.9869 -0.7447
  490TIP3   OH222960   1.837   1.219  12.657 -1.0618 -0.1037  0.3473
  490TIP3    H122961   1.822   1.230  12.563 -2.5787 -0.6444  0.4989
  490TIP3    H222962   1.853   1.308  12.689  0.3344  0.0052 -0.5179
  491TIP3   OH222963   0.037   5.443   1.370 -0.5980  0.2050  1.0372
  491TIP3    H122964   0.033   5.529   1.328  0.8831  0.3231  1.0798
  491TIP3    H222965   0.113   5.448   1.428 -2.0464 -0.2741  3.0763
  492TIP3   OH222966   6.368   3.118  11.502 -0.0733  0.3353 -0.0673
  492TIP3    H122967   6.275   3.115  11.525 -0.0744 -0.5665 -0.1396
  492TIP3    H222968   6.375   3.063  11.424  0.7110 -0.6250  0.6627
  493TIP3   OH222969   0.483   6.246   0.821  0.5847 -0.1832  0.2172
  493TIP3    H122970   0.422   6.189   0.773  0.6052 -0.2125  0.2261
  493TIP3    H222971   0.537   6.286   0.754  0.7869 -0.4238  0.2321
  494TIP3   OH222972   0.493   0.948   3.789  0.2091 -0.1245 -0.0602
  494TIP3    H122973   0.437   1.008   3.837 -1.0251 -0.0019 -1.5903
  494TIP3    H222974   0.478   0.862   3.831  0.8992  0.3328  1.1993
  495TIP3   OH222975   0.571   3.160  14.729  0.7624  0.3072  0.3134
  495TIP3    H122976   0.615   3.081  14.699  1.1182  1.0154 -1.1489
  495TIP3    H222977   0.517   3.132  14.802 -0.4349 -1.6426 -1.2223
  496TIP3   OH222978   6.775   3.549   1.610 -0.1150  0.3975  0.0800
  496TIP3    H122979   6.866   3.523   1.595 -0.3735 -1.3486  1.1804
  496TIP3    H222980   6.754   3.609   1.539  0.5413 -2.5627 -2.8584
  497TIP3   OH222981   5.392   6.623  12.036 -0.0871 -0.2455  0.3096
  497TIP3    H122982   5.463   6.598  12.095 -0.3325  0.1795  0.7912
  497TIP3    H222983   5.316   6.634  12.093 -1.1654 -2.9495 -0.4442
  498TIP3   OH222984   3.034   3.998   5.248  0.9861 -0.0807  0.0524
  498TIP3    H122985   3.124   4.031   5.254  0.2426  2.2293 -0.4064
  498TIP3    H222986   2.980   4.072   5.276 -0.9225 -0.0856 -3.1763
  499TIP3   OH222987   6.162   5.556  16.079  0.1282 -0.4329 -1.0355
  499TIP3    H122988   6.226   5.571  16.009  1.3822  0.2914  0.2110
  499TIP3    H222989   6.181   5.468  16.111  2.3063  0.6568  1.0046
  500TIP3   OH222990   5.148   4.405  10.971 -0.5848 -0.5057  0.1830
  500TIP3    H122991   5.193   4.338  10.919  0.4430 -0.0981  0.5387
  500TIP3    H222992   5.218   4.456  11.011 -1.1884  2.6274 -2.3309
  501TIP3   OH222993   6.479   1.090  13.422  0.5361  0.4973  0.5529
  501TIP3    H122994   6.573   1.079  13.435  1.2349  1.2733 -2.9434
  501TIP3    H222995   6.471   1.149  13.347 -2.8014  1.7379  1.6730
  502TIP3   OH222996   0.462   5.769  12.784 -0.4637  0.4237 -0.1723
  502TIP3    H122997   0.434   5.860  12.776 -1.3762  0.3328  1.4281
  502TIP3    H222998   0.390   5.719  12.748 -0.4348  0.3058 -0.0663
  503TIP3   OH222999   5.679   2.352  11.663  0.1143 -0.4229  0.1396
  503TIP3    H123000   5.737   2.278  11.646 -1.6884 -1.5802 -1.5113
  503TIP3    H223001   5.663   2.390  11.577 -1.0870  0.2184  0.6248
  504TIP3   OH223002   4.956   5.586  12.687 -0.4720 -1.0301  0.6423
  504TIP3    H123003   4.929   5.677  12.681  0.1268 -0.9249 -0.6847
  504TIP3    H223004   4.880   5.536  12.657 -0.1924 -0.8711 -0.3514
  505TIP3   OH223005   5.827   1.045  16.291 -0.2325  0.1586  0.1637
  505TIP3    H123006   5.749   1.093  16.262 -0.4789 -0.9805 -1.1764
  505TIP3    H223007   5.827   0.966  16.238  2.1645  0.3969 -0.2996
  506TIP3   OH223008   5.667   5.093  12.369 -0.3172  0.6345  0.1134
  506TIP3    H123009   5.720   5.022  12.406  0.3158  0.5701 -0.8821
  506TIP3    H223010   5.620   5.052  12.296 -2.0424  0.6085  1.1774
  507TIP3   OH223011   2.190   6.543  10.824  0.5513 -0.0797  0.2269
  507TIP3    H123012   2.199   6.456  10.864 -0.7547 -0.0386  0.6516
  507TIP3    H223013   2.174   6.601  10.898 -0.8355  0.1614 -0.2398
  508TIP3   OH223014   1.753   1.667   6.914  0.2616 -0.1555 -0.2334
  508TIP3    H123015   1.753   1.630   6.826 -2.1332 -1.3322  0.1603
  508TIP3    H223016   1.828   1.627   6.958  0.6319 -0.6688 -1.3062
  509TIP3   OH223017   6.670   3.536   3.267 -0.1960 -0.4626  0.1509
  509TIP3    H123018   6.698   3.625   3.287  1.3839 -0.9663  0.3059
  509TIP3    H223019   6.641   3.540   3.175 -2.4682  0.7028  0.8532
  510TIP3   OH223020   4.898   3.891  16.846  0.4736 -0.1046  0.4045
  510TIP3    H123021   4.947   3.970  16.871 -0.4392  0.6077 -0.0064
  510TIP3    H223022   4.933   3.822  16.903  1.9102  0.3912  0.1707
  511TIP3   OH223023   3.530   1.692   3.572 -0.3439 -0.5512 -0.1036
  511TIP3    H123024   3.578   1.636   3.511 -1.9742 -1.7154 -0.3842
  511TIP3    H223025   3.597   1.733   3.626  0.9727 -1.6811 -0.8413
  512TIP3   OH223026   3.635   3.630  11.836 -0.2245 -0.2017  0.8285
  512TIP3    H123027   3.540   3.642  11.836  0.0457  2.7886 -0.6923
  512TIP3    H223028   3.662   3.649  11.746  1.6637 -3.2471  0.6028
  513TIP3   OH223029   5.679   3.378   1.429  0.1100 -0.2901  0.3101
  513TIP3    H123030   5.618   3.443   1.395  0.7647 -0.1700 -0.6665
  513TIP3    H223031   5.657   3.298   1.383  1.1557 -0.0707 -0.6044
  514TIP3   OH223032   5.360   0.362  11.746 -0.1637 -0.4201 -0.4455
  514TIP3    H123033   5.450   0.368  11.777  0.2400  1.8601 -1.8510
  514TIP3    H223034   5.323   0.449  11.762 -3.0936 -1.9814  2.6663
  515TIP3   OH223035   0.976   3.186   3.541 -0.0656 -0.0709 -0.5928
  515TIP3    H123036   1.025   3.242   3.600 -0.3928 -0.9839  0.5879
  515TIP3    H223037   1.032   3.177   3.464  0.8399  0.2862  0.0141
  516TIP3   OH223038   5.178   2.834  13.526 -0.0229  0.4355 -0.1290
  516TIP3    H123039   5.087   2.861  13.520 -0.2509 -0.5772 -1.6826
  516TIP3    H223040   5.227   2.916  13.521 -0.8183  0.9080 -0.3680
  517TIP3   OH223041   3.526   6.626  17.169  0.5465  0.0347  0.3327
  517TIP3    H123042   3.548   6.668  17.085  1.0213  0.9938  0.9200
  517TIP3    H223043   3.433   6.643  17.180  0.2892 -0.8012 -0.3701
  518TIP3   OH223044   6.225   6.418  16.657 -0.0342 -0.0198 -0.0360
  518TIP3    H123045   6.157   6.395  16.595 -1.2300  1.1343  0.7834
  518TIP3    H223046   6.237   6.340  16.711  0.6577 -0.8583 -1.3473
  519TIP3   OH223047   1.861   5.359   0.352  0.2852 -0.0430 -0.0485
  519TIP3    H123048   1.775   5.394   0.327  0.9272  2.0938  0.5378
  519TIP3    H223049   1.843   5.269   0.378 -1.4922 -0.1673 -1.5117
  520TIP3   OH223050   6.262   6.119  12.015 -0.0922  0.4701 -0.9660
  520TIP3    H123051   6.199   6.065  11.967  0.0863  0.4842 -1.2197
  520TIP3    H223052   6.244   6.209  11.986 -0.1851  0.5127 -0.7782
  521TIP3   OH223053   0.829   1.116   4.725 -0.1489  0.3214  0.5631
  521TIP3    H123054   0.779   1.065   4.788 -1.1007  0.0071 -0.4073
  521TIP3    H223055   0.906   1.063   4.707 -2.3107 -2.2044 -2.3619
  522TIP3   OH223056   2.153   4.536   2.316  0.0530  0.0540  0.3970
  522TIP3    H123057   2.179   4.465   2.256 -0.7301  0.2265 -0.1638
  522TIP3    H223058   2.058   4.528   2.322 -0.0673  1.1956  0.1571
  523TIP3   OH223059   1.103   2.689  11.731 -0.0777 -0.0265 -0.2041
  523TIP3    H123060   1.118   2.677  11.637 -1.9697  0.9769 -0.6938
  523TIP3    H223061   1.190   2.705  11.767  0.8258 -1.3746 -1.5991
  524TIP3   OH223062   6.098   2.466  13.546  0.1911 -0.3612 -0.1452
  524TIP3    H123063   6.022   2.520  13.568  1.2555  0.3296  2.0323
  524TIP3    H223064   6.173   2.513  13.581  1.3255 -2.5095  0.5197
  525TIP3   OH223065   6.200   1.182  14.336 -0.4371  0.0337 -0.1011
  525TIP3    H123066   6.130   1.191  14.401 -0.4500 -0.2781 -0.0709
  525TIP3    H223067   6.214   1.088  14.329  0.9344  0.1383  0.9067
  526TIP3   OH223068   5.676   4.610  11.989  0.0351  0.5101 -0.1444
  526TIP3    H123069   5.713   4.522  11.992  0.2855  0.5499 -1.3291
  526TIP3    H223070   5.711   4.654  12.067  1.7058  0.2324 -0.6871
  527TIP3   OH223071   3.100   4.260  13.997  0.1390 -0.0152  0.1214
  527TIP3    H123072   3.121   4.214  14.079  0.7115 -0.5765 -0.3223
  527TIP3    H223073   3.157   4.337  13.999 -0.4512  0.4215  0.6302
  528TIP3   OH223074   4.597   5.456   1.817  0.2190  0.4866 -0.1240
  528TIP3    H123075   4.630   5.367   1.827 -0.1348  0.3858  0.1831
  528TIP3    H223076   4.632   5.486   1.733  0.5292  0.1407 -0.1169
  529TIP3   OH223077   0.306   3.291  11.829 -0.4198 -0.1965 -0.0906
  529TIP3    H123078   0.238   3.353  11.854  1.0379  0.6581  2.1120
  529TIP3    H223079   0.350   3.270  11.912  1.5735 -1.2035 -1.3290
  530TIP3   OH223080   2.268   2.943  15.836  0.1280 -0.3421  0.3626
  530TIP3    H123081   2.351   2.928  15.790  0.3629  2.3517 -0.2826
  530TIP3    H223082   2.250   3.036  15.822 -2.8225 -0.7600  0.8365
  531TIP3   OH223083   1.962   3.955  13.693  0.1447 -0.1354  0.1969
  531TIP3    H123084   1.890   3.931  13.751 -0.1644  1.1651  0.3935
  531TIP3    H223085   1.975   4.049  13.708 -1.0466  0.6749 -2.9982
  532TIP3   OH223086   4.313   2.766  14.543 -0.6904  0.6224  0.4424
  532TIP3    H123087   4.323   2.850  14.499  0.5956 -0.1304 -0.8075
  532TIP3    H223088   4.218   2.753  14.548 -0.8927  1.6853 -0.2894
  533TIP3   OH223089   4.020   1.569  11.270 -0.3294  0.2071  0.1312
  533TIP3    H123090   3.932   1.606  11.258 -0.9435 -1.2663 -0.1636
  533TIP3    H223091   4.064   1.585  11.187 -1.3041 -1.4886 -0.7762
  534TIP3   OH223092   4.283   4.587   5.255 -0.4861 -0.0897  0.2786
  534TIP3    H123093   4.193   4.611   5.280  0.0163  0.6445  1.4404
  534TIP3    H223094   4.338   4.622   5.325  0.8336  0.5406 -1.0136
  535TIP3   OH223095   2.809   5.556  10.847  0.6221  0.1509 -0.6112
  535TIP3    H123096   2.716   5.571  10.866  0.3312 -0.2678 -1.6468
  535TIP3    H223097   2.819   5.461  10.856  0.8133  0.1262 -1.0791
  536TIP3   OH223098   0.314   0.198   3.870  0.0354 -0.0014  0.3585
  536TIP3    H123099   0.227   0.158   3.868  0.2801 -0.5572 -1.3294
  536TIP3    H223100   0.347   0.187   3.781  2.0620 -0.2750  1.0884
  537TIP3   OH223101   6.729   4.282  16.301  0.0572 -0.2521  0.0425
  537TIP3    H123102   6.764   4.312  16.216 -0.3015  0.2178  0.0589
  537TIP3    H223103   6.802   4.235  16.341  1.0002  1.5179  0.4816
  538TIP3   OH223104   3.709   5.324  12.145  0.1609  0.0764  0.1971
  538TIP3    H123105   3.712   5.284  12.058 -1.0920 -1.0254  0.6298
  538TIP3    H223106   3.708   5.250  12.205  0.7892  0.8283  1.1581
  539TIP3   OH223107   1.069   4.744   0.709 -0.2919  0.2711  0.6360
  539TIP3    H123108   0.975   4.735   0.725 -0.7313  1.9788 -0.6526
  539TIP3    H223109   1.087   4.679   0.641 -0.8425  0.8309 -0.0637
  540TIP3   OH223110   4.106   5.681   4.657 -0.6533  0.2669  0.3255
  540TIP3    H123111   4.148   5.734   4.725 -1.1432 -0.0555  0.8917
  540TIP3    H223112   4.082   5.600   4.701  0.8013 -0.7830 -0.7216
  541TIP3   OH223113   5.380   5.604   3.822  0.3132 -0.0079  0.2584
  541TIP3    H123114   5.319   5.640   3.757  1.4711  0.7451 -0.4641
  541TIP3    H223115   5.451   5.668   3.826 -0.5821  0.9432  3.7212
  542TIP3   OH223116   1.646   1.175  12.351 -0.4118  0.0810 -0.2536
  542TIP3    H123117   1.703   1.249  12.369 -1.0542  0.6164 -0.3865
  542TIP3    H223118   1.563   1.196  12.394 -0.8529 -0.1944 -0.9431
  543TIP3   OH223119   5.378   5.316   3.832  0.0394 -0.2294 -1.1110
  543TIP3    H123120   5.369   5.411   3.829 -0.3840 -0.2806 -1.5619
  543TIP3    H223121   5.288   5.283   3.826 -0.1550 -0.6108  1.9133
  544TIP3   OH223122   6.809   0.536   0.753  0.2311  0.0570 -0.6233
  544TIP3    H123123   6.835   0.447   0.730  0.7671 -0.1887  0.8583
  544TIP3    H223124   6.756   0.565   0.679 -0.1398 -1.5767 -1.0354
  545TIP3   OH223125   0.026   3.872  13.688  0.0073 -0.6231  0.3316
  545TIP3    H123126  -0.053   3.885  13.741 -1.1442  2.1466 -1.7699
  545TIP3    H223127   0.095   3.852  13.751 -1.4306  1.5551  2.7994
  546TIP3   OH223128   1.361   3.791   2.578  0.0392 -0.0013 -0.7242
  546TIP3    H123129   1.381   3.885   2.569  0.1241 -0.0892 -1.5173
  546TIP3    H223130   1.268   3.784   2.557  0.4520 -0.3397 -2.5436
  547TIP3   OH223131   0.682   2.672  14.917  0.0213  0.4191 -0.0737
  547TIP3    H123132   0.676   2.735  14.989 -0.8592  1.9123 -1.4074
  547TIP3    H223133   0.769   2.685  14.880 -0.2011  0.9252 -0.4165
  548TIP3   OH223134   3.533   5.907   0.512 -0.2071 -0.1990  0.1225
  548TIP3    H123135   3.491   5.822   0.498 -0.9470 -0.1840  2.0331
  548TIP3    H223136   3.489   5.965   0.449  2.1052 -1.6454 -3.1189
  549TIP3   OH223137   3.023   5.626   3.183 -0.2057 -0.0773 -0.6346
  549TIP3    H123138   3.049   5.668   3.101 -0.5799  0.5273 -0.4550
  549TIP3    H223139   3.029   5.532   3.166  3.4876 -0.0705 -0.1930
  550TIP3   OH223140   3.686   3.713   0.851  0.0021  0.9937  0.8814
  550TIP3    H123141   3.770   3.753   0.876  0.2994  0.5834  0.5664
  550TIP3    H223142   3.701   3.682   0.762 -0.8405  1.8719  0.4287
  551TIP3   OH223143   4.188   5.784  14.860 -0.4210  1.0328  0.5660
  551TIP3    H123144   4.136   5.858  14.827 -0.4761  0.1312 -1.5149
  551TIP3    H223145   4.275   5.799  14.824 -1.0799 -1.2978 -2.3515
  552TIP3   OH223146   2.910   6.197   4.212 -0.2569  0.5467  0.2836
  552TIP3    H123147   2.928   6.128   4.276 -2.4143 -0.7654 -0.3807
  552TIP3    H223148   2.819   6.221   4.228  0.1592  2.5563 -0.1754
  553TIP3   OH223149   6.030   5.549   0.761 -0.6404 -0.5317 -0.2591
  553TIP3    H123150   6.026   5.582   0.672 -0.1618  1.1083  0.2915
  553TIP3    H223151   6.017   5.626   0.817  0.7794 -1.1911  1.0921
  554TIP3   OH223152   5.458   3.312   3.301 -0.3340  0.0439  0.2000
  554TIP3    H123153   5.506   3.272   3.228  0.2567 -0.9752  1.1276
  554TIP3    H223154   5.405   3.241   3.336  0.4898  0.1314  1.6817
  555TIP3   OH223155   0.684   3.581   1.792 -0.2266 -0.4130  0.6015
  555TIP3    H123156   0.698   3.573   1.886  0.5407  0.0052  0.5298
  555TIP3    H223157   0.759   3.630   1.760 -0.0231 -1.3026 -0.3640
  556TIP3   OH223158   6.232   5.988  14.072  0.3993 -0.2952  0.1754
  556TIP3    H123159   6.323   5.961  14.065 -0.3175 -2.4782 -2.0890
  556TIP3    H223160   6.199   5.987  13.982 -2.2961 -1.3395  1.0550
  557TIP3   OH223161   2.506   5.567  11.040  0.2156 -0.4868  0.0386
  557TIP3    H123162   2.556   5.576  11.121  0.8623 -0.8979 -0.3034
  557TIP3    H223163   2.487   5.657  11.014 -1.1559 -0.3682  1.3333
  558TIP3   OH223164   6.218   0.153   4.903  0.6323 -0.6183 -0.8983
  558TIP3    H123165   6.150   0.156   4.971  1.4331  0.3074 -0.1024
  558TIP3    H223166   6.240   0.060   4.896  0.3208 -0.7618 -0.1074
  559TIP3   OH223167   4.161   1.593  13.755 -0.2411 -0.7234  0.4811
  559TIP3    H123168   4.086   1.630  13.803 -1.6834 -1.7316 -0.8859
  559TIP3    H223169   4.143   1.615  13.663  2.0504  0.4779  0.2501
  560TIP3   OH223170   4.089   2.723  15.194 -0.4010 -0.3139  0.5525
  560TIP3    H123171   4.179   2.754  15.184 -0.3243 -0.8329 -0.5069
  560TIP3    H223172   4.087   2.681  15.280  0.4739 -0.6289  0.4259
  561TIP3   OH223173   5.548   5.448  16.403  0.2811  0.4392  0.3434
  561TIP3    H123174   5.470   5.428  16.353 -0.1478  0.1299  1.1169
  561TIP3    H223175   5.557   5.375  16.464 -0.0203  1.4895  1.6897
  562TIP3   OH223176   2.443   1.462   5.353 -0.5961  0.0723 -0.0573
  562TIP3    H123177   2.458   1.431   5.264 -0.0560  0.3940 -0.0809
  562TIP3    H223178   2.508   1.415   5.406  1.6900  2.6347 -0.3905
  563TIP3   OH223179   0.164   2.295  12.104 -0.7589 -0.1157  0.8415
  563TIP3    H123180   0.142   2.280  12.013 -2.1143  1.4372  0.8641
  563TIP3    H223181   0.242   2.350  12.101  0.3476 -1.6516  0.6775
  564TIP3   OH223182   1.808   6.233  11.809  0.4517  0.4528 -0.5881
  564TIP3    H123183   1.865   6.310  11.811  2.0238 -0.6166 -1.5888
  564TIP3    H223184   1.796   6.214  11.716  0.8641 -1.0307 -0.3713
  565TIP3   OH223185   6.278   2.716   4.271  0.5673 -0.5160 -0.3259
  565TIP3    H123186   6.266   2.622   4.279 -0.4841 -0.3531  0.2765
  565TIP3    H223187   6.210   2.743   4.209 -0.2259  0.0487  0.7588
  566TIP3   OH223188   5.267   0.631   3.198  0.0270 -0.1302  0.0891
  566TIP3    H123189   5.347   0.610   3.246  0.4074  2.0411  0.4972
  566TIP3    H223190   5.197   0.589   3.250  0.7449 -0.6990  0.6157
  567TIP3   OH223191   2.761   4.182  11.340 -0.4363 -0.2457 -0.3560
  567TIP3    H123192   2.770   4.216  11.429  0.3255 -1.3093 -0.0018
  567TIP3    H223193   2.793   4.252  11.284 -1.0183  0.4718  0.1901
  568TIP3   OH223194   4.636   1.774  16.787 -0.1061 -0.5306 -0.0413
  568TIP3    H123195   4.623   1.860  16.826 -0.2600 -0.8197  0.5439
  568TIP3    H223196   4.698   1.790  16.715 -0.1042  0.0599  0.0875
  569TIP3   OH223197   0.172   1.651  15.764 -0.1860 -0.2623  0.3455
  569TIP3    H123198   0.087   1.624  15.798 -2.6871 -0.4283 -5.0363
  569TIP3    H223199   0.223   1.570  15.759  0.1243 -0.2856  2.9012
  570TIP3   OH223200   0.098   1.097  11.646 -0.3856 -0.3942  0.2759
  570TIP3    H123201   0.062   1.092  11.558  0.0964 -0.6744  0.0925
  570TIP3    H223202   0.193   1.096  11.634 -0.2141  2.3092  0.6140
  571TIP3   OH223203   4.818   1.932  15.846 -0.2697  0.1738  0.2551
  571TIP3    H123204   4.855   1.979  15.771 -0.1867 -1.5340 -0.8471
  571TIP3    H223205   4.892   1.885  15.884 -0.5905 -0.1706  0.4657
  572TIP3   OH223206   3.004   0.956   1.556 -0.6883  0.0109 -0.1936
  572TIP3    H123207   3.056   0.885   1.595  0.6746  0.7184 -0.6756
  572TIP3    H223208   2.914   0.924   1.561 -0.1778 -1.4686  0.2143
  573TIP3   OH223209   3.147   6.572   2.918 -0.9538  0.4297  0.2534
  573TIP3    H123210   3.153   6.495   2.861 -1.5766  0.2635  0.4058
  573TIP3    H223211   3.213   6.632   2.883 -2.3498  0.9497 -1.6215
  574TIP3   OH223212   3.642   6.109  14.961  0.0952  0.2071 -0.6083
  574TIP3    H123213   3.718   6.148  15.004  0.6848  0.2239 -1.6180
  574TIP3    H223214   3.606   6.180  14.908  0.1212 -0.1252 -1.0844
  575TIP3   OH223215   0.288   5.908   0.715 -0.3583  0.2229  0.3641
  575TIP3    H123216   0.255   5.947   0.634  0.1669  0.8430  0.4446
  575TIP3    H223217   0.376   5.878   0.693 -0.0415  0.7951  0.8204
  576TIP3   OH223218   5.568   1.907  15.528  0.2570  0.1990  0.3025
  576TIP3    H123219   5.528   1.844  15.588 -0.3165  0.9789  0.7522
  576TIP3    H223220   5.586   1.984  15.582 -1.3960  1.3869 -0.7565
  577TIP3   OH223221   1.573   6.095   1.909  0.0319 -0.7238 -0.6447
  577TIP3    H123222   1.491   6.123   1.868  1.0119  0.9530 -1.5508
  577TIP3    H223223   1.590   6.162   1.975 -0.3452 -2.1798  1.0206
  578TIP3   OH223224   3.320   0.300  16.069  0.3739  0.1278 -0.0273
  578TIP3    H123225   3.397   0.350  16.043  1.7949 -2.4856 -1.2716
  578TIP3    H223226   3.290   0.258  15.988 -0.3720 -1.4549  1.0129
  579TIP3   OH223227   4.385   0.243  12.242 -0.3901  0.5999  0.3511
  579TIP3    H123228   4.466   0.293  12.235 -0.4946  0.7201 -0.0518
  579TIP3    H223229   4.384   0.188  12.164  0.3359 -0.9810  1.4095
  580TIP3   OH223230   1.348   2.080  14.197  0.2500 -0.8963 -0.8112
  580TIP3    H123231   1.394   2.000  14.172 -0.7354 -0.7327 -3.4314
  580TIP3    H223232   1.419   2.145  14.209  1.0237 -2.0035  1.0051
  581TIP3   OH223233   1.795   5.415   0.695 -0.7083 -0.5630 -0.0588
  581TIP3    H123234   1.766   5.416   0.604 -2.0096 -0.7826  0.3295
  581TIP3    H223235   1.887   5.441   0.692 -0.5290 -1.2854 -1.5037
  582TIP3   OH223236   1.821   1.799  12.632  0.4143 -0.2773 -0.4162
  582TIP3    H123237   1.834   1.765  12.721  1.9590  0.0028 -0.4996
  582TIP3    H223238   1.835   1.722  12.576 -0.1024 -0.3555 -0.4406
  583TIP3   OH223239   6.304   1.752   1.372  0.1313 -0.1855 -0.3431
  583TIP3    H123240   6.294   1.791   1.285  0.6771 -0.0640 -0.3551
  583TIP3    H223241   6.235   1.792   1.425  0.2992  0.3419 -0.5160
  584TIP3   OH223242   3.539   5.821  16.785  0.2059  0.5754 -0.4774
  584TIP3    H123243   3.464   5.792  16.734 -0.5325  0.5767  0.5931
  584TIP3    H223244   3.604   5.751  16.774  0.2689  0.8250 -1.8335
  585TIP3   OH223245   5.187   1.523   3.434 -0.5895 -0.4658  0.0401
  585TIP3    H123246   5.246   1.558   3.367  0.3983  0.6038  1.4059
  585TIP3    H223247   5.113   1.584   3.434 -0.2726 -0.0706  0.3589
  586TIP3   OH223248   1.172   0.611   3.857 -0.3212 -0.1647  0.6202
  586TIP3    H123249   1.176   0.542   3.791  1.6939  0.5868 -0.1242
  586TIP3    H223250   1.080   0.613   3.884 -0.8304 -1.7461 -0.8068
  587TIP3   OH223251   2.694   1.768   3.512 -0.8569  0.0808 -0.0620
  587TIP3    H123252   2.788   1.750   3.510 -1.3362 -3.0502 -0.3301
  587TIP3    H223253   2.685   1.843   3.571  1.6934 -0.5924  1.3583
  588TIP3   OH223254   0.949   3.012   4.465 -0.0864  0.1282  0.3725
  588TIP3    H123255   0.854   3.000   4.474  0.0938 -2.7409 -0.5675
  588TIP3    H223256   0.960   3.047   4.377 -0.2911  1.2358  0.7747
  589TIP3   OH223257   6.154   0.848  13.718  0.2739 -0.2718  0.1776
  589TIP3    H123258   6.076   0.869  13.666 -1.3123 -0.3506  2.3739
  589TIP3    H223259   6.223   0.903  13.681 -0.9077  0.1427 -1.5604
  590TIP3   OH223260   0.472   4.672  14.101 -0.1756  0.4190  0.3002
  590TIP3    H123261   0.467   4.678  14.197 -0.4087  0.6361  0.2739
  590TIP3    H223262   0.381   4.666  14.073 -0.1244  0.7983  0.0597
  591TIP3   OH223263   0.197   3.075  16.095 -0.0880  0.6251  0.1889
  591TIP3    H123264   0.272   3.052  16.040  0.4923  0.6867  0.9312
  591TIP3    H223265   0.194   3.006  16.161 -0.6557  0.6546  0.1985
  592TIP3   OH223266   5.653   1.438   1.323  0.3602  0.2940 -0.2995
  592TIP3    H123267   5.709   1.374   1.367  2.5535  1.1318 -1.6971
  592TIP3    H223268   5.627   1.498   1.393  0.6567 -0.4910  0.5099
  593TIP3   OH223269   3.650   4.414  10.539  0.0516  0.0799 -0.1793
  593TIP3    H123270   3.708   4.468  10.592  0.7952 -0.5434 -0.3475
  593TIP3    H223271   3.574   4.470  10.523  0.6934  0.9860 -0.1453
  594TIP3   OH223272   4.426   2.496   3.305  0.4026  0.3646  0.0479
  594TIP3    H123273   4.467   2.480   3.390 -0.5463  0.2015  0.4834
  594TIP3    H223274   4.489   2.551   3.258  0.5055  1.2726  1.2216
  595TIP3   OH223275   3.708   3.204  11.298 -0.6605 -0.1110  0.5456
  595TIP3    H123276   3.778   3.265  11.320  0.9799 -0.7877 -2.2954
  595TIP3    H223277   3.679   3.230  11.211 -1.1725 -2.2480  0.0098
  596TIP3   OH223278   6.725   6.007   0.424  0.1277  0.2040 -0.3273
  596TIP3    H123279   6.684   6.064   0.489 -0.6108  1.4206 -1.8011
  596TIP3    H223280   6.812   5.989   0.460 -0.5428  0.1372  1.3767
  597TIP3   OH223281   5.529   4.243  12.198  0.7703  0.0676  0.8346
  597TIP3    H123282   5.477   4.185  12.254 -0.2249 -0.6380 -0.7386
  597TIP3    H223283   5.477   4.324  12.194 -0.0337 -0.4773 -0.3717
  598TIP3   OH223284   6.232   2.712  11.538  0.6711 -0.1772 -0.1281
  598TIP3    H123285   6.287   2.695  11.615  0.3111 -0.3036  0.1045
  598TIP3    H223286   6.194   2.627  11.517  1.2984 -0.2925 -0.8703
  599TIP3   OH223287   3.569   3.134   1.393 -0.4601 -0.7898  0.6455
  599TIP3    H123288   3.500   3.197   1.417 -0.7646 -0.9886  0.3124
  599TIP3    H223289   3.603   3.167   1.310 -0.1070 -0.6580  0.8415
  600TIP3   OH223290   3.145   3.197   4.922  0.1211  0.4089 -0.2453
  600TIP3    H123291   3.238   3.192   4.946 -0.4045 -1.2604  1.7408
  600TIP3    H223292   3.114   3.278   4.960  0.3732  0.0632  0.7176
  601TIP3   OH223293   5.917   3.083   1.052 -0.3242  0.5212 -0.0645
  601TIP3    H123294   5.967   3.002   1.059 -0.6266  0.4617  2.3064
  601TIP3    H223295   5.835   3.057   1.010 -0.0635 -0.2333 -0.1091
  602TIP3   OH223296   2.070   3.972   5.207  0.5232  0.0674 -0.7263
  602TIP3    H123297   2.133   3.987   5.277 -0.0953  0.4065 -0.2353
  602TIP3    H223298   2.016   4.051   5.206 -0.2091 -0.4214 -0.8125
  603TIP3   OH223299   2.742   4.625  11.565 -0.3901  0.5730  0.3984
  603TIP3    H123300   2.671   4.674  11.523  0.6161  0.4970 -1.4848
  603TIP3    H223301   2.731   4.535  11.535  0.2350  0.4740  0.4448
  604TIP3   OH223302   1.273   4.156   3.975  0.2753  0.1510  0.0558
  604TIP3    H123303   1.320   4.129   3.896  3.3164 -0.1765  1.8449
  604TIP3    H223304   1.265   4.251   3.966  0.0891  0.0610 -0.8701
  605TIP3   OH223305   5.407   6.708   6.141  0.5812  0.3093  0.5181
  605TIP3    H123306   5.376   6.781   6.195  1.4000  0.1719  1.1937
  605TIP3    H223307   5.484   6.675   6.188  1.2682  0.1421 -0.7007
  606TIP3   OH223308   0.922   0.369  16.999 -0.3843  0.2560  0.1168
  606TIP3    H123309   0.875   0.353  17.081  0.3410 -0.1317  0.4606
  606TIP3    H223310   0.991   0.303  16.997 -1.1336 -0.5413 -1.3952
  607TIP3   OH223311   4.083   2.036  16.167 -0.1418  0.1281 -0.0613
  607TIP3    H123312   4.113   2.127  16.167 -1.4304  0.5956  1.6421
  607TIP3    H223313   4.154   1.988  16.210 -0.5537  0.7592  1.3522
  608TIP3   OH223314   2.648   1.503   2.114  0.9176  0.3528  0.8649
  608TIP3    H123315   2.636   1.597   2.128 -1.5723  0.4084 -0.8535
  608TIP3    H223316   2.689   1.496   2.028 -2.4102 -0.0193 -0.8735
  609TIP3   OH223317   0.971   4.923  17.272 -0.2725 -0.3467 -0.4879
  609TIP3    H123318   0.952   4.942  17.180 -2.0232  0.3440 -0.0186
  609TIP3    H223319   0.968   5.009  17.316 -1.5755 -0.8949  0.5555
  610TIP3   OH223320   2.552   1.398  14.817  0.6504 -0.6043 -0.0519
  610TIP3    H123321   2.608   1.372  14.744  0.9196  1.7872 -0.7971
  610TIP3    H223322   2.606   1.382  14.895  0.7305 -2.2577 -0.4168
  611TIP3   OH223323   6.473   6.791  17.062  0.0129  0.0404 -0.2178
  611TIP3    H123324   6.415   6.763  17.133  0.9793  1.7264  1.3491
  611TIP3    H223325   6.544   6.727  17.061 -0.7607 -0.8243 -0.6933
  612TIP3   OH223326   1.137   0.481  17.189  0.1648  0.2105 -0.1634
  612TIP3    H123327   1.052   0.459  17.150 -0.4240 -0.3808  1.3969
  612TIP3    H223328   1.155   0.410  17.251  2.5717 -0.5240 -1.5548
  613TIP3   OH223329   4.850   3.102   5.096 -0.0121 -0.4113  0.1593
  613TIP3    H123330   4.830   3.186   5.138  0.9529  0.6691 -1.4264
  613TIP3    H223331   4.773   3.048   5.112 -0.1263  0.2969  2.3321
  614TIP3   OH223332   3.443   0.662  16.650 -0.1037  0.2409  0.5274
  614TIP3    H123333   3.397   0.731  16.602 -1.0964 -0.1733  0.8661
  614TIP3    H223334   3.404   0.581  16.620 -0.5149 -0.0485  1.7635
  615TIP3   OH223335   1.052   2.932   3.621 -0.4887  0.3432  0.1019
  615TIP3    H123336   1.044   2.940   3.716 -1.5356  0.5869  0.0077
  615TIP3    H223337   1.032   3.020   3.588  0.1063  0.3194 -0.3340
  616TIP3   OH223338   5.661   6.365   4.594  0.5503  0.1016 -0.4415
  616TIP3    H123339   5.624   6.300   4.653  0.4872  1.1323  0.6978
  616TIP3    H223340   5.587   6.393   4.539  0.1999  0.3806  0.1658
  617TIP3   OH223341   6.697   1.373   5.272  0.6494  0.1125  0.1557
  617TIP3    H123342   6.748   1.399   5.196 -1.8919  0.6576 -1.4704
  617TIP3    H223343   6.733   1.427   5.344  1.4158  1.5064 -1.2039
  618TIP3   OH223344   3.368   0.208  15.652 -0.4737  0.3786  0.2411
  618TIP3    H123345   3.451   0.187  15.696  0.1306  1.2660 -0.4194
  618TIP3    H223346   3.335   0.285  15.698 -0.5413  0.4792  0.0267
  619TIP3   OH223347   3.035   0.069  16.676  0.8349 -0.1320  0.2617
  619TIP3    H123348   3.037   0.146  16.619  2.5289 -0.1675  0.2221
  619TIP3    H223349   3.092   0.005  16.633  0.9204 -0.7295  1.2232
  620TIP3   OH223350   2.445   3.571  16.278  0.8765 -0.2199 -0.7025
  620TIP3    H123351   2.525   3.622  16.291  1.3077 -0.5915 -1.8214
  620TIP3    H223352   2.412   3.599  16.193 -0.8722  0.8246  0.2608
  621TIP3   OH223353   3.696   0.668   0.891  0.3407 -0.4104 -0.0401
  621TIP3    H123354   3.615   0.718   0.900  0.5413 -0.3586  1.8468
  621TIP3    H223355   3.696   0.639   0.800 -1.5826 -0.0461 -0.2046
  622TIP3   OH223356   5.754   1.306  13.373  0.3925  0.2634  0.8215
  622TIP3    H123357   5.694   1.349  13.312 -0.6841  0.1624  1.7813
  622TIP3    H223358   5.793   1.235  13.322  1.2685  1.5895 -0.4128
  623TIP3   OH223359   2.995   6.175   3.093 -0.1877  0.1429 -0.2610
  623TIP3    H123360   3.005   6.268   3.115  0.0987  0.0183  0.1306
  623TIP3    H223361   2.991   6.130   3.177  1.6225 -0.4065 -0.4204
  624TIP3   OH223362   6.583   4.415   2.775 -0.4468 -0.4267 -0.3345
  624TIP3    H123363   6.513   4.461   2.822  2.0594  0.3404  3.0650
  624TIP3    H223364   6.579   4.326   2.809  0.5852 -0.1893  0.4825
  625TIP3   OH223365   4.436   3.345  16.424 -0.1832 -0.2548  0.0063
  625TIP3    H123366   4.387   3.421  16.391  1.3180  0.2103 -1.2520
  625TIP3    H223367   4.417   3.275  16.362  0.5240 -0.1426 -0.3461
  626TIP3   OH223368   4.498   6.085   1.692 -0.3130  0.1265 -0.1125
  626TIP3    H123369   4.485   6.040   1.775 -1.4143 -0.0136 -0.3542
  626TIP3    H223370   4.555   6.159   1.714 -3.8638  2.6348  1.6745
  627TIP3   OH223371   6.751   5.644   5.561  0.7171  0.0497  0.0772
  627TIP3    H123372   6.712   5.673   5.478  0.9626  0.3951  0.0804
  627TIP3    H223373   6.688   5.671   5.628  0.4292 -0.3944 -0.0084
  628TIP3   OH223374   5.895   1.837  14.808  0.1129 -0.3985  0.0726
  628TIP3    H123375   5.898   1.841  14.713  0.4963 -3.4736 -0.1194
  628TIP3    H223376   5.964   1.776  14.833 -0.8847 -0.7607  2.2300
  629TIP3   OH223377   0.625   3.233  12.537 -0.2790  0.6453 -0.0852
  629TIP3    H123378   0.562   3.269  12.599 -1.0390  0.1708 -0.5661
  629TIP3    H223379   0.646   3.146  12.572 -0.9209  0.2641 -0.6264
  630TIP3   OH223380   1.041   3.317  14.111 -0.2628  0.9630 -0.3056
  630TIP3    H123381   1.039   3.350  14.201 -1.2243 -0.6336  0.2994
  630TIP3    H223382   1.134   3.301  14.094  0.0716  2.5175 -0.1079
  631TIP3   OH223383   3.679   6.808   4.060 -0.1488 -0.2896 -0.1392
  631TIP3    H123384   3.680   6.811   4.156  0.3943 -1.9234 -0.0549
  631TIP3    H223385   3.761   6.764   4.037 -0.6506 -0.6600 -1.3048
  632TIP3   OH223386   4.589   0.315  13.139  0.4840 -0.2391 -0.0574
  632TIP3    H123387   4.640   0.368  13.077  1.5140 -1.8013 -0.6114
  632TIP3    H223388   4.498   0.338  13.121  0.8047 -0.0461 -1.6040
  633TIP3   OH223389   0.560   0.077  14.792  0.5247  0.4171 -0.0975
  633TIP3    H123390   0.595   0.153  14.839  1.9591  0.2814 -0.8919
  633TIP3    H223391   0.465   0.086  14.799  0.6473  2.4803 -0.4474
  634TIP3   OH223392   4.930   6.691   0.893 -0.0796  0.3201 -0.3609
  634TIP3    H123393   4.919   6.769   0.838  0.7703  0.6527 -0.0823
  634TIP3    H223394   4.856   6.694   0.954  0.4965  1.5112  0.3323
  635TIP3   OH223395   3.715   2.835   0.587  0.0840 -0.4029  0.6437
  635TIP3    H123396   3.706   2.839   0.491  0.6967 -3.1477  0.3822
  635TIP3    H223397   3.641   2.781   0.615  0.6677 -0.7630  1.5395
  636TIP3   OH223398   4.119   1.333  16.128  0.4972  0.3220 -0.3600
  636TIP3    H123399   4.112   1.425  16.103  0.6205  0.6334  0.6967
  636TIP3    H223400   4.028   1.304  16.137  0.4605  0.5907  0.1636
  637TIP3   OH223401   5.177   5.159   2.472 -0.1110  0.3357 -0.0382
  637TIP3    H123402   5.132   5.088   2.518 -0.7979  1.4307  1.0489
  637TIP3    H223403   5.249   5.117   2.426 -1.2103 -1.2311 -0.4034
  638TIP3   OH223404   4.935   1.468   0.608 -0.0012  0.3063 -0.0972
  638TIP3    H123405   5.019   1.497   0.572  0.0400  2.3944  1.5296
  638TIP3    H223406   4.871   1.490   0.540  0.5516  0.1481 -0.6858
  639TIP3   OH223407   1.569   5.478  13.556 -0.3585  0.3827  0.1178
  639TIP3    H123408   1.474   5.486  13.545 -0.2880  1.9300  0.3344
  639TIP3    H223409   1.604   5.491  13.468 -0.2898  1.9398  0.3321
  640TIP3   OH223410   3.577   6.115  11.448  0.1765  0.1431 -0.1877
  640TIP3    H123411   3.589   6.079  11.536 -2.0200  0.0938  0.1317
  640TIP3    H223412   3.594   6.041  11.389  0.0479 -0.2535  0.2720
  641TIP3   OH223413   1.569   5.542  15.993  0.2074 -0.1517 -0.2962
  641TIP3    H123414   1.497   5.599  15.964 -0.6176 -1.7737 -1.5726
  641TIP3    H223415   1.628   5.601  16.040 -0.8488  1.6662 -1.1281
  642TIP3   OH223416   1.759   0.978   2.247 -0.0105  0.4747  0.2375
  642TIP3    H123417   1.737   1.066   2.216  0.1404  0.5100  0.2304
  642TIP3    H223418   1.714   0.969   2.331 -1.3803 -0.0480 -0.5185
  643TIP3   OH223419   1.079   1.106   3.616 -0.2153  0.4014  0.1204
  643TIP3    H123420   1.114   1.026   3.577 -2.7231  0.0531 -1.6399
  643TIP3    H223421   1.152   1.141   3.668  1.8699 -1.4763 -1.3508
  644TIP3   OH223422   6.468   5.276   2.209  0.2258 -0.3675  0.5833
  644TIP3    H123423   6.480   5.329   2.289 -1.0709 -0.9703  1.2018
  644TIP3    H223424   6.469   5.186   2.241  0.8074 -0.6590 -0.2503
  645TIP3   OH223425   1.330   0.922   4.437 -0.0593 -0.6097 -0.2660
  645TIP3    H123426   1.321   0.838   4.481 -0.2446 -0.6054 -0.2954
  645TIP3    H223427   1.396   0.969   4.487 -0.1187 -0.6854 -0.1168
  646TIP3   OH223428   1.926   4.641   4.795  0.3204 -0.4035  0.3285
  646TIP3    H123429   1.993   4.573   4.789  1.5394  0.8643 -1.1988
  646TIP3    H223430   1.892   4.650   4.706  1.4134  2.1198  0.0836
  647TIP3   OH223431   6.085   6.675  13.283 -0.1829  0.2758  0.8278
  647TIP3    H123432   6.076   6.766  13.312  0.4204  0.6478 -0.1045
  647TIP3    H223433   6.179   6.660  13.282 -0.2492 -0.1176  0.2554
  648TIP3   OH223434   5.037   4.604   0.336  0.4615  0.2953 -0.0181
  648TIP3    H123435   5.004   4.582   0.423  3.5390 -0.4955  1.0892
  648TIP3    H223436   5.093   4.681   0.350  0.7511  0.3513 -1.3551
  649TIP3   OH223437   2.105   0.212  11.386 -0.7910 -0.0791 -0.3149
  649TIP3    H123438   2.178   0.167  11.428 -1.2604  0.3837  1.0507
  649TIP3    H223439   2.085   0.285  11.445 -1.3115  0.7598 -1.4926
  650TIP3   OH223440   1.541   3.350  16.083  0.1857 -0.1476 -0.9152
  650TIP3    H123441   1.541   3.370  15.990 -0.7565  1.1213 -0.6638
  650TIP3    H223442   1.541   3.435  16.126  0.1046 -0.7170  0.2536
  651TIP3   OH223443   1.431   1.562  14.568  0.3045  0.0213  0.0696
  651TIP3    H123444   1.358   1.622  14.586  2.1133  2.9178 -1.4854
  651TIP3    H223445   1.388   1.480  14.543 -2.3186  0.5550  2.3003
  652TIP3   OH223446   0.558   1.133  14.559  0.4807 -0.7091  0.8914
  652TIP3    H123447   0.581   1.123  14.651 -0.1831  1.1900  1.3247
  652TIP3    H223448   0.516   1.219  14.555 -1.0774 -1.4940 -0.8852
  653TIP3   OH223449   4.517   1.067   5.664 -0.0973  0.5079  0.2841
  653TIP3    H123450   4.528   1.032   5.752 -0.7319 -0.3209  0.0424
  653TIP3    H223451   4.424   1.057   5.644  0.3018 -0.8451 -1.0940
  654TIP3   OH223452   3.381   5.894  11.044  0.3041  0.0251  0.2817
  654TIP3    H123453   3.324   5.961  11.005 -0.5451 -0.6022  0.4262
  654TIP3    H223454   3.385   5.918  11.137  1.0220  0.5888  0.1145
  655TIP3   OH223455   0.498   4.698  12.930 -0.2021  0.0498 -0.3688
  655TIP3    H123456   0.510   4.629  12.866 -0.7796  0.6031 -1.0974
  655TIP3    H223457   0.421   4.671  12.981 -1.2894  0.7847 -1.5535
  656TIP3   OH223458   3.205   3.433  11.812  0.2101  0.6052  0.0008
  656TIP3    H123459   3.253   3.372  11.869 -0.2087 -0.0240 -0.3047
  656TIP3    H223460   3.261   3.511  11.808  0.8262  0.1913  0.2854
  657TIP3   OH223461   4.743   3.673  17.264 -0.1495  0.4767 -0.4891
  657TIP3    H123462   4.665   3.636  17.224 -1.2623  0.8727  1.2192
  657TIP3    H223463   4.726   3.767  17.270 -0.1656  0.3954  1.1518
  658TIP3   OH223464   6.538   2.543  12.024 -0.1991  0.4556  0.4118
  658TIP3    H123465   6.628   2.511  12.018 -0.4251 -0.1710  0.2903
  658TIP3    H223466   6.536   2.595  12.104  0.8884  2.5165 -0.8223
  659TIP3   OH223467   4.812   1.669  13.595 -0.1390  0.0384  0.6360
  659TIP3    H123468   4.820   1.594  13.536 -1.0873  0.5391 -0.1795
  659TIP3    H223469   4.751   1.641  13.662  2.8077 -1.4228  2.9485
  660TIP3   OH223470   2.834   5.697   0.511  0.9886 -0.3583  0.0261
  660TIP3    H123471   2.865   5.771   0.459 -0.2119  0.3953  0.3462
  660TIP3    H223472   2.885   5.622   0.479 -0.5556 -0.2136 -3.2235
  661TIP3   OH223473   5.131   2.999  14.729  0.3517  0.2060  0.1519
  661TIP3    H123474   5.124   3.094  14.736  0.1672  0.2843 -0.9017
  661TIP3    H223475   5.048   2.972  14.690  1.7451  0.0306 -2.9643
  662TIP3   OH223476   0.623   3.423   0.770  0.0286 -1.0012 -0.3606
  662TIP3    H123477   0.618   3.449   0.678 -0.1195  2.8126  0.5716
  662TIP3    H223478   0.552   3.359   0.780 -1.7286  0.4881 -2.3423
  663TIP3   OH223479   1.419   0.521   3.642  0.5373 -0.5902  0.5263
  663TIP3    H123480   1.490   0.512   3.706  1.6450 -2.8013 -0.8738
  663TIP3    H223481   1.346   0.473   3.681  0.8294 -0.9399  0.6523
  664TIP3   OH223482   5.691   0.351   5.568  0.1142  0.4474 -0.1520
  664TIP3    H123483   5.729   0.406   5.499 -1.4149  1.9467  0.1356
  664TIP3    H223484   5.606   0.390   5.586 -0.5503 -1.3680  0.9110
  665TIP3   OH223485   3.917   1.458   4.794  0.4599  0.2997 -0.1419
  665TIP3    H123486   3.853   1.504   4.741 -3.2758 -1.9613  1.9808
  665TIP3    H223487   3.934   1.377   4.746 -0.1430 -0.1500  0.3889
  666TIP3   OH223488   0.156   4.208  15.887 -0.2944 -0.4273 -0.5874
  666TIP3    H123489   0.227   4.246  15.836  0.5155 -2.7454 -1.3108
  666TIP3    H223490   0.131   4.129  15.838 -2.6022 -0.2949  0.2574
  667TIP3   OH223491   6.198   4.970   2.038 -0.3025 -0.0391 -0.2805
  667TIP3    H123492   6.137   5.023   2.088 -0.8827 -0.1323 -0.8620
  667TIP3    H223493   6.215   5.021   1.959  0.7868  0.2178  0.1122
  668TIP3   OH223494   3.867   5.371   6.018 -0.8593 -0.0270 -0.2410
  668TIP3    H123495   3.878   5.341   6.108 -3.2423  1.2276  0.5424
  668TIP3    H223496   3.941   5.430   6.004 -0.7790  0.2442  1.1396
  669TIP3   OH223497   6.319   2.615  17.014  0.5693  0.0302 -0.1395
  669TIP3    H123498   6.289   2.578  17.097  0.2158  1.2353  0.2824
  669TIP3    H223499   6.391   2.673  17.038  0.5656  0.2703 -0.6966
  670TIP3   OH223500   1.247   0.421   5.768 -0.0904  0.1896  0.0463
  670TIP3    H123501   1.278   0.472   5.693 -0.5239  0.0460 -0.2342
  670TIP3    H223502   1.249   0.483   5.841  2.1376 -0.1637  0.3545
  671TIP3   OH223503   5.242   3.615   5.822 -0.0613  0.0621 -0.6256
  671TIP3    H123504   5.298   3.657   5.887 -0.2751  0.4949 -0.7186
  671TIP3    H223505   5.236   3.524   5.850 -0.9438  0.4473  0.5036
  672TIP3   OH223506   2.348   2.469  15.742 -0.4294 -0.2503  0.5902
  672TIP3    H123507   2.351   2.555  15.784 -2.8636 -0.8419  2.1978
  672TIP3    H223508   2.346   2.488  15.649  2.5552  1.2339  0.7160
  673TIP3   OH223509   3.695   2.187  16.085 -0.6184  0.3481  0.4185
  673TIP3    H123510   3.641   2.182  16.164  0.4947  1.3150  1.2597
  673TIP3    H223511   3.736   2.101  16.078  0.2987  0.6577  1.6602
  674TIP3   OH223512   3.399   2.983  13.422  0.0584 -0.4837 -0.2476
  674TIP3    H123513   3.448   3.035  13.358 -1.6703  1.2280 -0.2511
  674TIP3    H223514   3.319   2.957  13.377 -1.2683  0.8696  1.1865
  675TIP3   OH223515   4.857   4.114   1.316  0.2321 -0.3485 -0.4088
  675TIP3    H123516   4.834   4.119   1.223 -0.6277 -0.1208 -0.1919
  675TIP3    H223517   4.953   4.109   1.317  0.3742  1.4913 -1.2390
  676TIP3   OH223518   3.720   0.831  12.417  0.0193  0.5514  0.2057
  676TIP3    H123519   3.671   0.845  12.337  2.3981 -0.2596 -1.5254
  676TIP3    H223520   3.675   0.759  12.461  0.5773 -1.4389 -2.2492
  677TIP3   OH223521   4.933   2.486  13.345  0.0245  0.0627 -0.4023
  677TIP3    H123522   4.995   2.418  13.371 -0.4440 -0.5891 -0.9391
  677TIP3    H223523   4.852   2.463  13.392 -0.0574  0.4083 -0.3718
  678TIP3   OH223524   0.279   2.920   5.939 -0.4671  0.0796 -0.1846
  678TIP3    H123525   0.286   3.016   5.947  1.0692  0.0205 -0.4778
  678TIP3    H223526   0.212   2.895   6.002 -2.2584  1.5293 -1.4001
  679TIP3   OH223527   3.363   5.526  16.212  0.2104 -0.3585 -0.4866
  679TIP3    H123528   3.413   5.448  16.187 -2.8938 -1.9545 -2.4406
  679TIP3    H223529   3.339   5.510  16.303  1.9419 -0.2447  0.0277
  680TIP3   OH223530   4.754   2.192  16.638 -0.1908 -0.3434 -0.7860
  680TIP3    H123531   4.752   2.174  16.544 -1.4124  0.4195 -0.9276
  680TIP3    H223532   4.685   2.137  16.674  0.4711 -0.8531 -0.2762
  681TIP3   OH223533   5.252   2.620  14.571  0.4735 -0.6077 -0.1349
  681TIP3    H123534   5.159   2.615  14.551  0.6105  0.3222 -1.1150
  681TIP3    H223535   5.295   2.619  14.485  1.2137  1.3854  0.1525
  682TIP3   OH223536   2.856   4.785   0.694  0.4802 -0.7000  0.2534
  682TIP3    H123537   2.944   4.751   0.683  0.6451  0.1222 -1.3424
  682TIP3    H223538   2.867   4.863   0.749  0.3291 -2.1135  2.4112
  683TIP3   OH223539   0.182   1.703   2.108  0.6357 -0.2595  0.4739
  683TIP3    H123540   0.181   1.761   2.184  1.0000  0.3339  0.0344
  683TIP3    H223541   0.091   1.702   2.077  0.4451 -0.6646  1.0260
  684TIP3   OH223542   6.168   1.247  14.715 -0.2657  0.4066  0.0165
  684TIP3    H123543   6.160   1.251  14.619 -0.4783  1.0171  0.0494
  684TIP3    H223544   6.138   1.159  14.738 -0.0300  0.1881 -0.4960
  685TIP3   OH223545   6.704   1.238  14.491 -0.2144 -0.2758  0.4290
  685TIP3    H123546   6.756   1.160  14.472  1.4866  0.3201  2.2641
  685TIP3    H223547   6.614   1.208  14.493  0.2123 -1.7817 -0.7898
  686TIP3   OH223548   4.030   6.239  15.646  0.1302 -0.4086 -0.7005
  686TIP3    H123549   4.079   6.289  15.581 -0.1163 -0.4758 -0.9415
  686TIP3    H223550   3.954   6.205  15.598  0.5344 -1.4042 -0.6577
  687TIP3   OH223551   5.235   2.325  17.204 -0.1995  0.3828  0.7026
  687TIP3    H123552   5.259   2.312  17.296  1.0170  1.2246  0.5343
  687TIP3    H223553   5.211   2.237  17.173 -0.0788 -0.0103  1.6748
  688TIP3   OH223554   3.828   1.730   2.512  0.7921  0.1645  0.1986
  688TIP3    H123555   3.828   1.824   2.528 -0.5432  0.2939 -0.4197
  688TIP3    H223556   3.879   1.693   2.584  1.8739  1.4054  0.0914
  689TIP3   OH223557   0.058   2.633  12.593 -0.0864 -0.2268 -0.5127
  689TIP3    H123558   0.056   2.697  12.664  1.7526 -1.4913  0.7421
  689TIP3    H223559   0.105   2.678  12.522  1.2072 -0.1535  0.3567
  690TIP3   OH223560   1.061   3.300  13.069  0.4082  0.2826  0.1032
  690TIP3    H123561   1.136   3.349  13.103  0.8743 -1.4283  1.7161
  690TIP3    H223562   0.999   3.368  13.042  1.4954  1.7669  1.1147
  691TIP3   OH223563   0.848   2.583   0.590 -0.1106  0.0008 -0.7174
  691TIP3    H123564   0.829   2.621   0.676 -1.5860 -0.9364 -0.5932
  691TIP3    H223565   0.819   2.492   0.597 -0.9003  0.0848 -2.4213
  692TIP3   OH223566   5.060   1.255   1.611 -0.3686 -0.4868 -0.0342
  692TIP3    H123567   4.969   1.267   1.583 -0.4137 -0.1782  0.2298
  692TIP3    H223568   5.069   1.313   1.686 -0.2643 -1.3149  0.6136
  693TIP3   OH223569   0.531   5.785   3.292 -0.1280 -0.3367 -0.1105
  693TIP3    H123570   0.469   5.750   3.228  0.3593 -1.4910  0.0113
  693TIP3    H223571   0.585   5.847   3.242 -2.0817  1.6103  0.0425
  694TIP3   OH223572   5.278   1.505  15.201  0.1123  0.6213  0.2021
  694TIP3    H123573   5.313   1.586  15.237  1.3349  0.1746  0.0643
  694TIP3    H223574   5.232   1.532  15.122 -0.8974  1.3684  1.0222
  695TIP3   OH223575   6.525   1.207   0.850  0.4691 -0.4088  0.7136
  695TIP3    H123576   6.455   1.182   0.910  0.3422 -0.3727  0.5825
  695TIP3    H223577   6.498   1.292   0.816 -0.0100 -0.9307 -0.2393
  696TIP3   OH223578   2.074   2.628  16.186 -0.1741  0.1291 -0.0707
  696TIP3    H123579   2.104   2.693  16.122 -1.7507 -0.0003 -0.9959
  696TIP3    H223580   2.059   2.549  16.134 -0.3058 -0.3489  0.6802
  697TIP3   OH223581   5.486   6.153   4.125  0.0676  0.3211  0.1576
  697TIP3    H123582   5.505   6.152   4.031 -1.8613  0.0110 -0.2901
  697TIP3    H223583   5.496   6.062   4.152  0.7330  0.4296  0.2882
  698TIP3   OH223584   2.042   0.566  13.650  0.0114 -0.8000  0.3691
  698TIP3    H123585   1.984   0.588  13.723 -0.3356  0.4396 -0.2440
  698TIP3    H223586   2.128   0.597  13.679 -0.2557  0.3348 -0.0085
  699TIP3   OH223587   0.388   1.227  14.115 -0.6674  0.4462 -0.4934
  699TIP3    H123588   0.325   1.267  14.175 -0.7148  1.6323 -1.2974
  699TIP3    H223589   0.470   1.275  14.133 -0.0085 -0.9420  0.4056
  700TIP3   OH223590   4.348   1.144   2.159  0.0604 -0.2230 -0.5630
  700TIP3    H123591   4.260   1.129   2.193  0.6750 -2.1497  0.3453
  700TIP3    H223592   4.383   1.056   2.144  2.0283  0.4810 -0.3797
  701TIP3   OH223593   3.832   6.234  12.690  0.1682 -0.0154 -0.0682
  701TIP3    H123594   3.833   6.314  12.638  0.8172 -0.4786 -0.7786
  701TIP3    H223595   3.822   6.163  12.627  1.2289 -0.6065  0.3798
  702TIP3   OH223596   6.716   6.185  16.917 -0.1471  0.0773  0.2256
  702TIP3    H123597   6.699   6.128  16.993 -1.5098  0.8030  0.4942
  702TIP3    H223598   6.646   6.250  16.920  1.8386  2.3362  0.4358
  703TIP3   OH223599   2.752   6.250   1.205  0.1515  0.3080  0.6809
  703TIP3    H123600   2.846   6.268   1.204  0.2888 -0.3230  1.4793
  703TIP3    H223601   2.716   6.309   1.271 -0.1314  1.0061 -0.0664
  704TIP3   OH223602   1.577   6.298   0.706 -1.0756  0.2021 -0.4535
  704TIP3    H123603   1.563   6.335   0.618 -0.4564  0.9764 -0.2353
  704TIP3    H223604   1.492   6.307   0.749 -0.5890  2.8749  0.1234
  705TIP3   OH223605   3.570   6.468   5.847  0.0892 -0.5930 -0.3101
  705TIP3    H123606   3.635   6.531   5.815  0.5605 -0.8885  0.0645
  705TIP3    H223607   3.593   6.454   5.939 -1.1098  0.0509  0.1036
  706TIP3   OH223608   1.511   6.095  12.984 -0.5471  0.6113  0.5498
  706TIP3    H123609   1.506   6.190  12.990  0.3717  0.6981  0.1845
  706TIP3    H223610   1.562   6.079  12.905 -0.0903 -0.1695  0.9903
  707TIP3   OH223611   3.461   5.133   3.913  0.3554  0.4596  0.3856
  707TIP3    H123612   3.498   5.218   3.938 -1.3950  1.3540  0.0553
  707TIP3    H223613   3.500   5.114   3.827  1.4853  0.4317  0.8783
  708TIP3   OH223614   1.156   0.698  14.966 -0.5154 -0.0297  0.2796
  708TIP3    H123615   1.251   0.690  14.977 -0.4680  2.4826  2.7424
  708TIP3    H223616   1.118   0.657  15.043 -1.1767  2.0724  1.1630
  709TIP3   OH223617   2.435   2.812  13.415  0.0108 -0.0779  0.1932
  709TIP3    H123618   2.446   2.744  13.349 -0.5251 -0.6570  0.6729
  709TIP3    H223619   2.445   2.765  13.498  0.5558  0.6141  0.5178
  710TIP3   OH223620   2.691   4.484   1.545  0.1007  0.2365  0.9165
  710TIP3    H123621   2.710   4.501   1.453 -1.1833 -1.9986  0.1737
  710TIP3    H223622   2.770   4.441   1.578  0.6198  1.1724  0.9531
  711TIP3   OH223623   6.357   4.848   5.688 -0.5939 -0.9600  0.5208
  711TIP3    H123624   6.362   4.852   5.784  3.3033 -1.2535  0.4603
  711TIP3    H223625   6.354   4.940   5.660  0.7182 -0.7757  0.9217
  712TIP3   OH223626   1.872   5.195  15.010  0.2158  0.3882  0.2270
  712TIP3    H123627   1.798   5.138  15.025  0.5613 -0.1935 -0.2390
  712TIP3    H223628   1.938   5.139  14.969  0.5556  1.1180 -0.2492
  713TIP3   OH223629   5.409   1.432   0.713 -0.2277  0.3780  0.5924
  713TIP3    H123630   5.457   1.351   0.699  0.6062  1.0745 -0.8706
  713TIP3    H223631   5.326   1.405   0.752  0.4585 -1.0602  1.1188
  714TIP3   OH223632   4.334   6.404   4.823  0.0478 -0.0843  0.3454
  714TIP3    H123633   4.411   6.356   4.793  0.1237  0.5947 -0.6085
  714TIP3    H223634   4.294   6.346   4.888  0.7255 -0.9525  0.0244
  715TIP3   OH223635   4.261   3.116   0.176  0.1658 -0.0926 -0.7360
  715TIP3    H123636   4.353   3.115   0.205 -0.0267  0.8818 -0.0142
  715TIP3    H223637   4.222   3.039   0.216  0.2565  0.4634  0.4610
  716TIP3   OH223638   1.565   1.957  13.044 -0.5471 -0.2754  0.0395
  716TIP3    H123639   1.505   1.889  13.073 -1.6835  0.5052 -0.4464
  716TIP3    H223640   1.633   1.910  12.995  0.0440 -1.3245  1.7917
  717TIP3   OH223641   4.790   1.666  11.259 -0.7233  0.2331 -0.4123
  717TIP3    H123642   4.708   1.655  11.307 -0.4849 -0.8198 -0.2164
  717TIP3    H223643   4.783   1.753  11.218 -0.9179  1.1853  1.5327
  718TIP3   OH223644   5.558   2.010   3.364  0.2566  0.4518  0.2254
  718TIP3    H123645   5.627   1.966   3.313 -0.4006 -0.5810  0.1928
  718TIP3    H223646   5.509   1.938   3.404 -0.0096  1.2141  1.3026
  719TIP3   OH223647   4.331   0.178  14.498 -0.6380 -0.0343 -0.4783
  719TIP3    H123648   4.422   0.202  14.484  0.5538 -4.1151 -0.9166
  719TIP3    H223649   4.329   0.138  14.585 -1.7392 -0.9557 -0.8849
  720TIP3   OH223650   4.964   4.740  13.752 -0.1109  0.2245  0.0000
  720TIP3    H123651   5.043   4.790  13.771 -0.1667  0.7717 -1.1111
  720TIP3    H223652   4.983   4.694  13.671 -0.9453  0.4358 -0.3327
  721TIP3   OH223653   0.485   4.704  15.598  0.0847 -0.5016 -0.4673
  721TIP3    H123654   0.488   4.792  15.634 -0.6080 -0.9121  0.6334
  721TIP3    H223655   0.546   4.706  15.524  1.5954  0.3444  0.7600
  722TIP3   OH223656   2.638   5.340   1.333 -0.3905 -0.5827  0.1848
  722TIP3    H123657   2.586   5.418   1.316 -0.2232 -0.1613  1.4637
  722TIP3    H223658   2.614   5.278   1.264 -0.5832  0.5644 -0.7920
  723TIP3   OH223659   6.471   3.593  17.161 -0.1224  0.3330 -0.4539
  723TIP3    H123660   6.411   3.579  17.088 -0.4447  0.7146 -0.2634
  723TIP3    H223661   6.472   3.509  17.207 -1.2060  0.5840  0.0534
  724TIP3   OH223662   4.288   5.223   1.652 -0.0914 -0.3084 -0.4986
  724TIP3    H123663   4.365   5.201   1.599 -1.0265 -1.8594 -1.2750
  724TIP3    H223664   4.298   5.316   1.670  1.7088 -0.3589 -1.0047
  725TIP3   OH223665   6.378   0.367  13.719 -0.3813  0.1765  0.2775
  725TIP3    H123666   6.382   0.295  13.657 -1.6632  0.4557 -0.1545
  725TIP3    H223667   6.470   0.389  13.737  0.0195 -1.3664  0.2066
  726TIP3   OH223668   1.172   3.687   0.230  0.4444  0.6063 -0.1915
  726TIP3    H123669   1.110   3.706   0.300  0.8821  1.5770 -0.0500
  726TIP3    H223670   1.169   3.592   0.220  0.9178  0.3618  1.6542
  727TIP3   OH223671   2.538   4.773   2.526 -0.4124  0.1353 -0.0740
  727TIP3    H123672   2.532   4.866   2.547 -1.3735  0.1251 -0.2256
  727TIP3    H223673   2.550   4.729   2.610  0.4983  0.4219 -0.0470
  728TIP3   OH223674   0.993   4.828   4.252 -0.1119 -0.2942 -0.0361
  728TIP3    H123675   1.054   4.873   4.311  2.3897 -0.2668 -2.4343
  728TIP3    H223676   1.024   4.737   4.250 -0.5688 -0.4383 -0.8013
  729TIP3   OH223677   0.984   6.390   5.038  0.1147 -0.0333 -0.2398
  729TIP3    H123678   0.911   6.439   5.001 -1.4402 -2.7911 -1.1026
  729TIP3    H223679   0.957   6.372   5.128  0.6189  0.5622  0.0336
  730TIP3   OH223680   5.748   4.565  14.491  0.4417 -0.0552  0.3151
  730TIP3    H123681   5.654   4.553  14.509 -0.1955  1.2848 -1.7261
  730TIP3    H223682   5.774   4.636  14.549 -0.9929  2.6149 -2.0546
  731TIP3   OH223683   4.627   5.300  16.215 -0.0251  0.1669  0.6043
  731TIP3    H123684   4.698   5.291  16.152  0.6933 -1.8926  1.6053
  731TIP3    H223685   4.551   5.326  16.163  0.9504  0.2618 -0.8177
  732TIP3   OH223686   0.447   5.339   5.806  0.1820 -0.0492 -0.2750
  732TIP3    H123687   0.521   5.343   5.867  0.3427 -0.0510 -0.4700
  732TIP3    H223688   0.377   5.388   5.850  0.1561 -0.4157  0.1052
  733TIP3   OH223689   2.258   5.742   1.927  0.2907  0.1296 -0.2278
  733TIP3    H123690   2.189   5.755   1.862 -0.4000  0.2920  0.5249
  733TIP3    H223691   2.326   5.694   1.880 -1.1649 -1.8193 -0.4590
  734TIP3   OH223692   0.905   1.498  10.637 -0.3819  0.5744 -0.1803
  734TIP3    H123693   0.824   1.450  10.658 -0.1440 -0.0116 -0.5981
  734TIP3    H223694   0.973   1.432  10.637 -0.1681  0.7673 -1.5527
  735TIP3   OH223695   2.574   1.939  16.568 -0.0555  0.0114  0.8886
  735TIP3    H123696   2.613   2.020  16.601  0.5744 -0.2542  0.8048
  735TIP3    H223697   2.642   1.873  16.580  0.0138 -0.1868 -0.5271
  736TIP3   OH223698   6.471   5.729  13.393  0.4294 -0.3115 -0.6534
  736TIP3    H123699   6.418   5.804  13.420  2.6808  1.2760 -0.3207
  736TIP3    H223700   6.443   5.711  13.303 -1.9437 -0.7979  0.1294
  737TIP3   OH223701   0.709   1.690   3.631  0.0753  0.1281  0.4439
  737TIP3    H123702   0.735   1.730   3.714  0.5888  0.0887  0.3055
  737TIP3    H223703   0.689   1.599   3.653 -1.5076  0.5384  0.8377
  738TIP3   OH223704   0.868   1.388   0.792  0.4924  0.0078 -0.4982
  738TIP3    H123705   0.961   1.392   0.815  0.6542  0.1665 -1.1523
  738TIP3    H223706   0.835   1.475   0.814  0.0962 -0.5619  1.3250
  739TIP3   OH223707   4.194   6.818  13.112 -0.3139  0.4690 -0.4370
  739TIP3    H123708   4.102   6.805  13.090 -0.0156 -0.0408 -1.4240
  739TIP3    H223709   4.192   6.865  13.196 -1.4716  1.8467 -1.1907
  740TIP3   OH223710   0.396   5.215  11.545 -0.0283  0.1978 -0.5715
  740TIP3    H123711   0.309   5.222  11.585  0.1277 -0.4495 -0.1004
  740TIP3    H223712   0.388   5.142  11.484  0.3970 -0.3684  0.0463
  741TIP3   OH223713   2.428   5.103  11.395  0.1280 -0.2054 -0.3349
  741TIP3    H123714   2.474   5.052  11.329 -1.8341  1.0149 -2.8170
  741TIP3    H223715   2.425   5.192  11.359 -1.3554  0.4328  1.2122
  742TIP3   OH223716   5.769   1.770  14.480  0.7319  0.1855  0.1736
  742TIP3    H123717   5.829   1.793  14.409 -1.1831  1.0690 -1.2517
  742TIP3    H223718   5.713   1.702  14.443  0.4563 -0.2036  1.2768
  743TIP3   OH223719   5.670   2.185  12.832  0.1596 -0.5932  0.9682
  743TIP3    H123720   5.676   2.196  12.927 -0.2559  0.1067  0.9227
  743TIP3    H223721   5.590   2.232  12.807  0.7284 -0.0156  0.1637
  744TIP3   OH223722   4.756   3.695  11.525  0.2723 -0.6841 -0.0312
  744TIP3    H123723   4.824   3.745  11.480  0.2064 -0.2245  0.3671
  744TIP3    H223724   4.737   3.746  11.604  1.0762 -1.9587  1.0352
  745TIP3   OH223725   3.612   1.434   4.405  0.1466 -0.1077 -0.5186
  745TIP3    H123726   3.545   1.382   4.450  1.6040 -1.4393  0.2146
  745TIP3    H223727   3.684   1.373   4.389  1.2334  1.2794 -1.2310
  746TIP3   OH223728   3.581   5.127  15.125  0.0885 -0.6678  0.0382
  746TIP3    H123729   3.656   5.167  15.082 -0.5473 -2.0838 -2.5722
  746TIP3    H223730   3.512   5.193  15.118 -0.2713 -1.1924 -2.0925
  747TIP3   OH223731   5.289   6.011   5.855 -0.1644  0.1409  0.0334
  747TIP3    H123732   5.344   5.938   5.884 -0.9956 -0.9718 -1.1038
  747TIP3    H223733   5.324   6.035   5.770 -1.5326 -0.7500 -0.8250
  748TIP3   OH223734   0.590   4.976   1.324 -0.4484 -0.1352  0.3130
  748TIP3    H123735   0.533   4.901   1.339 -1.3085  0.4664  0.1745
  748TIP3    H223736   0.665   4.962   1.382 -0.4656 -1.2188  0.0974
  749TIP3   OH223737   4.117   0.620  13.765 -0.6435  0.4794 -0.3457
  749TIP3    H123738   4.202   0.663  13.758 -0.7233  0.5815 -0.7281
  749TIP3    H223739   4.105   0.578  13.680 -1.5310  1.5100 -0.7582
  750TIP3   OH223740   0.607   3.308  13.469  0.5458 -0.2933  0.4339
  750TIP3    H123741   0.689   3.285  13.424  1.4328 -2.4436  2.8750
  750TIP3    H223742   0.548   3.236  13.449 -0.3738  0.6593 -0.3451
  751TIP3   OH223743   5.198   3.042  15.294 -0.0649 -0.0128  0.2994
  751TIP3    H123744   5.147   3.119  15.268 -0.6151 -0.2926  0.5377
  751TIP3    H223745   5.270   3.078  15.346 -0.2813  0.3518  0.3533
  752TIP3   OH223746   2.345   4.036   1.550  0.1768 -0.5019  0.2141
  752TIP3    H123747   2.254   4.017   1.573  1.3152 -2.5882  4.0033
  752TIP3    H223748   2.375   3.957   1.504 -0.1981  0.7724 -2.3611
  753TIP3   OH223749   3.780   5.091  14.677  0.1218 -0.2518  0.0497
  753TIP3    H123750   3.822   5.056  14.756  0.2705  0.5786  0.3509
  753TIP3    H223751   3.750   5.178  14.703  2.8600  1.3410 -1.6199
  754TIP3   OH223752   1.550   0.911  15.761  0.0907  0.1663  0.5221
  754TIP3    H123753   1.543   0.829  15.712 -1.7665  0.6765 -0.1388
  754TIP3    H223754   1.464   0.924  15.800  0.1349  2.0813  0.1192
  755TIP3   OH223755   0.432   0.036  11.341  0.2208  0.1678 -0.2962
  755TIP3    H123756   0.337   0.044  11.343 -0.0155 -1.9401 -0.7846
  755TIP3    H223757   0.457   0.022  11.433  0.3328  2.6550  0.1240
  756TIP3   OH223758   1.242   0.864  12.392 -0.0633 -0.7131  0.2386
  756TIP3    H123759   1.281   0.904  12.315  1.3749  0.0861  1.3196
  756TIP3    H223760   1.200   0.784  12.360 -1.1708  0.5735 -1.6442
  757TIP3   OH223761   1.954   5.094  15.651  0.3657 -0.2088  0.2728
  757TIP3    H123762   1.997   5.040  15.586 -0.7902 -1.1629  0.2590
  757TIP3    H223763   1.962   5.045  15.733 -2.1151 -1.2940 -0.0432
  758TIP3   OH223764   2.206   2.041  16.821  0.3190  0.4150  0.2150
  758TIP3    H123765   2.150   2.006  16.890  1.5952  0.3662  1.2595
  758TIP3    H223766   2.233   1.964  16.771  0.2351  0.3328  0.2967
  759TIP3   OH223767   0.129   5.678   2.249  0.1928  0.2395 -0.2578
  759TIP3    H123768   0.038   5.708   2.237  0.4263  0.5639 -1.2776
  759TIP3    H223769   0.134   5.596   2.201  0.0998 -0.4632  0.8949
  760TIP3   OH223770   6.804   1.225   0.431 -0.3708 -0.1718  0.6834
  760TIP3    H123771   6.718   1.183   0.431 -0.5746  0.2349  0.4500
  760TIP3    H223772   6.823   1.242   0.523 -2.2261  3.1049  0.6140
  761TIP3   OH223773   1.009   4.632   2.677 -0.1335 -0.1499  0.3802
  761TIP3    H123774   0.920   4.607   2.700 -0.0009 -0.2693  0.7626
  761TIP3    H223775   1.005   4.651   2.583 -0.3820 -0.9460  0.2215
  762TIP3   OH223776   4.510   5.787   2.292  0.2509  0.3683 -0.4475
  762TIP3    H123777   4.470   5.777   2.378  1.3575  0.0148  0.0465
  762TIP3    H223778   4.438   5.774   2.230 -0.6526  1.0646  0.4138
  763TIP3   OH223779   3.551   3.348  12.951 -0.0728 -0.8602 -0.3685
  763TIP3    H123780   3.592   3.262  12.943  1.4533 -0.2617  0.5076
  763TIP3    H223781   3.573   3.392  12.869 -1.7012 -1.6054 -1.2474
  764TIP3   OH223782   3.741   6.503  10.698 -0.4255 -1.0378  0.4386
  764TIP3    H123783   3.676   6.480  10.631 -0.1580  1.4439 -0.7960
  764TIP3    H223784   3.689   6.536  10.771 -0.8011  3.5043 -1.5260
  765TIP3   OH223785   2.598   2.711  12.648 -0.2207  0.5749  0.2265
  765TIP3    H123786   2.611   2.801  12.617 -0.4435  1.3979  2.3327
  765TIP3    H223787   2.506   2.708  12.673 -0.3303 -0.4053 -0.2549
  766TIP3   OH223788   3.541   2.077   1.762 -0.2060  0.1936  0.1794
  766TIP3    H123789   3.596   2.078   1.684 -2.3945 -2.0369 -1.5568
  766TIP3    H223790   3.482   2.151   1.751 -0.9947 -0.5419 -0.7309
  767TIP3   OH223791   5.047   3.154   3.323 -0.3492  0.3305  0.2179
  767TIP3    H123792   5.081   3.089   3.384 -0.0877  0.1586 -0.1041
  767TIP3    H223793   5.006   3.221   3.378 -1.3510 -0.5137  0.5250
  768TIP3   OH223794   0.037   0.378  11.357 -0.2030  0.0169 -0.0905
  768TIP3    H123795  -0.036   0.387  11.418  1.0542  0.0219  1.4772
  768TIP3    H223796   0.078   0.465  11.355  1.7271 -0.7740  1.7015
  769TIP3   OH223797   1.022   4.750  13.959  0.2944  0.1933  0.4482
  769TIP3    H123798   0.949   4.804  13.928  0.7961  0.4899 -0.2321
  769TIP3    H223799   0.994   4.721  14.046 -0.6290  0.3151  0.2088
  770TIP3   OH223800   0.727   5.606   0.386 -1.0186  1.0382  0.1924
  770TIP3    H123801   0.799   5.635   0.330 -1.5869 -0.0090 -1.1456
  770TIP3    H223802   0.668   5.559   0.327 -1.7665  0.0840  1.6365
  771TIP3   OH223803   2.876   5.300   4.806  0.3928  0.6117  0.1378
  771TIP3    H123804   2.911   5.212   4.813 -1.5670 -0.1045  2.4106
  771TIP3    H223805   2.905   5.344   4.886 -0.1207  1.4368 -0.1117
  772TIP3   OH223806   2.558   3.378  12.290  0.0173 -0.0058 -0.4072
  772TIP3    H123807   2.603   3.329  12.221  0.5719  0.8372 -0.6528
  772TIP3    H223808   2.553   3.467  12.258  0.0735  0.3521  0.5351
  773TIP3   OH223809   5.371   6.113   3.835 -0.7925  0.6256  0.3828
  773TIP3    H123810   5.292   6.067   3.863 -1.0756  0.6201 -0.4036
  773TIP3    H223811   5.352   6.206   3.850 -1.2440  0.6857 -0.4814
  774TIP3   OH223812   1.055   3.801   4.805  0.6581  0.5252  0.1949
  774TIP3    H123813   1.010   3.854   4.741  0.7669  0.2503 -0.1126
  774TIP3    H223814   1.139   3.779   4.764  0.6639  0.2207  0.3657
  775TIP3   OH223815   4.474   0.357   5.703  0.4214  0.0673  0.2764
  775TIP3    H123816   4.440   0.340   5.616  0.1453  1.0111  0.1907
  775TIP3    H223817   4.400   0.392   5.752  0.9966  1.1599  0.3844
  776TIP3   OH223818   2.610   6.132   0.494 -0.0551  0.1606  1.0697
  776TIP3    H123819   2.570   6.103   0.412  1.3931  0.6707  0.1396
  776TIP3    H223820   2.704   6.124   0.479  0.2970  2.0574  1.9874
  777TIP3   OH223821   1.160   0.625  12.277  0.5966  0.0911  0.2750
  777TIP3    H123822   1.187   0.590  12.192  1.9318  0.8204  0.3625
  777TIP3    H223823   1.077   0.582  12.296  1.3154 -1.6887 -0.4077
  778TIP3   OH223824   1.272   4.670  11.382 -0.9838 -0.1961  0.6153
  778TIP3    H123825   1.281   4.699  11.473 -0.6340  2.2103 -0.1114
  778TIP3    H223826   1.360   4.679  11.345 -1.2457 -0.6013 -0.1263
  779TIP3   OH223827   4.828   1.183  14.859 -0.0408  0.5312  0.1477
  779TIP3    H123828   4.824   1.090  14.884 -2.7891 -0.0987 -2.1088
  779TIP3    H223829   4.745   1.220  14.892 -0.8241  1.1403 -2.3100
  780TIP3   OH223830   4.812   2.433  14.214  0.4380  0.4572 -0.2335
  780TIP3    H123831   4.799   2.424  14.119 -0.6464 -0.3965 -0.0299
  780TIP3    H223832   4.737   2.484  14.244 -0.2300 -0.8506  0.4018
  781TIP3   OH223833   3.954   5.016   1.888  0.5083  0.1937 -0.0077
  781TIP3    H123834   4.023   5.047   1.946 -1.1957  0.3757  2.0420
  781TIP3    H223835   3.996   4.948   1.835  2.0277 -0.4230  1.8610
  782TIP3   OH223836   5.812   4.967  15.033 -0.6758 -0.5757  0.5317
  782TIP3    H123837   5.823   4.960  15.128 -1.4103  0.0574  0.6792
  782TIP3    H223838   5.731   5.018  15.022  1.0723  2.2174 -0.4135
  783TIP3   OH223839   0.594   0.624   1.696 -1.0572 -0.0770 -0.2435
  783TIP3    H123840   0.601   0.535   1.730 -1.4794  0.3490  1.0058
  783TIP3    H223841   0.604   0.614   1.601  1.3314 -1.1924  0.0362
  784TIP3   OH223842   6.391   0.245   1.607  0.6797 -0.2003  0.2369
  784TIP3    H123843   6.484   0.224   1.620  0.8241  0.6538  0.6396
  784TIP3    H223844   6.391   0.320   1.548  0.3489  0.9709  1.6423
  785TIP3   OH223845   2.708   6.434   1.017  0.3453  0.0689 -0.2201
  785TIP3    H123846   2.733   6.374   0.946  0.7278 -0.0604  0.0224
  785TIP3    H223847   2.689   6.376   1.091  3.3109  0.2960  0.8566
  786TIP3   OH223848   2.802   5.217  14.215 -0.5299  0.5642 -0.4331
  786TIP3    H123849   2.709   5.202  14.232 -0.2037 -0.0773  0.9088
  786TIP3    H223850   2.847   5.149  14.264  0.7506  2.1562  0.7101
  787TIP3   OH223851   2.311   1.917  15.354 -0.0384 -0.0447  0.2863
  787TIP3    H123852   2.290   2.000  15.395 -0.6100 -0.9046  1.8055
  787TIP3    H223853   2.227   1.873  15.342  0.3151 -0.7099  0.1570
  788TIP3   OH223854   2.121   4.746   1.393  0.2837  0.0069 -0.5346
  788TIP3    H123855   2.054   4.775   1.454 -2.1334 -1.6024 -2.2237
  788TIP3    H223856   2.203   4.751   1.442 -1.3209  0.0991  2.3356
  789TIP3   OH223857   1.571   2.247  14.185  0.2596 -0.7164  0.2451
  789TIP3    H123858   1.620   2.184  14.132 -0.1915 -1.3960  0.6222
  789TIP3    H223859   1.533   2.308  14.122 -0.4501 -1.6396 -0.2384
  790TIP3   OH223860   4.383   5.400   5.510 -0.1533 -0.2052  0.4094
  790TIP3    H123861   4.413   5.395   5.601  1.8834 -2.3286 -0.2701
  790TIP3    H223862   4.414   5.485   5.479 -0.4231  0.3251  1.5466
  791TIP3   OH223863   1.937   4.219   5.158  0.2338 -0.2374  0.4526
  791TIP3    H123864   1.857   4.206   5.209  0.3640 -0.0048  0.7222
  791TIP3    H223865   1.906   4.241   5.070 -0.0008 -0.0160  0.5889
  792TIP3   OH223866   0.175   5.118  16.914 -0.0364  0.1011 -0.0916
  792TIP3    H123867   0.152   5.105  16.822  1.4598  1.3510 -0.6902
  792TIP3    H223868   0.091   5.138  16.957 -0.6905  0.0038 -1.2763
  793TIP3   OH223869   1.275   1.002  16.185  0.2523  0.2446 -0.1959
  793TIP3    H123870   1.252   0.973  16.274 -2.4830  0.6158 -0.6986
  793TIP3    H223871   1.282   0.920  16.135  2.8125 -0.0422  0.4791
  794TIP3   OH223872   0.646   3.992   6.053 -0.7366 -0.0868 -0.1757
  794TIP3    H123873   0.622   4.012   6.143 -2.7190 -1.1386 -0.4149
  794TIP3    H223874   0.725   3.939   6.060 -0.7305  0.0544  0.9136
  795TIP3   OH223875   6.614   4.905  16.427  0.5732 -0.2570  0.2673
  795TIP3    H123876   6.667   4.915  16.347  0.0519 -1.9654 -0.3389
  795TIP3    H223877   6.526   4.930  16.400 -0.3561 -3.9730 -0.7706
  796TIP3   OH223878   1.447   4.585   4.305  0.2242 -0.3723 -0.5158
  796TIP3    H123879   1.413   4.505   4.345 -1.0327 -0.7750 -2.2850
  796TIP3    H223880   1.535   4.561   4.275  1.1663 -0.0830  1.7983
  797TIP3   OH223881   3.400   3.267  16.051 -0.1399  0.1979  0.1005
  797TIP3    H123882   3.463   3.253  15.980  1.2798  0.8951  1.1895
  797TIP3    H223883   3.413   3.193  16.110  0.0888  0.6797  0.6497
  798TIP3   OH223884   3.302   4.018  15.408 -0.5531  0.1399 -0.4330
  798TIP3    H123885   3.387   4.031  15.450 -1.3674  1.0591  0.9991
  798TIP3    H223886   3.299   3.924  15.390  0.9220  0.1529 -0.8910
  799TIP3   OH223887   6.575   4.939  11.819 -0.0920  0.6121 -0.2095
  799TIP3    H123888   6.571   5.034  11.823 -1.2644  0.6210 -0.9438
  799TIP3    H223889   6.655   4.915  11.866  0.3761  1.9683 -0.2997
  800TIP3   OH223890   6.756   2.676   0.549  0.4241  0.0740  0.4299
  800TIP3    H123891   6.785   2.640   0.633  2.3419 -0.1693 -0.2962
  800TIP3    H223892   6.832   2.722   0.515 -0.1330 -0.3013 -1.4229
  801TIP3   OH223893   1.746   2.749   2.484 -0.0759  0.7559  0.3520
  801TIP3    H123894   1.688   2.672   2.491  1.1214 -0.2350 -0.2127
  801TIP3    H223895   1.826   2.722   2.528  0.0707  2.0095  0.8775
  802TIP3   OH223896   5.384   2.145  12.174 -0.3207 -0.3376 -0.1017
  802TIP3    H123897   5.294   2.169  12.195  0.2923  1.9573  0.1364
  802TIP3    H223898   5.379   2.053  12.150 -2.8287 -0.1132 -0.6912
  803TIP3   OH223899   3.651   3.327  13.562  0.5787 -0.2041  0.0152
  803TIP3    H123900   3.608   3.259  13.614 -3.1741  2.0144  0.1823
  803TIP3    H223901   3.636   3.301  13.471 -0.1532 -0.0259  0.0800
  804TIP3   OH223902   0.036   6.779  14.004 -0.6889 -0.1201  0.1684
  804TIP3    H123903   0.063   6.869  13.987 -1.1338 -0.4349 -2.5267
  804TIP3    H223904  -0.057   6.787  14.027 -0.6521  0.1289  0.2424
  805TIP3   OH223905   3.459   6.106   5.322 -0.6805 -0.0820 -0.0640
  805TIP3    H123906   3.466   6.190   5.366 -2.1131  0.6797 -1.2065
  805TIP3    H223907   3.549   6.086   5.294  0.1714 -0.3155  2.5553
  806TIP3   OH223908   3.957   4.827  15.821  0.0248 -0.0704 -0.5003
  806TIP3    H123909   3.907   4.843  15.901 -0.1428  0.3898 -0.6904
  806TIP3    H223910   3.895   4.786  15.762 -0.2249  0.7569 -0.8353
  807TIP3   OH223911   2.406   2.203  16.702  0.0341 -0.2064 -0.0796
  807TIP3    H123912   2.323   2.160  16.719 -1.4270  2.0226 -1.1383
  807TIP3    H223913   2.458   2.188  16.781 -1.5299 -1.2437  0.7930
  808TIP3   OH223914   5.075   6.623   1.479 -0.9780  0.3688  0.8251
  808TIP3    H123915   5.142   6.691   1.478 -0.7445  0.2328 -2.0392
  808TIP3    H223916   5.108   6.557   1.539  2.0385 -0.1623 -1.2093
  809TIP3   OH223917   2.163   4.188  11.774  0.0981 -0.3747  0.2005
  809TIP3    H123918   2.108   4.244  11.828  0.7806 -1.2056  1.8017
  809TIP3    H223919   2.119   4.187  11.689 -0.3813  1.8794  0.3537
  810TIP3   OH223920   6.211   4.203   0.361  0.6546 -0.0120 -0.4202
  810TIP3    H123921   6.148   4.193   0.432 -0.5427  1.0103 -1.2777
  810TIP3    H223922   6.238   4.114   0.339  2.4792 -0.3216  2.4652
  811TIP3   OH223923   2.286   0.612   3.396  0.5141  0.4471 -0.0287
  811TIP3    H123924   2.369   0.656   3.380  0.8831  0.3257  1.3969
  811TIP3    H223925   2.257   0.646   3.481 -0.2263 -0.5002  0.1173
  812TIP3   OH223926   0.635   4.939  12.643 -0.2295  0.5796 -0.2760
  812TIP3    H123927   0.686   5.020  12.646  1.2062 -0.3060  0.5274
  812TIP3    H223928   0.695   4.872  12.677 -1.4508 -0.7827 -0.7170
  813TIP3   OH223929   3.750   1.915  11.708  0.0910  0.3700  0.1523
  813TIP3    H123930   3.696   1.854  11.758 -1.6776  0.0102 -2.0499
  813TIP3    H223931   3.759   1.875  11.621  2.3151  1.3729 -0.1652
  814TIP3   OH223932   1.856   2.161  12.021 -0.0797 -0.1550  0.0914
  814TIP3    H123933   1.812   2.083  12.055  0.5917 -1.1611 -1.2670
  814TIP3    H223934   1.785   2.221  11.999 -0.7107 -1.1376 -0.6249
  815TIP3   OH223935   5.305   3.663  13.027  0.4276 -0.2157 -0.3877
  815TIP3    H123936   5.220   3.681  13.068  0.6790  0.9359 -0.3140
  815TIP3    H223937   5.350   3.747  13.030  1.2751 -0.6285 -1.1263
  816TIP3   OH223938   6.240   4.581   2.604  0.4680  0.4493  0.0440
  816TIP3    H123939   6.197   4.509   2.558 -1.2529  1.0709  0.5863
  816TIP3    H223940   6.271   4.638   2.534 -2.1162  1.3828 -0.4643
  817TIP3   OH223941   0.508   1.951   2.336 -0.0648 -0.6427 -0.0338
  817TIP3    H123942   0.431   2.007   2.334 -0.4755 -1.1879 -2.1081
  817TIP3    H223943   0.535   1.950   2.428 -1.3278  1.1550  0.4061
  818TIP3   OH223944   1.233   4.150  13.520  0.1889  0.1308 -0.3817
  818TIP3    H123945   1.191   4.138  13.605 -0.1787  1.8228 -0.2846
  818TIP3    H223946   1.289   4.073  13.509 -1.1564 -1.0135  0.5472
  819TIP3   OH223947   6.502   5.921   1.173  0.1625 -0.0398  0.0881
  819TIP3    H123948   6.432   5.857   1.157 -0.0973 -0.4385  2.3926
  819TIP3    H223949   6.490   5.946   1.265  2.7499  0.2867  0.3998
  820TIP3   OH223950   5.978   3.810   2.585 -0.3950  0.3020 -0.3646
  820TIP3    H123951   6.035   3.868   2.636  0.0940  0.0031 -0.5649
  820TIP3    H223952   5.909   3.867   2.552 -1.4313  0.3102  1.6371
  821TIP3   OH223953   2.876   6.159  11.763 -0.3664 -0.0098 -0.2589
  821TIP3    H123954   2.955   6.110  11.788 -0.8493 -0.0252  1.3524
  821TIP3    H223955   2.803   6.104  11.791 -0.9281  0.9181  0.1529
  822TIP3   OH223956   5.835   6.076  13.883 -1.2381 -0.0161 -0.6963
  822TIP3    H123957   5.872   6.035  13.961  1.2304  0.8966 -1.2911
  822TIP3    H223958   5.884   6.038  13.810 -0.4584  2.2228 -1.4265
  823TIP3   OH223959   6.118   5.992  13.817 -0.1484 -0.5244 -0.0577
  823TIP3    H123960   6.071   5.978  13.735 -1.0922  2.1000 -0.0690
  823TIP3    H223961   6.190   6.050  13.794 -0.8658  0.8604  1.0432
  824TIP3   OH223962   5.208   4.185  15.906  0.4323 -0.2323 -0.3249
  824TIP3    H123963   5.159   4.250  15.956 -0.9213 -2.0229  0.8529
  824TIP3    H223964   5.255   4.135  15.973 -0.3209 -1.8138 -0.9094
  825TIP3   OH223965   4.996   0.801   2.636 -0.1668 -0.3722 -0.5274
  825TIP3    H123966   4.965   0.711   2.646 -1.1599  0.0664  0.5997
  825TIP3    H223967   4.924   0.855   2.671  0.5175  0.8464 -0.9344
  826TIP3   OH223968   3.319   6.027  16.888 -0.3831 -0.4067  0.0272
  826TIP3    H123969   3.266   6.016  16.966  0.3444 -2.1214  0.3201
  826TIP3    H223970   3.355   5.940  16.871  1.9161  0.5674 -0.4358
  827TIP3   OH223971   6.716   1.394   1.190 -0.0975 -0.2037 -0.3435
  827TIP3    H123972   6.637   1.432   1.153 -0.6942 -2.3127 -1.3731
  827TIP3    H223973   6.686   1.317   1.238  1.3457 -1.3594 -1.1962
  828TIP3   OH223974   0.130   3.530  13.087  0.0859 -0.4366  0.6488
  828TIP3    H123975   0.096   3.519  13.176 -1.6943 -1.1652 -0.0824
  828TIP3    H223976   0.057   3.567  13.038  0.9356 -0.3771 -0.6050
  829TIP3   OH223977   0.919   0.841   3.111  0.0291  0.1538  0.2064
  829TIP3    H123978   0.827   0.868   3.116  0.2940  0.9053  1.6193
  829TIP3    H223979   0.967   0.909   3.159  1.0208 -1.4823  1.6453
  830TIP3   OH223980   3.154   4.643   3.482 -0.1974 -0.2507 -0.3061
  830TIP3    H123981   3.083   4.648   3.545 -1.3700 -1.8247 -1.4237
  830TIP3    H223982   3.197   4.728   3.487 -1.0191  0.0960  1.6846
  831TIP3   OH223983   2.462   1.898   5.075  1.3368 -0.1740 -0.6184
  831TIP3    H123984   2.501   1.819   5.113 -0.0599 -0.9605 -0.7230
  831TIP3    H223985   2.466   1.963   5.145  1.5607 -0.6707 -0.1597
  832TIP3   OH223986   5.967   5.940   4.212 -0.3555 -0.5994  0.0499
  832TIP3    H123987   6.038   5.988   4.168  1.0491 -2.3303  0.3059
  832TIP3    H223988   5.955   5.987   4.294  1.0162 -0.6612  0.3206
  833TIP3   OH223989   6.581   6.236   4.822 -0.8208  0.1879 -0.1088
  833TIP3    H123990   6.521   6.168   4.854  1.4197 -2.3961 -1.0092
  833TIP3    H223991   6.532   6.281   4.753 -2.9006  0.5612  1.5182
  834TIP3   OH223992   6.153   2.637   0.826  0.2583  0.4734 -0.1248
  834TIP3    H123993   6.121   2.559   0.782 -1.9841  0.5816  1.1928
  834TIP3    H223994   6.095   2.707   0.796  1.0411  1.2723  0.1679
  835TIP3   OH223995   4.611   6.644   1.068 -0.0639  0.0397  0.4963
  835TIP3    H123996   4.566   6.717   1.111 -1.6501 -1.7219  2.0074
  835TIP3    H223997   4.644   6.591   1.141  0.0276 -1.3684 -0.5398
  836TIP3   OH223998   1.152   1.284   1.784  0.0370 -0.0149 -0.1223
  836TIP3    H123999   1.203   1.362   1.805  1.5100 -1.3563  1.5614
  836TIP3    H224000   1.100   1.267   1.863  0.2615 -1.1129 -0.1988
  837TIP3   OH224001   2.941   1.437   5.395 -0.3260 -0.4081 -0.4674
  837TIP3    H124002   2.916   1.380   5.322  0.2266 -1.0968 -0.1273
  837TIP3    H224003   3.010   1.389   5.440  1.1168  1.1188 -0.9580
  838TIP3   OH224004   4.084   5.249  11.055 -0.2151 -0.2709 -0.0519
  838TIP3    H124005   4.085   5.234  10.960  0.0879 -0.3415 -0.0378
  838TIP3    H224006   3.996   5.283  11.073  1.1248  4.4995 -1.0835
  839TIP3   OH224007   1.340   2.514   0.154  0.1066  0.5721  0.5016
  839TIP3    H124008   1.313   2.501   0.245 -0.7127 -0.3637  0.1394
  839TIP3    H224009   1.261   2.541   0.109  0.2371 -0.1016 -0.1589
  840TIP3   OH224010   4.574   0.918  17.095  0.2871  0.1010  0.0846
  840TIP3    H124011   4.664   0.884  17.095  1.0521  2.0210  0.3274
  840TIP3    H224012   4.530   0.870  17.165  1.1758 -0.6756  0.1360
  841TIP3   OH224013   5.224   0.797   1.935 -0.4170  0.3264 -0.1174
  841TIP3    H124014   5.259   0.835   1.855 -0.4597 -0.1896 -0.3880
  841TIP3    H224015   5.163   0.730   1.904 -1.3991  0.9799  0.3419
  842TIP3   OH224016   3.662   3.092   3.125 -0.1530 -0.0417  0.3364
  842TIP3    H124017   3.706   3.079   3.041  0.0956 -0.7925  0.5765
  842TIP3    H224018   3.589   3.031   3.124 -1.4023  1.3825 -0.1688
  843TIP3   OH224019   5.663   1.117   2.633 -0.4040 -0.0173 -0.2505
  843TIP3    H124020   5.734   1.114   2.696 -0.2594  0.1032 -0.4066
  843TIP3    H224021   5.705   1.102   2.548 -0.5831 -0.0840 -0.3296
  844TIP3   OH224022   3.701   5.035   0.752  0.8657  0.0341  0.9055
  844TIP3    H124023   3.613   5.059   0.722  1.5245 -0.1777 -1.4014
  844TIP3    H224024   3.733   5.112   0.798  0.6872  1.4403 -1.1817
  845TIP3   OH224025   1.096   0.041  14.181  0.0145 -0.1336 -0.4482
  845TIP3    H124026   1.158   0.060  14.251 -0.8506 -0.0730  0.3085
  845TIP3    H224027   1.100  -0.055  14.172  0.4117 -0.1055 -0.5835
  846TIP3   OH224028   5.534   0.110  12.142 -0.2825  0.7112 -0.7037
  846TIP3    H124029   5.507   0.103  12.051 -0.6983 -0.1292 -0.5307
  846TIP3    H224030   5.553   0.020  12.168 -0.3212  0.9192  0.0795
  847TIP3   OH224031   2.996   1.147   0.221 -0.1601  0.5099 -0.3289
  847TIP3    H124032   3.075   1.104   0.187 -0.5433  0.6534 -1.4152
  847TIP3    H224033   2.936   1.075   0.240  0.3992  0.3619  0.9936
  848TIP3   OH224034   3.316   2.593  11.411 -0.2661 -0.0759 -0.1944
  848TIP3    H124035   3.293   2.611  11.501  0.7976 -0.1758  0.1154
  848TIP3    H224036   3.234   2.598  11.363 -0.6880  0.9534  0.6139
  849TIP3   OH224037   2.695   6.194  14.100  0.0130 -0.3883  0.1845
  849TIP3    H124038   2.719   6.273  14.149  0.6325  0.2692 -1.1200
  849TIP3    H224039   2.608   6.170  14.133 -0.4655  1.2158  0.1744
  850TIP3   OH224040   2.207   1.166  14.249  0.2425  0.0703 -0.3552
  850TIP3    H124041   2.288   1.210  14.226  0.5420 -0.8791 -1.1723
  850TIP3    H224042   2.140   1.235  14.246  0.7466  0.5280 -1.2859
  851TIP3   OH224043   3.873   5.784  14.532  0.5070  0.2853 -0.0007
  851TIP3    H124044   3.842   5.827  14.612 -2.0123 -0.4086 -0.5256
  851TIP3    H224045   3.837   5.838  14.461  1.7036  0.2066 -0.7010
  852TIP3   OH224046   4.969   3.495   1.718  0.1489  0.6459  0.3576
  852TIP3    H124047   4.923   3.425   1.674  0.5700  1.5639 -1.6616
  852TIP3    H224048   4.912   3.521   1.790 -0.3979 -1.1484  0.6043
  853TIP3   OH224049   0.376   0.171  13.698 -0.4631 -0.1182  0.2326
  853TIP3    H124050   0.431   0.126  13.634  1.2962  0.1546  1.4475
  853TIP3    H224051   0.354   0.255  13.657 -0.5162 -0.5066 -0.5362
  854TIP3   OH224052   3.455   1.600   5.561 -0.3835  0.1972  0.4311
  854TIP3    H124053   3.499   1.623   5.479 -0.8960  1.1791  0.4190
  854TIP3    H224054   3.526   1.578   5.621  0.1005  1.2701  0.2654
  855TIP3   OH224055   5.755   0.662  14.281 -0.5475  0.1415 -0.0840
  855TIP3    H124056   5.715   0.749  14.282 -0.4704  0.2013 -0.9482
  855TIP3    H224057   5.830   0.671  14.222  0.5782 -0.0505  1.2932
  856TIP3   OH224058   1.939   0.191   1.654 -0.0360 -0.5810  0.1874
  856TIP3    H124059   1.941   0.112   1.600  2.2820 -0.6758  0.2988
  856TIP3    H224060   1.973   0.260   1.597  1.0432 -0.3757  1.0470
  857TIP3   OH224061   4.488   4.882   4.122 -0.2218 -0.2950 -0.0894
  857TIP3    H124062   4.556   4.831   4.164  1.5043  0.5531 -1.7337
  857TIP3    H224063   4.516   4.892   4.032 -1.5613  1.7019 -0.3727
  858TIP3   OH224064   3.771   3.260   6.015 -0.5724  0.3683 -0.3585
  858TIP3    H124065   3.793   3.267   5.923  1.8945 -0.3118  0.1001
  858TIP3    H224066   3.775   3.350   6.048  1.7121  0.2916 -0.3195
  859TIP3   OH224067   1.979   4.226  11.573 -0.5172 -0.2965  0.3722
  859TIP3    H124068   1.981   4.264  11.486  1.4302 -1.6441 -0.2292
  859TIP3    H224069   1.955   4.134  11.559  0.8338 -0.7920  1.1197
  860TIP3   OH224070   6.793   2.905  11.228  0.0642 -0.3034  0.1468
  860TIP3    H124071   6.718   2.873  11.178  0.1974  0.7604 -0.7580
  860TIP3    H224072   6.812   2.991  11.192  2.4240 -0.9803 -0.4023
  861TIP3   OH224073   1.836   3.971   5.613 -0.1122 -0.1459 -0.3559
  861TIP3    H124074   1.753   3.945   5.652 -0.8057  0.9852 -1.0441
  861TIP3    H224075   1.857   3.901   5.551 -0.8614 -0.1471 -0.6124
  862TIP3   OH224076   1.934   2.494   0.930  0.8750 -0.4504 -0.0538
  862TIP3    H124077   1.998   2.511   0.861  0.9082 -0.3359  0.0054
  862TIP3    H224078   1.877   2.571   0.930 -0.0033 -1.0782 -0.9221
  863TIP3   OH224079   2.224   0.563  17.256  0.0073 -0.5417 -0.1692
  863TIP3    H124080   2.203   0.569  17.349  0.7321 -1.8272  0.1023
  863TIP3    H224081   2.186   0.480  17.228  1.3287 -1.0244 -0.5841
  864TIP3   OH224082   4.064   1.304  13.349 -0.2847 -0.4231 -0.6063
  864TIP3    H124083   3.990   1.333  13.403 -1.2849  2.2987 -3.1543
  864TIP3    H224084   4.101   1.230  13.397 -2.0047  0.7787  2.9567
  865TIP3   OH224085   1.855   3.248  16.138  0.5246 -0.4281 -0.2050
  865TIP3    H124086   1.922   3.265  16.203  0.7073 -1.5711 -0.0663
  865TIP3    H224087   1.772   3.260  16.185  0.6446  0.0305 -0.1128
  866TIP3   OH224088   0.740   6.278  15.971 -0.6327 -0.6474  0.3686
  866TIP3    H124089   0.667   6.304  15.915 -0.9788  2.0162  1.9162
  866TIP3    H224090   0.728   6.184  15.983 -3.0352 -0.5242 -0.4813
  867TIP3   OH224091   0.260   4.871   1.925 -0.5477  0.3758 -0.1822
  867TIP3    H124092   0.344   4.840   1.891 -1.0349  0.3014 -1.3695
  867TIP3    H224093   0.276   4.888   2.018  0.6463 -0.0963 -0.2883
  868TIP3   OH224094   4.516   0.746   4.910 -0.3918  0.6078  0.3610
  868TIP3    H124095   4.546   0.673   4.964 -1.2898  0.9577  1.3726
  868TIP3    H224096   4.421   0.748   4.922 -0.2367  2.9692  1.7377
  869TIP3   OH224097   2.475   4.091  11.594  0.1705  0.1815  0.4646
  869TIP3    H124098   2.426   4.072  11.514  1.0679  0.5168 -0.1864
  869TIP3    H224099   2.470   4.186  11.604  0.6233  0.2149  0.4227
  870TIP3   OH224100   3.154   4.583  15.183  0.0621  0.1203  0.0267
  870TIP3    H124101   3.072   4.583  15.135  0.6218  1.1157 -0.9810
  870TIP3    H224102   3.216   4.541  15.123  0.5002  0.2760  0.3675
  871TIP3   OH224103   6.583   0.342   6.268 -0.0659  0.4017 -0.0348
  871TIP3    H124104   6.568   0.248   6.269  1.6537  0.0907 -0.9607
  871TIP3    H224105   6.606   0.363   6.178 -0.2818  1.6971  0.1842
  872TIP3   OH224106   5.319   4.803  17.043  0.6657  0.0572  0.0241
  872TIP3    H124107   5.391   4.865  17.052  1.0641  0.0236 -2.2354
  872TIP3    H224108   5.269   4.836  16.967 -1.2196 -0.3979  0.9963
  873TIP3   OH224109   3.944   2.756  12.111 -0.1354  0.3637  0.0864
  873TIP3    H124110   3.996   2.815  12.056 -0.4618  0.7138  0.1536
  873TIP3    H224111   3.990   2.672  12.105 -0.0076  0.4699 -0.4901
  874TIP3   OH224112   0.802   6.330   0.491 -0.3611 -0.1979 -0.0910
  874TIP3    H124113   0.711   6.359   0.482 -0.1364  1.1268  1.5075
  874TIP3    H224114   0.840   6.343   0.405 -1.0790  1.5114 -0.1912
  875TIP3   OH224115   0.837   5.325  16.121 -0.1021  0.1195 -0.0540
  875TIP3    H124116   0.802   5.272  16.193 -1.4367 -0.5092 -1.1066
  875TIP3    H224117   0.840   5.265  16.046 -0.1806  1.1294 -0.8950
  876TIP3   OH224118   5.608   2.964   2.907  0.0534 -0.2077 -0.5618
  876TIP3    H124119   5.675   2.913   2.862 -1.4880 -3.0253  0.0745
  876TIP3    H224120   5.539   2.975   2.842 -0.1433 -0.0205 -0.3234
  877TIP3   OH224121   3.780   3.375   4.798 -0.3351 -0.4898  0.1220
  877TIP3    H124122   3.813   3.347   4.884  0.8021 -0.5808 -0.3207
  877TIP3    H224123   3.807   3.305   4.739  0.5635  0.4409 -0.6178
  878TIP3   OH224124   0.416   5.761  14.382 -0.0316 -0.3852 -0.1441
  878TIP3    H124125   0.341   5.701  14.382 -1.9223  1.8170  0.2401
  878TIP3    H224126   0.408   5.810  14.300  2.1023 -1.3029 -0.9698
  879TIP3   OH224127   6.347   4.948  14.345  0.0948  0.4423  0.2588
  879TIP3    H124128   6.436   4.961  14.377 -0.2543  0.0757  1.4372
  879TIP3    H224129   6.317   5.035  14.321 -0.3595  1.1371  3.0053
  880TIP3   OH224130   0.617   0.685  14.547 -0.8520 -0.0271  0.9133
  880TIP3    H124131   0.594   0.593  14.534 -0.1964 -0.1275  0.3962
  880TIP3    H224132   0.580   0.707  14.633 -1.4960 -0.6096  0.7953
  881TIP3   OH224133   0.550   4.847   1.820 -0.6598  0.0691  0.0806
  881TIP3    H124134   0.560   4.806   1.734 -1.4330  1.1468 -0.5575
  881TIP3    H224135   0.634   4.835   1.863 -0.3176 -0.6430 -0.7583
  882TIP3   OH224136   2.445   5.579  15.773 -0.0191  0.6164 -0.5846
  882TIP3    H124137   2.518   5.614  15.721 -0.0013  1.0203 -0.2876
  882TIP3    H224138   2.465   5.486  15.782  0.3747  0.6950 -0.6422
  883TIP3   OH224139   4.011   0.929   5.159 -0.0289 -0.3712  0.0073
  883TIP3    H124140   4.066   0.956   5.233 -0.8480  2.1605 -0.2029
  883TIP3    H224141   3.970   0.848   5.188  2.0271 -1.1003  1.0722
  884TIP3   OH224142   4.091   4.644   2.361  0.1622 -0.2529  0.1836
  884TIP3    H124143   4.068   4.696   2.437  0.0267  0.0013 -0.0300
  884TIP3    H224144   4.176   4.678   2.333  0.5405 -0.8102  0.6323
  885TIP3   OH224145   3.847   0.216   0.768  0.0467  0.2067  0.8855
  885TIP3    H124146   3.797   0.143   0.730 -0.0560  1.1087 -0.7713
  885TIP3    H224147   3.882   0.263   0.693  0.6002  1.5464  1.9481
  886TIP3   OH224148   2.914   5.548  12.432  0.1587  0.1732 -0.6487
  886TIP3    H124149   2.894   5.541  12.526  0.1315 -0.8887 -0.7237
  886TIP3    H224150   2.833   5.521  12.389  0.0163  1.1103 -1.0010
  887TIP3   OH224151   0.567   3.662  11.771  0.0618 -0.4477 -0.2994
  887TIP3    H124152   0.605   3.583  11.809  1.5895  0.1264 -0.5457
  887TIP3    H224153   0.628   3.687  11.701  0.2365  1.5363  0.4864
  888TIP3   OH224154   3.577   6.152   3.475 -0.1509 -0.1561 -0.3513
  888TIP3    H124155   3.662   6.169   3.434  1.1774 -0.2594  2.1410
  888TIP3    H224156   3.576   6.057   3.490  0.2729  0.1015  1.5038
  889TIP3   OH224157   3.524   1.568   2.015  0.0594 -0.3423  0.1755
  889TIP3    H124158   3.574   1.607   2.086  2.3137 -0.8235 -1.0693
  889TIP3    H224159   3.498   1.643   1.961 -0.3588 -0.1236  0.6628
  890TIP3   OH224160   4.948   4.024  12.434  0.3375 -0.0459 -0.3988
  890TIP3    H124161   4.976   3.995  12.347 -2.3834 -1.2019 -1.0048
  890TIP3    H224162   4.892   4.100  12.417 -1.3630 -1.1123  0.1086
  891TIP3   OH224163   6.818   1.881   4.432  0.2313  0.2990 -0.2728
  891TIP3    H124164   6.741   1.933   4.406  1.2751  2.5038  0.7962
  891TIP3    H224165   6.787   1.828   4.505 -0.4599  0.6499 -0.2968
  892TIP3   OH224166   3.033   4.134  12.846 -0.2167 -0.1110 -0.2779
  892TIP3    H124167   3.031   4.039  12.859  0.5258 -0.1396 -0.3149
  892TIP3    H224168   3.126   4.157  12.854 -0.1831  0.3914 -1.7349
  893TIP3   OH224169   2.869   1.879   4.251  1.1937 -0.5098  0.6237
  893TIP3    H124170   2.919   1.844   4.324  0.5627  1.6962  2.2343
  893TIP3    H224171   2.783   1.837   4.257  1.3701 -0.8477  0.7342
  894TIP3   OH224172   2.908   2.324  13.928 -0.4021  0.2622  0.5685
  894TIP3    H124173   2.855   2.399  13.902 -0.7586  0.5144  1.9182
  894TIP3    H224174   2.863   2.288  14.004  2.2315  1.5561  2.9351
  895TIP3   OH224175   0.189   5.974   0.455 -0.0430  0.5752 -0.0880
  895TIP3    H124176   0.193   5.971   0.359 -0.0695 -0.6392 -0.0606
  895TIP3    H224177   0.222   6.061   0.477  0.1308  0.8068 -1.1893
  896TIP3   OH224178   1.903   3.819   4.886  0.0193 -0.1424 -0.2005
  896TIP3    H124179   1.911   3.748   4.822 -0.6291 -1.3428  0.9932
  896TIP3    H224180   1.958   3.791   4.959 -1.5472 -0.2790  0.9879
  897TIP3   OH224181   6.723   6.221   1.418 -0.0750 -0.2098  0.0179
  897TIP3    H124182   6.722   6.130   1.448  0.9296 -0.5286 -0.8484
  897TIP3    H224183   6.688   6.217   1.329 -0.2903  0.2954  0.0768
  898TIP3   OH224184   0.199   0.215  14.115 -0.0149  0.4710 -0.1526
  898TIP3    H124185   0.213   0.310  14.112  1.4800  0.3170  0.8643
  898TIP3    H224186   0.250   0.181  14.043 -1.9502  0.5301 -1.6289
  899TIP3   OH224187   2.290   2.747  13.689 -0.2692  0.1195  0.4502
  899TIP3    H124188   2.223   2.809  13.717 -0.4233 -0.4903  1.5012
  899TIP3    H224189   2.368   2.771  13.739 -0.7067 -1.3445  1.9475
  900TIP3   OH224190   1.826   2.827  16.208 -0.3496  0.1244 -0.5790
  900TIP3    H124191   1.843   2.763  16.139  1.2164 -0.5357  0.3455
  900TIP3    H224192   1.780   2.778  16.276 -0.4266  0.3500 -0.4640
  901TIP3   OH224193   1.007   4.138   2.605 -0.3297  0.1155 -0.1968
  901TIP3    H124194   1.066   4.206   2.635  0.0671  0.6135 -1.9471
  901TIP3    H224195   0.928   4.149   2.658  0.7924  0.0152  1.5520
  902TIP3   OH224196   6.107   6.141   3.811 -0.5040  0.1858  0.3932
  902TIP3    H124197   6.015   6.166   3.826 -0.7409 -0.9653  0.9617
  902TIP3    H224198   6.103   6.049   3.785  0.5936 -0.3051  1.8606
  903TIP3   OH224199   2.538   6.323  14.325 -0.0939  0.5644 -0.5492
  903TIP3    H124200   2.552   6.412  14.358 -1.0369 -0.2750  2.4195
  903TIP3    H224201   2.449   6.325  14.290 -0.0846  0.8032 -0.5657
  904TIP3   OH224202   6.731   5.384   0.679 -0.2132 -0.1314  0.3962
  904TIP3    H124203   6.692   5.307   0.637  0.3758 -2.2449  3.4320
  904TIP3    H224204   6.657   5.443   0.696 -0.8260 -0.4541 -1.0075
  905TIP3   OH224205   6.297   5.785   1.070  0.2642 -0.1599 -0.2307
  905TIP3    H124206   6.312   5.691   1.061  2.2848 -0.0815  1.6368
  905TIP3    H224207   6.213   5.792   1.116  0.4764 -1.0859  0.3087
  906TIP3   OH224208   5.954   4.374  14.759 -0.6858  0.0871  0.2158
  906TIP3    H124209   6.045   4.347  14.772  0.0336  1.9580 -0.6280
  906TIP3    H224210   5.948   4.460  14.801 -1.3042  1.2008 -2.0220
  907TIP3   OH224211   3.933   4.004   3.563  0.8599  0.5574  0.0352
  907TIP3    H124212   3.969   3.940   3.501 -0.2707  0.6511 -0.7415
  907TIP3    H224213   3.887   3.951   3.628 -1.6066  0.5485 -1.5668
  908TIP3   OH224214   1.643   0.584   0.784 -0.4984  0.1871 -0.7467
  908TIP3    H124215   1.704   0.631   0.840  0.8457  1.1469 -2.8864
  908TIP3    H224216   1.667   0.492   0.795  0.9289  0.4927 -1.0133
  909TIP3   OH224217   2.011   3.483   0.723  0.0475  0.1048  0.0577
  909TIP3    H124218   2.005   3.521   0.635 -0.6666 -1.2625 -0.5236
  909TIP3    H224219   2.091   3.520   0.760  1.0145 -0.1941 -1.6327
  910TIP3   OH224220   6.777   5.963  11.873  0.0523  0.0450 -0.1515
  910TIP3    H124221   6.702   6.009  11.910 -0.2935 -0.5430 -0.1075
  910TIP3    H224222   6.839   5.954  11.946  0.1462  0.4910 -0.1775
  911TIP3   OH224223   6.127   3.340   5.655 -0.4552  0.4141 -0.4651
  911TIP3    H124224   6.075   3.359   5.733  0.3926  0.5121  0.0863
  911TIP3    H224225   6.125   3.421   5.604 -0.1507  0.6936 -0.0397
  912TIP3   OH224226   0.784   6.202   5.636 -0.1182 -0.0174  0.5001
  912TIP3    H124227   0.800   6.131   5.574 -0.6611  0.4319 -0.1685
  912TIP3    H224228   0.812   6.281   5.589  1.9846  0.0984  1.7898
  913TIP3   OH224229   2.324   5.833   2.316 -0.3175 -0.1859 -0.2280
  913TIP3    H124230   2.314   5.832   2.411 -2.5618  0.0415 -0.4145
  913TIP3    H224231   2.316   5.925   2.292 -2.8777 -0.4921 -0.8442
  914TIP3   OH224232   2.947   2.807   1.234  0.3149  0.0315  0.0510
  914TIP3    H124233   2.968   2.750   1.308 -0.4628 -0.4524 -0.0867
  914TIP3    H224234   2.953   2.896   1.269  0.4728 -0.1748  0.5526
  915TIP3   OH224235   1.605   4.696  13.763 -0.2948  0.5388 -0.2006
  915TIP3    H124236   1.524   4.658  13.730 -0.2051 -0.4697  0.6944
  915TIP3    H224237   1.583   4.731  13.850  0.6994 -1.8170  1.0935
  916TIP3   OH224238   3.859   3.225  14.564 -0.1248 -0.0890  0.7250
  916TIP3    H124239   3.907   3.145  14.545  0.4359  0.2436  0.7147
  916TIP3    H224240   3.898   3.257  14.645 -0.4942  0.0647  0.8468
  917TIP3   OH224241   5.581   5.147  11.999  0.5923 -0.0404  0.5203
  917TIP3    H124242   5.575   5.242  11.992 -1.1829 -0.0743  1.2117
  917TIP3    H224243   5.625   5.120  11.918 -0.5881  1.2236 -0.5905
  918TIP3   OH224244   5.956   3.098   4.365  0.0213  0.3628 -1.1100
  918TIP3    H124245   5.965   3.083   4.271 -1.3991  2.9820 -1.7707
  918TIP3    H224246   5.931   3.190   4.372 -2.6709 -0.3864  1.6426
  919TIP3   OH224247   5.573   3.902   3.053 -0.1242 -0.1038 -0.4455
  919TIP3    H124248   5.668   3.907   3.068  0.4303  0.2386 -3.3190
  919TIP3    H224249   5.556   3.809   3.039 -0.3538 -0.2438  0.7196
  920TIP3   OH224250   6.415   1.472  14.461  0.1884 -0.0763 -0.0447
  920TIP3    H124251   6.460   1.549  14.496 -0.4350 -0.0836  0.8003
  920TIP3    H224252   6.322   1.494  14.466  0.0236 -0.7134 -0.2060
  921TIP3   OH224253   0.314   4.754  14.821  0.7134 -0.3996  0.1588
  921TIP3    H124254   0.249   4.735  14.889  1.8539 -1.2914  1.0535
  921TIP3    H224255   0.263   4.787  14.747 -0.6507 -0.1590  1.1653
  922TIP3   OH224256   3.478   3.317  14.224 -0.2975 -0.5727 -0.1214
  922TIP3    H124257   3.412   3.253  14.198  0.7470 -1.4577 -0.6787
  922TIP3    H224258   3.549   3.305  14.161  0.7411 -0.2135  0.9539
  923TIP3   OH224259   5.793   3.858  12.255  0.6789 -0.1774  0.5063
  923TIP3    H124260   5.746   3.908  12.188  0.0967 -1.5534 -0.1462
  923TIP3    H224261   5.738   3.863  12.333 -1.7484 -3.3918 -0.7593
  924TIP3   OH224262   4.550   5.035  13.067  0.7086  0.4148 -0.1383
  924TIP3    H124263   4.579   5.008  12.980 -0.0562 -0.1024 -0.2379
  924TIP3    H224264   4.514   5.123  13.053  0.9738  0.5039 -0.2652
  925TIP3   OH224265   0.413   4.363  16.476 -0.7715 -0.0348  0.3691
  925TIP3    H124266   0.475   4.327  16.412 -0.3358  0.1496  0.6783
  925TIP3    H224267   0.382   4.286  16.525 -1.4710 -0.2331 -0.3685
  926TIP3   OH224268   4.614   4.753   5.749  0.6918  0.2268  0.2950
  926TIP3    H124269   4.677   4.761   5.821 -1.3199  1.4615  2.0078
  926TIP3    H224270   4.667   4.764   5.670  2.8188 -0.1569  1.5896
  927TIP3   OH224271   4.451   1.855  14.834  0.3613  0.0672 -0.0564
  927TIP3    H124272   4.468   1.932  14.888  0.1832  0.0001  0.0960
  927TIP3    H224273   4.531   1.803  14.841 -0.1263 -0.5523  1.1737
  928TIP3   OH224274   3.077   4.615   1.837  0.2694 -0.2391 -0.6352
  928TIP3    H124275   3.086   4.570   1.921 -0.4924 -1.2139 -1.0546
  928TIP3    H224276   3.133   4.566   1.778 -0.8638 -0.9094 -1.1867
  929TIP3   OH224277   1.051   4.484  11.371 -0.1699 -0.1805 -0.1031
  929TIP3    H124278   1.110   4.559  11.376 -0.0131 -0.3741  2.9876
  929TIP3    H224279   0.966   4.521  11.350 -0.3771  1.1793  2.6391
  930TIP3   OH224280   2.702   6.605  10.143  0.0254  0.0161 -0.2819
  930TIP3    H124281   2.670   6.681  10.095 -0.4521 -0.5334 -0.8494
  930TIP3    H224282   2.797   6.613  10.140 -0.0269  0.9856  0.3173
  931TIP3   OH224283   1.484   6.000   4.884  0.2009 -0.6034 -0.0214
  931TIP3    H124284   1.525   6.048   4.956  0.1515  0.6458 -0.7967
  931TIP3    H224285   1.406   6.051   4.862  1.6960  0.7556 -2.8183
  932TIP3   OH224286   1.498   2.735  17.025  0.1981 -0.0292  0.5442
  932TIP3    H124287   1.444   2.797  17.074 -0.6288  1.3543 -1.9489
  932TIP3    H224288   1.588   2.759  17.048 -0.1564  0.1634  1.8032
  933TIP3   OH224289   1.285   4.188   4.346 -0.4266  0.0030 -0.1887
  933TIP3    H124290   1.220   4.200   4.277 -1.2556 -0.4723  0.4971
  933TIP3    H224291   1.369   4.205   4.302 -1.0876  2.2514 -0.7077
  934TIP3   OH224292   2.488   6.376  16.281 -0.2351 -0.0529  0.3756
  934TIP3    H124293   2.582   6.376  16.295 -0.0705  0.8546 -0.5741
  934TIP3    H224294   2.456   6.451  16.332 -0.5788 -0.8638  1.3884
  935TIP3   OH224295   4.547   5.780  16.238  0.1947 -0.0956 -0.0111
  935TIP3    H124296   4.522   5.715  16.304  0.9773 -0.8677 -0.4552
  935TIP3    H224297   4.521   5.864  16.276  1.1226 -0.4630  1.5366
  936TIP3   OH224298   4.274   1.851  16.249 -0.3155 -0.2664 -0.2906
  936TIP3    H124299   4.366   1.877  16.246 -0.5163  0.6104  0.8252
  936TIP3    H224300   4.273   1.772  16.303 -0.0195 -1.3146 -1.7433
  937TIP3   OH224301   0.182   3.966   2.469  0.2614  0.3662 -0.4137
  937TIP3    H124302   0.238   4.044   2.474  1.4786 -0.5645  2.6691
  937TIP3    H224303   0.120   3.976   2.541  0.3261 -1.3916 -0.0688
  938TIP3   OH224304   5.668   6.665  14.814 -0.1446  0.2124  0.2608
  938TIP3    H124305   5.651   6.758  14.794  0.5743  0.1959 -0.4568
  938TIP3    H224306   5.699   6.628  14.732 -1.6747 -0.9918  0.1798
  939TIP3   OH224307   2.683   1.249  13.779  0.6788  0.4039  0.2396
  939TIP3    H124308   2.688   1.165  13.825 -1.9086  0.4129  0.6411
  939TIP3    H224309   2.694   1.226  13.687 -1.2495 -0.6060  0.2101
  940TIP3   OH224310   0.898   4.799   3.335  0.0482 -0.5764  0.0287
  940TIP3    H124311   0.853   4.724   3.294 -1.8803  1.4027 -1.7130
  940TIP3    H224312   0.972   4.817   3.278 -1.8480  1.3086 -2.0135
  941TIP3   OH224313   3.635   1.047   0.793 -0.2798  0.3040 -0.6293
  941TIP3    H124314   3.549   1.011   0.817  0.8493 -1.7927  0.5823
  941TIP3    H224315   3.631   1.055   0.697 -1.1506 -1.7841 -0.8315
  942TIP3   OH224316   4.079   6.034   4.160 -0.3237  0.2016 -0.3625
  942TIP3    H124317   3.988   6.066   4.160  0.0914  1.4284  0.1380
  942TIP3    H224318   4.123   6.087   4.227  0.5491 -1.0210  0.0574
  943TIP3   OH224319   3.060   0.363   5.885 -0.2282  0.1584  0.6424
  943TIP3    H124320   2.999   0.322   5.947 -1.9079 -0.1292 -1.1336
  943TIP3    H224321   3.073   0.298   5.817  1.0266  0.7489  0.2778
  944TIP3   OH224322   5.789   5.586   2.924  0.5213 -0.2224 -0.3766
  944TIP3    H124323   5.781   5.493   2.899 -1.6084 -1.0664  2.8469
  944TIP3    H224324   5.709   5.626   2.891 -0.1371 -0.3435  0.9900
  945TIP3   OH224325   0.353   1.643  15.351 -0.1322 -1.0135  0.0635
  945TIP3    H124326   0.380   1.711  15.413  1.0261 -0.5705 -0.9030
  945TIP3    H224327   0.279   1.682  15.304  0.3307 -0.5323 -0.2753
  946TIP3   OH224328   4.682   1.142  16.451 -0.4747  0.4279  0.3778
  946TIP3    H124329   4.587   1.149  16.442 -0.5609 -1.6752 -0.8169
  946TIP3    H224330   4.695   1.110  16.540 -0.9233  0.0989  0.3275
  947TIP3   OH224331   6.059   2.357  17.002 -0.1957 -0.2486 -0.4184
  947TIP3    H124332   6.036   2.272  17.039 -0.0818 -0.1921 -0.2123
  947TIP3    H224333   6.043   2.419  17.073  2.5286 -0.4295  0.4794
  948TIP3   OH224334   2.711   3.115  14.675 -0.2421  0.6676 -0.0981
  948TIP3    H124335   2.679   3.077  14.594  0.2351  1.3621 -0.6243
  948TIP3    H224336   2.806   3.104  14.671  0.0136  2.6813 -0.6999
  949TIP3   OH224337   6.456   0.104   4.018 -0.6090 -0.3055 -0.8216
  949TIP3    H124338   6.478   0.109   4.111 -1.7117  1.1780 -0.6072
  949TIP3    H224339   6.468   0.011   3.996  1.4672 -0.3676  0.3130
  950TIP3   OH224340   1.968   0.831  12.693  0.3069  0.1705  0.4567
  950TIP3    H124341   1.949   0.738  12.702  0.5018  0.0428 -0.3896
  950TIP3    H224342   1.890   0.867  12.650 -0.0158  0.5104  1.3030
  951TIP3   OH224343   5.252   5.473   5.629  0.0106  0.2987  0.2485
  951TIP3    H124344   5.232   5.418   5.705 -2.7444  0.6618 -0.1132
  951TIP3    H224345   5.268   5.559   5.666 -1.1488  0.4342  0.4886
  952TIP3   OH224346   5.214   3.095   6.789  0.5709 -0.2604 -0.3764
  952TIP3    H124347   5.269   3.171   6.770 -0.3152  0.4135 -0.3490
  952TIP3    H224348   5.196   3.057   6.703 -2.5650  2.1693 -0.9933
  953TIP3   OH224349   6.629   1.715  17.280  0.3332  0.2630  0.3221
  953TIP3    H124350   6.609   1.716  17.374  1.1007  1.6220  0.4964
  953TIP3    H224351   6.723   1.730  17.275  0.1018  1.6175 -0.6886
  954TIP3   OH224352   1.275   5.505  11.450 -0.2727  0.0380 -0.2927
  954TIP3    H124353   1.297   5.550  11.368 -0.7581 -1.1672 -1.1131
  954TIP3    H224354   1.357   5.463  11.477 -0.3434 -0.3679 -0.6956
  955TIP3   OH224355   4.104   4.607  15.878  0.5011 -0.2854 -0.2579
  955TIP3    H124356   4.135   4.654  15.955 -0.2759  0.3627 -0.3324
  955TIP3    H224357   4.053   4.671  15.829  0.7177 -0.7785 -1.1530
  956TIP3   OH224358   0.958   2.323  13.278  0.8513 -0.2203  0.1080
  956TIP3    H124359   0.908   2.318  13.359 -0.0429  0.8670 -0.3524
  956TIP3    H224360   1.009   2.242  13.276 -0.1668 -0.9090  1.0613
  957TIP3   OH224361   1.147   4.516  12.595  0.2157  0.4312  0.0350
  957TIP3    H124362   1.172   4.574  12.524 -0.2846 -1.0584 -1.4202
  957TIP3    H224363   1.187   4.555  12.673  1.2164  1.8243 -1.1180
  958TIP3   OH224364   4.336   2.542  14.329  0.4196  0.4342 -0.1047
  958TIP3    H124365   4.347   2.454  14.366  0.7275  0.7046  0.4639
  958TIP3    H224366   4.343   2.600  14.405 -1.7398  0.8388 -0.1659
  959TIP3   OH224367   2.815   3.749  16.669  0.4728 -0.7336 -0.2028
  959TIP3    H124368   2.765   3.823  16.635  0.6998 -0.4467  0.0817
  959TIP3    H224369   2.903   3.784  16.684  0.7694 -1.2419 -0.7220
  960TIP3   OH224370   4.753   3.075   2.903  0.5547  0.1549  0.0317
  960TIP3    H124371   4.806   3.078   2.982 -0.8258  3.5616  1.0283
  960TIP3    H224372   4.676   3.128   2.924 -1.0596 -0.8532 -2.8120
  961TIP3   OH224373   1.028   2.121   4.199  0.3314 -0.1544  0.1337
  961TIP3    H124374   0.942   2.081   4.186  1.7966 -3.5813 -0.1653
  961TIP3    H224375   1.046   2.167   4.117 -0.0850 -1.8749 -0.9749
  962TIP3   OH224376   3.616   4.395  15.903 -0.5495  0.1176  0.5847
  962TIP3    H124377   3.652   4.424  15.987 -0.9775 -0.1324  0.8551
  962TIP3    H224378   3.688   4.345  15.863  0.3848  1.9473 -0.1187
  963TIP3   OH224379   5.779   1.112  15.300 -0.1738  0.2514  0.4271
  963TIP3    H124380   5.703   1.054  15.296  0.7642 -0.9983 -2.0238
  963TIP3    H224381   5.852   1.057  15.273  0.9432  2.3061 -1.0702
  964TIP3   OH224382   1.194   1.978  12.480  0.1217 -0.0115  0.2901
  964TIP3    H124383   1.101   1.990  12.459  0.2950 -0.2179 -0.6718
  964TIP3    H224384   1.195   1.949  12.571 -0.7128  0.6022  0.5099
  965TIP3   OH224385   4.583   2.508   5.122  0.1062 -0.2885 -0.2724
  965TIP3    H124386   4.591   2.504   5.027 -0.1986  1.2991 -0.3862
  965TIP3    H224387   4.672   2.522   5.153  0.0135  0.6834 -0.4302
  966TIP3   OH224388   6.181   6.042   2.012  0.0608  0.2114  0.0621
  966TIP3    H124389   6.120   6.059   2.084 -0.1036 -1.2317  0.3043
  966TIP3    H224390   6.256   6.099   2.030  0.7469 -1.2597  2.3243
  967TIP3   OH224391   2.747   0.509  10.236  0.2677 -0.0906 -0.6021
  967TIP3    H124392   2.672   0.486  10.291 -0.0617 -0.5407 -1.2149
  967TIP3    H224393   2.770   0.597  10.262 -0.0126 -0.2224  0.1092
  968TIP3   OH224394   3.213   4.311   4.728  0.7639  0.0173 -0.1641
  968TIP3    H124395   3.229   4.245   4.661  1.6570 -2.0779  1.9324
  968TIP3    H224396   3.119   4.308   4.743  0.6318  0.1140 -0.9454
  969TIP3   OH224397   3.905   6.735  16.157 -0.0306  0.9892  0.2221
  969TIP3    H124398   3.852   6.752  16.235 -0.9959 -0.3514 -0.1210
  969TIP3    H224399   3.973   6.675  16.188 -0.8534 -0.1403 -0.0966
  970TIP3   OH224400   2.260   1.379   3.192  0.5649 -0.0445 -0.0472
  970TIP3    H124401   2.227   1.308   3.136  0.4386 -0.5368  0.6361
  970TIP3    H224402   2.206   1.455   3.169  0.4562 -0.2656 -0.5323
  971TIP3   OH224403   5.081   1.726   6.254 -0.2692 -0.1897 -0.3653
  971TIP3    H124404   5.090   1.631   6.258  0.7714 -0.0994 -0.2286
  971TIP3    H224405   5.097   1.755   6.344 -1.5059  0.0535 -0.2119
  972TIP3   OH224406   3.227   3.417  16.193  0.1515 -1.1214  0.4684
  972TIP3    H124407   3.307   3.366  16.179  2.2393  1.3713  2.2223
  972TIP3    H224408   3.208   3.457  16.108  0.0280 -2.6475 -0.2545
  973TIP3   OH224409   2.809   3.811  15.437 -0.2278  0.0915  0.1852
  973TIP3    H124410   2.801   3.906  15.445 -3.5112  0.0253 -0.7268
  973TIP3    H224411   2.756   3.776  15.509  0.8141 -1.0742  0.4198
  974TIP3   OH224412   1.100   4.849  10.877 -0.0590  0.1728  0.1666
  974TIP3    H124413   1.173   4.892  10.832 -0.0497  1.1341  1.0688
  974TIP3    H224414   1.032   4.916  10.882 -0.6806 -0.4425  0.1222
  975TIP3   OH224415   4.757   6.257  12.294 -0.5487  0.3356 -0.3083
  975TIP3    H124416   4.723   6.181  12.246  0.4442  0.0098 -0.5018
  975TIP3    H224417   4.851   6.257  12.278 -0.6742  2.3645 -1.3850
  976TIP3   OH224418   2.608   5.328   4.682  0.0668 -0.6667  0.1655
  976TIP3    H124419   2.562   5.296   4.760  2.0917 -1.9225  0.9297
  976TIP3    H224420   2.700   5.330   4.709  0.7056 -0.2268 -1.9221
  977TIP3   OH224421   6.292   5.871  15.176 -0.3643 -0.4566  0.3702
  977TIP3    H124422   6.258   5.835  15.258  2.4055  0.0960  1.8822
  977TIP3    H224423   6.258   5.960  15.172  0.6891  0.0533  1.7937
  978TIP3   OH224424   5.536   3.226  16.003  0.6770 -0.1731  0.1203
  978TIP3    H124425   5.558   3.153  15.945 -0.1622  0.1922 -0.6800
  978TIP3    H224426   5.619   3.271  16.017  0.4451  1.6751 -3.5163
  979TIP3   OH224427   6.160   4.523   4.530  0.4294  0.2243 -0.4449
  979TIP3    H124428   6.245   4.564   4.546  1.0858 -0.8675 -0.9830
  979TIP3    H224429   6.163   4.441   4.580 -0.0782 -0.0796 -0.8911
  980TIP3   OH224430   0.482   4.660   5.983 -0.0897  0.5511  0.4904
  980TIP3    H124431   0.487   4.686   6.075  1.2077  1.4516  0.1914
  980TIP3    H224432   0.509   4.738   5.934 -1.3570  0.2778 -0.7008
  981TIP3   OH224433   1.740   3.961  15.480 -0.7202  0.4235 -0.3132
  981TIP3    H124434   1.736   3.886  15.421 -0.3026 -0.5790  0.8920
  981TIP3    H224435   1.652   3.966  15.518 -0.8703  0.8184 -0.7003
  982TIP3   OH224436   2.268   1.765  14.427  0.2553  0.0212  0.7001
  982TIP3    H124437   2.327   1.835  14.401  1.0756  0.0439  2.4470
  982TIP3    H224438   2.259   1.711  14.349  0.6468  1.3574 -0.2953
  983TIP3   OH224439   1.195   1.452  16.207  0.2720 -0.2012 -0.6325
  983TIP3    H124440   1.234   1.499  16.282  1.6458 -1.4270 -0.5507
  983TIP3    H224441   1.165   1.522  16.149 -0.2840  0.7834  0.7699
  984TIP3   OH224442   6.469   6.215   1.164 -0.2915  0.4060 -0.3247
  984TIP3    H124443   6.497   6.128   1.137  2.9245  1.6083 -1.3114
  984TIP3    H224444   6.427   6.201   1.249 -1.4640 -2.2488 -1.2247
  985TIP3   OH224445   1.876   4.840   2.889  0.0905 -0.0016  0.0671
  985TIP3    H124446   1.939   4.771   2.910  1.1018  0.5676 -0.9359
  985TIP3    H224447   1.929   4.909   2.848 -0.8706  1.3979  1.0450
  986TIP3   OH224448   5.107   2.747   3.241  0.0121 -0.2296  0.0988
  986TIP3    H124449   5.173   2.679   3.251 -0.0019 -0.3952 -0.8368
  986TIP3    H224450   5.057   2.744   3.322 -0.2885 -1.6507 -0.1174
  987TIP3   OH224451   0.535   4.195  11.881 -0.3065 -0.8295 -0.3227
  987TIP3    H124452   0.491   4.256  11.822  2.7274  0.2868 -1.5915
  987TIP3    H224453   0.513   4.226  11.969 -2.9837 -1.1251 -0.7846
  988TIP3   OH224454   1.780   4.590   0.713 -0.0988 -0.3165  0.1860
  988TIP3    H124455   1.716   4.562   0.778 -0.6317  1.5005  0.5091
  988TIP3    H224456   1.750   4.677   0.686  2.5792  0.9193  0.8533
  989TIP3   OH224457   1.644   4.747  16.832  0.3066  0.0326  0.4900
  989TIP3    H124458   1.554   4.772  16.812  0.7059  1.4566  0.4075
  989TIP3    H224459   1.683   4.825  16.871  3.3166  1.7923 -5.0348
  990TIP3   OH224460   3.705   6.491  14.126  0.1768 -0.6412 -0.1768
  990TIP3    H124461   3.796   6.467  14.146  0.2645  0.3309  0.6483
  990TIP3    H224462   3.707   6.585  14.110 -0.1028 -1.1002 -3.7439
  991TIP3   OH224463   0.545   4.893  16.521  0.0986 -0.0479 -0.3814
  991TIP3    H124464   0.475   4.832  16.497  0.1180 -0.2218 -0.0040
  991TIP3    H224465   0.529   4.912  16.613  0.0130  0.6327 -0.5366
  992TIP3   OH224466   3.881   3.677   2.498 -0.4923 -0.0163  0.4694
  992TIP3    H124467   3.793   3.712   2.511 -0.3244  1.0631 -1.0567
  992TIP3    H224468   3.873   3.617   2.424  0.2139  0.9002 -0.3891
  993TIP3   OH224469   2.281   3.950   0.453 -0.4431 -0.4443 -0.7416
  993TIP3    H124470   2.368   3.965   0.415 -0.7454  1.9945 -0.5960
  993TIP3    H224471   2.299   3.921   0.542  0.2383  0.0373 -0.7127
  994TIP3   OH224472   3.469   6.109   4.512  0.1913  0.2742 -0.8484
  994TIP3    H124473   3.485   6.018   4.485 -1.6929 -0.9639  1.7186
  994TIP3    H224474   3.520   6.119   4.593  0.4794  1.5611 -1.1797
  995TIP3   OH224475   5.207   6.715   1.040 -0.1883  0.7997  0.0788
  995TIP3    H124476   5.229   6.629   1.077  0.2025  1.5158  1.5792
  995TIP3    H224477   5.153   6.695   0.964 -0.6764 -0.7583  0.7942
  996TIP3   OH224478   5.786   3.031  14.147 -0.5390 -0.2487 -0.5565
  996TIP3    H124479   5.826   3.118  14.145  0.1154 -0.5198  0.3620
  996TIP3    H224480   5.848   2.975  14.101 -1.3316 -0.1129 -1.8716
  997TIP3   OH224481   6.728   0.382   4.535  0.5538 -0.2897 -0.1342
  997TIP3    H124482   6.716   0.294   4.498 -0.1560 -0.3922  0.3210
  997TIP3    H224483   6.707   0.441   4.463  1.3015 -0.4860 -0.5253
  998TIP3   OH224484   2.481   6.508  10.849 -0.8859  0.5942  0.1444
  998TIP3    H124485   2.397   6.534  10.810 -0.9313 -1.0195 -0.9479
  998TIP3    H224486   2.497   6.421  10.814  1.4789  1.0325 -0.0255
  999TIP3   OH224487   0.528   6.738   2.743  0.0686  1.1215  0.3195
  999TIP3    H124488   0.493   6.816   2.700 -0.4538  0.9859  0.4948
  999TIP3    H224489   0.616   6.728   2.705 -0.3723  1.0042 -0.7011
 1000TIP3   OH224490   0.007   3.786   3.311 -0.2578 -0.2427 -0.2299
 1000TIP3    H124491  -0.072   3.838   3.326  0.7267  1.6380 -1.2080
 1000TIP3    H224492   0.074   3.827   3.365  0.3372 -1.0885 -0.3016
 1001TIP3   OH224493   0.466   0.640   1.124 -0.1435  0.0522 -0.4497
 1001TIP3    H124494   0.415   0.666   1.047 -3.0236 -0.1255  1.2481
 1001TIP3    H224495   0.522   0.715   1.142  0.8609 -0.0340 -2.8410
 1002TIP3   OH224496   6.195   6.666   4.541 -0.1075  0.1781 -0.2666
 1002TIP3    H124497   6.282   6.632   4.522  0.2498  1.3470 -0.8415
 1002TIP3    H224498   6.170   6.624   4.623  0.6800 -0.7343 -0.4786
 1003TIP3   OH224499   6.690   5.511  12.811 -0.2485 -0.4955  0.2020
 1003TIP3    H124500   6.638   5.535  12.735  0.1952 -2.1907 -0.6663
 1003TIP3    H224501   6.675   5.583  12.873 -0.4637  1.0347 -1.5245
 1004TIP3   OH224502   1.143   3.339  16.524  0.1528 -0.8581  0.2859
 1004TIP3    H124503   1.118   3.248  16.509 -1.4621 -0.6729  1.4766
 1004TIP3    H224504   1.138   3.350  16.619  0.1849  0.4983  0.1569
 1005TIP3   OH224505   5.557   0.791   4.975 -0.7309 -0.1112 -0.4867
 1005TIP3    H124506   5.536   0.848   4.901  0.4073 -0.5524 -1.1735
 1005TIP3    H224507   5.633   0.831   5.016  0.0926 -1.1087 -0.9852
 1006TIP3   OH224508   6.674   1.769   2.548 -0.0445  0.0699 -0.1767
 1006TIP3    H124509   6.649   1.781   2.457  0.5367  1.1564 -0.1994
 1006TIP3    H224510   6.754   1.716   2.544 -1.1253 -1.6323 -0.1882
 1007TIP3   OH224511   4.033   2.353  13.684 -0.4221  0.1631 -0.7180
 1007TIP3    H124512   3.959   2.400  13.722 -1.6483 -0.5996 -2.0964
 1007TIP3    H224513   4.107   2.376  13.741 -1.5890  1.3409  0.3940
 1008TIP3   OH224514   0.634   3.995  13.344 -0.1767 -0.0945 -0.3598
 1008TIP3    H124515   0.650   4.066  13.407 -0.6603 -0.1160 -0.2093
 1008TIP3    H224516   0.716   3.946  13.342 -0.4374 -0.6053  0.9048
 1009TIP3   OH224517   3.551   6.420   2.391 -1.0290  1.0098 -0.5520
 1009TIP3    H124518   3.560   6.449   2.300 -0.9926 -1.8777 -1.5628
 1009TIP3    H224519   3.465   6.380   2.395  0.2157 -1.8862 -0.3175
 1010TIP3   OH224520   5.907   3.913   0.253  0.1779 -0.0246 -0.2520
 1010TIP3    H124521   5.918   3.940   0.162 -1.0006  0.4025 -0.2814
 1010TIP3    H224522   5.816   3.934   0.274  0.3041 -0.5268  0.8911
 1011TIP3   OH224523   3.675   2.965  14.823  0.0498  0.0292  0.7063
 1011TIP3    H124524   3.627   3.033  14.776  1.1133  0.8488  0.7824
 1011TIP3    H224525   3.613   2.934  14.890 -0.8819  0.0228 -0.1438
 1012TIP3   OH224526   1.730   1.584   4.358 -0.0212 -0.0118  0.2842
 1012TIP3    H124527   1.663   1.543   4.412  0.8432 -0.7146  0.8452
 1012TIP3    H224528   1.781   1.511   4.323  1.0438  0.5515  0.6397
 1013TIP3   OH224529   5.011   1.894  17.104 -0.1065  0.1125 -0.4462
 1013TIP3    H124530   5.104   1.917  17.113  0.2111 -0.0944 -2.6568
 1013TIP3    H224531   5.008   1.800  17.123  0.5691 -0.3731 -2.4750
 1014TIP3   OH224532   2.245   6.471  15.066  0.0408 -0.2178 -0.0909
 1014TIP3    H124533   2.242   6.482  15.161 -1.9886  1.5135 -0.3047
 1014TIP3    H224534   2.323   6.520  15.039  0.6572 -0.7599  0.6356
 1015TIP3   OH224535   4.046   1.013   1.046 -0.4865  0.4180  0.0699
 1015TIP3    H124536   4.024   1.014   0.953 -0.3366 -0.9836 -0.0028
 1015TIP3    H224537   3.962   1.017   1.092 -0.5658  0.9545 -0.1094
 1016TIP3   OH224538   5.115   6.296  14.301 -0.4424 -0.0938  0.2405
 1016TIP3    H124539   5.038   6.265  14.348 -1.5233  2.7381  0.5267
 1016TIP3    H224540   5.086   6.304  14.210 -0.0778 -0.2439  0.1082
 1017TIP3   OH224541   2.751   1.798  14.515 -0.4530 -0.0642  0.2493
 1017TIP3    H124542   2.694   1.747  14.458  0.6901 -0.9696 -0.1262
 1017TIP3    H224543   2.799   1.732  14.566 -0.4548  0.6963  1.2771
 1018TIP3   OH224544   5.352   3.430  16.264 -0.0532 -0.5740  0.1476
 1018TIP3    H124545   5.411   3.498  16.231 -0.0448 -1.1402 -1.0490
 1018TIP3    H224546   5.408   3.352  16.272 -0.6956 -1.2484 -1.4629
 1019TIP3   OH224547   2.323   2.052   4.216 -0.2006  0.0781 -0.1262
 1019TIP3    H124548   2.238   2.040   4.257 -0.3103 -1.1347 -0.6528
 1019TIP3    H224549   2.316   2.135   4.169 -1.8586 -1.0101 -1.9248
 1020TIP3   OH224550   4.398   4.190   0.263 -0.1746  0.4308  0.1078
 1020TIP3    H124551   4.347   4.128   0.315  0.3260 -0.4016 -0.3773
 1020TIP3    H224552   4.333   4.244   0.218 -0.7580 -2.2172 -2.4856
 1021TIP3   OH224553   2.680   4.519   5.747 -0.3312  0.4678 -0.2905
 1021TIP3    H124554   2.770   4.518   5.777  0.0331  0.8731 -1.3255
 1021TIP3    H224555   2.663   4.610   5.723 -1.4253  0.6442  1.0487
 1022TIP3   OH224556   4.364   6.320   6.428 -0.2095  0.1758 -0.2594
 1022TIP3    H124557   4.418   6.346   6.503 -0.5852  0.0426  0.0594
 1022TIP3    H224558   4.275   6.340   6.454 -0.3915 -0.3178 -0.4832
 1023TIP3   OH224559   4.160   0.749  16.919 -0.2028  0.2462 -0.3110
 1023TIP3    H124560   4.132   0.813  16.854  0.0041  1.3135  0.6215
 1023TIP3    H224561   4.254   0.740  16.905  0.0546  1.3404  0.5402
 1024TIP3   OH224562   3.844   1.452  12.626 -0.5324 -0.3586  0.0085
 1024TIP3    H124563   3.766   1.447  12.683  0.7035 -0.5382  1.7668
 1024TIP3    H224564   3.884   1.365  12.633  1.3133  0.5295  1.4124
 1025TIP3   OH224565   6.215   6.037   3.080 -0.0360 -0.4426  0.2238
 1025TIP3    H124566   6.310   6.029   3.067  0.3232  0.2481  2.1410
 1025TIP3    H224567   6.205   6.115   3.135 -1.8002 -0.0017 -0.6653
 1026TIP3   OH224568   1.469   2.412   1.776 -0.0856  0.4107 -0.4364
 1026TIP3    H124569   1.434   2.403   1.687 -0.8281 -0.0965 -0.0956
 1026TIP3    H224570   1.556   2.372   1.771 -0.7058 -0.9478 -0.5794
 1027TIP3   OH224571   1.123   3.627   5.125 -0.1983 -0.5576 -0.0384
 1027TIP3    H124572   1.073   3.705   5.147  1.5445  0.6943 -0.2752
 1027TIP3    H224573   1.077   3.590   5.050 -0.0903  1.2973 -1.1020
 1028TIP3   OH224574   0.916   5.866  16.052  0.2157  0.2316 -0.5458
 1028TIP3    H124575   0.878   5.778  16.055  1.2759 -0.2317  0.2953
 1028TIP3    H224576   0.841   5.925  16.048 -0.5956 -0.6560  0.7277
 1029TIP3   OH224577   4.547   5.124   3.508 -0.2969  0.0276 -0.1336
 1029TIP3    H124578   4.478   5.189   3.496 -0.5669 -0.5562 -1.9188
 1029TIP3    H224579   4.575   5.137   3.599 -0.0696  2.8960 -0.5136
 1030TIP3   OH224580   5.354   3.368  13.762  0.0701 -0.0273 -0.4460
 1030TIP3    H124581   5.442   3.401  13.743 -0.3433  1.0992 -0.4895
 1030TIP3    H224582   5.310   3.369  13.677 -0.5328  1.1477 -0.1351
 1031TIP3   OH224583   1.921   4.866   2.030 -0.1734 -0.1150  0.2143
 1031TIP3    H124584   1.878   4.923   1.966 -0.1394 -1.4743 -1.0799
 1031TIP3    H224585   1.989   4.920   2.069 -1.6767  1.4414  0.8009
 1032TIP3   OH224586   3.303   0.657   3.241 -0.1671 -0.2862  0.3221
 1032TIP3    H124587   3.390   0.667   3.202 -0.1106 -1.4848  0.1039
 1032TIP3    H224588   3.245   0.639   3.167 -0.5459  0.1300  0.5080
 1033TIP3   OH224589   1.081   0.662  15.864  0.3943 -0.1274 -0.1096
 1033TIP3    H124590   1.122   0.582  15.832  0.6147 -1.0931  2.3608
 1033TIP3    H224591   1.080   0.721  15.788  1.3026 -2.0227 -1.6809
 1034TIP3   OH224592   6.225   4.549   3.144  0.0501 -0.2958  0.6699
 1034TIP3    H124593   6.131   4.563   3.152  0.3811  2.4349  0.8009
 1034TIP3    H224594   6.244   4.562   3.051  0.3777  0.0823  0.7799
 1035TIP3   OH224595   6.286   5.495  14.768 -0.3755  0.0296 -0.5426
 1035TIP3    H124596   6.258   5.561  14.832 -0.8852  1.2526 -1.9678
 1035TIP3    H224597   6.320   5.424  14.821 -0.9925  0.8972  1.1024
 1036TIP3   OH224598   0.926   5.040   4.576 -0.1128 -0.2517 -0.5365
 1036TIP3    H124599   0.992   4.974   4.552 -1.1889 -1.2902 -0.7450
 1036TIP3    H224600   0.960   5.122   4.542  0.2689 -1.0435 -2.1478
 1037TIP3   OH224601   2.953   4.205   0.009  0.2933  0.4065  0.0921
 1037TIP3    H124602   3.002   4.215  -0.073  0.0353  0.3357 -0.0701
 1037TIP3    H224603   3.015   4.164   0.069  0.1749 -0.4639 -0.3661
 1038TIP3   OH224604   3.958   3.544  13.055 -0.1725  0.0277 -0.3871
 1038TIP3    H124605   4.023   3.599  13.012  0.3044 -0.3744 -0.1816
 1038TIP3    H224606   3.915   3.603  13.117 -1.0577  0.6809 -1.5860
 1039TIP3   OH224607   1.135   2.119   1.031  0.2229 -0.3829 -0.1216
 1039TIP3    H124608   1.103   2.115   0.941 -2.1255 -0.1875  0.6243
 1039TIP3    H224609   1.101   2.039   1.072 -0.0460  0.2607  0.9518
 1040TIP3   OH224610   2.724   5.664   5.791 -0.2023 -0.3273 -0.2940
 1040TIP3    H124611   2.769   5.594   5.839 -0.5674 -0.0295  0.5066
 1040TIP3    H224612   2.793   5.706   5.739  0.7235  0.8110  1.7273
 1041TIP3   OH224613   6.198   3.579  14.289  0.4538 -0.2627  0.1336
 1041TIP3    H124614   6.122   3.617  14.246  0.9009  0.9241  0.3680
 1041TIP3    H224615   6.171   3.490  14.312 -0.4103 -0.2970 -0.9486
 1042TIP3   OH224616   5.329   4.706   6.473 -0.6005  0.4308  0.4211
 1042TIP3    H124617   5.349   4.786   6.521 -0.0901  0.5659 -0.0091
 1042TIP3    H224618   5.414   4.674   6.443 -0.9388  0.5175 -0.6538
 1043TIP3   OH224619   4.767   3.445  16.303  0.5323  0.5635 -0.1225
 1043TIP3    H124620   4.702   3.403  16.247 -0.8576  2.1375  0.2450
 1043TIP3    H224621   4.735   3.432  16.392  0.1964  2.1155  0.0167
 1044TIP3   OH224622   6.013   0.723  12.353  0.0724 -0.1529  0.5128
 1044TIP3    H124623   5.987   0.803  12.308 -2.1070 -1.8921 -1.5289
 1044TIP3    H224624   5.972   0.652  12.304  2.3344 -2.6273  1.9035
 1045TIP3   OH224625   3.847   6.548  11.580 -0.4983 -0.3266 -0.0304
 1045TIP3    H124626   3.822   6.461  11.549 -0.6976 -0.3894  0.2976
 1045TIP3    H224627   3.932   6.565  11.539 -1.0194 -0.1585 -1.0722
 1046TIP3   OH224628   1.184   1.641  11.382 -0.0954 -0.0252 -0.1455
 1046TIP3    H124629   1.233   1.678  11.456 -0.9552  1.7942 -0.4458
 1046TIP3    H224630   1.098   1.619  11.419 -0.1903 -0.0630 -0.3902
 1047TIP3   OH224631   3.314   6.022  16.514  0.0674 -0.1995 -0.6933
 1047TIP3    H124632   3.401   6.038  16.552  0.3622  1.1636 -1.8379
 1047TIP3    H224633   3.276   6.110  16.504 -0.7566 -0.6504 -1.7538
 1048TIP3   OH224634   4.424   4.042   1.093 -0.1386 -0.2858 -0.3441
 1048TIP3    H124635   4.442   3.965   1.038  1.4394  0.5808 -1.1093
 1048TIP3    H224636   4.504   4.055   1.142 -0.2844  1.0425 -0.4362
 1049TIP3   OH224637   1.614   3.589   0.146  0.1104 -0.1195 -0.9362
 1049TIP3    H124638   1.618   3.493   0.148 -1.0016 -0.1908 -1.1457
 1049TIP3    H224639   1.593   3.609   0.054  0.1278  0.3088 -0.8459
 1050TIP3   OH224640   4.334   6.456   4.076 -0.7639  0.0337 -0.0510
 1050TIP3    H124641   4.268   6.394   4.046 -0.4155  0.1806 -1.1553
 1050TIP3    H224642   4.298   6.542   4.055 -0.5036  0.1384 -0.0806
 1051TIP3   OH224643   1.244   4.105  11.724 -0.3854 -0.5513 -0.1482
 1051TIP3    H124644   1.219   4.174  11.662 -1.6628  0.0747  1.0169
 1051TIP3    H224645   1.189   4.120  11.801  1.3699 -1.1286  1.2906
 1052TIP3   OH224646   6.215   5.364  10.813  0.1476  0.5493  0.0590
 1052TIP3    H124647   6.194   5.413  10.892  0.9130  2.6825 -0.9739
 1052TIP3    H224648   6.154   5.397  10.747 -0.3920 -1.0985 -0.3244
 1053TIP3   OH224649   2.738   0.881   1.845 -0.1097 -0.3208  0.0530
 1053TIP3    H124650   2.764   0.973   1.838  0.1162 -0.3146  0.8950
 1053TIP3    H224651   2.749   0.847   1.756  1.9327 -0.0916  0.1725
 1054TIP3   OH224652   2.863   5.385  17.189  0.4308  0.7363  0.0509
 1054TIP3    H124653   2.858   5.416  17.098  1.0263 -0.1025 -0.2762
 1054TIP3    H224654   2.784   5.332  17.200  1.2600 -0.7033 -0.5935
 1055TIP3   OH224655   6.360   4.796   0.214  0.0590  0.2753 -0.5972
 1055TIP3    H124656   6.389   4.705   0.202  0.3486  0.5218 -1.9898
 1055TIP3    H224657   6.276   4.789   0.259 -0.3052 -0.7396 -1.3991
 1056TIP3   OH224658   2.054   1.796   3.937  0.3411 -0.3593  0.0175
 1056TIP3    H124659   1.985   1.746   3.892  1.0715  0.6266 -2.3430
 1056TIP3    H224660   2.014   1.881   3.954  1.2233  0.6918 -2.5505
 1057TIP3   OH224661   0.941   1.864  16.968  0.7521 -0.0526 -0.0021
 1057TIP3    H124662   0.848   1.845  16.986  0.8079  1.2010  1.9087
 1057TIP3    H224663   0.956   1.829  16.880 -0.5377 -3.7180  1.0530
 1058TIP3   OH224664   3.851   1.881  14.051  0.0052 -0.0270  0.2881
 1058TIP3    H124665   3.875   1.968  14.084  0.0515 -0.6156  1.8764
 1058TIP3    H224666   3.788   1.899  13.981  1.5226  1.3512 -0.7970
 1059TIP3   OH224667   3.788   4.596  16.149 -0.0689 -0.4058  0.1042
 1059TIP3    H124668   3.764   4.679  16.109  0.8617 -0.4359 -0.5455
 1059TIP3    H224669   3.768   4.608  16.242  2.7887  1.6528  0.5726
 1060TIP3   OH224670   4.786   0.487  12.982  0.4311 -0.0070 -0.3386
 1060TIP3    H124671   4.854   0.509  12.919 -0.1158  0.0101 -0.9392
 1060TIP3    H224672   4.827   0.498  13.068  0.4664  2.4674 -0.6015
 1061TIP3   OH224673   2.092   0.457  11.523  0.2264  0.6069 -0.0118
 1061TIP3    H124674   2.005   0.495  11.513  0.0867 -0.2110 -2.6634
 1061TIP3    H224675   2.141   0.489  11.447  1.2334 -1.4823 -0.2962
 1062TIP3   OH224676   1.378   0.670   2.602  0.4710  0.0601 -0.0358
 1062TIP3    H124677   1.335   0.738   2.549  0.7888  0.7963  0.6345
 1062TIP3    H224678   1.452   0.714   2.642  0.4993 -0.6061  0.6627
 1063TIP3   OH224679   6.445   3.999  15.143  0.8308 -0.1524 -0.1262
 1063TIP3    H124680   6.540   4.005  15.153  0.8200  0.2571 -0.2380
 1063TIP3    H224681   6.410   4.028  15.227  0.8074 -0.7457  0.0759
 1064TIP3   OH224682   2.752   4.584  16.660  0.4271 -0.2751 -0.6570
 1064TIP3    H124683   2.755   4.591  16.564 -0.9542 -0.6178 -0.7468
 1064TIP3    H224684   2.663   4.612  16.683  1.1123  0.9426  0.6485
 1065TIP3   OH224685   5.494   4.401  12.446  0.3565  0.2661  0.1004
 1065TIP3    H124686   5.439   4.428  12.373 -0.1644  1.0367  0.7585
 1065TIP3    H224687   5.458   4.317  12.474 -0.5077  0.7643  0.5290
 1066TIP3   OH224688   6.782   6.696  16.755  0.1329  0.1667 -0.4409
 1066TIP3    H124689   6.779   6.667  16.664  0.7263  1.0550 -0.7644
 1066TIP3    H224690   6.706   6.753  16.765 -1.1734 -1.6471  0.2669
 1067TIP3   OH224691   1.818   5.174  12.419  0.5611  0.2206 -0.4090
 1067TIP3    H124692   1.801   5.110  12.488 -2.7526 -0.2306 -1.4618
 1067TIP3    H224693   1.853   5.121  12.346  1.2203  0.2125 -0.0905
 1068TIP3   OH224694   2.601   3.596  11.189  0.2982  0.2649 -0.6117
 1068TIP3    H124695   2.689   3.567  11.167  0.7398  0.5460  0.6672
 1068TIP3    H224696   2.595   3.684  11.152 -0.1856 -0.4940 -2.4261
 1069TIP3   OH224697   3.305   0.886  15.432 -0.3963  0.5672  0.2290
 1069TIP3    H124698   3.348   0.820  15.486 -0.0915  0.5090 -0.0790
 1069TIP3    H224699   3.312   0.852  15.343 -0.7335  0.7467  0.1336
 1070TIP3   OH224700   1.210   3.161  12.387  0.2564  0.4972 -0.3353
 1070TIP3    H124701   1.191   3.093  12.452 -0.0917  0.3240 -0.6105
 1070TIP3    H224702   1.187   3.243  12.431 -1.9267  0.2548 -0.8969
 1071TIP3   OH224703   0.775   2.880  11.179  0.4087 -0.8878 -0.7911
 1071TIP3    H124704   0.708   2.880  11.247  0.8131 -1.4864 -0.3827
 1071TIP3    H224705   0.833   2.953  11.203 -0.7264  0.3934 -1.8030
 1072TIP3   OH224706   4.415   2.554   5.867  0.2482 -0.1105 -0.4652
 1072TIP3    H124707   4.461   2.475   5.839 -0.5915 -1.2686  1.2156
 1072TIP3    H224708   4.432   2.559   5.961 -0.3398  1.2997 -0.4118
 1073TIP3   OH224709   6.816   2.146  14.784  0.2533 -0.1226  0.1030
 1073TIP3    H124710   6.836   2.216  14.722  0.4489 -1.4659 -1.4137
 1073TIP3    H224711   6.735   2.174  14.827  0.3685  1.0585 -0.4150
 1074TIP3   OH224712   4.182   0.549  12.131  0.2917 -0.0741 -0.0644
 1074TIP3    H124713   4.105   0.599  12.158  0.1215 -1.0411  1.3700
 1074TIP3    H224714   4.256   0.608  12.147  0.0425 -0.0268  1.0337
 1075TIP3   OH224715   1.260   6.261   4.313 -0.4503  0.0804  0.6581
 1075TIP3    H124716   1.219   6.296   4.234 -1.3634 -2.1788  0.0493
 1075TIP3    H224717   1.203   6.289   4.385 -2.2763 -1.6682 -0.0202
 1076TIP3   OH224718   6.753   1.932   5.965  0.3238 -0.3801 -0.0280
 1076TIP3    H124719   6.796   2.005   5.920 -1.3026  1.7188  1.5796
 1076TIP3    H224720   6.738   1.866   5.896  1.4506  0.9823 -1.6544
 1077TIP3   OH224721   0.762   2.983  12.620 -0.3934  0.0479 -0.9088
 1077TIP3    H124722   0.817   3.061  12.623 -0.4911  0.1578 -1.8654
 1077TIP3    H224723   0.776   2.941  12.705 -1.6855  2.0095  0.3561
 1078TIP3   OH224724   4.565   3.061   6.428  0.5260  0.1935  0.2515
 1078TIP3    H124725   4.628   3.039   6.497  0.2285 -0.1181  0.4289
 1078TIP3    H224726   4.487   3.011   6.451 -0.5455  2.1898  1.2371
 1079TIP3   OH224727   4.717   2.082  12.544  0.8727 -0.0751 -0.4212
 1079TIP3    H124728   4.786   2.087  12.611 -0.5159  0.8212  1.0171
 1079TIP3    H224729   4.659   2.012  12.576  0.1255  0.4429 -0.6312
 1080TIP3   OH224730   0.186   5.063   3.952 -0.2134  0.3988  0.0926
 1080TIP3    H124731   0.173   5.127   4.022  1.9002  0.0040  0.9210
 1080TIP3    H224732   0.226   5.113   3.881 -0.6970  0.4416 -0.1527
 1081TIP3   OH224733   1.545   2.916   0.798 -0.5653 -0.7298 -0.3150
 1081TIP3    H124734   1.562   2.935   0.705 -0.1788 -1.8366 -0.4810
 1081TIP3    H224735   1.595   2.982   0.845 -0.3683 -0.4561 -0.8915
 1082TIP3   OH224736   2.413   3.493  16.004  0.0784 -0.1342 -0.0968
 1082TIP3    H124737   2.482   3.467  15.943 -0.0902 -0.6329 -0.0756
 1082TIP3    H224738   2.333   3.453  15.970  0.1276 -1.1512  0.9081
 1083TIP3   OH224739   1.042   6.428  16.376  0.2246 -0.2853 -1.0759
 1083TIP3    H124740   1.014   6.518  16.360 -0.3457 -0.7546 -3.0680
 1083TIP3    H224741   0.982   6.375  16.323  0.5507 -1.8379  0.0563
 1084TIP3   OH224742   0.935   3.894  13.952 -0.0007  0.6095 -0.5489
 1084TIP3    H124743   0.931   3.800  13.968 -0.0095  0.9178  1.4379
 1084TIP3    H224744   0.862   3.911  13.893 -1.0607 -0.4013  0.4220
 1085TIP3   OH224745   4.088   3.768  16.648  0.0859  0.1257 -0.3798
 1085TIP3    H124746   4.177   3.738  16.633 -0.3344 -0.7128 -1.3769
 1085TIP3    H224747   4.093   3.823  16.726  1.4122 -0.1521 -0.2544
 1086TIP3   OH224748   2.693   5.723  13.257 -0.3439  0.2544 -0.8465
 1086TIP3    H124749   2.769   5.703  13.203  2.3372  2.4220  1.7470
 1086TIP3    H224750   2.663   5.808  13.226 -0.7996  0.0685 -0.9228
 1087TIP3   OH224751   1.589   4.640   0.287 -0.3732  0.5421  0.4209
 1087TIP3    H124752   1.651   4.572   0.313  0.4623  1.4555  0.8604
 1087TIP3    H224753   1.612   4.661   0.197 -1.3808 -0.5511 -0.1179
 1088TIP3   OH224754   3.900   6.040  11.558  0.3552  0.6570  0.0513
 1088TIP3    H124755   3.902   5.949  11.587 -4.5001  0.1423 -0.3815
 1088TIP3    H224756   3.973   6.047  11.497 -0.1500 -3.5515 -1.3606
 1089TIP3   OH224757   1.602   0.661  13.922 -0.3209 -0.0456  0.3093
 1089TIP3    H124758   1.613   0.679  14.015 -0.0497  1.9793 -0.0655
 1089TIP3    H224759   1.508   0.665  13.907 -0.2552  1.9082  0.1438
 1090TIP3   OH224760   1.411   1.629  14.976  0.3532  0.4736 -0.6677
 1090TIP3    H124761   1.392   1.705  14.921  1.0028 -0.1596 -1.8102
 1090TIP3    H224762   1.474   1.578  14.924 -0.0475 -0.8154  0.0922
 1091TIP3   OH224763   1.549   2.593   4.795 -0.0648 -0.0121  0.3714
 1091TIP3    H124764   1.644   2.604   4.799  0.2388 -2.3965  1.5006
 1091TIP3    H224765   1.516   2.638   4.872  0.1671  0.4319  0.2186
 1092TIP3   OH224766   1.906   6.129   1.218  0.0894 -0.0059 -0.0373
 1092TIP3    H124767   1.871   6.040   1.224 -0.3422  0.1569 -0.1309
 1092TIP3    H224768   1.959   6.129   1.138  0.2782 -0.2421  0.0874
 1093TIP3   OH224769   4.267   4.728  11.492 -0.0395 -0.4346  0.3991
 1093TIP3    H124770   4.222   4.772  11.563 -0.8163  2.0403 -1.4807
 1093TIP3    H224771   4.354   4.707  11.527 -0.2321  1.1152  1.9083
 1094TIP3   OH224772   4.943   6.464  17.055  0.0772  0.5550 -0.2571
 1094TIP3    H124773   5.033   6.471  17.086  0.5994  1.6622 -1.8814
 1094TIP3    H224774   4.901   6.546  17.083 -0.7762 -0.4021  1.4163
 1095TIP3   OH224775   3.628   0.999  15.230 -0.5255 -0.2323 -0.0747
 1095TIP3    H124776   3.614   1.062  15.159 -1.2515 -1.8802 -1.4449
 1095TIP3    H224777   3.705   1.033  15.277  0.5637  0.4083 -2.2152
 1096TIP3   OH224778   2.413   5.716   5.068  0.3690  0.3295  0.9105
 1096TIP3    H124779   2.412   5.714   4.973 -0.4861  0.5573  0.9071
 1096TIP3    H224780   2.498   5.679   5.092  0.2520 -0.5274  0.0802
 1097TIP3   OH224781   1.477   1.576   5.794  0.3491  0.1818 -0.3352
 1097TIP3    H124782   1.507   1.566   5.704  0.4556  1.6871 -0.4863
 1097TIP3    H224783   1.484   1.670   5.811  0.8058 -0.1382  1.4080
 1098TIP3   OH224784   4.646   4.919   0.389 -1.0291  0.5846 -0.0780
 1098TIP3    H124785   4.667   5.001   0.435  0.3188 -0.4935  1.3101
 1098TIP3    H224786   4.641   4.945   0.297  1.6625  1.8672  0.0278
 1099TIP3   OH224787   5.408   6.346  11.154  0.3338  0.1837  0.0134
 1099TIP3    H124788   5.393   6.432  11.115 -1.3314  0.0980  0.4044
 1099TIP3    H224789   5.493   6.355  11.198  0.8394  1.1837 -1.0746
 1100TIP3   OH224790   6.071   3.286   1.400 -0.4196  0.0962 -0.2526
 1100TIP3    H124791   6.059   3.192   1.414  0.0351  0.1787  0.8384
 1100TIP3    H224792   6.126   3.292   1.322  0.4949 -0.5971  0.3167
 1101TIP3   OH224793   0.613   4.359   4.565  0.1055 -0.2930 -0.7820
 1101TIP3    H124794   0.600   4.448   4.533  1.2538 -0.0175 -0.5040
 1101TIP3    H224795   0.678   4.367   4.635 -0.6539 -1.1961  0.0577
 1102TIP3   OH224796   4.597   0.462   6.297  0.4251 -0.2799  0.0917
 1102TIP3    H124797   4.506   0.474   6.271  0.3973  0.4895  0.5253
 1102TIP3    H224798   4.620   0.375   6.264 -1.3000 -1.7030  2.4005
 1103TIP3   OH224799   0.705   2.490  15.797  0.7002 -0.0768 -0.0040
 1103TIP3    H124800   0.616   2.508  15.769  0.3043  0.9094  1.7358
 1103TIP3    H224801   0.701   2.493  15.893  2.3113 -1.4506  0.1625
 1104TIP3   OH224802   5.547   0.030   6.700  0.8326  0.6552  0.1694
 1104TIP3    H124803   5.523  -0.061   6.714 -1.7813  1.2655  0.2346
 1104TIP3    H224804   5.614   0.027   6.633 -1.6804 -1.2017 -2.5104
 1105TIP3   OH224805   1.058   3.370   4.507 -0.0768 -0.7949  0.5992
 1105TIP3    H124806   1.042   3.291   4.558 -2.6904 -0.0876  1.0622
 1105TIP3    H224807   0.972   3.412   4.502  1.4638  2.9712  1.9831
 1106TIP3   OH224808   4.744   3.965   6.837  0.1344 -0.0890 -0.0636
 1106TIP3    H124809   4.679   3.896   6.853  1.3680 -0.8301  2.1076
 1106TIP3    H224810   4.808   3.924   6.778 -0.4755  0.1129 -0.8946
 1107TIP3   OH224811   1.793   3.510  12.785  0.2732 -0.0596 -0.1764
 1107TIP3    H124812   1.877   3.556  12.794  0.2206 -0.1614  1.0415
 1107TIP3    H224813   1.759   3.538  12.700  1.4215  0.1844 -0.5749
 1108TIP3   OH224814   4.369   0.402  16.456  0.7280 -0.2769 -0.1174
 1108TIP3    H124815   4.351   0.464  16.385  0.2174 -0.1403  0.1272
 1108TIP3    H224816   4.451   0.360  16.431 -0.0377 -1.0857 -1.3816
 1109TIP3   OH224817   5.456   4.735  12.211 -0.7531  0.3596 -0.2483
 1109TIP3    H124818   5.541   4.740  12.168  0.6200  0.8696  2.3729
 1109TIP3    H224819   5.413   4.818  12.189 -0.4764  0.2237 -1.3440
 1110TIP3   OH224820   1.906   0.490  17.037  0.1670 -0.5370  0.1702
 1110TIP3    H124821   1.827   0.464  17.085 -0.3580  1.8264  0.7513
 1110TIP3    H224822   1.874   0.517  16.951  0.4024 -0.0686  0.2273
 1111TIP3   OH224823   5.419   0.576   1.990 -0.0726  0.2952 -0.3592
 1111TIP3    H124824   5.509   0.599   2.016 -0.3391  0.9040  0.0601
 1111TIP3    H224825   5.366   0.649   2.022 -0.6867  0.0638 -0.8353
 1112TIP3   OH224826   3.848   3.775  13.551 -0.0186 -0.6172  0.4462
 1112TIP3    H124827   3.865   3.716  13.625  0.5376  0.2201  0.9930
 1112TIP3    H224828   3.913   3.844  13.560 -0.2324 -0.2692 -0.5849
 1113TIP3   OH224829   3.293   4.198  12.858  0.4773 -0.2429  0.0048
 1113TIP3    H124830   3.338   4.261  12.802  0.3743 -0.6829 -0.5795
 1113TIP3    H224831   3.331   4.114  12.836  1.0601 -0.3277  1.2344
 1114TIP3   OH224832   2.210   6.440  11.536 -0.6764 -0.2847  0.2175
 1114TIP3    H124833   2.171   6.366  11.584  0.6070 -0.0892  1.6603
 1114TIP3    H224834   2.224   6.507  11.603 -0.8165  0.8486 -0.8695
 1115TIP3   OH224835   1.356   1.894  16.006 -0.4529 -0.2905 -0.0845
 1115TIP3    H124836   1.384   1.809  15.970  1.7813  0.6813 -0.7578
 1115TIP3    H224837   1.261   1.893  15.994 -0.4651 -2.5589 -0.3777
 1116TIP3   OH224838   2.586   3.302  17.025  0.5815  0.0862 -0.1913
 1116TIP3    H124839   2.627   3.261  16.949 -0.1543  3.9140 -2.9523
 1116TIP3    H224840   2.493   3.301  17.005  0.4940  2.3898 -0.0790
 1117TIP3   OH224841   0.382   3.319   3.111 -0.6737  0.4073 -0.1539
 1117TIP3    H124842   0.467   3.317   3.155  0.7857  0.0420 -2.8059
 1117TIP3    H224843   0.381   3.403   3.065 -1.5425  0.2035 -0.5238
 1118TIP3   OH224844   2.044   2.216   0.933 -0.7644 -0.7008 -0.2845
 1118TIP3    H124845   1.982   2.229   0.861 -1.5191 -0.6752  0.3605
 1118TIP3    H224846   2.036   2.294   0.987  0.5456 -0.2581 -0.7020
 1119TIP3   OH224847   1.401   6.356  11.389  0.0925 -0.4834  0.3993
 1119TIP3    H124848   1.444   6.413  11.452  0.4489 -1.3676  0.9817
 1119TIP3    H224849   1.423   6.394  11.304 -0.0439  0.4850  0.7834
 1120TIP3   OH224850   3.671   5.633  13.316 -0.1020 -0.5964 -0.5366
 1120TIP3    H124851   3.701   5.706  13.371 -0.7074  0.5513 -1.6816
 1120TIP3    H224852   3.612   5.584  13.373 -0.4281  0.3583 -0.0214
 1121TIP3   OH224853   2.735   5.279  15.199  0.6927 -0.0101  0.1139
 1121TIP3    H124854   2.705   5.365  15.228 -0.9317 -0.4176 -0.2336
 1121TIP3    H224855   2.655   5.232  15.176  1.6180 -1.2354 -0.7736
 1122TIP3   OH224856   5.352   1.707   5.639 -0.3906  0.0893  0.3984
 1122TIP3    H124857   5.329   1.619   5.669  1.6547 -0.0377  1.7528
 1122TIP3    H224858   5.448   1.707   5.635 -0.2761  0.4517 -5.1895
 1123TIP3   OH224859   6.101   4.033   2.708  0.8189  0.5465 -0.0779
 1123TIP3    H124860   6.061   4.109   2.666 -1.5987 -0.4369  0.2910
 1123TIP3    H224861   6.060   4.028   2.794 -0.4434 -2.1271 -0.7200
 1124TIP3   OH224862   4.572   0.385  16.170  0.3541  0.1773  0.1500
 1124TIP3    H124863   4.520   0.316  16.129  1.5628  0.2080 -1.5444
 1124TIP3    H224864   4.551   0.464  16.119  0.0226  0.7775  1.1966
 1125TIP3   OH224865   2.999   5.607  16.002  0.1974  0.2964 -0.3498
 1125TIP3    H124866   3.050   5.686  15.981 -0.7247  0.4011 -2.5067
 1125TIP3    H224867   2.908   5.635  15.990 -0.1959 -0.7872  0.0593
 1126TIP3   OH224868   0.838   4.368   1.450 -0.0367  0.0904  0.0969
 1126TIP3    H124869   0.882   4.300   1.500  0.5249 -0.1728 -0.7403
 1126TIP3    H224870   0.776   4.320   1.394 -0.7887  0.3937  0.6443
 1127TIP3   OH224871   3.829   6.460   2.434  0.5089 -0.1113  0.3268
 1127TIP3    H124872   3.799   6.548   2.410  1.0690  0.0047  0.0279
 1127TIP3    H224873   3.755   6.403   2.411  0.2500  0.2457  0.2532
 1128TIP3   OH224874   4.250   2.023   4.038  0.0351 -0.2605 -0.0536
 1128TIP3    H124875   4.232   1.975   3.957 -0.0400  1.2317 -0.9622
 1128TIP3    H224876   4.224   2.114   4.018 -1.4874 -0.1293  2.1625
 1129TIP3   OH224877   1.454   1.270  13.349 -0.3228  0.8012 -0.1241
 1129TIP3    H124878   1.497   1.185  13.353 -1.5112  0.2140  1.5304
 1129TIP3    H224879   1.361   1.250  13.334 -0.3705  1.9143 -1.5241
 1130TIP3   OH224880   2.957   1.734  13.295 -0.4281  0.1513  0.0982
 1130TIP3    H124881   2.945   1.826  13.321  0.1254  0.2623 -0.0330
 1130TIP3    H224882   3.040   1.709  13.335 -0.8998 -0.5011  0.6924
 1131TIP3   OH224883   3.141   3.200   2.766  0.9258 -0.5240 -0.2475
 1131TIP3    H124884   3.104   3.119   2.801 -1.0877  0.8707  1.0380
 1131TIP3    H224885   3.067   3.259   2.758  2.1463  0.8478 -2.3064
 1132TIP3   OH224886   2.631   4.640   4.578  0.2071 -0.3773 -0.0877
 1132TIP3    H124887   2.656   4.633   4.670  0.0903 -0.0549 -0.0323
 1132TIP3    H224888   2.625   4.549   4.548 -2.9867 -0.6835  1.0880
 1133TIP3   OH224889   4.713   0.556   1.322 -0.4733 -0.5492  0.0476
 1133TIP3    H124890   4.680   0.613   1.391 -0.1759 -0.7966  0.3951
 1133TIP3    H224891   4.666   0.584   1.243 -1.1676 -0.5846  0.4413
 1134TIP3   OH224892   6.359   4.391   0.751  0.2912 -0.5917  0.1079
 1134TIP3    H124893   6.333   4.442   0.674  2.0989 -0.7453 -0.6666
 1134TIP3    H224894   6.277   4.365   0.792 -0.7497 -1.0074 -2.0972
 1135TIP3   OH224895   3.408   4.138  11.560 -0.2554  0.4516 -0.4995
 1135TIP3    H124896   3.345   4.178  11.619 -0.6439  0.8344 -1.1543
 1135TIP3    H224897   3.493   4.169  11.590 -0.5020  1.2259 -0.5751
 1136TIP3   OH224898   1.679   5.345  15.164 -0.1644 -0.1884 -0.8272
 1136TIP3    H124899   1.763   5.309  15.134  0.1711 -0.1422  0.0189
 1136TIP3    H224900   1.657   5.411  15.099  0.8593  0.3651 -0.6423
 1137TIP3   OH224901   3.752   1.048   3.842 -0.4214  0.3328  0.0991
 1137TIP3    H124902   3.780   0.976   3.786  0.2942  1.4264 -0.9872
 1137TIP3    H224903   3.664   1.070   3.811 -0.4510  0.2340  0.1141
 1138TIP3   OH224904   2.798   4.795  14.016 -0.0450 -0.1884 -0.3738
 1138TIP3    H124905   2.888   4.779  13.987  0.6769  0.5184  1.3711
 1138TIP3    H224906   2.801   4.782  14.111 -1.0421  2.8542  0.1867
 1139TIP3   OH224907   6.203   6.513  14.136 -0.4062  0.7730  0.4435
 1139TIP3    H124908   6.123   6.475  14.099 -0.3128  0.9668  0.0385
 1139TIP3    H224909   6.192   6.607  14.124 -0.3380  0.8315  0.8407
 1140TIP3   OH224910   3.251   5.124  15.915 -0.3717  0.5813 -0.2192
 1140TIP3    H124911   3.308   5.082  15.980 -1.1971 -1.6986 -0.8582
 1140TIP3    H224912   3.208   5.195  15.963  0.0833 -0.1571  1.3565
 1141TIP3   OH224913   0.315   6.728  17.266  0.1519 -0.0799  0.0435
 1141TIP3    H124914   0.362   6.810  17.277  0.3827  0.0530 -1.6633
 1141TIP3    H224915   0.342   6.674  17.340  1.4775  0.7019  0.1497
 1142TIP3   OH224916   3.746   5.994  10.770  0.2388  0.0142  0.0966
 1142TIP3    H124917   3.833   5.990  10.730  0.4742 -0.4493  0.6410
 1142TIP3    H224918   3.693   5.934  10.717  0.0787  0.7763 -0.6263
 1143TIP3   OH224919   4.099   1.206   2.910 -0.7777  0.1776 -0.0560
 1143TIP3    H124920   4.068   1.286   2.952 -1.4519 -0.1057  0.0003
 1143TIP3    H224921   4.050   1.135   2.953 -0.1312 -0.2722 -0.0480
 1144TIP3   OH224922   1.999   5.428  14.715 -0.5801 -0.3355  0.0109
 1144TIP3    H124923   1.910   5.438  14.680  0.0058  0.0190 -1.4716
 1144TIP3    H224924   2.047   5.382  14.645  0.4449 -0.3716  0.7163
 1145TIP3   OH224925   0.834   1.525  16.541 -0.1559 -0.0733  0.1044
 1145TIP3    H124926   0.899   1.575  16.492  0.9504 -1.1547  0.4133
 1145TIP3    H224927   0.788   1.474  16.475  3.3999 -3.9550  0.1720
 1146TIP3   OH224928   0.935   2.119   4.608 -0.2814  0.2535 -0.0190
 1146TIP3    H124929   0.876   2.069   4.665 -0.6889 -0.5605 -1.1109
 1146TIP3    H224930   0.896   2.207   4.604 -0.1678  0.3651  1.0501
 1147TIP3   OH224931   5.362   4.294  15.424  0.2526 -0.1033  0.5756
 1147TIP3    H124932   5.448   4.271  15.391  0.4962  0.9029  0.4809
 1147TIP3    H224933   5.343   4.227  15.490  0.9655 -0.5077  0.3805
 1148TIP3   OH224934   2.283   0.733  15.381 -0.2486  0.6862 -0.6514
 1148TIP3    H124935   2.367   0.768  15.351  0.0047  0.4325 -0.2483
 1148TIP3    H224936   2.235   0.809  15.414  0.1147  0.7255 -0.2064
 1149TIP3   OH224937   5.793   2.809  12.878  0.1219 -0.2308 -0.5049
 1149TIP3    H124938   5.831   2.884  12.832 -1.2088  0.5577 -0.3902
 1149TIP3    H224939   5.720   2.846  12.927 -1.7450 -1.8488 -1.8616
 1150TIP3   OH224940   0.706   6.177  14.033  0.0967 -0.0814  0.1883
 1150TIP3    H124941   0.636   6.180  14.099 -1.2004 -0.2728 -1.1215
 1150TIP3    H224942   0.707   6.265  13.995 -0.3622 -0.4434 -0.7015
 1151TIP3   OH224943   5.799   3.821   2.267  0.5637  0.4527 -0.0808
 1151TIP3    H124944   5.807   3.728   2.289  0.2412  0.6759  1.0877
 1151TIP3    H224945   5.729   3.825   2.202  1.6890 -0.2713 -1.3933
 1152TIP3   OH224946   0.169   0.049  12.337 -0.5680  0.5677 -0.2158
 1152TIP3    H124947   0.244  -0.005  12.311 -0.2573  1.6134 -1.6116
 1152TIP3    H224948   0.194   0.084  12.422  0.5037  0.8063 -0.6029
 1153TIP3   OH224949   1.672   1.433   1.883 -0.0786  0.1685  0.1316
 1153TIP3    H124950   1.736   1.447   1.953  0.1189 -0.0034 -0.0127
 1153TIP3    H224951   1.594   1.482   1.912  0.8870  2.3968 -0.7924
 1154TIP3   OH224952   4.447   3.574   4.796 -0.2745  0.4488  0.1026
 1154TIP3    H124953   4.364   3.526   4.789 -0.7648  1.3213 -0.1592
 1154TIP3    H224954   4.499   3.542   4.722 -1.3349  1.6888 -1.2474
 1155TIP3   OH224955   3.112   2.020  16.361  0.4569 -0.5823  1.2445
 1155TIP3    H124956   3.093   2.094  16.304  1.9681  0.5762  2.1454
 1155TIP3    H224957   3.197   1.988  16.331 -0.6328 -2.6969  0.1817
 1156TIP3   OH224958   2.374   3.043   2.733  0.7144 -0.4707 -0.1389
 1156TIP3    H124959   2.356   3.129   2.694 -0.1531 -0.4887  0.1976
 1156TIP3    H224960   2.457   3.055   2.779  0.3076  0.3632  0.4008
 1157TIP3   OH224961   1.611   4.753   3.734  0.0064 -0.0300  0.1973
 1157TIP3    H124962   1.524   4.784   3.706  0.3990  0.0664 -0.9860
 1157TIP3    H224963   1.602   4.739   3.828 -0.8522  1.4517  0.3695
 1158TIP3   OH224964   4.536   1.993  17.285  0.1903 -0.0259 -0.4556
 1158TIP3    H124965   4.518   2.080  17.320 -0.8305  0.5100 -2.1928
 1158TIP3    H224966   4.538   1.936  17.361 -2.9302  0.9021  0.4392
 1159TIP3   OH224967   4.541   2.743   4.552  0.2121 -0.5323 -0.0450
 1159TIP3    H124968   4.559   2.706   4.465  2.3803 -1.3204  0.6696
 1159TIP3    H224969   4.526   2.836   4.536 -1.4456 -0.9637 -1.4438
 1160TIP3   OH224970   1.582   5.591   1.178  0.6456  0.3033  0.0971
 1160TIP3    H124971   1.512   5.638   1.223 -0.4765 -0.4378 -0.8046
 1160TIP3    H224972   1.601   5.644   1.100  1.0824  0.4860  0.3224
 1161TIP3   OH224973   1.830   6.140  11.552  0.2423  0.3295 -0.2232
 1161TIP3    H124974   1.742   6.103  11.555 -0.7536  2.5545  0.2866
 1161TIP3    H224975   1.867   6.105  11.471  0.2684 -3.3969  1.2256
 1162TIP3   OH224976   1.095   1.237  11.569  0.2950  0.2207 -0.1674
 1162TIP3    H124977   1.156   1.175  11.529  0.8698 -0.1493  1.2445
 1162TIP3    H224978   1.013   1.224  11.521  1.1876  0.4148 -1.7983
 1163TIP3   OH224979   1.178   1.908   5.849  0.2553  0.0521 -0.1695
 1163TIP3    H124980   1.182   2.000   5.877  0.4838 -0.1354  0.4409
 1163TIP3    H224981   1.203   1.909   5.757 -0.9553  0.7505 -0.5076
 1164TIP3   OH224982   2.141   2.678  11.273 -0.0619 -0.0362  0.4985
 1164TIP3    H124983   2.061   2.662  11.223 -0.1547  0.7286  0.3874
 1164TIP3    H224984   2.182   2.752  11.228  1.8021 -1.7234 -0.7456
 1165TIP3   OH224985   1.773   3.988  16.881 -0.4200  0.2241  0.3547
 1165TIP3    H124986   1.717   3.976  16.958  0.2378 -2.3923  0.5465
 1165TIP3    H224987   1.861   3.997  16.918 -0.2721  0.4525 -0.0563
 1166TIP3   OH224988   4.975   2.810   4.820 -0.0243 -0.0180  0.1252
 1166TIP3    H124989   5.044   2.747   4.799 -0.3493 -0.2766 -0.1953
 1166TIP3    H224990   5.013   2.867   4.886  0.2961 -0.5292  0.3917
 1167TIP3   OH224991   4.445   6.749   5.658  1.1151  0.2332 -0.7979
 1167TIP3    H124992   4.397   6.670   5.681  1.5337  0.1391 -0.2177
 1167TIP3    H224993   4.389   6.794   5.595  0.0154  0.4172  0.2924
 1168TIP3   OH224994   4.247   0.695   0.007 -0.0773  0.0546 -0.4329
 1168TIP3    H124995   4.234   0.640   0.084  0.0611  1.5686  0.7329
 1168TIP3    H224996   4.297   0.640  -0.053 -2.4144 -2.0875 -0.5793
 1169TIP3   OH224997   3.666   6.169  12.496 -0.0406  0.2591 -0.7293
 1169TIP3    H124998   3.647   6.170  12.589 -2.1701 -0.9295 -1.1055
 1169TIP3    H224999   3.700   6.080  12.479  1.0697  0.7099 -0.9852
 1170TIP3   OH225000   4.320   6.009   4.964 -0.2083  0.2433  0.3578
 1170TIP3    H125001   4.375   6.071   5.013 -0.0446  0.0794  0.3808
 1170TIP3    H225002   4.238   6.056   4.952  0.5928  1.2880 -1.4277
 1171TIP3   OH225003   3.381   4.627   3.991  0.2934  0.2657  0.6652
 1171TIP3    H125004   3.430   4.632   3.909 -0.4317 -0.5225  0.1703
 1171TIP3    H225005   3.447   4.642   4.059  1.1578 -0.3747 -0.0005
 1172TIP3   OH225006   2.848   4.671  14.905 -0.0100  0.0114 -0.2807
 1172TIP3    H125007   2.817   4.747  14.955 -0.9008 -0.7569  0.3758
 1172TIP3    H225008   2.863   4.704  14.817  0.3231  1.1068  0.1751
 1173TIP3   OH225009   5.749   3.812   3.422 -0.5824 -0.1732 -0.0255
 1173TIP3    H125010   5.709   3.777   3.502 -2.5083  0.2839 -0.7504
 1173TIP3    H225011   5.731   3.905   3.425 -1.1084 -0.2215 -1.2176
 1174TIP3   OH225012   3.578   5.872  16.266 -0.3475  0.3441  0.4460
 1174TIP3    H125013   3.576   5.815  16.343  2.2100 -0.2360  0.1646
 1174TIP3    H225014   3.641   5.940  16.289  0.7377 -0.0422 -1.2132
 1175TIP3   OH225015   4.025   4.851  11.959 -0.2754 -0.3189  0.2581
 1175TIP3    H125016   4.090   4.800  12.007  0.3792  0.9836  0.8092
 1175TIP3    H225017   3.989   4.912  12.024 -1.8390 -0.8095 -0.1096
 1176TIP3   OH225018   2.786   4.482  15.660  0.0420  0.6846 -0.2665
 1176TIP3    H125019   2.823   4.465  15.573  1.6946  3.2977 -0.1815
 1176TIP3    H225020   2.752   4.571  15.655  0.3807  0.9808  1.8093
 1177TIP3   OH225021   4.996   5.568  16.253  0.2934 -0.2130 -0.4930
 1177TIP3    H125022   4.906   5.596  16.234  0.3508 -0.5155 -1.2457
 1177TIP3    H225023   4.987   5.478  16.284  0.4159 -0.5755 -1.4958
 1178TIP3   OH225024   3.274   5.314  14.820 -0.2317 -0.2205  0.2378
 1178TIP3    H125025   3.343   5.271  14.770 -0.1840  1.4040 -1.1718
 1178TIP3    H225026   3.300   5.300  14.912  0.4713 -1.9813 -0.1890
 1179TIP3   OH225027   2.130   2.446  10.812  0.5608  0.4104 -0.3865
 1179TIP3    H125028   2.166   2.359  10.826 -0.9493 -0.0668  0.7569
 1179TIP3    H225029   2.036   2.431  10.798  0.4587  1.7613 -1.3185
 1180TIP3   OH225030   3.021   4.895   3.364 -0.1312  0.2513 -0.0536
 1180TIP3    H125031   3.006   4.881   3.458  3.0798  0.8654  0.6717
 1180TIP3    H225032   3.041   4.808   3.330 -0.9461  0.0806 -0.1145
 1181TIP3   OH225033   2.358   0.399   3.738 -0.2723  0.6814  0.0378
 1181TIP3    H125034   2.278   0.441   3.770 -0.2437 -0.4169  1.6848
 1181TIP3    H225035   2.394   0.355   3.815 -0.2617 -2.2850 -1.5294
 1182TIP3   OH225036   4.036   6.026   5.237  0.4841  1.0898 -0.3329
 1182TIP3    H125037   4.012   5.977   5.159 -0.4539 -0.9670  1.1553
 1182TIP3    H225038   4.126   6.000   5.256  0.6122  1.3640 -0.5654
 1183TIP3   OH225039   2.007   6.460   2.775 -0.2378 -0.8371 -0.0071
 1183TIP3    H125040   2.094   6.498   2.759  1.0605 -3.4808  0.1641
 1183TIP3    H225041   1.976   6.506   2.853  2.7868 -2.3163  2.3224
 1184TIP3   OH225042   6.233   3.987   4.879  0.1121 -0.4658 -0.0196
 1184TIP3    H125043   6.209   4.000   4.787  0.4883 -1.3001 -0.2422
 1184TIP3    H225044   6.166   3.927   4.912  0.4632 -0.8433  0.0163
 1185TIP3   OH225045   3.283   5.422   5.007  1.0389  0.3350 -0.6431
 1185TIP3    H125046   3.230   5.348   5.035 -1.2920  2.5236  1.2416
 1185TIP3    H225047   3.358   5.422   5.067 -0.4834  1.1143  1.3698
 1186TIP3   OH225048   2.636   2.678  16.725  0.6307  0.2105  0.2043
 1186TIP3    H125049   2.598   2.744  16.668 -0.3641  0.1644  0.7976
 1186TIP3    H225050   2.730   2.695  16.721  0.3439  2.6301  1.4465
 1187TIP3   OH225051   1.561   3.704   3.360 -0.0380  0.1977  0.1162
 1187TIP3    H125052   1.485   3.718   3.303  1.1540 -0.6771 -1.8035
 1187TIP3    H225053   1.585   3.792   3.390 -0.8102  0.6714 -0.6122
 1188TIP3   OH225054   5.320   6.704  16.704  0.1160  0.7264 -0.5334
 1188TIP3    H125055   5.241   6.726  16.753 -0.1922  2.3101 -1.6546
 1188TIP3    H225056   5.292   6.708  16.612  0.6738 -2.0800 -0.9213
 1189TIP3   OH225057   4.622   3.510   2.103 -0.9001  0.3708  0.1998
 1189TIP3    H125058   4.577   3.431   2.071 -2.7982  1.0081  1.1247
 1189TIP3    H225059   4.633   3.495   2.197 -1.1163  1.1170  0.3512
 1190TIP3   OH225060   0.916   3.229  12.208  0.0862 -0.0095  0.2488
 1190TIP3    H125061   0.864   3.268  12.138  0.1678 -1.3173 -0.5616
 1190TIP3    H225062   0.908   3.135  12.195  0.4963 -0.2810  1.7193
 1191TIP3   OH225063   0.268   0.126  10.736 -0.1188 -0.2233  0.9179
 1191TIP3    H125064   0.240   0.187  10.804 -0.3126  0.6332  0.0843
 1191TIP3    H225065   0.363   0.138  10.730 -0.3102  0.9950 -0.1584
 1192TIP3   OH225066   3.949   4.924  16.932 -0.3659  0.6936 -1.2684
 1192TIP3    H125067   4.043   4.919  16.948  0.2704  1.7872 -4.1827
 1192TIP3    H225068   3.920   4.833  16.927  0.5997  0.3487 -0.7866
 1193TIP3   OH225069   5.681   1.234   2.999  0.2755 -0.4282 -0.0514
 1193TIP3    H125070   5.766   1.276   3.006  0.2010 -0.4778  1.3626
 1193TIP3    H225071   5.694   1.163   2.936  1.1106 -0.0524 -0.3082
 1194TIP3   OH225072   1.740   1.985  15.777  0.0943 -0.1405 -0.3869
 1194TIP3    H125073   1.677   1.918  15.750  0.7721 -0.1385 -2.0737
 1194TIP3    H225074   1.786   1.945  15.851 -0.1805 -1.1546 -0.7409
 1195TIP3   OH225075   6.081   6.163   4.700  0.0557  0.1698 -0.0881
 1195TIP3    H125076   6.038   6.187   4.783  0.9565 -0.4719  0.5792
 1195TIP3    H225077   6.140   6.092   4.723  0.5094  0.1495 -1.2468
 1196TIP3   OH225078   1.989   4.756  11.370 -0.1488  0.1363  0.1364
 1196TIP3    H125079   1.962   4.728  11.282 -2.9529 -1.2824  1.3369
 1196TIP3    H225080   1.911   4.801  11.405  0.9235  0.6827  1.9152
 1197TIP3   OH225081   4.835   0.858   0.038  0.2544 -0.2596 -0.2835
 1197TIP3    H125082   4.836   0.927  -0.028  0.0726  0.8853  0.8766
 1197TIP3    H225083   4.812   0.902   0.120  1.4671 -1.4591  0.7609
 1198TIP3   OH225084   6.001   4.705   0.786  0.2530  0.1756 -0.4939
 1198TIP3    H125085   5.982   4.616   0.813 -2.1075  0.9817  0.8359
 1198TIP3    H225086   5.966   4.760   0.856  2.5334  2.1601 -0.7749
 1199TIP3   OH225087   5.160   2.443  15.526 -0.3036  0.0546  0.4753
 1199TIP3    H125088   5.158   2.356  15.485 -0.2814 -0.0683  0.7282
 1199TIP3    H225089   5.106   2.498  15.470  0.3199  0.0692 -0.1230
 1200TIP3   OH225090   6.249   0.201  11.465 -0.5651 -0.6753  0.3945
 1200TIP3    H125091   6.291   0.269  11.517  0.7872 -1.2908  0.1412
 1200TIP3    H225092   6.200   0.249  11.397 -1.6418  0.0955  1.6696
 1201TIP3   OH225093   4.457   1.272   2.936  0.0249 -0.1127 -0.0196
 1201TIP3    H125094   4.447   1.278   2.841 -0.0938 -1.9252 -0.1582
 1201TIP3    H225095   4.520   1.201   2.949 -1.4728 -1.2780  1.2812
 1202TIP3   OH225096   4.760   0.761  13.268  0.1763 -0.5098 -0.2805
 1202TIP3    H125097   4.739   0.815  13.192  2.5566  0.6617 -0.1933
 1202TIP3    H225098   4.806   0.820  13.328 -1.0787 -1.5551  1.8476
 1203TIP3   OH225099   1.502   5.984   0.322 -0.1771 -0.2137 -0.6632
 1203TIP3    H125100   1.557   5.987   0.400 -1.2946 -0.9523  0.1794
 1203TIP3    H225101   1.417   6.018   0.350 -0.7502 -0.9697 -1.4255
 1204TIP3   OH225102   0.149   3.905  17.053 -1.1682  0.4218  0.5064
 1204TIP3    H125103   0.174   3.907  16.961 -0.4471 -3.4601  0.4565
 1204TIP3    H225104   0.146   3.997  17.079  2.1227  1.5824 -2.4193
 1205TIP3   OH225105   1.423   2.075  16.880 -0.0401 -0.7699  0.5981
 1205TIP3    H125106   1.332   2.097  16.899 -0.9027 -2.9082 -0.7526
 1205TIP3    H225107   1.450   2.017  16.951  0.7362  0.8529  1.6842
 1206TIP3   OH225108   5.444   6.003  15.011  0.4505 -0.6029  0.1625
 1206TIP3    H125109   5.435   5.962  14.925  0.1778 -0.0756 -0.0626
 1206TIP3    H225110   5.470   6.093  14.992 -1.3800  0.0478  0.5459
 1207TIP3   OH225111   0.987   4.843   0.382 -0.4702  0.1622 -0.1794
 1207TIP3    H125112   1.050   4.910   0.409  0.1030 -0.3162 -0.3063
 1207TIP3    H225113   0.912   4.856   0.441 -1.4051  2.4512 -1.7318
 1208TIP3   OH225114   4.170   0.948   5.377 -0.5675 -0.3326 -0.9626
 1208TIP3    H125115   4.265   0.953   5.367 -0.4402 -0.6779 -0.0040
 1208TIP3    H225116   4.153   0.981   5.465 -1.1968 -1.6020 -0.5819
 1209TIP3   OH225117   4.859   6.050   1.223  0.1067 -0.2037  0.9555
 1209TIP3    H125118   4.930   6.111   1.242 -0.0348 -0.2393  1.6052
 1209TIP3    H225119   4.896   5.989   1.159 -0.4029  1.8663 -1.4849
 1210TIP3   OH225120   3.577   1.608  17.143  0.0550 -0.6645 -0.0305
 1210TIP3    H125121   3.577   1.670  17.070 -1.4431  2.6522  2.5042
 1210TIP3    H225122   3.496   1.558  17.134  0.2111 -0.7560 -0.9571
 1211TIP3   OH225123   6.378   3.454   4.402 -0.0260  0.3104 -0.1671
 1211TIP3    H125124   6.387   3.542   4.367 -0.5117  0.8992  1.1443
 1211TIP3    H225125   6.457   3.439   4.453 -0.3573  0.3600  0.3749
 1212TIP3   OH225126   1.375   0.594   2.317  0.0686 -0.4800  0.3243
 1212TIP3    H125127   1.279   0.599   2.307  0.1618 -0.7098 -0.9398
 1212TIP3    H225128   1.388   0.555   2.403 -0.9721 -0.2522  0.6102
 1213TIP3   OH225129   0.544   3.506  16.423  0.0350  0.6942  0.0442
 1213TIP3    H125130   0.506   3.535  16.506  0.0329  0.2879  0.1851
 1213TIP3    H225131   0.572   3.416  16.439  2.2014  1.3608  0.3262
 1214TIP3   OH225132   2.500   0.794   3.300  0.7428  0.2838 -0.0336
 1214TIP3    H125133   2.564   0.743   3.349  1.5724  1.0027 -0.3452
 1214TIP3    H225134   2.547   0.872   3.272 -0.4290  1.1023  0.2041
 1215TIP3   OH225135   5.491   4.036  13.139  0.0617 -0.2172  0.0392
 1215TIP3    H125136   5.552   4.105  13.167 -0.8027  0.8198 -0.5613
 1215TIP3    H225137   5.465   3.993  13.221 -0.0530  0.7331  0.5112
 1216TIP3   OH225138   6.156   6.398  15.251 -0.0921 -0.0518 -0.7439
 1216TIP3    H125139   6.101   6.432  15.322 -0.0216  2.3688 -1.7662
 1216TIP3    H225140   6.238   6.446  15.258  1.0011 -1.8380 -0.7712
 1217TIP3   OH225141   1.372   3.120   3.094 -0.2103 -0.2104  0.2865
 1217TIP3    H125142   1.426   3.197   3.110 -0.0985 -0.0888 -0.6043
 1217TIP3    H225143   1.425   3.066   3.035  0.1562 -1.4743  1.7258
 1218TIP3   OH225144   4.099   3.045   3.695  0.1744 -0.5444 -0.4387
 1218TIP3    H125145   4.141   3.071   3.777  1.8028 -2.2343 -0.6741
 1218TIP3    H225146   4.056   2.962   3.716 -1.5683  0.2508 -0.6860
 1219TIP3   OH225147   1.728   1.799   4.907 -0.1971  0.4162  0.1128
 1219TIP3    H125148   1.642   1.827   4.876 -0.2724 -0.8825 -0.9489
 1219TIP3    H225149   1.790   1.856   4.863 -0.4717  0.7049  0.1023
 1220TIP3   OH225150   3.805   4.271   5.502 -0.3340  0.3921 -0.9844
 1220TIP3    H125151   3.878   4.220   5.538 -0.7536  0.8033  0.5580
 1220TIP3    H225152   3.841   4.314   5.424  0.9682  0.2916 -0.4664
 1221TIP3   OH225153   0.949   2.605  11.974  0.7474 -0.0200 -0.4738
 1221TIP3    H125154   0.994   2.637  11.896  1.0395  0.8940  0.0570
 1221TIP3    H225155   0.877   2.667  11.987  1.4410  0.5766  0.6880
 1222TIP3   OH225156   6.575   5.099   1.260  0.8232 -0.0877 -0.1619
 1222TIP3    H125157   6.510   5.030   1.242 -0.4884  0.5061  1.8970
 1222TIP3    H225158   6.569   5.112   1.355  2.0872  1.8439 -0.3086
 1223TIP3   OH225159   5.187   5.539  14.221  0.5990  0.2340  0.5181
 1223TIP3    H125160   5.094   5.553  14.238 -0.0148 -2.2752 -0.4581
 1223TIP3    H225161   5.201   5.445  14.231  2.8359  0.3957 -0.3289
 1224TIP3   OH225162   3.422   1.283  13.705  0.7154 -0.1860 -0.0584
 1224TIP3    H125163   3.433   1.375  13.728 -0.6660 -0.2905  1.1001
 1224TIP3    H225164   3.480   1.236  13.765 -0.3660 -0.2290  0.9584
 1225TIP3   OH225165   3.296   2.587  14.369  0.3313 -0.6062 -0.1489
 1225TIP3    H125166   3.232   2.626  14.429 -0.2597 -0.6479 -0.7394
 1225TIP3    H225167   3.270   2.495  14.362  1.0700 -0.8708  0.3874
 1226TIP3   OH225168   6.767   1.623  17.041 -0.4250 -0.1895  0.7175
 1226TIP3    H125169   6.717   1.593  17.117 -0.4895 -0.5222  0.5437
 1226TIP3    H225170   6.754   1.718  17.040 -0.9975 -0.2628  0.7157
 1227TIP3   OH225171   3.377   2.180  10.798  0.0684 -0.2225 -0.1247
 1227TIP3    H125172   3.334   2.264  10.783  1.7808  0.8673  0.7546
 1227TIP3    H225173   3.466   2.192  10.766 -0.4179 -2.7257 -2.7687
 1228TIP3   OH225174   6.723   3.113  15.465 -0.5739 -0.1708 -0.8545
 1228TIP3    H125175   6.637   3.072  15.472 -0.5857 -0.0371 -0.1242
 1228TIP3    H225176   6.710   3.185  15.403 -0.9339 -0.2863 -0.9157
 1229TIP3   OH225177   6.406   6.692  11.336  0.3946 -0.3654 -0.3534
 1229TIP3    H125178   6.385   6.744  11.259 -1.7169 -0.0275  0.3840
 1229TIP3    H225179   6.365   6.607  11.320  0.2588 -0.4173  0.2315
 1230TIP3   OH225180   5.495   2.226  17.096 -0.2291  0.3899 -0.2328
 1230TIP3    H125181   5.427   2.287  17.125  1.8129  2.4068  0.5420
 1230TIP3    H225182   5.534   2.269  17.020  0.4022 -0.5879 -0.4694
 1231TIP3   OH225183   4.841   0.751   5.265 -0.7213 -0.5118  0.2543
 1231TIP3    H125184   4.808   0.755   5.175 -0.1541  1.4891  0.0861
 1231TIP3    H225185   4.816   0.835   5.303  2.0902  0.1738  0.8412
 1232TIP3   OH225186   2.821   1.280  13.468 -0.1974 -0.5540  0.1133
 1232TIP3    H125187   2.911   1.252  13.457 -1.0338 -3.4469 -0.2411
 1232TIP3    H225188   2.818   1.369  13.431  2.5087 -0.2590  0.4229
 1233TIP3   OH225189   6.062   3.605  12.489  0.1690  0.3423 -0.1974
 1233TIP3    H125190   6.116   3.667  12.438  0.6579 -0.7610 -1.0590
 1233TIP3    H225191   6.126   3.549  12.533 -0.2154 -1.1489 -1.4305
 1234TIP3   OH225192   2.194   0.832   2.293  0.6115  0.4028  0.0380
 1234TIP3    H125193   2.132   0.844   2.221 -2.5891 -2.1969  2.0589
 1234TIP3    H225194   2.171   0.900   2.356 -0.3023 -0.5266  0.7613
 1235TIP3   OH225195   2.317   4.668   5.859 -0.3278 -0.1353  0.0426
 1235TIP3    H125196   2.358   4.587   5.888 -0.7972 -0.0281  1.0665
 1235TIP3    H225197   2.232   4.670   5.904 -0.5308  0.6929 -0.3382
 1236TIP3   OH225198   4.201   2.371   3.215  0.1164  0.4154  0.4370
 1236TIP3    H125199   4.284   2.417   3.224  0.1626  0.4484 -0.1551
 1236TIP3    H225200   4.203   2.334   3.127 -0.6723  0.7701  0.2591
 1237TIP3   OH225201   4.652   5.484  14.861 -0.5137  0.2420 -0.0550
 1237TIP3    H125202   4.599   5.406  14.879  0.0802 -0.5349 -1.5156
 1237TIP3    H225203   4.668   5.522  14.948 -1.3688 -0.8824  0.6308
 1238TIP3   OH225204   0.297   3.736  11.786 -0.1455 -0.3548  0.4639
 1238TIP3    H125205   0.389   3.757  11.804  0.2564 -0.1733 -1.5806
 1238TIP3    H225206   0.249   3.814  11.813  0.4917  0.1738  0.0892
 1239TIP3   OH225207   5.524   1.644   1.855 -0.7915  0.3107  0.0548
 1239TIP3    H125208   5.469   1.580   1.810 -1.9849  1.2726  0.0979
 1239TIP3    H225209   5.560   1.596   1.930 -0.4841 -0.7046 -0.7221
 1240TIP3   OH225210   4.763   5.499   4.576  0.1652  0.1199  0.0573
 1240TIP3    H125211   4.671   5.497   4.602  0.3796  0.7309  0.8949
 1240TIP3    H225212   4.807   5.440   4.637  0.0223 -1.9506 -1.7331
 1241TIP3   OH225213   0.740   2.805  12.421  0.1368 -0.4638 -0.3609
 1241TIP3    H125214   0.728   2.872  12.488 -0.0605 -0.2036 -0.6564
 1241TIP3    H225215   0.829   2.819  12.389 -0.4454  0.6881 -1.5421
 1242TIP3   OH225216   1.433   4.325   4.794  0.0136 -0.4862 -0.1418
 1242TIP3    H125217   1.412   4.351   4.704 -0.2879 -1.0854 -0.2498
 1242TIP3    H225218   1.523   4.354   4.807 -0.3514  0.7438 -0.1999
 1243TIP3   OH225219   2.310   3.068  12.236 -0.2777  0.1237 -0.0633
 1243TIP3    H125220   2.234   3.031  12.191 -0.2611  1.3167 -1.1207
 1243TIP3    H225221   2.375   3.081  12.168 -0.2601  2.0019  0.2547
 1244TIP3   OH225222   5.933   5.484   1.585  0.0609 -1.0813 -0.0856
 1244TIP3    H125223   5.980   5.402   1.600  1.6013  0.0483  1.8407
 1244TIP3    H225224   5.985   5.531   1.520 -0.3802 -1.2864 -0.5934
 1245TIP3   OH225225   0.973   2.594   5.000 -0.2462  0.0726 -0.0044
 1245TIP3    H125226   1.051   2.600   5.056 -0.6469 -2.2009  0.9165
 1245TIP3    H225227   0.927   2.676   5.014  1.1562  0.7688  0.7241
 1246TIP3   OH225228   5.718   2.161   1.633 -0.3071  0.3749 -0.5193
 1246TIP3    H125229   5.704   2.198   1.547  0.0478 -0.9540 -1.1835
 1246TIP3    H225230   5.740   2.069   1.616  0.9459  0.3599  0.9044
 1247TIP3   OH225231   2.940   4.009  16.072 -0.2396 -0.9783 -0.2218
 1247TIP3    H125232   2.974   3.925  16.103  0.6003 -1.2363 -1.7513
 1247TIP3    H225233   2.958   4.009  15.978 -1.3498  0.3945 -0.4654
 1248TIP3   OH225234   3.721   6.357   3.187 -0.5095  0.4315  0.6745
 1248TIP3    H125235   3.734   6.277   3.238  0.2722  1.1970  1.7196
 1248TIP3    H225236   3.804   6.370   3.141 -1.0371  0.0249 -0.4325
 1249TIP3   OH225237   5.099   5.327  14.897  0.1127  0.5057  1.1279
 1249TIP3    H125238   5.024   5.268  14.887  1.7033 -1.4327 -0.2564
 1249TIP3    H225239   5.154   5.284  14.963  2.3329 -0.8968 -1.4319
 1250TIP3   OH225240   1.378   5.351  17.221  0.1904 -0.2916  0.0260
 1250TIP3    H125241   1.368   5.337  17.127  1.6814  1.7734 -0.5264
 1250TIP3    H225242   1.405   5.443  17.228 -1.1674 -0.0122  2.5833
 1251TIP3   OH225243   3.569   6.170   4.785 -0.0434 -0.2206  0.3249
 1251TIP3    H125244   3.486   6.172   4.833  0.8328 -1.6447  2.0248
 1251TIP3    H225245   3.576   6.257   4.745 -1.7848  0.3284  1.1040
 1252TIP3   OH225246   4.875   2.297  12.464 -0.2010 -0.2416  0.1604
 1252TIP3    H125247   4.835   2.259  12.542  0.1992 -3.0525 -0.8782
 1252TIP3    H225248   4.900   2.221  12.411  2.3412  1.4767 -1.3058
 1253TIP3   OH225249   2.612   6.506   5.650  0.4001 -0.0883 -0.2208
 1253TIP3    H125250   2.548   6.539   5.588 -0.0638 -1.7206 -0.6525
 1253TIP3    H225251   2.692   6.494   5.599  0.4566  0.0219 -0.1573
 1254TIP3   OH225252   5.877   5.635   4.594  0.0762  0.1233 -0.1356
 1254TIP3    H125253   5.822   5.712   4.582 -2.0138 -1.1460  0.6206
 1254TIP3    H225254   5.885   5.597   4.507 -1.8965 -0.6604 -0.0391
 1255TIP3   OH225255   1.691   1.672   0.098  0.2503  0.3616  0.0787
 1255TIP3    H125256   1.728   1.588   0.072 -1.3390  0.3760 -2.6287
 1255TIP3    H225257   1.618   1.686   0.038  0.3955  3.6458  0.4630
 1256TIP3   OH225258   4.264   4.131   3.001  0.1803  0.0127  0.2385
 1256TIP3    H125259   4.198   4.200   2.999 -1.5078 -1.5332 -0.9036
 1256TIP3    H225260   4.265   4.102   3.093 -0.9234 -0.1051  0.2264
 1257TIP3   OH225261   5.087   0.076   1.187  0.1537 -0.1345  0.1719
 1257TIP3    H125262   5.123   0.060   1.275 -0.5287 -2.5487  0.0885
 1257TIP3    H225263   5.147   0.030   1.128 -0.5407 -0.3264 -0.4033
 1258TIP3   OH225264   0.251   0.797   3.555  0.0283  0.0897  0.4123
 1258TIP3    H125265   0.176   0.740   3.538  0.3905 -0.2469 -0.0902
 1258TIP3    H225266   0.314   0.775   3.486  1.5772 -1.2999  2.1805
 1259TIP3   OH225267   4.061   4.269  16.815 -0.6002  0.0209 -0.4443
 1259TIP3    H125268   4.028   4.228  16.734 -1.8212 -0.1460  0.1116
 1259TIP3    H225269   3.995   4.335  16.837 -1.5006 -1.4441  1.6041
 1260TIP3   OH225270   0.084   1.224  12.711  0.2872  0.0316 -0.1611
 1260TIP3    H125271   0.018   1.159  12.685  1.2323 -1.0297 -0.0119
 1260TIP3    H225272   0.159   1.171  12.738  1.0923  1.2090 -0.0448
 1261TIP3   OH225273   1.863   1.492  11.864  0.3111  0.2955  0.6789
 1261TIP3    H125274   1.879   1.553  11.792 -1.4566  0.4498  0.3672
 1261TIP3    H225275   1.800   1.538  11.920  1.1377 -0.1076  1.9735
 1262TIP3   OH225276   5.779   2.652   4.558 -0.3577  0.2996 -0.2585
 1262TIP3    H125277   5.697   2.603   4.552 -0.1899 -0.0215  0.0403
 1262TIP3    H225278   5.847   2.588   4.534 -0.3067  0.9238 -1.8477
 1263TIP3   OH225279   6.780   4.295  12.216 -0.5023 -0.2962 -0.0109
 1263TIP3    H125280   6.788   4.370  12.156  1.6488  0.0027  0.5624
 1263TIP3    H225281   6.843   4.231  12.182 -0.3221 -0.7169  1.0922
 1264TIP3   OH225282   1.964   1.522  11.317  0.0534  0.2327 -0.1313
 1264TIP3    H125283   1.982   1.544  11.225  1.1168  0.2674  0.0846
 1264TIP3    H225284   2.002   1.435  11.328 -1.8610 -0.6788 -0.2660
 1265TIP3   OH225285   6.257   0.540   0.862  0.1836  0.3794 -0.4029
 1265TIP3    H125286   6.262   0.508   0.772  1.5107 -0.6539  0.0145
 1265TIP3    H225287   6.257   0.635   0.853  0.3367  0.2929 -1.4850
 1266TIP3   OH225288   6.222   1.169   5.684 -0.0965 -0.5778  0.1054
 1266TIP3    H125289   6.251   1.078   5.693  0.3845 -0.5384 -0.8278
 1266TIP3    H225290   6.151   1.179   5.747  3.3961  0.0127  4.4207
 1267TIP3   OH225291   5.673   4.523  10.913 -0.3608  0.0715 -0.3927
 1267TIP3    H125292   5.609   4.534  10.843  1.2545  1.3236 -1.7604
 1267TIP3    H225293   5.709   4.610  10.927 -0.0181 -0.3243  1.4138
 1268TIP3   OH225294   2.134   5.373   2.902 -0.1923  0.4178 -0.4201
 1268TIP3    H125295   2.057   5.382   2.958  0.8807  0.3898  1.0874
 1268TIP3    H225296   2.193   5.316   2.949  0.8185  0.5140 -1.5117
 1269TIP3   OH225297   6.196   1.789  14.591 -0.5871 -0.4719 -0.1567
 1269TIP3    H125298   6.188   1.817  14.500 -0.1765  1.1575  0.2892
 1269TIP3    H225299   6.279   1.827  14.621 -0.9986 -0.5103  1.0731
 1270TIP3   OH225300   0.921   0.454   1.892  0.4732 -0.7773 -0.1117
 1270TIP3    H125301   0.974   0.374   1.897 -0.0368 -1.0720  0.9482
 1270TIP3    H225302   0.866   0.442   1.815 -0.1582 -1.8237  0.4708
 1271TIP3   OH225303   6.597   3.938   3.348 -0.6779  0.1781  0.1880
 1271TIP3    H125304   6.512   3.914   3.385 -1.4338  1.5912 -0.5532
 1271TIP3    H225305   6.630   4.006   3.407 -1.0187  1.0800 -0.6275
 1272TIP3   OH225306   4.165   0.196  12.395  0.5215  0.1611 -0.0855
 1272TIP3    H125307   4.202   0.212  12.482  0.4233  0.6911 -0.1404
 1272TIP3    H225308   4.232   0.229  12.335  0.3858  0.2247 -0.2008
 1273TIP3   OH225309   1.263   2.447   4.865  0.1002  0.4487  0.3100
 1273TIP3    H125310   1.319   2.396   4.808 -1.1725 -2.2535  1.3225
 1273TIP3    H225311   1.214   2.504   4.806 -0.2185 -1.3033 -1.1760
 1274TIP3   OH225312   6.492   2.345   2.931 -0.5839  0.2201 -0.3028
 1274TIP3    H125313   6.483   2.279   3.000  0.6067  1.5855  1.2350
 1274TIP3    H225314   6.404   2.353   2.894 -1.5303  0.2062  1.8016
 1275TIP3   OH225315   4.404   6.719   0.035 -0.6460 -0.0008 -0.2229
 1275TIP3    H125316   4.409   6.641   0.091 -0.2840 -0.1068 -0.3954
 1275TIP3    H225317   4.312   6.743   0.035 -0.9436 -1.0420 -0.9896
 1276TIP3   OH225318   0.495   4.476   3.849 -0.0761 -0.5917 -0.1174
 1276TIP3    H125319   0.496   4.466   3.753 -1.2217  0.3050 -0.2468
 1276TIP3    H225320   0.433   4.410   3.879 -2.4741  1.3688 -0.3716
 1277TIP3   OH225321   1.064   6.024  16.219  0.1356 -0.4816  0.7757
 1277TIP3    H125322   1.023   5.951  16.173 -1.8596  0.1056  1.5163
 1277TIP3    H225323   1.066   5.996  16.311  1.0389 -0.3225  0.8143
 1278TIP3   OH225324   6.493   6.564  12.996  0.4224  0.7503  0.1419
 1278TIP3    H125325   6.541   6.530  13.071  0.0352 -1.9138 -0.7304
 1278TIP3    H225326   6.555   6.562  12.924  0.1286  1.1336 -0.1295
 1279TIP3   OH225327   3.172   6.249   0.179  0.3853 -0.1607 -0.4626
 1279TIP3    H125328   3.086   6.237   0.138  0.3870  0.6519 -0.7184
 1279TIP3    H225329   3.198   6.338   0.154  1.0536 -0.2026  0.0687
 1280TIP3   OH225330   6.717   4.304   3.075 -0.2799  0.0008  0.5298
 1280TIP3    H125331   6.664   4.226   3.059  0.3671 -0.7314  1.7883
 1280TIP3    H225332   6.696   4.363   3.003 -0.6327 -1.4201 -0.5751
 1281TIP3   OH225333   0.353   1.902  13.794 -0.3518  0.2192 -0.6075
 1281TIP3    H125334   0.356   1.817  13.750  0.3901 -0.6612  1.0809
 1281TIP3    H225335   0.285   1.891  13.861  1.3971  0.1019  1.2301
 1282TIP3   OH225336   0.580   0.891   5.934 -0.0887 -0.2700  0.7545
 1282TIP3    H125337   0.618   0.835   6.001  0.2801 -0.6944  0.1990
 1282TIP3    H225338   0.620   0.977   5.950 -1.3506  0.0953  2.1823
 1283TIP3   OH225339   1.779   1.425   1.609 -0.2385 -0.4210 -0.2227
 1283TIP3    H125340   1.723   1.361   1.565 -0.8178  0.6095 -1.0301
 1283TIP3    H225341   1.781   1.397   1.700 -1.4697 -0.9082 -0.3316
 1284TIP3   OH225342   6.545   3.612  10.726 -0.0491  0.2993  0.5350
 1284TIP3    H125343   6.472   3.556  10.752 -1.0220  0.2955 -1.9416
 1284TIP3    H225344   6.509   3.700  10.727  0.2122  0.4100  0.3142
 1285TIP3   OH225345   0.369   2.025   0.632  0.2315 -0.0778  0.0455
 1285TIP3    H125346   0.439   2.069   0.680 -1.6851  1.5146  1.5370
 1285TIP3    H225347   0.371   2.065   0.545  0.8646  0.2857  0.2264
 1286TIP3   OH225348   6.127   1.992   2.857 -0.0983 -0.5041 -0.0136
 1286TIP3    H125349   6.067   2.065   2.841  0.5400  0.1465  0.4568
 1286TIP3    H225350   6.071   1.915   2.859 -0.5000 -0.3728 -2.9182
 1287TIP3   OH225351   5.463   6.567   4.718  0.1681 -0.0328  0.2103
 1287TIP3    H125352   5.486   6.478   4.743  0.0816 -0.1709 -0.1910
 1287TIP3    H225353   5.374   6.561   4.684  0.2510  0.1626 -0.0464
 1288TIP3   OH225354   4.038   3.206   3.932 -0.3580  0.3290  0.5096
 1288TIP3    H125355   4.015   3.298   3.924  0.4486  0.5210  0.2655
 1288TIP3    H225356   3.956   3.159   3.922 -0.3438  0.8245 -2.8340
 1289TIP3   OH225357   1.567   0.456  12.277  0.1893  0.2878 -0.5192
 1289TIP3    H125358   1.608   0.397  12.341  1.0448  0.0361 -1.2870
 1289TIP3    H225359   1.615   0.538  12.287  0.1977  0.3048 -0.7076
 1290TIP3   OH225360   1.619   0.930   3.305 -0.6798 -0.1915 -0.0247
 1290TIP3    H125361   1.572   0.946   3.386  1.3653  1.6178  0.9185
 1290TIP3    H225362   1.569   0.977   3.238 -3.2382 -2.9420 -0.2587
 1291TIP3   OH225363   5.316   5.899  13.080 -0.0381  0.3160 -0.0614
 1291TIP3    H125364   5.296   5.818  13.127  2.2721 -1.4800 -1.8664
 1291TIP3    H225365   5.365   5.952  13.142  1.0715 -1.0443  0.2667
 1292TIP3   OH225366   0.451   0.251  13.264 -0.5258  0.2931 -0.5225
 1292TIP3    H125367   0.361   0.283  13.268 -0.0770  1.4952  0.3512
 1292TIP3    H225368   0.504   0.322  13.299  0.8405 -0.1665 -1.5415
 1293TIP3   OH225369   5.396   3.862   4.762  0.1081  0.7484  1.2169
 1293TIP3    H125370   5.369   3.922   4.693  0.1463  0.2804  0.7872
 1293TIP3    H225371   5.475   3.820   4.727 -0.9780 -0.9507  0.6745
 1294TIP3   OH225372   0.048   2.931   3.034 -0.0501 -0.1442  0.0168
 1294TIP3    H125373   0.062   2.972   3.119 -0.2432 -0.8739  0.4053
 1294TIP3    H225374   0.058   3.003   2.971  0.4407  0.3289  0.6241
 1295TIP3   OH225375   5.697   4.137  13.866  0.0759  0.2422 -0.5648
 1295TIP3    H125376   5.756   4.139  13.790  0.7068  4.2176 -0.1740
 1295TIP3    H225377   5.627   4.198  13.844 -0.8597 -0.1064  1.2385
 1296TIP3   OH225378   5.166   1.491   5.469  0.2191  0.1845  0.3635
 1296TIP3    H125379   5.209   1.522   5.549  0.5760 -2.1141  1.1367
 1296TIP3    H225380   5.074   1.483   5.495  0.0823  0.8033  0.0846
 1297TIP3   OH225381   0.513   6.042   1.624 -0.2755 -0.1664  0.0003
 1297TIP3    H125382   0.469   6.125   1.609 -1.4412 -0.6587  0.5088
 1297TIP3    H225383   0.498   6.024   1.717 -0.7577 -1.3100 -0.2758
 1298TIP3   OH225384   1.154   0.576  11.397  0.3808  0.1393 -0.0538
 1298TIP3    H125385   1.219   0.538  11.338  1.0786  0.0770  0.7258
 1298TIP3    H225386   1.206   0.614  11.468 -0.3985  0.8629  0.1470
 1299TIP3   OH225387   6.595   1.827   2.280  0.1771  0.6141  0.0908
 1299TIP3    H125388   6.651   1.895   2.245  0.9081  0.2112  0.4367
 1299TIP3    H225389   6.517   1.873   2.312  0.0326  1.1089 -0.9419
 1300TIP3   OH225390   4.148   0.781  16.282 -0.1990  0.0140  0.0274
 1300TIP3    H125391   4.088   0.713  16.250 -0.0990  0.7225 -1.7467
 1300TIP3    H225392   4.114   0.862  16.245  0.7613  0.6883  0.5872
 1301TIP3   OH225393   4.210   3.327   3.265  0.0275  0.4626 -0.8373
 1301TIP3    H125394   4.128   3.279   3.252  1.0292 -1.2356 -1.2227
 1301TIP3    H225395   4.276   3.273   3.221  1.8756  0.1571  2.0578
 1302TIP3   OH225396   6.103   1.446  15.647  0.0977 -0.3223 -0.4124
 1302TIP3    H125397   6.163   1.469  15.718 -1.5772  2.0316  0.3542
 1302TIP3    H225398   6.119   1.512  15.580 -1.9972  0.8350  0.1062
 1303TIP3   OH225399   5.610   3.749  13.656  0.1276  0.5866 -0.3536
 1303TIP3    H125400   5.690   3.781  13.614  0.5988  0.0461  0.1185
 1303TIP3    H225401   5.572   3.827  13.697 -0.1753  1.0656 -1.4806
 1304TIP3   OH225402   4.505   4.248  12.004  0.1113 -0.2701  0.1627
 1304TIP3    H125403   4.563   4.278  11.933 -0.5799  0.0999 -0.2564
 1304TIP3    H225404   4.417   4.265  11.971 -0.2444 -1.1108  0.6696
 1305TIP3   OH225405   4.636   6.346   4.347 -0.0024  0.7961 -0.1504
 1305TIP3    H125406   4.647   6.251   4.340 -2.4250  0.4715 -0.5255
 1305TIP3    H225407   4.684   6.381   4.271 -0.6503 -0.2955 -1.1024
 1306TIP3   OH225408   0.984   3.721   2.384  0.1491  0.3742  0.5907
 1306TIP3    H125409   1.034   3.641   2.369 -1.8651 -1.2289  1.9427
 1306TIP3    H225410   0.915   3.719   2.317 -0.6748  0.3017  1.4318
 1307TIP3   OH225411   3.683   4.246   1.141 -0.5274 -0.1529 -0.1188
 1307TIP3    H125412   3.708   4.281   1.227  0.5788 -1.4951  0.1468
 1307TIP3    H225413   3.765   4.214   1.103 -1.0361  0.2100 -1.5976
 1308TIP3   OH225414   2.411   5.241  15.430 -0.0130 -0.4496 -0.2466
 1308TIP3    H125415   2.331   5.287  15.457  0.4816  1.6502 -2.1370
 1308TIP3    H225416   2.404   5.235  15.335  2.0871 -0.2356 -0.4435
 1309TIP3   OH225417   5.517   5.645  14.450 -0.2498 -0.3258 -0.1351
 1309TIP3    H125418   5.549   5.735  14.454 -1.7933  0.2254  2.0833
 1309TIP3    H225419   5.583   5.598  14.399  1.0764  1.8521 -0.5547
 1310TIP3   OH225420   3.723   2.149   3.609 -0.0066 -0.3109  0.0390
 1310TIP3    H125421   3.793   2.112   3.663 -0.7592  1.0963  2.1355
 1310TIP3    H225422   3.769   2.198   3.541  1.1058  0.6132  1.3830
 1311TIP3   OH225423   3.798   5.416  15.436 -0.2754  0.1792  0.2465
 1311TIP3    H125424   3.859   5.479  15.397 -0.5855 -0.1173 -0.7342
 1311TIP3    H225425   3.733   5.400  15.369  0.8947 -2.7391 -0.3438
 1312TIP3   OH225426   2.770   5.481   1.751 -0.1747 -0.1229  0.0738
 1312TIP3    H125427   2.740   5.474   1.842 -1.0366  0.6966 -0.1284
 1312TIP3    H225428   2.696   5.522   1.705 -0.2572 -1.6562 -1.2558
 1313TIP3   OH225429   6.473   6.014   5.820 -0.1434  0.4896  1.1469
 1313TIP3    H125430   6.484   6.106   5.797 -0.8065  0.0847 -0.9494
 1313TIP3    H225431   6.397   5.985   5.770 -0.2655 -1.0887  2.1620
 1314TIP3   OH225432   5.536   2.017  13.941  0.0096  0.1920  0.2127
 1314TIP3    H125433   5.459   2.025  13.997 -1.0485 -0.3455 -1.1172
 1314TIP3    H225434   5.567   1.928  13.954  0.8008  0.5833  1.1916
 1315TIP3   OH225435   4.643   3.021  17.053  0.5333  0.4015  0.9022
 1315TIP3    H125436   4.665   2.960  17.124  2.0054 -0.6919 -0.4200
 1315TIP3    H225437   4.566   2.981  17.011  1.5127 -0.6316  0.0194
 1316TIP3   OH225438   5.446   6.403   3.067 -0.1276 -0.5640 -0.3192
 1316TIP3    H125439   5.467   6.430   2.977  0.1983 -1.2145 -0.4431
 1316TIP3    H225440   5.365   6.450   3.087 -0.6330 -1.0056 -1.2397
 1317TIP3   OH225441   2.755   5.407  12.913  0.1233  0.0509  0.3293
 1317TIP3    H125442   2.765   5.437  13.003  0.3205 -0.4299  0.4708
 1317TIP3    H225443   2.682   5.344  12.916  1.4654 -1.5658  0.5668
 1318TIP3   OH225444   6.464   5.174   0.464  0.2100 -0.0773  0.1289
 1318TIP3    H125445   6.397   5.242   0.471  1.4315  1.1975 -0.1607
 1318TIP3    H225446   6.423   5.107   0.409 -1.9327 -0.7951  2.4102
 1319TIP3   OH225447   2.973   6.068  12.835  0.1800 -0.3391 -0.2543
 1319TIP3    H125448   2.980   6.102  12.924  2.4979 -1.1095 -0.0704
 1319TIP3    H225449   2.917   6.131  12.790 -1.3551 -0.1138  1.7922
 1320TIP3   OH225450   5.073   3.070  16.372 -0.1077 -0.1363 -0.3069
 1320TIP3    H125451   5.165   3.093  16.375 -0.0919 -0.2558  0.2281
 1320TIP3    H225452   5.054   3.060  16.279  0.1872  0.7853 -0.4733
 1321TIP3   OH225453   4.037   1.402   2.269  0.3762 -0.2473  0.2555
 1321TIP3    H125454   4.105   1.396   2.201  0.2574 -0.2911  0.1412
 1321TIP3    H225455   4.035   1.495   2.292  1.3511 -0.4215  1.1478
 1322TIP3   OH225456   2.484   0.433   4.021  0.4637 -0.5942 -0.4520
 1322TIP3    H125457   2.480   0.405   4.113  0.3553  2.1779  0.4976
 1322TIP3    H225458   2.550   0.503   4.021 -1.2444  1.1344 -1.9407
 1323TIP3   OH225459   0.734   6.786  16.967  0.3725 -0.2080  0.7094
 1323TIP3    H125460   0.737   6.693  16.944  0.2353 -0.4085  1.4776
 1323TIP3    H225461   0.689   6.789  17.052 -1.1722  0.7133 -0.0796
 1324TIP3   OH225462   4.821   4.080  16.211  0.2540 -0.4134  0.4071
 1324TIP3    H125463   4.846   3.995  16.176  0.7120 -0.2514  0.3376
 1324TIP3    H225464   4.859   4.083  16.299  0.8513  0.0055  0.1401
 1325TIP3   OH225465   6.655   0.374  13.845 -0.4362  0.0646  0.2299
 1325TIP3    H125466   6.659   0.468  13.832 -1.0716  0.0078 -0.3996
 1325TIP3    H225467   6.708   0.358  13.923  1.1460  0.7349 -0.6734
 1326TIP3   OH225468   6.400   6.297  13.232  0.3618  0.5051  0.5044
 1326TIP3    H125469   6.491   6.314  13.258  0.3355  1.0272  0.2725
 1326TIP3    H225470   6.407   6.246  13.152  0.4442  0.0897  0.7687
 1327TIP3   OH225471   3.382   4.099  13.631 -0.4025  0.3242 -0.1422
 1327TIP3    H125472   3.472   4.067  13.642 -0.1446  0.6296 -1.2597
 1327TIP3    H225473   3.362   4.081  13.539 -1.0175  1.4477 -0.2378
 1328TIP3   OH225474   5.904   3.692   4.790 -0.0390 -0.7109  0.2567
 1328TIP3    H125475   5.894   3.596   4.790 -0.2546 -0.6876 -0.2164
 1328TIP3    H225476   5.996   3.706   4.770 -0.1368 -0.8065 -0.2646
 1329TIP3   OH225477   3.486   6.482  16.754  0.2264 -0.1039  0.1002
 1329TIP3    H125478   3.466   6.414  16.818 -0.2978  0.6529  0.7618
 1329TIP3    H225479   3.554   6.535  16.795  2.0106 -1.2764 -1.1789
 1330TIP3   OH225480   3.393   0.167  13.040  0.6509  0.2035 -0.0209
 1330TIP3    H125481   3.465   0.202  13.092 -0.3967  1.5657  0.5767
 1330TIP3    H225482   3.435   0.133  12.961  1.7685  2.9577 -0.7198
 1331TIP3   OH225483   1.108   0.755   2.651 -0.0505 -0.3422  0.7228
 1331TIP3    H125484   1.073   0.693   2.715  1.1561 -0.6715  1.0822
 1331TIP3    H225485   1.038   0.819   2.640 -1.1746 -1.5209  0.6453
 1332TIP3   OH225486   1.003   5.984   0.856  0.5521 -0.5552  0.1466
 1332TIP3    H125487   1.004   5.989   0.951 -0.1502 -0.0688  0.1431
 1332TIP3    H225488   1.033   5.895   0.836 -1.0381 -1.3060  0.8996
 1333TIP3   OH225489   5.675   3.204  12.808  0.8506  0.1953 -0.1927
 1333TIP3    H125490   5.714   3.291  12.819 -0.8728  1.4002 -2.5802
 1333TIP3    H225491   5.703   3.177  12.721 -0.0405 -0.8689 -0.1611
 1334TIP3   OH225492   4.374   1.381  16.317  0.0050  0.0050 -0.4032
 1334TIP3    H125493   4.319   1.453  16.347  0.2578 -0.7790  2.1017
 1334TIP3    H225494   4.323   1.339  16.247 -1.4787  0.7711  0.2005
 1335TIP3   OH225495   2.714   1.178   2.892 -0.2879 -0.1344  0.5739
 1335TIP3    H125496   2.628   1.187   2.934  0.3714  1.6794  1.6441
 1335TIP3    H225497   2.725   1.259   2.842  0.9018 -0.2186  0.6727
 1336TIP3   OH225498   1.478   3.550  16.535  0.3540 -0.0163  0.1288
 1336TIP3    H125499   1.451   3.556  16.626 -0.7322  0.1225 -0.1961
 1336TIP3    H225500   1.464   3.459  16.511 -1.7554  0.4521 -0.6015
 1337TIP3   OH225501   5.695   0.762  17.076  0.3875 -0.3632  0.2056
 1337TIP3    H125502   5.628   0.813  17.029  1.3702 -0.5610 -1.4890
 1337TIP3    H225503   5.646   0.691  17.117 -0.6700  0.5278  0.5356
 1338TIP3   OH225504   4.235   1.571  12.823 -0.5754  0.2115 -0.2792
 1338TIP3    H125505   4.292   1.582  12.747 -1.4733  2.9405 -0.6551
 1338TIP3    H225506   4.170   1.507  12.795  1.8325 -2.5810 -0.0170
 1339TIP3   OH225507   5.905   5.121  12.957  0.4482  0.4932  0.1795
 1339TIP3    H125508   5.908   5.029  12.985 -0.4564  0.0890 -0.9705
 1339TIP3    H225509   5.848   5.163  13.021  0.7070  0.2131  0.5998
 1340TIP3   OH225510   3.003   4.381  12.597  0.8471  0.1242 -0.3206
 1340TIP3    H125511   2.994   4.360  12.690 -0.3140 -0.1899 -0.4852
 1340TIP3    H225512   3.081   4.333  12.569 -0.5604 -2.4249 -0.1984
 1341TIP3   OH225513   1.594   1.008  11.251 -0.0238  0.7183  1.0056
 1341TIP3    H125514   1.541   0.930  11.235  0.1589  1.1649 -2.5041
 1341TIP3    H225515   1.542   1.061  11.311 -1.6111 -0.6984  0.9281
 1342TIP3   OH225516   1.401   4.777   0.754  0.0578  0.2433 -0.2616
 1342TIP3    H125517   1.367   4.746   0.670 -0.9356  0.3497  0.0907
 1342TIP3    H225518   1.358   4.722   0.819 -0.2090  1.0406  0.2505
 1343TIP3   OH225519   2.747   1.428  12.157  0.4979 -0.3449 -0.1401
 1343TIP3    H125520   2.791   1.476  12.226 -0.4538  0.4312 -0.0511
 1343TIP3    H225521   2.710   1.495  12.100  0.8356 -0.9696 -1.1319
 1344TIP3   OH225522   2.430   4.519   2.346  0.2840 -0.3083 -0.3625
 1344TIP3    H125523   2.338   4.542   2.346  0.3362 -0.0947 -0.2180
 1344TIP3    H225524   2.475   4.600   2.372  0.5291 -0.3409 -0.6834
 1345TIP3   OH225525   0.906   5.801   2.018 -0.3289  0.4484 -0.1851
 1345TIP3    H125526   0.857   5.819   1.937 -1.1207 -0.7353 -0.0035
 1345TIP3    H225527   0.885   5.709   2.038  1.4496  0.1127  0.2810
 1346TIP3   OH225528   5.974   5.580  15.092 -0.8225 -0.7483  0.0083
 1346TIP3    H125529   5.941   5.632  15.165  0.8059 -1.5288  1.3634
 1346TIP3    H225530   6.053   5.626  15.063 -0.4494 -1.4131 -0.0495
 1347TIP3   OH225531   6.722   3.042  15.748  0.9565 -0.3341  0.5411
 1347TIP3    H125532   6.717   3.068  15.656 -1.1626 -0.9914  0.4042
 1347TIP3    H225533   6.810   3.008  15.759  0.8073 -1.5937 -1.6514
 1348TIP3   OH225534   0.698   1.596  13.487 -0.3749 -0.0438 -0.0154
 1348TIP3    H125535   0.761   1.545  13.538  0.0383  1.9073  1.5775
 1348TIP3    H225536   0.621   1.601  13.543 -0.6466  0.5069 -0.4289
 1349TIP3   OH225537   3.472   3.977  12.849 -0.2594  0.2168 -0.3146
 1349TIP3    H125538   3.530   3.910  12.812  2.2611  0.4185  2.8053
 1349TIP3    H225539   3.520   4.059  12.835 -2.2953  1.1851 -2.1549
 1350TIP3   OH225540   6.662   4.357  11.297  0.0285  0.0931 -0.6594
 1350TIP3    H125541   6.676   4.273  11.253 -0.4831 -0.0655 -0.5223
 1350TIP3    H225542   6.576   4.348  11.339 -0.1996  0.8169 -0.9550
 1351TIP3   OH225543   4.934   0.121   0.790  0.0022  0.1423 -0.1835
 1351TIP3    H125544   4.908   0.196   0.844  0.9530 -1.5688  2.8525
 1351TIP3    H225545   5.014   0.149   0.747  0.6697  0.7143  1.3736
 1352TIP3   OH225546   0.260   3.850  11.173  0.2042 -0.1391 -0.3653
 1352TIP3    H125547   0.272   3.834  11.267 -1.0494 -1.4375 -0.4034
 1352TIP3    H225548   0.303   3.776  11.130  0.2052  0.1112 -0.8022
 1353TIP3   OH225549   1.219   2.894  15.807  0.6160  0.0114 -0.0904
 1353TIP3    H125550   1.198   2.817  15.754  0.5025 -0.0347  0.0224
 1353TIP3    H225551   1.254   2.859  15.888 -1.1170  0.0376  0.6956
 1354TIP3   OH225552   2.116   5.421   6.782 -1.0268 -0.4951  0.3546
 1354TIP3    H125553   2.136   5.462   6.698  0.1884  0.9177  1.2724
 1354TIP3    H225554   2.074   5.338   6.760 -2.3930  0.6455 -1.6089
 1355TIP3   OH225555   4.938   1.007  13.893  0.0562 -0.5606 -0.3298
 1355TIP3    H125556   4.964   0.925  13.936 -0.8269 -1.3861 -1.3085
 1355TIP3    H225557   4.851   1.026  13.927 -1.5766 -2.3341 -3.0880
 1356TIP3   OH225558   1.365   5.654   1.623 -0.2481 -0.4054  0.1932
 1356TIP3    H125559   1.309   5.580   1.648  1.0458 -1.5666 -0.1589
 1356TIP3    H225560   1.421   5.668   1.699 -1.0238  0.7734  0.5618
 1357TIP3   OH225561   1.939   2.943  12.310  0.2597  0.0835  0.3502
 1357TIP3    H125562   1.874   2.873  12.305  0.2736  0.1128 -0.3185
 1357TIP3    H225563   1.991   2.933  12.230  0.3671  0.7503  0.3327
 1358TIP3   OH225564   3.564   6.151   1.453  0.2767 -0.0849  0.4122
 1358TIP3    H125565   3.631   6.204   1.409  1.0943 -0.5972  1.0290
 1358TIP3    H225566   3.498   6.137   1.386 -0.9364  3.3150  0.7153
 1359TIP3   OH225567   2.085   4.252  12.900 -0.4443 -0.0941 -0.0185
 1359TIP3    H125568   2.068   4.341  12.871 -0.3345  0.0418  0.3324
 1359TIP3    H225569   2.103   4.260  12.993 -0.2003 -0.4549 -0.0327
 1360TIP3   OH225570   5.886   5.819  11.900 -0.0574  0.1245 -0.0885
 1360TIP3    H125571   5.921   5.891  11.848 -2.3255  0.5987 -1.0903
 1360TIP3    H225572   5.804   5.796  11.856 -0.3165 -1.8139  1.3049
 1361TIP3   OH225573   2.317   2.890   0.607  0.0874  0.0925  0.1236
 1361TIP3    H125574   2.306   2.864   0.699  0.5278  0.6536  0.3382
 1361TIP3    H225575   2.316   2.985   0.609 -0.6888  0.1080 -0.5557
 1362TIP3   OH225576   4.175   1.933   5.193 -0.3170  0.2965  0.3679
 1362TIP3    H125577   4.121   1.926   5.115  1.7945  0.4703 -1.1911
 1362TIP3    H225578   4.129   1.996   5.249 -1.5859  0.5968 -0.9616
 1363TIP3   OH225579   0.022   2.935   5.030 -0.4433  0.2065 -0.4178
 1363TIP3    H125580   0.085   2.953   4.960  0.1113 -2.2880 -0.6400
 1363TIP3    H225581   0.064   2.869   5.085 -1.1646  1.5472  1.9219
 1364TIP3   OH225582   2.229   6.399   0.389  0.5065  0.1192 -0.0648
 1364TIP3    H125583   2.238   6.316   0.435  1.5911  1.1106  1.6119
 1364TIP3    H225584   2.139   6.427   0.407  0.9203  0.4947  1.4905
 1365TIP3   OH225585   0.925   3.254   0.324 -0.0256 -0.5557 -0.0546
 1365TIP3    H125586   0.863   3.266   0.252  0.0951 -0.5220 -0.1532
 1365TIP3    H225587   0.873   3.215   0.394 -0.8771  2.0293  0.8915
 1366TIP3   OH225588   3.123   5.048  14.195  0.2435 -0.0826 -0.0355
 1366TIP3    H125589   3.137   5.134  14.157 -0.9869  0.0384 -0.2560
 1366TIP3    H225590   3.208   5.004  14.188  0.6643  0.8087 -0.6694
 1367TIP3   OH225591   3.313   4.226  12.067  0.2425 -0.0061  0.1528
 1367TIP3    H125592   3.270   4.227  12.152 -1.2339 -1.8694 -0.4898
 1367TIP3    H225593   3.265   4.289  12.014  0.8470  0.7898  0.5334
 1368TIP3   OH225594   4.827   2.546   5.262 -0.2553 -0.1966 -0.1358
 1368TIP3    H125595   4.870   2.626   5.229  0.4015 -0.7281 -0.6025
 1368TIP3    H225596   4.894   2.478   5.254  0.0231 -0.3339  2.5475
 1369TIP3   OH225597   6.710   3.765   1.453  0.1432 -0.0772 -0.1991
 1369TIP3    H125598   6.746   3.841   1.407 -1.0769 -0.2340 -1.4870
 1369TIP3    H225599   6.673   3.802   1.533  0.2282  0.5806 -0.4508
 1370TIP3   OH225600   5.365   1.266  14.419 -0.0241 -0.3032  0.0977
 1370TIP3    H125601   5.391   1.310  14.500  0.3580  1.0922 -0.7480
 1370TIP3    H225602   5.374   1.172  14.439  1.1308  0.0302  1.3216
 1371TIP3   OH225603   1.869   2.345  10.717 -0.4080 -0.2980  0.5301
 1371TIP3    H125604   1.808   2.281  10.752 -0.6051 -1.5112 -1.8004
 1371TIP3    H225605   1.895   2.309  10.632  1.9169  1.2247  0.5049
 1372TIP3   OH225606   4.161   6.448  15.999 -0.3013 -0.2453  0.1539
 1372TIP3    H125607   4.086   6.415  15.950  0.5322 -0.6496 -0.9048
 1372TIP3    H225608   4.222   6.477  15.931  1.1809 -1.4438  0.9178
 1373TIP3   OH225609   4.198   4.728  15.362 -0.0911 -0.4819 -0.6824
 1373TIP3    H125610   4.106   4.738  15.337 -0.4288 -0.7623  0.3921
 1373TIP3    H225611   4.195   4.693  15.451  1.0557 -1.4659 -0.9972
 1374TIP3   OH225612   1.614   0.597  11.657 -0.6272  0.3209  0.2289
 1374TIP3    H125613   1.683   0.579  11.593 -1.9843  0.9765 -1.5017
 1374TIP3    H225614   1.651   0.666  11.712  0.4318  0.0235 -0.0745
 1375TIP3   OH225615   6.612   0.739  12.738  0.0593  0.7419  0.5443
 1375TIP3    H125616   6.544   0.803  12.714  1.5933  1.4661 -2.4694
 1375TIP3    H225617   6.660   0.725  12.656  2.5850 -0.8979  2.1849
 1376TIP3   OH225618   2.788   4.074  13.606  0.3333  0.1844 -0.2523
 1376TIP3    H125619   2.736   4.023  13.544 -0.1273 -0.4633  0.6262
 1376TIP3    H225620   2.870   4.092  13.561  0.1492 -0.5842 -0.9116
 1377TIP3   OH225621   3.320   2.164   3.860  0.1223  0.3368 -0.1971
 1377TIP3    H125622   3.232   2.182   3.827 -0.1250  1.3947  0.9625
 1377TIP3    H225623   3.377   2.178   3.785 -0.5884  0.8015 -0.6648
 1378TIP3   OH225624   6.058   3.370   1.907  0.1295  0.0588 -0.2746
 1378TIP3    H125625   6.094   3.302   1.851 -0.2984  0.9632 -1.7032
 1378TIP3    H225626   6.004   3.323   1.971  0.2255 -0.9634 -0.9289
 1379TIP3   OH225627   4.144   5.570   1.336  0.1994 -0.0889  0.3067
 1379TIP3    H125628   4.175   5.570   1.427 -0.5143  1.1035  0.5823
 1379TIP3    H225629   4.219   5.539   1.285 -0.0958 -3.0508  1.4723
 1380TIP3   OH225630   2.242   3.712   1.975 -0.1032  0.0012  0.1890
 1380TIP3    H125631   2.184   3.785   1.997 -1.5701 -0.6360 -1.3158
 1380TIP3    H225632   2.319   3.725   2.029 -0.5852  2.3243  0.4068
 1381TIP3   OH225633   0.424   0.217   0.007  0.4054  0.1735  0.1703
 1381TIP3    H125634   0.340   0.201   0.051  0.9383 -0.3669  1.0041
 1381TIP3    H225635   0.401   0.226  -0.086 -0.6455  0.6225  0.4627
 1382TIP3   OH225636   3.085   0.975  13.261 -0.4932  0.1026  0.2044
 1382TIP3    H125637   3.002   0.966  13.215  0.0632 -2.4258 -0.4332
 1382TIP3    H225638   3.107   0.887  13.290  0.7957  1.0949  2.5203
 1383TIP3   OH225639   5.207   0.309  12.714 -0.3042 -0.0306 -0.1891
 1383TIP3    H125640   5.157   0.260  12.649 -0.4259  1.3459 -1.1822
 1383TIP3    H225641   5.277   0.249  12.740  0.2729 -0.3568 -2.2453
 1384TIP3   OH225642   5.909   4.910   2.238 -0.1241 -0.7235  0.2864
 1384TIP3    H125643   5.859   4.928   2.317 -0.7622 -0.6991 -0.1171
 1384TIP3    H225644   5.933   4.817   2.246  0.9618 -0.3827  1.1344
 1385TIP3   OH225645   2.782   5.246   1.568  0.1633  0.8286  1.0171
 1385TIP3    H125646   2.779   5.303   1.645  0.6127  1.5509  0.5159
 1385TIP3    H225647   2.717   5.283   1.508  0.0578  0.4758  0.9110
 1386TIP3   OH225648   5.598   1.548  15.082 -0.5388  0.2206 -0.4840
 1386TIP3    H125649   5.506   1.524  15.066 -0.8244  0.8512  0.1466
 1386TIP3    H225650   5.594   1.636  15.118  0.3570  0.4322 -0.8879
 1387TIP3   OH225651   1.203   3.830  13.757  0.4402  0.0892  0.4117
 1387TIP3    H125652   1.145   3.887  13.808  0.8194  1.1434 -0.3033
 1387TIP3    H225653   1.271   3.803  13.819 -0.1758 -0.2589  0.9622
 1388TIP3   OH225654   5.607   0.871  12.552  0.0490  0.2354 -0.7297
 1388TIP3    H125655   5.574   0.832  12.633  1.3572 -0.8175 -0.6690
 1388TIP3    H225656   5.567   0.820  12.482 -2.0257  1.8854 -0.8644
 1389TIP3   OH225657   2.630   6.764  11.995  0.1839 -0.4036  0.2921
 1389TIP3    H125658   2.600   6.703  12.063 -0.3383  1.2771  1.6509
 1389TIP3    H225659   2.626   6.714  11.914 -2.2106 -1.5683  1.0462
 1390TIP3   OH225660   1.939   6.436  11.666 -0.3275 -0.0396  0.2235
 1390TIP3    H125661   1.911   6.439  11.575  1.7664  0.7115 -0.4686
 1390TIP3    H225662   1.961   6.526  11.687  3.2559 -0.6930  0.0030
 1391TIP3   OH225663   4.931   1.025   0.841  0.3729  0.1674 -0.1236
 1391TIP3    H125664   4.900   1.073   0.765  0.5485  1.6356  0.6950
 1391TIP3    H225665   5.016   0.990   0.816 -0.6523 -1.5265 -1.4352
 1392TIP3   OH225666   0.534   1.833   2.842  0.2842 -0.1189 -0.3544
 1392TIP3    H125667   0.483   1.912   2.861  0.2279  0.2804 -2.0277
 1392TIP3    H225668   0.555   1.797   2.928 -1.3443  0.6489  0.4098
 1393TIP3   OH225669   4.102   4.799  12.868  0.3786 -0.2487  0.8292
 1393TIP3    H125670   4.181   4.765  12.911  0.2302  0.0798  1.3770
 1393TIP3    H225671   4.033   4.737  12.891  0.6253 -0.9670 -0.2984
 1394TIP3   OH225672   0.205   6.211   2.405  0.4282 -0.6308  0.4454
 1394TIP3    H125673   0.201   6.300   2.371  0.7033 -0.4979  0.7559
 1394TIP3    H225674   0.113   6.185   2.415  0.3459 -0.4803  0.1092
 1395TIP3   OH225675   4.949   5.835  12.781 -0.1938 -0.2412 -0.2462
 1395TIP3    H125676   5.002   5.902  12.826  1.3546 -1.2356 -0.5312
 1395TIP3    H225677   4.869   5.831  12.832  0.9288 -0.3027  1.6189
 1396TIP3   OH225678   4.254   2.698  16.310 -1.1540 -0.5958  0.0810
 1396TIP3    H125679   4.323   2.762  16.328 -1.8413 -0.2806  1.7929
 1396TIP3    H225680   4.189   2.746  16.260 -0.8245 -0.4900 -0.2554
 1397TIP3   OH225681   2.306   5.826  13.272 -0.2771  0.1971  0.0935
 1397TIP3    H125682   2.272   5.737  13.275 -0.7641  0.3678 -0.2304
 1397TIP3    H225683   2.316   5.851  13.364 -1.6699  0.3698  0.2243
 1398TIP3   OH225684   2.949   1.444   2.468  0.3290  0.6781 -0.1089
 1398TIP3    H125685   3.008   1.386   2.419 -0.1645 -1.0165  1.2117
 1398TIP3    H225686   2.930   1.515   2.407  0.6850 -0.7260 -1.9562
 1399TIP3   OH225687   5.820   3.297  15.566 -0.7114 -0.5227 -0.0553
 1399TIP3    H125688   5.897   3.294  15.624 -0.3293  1.5580 -0.3797
 1399TIP3    H225689   5.834   3.225  15.505  1.5366  0.3734 -0.7157
 1400TIP3   OH225690   4.910   4.589   2.270 -0.6476 -0.6022 -0.4693
 1400TIP3    H125691   4.874   4.551   2.190 -1.1765 -0.6396 -0.2207
 1400TIP3    H225692   4.997   4.621   2.245 -0.7717 -0.6956 -1.0337
 1401TIP3   OH225693   6.808   5.265   1.602 -0.0080  0.1173 -0.0027
 1401TIP3    H125694   6.866   5.228   1.668 -1.2346 -0.2239  0.9217
 1401TIP3    H225695   6.863   5.277   1.525  1.6933  1.4614  1.3728
 1402TIP3   OH225696   1.153   3.972   4.127 -0.4325  0.0447 -0.7236
 1402TIP3    H125697   1.225   3.918   4.158  0.5240  1.2496 -0.7591
 1402TIP3    H225698   1.195   4.048   4.087 -1.5977  2.9150  2.8698
 1403TIP3   OH225699   0.921   2.839  11.471  0.3362 -0.0500 -0.1140
 1403TIP3    H125700   0.860   2.913  11.466  0.8507  0.4844  1.1074
 1403TIP3    H225701   0.968   2.842  11.388 -0.5519  0.1845 -0.6255
 1404TIP3   OH225702   4.913   5.622  13.605  0.3506 -0.1623  0.0885
 1404TIP3    H125703   4.897   5.538  13.649  0.5715 -0.2144  0.0708
 1404TIP3    H225704   4.870   5.687  13.660  0.5644 -0.2356  0.3483
 1405TIP3   OH225705   5.653   0.426  17.033 -0.5443  0.2588  0.1881
 1405TIP3    H125706   5.590   0.395  17.098 -1.0409  1.3418  0.2431
 1405TIP3    H225707   5.605   0.420  16.949 -0.8105  1.2580  0.2522
 1406TIP3   OH225708   2.686   1.875  12.360 -0.1335 -0.2643 -0.0916
 1406TIP3    H125709   2.648   1.962  12.358 -0.7935 -0.5527 -0.1635
 1406TIP3    H225710   2.611   1.815  12.360  0.2623 -0.8201  1.3761
 1407TIP3   OH225711   5.822   0.183   1.981  0.3183  0.0992  0.2939
 1407TIP3    H125712   5.869   0.257   1.941 -2.0883  0.9092 -1.2783
 1407TIP3    H225713   5.834   0.111   1.918 -1.8066  0.8005 -1.0244
 1408TIP3   OH225714   3.477   1.100   1.138  0.0383  0.0428  0.1245
 1408TIP3    H125715   3.408   1.161   1.115  0.6343  0.5695 -0.3078
 1408TIP3    H225716   3.557   1.141   1.106  0.3085 -1.6169 -1.4673
 1409TIP3   OH225717   6.196   5.835  11.965  0.4008 -0.5323 -0.0946
 1409TIP3    H125718   6.225   5.847  11.875  0.2211 -2.9709 -0.5628
 1409TIP3    H225719   6.107   5.869  11.967  1.2370  1.8034 -0.1334
 1410TIP3   OH225720   4.190   2.323   1.964  0.3898  0.3519 -0.0951
 1410TIP3    H125721   4.100   2.351   1.948  0.7532  1.2583 -0.6258
 1410TIP3    H225722   4.191   2.301   2.057 -0.9584 -1.9682 -0.5455
 1411TIP3   OH225723   0.755   6.276  11.360 -0.1058  0.6730  0.1331
 1411TIP3    H125724   0.712   6.291  11.444  2.7602 -1.4814  2.2324
 1411TIP3    H225725   0.799   6.359  11.340 -0.9214  1.2528  0.7000
 1412TIP3   OH225726   5.691   4.540   4.399  0.4265  0.1611  0.3792
 1412TIP3    H125727   5.782   4.567   4.409 -0.0059  1.9772 -0.1371
 1412TIP3    H225728   5.692   4.479   4.325  1.3020 -0.3407  0.7932
 1413TIP3   OH225729   6.050   0.808   1.038  0.3193 -0.1892  0.4156
 1413TIP3    H125730   5.969   0.786   0.991 -0.4492 -0.8839  1.9774
 1413TIP3    H225731   6.080   0.724   1.074  1.5016  0.1387  0.2447
 1414TIP3   OH225732   6.003   5.803   5.898  0.4372  0.2021 -0.1958
 1414TIP3    H125733   6.043   5.887   5.923 -1.5296  1.3261 -0.5886
 1414TIP3    H225734   5.994   5.809   5.803 -2.5187  0.9504  0.0514
 1415TIP3   OH225735   3.177   2.868  16.775  0.7976 -0.3467  0.2225
 1415TIP3    H125736   3.126   2.787  16.776  0.6953 -0.3651 -1.9077
 1415TIP3    H225737   3.253   2.848  16.720  1.5964  0.5629  0.9616
 1416TIP3   OH225738   3.555   5.663  16.479  0.4989  0.1360  0.4315
 1416TIP3    H125739   3.487   5.599  16.501  1.8230 -1.9691 -1.2072
 1416TIP3    H225740   3.616   5.658  16.553 -0.9337  1.9340  1.8402
 1417TIP3   OH225741   4.568   6.372   1.562 -0.3583  0.0016  0.2668
 1417TIP3    H125742   4.596   6.438   1.498 -2.4955  0.8209  0.1225
 1417TIP3    H225743   4.589   6.289   1.520  3.2296  0.4347  0.8199
 1418TIP3   OH225744   5.577   5.561   1.945 -0.2853 -0.2925 -0.1615
 1418TIP3    H125745   5.565   5.649   1.907  2.0349 -0.5103 -1.6155
 1418TIP3    H225746   5.560   5.501   1.872 -0.5892 -0.9985  0.4756
 1419TIP3   OH225747   0.705   5.989   2.219  0.0704  0.2547  0.4876
 1419TIP3    H125748   0.674   5.908   2.260  1.0808 -0.9384 -0.9939
 1419TIP3    H225749   0.799   5.976   2.208  0.2158  1.5548  0.0442
 1420TIP3   OH225750   0.686   6.562  13.283  0.3880 -0.3697  0.4862
 1420TIP3    H125751   0.671   6.522  13.369  0.6798 -2.1832 -0.2751
 1420TIP3    H225752   0.730   6.494  13.232  2.4079  1.4948 -0.3852
 1421TIP3   OH225753   6.598   2.558   4.122  0.0205 -0.0273 -0.5149
 1421TIP3    H125754   6.518   2.508   4.137  1.2213 -2.1687 -0.8769
 1421TIP3    H225755   6.632   2.525   4.038  0.9182  1.3749 -0.7497
 1422TIP3   OH225756   6.069   5.341  12.946 -0.3253  0.6358 -0.3239
 1422TIP3    H125757   6.027   5.257  12.965 -1.8412  1.7925  1.7782
 1422TIP3    H225758   6.006   5.389  12.894  0.4027  0.6334 -1.2385
 1423TIP3   OH225759   3.418   5.944  13.349 -0.1802 -0.1322 -0.1252
 1423TIP3    H125760   3.495   5.919  13.400  0.1284  1.1196  0.0462
 1423TIP3    H225761   3.344   5.921  13.406  0.1239  0.2524  0.4317
 1424TIP3   OH225762   0.716   0.658   5.760  0.0749 -0.0558  0.4525
 1424TIP3    H125763   0.698   0.668   5.853 -0.5577  0.2698  0.3040
 1424TIP3    H225764   0.810   0.674   5.751  0.2607 -0.7336  1.1152
 1425TIP3   OH225765   4.299   1.971  14.485  0.0651  0.4172  0.1023
 1425TIP3    H125766   4.247   1.974  14.405 -0.0520 -0.8077  0.1068
 1425TIP3    H225767   4.342   1.885  14.482 -0.1818  0.2262  1.4979
 1426TIP3   OH225768   5.209   6.482   3.101 -0.3281  0.2931 -0.4588
 1426TIP3    H125769   5.152   6.422   3.149 -0.2003  0.6147  0.1004
 1426TIP3    H225770   5.153   6.516   3.031 -1.1350  1.3015  0.6215
 1427TIP3   OH225771   1.257   2.541  14.426 -0.3957  0.0739 -0.0569
 1427TIP3    H125772   1.274   2.469  14.487  1.1609 -1.5531 -2.2602
 1427TIP3    H225773   1.343   2.572  14.401 -1.0310  1.5862 -0.4734
 1428TIP3   OH225774   0.341   2.599  16.137 -0.0005  0.1829  0.1851
 1428TIP3    H125775   0.272   2.585  16.203 -1.3777 -0.2973 -1.2840
 1428TIP3    H225776   0.362   2.692  16.145  1.0749 -0.1737  2.3841
 1429TIP3   OH225777   6.599   4.699   3.030 -0.0769  0.2386  0.1551
 1429TIP3    H125778   6.557   4.614   3.014  0.4139  0.0480 -0.1446
 1429TIP3    H225779   6.580   4.718   3.122 -0.5245 -0.0059  0.1162
 1430TIP3   OH225780   2.545   1.641  13.306  0.8398 -0.1253  0.2297
 1430TIP3    H125781   2.587   1.599  13.380  0.5015 -0.5275  0.1957
 1430TIP3    H225782   2.598   1.615  13.230  0.3223 -0.9475  0.1356
 1431TIP3   OH225783   0.671   6.260  16.645 -0.2921 -0.1691  0.2815
 1431TIP3    H125784   0.662   6.340  16.593 -0.9300 -0.6794 -0.4098
 1431TIP3    H225785   0.591   6.256  16.697 -1.6298 -1.7917 -1.7507
 1432TIP3   OH225786   4.467   0.129  11.004  0.0689  0.2261 -0.6288
 1432TIP3    H125787   4.393   0.176  11.042 -0.3115 -0.9605  0.1820
 1432TIP3    H225788   4.464   0.043  11.046 -0.8437 -1.5106 -3.9410
 1433TIP3   OH225789   6.010   2.227   2.062 -0.0278  0.4146  0.1058
 1433TIP3    H125790   6.021   2.316   2.094  0.6502 -0.1504  1.5246
 1433TIP3    H225791   5.999   2.236   1.967 -0.0832  1.9970  0.2490
 1434TIP3   OH225792   1.419   4.158  12.036 -0.0634 -0.0495 -0.1742
 1434TIP3    H125793   1.441   4.077  12.082  1.5014  0.7007  0.5098
 1434TIP3    H225794   1.433   4.138  11.943  1.2634 -0.3325  0.0609
 1435TIP3   OH225795   1.627   3.720   2.117  0.1731 -0.2424 -0.5592
 1435TIP3    H125796   1.569   3.646   2.099 -1.1642  0.5521  0.3601
 1435TIP3    H225797   1.569   3.793   2.136  1.4737  0.6126  0.3342
 1436TIP3   OH225798   0.760   2.241   5.060 -0.5385  0.1047 -0.0851
 1436TIP3    H125799   0.776   2.147   5.067 -2.8412 -0.3636 -0.4446
 1436TIP3    H225800   0.745   2.269   5.150 -2.0175 -0.3394 -0.1673
 1437TIP3   OH225801   5.459   2.708  14.719 -0.5156  0.0413 -0.0611
 1437TIP3    H125802   5.388   2.672  14.666  0.1029  1.5939 -2.0657
 1437TIP3    H225803   5.534   2.651  14.700 -0.3485  0.4733 -0.7365
 1438TIP3   OH225804   3.622   3.693  15.605  0.1969  0.3284 -0.0936
 1438TIP3    H125805   3.668   3.628  15.552 -0.2728  0.3705 -0.5540
 1438TIP3    H225806   3.671   3.695  15.687  1.6173  1.0635 -0.9124
 1439TIP3   OH225807   2.315   3.800   2.458  0.5290  0.3643 -0.0865
 1439TIP3    H125808   2.387   3.819   2.518  1.3917  0.1480 -1.0315
 1439TIP3    H225809   2.335   3.713   2.423 -2.1107 -1.4315  2.3766
 1440TIP3   OH225810   1.778   5.261  12.783  0.1684 -0.0168 -0.3124
 1440TIP3    H125811   1.862   5.233  12.820  0.6345 -0.7898 -1.8636
 1440TIP3    H225812   1.713   5.205  12.825  0.5160 -0.0160  0.2454
 1441TIP3   OH225813   0.456   6.376  12.740  0.0907 -0.5847  0.2688
 1441TIP3    H125814   0.541   6.333  12.748  1.2542  1.3755 -0.5971
 1441TIP3    H225815   0.407   6.321  12.678  1.4376 -0.7952 -0.6695
 1442TIP3   OH225816   1.741   2.026   1.936  0.3236  0.6705  0.2648
 1442TIP3    H125817   1.830   2.024   1.971 -0.0017  0.6275  1.1050
 1442TIP3    H225818   1.688   1.985   2.004 -0.2918  0.3630 -0.3866
 1443TIP3   OH225819   3.851   3.597  14.595  0.2894 -0.0380 -0.3270
 1443TIP3    H125820   3.942   3.626  14.601  0.5424 -0.9956  0.9220
 1443TIP3    H225821   3.806   3.668  14.549  0.9472  2.1738  2.1869
 1444TIP3   OH225822   6.343   2.744   1.309 -0.1808  0.7010 -0.0474
 1444TIP3    H125823   6.418   2.719   1.256  0.8679 -0.4634  1.8965
 1444TIP3    H225824   6.267   2.727   1.252  0.8729 -0.5082 -1.1547
 1445TIP3   OH225825   5.739   0.203  14.731 -0.5282 -0.1692  0.0014
 1445TIP3    H125826   5.648   0.176  14.742 -0.8492  0.5129 -0.8710
 1445TIP3    H225827   5.745   0.228  14.639  0.9924 -1.8559 -0.4164
 1446TIP3   OH225828   1.012   2.458   2.492  0.7616 -0.3657  0.1037
 1446TIP3    H125829   0.974   2.534   2.536  2.8503  1.2348 -0.7341
 1446TIP3    H225830   1.023   2.393   2.562  1.8337  1.2674  1.5236
 1447TIP3   OH225831   3.512   2.090   5.313  0.0155 -0.3812  0.1547
 1447TIP3    H125832   3.599   2.070   5.348 -0.2554  1.0314  1.7688
 1447TIP3    H225833   3.455   2.021   5.348 -0.2360  0.9552  2.6056
 1448TIP3   OH225834   0.711   4.670  12.457  0.2312  0.4665  0.5820
 1448TIP3    H125835   0.631   4.620  12.471  1.1902 -1.0208  1.0121
 1448TIP3    H225836   0.714   4.732  12.530  0.8250 -1.3607  2.2011
 1449TIP3   OH225837   5.320   2.675  10.583  0.1047 -0.3194 -0.7357
 1449TIP3    H125838   5.400   2.705  10.540  1.3470 -1.0642  0.9319
 1449TIP3    H225839   5.299   2.745  10.646  0.4922 -0.9290  0.0879
 1450TIP3   OH225840   4.498   3.425  14.003 -0.3931 -0.2433 -0.1063
 1450TIP3    H125841   4.483   3.503  13.950  0.3940  0.3022  0.4568
 1450TIP3    H225842   4.429   3.364  13.976 -2.1947  1.3085  0.7685
 1451TIP3   OH225843   5.529   5.844   3.845  0.4422  0.0591 -0.2824
 1451TIP3    H125844   5.478   5.915   3.805  0.4753 -0.0543 -0.5281
 1451TIP3    H225845   5.614   5.884   3.866  1.0092 -0.2900 -1.8155
 1452TIP3   OH225846   0.293   0.846   1.534  0.4087 -0.1605  0.0128
 1452TIP3    H125847   0.372   0.848   1.480 -0.1168 -4.5069 -1.2983
 1452TIP3    H225848   0.325   0.830   1.623  1.0932  0.0893 -0.1871
 1453TIP3   OH225849   5.585   2.670  13.387 -0.2526 -0.4440 -0.3364
 1453TIP3    H125850   5.642   2.666  13.311 -0.5100  3.1114 -0.9079
 1453TIP3    H225851   5.503   2.708  13.353 -0.8756 -0.1073  1.4304
 1454TIP3   OH225852   2.139   1.751  16.877 -0.8112 -0.2503 -0.1147
 1454TIP3    H125853   2.071   1.686  16.863 -1.9136  1.0481 -1.0303
 1454TIP3    H225854   2.192   1.748  16.797 -0.1041 -0.8441  0.3515
 1455TIP3   OH225855   0.132   3.486   5.050 -0.0851  0.2228 -0.3200
 1455TIP3    H125856   0.185   3.533   5.114 -0.7839 -0.4451  0.7857
 1455TIP3    H225857   0.050   3.535   5.046 -0.1823  0.0534 -0.4391
 1456TIP3   OH225858   5.077   3.446   1.274 -0.0387  0.2167  0.5808
 1456TIP3    H125859   5.091   3.459   1.368  0.6020  3.0073  0.1912
 1456TIP3    H225860   5.134   3.372   1.252  0.1046 -0.2435  2.2925
 1457TIP3   OH225861   1.692   3.990   3.285 -0.1042 -0.0609 -0.5158
 1457TIP3    H125862   1.655   3.994   3.373  2.0156 -1.8030  0.5510
 1457TIP3    H225863   1.722   4.079   3.267 -1.4441  0.5329  0.0787
 1458TIP3   OH225864   0.929   4.012  16.040 -0.6691 -0.1783  0.3010
 1458TIP3    H125865   0.944   3.991  16.132 -1.6469  0.0773  0.5398
 1458TIP3    H225866   0.868   3.945  16.010 -2.4444  1.1900  0.6013
 1459TIP3   OH225867   2.136   1.207   0.313  0.2869 -0.1060  0.3655
 1459TIP3    H125868   2.211   1.267   0.310 -0.3569  0.6788 -1.2127
 1459TIP3    H225869   2.097   1.213   0.226 -1.5015 -0.6298  1.0786
 1460TIP3   OH225870   2.064   1.793   1.997  0.4691  0.2778  0.1363
 1460TIP3    H125871   2.029   1.707   1.976  0.3447  0.8438 -2.3640
 1460TIP3    H225872   2.141   1.802   1.941  0.9960  1.4392  1.0049
 1461TIP3   OH225873   0.830   0.777  11.791  0.0272 -0.2016 -0.4607
 1461TIP3    H125874   0.834   0.872  11.787  0.5769 -0.2618 -2.1526
 1461TIP3    H225875   0.864   0.755  11.878 -0.2515  1.1361  0.0057
 1462TIP3   OH225876   6.034   2.867   5.233 -0.1384 -0.1491 -0.1631
 1462TIP3    H125877   5.965   2.862   5.299  0.8352  0.6297  0.9543
 1462TIP3    H225878   6.044   2.778   5.201  0.3493 -0.8409  1.7937
 1463TIP3   OH225879   3.887   4.126  14.080  0.4179  0.4194  0.1475
 1463TIP3    H125880   3.912   4.042  14.043 -0.2587  0.6291 -0.8287
 1463TIP3    H225881   3.792   4.130  14.069  0.3747  1.0585  0.7099
 1464TIP3   OH225882   0.921   5.820   4.092  0.1921  0.4078  0.3432
 1464TIP3    H125883   0.889   5.900   4.135  0.3229  0.7548 -0.1882
 1464TIP3    H225884   0.872   5.749   4.132 -2.5294  1.0436 -1.5989
 1465TIP3   OH225885   2.289   1.422   4.184  0.1468  0.3884  0.1024
 1465TIP3    H125886   2.264   1.354   4.247 -3.3238  1.0717 -0.3790
 1465TIP3    H225887   2.324   1.493   4.239 -0.9822  0.1977  1.1064
 1466TIP3   OH225888   0.273   0.253  10.961 -0.3136  0.4359  0.1140
 1466TIP3    H125889   0.345   0.210  11.006  0.9281  0.5369 -1.6545
 1466TIP3    H225890   0.278   0.345  10.988  0.6359  0.5640 -0.4365
 1467TIP3   OH225891   1.561   0.713   1.171  0.7552  0.7324 -0.6435
 1467TIP3    H125892   1.522   0.676   1.092  2.5164 -1.2928 -0.6709
 1467TIP3    H225893   1.651   0.680   1.170  0.5412 -0.3058  2.7501
 1468TIP3   OH225894   1.709   6.017  15.632 -0.2768  0.6191  0.4984
 1468TIP3    H125895   1.672   5.981  15.551  1.7208  0.7761 -0.5657
 1468TIP3    H225896   1.661   5.974  15.702 -0.9269 -0.8197 -0.7715
 1469TIP3   OH225897   6.039   3.753  14.123 -0.6680 -0.4066 -0.7786
 1469TIP3    H125898   6.007   3.843  14.117  2.4727  0.9203  0.3995
 1469TIP3    H225899   6.102   3.745  14.051  1.1855 -0.6546  0.8084
 1470TIP3   OH225900   4.814   4.895  15.012 -0.1784 -0.0741  0.6336
 1470TIP3    H125901   4.785   4.984  15.030  1.6927  0.6492  0.2878
 1470TIP3    H225902   4.812   4.887  14.917  3.3922  1.0599  0.3123
 1471TIP3   OH225903   3.825   3.802  14.923  0.3988 -0.3366 -0.3326
 1471TIP3    H125904   3.880   3.828  14.849  0.7999 -0.8327 -0.2222
 1471TIP3    H225905   3.739   3.841  14.905  0.6732  0.0928 -0.7245
 1472TIP3   OH225906   6.052   2.770   3.789 -0.0127  0.3285 -0.2617
 1472TIP3    H125907   6.129   2.806   3.745 -1.5992  1.2834 -2.4656
 1472TIP3    H225908   6.011   2.714   3.723 -1.4806  0.2686  0.6662
 1473TIP3   OH225909   1.097   3.551   2.029 -0.1810  0.2829  0.4526
 1473TIP3    H125910   1.120   3.506   2.110 -1.7402 -0.0287  0.7609
 1473TIP3    H225911   1.154   3.627   2.027  1.0476 -0.5890  0.9865
 1474TIP3   OH225912   4.323   0.231   0.682 -0.0325 -0.1511 -0.1883
 1474TIP3    H125913   4.384   0.206   0.751 -3.0532 -1.3400  2.3283
 1474TIP3    H225914   4.295   0.320   0.707  1.3282  0.8283 -1.9255
 1475TIP3   OH225915   2.478   1.432   2.566  0.1365 -0.1863  0.3597
 1475TIP3    H125916   2.554   1.465   2.615  0.4338  0.8926 -0.7770
 1475TIP3    H225917   2.512   1.412   2.479 -1.2975  2.9633 -1.1211
 1476TIP3   OH225918   3.255   6.562   1.607  0.2521 -0.2495  0.0130
 1476TIP3    H125919   3.276   6.533   1.696  0.8311 -0.1458 -0.0845
 1476TIP3    H225920   3.216   6.485   1.566  3.0163 -1.4306 -0.6787
 1477TIP3   OH225921   4.162   0.578  15.098  0.2024 -0.3362 -0.1049
 1477TIP3    H125922   4.211   0.498  15.116  0.4236 -0.0557  0.5340
 1477TIP3    H225923   4.173   0.632  15.176  0.9681  0.7929 -0.9674
 1478TIP3   OH225924   5.644   0.446  10.983 -0.0336  0.6868  0.7001
 1478TIP3    H125925   5.643   0.413  11.073  1.9320 -0.0505  0.4995
 1478TIP3    H225926   5.609   0.535  10.990 -0.0545  0.5832  2.1717
 1479TIP3   OH225927   4.638   5.603   1.541  0.2419 -0.2497 -0.1992
 1479TIP3    H125928   4.647   5.673   1.476 -0.9951  0.8781  0.7847
 1479TIP3    H225929   4.614   5.525   1.490 -1.8042  0.8485 -1.0384
 1480TIP3   OH225930   0.980   1.156   3.083 -0.6252  0.4327  0.2190
 1480TIP3    H125931   1.009   1.182   2.995  0.5766 -3.2694 -0.6622
 1480TIP3    H225932   0.915   1.222   3.107 -1.7683  1.1172 -3.8987
 1481TIP3   OH225933   2.280   3.000   0.075  1.0423  0.2942  0.1043
 1481TIP3    H125934   2.290   3.057  -0.002  0.6951 -0.2924 -0.3856
 1481TIP3    H225935   2.200   2.950   0.058  1.0595  0.0275  0.7687
 1482TIP3   OH225936   5.894   6.011   2.651 -0.3098 -0.8825 -0.3883
 1482TIP3    H125937   5.910   5.918   2.661  2.4084 -0.5336 -0.6838
 1482TIP3    H225938   5.951   6.053   2.716  0.0168  0.6084 -1.5732
 1483TIP3   OH225939   6.486   1.727   5.537 -0.5926 -0.2242  0.7100
 1483TIP3    H125940   6.524   1.709   5.451 -1.7803 -1.0917  0.3306
 1483TIP3    H225941   6.559   1.717   5.598  0.1553 -0.1300 -0.1444
 1484TIP3   OH225942   5.039   6.523  11.765  0.1640 -0.3902  0.2744
 1484TIP3    H125943   5.133   6.540  11.769  0.0014  0.7260 -0.0248
 1484TIP3    H225944   5.009   6.577  11.691 -0.6054 -1.2674 -0.0746
 1485TIP3   OH225945   3.891   6.582   3.011  0.1286  0.2042  0.0004
 1485TIP3    H125946   3.876   6.617   3.099 -1.2916  2.3188 -1.0031
 1485TIP3    H225947   3.809   6.597   2.964  0.3671 -2.1342 -1.3510
 1486TIP3   OH225948   0.487   1.855  15.476  0.3619  0.0632  0.0098
 1486TIP3    H125949   0.523   1.877  15.561  1.5384  2.6593 -1.0591
 1486TIP3    H225950   0.548   1.893  15.413  0.0489 -2.5900 -2.0664
 1487TIP3   OH225951   6.092   5.084  13.621  0.0442 -0.5896  0.1550
 1487TIP3    H125952   6.111   5.095  13.714 -1.1429 -1.8728  0.5690
 1487TIP3    H225953   6.056   5.169  13.594 -1.6782 -0.8773  1.4063
 1488TIP3   OH225954   2.622   6.379  14.692  0.2521 -0.2039  0.3647
 1488TIP3    H125955   2.660   6.367  14.779 -0.0842 -0.2833  0.5041
 1488TIP3    H225956   2.632   6.293  14.650 -1.5274 -0.8477  1.1120
 1489TIP3   OH225957   3.435   1.758   3.304  0.2111  0.0416  0.0952
 1489TIP3    H125958   3.422   1.853   3.302  1.5328  0.2564  0.6872
 1489TIP3    H225959   3.465   1.740   3.393 -0.8711 -1.0682  0.2568
 1490TIP3   OH225960   0.736   1.250   2.710 -0.4210 -0.4446  0.2630
 1490TIP3    H125961   0.691   1.214   2.633  2.1046 -2.8281 -0.2404
 1490TIP3    H225962   0.732   1.181   2.775  0.4724  0.2141  1.0418
 1491TIP3   OH225963   0.106   4.306   1.971  0.1849  0.0766  0.1144
 1491TIP3    H125964   0.180   4.308   1.910  1.3362 -0.0433  1.4538
 1491TIP3    H225965   0.076   4.397   1.976  1.3272  0.4383  0.8026
 1492TIP3   OH225966   2.191   0.193  16.742 -0.7987 -0.0383  0.0333
 1492TIP3    H125967   2.178   0.115  16.797  1.7333  0.4555  1.5057
 1492TIP3    H225968   2.151   0.264  16.792  0.3793  0.2036  0.6653
 1493TIP3   OH225969   5.042   0.534   2.507 -0.0377 -0.1764 -0.4695
 1493TIP3    H125970   4.959   0.509   2.468  0.1367 -0.7631 -0.4673
 1493TIP3    H225971   5.056   0.472   2.578  0.8275 -0.6528 -1.0292
 1494TIP3   OH225972   3.148   2.615   4.248 -0.5383  0.4295  0.5571
 1494TIP3    H125973   3.210   2.679   4.284 -0.9861  2.2162 -1.6525
 1494TIP3    H225974   3.064   2.638   4.288 -0.2944 -0.3600  1.5806
 1495TIP3   OH225975   5.570   5.163  12.769 -0.1518 -0.2590  0.2044
 1495TIP3    H125976   5.607   5.113  12.842  1.0026  1.2479  0.6936
 1495TIP3    H225977   5.476   5.161  12.785 -0.0098 -0.9433  1.0745
 1496TIP3   OH225978   2.829   1.930   0.689 -0.0049 -0.1587  0.0197
 1496TIP3    H125979   2.782   1.981   0.623 -0.9095  2.1183  2.2568
 1496TIP3    H225980   2.909   1.980   0.705  0.1962 -0.6727  0.6417
 1497TIP3   OH225981   5.120   4.355   5.198  0.4146  0.2552 -0.4588
 1497TIP3    H125982   5.166   4.380   5.278 -0.3156 -2.4992  0.9842
 1497TIP3    H225983   5.030   4.384   5.213 -0.5267 -3.0616  1.3907
 1498TIP3   OH225984   5.032   1.224  11.714 -0.7068 -0.0196 -0.4293
 1498TIP3    H125985   5.018   1.315  11.688  0.2098  0.5322  0.8880
 1498TIP3    H225986   5.122   1.222  11.746 -1.3129 -0.9236  1.3915
 1499TIP3   OH225987   3.605   6.793   0.248  0.0204 -0.1743 -0.0130
 1499TIP3    H125988   3.530   6.832   0.204 -1.5668 -1.5341  1.3419
 1499TIP3    H225989   3.618   6.846   0.326 -0.0518 -0.3894  0.1483
 1500TIP3   OH225990   1.262   2.527  12.484 -0.0231  0.2369 -0.3763
 1500TIP3    H125991   1.266   2.445  12.533 -0.1170  0.5890  0.2330
 1500TIP3    H225992   1.267   2.501  12.392 -0.0357 -0.4475 -0.1852
 1501TIP3   OH225993   0.245   5.858  16.782  0.7446 -0.4702 -0.3038
 1501TIP3    H125994   0.301   5.783  16.802  1.4092 -0.0235 -0.4489
 1501TIP3    H225995   0.214   5.888  16.868 -1.1297 -2.0874 -0.3560
 1502TIP3   OH225996   0.459   1.460   4.097 -0.3574  0.0339 -0.2477
 1502TIP3    H125997   0.513   1.459   4.176  0.2777  2.9850 -0.5371
 1502TIP3    H225998   0.475   1.546   4.058 -3.3686  0.0740 -1.6992
 1503TIP3   OH225999   5.522   2.862  16.392  0.1700  0.3389 -0.4681
 1503TIP3    H126000   5.597   2.812  16.359 -0.3800 -1.2073  0.5117
 1503TIP3    H226001   5.561   2.924  16.454  0.6498 -0.6473  0.2538
 1504TIP3   OH226002   5.536   1.154   5.166  0.1396  0.3266  0.4910
 1504TIP3    H126003   5.449   1.177   5.199  0.9147  0.1736  2.7699
 1504TIP3    H226004   5.536   1.184   5.075 -2.0879  0.8264  0.6135
 1505TIP3   OH226005   2.732   1.524   1.176  0.3529 -0.2311 -0.1157
 1505TIP3    H126006   2.663   1.496   1.116 -0.4895  1.3735  0.0610
 1505TIP3    H226007   2.709   1.485   1.260 -0.2456  0.1217 -0.1076
 1506TIP3   OH226008   5.648   5.572   1.575  0.1907 -0.1721 -0.2090
 1506TIP3    H126009   5.737   5.563   1.609  0.2620 -2.0320 -0.7759
 1506TIP3    H226010   5.599   5.504   1.619 -1.0349  0.9637  0.2404
 1507TIP3   OH226011   0.416   2.848   4.159  0.8727 -0.0808 -0.3145
 1507TIP3    H126012   0.434   2.755   4.161  0.7089 -0.2644 -3.0600
 1507TIP3    H226013   0.472   2.882   4.089 -0.6385  1.4644 -0.8527
 1508TIP3   OH226014   3.220   0.954   3.067  0.2074 -0.2098 -0.3553
 1508TIP3    H126015   3.195   0.865   3.040 -2.1559  0.7660 -1.6922
 1508TIP3    H226016   3.137   0.997   3.088  1.3697  1.4501  1.1043
 1509TIP3   OH226017   4.350   5.349   2.218  0.3532  0.0542  0.0622
 1509TIP3    H126018   4.375   5.302   2.298  0.6365  0.1905  0.0561
 1509TIP3    H226019   4.345   5.281   2.151 -1.5242 -0.3265  0.5319
 1510TIP3   OH226020   1.292   3.898  14.992  0.2637 -0.2950  0.0744
 1510TIP3    H126021   1.349   3.873  14.919  0.5440 -0.0156  0.1975
 1510TIP3    H226022   1.287   3.819  15.046  1.0393 -0.1391  0.3894
 1511TIP3   OH226023   4.343   1.855  11.248 -0.0461  0.0962  0.2380
 1511TIP3    H126024   4.379   1.768  11.266  0.2852  0.3508  0.8048
 1511TIP3    H226025   4.255   1.838  11.213  0.5281 -0.5229 -0.9772
 1512TIP3   OH226026   5.652   1.424  14.061 -0.1622 -0.2870 -0.4429
 1512TIP3    H126027   5.742   1.437  14.089 -0.0929 -0.9871 -0.3197
 1512TIP3    H226028   5.599   1.435  14.140 -0.1044 -0.7340 -0.3401
 1513TIP3   OH226029   6.616   6.751   1.807  0.1784  0.0048  0.5494
 1513TIP3    H126030   6.628   6.828   1.752 -1.9093  0.1532  0.2184
 1513TIP3    H226031   6.690   6.753   1.868  0.4694  1.9450  0.1923
 1514TIP3   OH226032   3.539   0.280   3.376 -0.5143  0.2848 -0.2961
 1514TIP3    H126033   3.610   0.327   3.332 -0.1558  0.6320  0.6437
 1514TIP3    H226034   3.565   0.188   3.370 -0.6885  0.2790 -1.1836
 1515TIP3   OH226035   3.865   1.456   1.967  0.0933 -0.4967 -0.3221
 1515TIP3    H126036   3.949   1.421   1.995  0.5923  0.2813 -0.8058
 1515TIP3    H226037   3.803   1.385   1.982  0.9202 -1.2554 -0.4398
 1516TIP3   OH226038   0.073   2.739   3.290 -0.3335  0.1129  0.2600
 1516TIP3    H126039   0.105   2.650   3.276  0.5997  0.2637  1.3404
 1516TIP3    H226040  -0.004   2.728   3.346 -0.1256  0.0003  0.5237
 1517TIP3   OH226041   1.647   4.779   2.725 -0.1782 -0.2126 -0.6894
 1517TIP3    H126042   1.672   4.794   2.816 -1.1318 -0.4730 -0.3640
 1517TIP3    H226043   1.590   4.702   2.729 -0.3005 -0.1707 -1.4937
 1518TIP3   OH226044   1.549   6.514   2.050 -0.0579 -0.5155  0.1262
 1518TIP3    H126045   1.590   6.427   2.049 -0.0914 -0.5726  1.5328
 1518TIP3    H226046   1.607   6.567   2.105 -0.0851  0.3483 -0.6455
 1519TIP3   OH226047   0.387   3.440   5.730  0.1764 -0.0957 -0.0067
 1519TIP3    H126048   0.459   3.486   5.688 -0.4609  1.2287  0.2644
 1519TIP3    H226049   0.325   3.510   5.753 -0.7074 -1.0767  0.6963
 1520TIP3   OH226050   1.132   2.519  14.175 -0.0719  0.3497  0.2255
 1520TIP3    H126051   1.158   2.501  14.265  1.3673  0.2804 -0.1841
 1520TIP3    H226052   1.208   2.494  14.122 -1.2239 -0.4801 -1.1020
 1521TIP3   OH226053   2.344   3.645   0.300 -1.0808  0.1689 -0.3186
 1521TIP3    H126054   2.389   3.721   0.337  0.6274 -1.6552  1.6432
 1521TIP3    H226055   2.386   3.631   0.215 -0.1467  0.4031  0.0900
 1522TIP3   OH226056   6.007   4.353  12.317  0.0476 -0.0537 -0.0924
 1522TIP3    H126057   5.939   4.393  12.263  0.2905  1.6550  0.7845
 1522TIP3    H226058   6.002   4.260  12.297 -2.3420  0.0448 -0.2693
 1523TIP3   OH226059   6.056   0.808   0.206  0.0405  0.0211 -0.2899
 1523TIP3    H126060   5.974   0.843   0.241 -0.6441 -1.1637 -0.6638
 1523TIP3    H226061   6.031   0.729   0.159  1.3123  0.0216 -1.0366
 1524TIP3   OH226062   4.040   3.507   3.974  0.1025 -0.1577 -0.2469
 1524TIP3    H126063   3.945   3.496   3.967  0.0630 -0.2893  0.4150
 1524TIP3    H226064   4.053   3.602   3.977 -0.0981 -0.1461  0.6345
 1525TIP3   OH226065   1.461   1.407  17.057  0.1535  0.2031  0.3528
 1525TIP3    H126066   1.468   1.492  17.100  0.9152  0.4252 -0.1859
 1525TIP3    H226067   1.450   1.344  17.128 -1.0945  0.8117  0.7224
 1526TIP3   OH226068   4.803   5.160  16.028 -0.3294 -0.3709 -0.5096
 1526TIP3    H126069   4.749   5.099  15.977 -0.0140  0.3653 -1.7618
 1526TIP3    H226070   4.844   5.216  15.962  0.3368  0.4134  0.5516
 1527TIP3   OH226071   5.737   3.116   4.126  0.3614 -0.0169 -0.2180
 1527TIP3    H126072   5.816   3.063   4.119 -0.8082 -1.7014 -1.8553
 1527TIP3    H226073   5.709   3.106   4.217  1.8352  0.3637  0.2986
 1528TIP3   OH226074   3.973   1.901  15.480 -0.2312  0.4047  0.4181
 1528TIP3    H126075   3.883   1.907  15.512 -0.2556 -1.0096  0.6672
 1528TIP3    H226076   4.017   1.843  15.542  0.0576 -1.3470 -1.3357
 1529TIP3   OH226077   4.140   4.255   5.929 -0.6321 -0.2575 -0.4507
 1529TIP3    H126078   4.142   4.219   6.018  0.9560  0.7442 -0.0349
 1529TIP3    H226079   4.216   4.216   5.886 -0.7710  0.1016 -1.0212
 1530TIP3   OH226080   1.588   0.545   5.774 -0.5115  0.4777 -0.4428
 1530TIP3    H126081   1.637   0.566   5.695  1.4755 -1.6320  0.1144
 1530TIP3    H226082   1.603   0.620   5.833  2.0524 -0.0196 -0.3412
 1531TIP3   OH226083   3.092   2.153   2.114  0.2757 -0.2738  0.5123
 1531TIP3    H126084   3.028   2.088   2.143  1.0430 -0.1266  2.7516
 1531TIP3    H226085   3.098   2.215   2.187 -0.9049  2.7592 -1.7629
 1532TIP3   OH226086   1.391   5.565   4.477 -0.0559 -0.2813  0.5576
 1532TIP3    H126087   1.442   5.611   4.411  2.2335 -2.9433  0.2821
 1532TIP3    H226088   1.449   5.559   4.553 -0.7443 -1.5177  1.0200
 1533TIP3   OH226089   0.228   5.517  17.256 -0.5536  0.7391 -0.0463
 1533TIP3    H126090   0.184   5.572  17.322 -0.2297  1.6136 -0.5405
 1533TIP3    H226091   0.159   5.495  17.194 -1.1051 -0.9728  1.1148
 1534TIP3   OH226092   4.859   6.599   5.702  0.9024  0.4465  0.6151
 1534TIP3    H126093   4.841   6.693   5.700  2.0453  0.6850  0.9210
 1534TIP3    H226094   4.868   6.574   5.610 -1.4563  0.1858  0.3866
 1535TIP3   OH226095   6.598   2.925  14.372  0.4496 -0.0799  0.0588
 1535TIP3    H126096   6.547   2.979  14.433  0.8771 -0.2847  0.6065
 1535TIP3    H226097   6.657   2.987  14.330  1.0990 -0.1402  0.8550
 1536TIP3   OH226098   1.772   3.253   3.446 -0.3212 -0.0086  0.2552
 1536TIP3    H126099   1.851   3.304   3.428 -0.5668  0.2388 -0.1292
 1536TIP3    H226100   1.775   3.181   3.383  1.5893 -2.2804  2.7054
 1537TIP3   OH226101   0.968   6.618   0.093  0.3320  0.2105  0.0683
 1537TIP3    H126102   1.027   6.644   0.164 -0.8457 -0.8715  1.5093
 1537TIP3    H226103   0.880   6.640   0.124 -0.6655 -4.0792  0.9236
 1538TIP3   OH226104   3.209   1.562   0.384 -0.6123  0.1398 -0.1235
 1538TIP3    H126105   3.144   1.613   0.432  0.4886 -0.1266  1.7557
 1538TIP3    H226106   3.286   1.618   0.381  0.1882 -0.8601  0.8182
 1539TIP3   OH226107   2.486   2.501  13.871  0.0819  0.2891  0.4681
 1539TIP3    H126108   2.391   2.496  13.870  0.1291 -1.3337  0.6484
 1539TIP3    H226109   2.513   2.435  13.935  1.3144  1.1935  0.9307
 1540TIP3   OH226110   0.617   6.262  14.467 -0.3656  0.1820 -0.0032
 1540TIP3    H126111   0.562   6.185  14.449  0.5907 -0.7507  0.8790
 1540TIP3    H226112   0.609   6.275  14.561  0.6831  0.1958  0.0977
 1541TIP3   OH226113   0.079   1.735  12.501  0.2717  0.0879  0.1440
 1541TIP3    H126114   0.077   1.661  12.561  1.6017 -1.0644 -1.1539
 1541TIP3    H226115   0.007   1.720  12.440  0.9140 -0.4863 -0.4867
 1542TIP3   OH226116   3.200   3.302   0.490  0.3154 -0.1006  0.3226
 1542TIP3    H126117   3.257   3.239   0.447  1.0303  0.3902  0.5228
 1542TIP3    H226118   3.243   3.320   0.574 -0.4661 -0.1938  0.7477
 1543TIP3   OH226119   5.415   3.636  13.462 -0.1393  0.5245 -0.4075
 1543TIP3    H126120   5.367   3.562  13.499 -0.2458  0.3022 -0.9746
 1543TIP3    H226121   5.464   3.672  13.536 -0.4846  0.2045 -0.0144
 1544TIP3   OH226122   0.988   4.783  16.272 -1.0648 -0.5275  0.2116
 1544TIP3    H126123   0.983   4.695  16.235  0.9774 -1.0862  1.1431
 1544TIP3    H226124   0.899   4.801  16.304 -1.0388 -3.1842  2.0325
 1545TIP3   OH226125   0.389   4.235  13.308 -0.2455  0.6852  0.3413
 1545TIP3    H126126   0.393   4.208  13.216  0.2277  0.7678  0.3323
 1545TIP3    H226127   0.406   4.154  13.357 -1.6899  0.3911  0.3994
 1546TIP3   OH226128   4.695   6.018  17.016 -0.7285 -0.1401 -0.5712
 1546TIP3    H126129   4.643   6.014  17.096  2.5028 -0.1925  1.7286
 1546TIP3    H226130   4.719   5.927  16.999 -0.5540 -0.0203 -0.9653
 1547TIP3   OH226131   0.606   3.011   3.983  0.4729 -0.0749  0.0109
 1547TIP3    H126132   0.517   3.042   3.969  0.8443  0.5288 -1.1676
 1547TIP3    H226133   0.653   3.038   3.905  1.7550 -0.1712  0.7231
 1548TIP3   OH226134   4.392   4.901   5.299  0.3350  0.3460  0.5916
 1548TIP3    H126135   4.369   4.977   5.353 -0.7254  0.2250  0.3115
 1548TIP3    H226136   4.421   4.836   5.363  1.4786  1.0430  0.8209
 1549TIP3   OH226137   6.116   4.607  15.163 -0.6112  0.1576  0.0123
 1549TIP3    H126138   6.035   4.648  15.193  0.3964  1.4621  1.1312
 1549TIP3    H226139   6.126   4.529  15.218 -0.1483  1.0693  1.2759
 1550TIP3   OH226140   3.960   3.047  11.127  0.3742  0.2301  0.2795
 1550TIP3    H126141   3.904   3.083  11.196  1.3252  1.4554  0.4492
 1550TIP3    H226142   3.940   3.100  11.050  2.2238  1.6416  0.6865
 1551TIP3   OH226143   3.460   5.828   5.893 -0.2008  0.4316 -0.0217
 1551TIP3    H126144   3.441   5.838   5.986 -3.4423  0.5568 -0.5813
 1551TIP3    H226145   3.408   5.752   5.866  2.6589 -1.2692 -1.3129
 1552TIP3   OH226146   1.597   6.472  12.454 -0.4351 -0.1795 -0.7258
 1552TIP3    H126147   1.554   6.435  12.530  0.1601 -3.1220 -1.6885
 1552TIP3    H226148   1.680   6.425  12.448  1.0689  2.3761 -1.3076
 1553TIP3   OH226149   4.246   4.391  13.490 -0.3725 -0.3253 -0.0499
 1553TIP3    H126150   4.243   4.299  13.463 -2.1220 -0.1882 -0.4189
 1553TIP3    H226151   4.295   4.390  13.572 -0.6020 -1.6203  0.0885
 1554TIP3   OH226152   2.704   4.180   4.213 -0.6817  0.4240  0.1877
 1554TIP3    H126153   2.783   4.129   4.233 -0.0671  1.6157  0.9277
 1554TIP3    H226154   2.705   4.189   4.118 -0.7291 -0.7947  0.0522
 1555TIP3   OH226155   5.092   6.418   1.643 -0.3531 -0.1710  0.1738
 1555TIP3    H126156   5.097   6.327   1.613 -0.6813  0.0257 -0.4975
 1555TIP3    H226157   5.023   6.418   1.709 -1.9279 -0.0101 -1.4016
 1556TIP3   OH226158   3.374   6.246   4.949 -0.0554  0.0254 -0.2174
 1556TIP3    H126159   3.438   6.304   4.990  1.4628  0.3277 -2.7829
 1556TIP3    H226160   3.346   6.187   5.019  1.4723  1.2115  1.4774
 1557TIP3   OH226161   0.403   6.538   2.174 -0.5868 -0.0966 -0.0517
 1557TIP3    H126162   0.390   6.503   2.262 -1.9826  2.7956  1.0117
 1557TIP3    H226163   0.332   6.500   2.123 -1.0079 -0.1944  0.5914
 1558TIP3   OH226164   6.355   5.603  13.075  0.1512  0.1560  0.0029
 1558TIP3    H126165   6.272   5.634  13.112  0.0486 -0.0907 -0.0207
 1558TIP3    H226166   6.360   5.511  13.102 -1.1296 -0.7992 -2.6335
 1559TIP3   OH226167   1.864   4.060  11.929  0.4448  0.3247 -0.1090
 1559TIP3    H126168   1.914   3.980  11.915 -1.6426 -0.7018 -2.5066
 1559TIP3    H226169   1.907   4.125  11.873 -0.2208 -0.2694 -1.3486
 1560TIP3   OH226170   4.396   6.606  15.529  0.2315  0.2369  0.5168
 1560TIP3    H126171   4.456   6.655  15.473  0.0157  0.9846  0.9221
 1560TIP3    H226172   4.325   6.667  15.548  0.3172  0.0225  1.6350
 1561TIP3   OH226173   1.995   1.172   0.023  0.6271 -0.0327 -0.2290
 1561TIP3    H126174   1.935   1.141   0.091 -0.9950  1.4841 -0.8761
 1561TIP3    H226175   2.064   1.106   0.019  0.0137 -0.8681  1.8909
 1562TIP3   OH226176   6.026   4.301   3.377 -0.6704 -0.0155  0.1677
 1562TIP3    H126177   6.018   4.355   3.455  1.1499  1.1931 -0.4137
 1562TIP3    H226178   5.997   4.358   3.305  2.0104  0.5703 -0.5541
 1563TIP3   OH226179   4.539   6.316  14.008 -0.1836  0.2817 -0.0063
 1563TIP3    H126180   4.458   6.349  13.970  0.1923  0.4908 -0.6416
 1563TIP3    H226181   4.561   6.239  13.956 -0.8341 -0.7735  1.2047
 1564TIP3   OH226182   5.512   1.535  11.378 -0.6540  0.1630 -0.3740
 1564TIP3    H126183   5.473   1.456  11.414 -0.5483 -0.0108 -0.6393
 1564TIP3    H226184   5.522   1.593  11.454  2.2436 -1.2582  0.4628
 1565TIP3   OH226185   0.462   3.395   2.711 -0.0810 -0.0711 -0.1594
 1565TIP3    H126186   0.379   3.439   2.729  0.0935  0.4362 -0.5558
 1565TIP3    H226187   0.442   3.302   2.717 -1.0911 -0.0093 -2.0330
 1566TIP3   OH226188   5.667   1.129  16.976  0.2945  0.0910 -0.0228
 1566TIP3    H126189   5.624   1.045  16.961 -1.0321  0.5144  1.2685
 1566TIP3    H226190   5.750   1.121  16.929 -0.7803 -1.0722 -1.8592
 1567TIP3   OH226191   2.214   3.923   3.198  0.4764  0.5251  0.0196
 1567TIP3    H126192   2.152   3.990   3.169 -2.1591 -1.0766  1.5576
 1567TIP3    H226193   2.263   3.966   3.269 -0.1678  1.2787  0.0225
 1568TIP3   OH226194   3.884   4.687   0.946  0.1043  0.7103 -0.2013
 1568TIP3    H126195   3.925   4.613   0.901  3.0851  0.7369  2.1157
 1568TIP3    H226196   3.937   4.763   0.920  0.9288  0.9614  1.9577
 1569TIP3   OH226197   2.565   5.312  14.409 -0.5160 -0.7253 -0.2769
 1569TIP3    H126198   2.528   5.242  14.355  0.7083 -1.8935  0.3457
 1569TIP3    H226199   2.636   5.270  14.457  2.1793  1.5869 -1.9768
 1570TIP3   OH226200   6.732   2.927   2.317  0.0076  0.4491 -0.3238
 1570TIP3    H126201   6.819   2.964   2.301  0.1069  0.1175 -0.5656
 1570TIP3    H226202   6.691   2.923   2.231 -0.5225  1.2619 -0.1230
 1571TIP3   OH226203   0.853   5.042  13.028  0.1857  0.2048 -0.6819
 1571TIP3    H126204   0.913   4.970  13.009 -0.2194 -0.5755  0.8279
 1571TIP3    H226205   0.909   5.119  13.036  0.5703  0.2133 -2.8557
 1572TIP3   OH226206   4.089   2.523  13.440 -0.0871  0.2929 -0.1690
 1572TIP3    H126207   4.012   2.578  13.427 -1.3297 -1.4385 -0.4761
 1572TIP3    H226208   4.075   2.482  13.525 -0.4002 -1.3503 -0.9765
 1573TIP3   OH226209   5.768   5.641   0.508  0.1163 -0.0506  1.1605
 1573TIP3    H126210   5.740   5.633   0.416 -1.0669  2.3233  1.2554
 1573TIP3    H226211   5.859   5.609   0.507 -0.0498 -0.6431 -0.6940
 1574TIP3   OH226212   2.113   2.536  14.605  0.1626  0.3382 -0.3259
 1574TIP3    H126213   2.019   2.518  14.611 -0.0620  0.8959 -1.7361
 1574TIP3    H226214   2.149   2.461  14.558  0.2273  0.6651 -0.8033
 1575TIP3   OH226215   4.135   3.866  11.659  0.0440  0.6218  0.4005
 1575TIP3    H126216   4.092   3.854  11.574 -0.9883 -1.7998  1.1608
 1575TIP3    H226217   4.083   3.934  11.703 -1.2037 -0.1222  0.1442
 1576TIP3   OH226218   3.210   0.293   3.732  0.6827  0.2198 -0.4654
 1576TIP3    H126219   3.301   0.265   3.742  0.6605 -0.3365 -1.6125
 1576TIP3    H226220   3.211   0.386   3.754  1.2894 -0.0366  0.6880
 1577TIP3   OH226221   6.340   1.490   6.864  0.7993  0.4617 -0.2487
 1577TIP3    H126222   6.259   1.464   6.820  2.2684 -1.7937 -1.8686
 1577TIP3    H226223   6.351   1.583   6.841 -0.9739  0.6495 -0.4951
 1578TIP3   OH226224   2.353   1.795   4.076  0.2129  0.1162  0.2932
 1578TIP3    H126225   2.342   1.888   4.096 -4.2256 -0.3376  0.9244
 1578TIP3    H226226   2.342   1.752   4.161 -0.0456 -1.0739 -0.3376
 1579TIP3   OH226227   2.334   4.710   0.237  0.1643 -0.3310 -0.0552
 1579TIP3    H126228   2.369   4.679   0.321 -0.7779  1.3599  1.0286
 1579TIP3    H226229   2.338   4.634   0.179  1.1068 -1.4693  1.4326
 1580TIP3   OH226230   2.694   6.392   2.840  0.3505  0.0863 -0.2943
 1580TIP3    H126231   2.774   6.409   2.791 -0.3000 -0.6413 -1.6636
 1580TIP3    H226232   2.627   6.445   2.798  0.0000  0.3500  0.5613
 1581TIP3   OH226233   6.366   3.992   0.700 -0.7482  0.3640 -0.3228
 1581TIP3    H126234   6.295   3.988   0.765  2.4185 -1.2928  3.5062
 1581TIP3    H226235   6.415   4.070   0.724  0.1664  0.0514 -1.1447
 1582TIP3   OH226236   0.971   3.078  16.496 -0.4980  0.2670 -0.1920
 1582TIP3    H126237   0.888   3.052  16.457  0.3926 -1.4055 -1.0573
 1582TIP3    H226238   0.957   3.068  16.590 -0.6771 -1.9720 -0.4139
 1583TIP3   OH226239   2.097   2.969   5.054 -0.0446 -0.3700 -0.3619
 1583TIP3    H126240   2.086   3.055   5.092  2.5610 -0.9528  2.0686
 1583TIP3    H226241   2.043   2.911   5.108  1.8169 -0.8477  1.1037
 1584TIP3   OH226242   5.150   3.242   6.146 -0.2669 -0.0838  0.0266
 1584TIP3    H126243   5.193   3.259   6.229 -2.1138  0.1188  0.9922
 1584TIP3    H226244   5.209   3.181   6.100  1.3114  0.6747  0.9835
 1585TIP3   OH226245   3.067   1.784  17.080  0.8618  0.4491 -0.4498
 1585TIP3    H126246   3.124   1.714  17.049 -1.9501 -1.0896 -2.6699
 1585TIP3    H226247   3.078   1.855  17.017 -1.9032 -1.1579 -3.0402
 1586TIP3   OH226248   5.784   2.401  12.622  0.1882  0.4786 -0.0726
 1586TIP3    H126249   5.709   2.342  12.612  1.6980 -1.4356 -0.9759
 1586TIP3    H226250   5.793   2.443  12.537  0.1073  0.7115  0.0360
 1587TIP3   OH226251   2.894   6.520  15.359  0.4085  0.4603  0.2241
 1587TIP3    H126252   2.930   6.585  15.299  1.9000  0.7851  1.4015
 1587TIP3    H226253   2.926   6.436  15.326 -1.0608  0.3226 -0.9754
 1588TIP3   OH226254   3.094   6.652  12.326 -0.4743  0.0994  0.0490
 1588TIP3    H126255   3.137   6.736  12.345 -2.2129  0.9603  0.3352
 1588TIP3    H226256   3.093   6.606  12.410  0.1008 -0.0644 -0.0217
 1589TIP3   OH226257   3.833   3.840  13.090 -0.4877 -0.4922 -0.4280
 1589TIP3    H126258   3.789   3.911  13.137  0.5754  0.3665 -0.6894
 1589TIP3    H226259   3.762   3.780  13.065 -1.0540 -1.3584  2.8050
 1590TIP3   OH226260   2.388   6.565  16.453  0.3605  0.4004  0.0365
 1590TIP3    H126261   2.375   6.584  16.546  0.3237 -0.0820  0.1323
 1590TIP3    H226262   2.304   6.531  16.424  0.6760 -0.4452  0.0819
 1591TIP3   OH226263   5.770   2.480   0.776  0.1602 -0.2721  0.3763
 1591TIP3    H126264   5.755   2.411   0.711 -0.5774  0.3328 -0.1086
 1591TIP3    H226265   5.753   2.561   0.729 -0.1049  0.1894  1.2528
 1592TIP3   OH226266   3.452   3.689   2.850  0.1310 -0.6090 -0.2224
 1592TIP3    H126267   3.364   3.668   2.818  0.3115 -0.3366 -0.8971
 1592TIP3    H226268   3.503   3.610   2.833  0.2771 -0.3925 -0.7949
 1593TIP3   OH226269   2.748   5.047   3.101 -0.1147  0.2033 -0.0633
 1593TIP3    H126270   2.764   4.986   3.029  0.2889  0.0212  0.1719
 1593TIP3    H226271   2.676   5.008   3.150 -0.0885  0.0909 -0.1132
 1594TIP3   OH226272   3.148   4.570  16.251  0.0973 -0.0395  0.0127
 1594TIP3    H126273   3.193   4.646  16.213  1.0780 -1.0625 -0.9684
 1594TIP3    H226274   3.201   4.495  16.223 -0.9437 -1.1047  0.8082
 1595TIP3   OH226275   5.161   1.768   0.734 -0.0637 -0.6819  0.0425
 1595TIP3    H126276   5.072   1.803   0.729  1.0870  2.3892 -1.3360
 1595TIP3    H226277   5.205   1.824   0.797  0.9775 -2.1355  0.6636
 1596TIP3   OH226278   2.241   0.649   4.693 -0.0716 -0.4847  0.4555
 1596TIP3    H126279   2.186   0.712   4.646  0.0920  0.5698  1.6120
 1596TIP3    H226280   2.184   0.613   4.760  0.6760  0.9185  1.9326
 1597TIP3   OH226281   0.754   1.981  11.183 -0.8278 -0.7821 -0.1438
 1597TIP3    H126282   0.661   1.962  11.168 -0.7840 -1.9334  0.9054
 1597TIP3    H226283   0.768   2.066  11.140 -2.3753 -0.5511 -0.2525
 1598TIP3   OH226284   4.674   1.276  17.020 -0.0289 -0.3309  0.5281
 1598TIP3    H126285   4.695   1.369  17.028  0.2971 -0.3013 -0.5164
 1598TIP3    H226286   4.583   1.270  17.051  0.0426  0.2803  0.8776
 1599TIP3   OH226287   2.198   2.224   1.454  0.4381 -0.3773 -0.6822
 1599TIP3    H126288   2.143   2.292   1.415 -0.9953 -1.2987 -0.3301
 1599TIP3    H226289   2.207   2.157   1.386  0.1540 -0.7641 -0.3441
 1600TIP3   OH226290   2.064   5.793   5.305 -0.1551  0.2224 -0.2773
 1600TIP3    H126291   2.053   5.722   5.243  0.9260  1.3867 -1.8806
 1600TIP3    H226292   2.159   5.802   5.315 -0.2922  0.7214  0.7827
 1601TIP3   OH226293   5.427   4.753   3.618  0.5909  0.1702  0.4683
 1601TIP3    H126294   5.513   4.795   3.626  0.5202  0.7696 -1.3122
 1601TIP3    H226295   5.406   4.761   3.524 -2.4897  2.2430  1.1803
 1602TIP3   OH226296   3.262   0.594   2.581 -0.1705  0.2201 -0.4856
 1602TIP3    H126297   3.167   0.596   2.564 -0.7108 -1.7356  1.7867
 1602TIP3    H226298   3.292   0.516   2.535 -0.1306 -0.4751  0.6895
 1603TIP3   OH226299   0.774   4.068  14.715  0.2415  1.0440 -0.2684
 1603TIP3    H126300   0.702   4.124  14.743 -0.3886 -0.2017  0.6535
 1603TIP3    H226301   0.791   4.010  14.789  1.0766  0.2050 -1.0806
 1604TIP3   OH226302   6.027   5.774  12.445 -0.1765 -0.1499  1.0281
 1604TIP3    H126303   6.101   5.764  12.505 -0.7519 -1.2334  1.5824
 1604TIP3    H226304   6.007   5.868  12.447  1.4276  0.2524  0.5413
 1605TIP3   OH226305   0.240   5.147   0.354  0.4655  0.0550  0.0669
 1605TIP3    H126306   0.194   5.150   0.271  0.1641 -0.2997  0.2219
 1605TIP3    H226307   0.262   5.238   0.372 -1.1022  0.3745  0.5146
 1606TIP3   OH226308   1.030   5.307   2.522 -0.6420  0.3371 -0.5840
 1606TIP3    H126309   1.095   5.364   2.481 -0.2465  1.2850  1.2345
 1606TIP3    H226310   1.080   5.229   2.548 -0.8753 -0.2260 -1.7678
 1607TIP3   OH226311   1.792   6.598  15.093 -0.3393 -0.0913 -0.1334
 1607TIP3    H126312   1.850   6.586  15.017 -0.6421 -2.2884 -0.0853
 1607TIP3    H226313   1.838   6.556  15.165 -0.5631  1.0032  0.6705
 1608TIP3   OH226314   0.886   5.070   5.239  0.3043  0.3696 -0.0273
 1608TIP3    H126315   0.836   5.072   5.320  1.1611  2.2924  0.5261
 1608TIP3    H226316   0.867   5.154   5.197  0.5551 -0.2196 -1.3979
 1609TIP3   OH226317   4.882   0.659  12.364  0.0701 -0.2577  0.2278
 1609TIP3    H126318   4.934   0.713  12.424 -0.2353  0.2486  0.0456
 1609TIP3    H226319   4.870   0.577  12.411 -0.1746  0.1388  0.8864
 1610TIP3   OH226320   4.457   5.272   2.512  0.1235 -0.8401  0.1382
 1610TIP3    H126321   4.426   5.225   2.590  1.5742 -2.7092 -0.3241
 1610TIP3    H226322   4.552   5.260   2.513  0.1598 -1.2706 -2.1098
 1611TIP3   OH226323   4.048   1.751  14.727 -0.0479 -0.3080  0.0301
 1611TIP3    H126324   4.009   1.753  14.640 -1.5420  2.2191  0.6511
 1611TIP3    H226325   4.020   1.668  14.764 -0.3053 -0.9285 -1.4732
 1612TIP3   OH226326   1.257   4.471  15.814  0.7202  0.5470  0.0744
 1612TIP3    H126327   1.192   4.505  15.753  1.6384 -0.6594 -1.6400
 1612TIP3    H226328   1.330   4.532  15.808  0.8230  0.4118 -0.0291
 1613TIP3   OH226329   4.823   1.699  12.208  0.4592 -0.9567  0.1768
 1613TIP3    H126330   4.846   1.747  12.288 -1.6950  0.3943  0.0974
 1613TIP3    H226331   4.762   1.632  12.238  2.1647 -2.6238  0.0483
 1614TIP3   OH226332   5.001   0.101  12.208  0.4340 -0.9261  0.3149
 1614TIP3    H126333   4.981   0.031  12.271  1.1835 -0.4355  1.1215
 1614TIP3    H226334   5.086   0.077  12.172  0.0128 -1.2008 -0.5367
 1615TIP3   OH226335   4.348   4.687   2.646  0.0184 -0.2424 -0.3186
 1615TIP3    H126336   4.351   4.601   2.687  0.9626  0.0679  0.2798
 1615TIP3    H226337   4.257   4.715   2.658 -0.2110 -1.0053 -0.2099
 1616TIP3   OH226338   3.516   4.947  15.504  0.2282  0.7891 -0.0622
 1616TIP3    H126339   3.441   4.999  15.533 -0.0501  0.9110 -0.9642
 1616TIP3    H226340   3.531   4.884  15.575 -1.0166  0.4693 -0.0574
 1617TIP3   OH226341   2.110   5.039   3.306 -0.1154  0.0983 -0.1872
 1617TIP3    H126342   2.020   5.070   3.315 -0.1213 -0.1766  0.8347
 1617TIP3    H226343   2.161   5.097   3.363  0.2205 -0.2713 -0.1076
 1618TIP3   OH226344   4.951   5.903  15.684  0.3147 -0.0701 -0.7079
 1618TIP3    H126345   4.997   5.984  15.710  0.9156  0.1900 -2.4646
 1618TIP3    H226346   4.870   5.904  15.736  1.1364  0.7275  0.6268
 1619TIP3   OH226347   0.563   6.516   2.948 -0.2032  0.5002 -0.5391
 1619TIP3    H126348   0.655   6.512   2.975 -0.4157  1.4337  0.3882
 1619TIP3    H226349   0.549   6.607   2.922 -1.0804  0.5705  0.1412
 1620TIP3   OH226350   3.155   6.489  12.870  0.5166  0.2082 -0.5634
 1620TIP3    H126351   3.080   6.466  12.925  1.0150 -0.3718 -0.1178
 1620TIP3    H226352   3.228   6.496  12.931  1.4004 -1.8807 -1.2948
 1621TIP3   OH226353   5.329   0.016  17.276  0.7435  0.0050 -0.1108
 1621TIP3    H126354   5.338   0.097  17.327 -0.0296 -0.4267  0.7319
 1621TIP3    H226355   5.401  -0.039  17.307  0.3794 -0.1907  0.3926
 1622TIP3   OH226356   0.267   0.561  14.631  0.3755 -0.2335  0.1846
 1622TIP3    H126357   0.262   0.615  14.709 -0.3817 -2.5543  1.8694
 1622TIP3    H226358   0.353   0.520  14.635  0.5045 -0.0237 -0.4318
 1623TIP3   OH226359   6.239   0.703   2.344 -0.4871  0.4054 -0.5218
 1623TIP3    H126360   6.236   0.655   2.261  0.5708  0.6906 -0.7407
 1623TIP3    H226361   6.194   0.785   2.327 -1.5841 -0.1380 -0.3755
 1624TIP3   OH226362   4.612   2.765  12.037  0.2505  0.1064 -0.0449
 1624TIP3    H126363   4.673   2.807  11.976 -0.3160  1.2387  0.1569
 1624TIP3    H226364   4.653   2.776  12.123  0.0098  0.4165  0.0297
 1625TIP3   OH226365   0.353   1.059  16.391 -0.0698  0.1421 -0.2835
 1625TIP3    H126366   0.338   0.977  16.437  0.7384 -1.4405 -2.6153
 1625TIP3    H226367   0.275   1.111  16.408 -0.8671 -1.3306  0.8214
 1626TIP3   OH226368   4.444   0.910  14.724  0.7430 -0.2767  0.0506
 1626TIP3    H126369   4.417   0.963  14.799  1.9951  0.3971  0.0340
 1626TIP3    H226370   4.539   0.904  14.731  0.9535  0.3011 -1.8014
 1627TIP3   OH226371   2.525   0.272   4.835 -0.3979  0.0018  0.0089
 1627TIP3    H126372   2.471   0.235   4.765  1.5918 -0.4946 -1.3510
 1627TIP3    H226373   2.539   0.363   4.809  1.0371 -0.4044 -0.7442
 1628TIP3   OH226374   4.389   0.730   6.101  0.1892  0.2504 -0.2000
 1628TIP3    H126375   4.372   0.647   6.145  0.9731  0.7490  1.0769
 1628TIP3    H226376   4.483   0.743   6.109  0.3016  0.5505 -1.7064
 1629TIP3   OH226377   5.715   0.213  16.632 -0.2969 -0.0463  0.3165
 1629TIP3    H126378   5.676   0.171  16.555 -1.1735 -0.2379  0.8536
 1629TIP3    H226379   5.781   0.272  16.596 -1.2429  0.4621 -0.6437
 1630TIP3   OH226380   5.034   0.213  10.425  0.6262 -0.0944 -0.4575
 1630TIP3    H126381   4.991   0.162  10.494  0.3582 -0.1882 -0.6907
 1630TIP3    H226382   5.113   0.248  10.466  0.4969 -0.1966 -0.1197
 1631TIP3   OH226383   1.183   0.760   3.626  0.1853  0.6489 -0.1770
 1631TIP3    H126384   1.229   0.706   3.690  0.4870 -0.0100 -0.9370
 1631TIP3    H226385   1.187   0.709   3.545 -2.4808  0.2164 -0.1266
 1632TIP3   OH226386   1.850   0.442   5.668 -0.1717  0.0946  0.0515
 1632TIP3    H126387   1.754   0.445   5.672 -0.1233  1.7475  0.6087
 1632TIP3    H226388   1.879   0.504   5.734  1.3016 -0.3373 -0.1552
 1633TIP3   OH226389   3.885   0.048   5.898  0.5868 -0.0032 -0.9590
 1633TIP3    H126390   3.852   0.092   5.977  0.4461  0.8475 -1.4753
 1633TIP3    H226391   3.853  -0.042   5.905  0.7575 -0.0029  0.0612
 1634TIP3   OH226392   4.450   4.687   1.915 -0.4460  0.0857 -0.1742
 1634TIP3    H126393   4.394   4.707   1.991 -1.6627  0.4467 -1.1223
 1634TIP3    H226394   4.395   4.634   1.858  0.2740  0.2221 -1.0226
 1635TIP3   OH226395   3.662   6.376  17.197  0.2059  0.2831 -0.0038
 1635TIP3    H126396   3.607   6.447  17.230  0.3899  0.6724 -0.5138
 1635TIP3    H226397   3.600   6.308  17.171  0.0953 -0.9011  2.9435
 1636TIP3   OH226398   1.170   1.130   4.553 -0.0595 -0.2218  0.1752
 1636TIP3    H126399   1.143   1.094   4.638  1.1451 -0.4939  0.4683
 1636TIP3    H226400   1.214   1.057   4.509 -0.8622 -0.1409 -0.7861
 1637TIP3   OH226401   1.852   4.602   2.345 -0.7881  0.7568 -0.6037
 1637TIP3    H126402   1.762   4.600   2.379 -0.8925 -1.0022 -0.8960
 1637TIP3    H226403   1.848   4.552   2.264  0.6188 -0.1130 -0.1654
 1638TIP3   OH226404   3.639   4.170  12.785  0.8071 -0.9146  0.0191
 1638TIP3    H126405   3.693   4.142  12.712  1.0485 -1.9954  0.6006
 1638TIP3    H226406   3.699   4.175  12.859  0.5079 -0.1033  0.2177
 1639TIP3   OH226407   2.266   5.841  16.616  0.2422 -0.0228 -0.4480
 1639TIP3    H126408   2.335   5.900  16.586 -0.0660  0.8526  0.5210
 1639TIP3    H226409   2.186   5.893  16.612  0.2367  0.2885  2.2238
 1640TIP3   OH226410   0.840   0.618  14.383 -0.0190  0.3014 -0.3995
 1640TIP3    H126411   0.787   0.548  14.345 -0.0470 -0.2969  0.7024
 1640TIP3    H226412   0.829   0.608  14.478  2.8518 -0.4769 -0.0565
 1641TIP3   OH226413   3.411   3.183   4.965 -0.2612  0.1756 -0.2118
 1641TIP3    H126414   3.457   3.102   4.944 -0.0866  0.0324  0.7014
 1641TIP3    H226415   3.468   3.229   5.026 -0.9260  0.3919  0.2656
 1642TIP3   OH226416   6.804   1.838  13.867  0.1771 -0.2271 -0.4001
 1642TIP3    H126417   6.736   1.798  13.813  1.2853 -0.3166 -1.7963
 1642TIP3    H226418   6.780   1.930  13.872 -0.1570 -0.2961 -0.7058
 1643TIP3   OH226419   1.475   5.467  16.591  0.3959 -0.0740  0.1924
 1643TIP3    H126420   1.505   5.480  16.500  0.5261 -1.0011  0.0977
 1643TIP3    H226421   1.379   5.467  16.585  0.3865  0.7783  0.1965
 1644TIP3   OH226422   2.508   5.242   1.078 -0.3008 -0.4764  0.1351
 1644TIP3    H126423   2.443   5.210   1.141 -0.7711 -0.2190 -0.2221
 1644TIP3    H226424   2.457   5.277   1.005  0.1934 -3.0633 -1.5948
 1645TIP3   OH226425   0.304   5.143   0.864  0.1266  0.5354 -0.7735
 1645TIP3    H126426   0.211   5.144   0.883  0.1259 -1.6419 -0.3484
 1645TIP3    H226427   0.309   5.126   0.770  0.1332  2.1034 -1.0844
 1646TIP3   OH226428   6.056   4.545  12.514  0.0967  0.3391 -0.1146
 1646TIP3    H126429   6.149   4.561  12.529  0.4863 -0.1972 -1.7546
 1646TIP3    H226430   6.051   4.453  12.487 -1.1990 -0.2851  2.0208
 1647TIP3   OH226431   1.136   2.114  16.962  0.1253 -0.4344 -0.0727
 1647TIP3    H126432   1.095   2.192  16.999 -0.8709 -1.3809  0.8947
 1647TIP3    H226433   1.066   2.049  16.959  1.3364 -1.8797  0.9557
 1648TIP3   OH226434   5.306   5.645   2.434 -0.1058 -0.5173  0.3921
 1648TIP3    H126435   5.308   5.715   2.499 -1.8098  0.7641 -0.8148
 1648TIP3    H226436   5.311   5.564   2.485  1.5678  0.4574  1.8596
 1649TIP3   OH226437   2.031   4.359  11.982  0.4804 -0.3365  0.7165
 1649TIP3    H126438   1.994   4.363  12.070  0.2182  0.0412  0.5923
 1649TIP3    H226439   1.956   4.351  11.924  0.6296 -0.2225  0.5038
 1650TIP3   OH226440   3.737   1.637  11.294 -0.1056 -0.1251 -0.0134
 1650TIP3    H126441   3.705   1.547  11.292 -3.0216  0.7618  1.5754
 1650TIP3    H226442   3.731   1.666  11.203 -0.2361 -1.1556 -0.3462
 1651TIP3   OH226443   3.001   4.286  15.710  0.1256 -0.5857  0.2117
 1651TIP3    H126444   2.960   4.345  15.648  0.0874  0.5856  1.3084
 1651TIP3    H226445   3.095   4.294  15.693  0.0781 -0.8328 -0.1762
 1652TIP3   OH226446   6.664   6.384   2.169  0.0922  0.3994 -0.5745
 1652TIP3    H126447   6.586   6.436   2.148 -1.2804 -0.8746  1.1361
 1652TIP3    H226448   6.667   6.317   2.101  0.1717  0.8973 -1.0754
 1653TIP3   OH226449   5.593   1.717   3.392 -0.8292  0.4012 -0.3077
 1653TIP3    H126450   5.659   1.764   3.341 -1.9225  1.3362 -0.9164
 1653TIP3    H226451   5.608   1.625   3.373  0.4430  0.5784 -0.2412
 1654TIP3   OH226452   2.876   0.144   4.283 -0.0425 -0.1726  0.3060
 1654TIP3    H126453   2.849   0.086   4.354 -2.3982  0.5768  0.1055
 1654TIP3    H226454   2.961   0.110   4.255  0.3311 -1.2821  2.5803
 1655TIP3   OH226455   4.795   6.381   2.284 -0.1695  0.1767 -0.1561
 1655TIP3    H126456   4.791   6.448   2.216  0.5908 -1.2333 -1.6630
 1655TIP3    H226457   4.879   6.396   2.329 -0.9541  1.4953  0.9402
 1656TIP3   OH226458   3.956   0.823   4.699  0.0453 -0.1421  0.4107
 1656TIP3    H126459   3.958   0.739   4.653 -0.1260 -0.3161  0.7190
 1656TIP3    H226460   3.954   0.889   4.629  1.6216 -0.3369  0.1609
 1657TIP3   OH226461   4.751   2.433   6.206  0.5520 -0.8293 -0.2334
 1657TIP3    H126462   4.711   2.438   6.293  0.6669 -0.8562 -0.1784
 1657TIP3    H226463   4.779   2.342   6.198  1.2195 -0.6561  0.0089
 1658TIP3   OH226464   5.743   2.147  17.169 -0.1178 -0.0164  0.1803
 1658TIP3    H126465   5.753   2.093  17.091  0.4463 -0.2074  0.3787
 1658TIP3    H226466   5.651   2.175  17.168  0.1941  1.0497 -1.2306
 1659TIP3   OH226467   6.001   1.285  13.940  0.1018 -0.6692 -0.4170
 1659TIP3    H126468   6.036   1.344  13.873  0.1148 -0.0211  0.1540
 1659TIP3    H226469   6.008   1.334  14.022 -2.7025 -0.2585 -0.3408
 1660TIP3   OH226470   6.078   6.355  14.768  0.1290  0.1527  0.6532
 1660TIP3    H126471   5.982   6.353  14.776  0.0762  1.5592  0.5377
 1660TIP3    H226472   6.108   6.380  14.855  0.2709  1.5449  0.2363
 1661TIP3   OH226473   1.292   3.121   1.860  0.1615  0.0871  0.3626
 1661TIP3    H126474   1.321   3.145   1.772  0.5041  0.0873  0.4747
 1661TIP3    H226475   1.363   3.149   1.918 -0.2497  0.4768  0.6850
 1662TIP3   OH226476   2.680   6.151  16.623 -0.7154  0.6940 -0.1784
 1662TIP3    H126477   2.764   6.112  16.599  0.9318  2.3092  2.3991
 1662TIP3    H226478   2.690   6.244  16.603 -1.7732  0.9394  0.3718
 1663TIP3   OH226479   4.037   5.315   3.788  0.4363 -0.0145 -0.2897
 1663TIP3    H126480   4.106   5.251   3.768 -0.2854 -0.8857 -0.0438
 1663TIP3    H226481   3.959   5.262   3.805 -0.1109  0.9232  0.2032
 1664TIP3   OH226482   3.163   2.391  15.265 -0.2962 -0.4909  1.4634
 1664TIP3    H126483   3.091   2.374  15.204  0.6607  1.6170 -0.3746
 1664TIP3    H226484   3.242   2.370  15.216  0.5132  1.3558  1.9140
 1665TIP3   OH226485   5.922   1.704  16.506 -0.3333 -0.3964 -0.0138
 1665TIP3    H126486   5.986   1.771  16.484  0.2342 -1.5735 -2.2719
 1665TIP3    H226487   5.951   1.669  16.589 -0.6797  2.1158  1.2682
 1666TIP3   OH226488   5.144   6.562   0.251  0.2470  0.1580  0.1390
 1666TIP3    H126489   5.232   6.579   0.286  1.0513  0.4494 -1.9056
 1666TIP3    H226490   5.110   6.649   0.229 -0.1877 -0.0206  0.1062
 1667TIP3   OH226491   1.953   0.075  14.679 -0.4790  1.1599 -0.1380
 1667TIP3    H126492   1.913   0.111  14.600 -1.3439  2.2501  0.7580
 1667TIP3    H226493   2.026   0.022  14.647 -1.8839  0.0987 -1.7500
 1668TIP3   OH226494   0.594   5.988   0.915 -0.1700  0.1518  0.0537
 1668TIP3    H126495   0.654   6.023   0.981  0.7686 -0.3579 -0.5092
 1668TIP3    H226496   0.520   6.048   0.916  0.1413  0.5438  1.0824
 1669TIP3   OH226497   0.667   5.218   1.228  0.0625 -0.2742  0.5277
 1669TIP3    H126498   0.622   5.241   1.147  1.5219 -0.2650 -0.3217
 1669TIP3    H226499   0.631   5.132   1.251 -0.1010 -0.4535 -0.3470
 1670TIP3   OH226500   2.503   5.066  13.862 -0.0676 -0.0695 -0.2438
 1670TIP3    H126501   2.593   5.079  13.893  0.0044  0.5055 -0.6900
 1670TIP3    H226502   2.512   5.019  13.779 -0.0777  1.4980 -1.1654
 1671TIP3   OH226503   2.370   1.366   3.716  0.5644  0.5967  0.1036
 1671TIP3    H126504   2.362   1.428   3.789 -0.7297  0.3058  0.2391
 1671TIP3    H226505   2.464   1.357   3.702  0.8441  3.8874 -1.0532
 1672TIP3   OH226506   6.811   6.555   3.022  0.2252 -0.5589 -0.0558
 1672TIP3    H126507   6.896   6.513   3.032  1.3719  1.6676  0.1856
 1672TIP3    H226508   6.791   6.590   3.109 -0.8718 -0.9097 -0.1528
 1673TIP3   OH226509   2.709   6.153  15.289  0.4004  0.5855  0.5075
 1673TIP3    H126510   2.619   6.152  15.323  0.7543  1.5488  1.5282
 1673TIP3    H226511   2.749   6.229  15.330  1.4989  0.5490 -0.4581
 1674TIP3   OH226512   3.290   3.496  15.675  0.1972 -0.1040 -0.3003
 1674TIP3    H126513   3.346   3.489  15.597  3.9975  2.0481  1.9185
 1674TIP3    H226514   3.305   3.414  15.722 -1.0039 -0.8134 -1.1109
 1675TIP3   OH226515   5.493   2.868  12.025  0.4476 -0.2489 -0.0913
 1675TIP3    H126516   5.470   2.778  12.005  0.8575 -0.3961  0.0954
 1675TIP3    H226517   5.538   2.900  11.946  1.9536 -0.7908  0.5116
 1676TIP3   OH226518   0.267   6.250   3.710  0.0692  0.2943  0.0322
 1676TIP3    H126519   0.236   6.305   3.781 -0.0007 -0.2505  0.4275
 1676TIP3    H226520   0.329   6.305   3.662  1.7263  0.0163  1.7385
 1677TIP3   OH226521   1.480   6.256  10.522  0.2662  0.0131 -0.2614
 1677TIP3    H126522   1.475   6.304  10.439  0.8346  0.7450  0.1265
 1677TIP3    H226523   1.495   6.323  10.588 -1.8310 -0.3643  0.6710
 1678TIP3   OH226524   2.314   5.726  17.141 -0.1262  0.2508 -0.5872
 1678TIP3    H126525   2.373   5.773  17.082  1.0864 -1.1087 -0.5079
 1678TIP3    H226526   2.344   5.635  17.138 -0.2707  0.0658  1.8034
 1679TIP3   OH226527   5.818   4.143  16.340  0.2944  0.3669  0.0194
 1679TIP3    H126528   5.844   4.235  16.339  3.3756 -0.3641  1.5617
 1679TIP3    H226529   5.756   4.137  16.413  0.4077  1.1239  0.1896
 1680TIP3   OH226530   1.469   3.959  15.596  0.4679 -0.4715  0.3669
 1680TIP3    H126531   1.405   4.018  15.635  2.3526  1.2227  1.0528
 1680TIP3    H226532   1.466   3.881  15.651 -0.7440 -0.2836  0.5947
 1681TIP3   OH226533   2.296   6.473   2.693  0.1179 -1.2234  0.6761
 1681TIP3    H126534   2.314   6.535   2.763  0.5748 -0.6451  0.0535
 1681TIP3    H226535   2.321   6.388   2.730  1.5335 -0.7844  0.8054
 1682TIP3   OH226536   1.384   4.479   1.840 -0.1237  0.1685 -0.1339
 1682TIP3    H126537   1.380   4.386   1.820 -1.6574  0.2553 -0.3167
 1682TIP3    H226538   1.456   4.512   1.786  1.9682 -1.2792  1.6114
 1683TIP3   OH226539   4.843   4.166  11.015 -0.2089  0.4691 -0.1818
 1683TIP3    H126540   4.844   4.072  11.035  0.9940  0.4968 -0.0006
 1683TIP3    H226541   4.931   4.196  11.037 -0.0476  1.3202 -1.7919
 1684TIP3   OH226542   1.742   2.655  11.326 -0.3010  0.5540 -0.1363
 1684TIP3    H126543   1.713   2.565  11.342 -0.7487  0.7114 -0.0291
 1684TIP3    H226544   1.781   2.653  11.239  0.2394  0.1308  0.1052
 1685TIP3   OH226545   5.911   2.661   4.877 -0.0395  0.8131 -0.5481
 1685TIP3    H126546   5.930   2.572   4.846 -0.3938  0.0119  1.4255
 1685TIP3    H226547   5.816   2.665   4.883  0.0071  1.0916  0.0346
 1686TIP3   OH226548   0.526   3.821  14.627  0.2329 -0.4079  0.0661
 1686TIP3    H126549   0.564   3.764  14.694 -0.3233 -1.4787 -0.5013
 1686TIP3    H226550   0.486   3.893  14.675  1.5587 -0.0977  0.7632
 1687TIP3   OH226551   1.527   4.803  11.654 -0.0140 -0.7418 -0.3146
 1687TIP3    H126552   1.528   4.747  11.732 -0.8250  0.3670  0.5261
 1687TIP3    H226553   1.434   4.822  11.640  0.3024  2.8862  1.3372
 1688TIP3   OH226554   2.398   3.185  15.773 -0.1666 -0.4375 -0.0411
 1688TIP3    H126555   2.418   3.167  15.681 -1.9997 -0.1950 -0.5464
 1688TIP3    H226556   2.478   3.222  15.809  1.6040 -3.3886 -0.6948
 1689TIP3   OH226557   4.772   6.720   3.343 -0.1883 -0.5715 -0.6968
 1689TIP3    H126558   4.686   6.754   3.320 -0.3580  0.6561  1.4632
 1689TIP3    H226559   4.815   6.792   3.390  1.3391 -1.7248 -0.2300
 1690TIP3   OH226560   5.286   4.675   1.723 -0.0112  0.8576 -0.1549
 1690TIP3    H126561   5.244   4.634   1.647  0.6096 -1.8746  0.8719
 1690TIP3    H226562   5.226   4.657   1.796  1.5089 -0.6267  0.7997
 1691TIP3   OH226563   2.263   5.731  13.843  0.0819 -0.0818 -0.4079
 1691TIP3    H126564   2.170   5.706  13.847 -0.2266  0.8704 -1.3082
 1691TIP3    H226565   2.264   5.823  13.866  0.9109 -0.2664  0.3224
 1692TIP3   OH226566   5.491   5.515  13.203  0.2909 -0.1182 -0.7110
 1692TIP3    H126567   5.428   5.581  13.231 -0.0110  0.2558 -2.2205
 1692TIP3    H226568   5.544   5.498  13.281 -1.1012  0.2018  0.3456
 1693TIP3   OH226569   1.681   0.947   5.033 -0.0687 -1.0762  0.0831
 1693TIP3    H126570   1.666   0.969   5.125  0.5436  0.7487 -0.2140
 1693TIP3    H226571   1.604   0.981   4.988  0.5333 -0.2096 -0.3045
 1694TIP3   OH226572   1.742   0.103   4.181  0.2068  0.0755  0.1036
 1694TIP3    H126573   1.812   0.119   4.118  0.5248 -0.1454  0.3988
 1694TIP3    H226574   1.662   0.119   4.132  0.4199 -1.0486 -0.6523
 1695TIP3   OH226575   4.468   5.456   5.168 -0.1171 -0.9516  0.3889
 1695TIP3    H126576   4.480   5.486   5.078 -0.0730 -1.1307  0.3346
 1695TIP3    H226577   4.424   5.371   5.159 -2.5778  0.2030  0.5982
 1696TIP3   OH226578   0.659   0.458   4.726  0.4329 -0.3865 -0.3060
 1696TIP3    H126579   0.653   0.551   4.707  0.3248 -0.6352 -1.5576
 1696TIP3    H226580   0.745   0.447   4.768  1.2350  0.0228 -1.7868
 1697TIP3   OH226581   4.905   3.257  14.309  0.5968  0.1344 -0.3288
 1697TIP3    H126582   4.862   3.318  14.368  0.3973 -0.4061  0.0859
 1697TIP3    H226583   4.841   3.188  14.293  0.2875  0.7537 -1.9508
 1698TIP3   OH226584   0.538   0.247   0.741  0.5185 -0.7685  0.1015
 1698TIP3    H126585   0.588   0.306   0.684  0.8515 -0.6645  0.4981
 1698TIP3    H226586   0.581   0.253   0.826 -1.3639  0.8924  1.0399
 1699TIP3   OH226587   3.344   5.931  15.682 -0.2648 -0.0789 -0.1107
 1699TIP3    H126588   3.410   5.949  15.749 -0.4701 -0.2707  0.1432
 1699TIP3    H226589   3.266   5.978  15.712 -0.5273 -0.6314  0.0856
 1700TIP3   OH226590   0.379   3.173  12.078 -0.2452 -0.0096 -0.0416
 1700TIP3    H126591   0.441   3.126  12.133 -0.5916 -0.3653  0.0456
 1700TIP3    H226592   0.335   3.234  12.138 -0.1788  0.0478 -0.0497
 1701TIP3   OH226593   3.851   0.392   1.645 -0.2915 -0.0115  0.2579
 1701TIP3    H126594   3.918   0.455   1.618 -0.2377 -0.4753 -0.7459
 1701TIP3    H226595   3.829   0.345   1.565 -3.7425  1.8701 -0.0783
 1702TIP3   OH226596   6.332   2.255  17.043 -0.3527 -0.3888 -0.1443
 1702TIP3    H126597   6.390   2.229  16.972  0.6060  0.8020  0.1502
 1702TIP3    H226598   6.259   2.299  17.000  0.7717  1.3416 -0.4142
 1703TIP3   OH226599   1.193   6.699  15.065  0.6835  0.1064 -0.0595
 1703TIP3    H126600   1.179   6.648  15.144  1.0601  0.0847 -0.0081
 1703TIP3    H226601   1.219   6.635  14.999 -1.2847 -0.1349 -0.6660
 1704TIP3   OH226602   5.372   6.666  13.037 -0.5975 -0.6861  0.1492
 1704TIP3    H126603   5.372   6.714  13.120  0.6040 -1.1860  0.4562
 1704TIP3    H226604   5.303   6.708  12.985 -1.4379 -0.4265  1.4267
 1705TIP3   OH226605   5.304   1.917   3.930 -0.7513  0.1783 -0.0344
 1705TIP3    H126606   5.231   1.879   3.979 -1.1077 -0.5096 -1.0692
 1705TIP3    H226607   5.311   2.007   3.964 -1.7874  0.1204  0.3876
 1706TIP3   OH226608   2.063   3.622  14.911  0.0579 -0.0306  0.6722
 1706TIP3    H126609   2.027   3.596  14.826  1.5032 -2.6929  0.7679
 1706TIP3    H226610   1.991   3.667  14.955 -0.5457  2.0399 -2.1432
 1707TIP3   OH226611   1.462   4.091  16.395 -0.5850  0.0872  0.2813
 1707TIP3    H126612   1.491   4.141  16.319 -0.4038  0.7852  0.8005
 1707TIP3    H226613   1.542   4.066  16.440 -0.6918 -0.3125  0.2541
 1708TIP3   OH226614   2.004   2.192   4.818 -0.3305  0.9607 -0.1915
 1708TIP3    H126615   1.924   2.227   4.857 -0.3551  0.8302 -0.1247
 1708TIP3    H226616   2.031   2.122   4.877  0.2713  1.5252  0.2195
 1709TIP3   OH226617   3.721   5.321  11.163 -0.0519  0.1492 -0.3069
 1709TIP3    H126618   3.762   5.285  11.084  0.4046 -0.6999  0.3004
 1709TIP3    H226619   3.795   5.351  11.216 -0.2069 -1.0251  0.6238
 1710TIP3   OH226620   1.863   2.081  14.351 -0.4283 -0.3987  0.7372
 1710TIP3    H126621   1.912   1.999  14.346  0.8184  0.2037  2.0776
 1710TIP3    H226622   1.873   2.120  14.265 -0.5041 -1.3635  0.2784
 1711TIP3   OH226623   2.285   1.928  14.158 -0.0672 -0.4718 -0.0749
 1711TIP3    H126624   2.290   1.834  14.139 -0.9905 -0.1752 -1.9910
 1711TIP3    H226625   2.352   1.968  14.102 -1.9067  0.2867 -1.8851
 1712TIP3   OH226626   6.324   4.761   4.201  0.4694  0.3592 -0.6842
 1712TIP3    H126627   6.337   4.785   4.109 -0.8807  1.0580 -0.7236
 1712TIP3    H226628   6.259   4.690   4.197 -0.1892  0.9203 -0.2558
 1713TIP3   OH226629   6.326   0.475  10.838  0.3691  0.4175 -0.3187
 1713TIP3    H126630   6.269   0.427  10.778  0.0024  0.6821 -0.1830
 1713TIP3    H226631   6.334   0.563  10.800 -0.5733  0.8554  0.4693
 1714TIP3   OH226632   6.485   6.119  13.523 -0.2920  0.0378  0.7709
 1714TIP3    H126633   6.468   6.213  13.524  0.6074  0.2043  2.0625
 1714TIP3    H226634   6.571   6.109  13.562 -0.4238 -1.3408  0.7644
 1715TIP3   OH226635   2.712   6.810  12.559 -0.0299 -0.0919 -0.3922
 1715TIP3    H126636   2.719   6.848  12.646  1.5651 -1.5215  0.1766
 1715TIP3    H226637   2.784   6.746  12.555  0.6314  0.6784 -3.1355
 1716TIP3   OH226638   6.372   0.705   2.073 -0.1505  0.0929 -0.1057
 1716TIP3    H126639   6.306   0.637   2.088 -0.1475  0.4070  1.5022
 1716TIP3    H226640   6.325   0.774   2.026 -0.8063  0.0291  0.4398
 1717TIP3   OH226641   5.793   5.251   3.884 -0.0816 -0.0298 -0.1103
 1717TIP3    H126642   5.736   5.305   3.830 -0.2197  1.8973  1.8524
 1717TIP3    H226643   5.864   5.309   3.912  0.4668 -1.1778  1.0347
 1718TIP3   OH226644   0.987   2.825  16.800  0.5166 -0.2053 -0.0281
 1718TIP3    H126645   1.072   2.859  16.826  1.0637 -1.4066 -0.1582
 1718TIP3    H226646   0.981   2.740  16.844  0.0044 -0.7603 -1.1371
 1719TIP3   OH226647   3.273   1.379  11.396 -0.6434 -0.0569  0.7215
 1719TIP3    H126648   3.216   1.450  11.366 -2.4806 -2.3943 -1.8090
 1719TIP3    H226649   3.315   1.346  11.317 -0.0571 -1.9501  1.7483
 1720TIP3   OH226650   4.178   4.929  12.475 -0.4214  0.2255 -0.1807
 1720TIP3    H126651   4.223   4.872  12.413 -0.6408 -0.3426  0.1833
 1720TIP3    H226652   4.153   5.005  12.422  1.7283  0.9865 -0.2065
 1721TIP3   OH226653   0.492   2.921   0.248  0.1657 -0.3283 -0.0872
 1721TIP3    H126654   0.518   2.851   0.307  0.0161  0.8474  1.4371
 1721TIP3    H226655   0.433   2.977   0.300 -1.2419 -0.0781 -1.8279
 1722TIP3   OH226656   0.714   0.423  12.576  0.0955 -0.2711 -0.2386
 1722TIP3    H126657   0.731   0.517  12.583 -1.6839  0.2093 -1.6154
 1722TIP3    H226658   0.775   0.392  12.509  0.6652 -0.0961  0.1976
 1723TIP3   OH226659   4.129   4.069   3.918 -0.2532 -0.2736  0.2729
 1723TIP3    H126660   4.035   4.081   3.908 -0.3837 -2.1595 -1.2902
 1723TIP3    H226661   4.167   4.106   3.839  0.1477 -0.9524  0.1351
 1724TIP3   OH226662   2.828   4.048   2.976 -0.4832  0.2533  0.1028
 1724TIP3    H126663   2.752   4.101   2.953 -0.8230  0.6539  2.0121
 1724TIP3    H226664   2.808   4.013   3.063  1.6663  0.7036  0.8411
 1725TIP3   OH226665   6.792   2.284  15.641  0.1707  0.5229  0.3955
 1725TIP3    H126666   6.717   2.280  15.581  1.0529 -1.2354 -0.6460
 1725TIP3    H226667   6.856   2.223  15.605  0.8182 -0.5206  3.0708
 1726TIP3   OH226668   2.452   0.486  12.999 -0.3740  0.1777 -0.5802
 1726TIP3    H126669   2.537   0.479  13.042 -0.7473  0.3895  0.2042
 1726TIP3    H226670   2.389   0.452  13.063 -0.6880 -1.9563 -1.9185
 1727TIP3   OH226671   5.267   5.283   1.320  0.1097 -0.5698  0.3326
 1727TIP3    H126672   5.280   5.377   1.322 -1.7400 -0.1232 -2.7071
 1727TIP3    H226673   5.354   5.246   1.337  1.0524  1.6749  0.7085
 1728TIP3   OH226674   5.585   3.259   6.522  0.2290  0.2533 -0.1027
 1728TIP3    H126675   5.603   3.171   6.490  0.3341 -0.2007  1.1655
 1728TIP3    H226676   5.661   3.311   6.495 -0.2360  0.1976 -1.6411
 1729TIP3   OH226677   0.471   2.271   5.318 -0.5249  0.9750  0.6068
 1729TIP3    H126678   0.401   2.263   5.382 -1.3361 -0.5043 -0.3967
 1729TIP3    H226679   0.545   2.224   5.356 -0.6773  0.9537  0.8723
 1730TIP3   OH226680   5.273   4.061  16.199 -0.1386 -0.3085 -0.1475
 1730TIP3    H126681   5.207   4.124  16.229  1.4712  0.9792  0.8790
 1730TIP3    H226682   5.341   4.064  16.266  0.8549 -1.7885 -1.0349
 1731TIP3   OH226683   5.869   4.363   2.216  0.5557 -0.4065  0.1498
 1731TIP3    H126684   5.838   4.388   2.129 -0.8215  1.0029  0.9769
 1731TIP3    H226685   5.847   4.270   2.224 -2.7862  0.2719  0.2996
 1732TIP3   OH226686   2.793   1.962  13.025  0.5418  0.2764 -0.0365
 1732TIP3    H126687   2.818   1.924  12.941 -0.5456 -0.7166  0.0591
 1732TIP3    H226688   2.866   1.941  13.083  0.3009 -1.0603 -0.1750
 1733TIP3   OH226689   6.597   3.959  15.407  0.4555  0.4243 -0.6751
 1733TIP3    H126690   6.516   3.927  15.446 -0.3705  0.8354 -1.9788
 1733TIP3    H226691   6.598   4.053  15.427 -0.0996  0.6857 -1.8196
 1734TIP3   OH226692   0.530   2.144  11.537  0.6532 -0.6290 -0.3472
 1734TIP3    H126693   0.491   2.058  11.548  2.2587 -1.4059 -0.3851
 1734TIP3    H226694   0.501   2.174  11.451 -0.7422 -0.6565  0.0962
 1735TIP3   OH226695   6.491   0.914  15.995  0.5356  0.4549 -0.4710
 1735TIP3    H126696   6.553   0.982  15.969 -0.4106  1.6450  0.2457
 1735TIP3    H226697   6.427   0.912  15.924 -0.6851  1.9707  0.5006
 1736TIP3   OH226698   5.684   4.286   3.212 -0.2446 -0.6261  0.0456
 1736TIP3    H126699   5.767   4.293   3.165 -0.1888 -2.3609 -0.1701
 1736TIP3    H226700   5.617   4.281   3.143 -0.4613  0.0082  0.2055
 1737TIP3   OH226701   5.524   0.909  16.902  0.2941 -0.3596  0.3714
 1737TIP3    H126702   5.439   0.951  16.915  1.6949  2.4600  1.4269
 1737TIP3    H226703   5.532   0.898  16.807 -0.6597  0.6710  0.1556
 1738TIP3   OH226704   0.652   5.984  17.266  0.3932 -0.3948  0.0652
 1738TIP3    H126705   0.670   5.892  17.246 -0.5494 -0.4702 -0.4975
 1738TIP3    H226706   0.582   6.009  17.205 -0.5252  0.2154  1.3076
 1739TIP3   OH226707   2.768   5.194   0.642  0.5880 -0.3493  0.2049
 1739TIP3    H126708   2.792   5.283   0.666  2.4678 -0.9090  0.6126
 1739TIP3    H226709   2.675   5.187   0.661  0.6305  1.2276  1.1032
 1740TIP3   OH226710   2.756   5.079  13.980 -0.4123 -0.4905  0.0718
 1740TIP3    H126711   2.790   5.124  14.057  1.2152  0.6287 -1.2436
 1740TIP3    H226712   2.778   4.987  13.994 -1.9357 -0.6591  1.8235
 1741TIP3   OH226713   4.199   3.527  16.357  0.7234  0.5448  0.1896
 1741TIP3    H126714   4.126   3.545  16.417  0.6579 -0.7915  0.5441
 1741TIP3    H226715   4.240   3.612  16.343 -0.0256  1.0864  1.1441
 1742TIP3   OH226716   3.392   3.713   0.177 -0.0325 -0.2860 -0.3676
 1742TIP3    H126717   3.402   3.800   0.138  0.3924 -0.1473  0.0407
 1742TIP3    H226718   3.319   3.723   0.238  0.4092 -0.0448  0.1338
 1743TIP3   OH226719   4.630   0.277   0.459  0.1202  0.2330 -0.1034
 1743TIP3    H126720   4.541   0.261   0.427  0.1094 -1.0089  0.4888
 1743TIP3    H226721   4.626   0.363   0.499 -0.4695  0.7827 -1.2965
 1744TIP3   OH226722   5.614   6.507   2.399  0.3661  0.0157  0.2003
 1744TIP3    H126723   5.602   6.434   2.460 -0.8466 -0.7622 -0.8939
 1744TIP3    H226724   5.549   6.491   2.330  0.9739  1.4269 -0.7510
 1745TIP3   OH226725   5.478   4.131  14.871 -0.1233  0.2688 -0.6792
 1745TIP3    H126726   5.563   4.154  14.833  0.3010 -1.0189 -0.5688
 1745TIP3    H226727   5.497   4.054  14.926 -1.2236  0.4352 -0.0438
 1746TIP3   OH226728   6.585   0.824   1.421  0.4826  1.0840 -0.0519
 1746TIP3    H126729   6.550   0.845   1.507 -1.4768  0.5303 -0.6542
 1746TIP3    H226730   6.669   0.870   1.416  0.0033  2.1881  1.6324
 1747TIP3   OH226731   1.152   1.567  16.694  0.1650  0.5329  0.0564
 1747TIP3    H126732   1.177   1.495  16.752  1.1675  0.2773 -0.6679
 1747TIP3    H226733   1.210   1.639  16.719 -0.4348  0.9121  0.3808
 1748TIP3   OH226734   5.363   2.139   3.195 -0.0870  0.1805 -0.0511
 1748TIP3    H126735   5.273   2.114   3.174 -0.8650  1.9731  0.9719
 1748TIP3    H226736   5.390   2.076   3.262 -0.0898 -1.1426 -1.2332
 1749TIP3   OH226737   4.243   0.699   4.959 -0.3308  0.3552  0.4109
 1749TIP3    H126738   4.171   0.637   4.947  0.4308 -0.3161 -0.7966
 1749TIP3    H226739   4.256   0.702   5.054 -1.4010 -0.1419  0.5849
 1750TIP3   OH226740   0.047   0.041  10.928  0.9422 -0.0547 -0.5581
 1750TIP3    H126741  -0.003   0.091  10.993  0.6362 -0.8685 -0.1594
 1750TIP3    H226742   0.125   0.095  10.912 -0.0029  1.2014 -1.1387
 1751TIP3   OH226743   3.005   1.874  11.498  0.1114 -0.2368 -0.6329
 1751TIP3    H126744   2.975   1.945  11.442 -2.1525  1.0543  1.9392
 1751TIP3    H226745   2.967   1.795  11.459 -1.8368  0.6770 -0.7127
 1752TIP3   OH226746   2.094   0.894  17.284 -0.4551 -0.2857  0.2971
 1752TIP3    H126747   2.031   0.824  17.303 -0.5940 -0.5888 -1.1711
 1752TIP3    H226748   2.174   0.848  17.260 -0.3838  0.0599 -0.1353
 1753TIP3   OH226749   6.327   1.458  15.169 -0.7565 -0.4277 -0.0017
 1753TIP3    H126750   6.308   1.394  15.237  0.0475 -0.3307  0.3253
 1753TIP3    H226751   6.259   1.444  15.103 -1.3022 -0.7930  0.6280
 1754TIP3   OH226752   1.479   0.498   4.432  0.1760  0.2099  0.2819
 1754TIP3    H126753   1.557   0.516   4.380  0.7356 -2.7430 -0.0416
 1754TIP3    H226754   1.504   0.425   4.489 -1.6761  0.7187  1.8652
 1755TIP3   OH226755   0.411   2.391  10.710 -0.0518  0.3991 -0.0352
 1755TIP3    H126756   0.451   2.411  10.794 -1.4246  2.4977  0.1954
 1755TIP3    H226757   0.386   2.476  10.674 -0.6562 -0.5375 -1.9827
 1756TIP3   OH226758   6.115   3.354   3.742  0.2950  0.3093  0.0655
 1756TIP3    H126759   6.196   3.346   3.792 -0.7888  0.7466  1.9594
 1756TIP3    H226760   6.047   3.319   3.799 -0.8886 -0.0150 -1.4703
 1757TIP3   OH226761   5.098   5.280  13.381 -0.2762  0.1014  0.8052
 1757TIP3    H126762   5.058   5.301  13.465  0.1460 -0.0640  1.0490
 1757TIP3    H226763   5.192   5.281  13.398 -0.2151 -0.9975  0.5920
 1758TIP3   OH226764   0.523   5.644   2.404 -0.3151 -0.6350 -0.1360
 1758TIP3    H126765   0.554   5.691   2.482  0.9779 -2.7076  0.6809
 1758TIP3    H226766   0.431   5.626   2.422  0.2546 -2.1719  1.5717
 1759TIP3   OH226767   3.990   1.197   3.846  1.0271 -0.0742  0.0313
 1759TIP3    H126768   3.913   1.140   3.843  0.5985  0.5425 -1.9280
 1759TIP3    H226769   4.015   1.198   3.939 -1.4676 -0.0796  0.7745
 1760TIP3   OH226770   0.837   5.158  15.680  0.6061  0.0008  0.6594
 1760TIP3    H126771   0.894   5.173  15.604 -0.6371 -0.4529 -0.3982
 1760TIP3    H226772   0.896   5.123  15.747  1.7060  0.2519 -0.1329
 1761TIP3   OH226773   4.697   2.616  14.831  0.0271  0.3427  0.2444
 1761TIP3    H126774   4.719   2.651  14.744  0.4752  1.6227  0.8496
 1761TIP3    H226775   4.624   2.671  14.860 -0.2098 -0.1746  0.6313
 1762TIP3   OH226776   6.771   4.872  13.919 -0.0301 -0.0298  0.4566
 1762TIP3    H126777   6.846   4.847  13.865  0.3606  2.0788 -0.0573
 1762TIP3    H226778   6.696   4.831  13.876  0.2323  1.7798 -1.9286
 1763TIP3   OH226779   0.932   1.576  14.525  0.0195  0.3913 -0.6171
 1763TIP3    H126780   0.940   1.491  14.483 -1.9595  0.2270 -0.7754
 1763TIP3    H226781   0.888   1.631  14.460  0.3201  1.2281 -0.1280
 1764TIP3   OH226782   0.132   0.782  17.119 -0.2521 -0.1888 -0.1452
 1764TIP3    H126783   0.222   0.754  17.131 -0.0873  0.7812  1.0617
 1764TIP3    H226784   0.120   0.786  17.024  0.8682 -0.6266 -0.3155
 1765TIP3   OH226785   0.716   6.092  12.093  0.3138 -0.0700  0.0346
 1765TIP3    H126786   0.648   6.134  12.040 -0.6673 -1.3822  0.2054
 1765TIP3    H226787   0.781   6.063  12.029 -0.2969 -0.6151 -0.3607
 1766TIP3   OH226788   5.436   2.716  12.942 -0.0297 -0.5108  0.0362
 1766TIP3    H126789   5.499   2.646  12.958  0.4404  0.0378  0.6241
 1766TIP3    H226790   5.483   2.779  12.886 -0.7462 -1.0822 -1.2623
 1767TIP3   OH226791   1.688   5.398  17.094  0.1393 -0.2208 -0.0814
 1767TIP3    H126792   1.760   5.429  17.038  0.1413  0.9288  0.5244
 1767TIP3    H226793   1.611   5.444  17.062  0.2102  0.7701  1.0762
 1768TIP3   OH226794   4.203   2.727  16.956 -0.2580  0.2642  0.1358
 1768TIP3    H126795   4.183   2.680  16.875 -1.8053  1.2825 -0.1249
 1768TIP3    H226796   4.120   2.726  17.005  0.5791 -0.0772  1.5805
 1769TIP3   OH226797   1.147   4.904   4.482  0.1749 -0.0735  0.2442
 1769TIP3    H126798   1.161   4.831   4.544  1.1358  0.3668  0.5647
 1769TIP3    H226799   1.228   4.954   4.485 -0.5727  1.1907  0.2436
 1770TIP3   OH226800   2.693   1.348   0.081  0.0809  0.4414 -0.2941
 1770TIP3    H126801   2.754   1.410   0.041  1.4915  0.5355  1.8291
 1770TIP3    H226802   2.702   1.363   0.176  0.1066 -2.6162  0.2911
 1771TIP3   OH226803   5.208   4.363  12.759 -0.2579 -0.3645  0.6355
 1771TIP3    H126804   5.201   4.303  12.684  0.1384 -0.0992  0.3808
 1771TIP3    H226805   5.276   4.324  12.814  0.5729  0.2512  0.0774
 1772TIP3   OH226806   4.122   5.944  13.533 -0.0181 -0.1080  0.7453
 1772TIP3    H126807   4.196   5.919  13.478 -1.0737 -0.6104 -0.5188
 1772TIP3    H226808   4.101   6.033  13.506 -0.1017 -0.0994  0.8388
 1773TIP3   OH226809   4.414   6.171   2.877 -0.0524  0.1163  0.3344
 1773TIP3    H126810   4.393   6.216   2.959 -0.0168  0.9346 -0.0981
 1773TIP3    H226811   4.400   6.079   2.897 -2.6294  0.4746  0.5098
 1774TIP3   OH226812   6.719   6.519  11.082 -0.2828  0.1410 -1.0267
 1774TIP3    H126813   6.770   6.442  11.057 -1.2067 -0.9845  0.4278
 1774TIP3    H226814   6.734   6.528  11.176  0.5525  2.3220 -1.3195
 1775TIP3   OH226815   0.459   6.638   3.356  0.4078  0.1687 -0.2928
 1775TIP3    H126816   0.497   6.664   3.440 -0.2992  0.1983  0.0255
 1775TIP3    H226817   0.530   6.650   3.293  1.0917 -0.2812  0.3616
 1776TIP3   OH226818   5.761   5.556  14.306 -0.4152 -0.2383  1.0345
 1776TIP3    H126819   5.839   5.573  14.253 -0.8407 -0.0358  0.4670
 1776TIP3    H226820   5.793   5.557  14.396  0.3545 -0.7932  0.7797
 1777TIP3   OH226821   6.476   2.351   3.754  0.2619  0.2674 -0.1030
 1777TIP3    H126822   6.487   2.382   3.664 -1.4422  2.4599  0.3553
 1777TIP3    H226823   6.385   2.374   3.776  0.6668 -0.1231  2.2187
 1778TIP3   OH226824   2.627   0.715   5.439 -0.2496 -0.2283  0.5664
 1778TIP3    H126825   2.598   0.699   5.529 -1.1816  0.3195  0.3681
 1778TIP3    H226826   2.549   0.704   5.386  0.0051  0.7917 -0.0364
 1779TIP3   OH226827   6.459   4.679  15.940 -0.0704  0.2719  0.2071
 1779TIP3    H126828   6.478   4.771  15.957  0.8023  0.1659 -0.1388
 1779TIP3    H226829   6.543   4.635  15.952 -0.5251 -0.5171  0.5938
 1780TIP3   OH226830   0.730   3.134  12.998  0.1850  0.0938  0.3418
 1780TIP3    H126831   0.782   3.078  12.939 -1.0850 -0.6535 -0.0989
 1780TIP3    H226832   0.706   3.075  13.070 -0.4436  0.3035  0.3036
 1781TIP3   OH226833   2.957   3.591   4.706 -0.2809  0.0452  0.6794
 1781TIP3    H126834   2.903   3.512   4.717  0.9003 -0.5448  2.5618
 1781TIP3    H226835   2.991   3.584   4.617 -0.0406 -1.6964  0.8750
 1782TIP3   OH226836   3.978   3.995   2.240 -0.6233 -0.1565  0.0367
 1782TIP3    H126837   4.064   3.990   2.198 -0.4316 -1.0143  0.5081
 1782TIP3    H226838   3.990   4.057   2.312  0.5711 -2.6940  2.2093
 1783TIP3   OH226839   1.039   1.158  12.915  0.2101  0.2202  0.1408
 1783TIP3    H126840   0.986   1.090  12.958  0.6312  0.0233  0.3599
 1783TIP3    H226841   0.977   1.208  12.863 -0.1241 -0.2719  0.0599
 1784TIP3   OH226842   6.325   0.450  16.033 -0.3599 -0.5409  0.2803
 1784TIP3    H126843   6.254   0.387  16.045 -1.8709  1.3365  2.0020
 1784TIP3    H226844   6.282   0.527  15.993  1.4575 -0.5802 -1.9693
 1785TIP3   OH226845   5.083   2.417  12.076  0.4522  0.1005 -0.5729
 1785TIP3    H126846   5.012   2.480  12.063  0.3399  0.0617 -0.1518
 1785TIP3    H226847   5.114   2.398  11.987 -0.5906 -0.4942 -0.8297
 1786TIP3   OH226848   5.669   5.212  16.881  0.5302  0.0012  0.1338
 1786TIP3    H126849   5.639   5.230  16.792  0.5420 -0.3043  0.0684
 1786TIP3    H226850   5.622   5.275  16.935  2.2847  1.8549 -0.3499
 1787TIP3   OH226851   6.471   4.364   4.343  0.0969 -0.5261  0.7363
 1787TIP3    H126852   6.381   4.366   4.310  0.2282  0.7564  0.4150
 1787TIP3    H226853   6.526   4.378   4.266  0.5776 -1.1664  0.9492
 1788TIP3   OH226854   6.538   6.555   6.138 -0.0063  0.4592  0.2450
 1788TIP3    H126855   6.478   6.627   6.158 -0.4995 -0.0121  0.5211
 1788TIP3    H226856   6.619   6.578   6.183  0.1049  1.2183 -0.3198
 1789TIP3   OH226857   0.684   0.350   3.732 -0.0234 -0.2122 -0.0220
 1789TIP3    H126858   0.660   0.419   3.793 -2.3725 -1.1727  0.2365
 1789TIP3    H226859   0.697   0.395   3.648 -2.1412  0.5183 -0.0018
 1790TIP3   OH226860   5.650   0.515   4.907 -0.0658 -0.6616  0.0960
 1790TIP3    H126861   5.617   0.605   4.908 -1.1957 -1.0352 -1.2026
 1790TIP3    H226862   5.721   0.515   4.972 -1.3982  0.6202  1.6328
 1791TIP3   OH226863   1.567   2.914  16.109  0.5013  0.2430  0.2468
 1791TIP3    H126864   1.647   2.869  16.136  0.2556 -1.0704 -1.0834
 1791TIP3    H226865   1.576   3.003  16.144  2.1132 -0.1444  0.8886
 1792TIP3   OH226866   5.379   3.967  15.473 -0.0370 -0.4288  0.1784
 1792TIP3    H126867   5.296   3.930  15.442 -0.0111  0.6498 -1.3164
 1792TIP3    H226868   5.354   4.033  15.537 -0.1880 -1.6462  1.3961
 1793TIP3   OH226869   4.452   6.469   0.158  0.2743  0.0488  0.6425
 1793TIP3    H126870   4.525   6.433   0.108 -1.1325 -2.0536 -0.0184
 1793TIP3    H226871   4.484   6.472   0.248  1.5866  0.4087  0.1909
 1794TIP3   OH226872   5.170   3.394  11.540 -0.6184  0.2234  0.3021
 1794TIP3    H126873   5.113   3.318  11.538  1.9388 -1.8914  1.3039
 1794TIP3    H226874   5.190   3.412  11.448  2.3888 -3.4640  0.0076
 1795TIP3   OH226875   1.231   2.828  12.876 -0.3038  0.2094  0.3070
 1795TIP3    H126876   1.165   2.871  12.932 -0.7459  0.2327 -0.2292
 1795TIP3    H226877   1.310   2.881  12.888 -0.3607  0.1489  0.9993
 1796TIP3   OH226878   6.694   4.863  16.182 -0.2346 -0.2400  0.3717
 1796TIP3    H126879   6.736   4.777  16.172  0.2188 -0.0150  0.3137
 1796TIP3    H226880   6.622   4.862  16.118  1.3882  0.4058 -1.5741
 1797TIP3   OH226881   5.119   3.278  14.787  0.7253 -0.6175 -0.0862
 1797TIP3    H126882   5.208   3.307  14.807  1.1643 -0.6175 -1.9204
 1797TIP3    H226883   5.064   3.326  14.850  1.8720  0.6108  0.0238
 1798TIP3   OH226884   0.940   2.065   2.114 -0.0553  0.5379 -0.2106
 1798TIP3    H126885   0.931   2.129   2.185 -0.6851  0.0134  0.1907
 1798TIP3    H226886   0.864   2.008   2.123  0.3263 -0.0741 -0.7630
 1799TIP3   OH226887   6.693   2.501   3.855 -0.1617  0.4936 -0.1094
 1799TIP3    H126888   6.633   2.481   3.783 -1.2628  0.3540  0.8281
 1799TIP3    H226889   6.712   2.594   3.845 -0.6964  0.5871 -0.3068
 1800TIP3   OH226890   0.765   5.355   5.222  0.0093 -0.0924  0.4704
 1800TIP3    H126891   0.851   5.396   5.235  0.0815 -0.7147  2.1804
 1800TIP3    H226892   0.743   5.374   5.131  2.1235 -0.2301 -0.1219
 1801TIP3   OH226893   3.837   5.637   5.156 -0.1866 -0.3796 -0.2193
 1801TIP3    H126894   3.856   5.718   5.109  1.3537  0.2418  1.3601
 1801TIP3    H226895   3.763   5.659   5.213 -1.5359 -0.9128 -1.6682
 1802TIP3   OH226896   2.162   3.566   3.654 -0.0210  0.8314 -0.2366
 1802TIP3    H126897   2.180   3.615   3.734  0.5667  0.4512 -0.1312
 1802TIP3    H226898   2.143   3.477   3.684  2.2158  0.1587 -0.6176
 1803TIP3   OH226899   3.241   1.821   3.919  0.1030  0.1488  0.2679
 1803TIP3    H126900   3.266   1.895   3.974 -2.2639  1.5474 -0.3964
 1803TIP3    H226901   3.162   1.786   3.959 -0.3527 -0.2712 -0.9488
 1804TIP3   OH226902   0.962   3.294   0.957 -0.5157 -0.0221  0.1510
 1804TIP3    H126903   0.961   3.310   0.863  2.4890 -0.2365 -0.0213
 1804TIP3    H226904   0.962   3.381   0.997 -2.0109  0.0662 -0.0177
 1805TIP3   OH226905   1.460   5.068   0.850 -0.0882 -0.1485  0.0049
 1805TIP3    H126906   1.423   5.070   0.939 -1.2625 -0.4756 -0.4550
 1805TIP3    H226907   1.471   4.975   0.830  1.1985 -0.0555  0.1946
 1806TIP3   OH226908   5.330   1.296   3.576  0.9034  0.3208  0.0177
 1806TIP3    H126909   5.367   1.223   3.526 -2.1480 -1.5612  0.2245
 1806TIP3    H226910   5.282   1.347   3.511  0.3490  0.2255  0.3371
 1807TIP3   OH226911   3.553   2.446   0.995 -0.5173  0.3838 -0.1916
 1807TIP3    H126912   3.581   2.413   1.080 -0.3713  1.7432  0.3074
 1807TIP3    H226913   3.458   2.429   0.993 -0.9406  2.2537  1.1838
 1808TIP3   OH226914   3.868   1.114  14.393  0.5823 -0.4484  0.1413
 1808TIP3    H126915   3.814   1.043  14.357  1.5416 -0.5106 -1.2529
 1808TIP3    H226916   3.850   1.113  14.487 -1.4499 -0.7882 -0.2134
 1809TIP3   OH226917   5.261   2.493  11.350  0.9257  0.4243  0.2220
 1809TIP3    H126918   5.291   2.430  11.284 -0.8062 -0.4128  0.1668
 1809TIP3    H226919   5.212   2.440  11.413  0.7235  1.5174  1.0060
 1810TIP3   OH226920   6.791   2.137  13.851  0.1383  0.2297  0.1719
 1810TIP3    H126921   6.852   2.170  13.784 -0.4644  1.3440  0.1382
 1810TIP3    H226922   6.705   2.141  13.809 -0.1215 -0.0294  0.6737
 1811TIP3   OH226923   1.852   6.504   1.453  0.1890  0.1239 -0.0746
 1811TIP3    H126924   1.916   6.457   1.506  2.0356 -0.1156 -2.3387
 1811TIP3    H226925   1.802   6.435   1.408 -1.5715  0.3135  1.4642
 1812TIP3   OH226926   6.030   0.492  11.902 -0.2925  0.2332 -0.2005
 1812TIP3    H126927   6.053   0.410  11.945  0.5896  1.5429  1.9854
 1812TIP3    H226928   6.112   0.524  11.865 -0.5014  0.4430 -0.4900
 1813TIP3   OH226929   3.404   6.737  11.287 -0.0825  0.1768  0.0968
 1813TIP3    H126930   3.330   6.776  11.241  0.9058  2.5786  0.3918
 1813TIP3    H226931   3.452   6.689  11.219 -0.7408  0.4235 -0.5466
 1814TIP3   OH226932   1.615   4.777  14.912 -0.1929  0.0786  0.7390
 1814TIP3    H126933   1.538   4.726  14.889 -0.6003  1.3626 -0.9998
 1814TIP3    H226934   1.687   4.714  14.912 -1.0303 -0.8897  1.0037
 1815TIP3   OH226935   4.740   5.012   4.659 -0.2683  0.2777 -0.2766
 1815TIP3    H126936   4.733   5.053   4.572  1.8697 -1.1134 -1.1744
 1815TIP3    H226937   4.768   5.083   4.717  0.2400  0.8058 -1.1450
 1816TIP3   OH226938   0.998   4.522   3.261  0.4918  0.6778 -0.4995
 1816TIP3    H126939   0.974   4.431   3.276  1.7142  0.6608  1.6915
 1816TIP3    H226940   1.062   4.519   3.190  0.8337 -0.2124 -0.1584
 1817TIP3   OH226941   6.108   3.152  16.324  0.3296  0.7313  0.0927
 1817TIP3    H126942   6.166   3.100  16.380  0.6793  0.2488 -0.6968
 1817TIP3    H226943   6.164   3.223  16.291  0.2523  0.7397 -0.0197
 1818TIP3   OH226944   1.253   4.359   1.430  0.3162 -0.4208 -0.0116
 1818TIP3    H126945   1.344   4.391   1.422  0.6001 -1.0603  0.6314
 1818TIP3    H226946   1.262   4.265   1.442 -0.4108 -0.4049  0.6828
 1819TIP3   OH226947   2.776   3.471   2.123  0.2104 -0.1473 -0.1053
 1819TIP3    H126948   2.810   3.433   2.204 -1.1731 -0.4858  0.3477
 1819TIP3    H226949   2.850   3.466   2.062  1.2796  0.1195  1.1165
 1820TIP3   OH226950   3.941   3.088   6.153 -0.3242  0.1401 -0.0999
 1820TIP3    H126951   3.882   3.130   6.091  2.2298  4.5973  0.0624
 1820TIP3    H226952   3.981   3.017   6.103 -2.6881 -0.3525 -1.4629
 1821TIP3   OH226953   0.656   3.041  15.804  0.2230  0.1874 -0.2439
 1821TIP3    H126954   0.751   3.054  15.806  0.4536 -0.9374 -1.9076
 1821TIP3    H226955   0.644   2.948  15.823 -0.4429  0.0541 -1.2599
 1822TIP3   OH226956   1.303   0.196   4.463  0.6959  0.2071 -0.2490
 1822TIP3    H126957   1.396   0.176   4.475  0.8644  0.2855 -1.2889
 1822TIP3    H226958   1.263   0.177   4.547  1.3595 -1.5825 -0.2893
 1823TIP3   OH226959   3.343   1.279  11.132 -0.0567  0.1956 -0.3085
 1823TIP3    H126960   3.366   1.188  11.116 -1.9767 -0.3638 -0.0794
 1823TIP3    H226961   3.270   1.297  11.073 -1.6241  0.6687  1.6317
 1824TIP3   OH226962   4.370   1.173  11.037 -0.0580  0.5897 -0.3339
 1824TIP3    H126963   4.451   1.156  10.990 -0.8753 -2.6249 -0.7956
 1824TIP3    H226964   4.386   1.138  11.125 -0.6174  0.8235 -0.1379
 1825TIP3   OH226965   2.709   3.333  14.857 -0.2643  0.1204 -0.1642
 1825TIP3    H126966   2.690   3.241  14.872 -2.0971  0.7044  1.4937
 1825TIP3    H226967   2.754   3.335  14.772  2.0731 -2.4930  0.8970
 1826TIP3   OH226968   3.603   6.542   3.365 -0.1647  0.4096  0.8769
 1826TIP3    H126969   3.515   6.522   3.395  0.1384  0.6455  1.9506
 1826TIP3    H226970   3.628   6.466   3.312 -0.6408 -0.0998  1.3690
 1827TIP3   OH226971   6.208   1.492   4.423 -0.2264  0.2544 -0.0137
 1827TIP3    H126972   6.125   1.445   4.429 -1.2612  1.7795 -1.4548
 1827TIP3    H226973   6.258   1.444   4.356  0.8740 -1.7238  2.0983
 1828TIP3   OH226974   4.659   1.286   5.506  0.1019  0.4540 -0.3033
 1828TIP3    H126975   4.628   1.224   5.573  2.0775  1.6759  1.8788
 1828TIP3    H226976   4.585   1.295   5.446 -2.6321  0.8357  2.8477
 1829TIP3   OH226977   1.422   3.612  16.802 -1.0324  0.0039 -0.0019
 1829TIP3    H126978   1.363   3.612  16.878 -1.3432  0.7163 -0.2374
 1829TIP3    H226979   1.510   3.620  16.840 -0.8513 -2.9553  0.4957
 1830TIP3   OH226980   3.400   1.535   5.123  0.4664 -0.0203 -0.2983
 1830TIP3    H126981   3.462   1.467   5.151 -0.9475 -2.3445 -2.3934
 1830TIP3    H226982   3.315   1.504   5.155  0.0487  2.3334  1.1915
 1831TIP3   OH226983   1.291   2.803   2.633 -0.3707 -0.1030  0.1182
 1831TIP3    H126984   1.374   2.818   2.588  0.1913  0.3333  1.2651
 1831TIP3    H226985   1.294   2.710   2.657 -0.6172 -0.3053 -0.6379
 1832TIP3   OH226986   1.257   3.728   4.149 -0.8136  0.3059 -0.4226
 1832TIP3    H126987   1.272   3.699   4.239 -1.0642  0.6039 -0.2823
 1832TIP3    H226988   1.164   3.712   4.134 -0.3706 -1.5916 -1.3108
 1833TIP3   OH226989   0.832   4.053   4.116  0.1622 -0.5373 -0.3650
 1833TIP3    H126990   0.753   4.101   4.091 -0.5156 -1.1666  0.5032
 1833TIP3    H226991   0.859   4.094   4.199  0.7190 -0.3656 -0.6272
 1834TIP3   OH226992   0.491   0.280   0.266  0.3080  0.3103 -0.4886
 1834TIP3    H126993   0.417   0.339   0.280  2.2413  2.5607  1.0364
 1834TIP3    H226994   0.489   0.262   0.172 -0.9539  2.0744 -0.8591
 1835TIP3   OH226995   1.863   6.155   2.876  0.2196  0.1657  0.1283
 1835TIP3    H126996   1.784   6.210   2.881 -0.1645 -0.2982 -0.6859
 1835TIP3    H226997   1.919   6.188   2.946 -1.6114 -0.9468  2.2665
 1836TIP3   OH226998   1.607   2.303   3.894  0.0048 -0.6805 -0.0077
 1836TIP3    H126999   1.519   2.277   3.923  0.3830 -1.1544  0.7793
 1836TIP3    H227000   1.655   2.318   3.976  1.0367 -1.7533 -0.3818
 1837TIP3   OH227001   4.861   1.446   1.621  0.5484  0.3635  0.7334
 1837TIP3    H127002   4.932   1.510   1.615 -0.5824  1.8110  1.9149
 1837TIP3    H227003   4.825   1.459   1.709 -1.0371 -0.4725  0.2481
 1838TIP3   OH227004   6.500   6.454   6.622  0.8232  0.4895 -0.1416
 1838TIP3    H127005   6.547   6.379   6.660  0.3374 -0.5219 -1.4553
 1838TIP3    H227006   6.570   6.515   6.597  1.5143 -0.8381 -1.7354
 1839TIP3   OH227007   0.040   0.110   3.874  0.2023  0.2856  0.7259
 1839TIP3    H127008   0.048   0.094   3.968 -0.5848 -0.3917  0.6912
 1839TIP3    H227009   0.016   0.025   3.837  2.4054  0.0705 -0.3566
 1840TIP3   OH227010   6.116   0.851  14.010  0.4274 -0.3278 -0.1982
 1840TIP3    H127011   6.185   0.875  13.948  0.5312  1.9116  0.6521
 1840TIP3    H227012   6.050   0.919  13.998 -0.7619 -1.3711  0.3258
 1841TIP3   OH227013   2.422   6.345   1.809 -0.1849  0.3816  0.4237
 1841TIP3    H127014   2.459   6.392   1.884 -1.3161  0.0083  1.2438
 1841TIP3    H227015   2.398   6.413   1.747 -0.9236  0.8341  1.1912
 1842TIP3   OH227016   0.729   5.997  15.526 -0.1555 -0.2665  0.3506
 1842TIP3    H127017   0.656   6.058  15.521  0.1733  0.3502  2.3017
 1842TIP3    H227018   0.788   6.024  15.455 -0.6400  0.8136  0.3424
 1843TIP3   OH227019   0.955   1.623   1.093 -0.3942  0.2734  0.3867
 1843TIP3    H127020   0.883   1.683   1.110  0.7666  1.2818  1.9994
 1843TIP3    H227021   0.938   1.548   1.149 -0.9076 -0.1367 -0.2994
 1844TIP3   OH227022   4.541   4.907   2.558 -0.2683  0.6449 -0.6586
 1844TIP3    H127023   4.528   4.979   2.620 -2.3540  0.2900 -0.6075
 1844TIP3    H227024   4.492   4.833   2.596 -0.6850  0.1030 -2.1617
 1845TIP3   OH227025   2.699   0.302   3.582  0.4098  0.1454  0.2387
 1845TIP3    H127026   2.759   0.240   3.542  0.6498  0.0705  0.7052
 1845TIP3    H227027   2.613   0.279   3.546  0.8667  1.3387 -1.7315
 1846TIP3   OH227028   0.788   5.705  11.198 -0.3818 -0.0684  0.3994
 1846TIP3    H127029   0.728   5.757  11.253  1.8630  3.0870  0.1722
 1846TIP3    H227030   0.773   5.738  11.110  0.8565 -0.0371  0.1836
 1847TIP3   OH227031   1.699   6.532  12.986  0.1014 -0.7330  0.0132
 1847TIP3    H127032   1.690   6.612  13.039 -0.2376 -1.0548  0.4563
 1847TIP3    H227033   1.651   6.466  13.036  1.5974 -1.5684  0.3763
 1848TIP3   OH227034   2.584   4.962  12.624 -0.1689 -0.5977  0.3137
 1848TIP3    H127035   2.679   4.966  12.627 -0.2287  2.5834  1.0120
 1848TIP3    H227036   2.559   4.920  12.706  0.6278  1.5153  1.7289
 1849TIP3   OH227037   4.480   5.152   3.878  0.1109 -0.3275 -0.0095
 1849TIP3    H127038   4.544   5.083   3.894 -0.4535 -1.1884 -1.3283
 1849TIP3    H227039   4.451   5.178   3.966 -0.9957 -3.0405  0.5289
 1850TIP3   OH227040   1.282   1.828  17.089  0.1423 -0.4714 -0.1064
 1850TIP3    H127041   1.332   1.889  17.142  0.2208 -1.1179  0.5778
 1850TIP3    H227042   1.195   1.828  17.129 -0.5919  1.0170 -1.5797
 1851TIP3   OH227043   6.576   4.829   5.918 -0.0921 -0.5351  0.2381
 1851TIP3    H127044   6.643   4.764   5.898 -0.1793 -0.6440  0.3003
 1851TIP3    H227045   6.551   4.811   6.009  0.7386  0.3482  0.6607
 1852TIP3   OH227046   4.254   2.847   1.007  0.0353 -0.3175 -0.0375
 1852TIP3    H127047   4.329   2.878   1.058  0.4077 -1.5777  0.2151
 1852TIP3    H227048   4.238   2.758   1.039 -3.0982  0.7268  1.5880
 1853TIP3   OH227049   4.778   4.889  13.429  0.2489 -0.4420  0.2078
 1853TIP3    H127050   4.774   4.946  13.506 -0.6413  0.6176 -0.5826
 1853TIP3    H227051   4.862   4.908  13.388 -0.3698  0.9428 -0.4835
 1854TIP3   OH227052   3.975   0.440  11.159  0.2513  0.1139 -0.2281
 1854TIP3    H127053   3.914   0.502  11.119  1.2383  0.4619 -1.2329
 1854TIP3    H227054   3.966   0.457  11.253 -1.3026  0.0348 -0.3356
 1855TIP3   OH227055   0.897   1.456  11.892 -0.6658 -0.5725  0.2742
 1855TIP3    H127056   0.880   1.488  11.980  0.0151  1.1687 -0.1795
 1855TIP3    H227057   0.845   1.514  11.835 -1.7579 -2.1784 -0.4537
 1856TIP3   OH227058   5.067   0.162  12.971  0.1875 -0.4218  0.2687
 1856TIP3    H127059   5.125   0.235  12.993  0.5333 -0.4303 -0.5855
 1856TIP3    H227060   4.994   0.202  12.924  1.1932 -0.7745 -1.7052
 1857TIP3   OH227061   2.970   5.430  14.137  0.1033  0.0095  0.1130
 1857TIP3    H127062   2.906   5.378  14.185  2.1441 -0.7432  2.1953
 1857TIP3    H227063   2.923   5.510  14.114 -1.5570 -0.4413  1.6838
 1858TIP3   OH227064   0.541   3.949   2.583 -0.2620  0.0736 -0.3594
 1858TIP3    H127065   0.452   3.960   2.616 -0.2158 -0.4374 -0.0490
 1858TIP3    H227066   0.531   3.912   2.496 -0.3346 -2.9401  0.8323
 1859TIP3   OH227067   5.320   0.044  11.540  0.3501 -0.4847 -0.3112
 1859TIP3    H127068   5.331  -0.011  11.462 -0.3279 -1.6754  0.4030
 1859TIP3    H227069   5.404   0.089  11.549  0.4900 -0.4270 -1.6361
 1860TIP3   OH227070   0.204   6.153  11.742 -0.8392 -0.1227 -0.4437
 1860TIP3    H127071   0.240   6.088  11.802 -0.5728  0.0204 -0.4472
 1860TIP3    H227072   0.273   6.167  11.677 -1.1589 -0.3364 -0.8306
 1861TIP3   OH227073   1.233   0.974  12.770  0.0093 -0.2408 -0.3865
 1861TIP3    H127074   1.154   0.971  12.823  0.0037 -0.7417 -0.4216
 1861TIP3    H227075   1.208   1.023  12.692 -0.5595 -1.2479 -0.8640
 1862TIP3   OH227076   6.062   1.877   2.007  0.7314  0.3304  0.6089
 1862TIP3    H127077   6.102   1.790   2.008 -0.6483 -0.3193  1.2218
 1862TIP3    H227078   6.111   1.924   1.939  0.5074 -1.4113 -0.8536
 1863TIP3   OH227079   3.040   5.661  12.225  0.6306 -0.1176  0.2745
 1863TIP3    H127080   3.016   5.753  12.238 -0.0403 -0.1048 -0.9284
 1863TIP3    H227081   3.002   5.616  12.300 -0.3401  0.3822  0.1022
 1864TIP3   OH227082   5.548   3.626   4.377  0.6361 -0.3016  0.5535
 1864TIP3    H127083   5.484   3.693   4.355  1.0725 -0.2254 -0.4923
 1864TIP3    H227084   5.621   3.674   4.417  1.2878 -0.0429 -0.9038
 1865TIP3   OH227085   2.650   0.445  11.644  0.2293  0.2770 -0.2401
 1865TIP3    H127086   2.680   0.516  11.700  1.4567  0.3602 -0.9771
 1865TIP3    H227087   2.702   0.369  11.670 -0.9897 -0.3627  0.4640
 1866TIP3   OH227088   4.927   4.670   1.702  0.2911 -0.0528  0.0216
 1866TIP3    H127089   4.924   4.586   1.749  2.5592 -0.6990 -0.8890
 1866TIP3    H227090   4.971   4.730   1.762  0.7922 -0.1537 -0.2455
 1867TIP3   OH227091   5.706   6.602  11.960 -0.2225  0.0856  0.2507
 1867TIP3    H127092   5.621   6.645  11.954 -1.1478 -1.5382  1.1152
 1867TIP3    H227093   5.729   6.608  12.053  0.1141 -0.4171  0.2000
 1868TIP3   OH227094   0.891   5.643   2.320 -0.5516 -0.0148 -0.5489
 1868TIP3    H127095   0.872   5.727   2.364 -1.3926  0.4165 -1.6867
 1868TIP3    H227096   0.854   5.577   2.379  1.0095  0.3007  0.8648
 1869TIP3   OH227097   1.077   2.086   4.970  1.1641 -0.8870  0.6243
 1869TIP3    H127098   1.107   2.157   5.027  0.1036  0.3790 -0.3466
 1869TIP3    H227099   0.996   2.056   5.011 -0.2882  0.8766 -0.8096
 1870TIP3   OH227100   3.111   3.171   5.651 -0.1198 -0.0014 -0.3081
 1870TIP3    H127101   3.132   3.144   5.562 -0.4611  0.1234 -0.4264
 1870TIP3    H227102   3.016   3.168   5.656 -0.1220  0.3863 -0.0693
 1871TIP3   OH227103   0.239   5.039   4.874  0.0810  0.1981 -0.4576
 1871TIP3    H127104   0.153   5.038   4.915 -0.6640 -1.6554 -1.9221
 1871TIP3    H227105   0.238   5.114   4.815 -1.1350 -0.6624 -1.5808
 1872TIP3   OH227106   5.416   5.538  10.728  0.5887  0.1664  0.1586
 1872TIP3    H127107   5.369   5.488  10.661  1.0519 -0.2268  0.1194
 1872TIP3    H227108   5.481   5.588  10.679 -0.5096  1.5847  0.0952
 1873TIP3   OH227109   5.455   3.033   0.748 -0.6052  0.1798 -0.5366
 1873TIP3    H127110   5.454   3.000   0.659 -1.5074 -0.5699 -0.2645
 1873TIP3    H227111   5.363   3.050   0.769 -0.3747  0.6905  0.1295
 1874TIP3   OH227112   2.650   1.127  11.793 -0.2659 -0.9744 -0.3973
 1874TIP3    H127113   2.638   1.173  11.876  2.4296 -1.2020  0.2009
 1874TIP3    H227114   2.561   1.121  11.756 -1.4585 -0.3120  2.1266
 1875TIP3   OH227115   4.931   1.667  12.690 -0.1177 -0.1014 -0.2303
 1875TIP3    H127116   4.921   1.725  12.766 -1.4916  0.0364 -0.4856
 1875TIP3    H227117   5.019   1.687  12.656  0.2755  0.2683  0.9576
 1876TIP3   OH227118   0.230   6.814   3.341  0.1928  0.0581  0.0292
 1876TIP3    H127119   0.300   6.752   3.321 -0.7096 -0.8619 -0.3719
 1876TIP3    H227120   0.186   6.777   3.417  0.0794  0.5860  0.2266
 1877TIP3   OH227121   5.618   0.701   5.691 -0.6218 -0.1241  0.1855
 1877TIP3    H127122   5.626   0.764   5.762 -1.0651 -0.2903  0.3884
 1877TIP3    H227123   5.703   0.704   5.646 -0.1742 -0.3517  0.9968
 1878TIP3   OH227124   6.724   1.025  13.441 -0.3632 -0.0814  0.2340
 1878TIP3    H127125   6.789   1.056  13.504 -0.2635  1.2976 -0.5173
 1878TIP3    H227126   6.736   0.930  13.439  0.3633 -0.0394  1.4697
 1879TIP3   OH227127   1.469   2.097  11.973 -0.2682  0.2329 -0.5486
 1879TIP3    H127128   1.378   2.120  11.956  0.1152  1.6631 -0.8272
 1879TIP3    H227129   1.505   2.076  11.887 -0.1448  0.4306 -0.5464
 1880TIP3   OH227130   4.256   2.276  14.401 -0.3156  0.1109  0.4994
 1880TIP3    H127131   4.232   2.219  14.474 -0.5621  1.1890  1.2887
 1880TIP3    H227132   4.195   2.349  14.407  0.8652  1.1404  0.3694
 1881TIP3   OH227133   3.064   4.899  11.949 -0.4686 -0.4021 -0.1338
 1881TIP3    H127134   3.096   4.818  11.909  2.8918  0.3862  0.5885
 1881TIP3    H227135   3.083   4.889  12.042 -0.7067  0.9070  0.0809
 1882TIP3   OH227136   5.840   3.552  16.330 -0.0209 -0.2586 -0.2245
 1882TIP3    H127137   5.833   3.469  16.377  1.6704 -1.9883 -2.8087
 1882TIP3    H227138   5.753   3.565  16.291 -1.1783  0.7630  2.4484
 1883TIP3   OH227139   2.954   1.406   1.067 -0.3290  0.4816 -0.4599
 1883TIP3    H127140   2.896   1.471   1.105 -1.9628 -0.7606 -0.6766
 1883TIP3    H227141   2.968   1.342   1.136 -0.8746 -0.2483 -1.0014
 1884TIP3   OH227142   6.692   4.141   1.745 -0.0764  0.0687 -0.0634
 1884TIP3    H127143   6.691   4.046   1.750  1.0780 -0.1559 -2.6053
 1884TIP3    H227144   6.784   4.164   1.730 -0.3056  1.6155  0.6749
 1885TIP3   OH227145   6.563   2.038   1.069  0.3652  0.2104 -0.0123
 1885TIP3    H127146   6.609   1.954   1.068  2.3377  1.2275 -0.6799
 1885TIP3    H227147   6.557   2.063   0.977  1.4309  1.6000  0.2608
 1886TIP3   OH227148   5.262   5.335   5.859 -0.4217 -0.1898  0.0497
 1886TIP3    H127149   5.226   5.309   5.944 -1.6900  1.2636  0.0065
 1886TIP3    H227150   5.283   5.252   5.816 -1.0945 -1.0047  1.2275
 1887TIP3   OH227151   6.467   5.742  13.719 -0.2419  0.6727  0.1551
 1887TIP3    H127152   6.550   5.783  13.692 -0.0905  1.0350  1.1269
 1887TIP3    H227153   6.404   5.815  13.720 -0.7035  0.3085 -1.0685
 1888TIP3   OH227154   6.416   3.038  12.490 -0.2395  0.0840 -0.2884
 1888TIP3    H127155   6.349   2.978  12.523 -1.3086  0.3941 -1.7818
 1888TIP3    H227156   6.496   2.987  12.487 -0.7513 -0.7545  0.1062
 1889TIP3   OH227157   3.883   4.037  11.462  0.0568 -0.1363 -0.3522
 1889TIP3    H127158   3.906   3.945  11.469 -0.4020 -0.1413  2.4476
 1889TIP3    H227159   3.950   4.083  11.513 -1.7962  0.6080  1.5741
 1890TIP3   OH227160   4.046   2.247   4.359  0.2573 -0.4148 -0.3685
 1890TIP3    H127161   3.999   2.296   4.291  0.7935  0.1576 -0.3345
 1890TIP3    H227162   4.131   2.290   4.365  0.1260 -0.2844  0.8623
 1891TIP3   OH227163   1.967   4.527   5.760 -0.7493 -0.1461 -0.0779
 1891TIP3    H127164   1.953   4.433   5.772  1.4935 -0.6652 -0.9293
 1891TIP3    H227165   1.968   4.563   5.849 -3.3162 -0.5801  0.1951
 1892TIP3   OH227166   1.091   4.806  13.281 -0.2353 -0.3275  0.3624
 1892TIP3    H127167   1.185   4.786  13.275 -0.0754  0.4985 -0.0543
 1892TIP3    H227168   1.066   4.828  13.191 -0.0329  2.7601  0.9759
 1893TIP3   OH227169   0.192   3.233   1.489  0.5693  0.1089 -0.1311
 1893TIP3    H127170   0.262   3.293   1.515  0.2776  0.5705 -0.3899
 1893TIP3    H227171   0.136   3.285   1.432  0.1493 -0.3292 -0.1268
 1894TIP3   OH227172   4.337   5.664  15.514 -0.8285  0.6335 -0.0625
 1894TIP3    H127173   4.412   5.720  15.492 -0.8298  0.8318  0.4335
 1894TIP3    H227174   4.361   5.578  15.479  0.7779  0.0400  2.2711
 1895TIP3   OH227175   3.112   6.515   2.122 -0.6055  0.6470 -0.5815
 1895TIP3    H127176   3.073   6.579   2.062 -0.7908 -0.7818 -2.0426
 1895TIP3    H227177   3.195   6.491   2.082 -1.0565 -0.8692 -0.6599
 1896TIP3   OH227178   4.507   5.766  14.924 -0.5057  0.4225 -0.0905
 1896TIP3    H127179   4.579   5.798  14.870 -1.2817  0.3805 -1.1861
 1896TIP3    H227180   4.463   5.846  14.955 -0.3757  0.4426  0.0433
 1897TIP3   OH227181   2.287   4.806  14.313  0.1574 -0.4220 -0.6067
 1897TIP3    H127182   2.316   4.783  14.225  1.3393 -1.2631 -0.0190
 1897TIP3    H227183   2.256   4.896  14.305  1.6294  0.0342 -1.5875
 1898TIP3   OH227184   4.350   0.654  16.612  0.5303 -0.7434  0.2804
 1898TIP3    H127185   4.404   0.660  16.690  1.3247 -2.5597 -0.0961
 1898TIP3    H227186   4.371   0.569  16.574  0.4287  0.2189 -2.1069
 1899TIP3   OH227187   4.917   2.183  11.923 -0.3743  0.5153  0.4344
 1899TIP3    H127188   4.850   2.213  11.985 -0.4076 -0.1694  0.7382
 1899TIP3    H227189   4.916   2.087  11.931  1.4796  0.5257  1.3401
 1900TIP3   OH227190   0.577   2.052  16.988 -0.3076 -0.1488 -0.5718
 1900TIP3    H127191   0.483   2.068  16.982 -0.6608 -1.0843  1.5824
 1900TIP3    H227192   0.594   1.984  16.923 -1.5005 -1.3247  0.2977
 1901TIP3   OH227193   1.446   0.080  14.855 -0.2971  0.1926  0.0588
 1901TIP3    H127194   1.491   0.029  14.922  0.5412 -0.0211 -0.6557
 1901TIP3    H227195   1.488   0.166  14.858  0.6362 -0.1982 -1.0434
 1902TIP3   OH227196   3.271   5.495   3.917  0.1492  0.6157 -0.0316
 1902TIP3    H127197   3.285   5.429   3.984  1.4262 -0.2084 -1.0629
 1902TIP3    H227198   3.211   5.454   3.854 -1.0723  1.3944  0.5831
 1903TIP3   OH227199   2.757   2.332   1.496 -0.5506  0.0536  0.0872
 1903TIP3    H127200   2.756   2.304   1.588  0.9541  0.1005  0.1345
 1903TIP3    H227201   2.813   2.269   1.452 -0.8154  0.3559 -0.6934
 1904TIP3   OH227202   4.564   2.100   2.898  0.0286  0.1483 -0.0834
 1904TIP3    H127203   4.521   2.018   2.873  1.2958 -0.1281 -1.4887
 1904TIP3    H227204   4.515   2.129   2.975 -1.4331 -1.1187 -0.4602
 1905TIP3   OH227205   2.118   0.849  13.057 -0.2137 -0.1466  0.1973
 1905TIP3    H127206   2.134   0.941  13.077  1.0218 -0.3031 -0.0334
 1905TIP3    H227207   2.039   0.849  13.003  0.8387  0.9571 -1.4188
 1906TIP3   OH227208   6.117   4.373  15.345 -0.7856 -0.6379 -0.1002
 1906TIP3    H127209   6.140   4.389  15.436  1.6865 -1.3833 -0.5096
 1906TIP3    H227210   6.081   4.284  15.344  0.5347 -1.1878 -0.0250
 1907TIP3   OH227211   4.249   5.204  14.110 -0.4384  0.0604 -0.5110
 1907TIP3    H127212   4.181   5.182  14.173 -0.1134  0.8749  0.1471
 1907TIP3    H227213   4.269   5.296  14.127 -0.1280  0.2164 -1.6075
 1908TIP3   OH227214   1.119   6.567   5.343 -0.7243  1.2435 -0.6951
 1908TIP3    H127215   1.107   6.636   5.278 -0.3401  1.6745 -0.3175
 1908TIP3    H227216   1.214   6.561   5.354 -0.7984  1.5584  0.2187
 1909TIP3   OH227217   5.912   2.279   3.465  0.0617 -0.4066 -0.0494
 1909TIP3    H127218   5.860   2.268   3.545 -1.6776 -0.0457 -1.0601
 1909TIP3    H227219   5.930   2.189   3.436 -1.3073 -0.5964 -0.4294
 1910TIP3   OH227220   6.742   6.004   1.726 -0.3103 -0.1640  0.5197
 1910TIP3    H127221   6.663   5.963   1.760  1.0734 -2.1983  1.5160
 1910TIP3    H227222   6.795   5.931   1.694  0.9001  1.1934 -0.7414
 1911TIP3   OH227223   0.458   6.175  14.178  0.0746 -0.8979  0.2474
 1911TIP3    H127224   0.466   6.270  14.188  0.5699 -0.9191  0.0443
 1911TIP3    H227225   0.434   6.162  14.086  0.0497 -0.9762  0.2644
 1912TIP3   OH227226   6.014   2.360   5.768 -0.2570  0.1495 -0.5577
 1912TIP3    H127227   5.941   2.298   5.765  0.7057 -0.9882 -2.5820
 1912TIP3    H227228   5.989   2.431   5.709  0.0726 -0.0237 -0.9098
 1913TIP3   OH227229   5.249   0.627  15.909 -0.4628  0.1846 -0.2853
 1913TIP3    H127230   5.180   0.561  15.918 -0.2516 -0.0231 -0.1866
 1913TIP3    H227231   5.330   0.576  15.899 -0.3152  0.4277 -0.3317
 1914TIP3   OH227232   0.189   1.348  13.750 -0.1533 -0.2115  0.0979
 1914TIP3    H127233   0.193   1.368  13.657 -3.4070  0.3449 -0.0412
 1914TIP3    H227234   0.132   1.271  13.756 -2.5482  1.5281  1.6934
 1915TIP3   OH227235   1.364   6.138   1.690  0.4948 -0.1731 -0.4059
 1915TIP3    H127236   1.372   6.216   1.635 -0.6687  0.1341 -0.1660
 1915TIP3    H227237   1.271   6.135   1.714  0.6529 -1.2690  0.1258
 1916TIP3   OH227238   6.637   5.066   3.369 -0.6571  0.2365 -0.3197
 1916TIP3    H127239   6.575   5.107   3.428  0.4082  1.2755  0.1178
 1916TIP3    H227240   6.689   5.007   3.424  0.3317  1.1996 -0.1877
 1917TIP3   OH227241   3.884   0.483   4.995 -0.6135 -0.3004  0.3121
 1917TIP3    H127242   3.961   0.445   4.952 -0.3252 -0.4315  0.9291
 1917TIP3    H227243   3.810   0.452   4.943 -0.2281  0.2278 -0.5833
 1918TIP3   OH227244   4.629   3.006   3.673  0.0898 -0.1609 -0.5851
 1918TIP3    H127245   4.565   3.061   3.627 -0.0419 -0.3300 -0.6051
 1918TIP3    H227246   4.576   2.938   3.714  0.3435 -0.8549 -1.3853
 1919TIP3   OH227247   5.223   1.989   1.217 -0.0112 -0.2648 -0.2258
 1919TIP3    H127248   5.179   1.989   1.302  0.5274  0.4355  0.0678
 1919TIP3    H227249   5.213   1.899   1.185  1.3481 -1.0684  1.4087
 1920TIP3   OH227250   2.998   0.483  11.092  0.2544 -0.3493 -0.1781
 1920TIP3    H127251   3.015   0.575  11.074 -1.5045  0.0469  0.0388
 1920TIP3    H227252   3.032   0.468  11.180 -0.2239  0.3174  0.1222
 1921TIP3   OH227253   2.509   2.519  16.925  0.0900 -0.2806 -0.3375
 1921TIP3    H127254   2.551   2.605  16.922  0.6882 -0.4210  1.9711
 1921TIP3    H227255   2.506   2.497  17.019 -0.5947 -2.5151 -0.8227
 1922TIP3   OH227256   2.130   0.152   3.553 -0.3484  0.3986  0.0820
 1922TIP3    H127257   2.148   0.121   3.464 -0.6681 -0.1655  0.2115
 1922TIP3    H227258   2.145   0.076   3.609  0.0796  0.8090  0.5420
 1923TIP3   OH227259   2.862   5.724  16.574 -0.1686 -0.4255  0.0017
 1923TIP3    H127260   2.942   5.712  16.522 -0.9504  0.0445 -1.3525
 1923TIP3    H227261   2.851   5.641  16.620  0.5677 -0.8430 -0.5549
 1924TIP3   OH227262   3.954   0.571  15.993 -0.3031  0.4271  0.0921
 1924TIP3    H127263   3.997   0.575  15.908 -0.9747  1.2165 -0.2319
 1924TIP3    H227264   3.981   0.652  16.038  1.7342 -0.9549  1.5012
 1925TIP3   OH227265   0.937   2.451  15.684  0.1997  0.1846 -0.0771
 1925TIP3    H127266   0.857   2.457  15.736  0.2421 -1.4153  0.2072
 1925TIP3    H227267   0.915   2.493  15.601 -1.0995 -0.6404 -0.1726
 1926TIP3   OH227268   4.900   6.134  14.124  0.0547 -0.2700 -0.3263
 1926TIP3    H127269   4.973   6.181  14.084  0.0722 -0.5095 -0.5775
 1926TIP3    H227270   4.909   6.044  14.092  0.6857 -0.7258  1.0343
 1927TIP3   OH227271   3.360   3.225  12.639  0.0781  0.0210 -0.6152
 1927TIP3    H127272   3.438   3.173  12.618  1.1874  1.7239 -0.8956
 1927TIP3    H227273   3.287   3.165  12.626  1.2122 -1.1059 -2.1894
 1928TIP3   OH227274   4.314   6.625  12.978  0.3514  0.3975 -0.0741
 1928TIP3    H127275   4.271   6.621  12.893 -0.8276  0.5201  0.4841
 1928TIP3    H227276   4.270   6.697  13.023  2.1914  1.5389 -0.0002
 1929TIP3   OH227277   2.992   1.881   5.713  0.4262 -0.6632 -0.2043
 1929TIP3    H127278   3.021   1.887   5.622  1.1321  0.5041  0.0829
 1929TIP3    H227279   3.073   1.889   5.764 -0.1784  0.6920  0.5668
 1930TIP3   OH227280   2.083   6.083   5.534 -0.0714 -0.4837  0.6981
 1930TIP3    H127281   2.053   6.113   5.448 -0.9472 -2.8633  0.1030
 1930TIP3    H227282   2.154   6.022   5.514 -0.2626 -1.0379  1.6665
 1931TIP3   OH227283   3.263   6.137   1.810 -0.4799  0.2820 -0.0361
 1931TIP3    H127284   3.173   6.160   1.834  0.3365  1.5048  2.1640
 1931TIP3    H227285   3.274   6.170   1.721 -1.7629  1.4969  0.2207
 1932TIP3   OH227286   4.818   4.824   2.467 -0.4528 -0.0867  0.3802
 1932TIP3    H127287   4.776   4.778   2.394 -0.3196  2.8407 -1.7307
 1932TIP3    H227288   4.748   4.877   2.506  0.2849  1.4251 -0.2752
 1933TIP3   OH227289   4.366   0.748   2.483  0.0425 -0.2824 -0.0273
 1933TIP3    H127290   4.413   0.736   2.565 -1.2377  1.8949  1.0966
 1933TIP3    H227291   4.408   0.823   2.441 -0.8718  0.1735 -0.1599
 1934TIP3   OH227292   0.997   5.028  14.120 -0.6922 -0.0071 -0.0857
 1934TIP3    H127293   1.066   5.044  14.056 -1.7187 -0.5233 -1.3583
 1934TIP3    H227294   0.922   4.999  14.068 -1.2173 -1.5533  1.4353
 1935TIP3   OH227295   1.644   5.288   2.483 -0.5255 -0.3141 -0.2558
 1935TIP3    H127296   1.724   5.332   2.458 -1.1377  0.7878 -0.3236
 1935TIP3    H227297   1.644   5.207   2.431  0.6830 -0.5005 -0.0025
 1936TIP3   OH227298   5.571   1.726   3.706  0.4438  0.2177 -0.3390
 1936TIP3    H127299   5.559   1.742   3.612  0.8567 -1.3039 -0.6841
 1936TIP3    H227300   5.638   1.788   3.733 -0.7326  1.6917 -0.6962
 1937TIP3   OH227301   4.181   4.417   4.551  0.2212  0.0747  0.2867
 1937TIP3    H127302   4.128   4.399   4.628  0.7147 -0.4841  0.5001
 1937TIP3    H227303   4.233   4.494   4.574 -0.2972  0.4643  0.1718
 1938TIP3   OH227304   4.549   5.413   0.499 -0.4982 -0.4693 -0.8349
 1938TIP3    H127305   4.540   5.381   0.588 -0.7488  2.2544  0.2137
 1938TIP3    H227306   4.605   5.349   0.456  1.5839 -0.6805  1.9341
 1939TIP3   OH227307   6.051   5.172   5.316 -0.4299  0.6542  0.5764
 1939TIP3    H127308   6.002   5.248   5.285 -0.1052  0.2895 -0.9175
 1939TIP3    H227309   6.135   5.207   5.343 -0.4244  0.8873  0.2677
 1940TIP3   OH227310   3.967   6.698  12.964  0.3331 -0.5138  0.5441
 1940TIP3    H127311   3.900   6.743  12.913  0.0789 -3.0141 -1.5523
 1940TIP3    H227312   4.039   6.684  12.902  2.0463  0.4727  2.2342
 1941TIP3   OH227313   4.872   6.084   4.529  0.3934 -0.3196 -0.3203
 1941TIP3    H127314   4.801   6.069   4.591 -0.5790 -1.2399 -1.5951
 1941TIP3    H227315   4.942   6.025   4.558  1.3295  1.6804  1.8499
 1942TIP3   OH227316   1.291   0.178  10.978 -0.1285 -0.4745 -0.4181
 1942TIP3    H127317   1.321   0.159  10.889 -0.3311 -0.4146 -0.4998
 1942TIP3    H227318   1.368   0.210  11.023 -0.5647  1.9091 -1.2546
 1943TIP3   OH227319   2.246   4.149  16.827  0.6775  0.0099  0.2673
 1943TIP3    H127320   2.221   4.241  16.815 -1.3389 -0.6350 -0.9552
 1943TIP3    H227321   2.336   4.152  16.859  1.0443  2.3655 -0.8428
 1944TIP3   OH227322   0.272   1.706   3.882 -0.0085  0.2235 -0.2033
 1944TIP3    H127323   0.287   1.777   3.944 -0.3416  0.0246  0.1064
 1944TIP3    H227324   0.326   1.634   3.913  1.0175  0.6158 -1.0136
 1945TIP3   OH227325   5.361   0.336  12.490  0.4179  0.4790 -0.2110
 1945TIP3    H127326   5.326   0.352  12.578 -0.0893  0.5038 -0.4133
 1945TIP3    H227327   5.455   0.323  12.504  0.4407  1.1025  0.2584
 1946TIP3   OH227328   2.370   5.656  16.775 -0.3194 -0.1703  0.5691
 1946TIP3    H127329   2.325   5.724  16.724 -2.5385 -0.9999  1.3030
 1946TIP3    H227330   2.428   5.705  16.833  1.0449  0.8616 -1.5509
 1947TIP3   OH227331   4.606   5.426  12.366  0.3153 -0.1574  0.2349
 1947TIP3    H127332   4.650   5.342  12.375  0.7060  0.1902  1.8855
 1947TIP3    H227333   4.526   5.418  12.417  1.5729  1.2342  2.6246
 1948TIP3   OH227334   4.916   3.012   6.119 -0.0706  0.4200 -0.2697
 1948TIP3    H127335   4.987   2.981   6.062 -0.3796  0.5807 -0.7511
 1948TIP3    H227336   4.960   3.038   6.200  0.5617  1.4133 -0.9048
 1949TIP3   OH227337   6.219   3.937  14.761 -0.3216 -0.1887  0.2660
 1949TIP3    H127338   6.184   3.902  14.679 -1.1428  1.0010  0.0891
 1949TIP3    H227339   6.145   3.937  14.821  0.7678 -3.3269  1.8726
 1950TIP3   OH227340   0.836   0.515   5.180  0.3736 -0.2004 -0.0224
 1950TIP3    H127341   0.854   0.603   5.146 -1.4923  0.8891  1.5672
 1950TIP3    H227342   0.743   0.501   5.158  0.1413 -0.9623  1.3699
 1951TIP3   OH227343   4.239   2.448   2.690  0.1921 -0.0565  0.5291
 1951TIP3    H127344   4.290   2.411   2.618 -1.1071 -1.6012  0.3459
 1951TIP3    H227345   4.183   2.514   2.648  0.2307 -0.1568  0.3178
 1952TIP3   OH227346   2.852   3.012  13.267  0.1466 -0.0390 -0.8174
 1952TIP3    H127347   2.872   2.921  13.244  2.1098 -0.0115  0.5789
 1952TIP3    H227348   2.787   3.005  13.337  1.4147 -0.4621  0.3535
 1953TIP3   OH227349   5.401   2.865  16.036 -0.5175  0.2497  0.2921
 1953TIP3    H127350   5.334   2.905  15.979 -1.1523 -1.2112 -0.0368
 1953TIP3    H227351   5.484   2.885  15.993 -1.0034 -1.0839 -1.3855
 1954TIP3   OH227352   1.217   4.063   1.487 -0.3963 -0.1942 -0.2611
 1954TIP3    H127353   1.132   4.084   1.448 -0.3874 -1.7431 -1.1816
 1954TIP3    H227354   1.266   4.022   1.416  0.8376 -0.0636  0.4954
 1955TIP3   OH227355   2.969   0.512   2.162  0.4581 -0.2289 -0.0971
 1955TIP3    H127356   2.881   0.496   2.196  0.3960  0.5358  0.1148
 1955TIP3    H227357   2.967   0.603   2.131  0.5810 -0.8230 -1.9470
 1956TIP3   OH227358   2.319   0.014   1.942 -0.3657  0.2081 -0.1205
 1956TIP3    H127359   2.389   0.013   2.008 -0.8280  0.6612  0.3842
 1956TIP3    H227360   2.362  -0.015   1.862  0.1215 -0.7333  0.4627
 1957TIP3   OH227361   1.444   6.529  15.042  0.2753 -0.0009 -0.6569
 1957TIP3    H127362   1.431   6.492  14.954  0.8330 -0.9360 -0.3681
 1957TIP3    H227363   1.403   6.466  15.100  1.3844 -0.2774 -0.1347
 1958TIP3   OH227364   3.101   4.031   4.650 -0.0131 -0.5204  0.3943
 1958TIP3    H127365   3.088   3.957   4.591 -2.4669 -1.0686  1.4658
 1958TIP3    H227366   3.053   4.103   4.609  1.7163  0.3294 -0.2534
 1959TIP3   OH227367   0.735   2.511   1.680  0.2924 -0.1957  0.4687
 1959TIP3    H127368   0.671   2.521   1.610 -1.3122 -0.3420  1.8621
 1959TIP3    H227369   0.799   2.581   1.664 -1.6536  1.7072  0.5409
 1960TIP3   OH227370   0.150   6.305  16.887 -0.5126  0.1115 -0.5476
 1960TIP3    H127371   0.080   6.240  16.886 -0.1786 -0.2617 -0.2767
 1960TIP3    H227372   0.105   6.389  16.885 -0.9793 -0.0006 -4.6978
 1961TIP3   OH227373   0.549   2.522   1.880  0.4010 -0.1281  0.3104
 1961TIP3    H127374   0.530   2.430   1.862  1.0100 -0.2800  0.4274
 1961TIP3    H227375   0.618   2.544   1.818  1.1406 -0.1015  1.1300
 1962TIP3   OH227376   4.772   4.058   0.303 -0.3594  0.0545  0.3663
 1962TIP3    H127377   4.795   4.141   0.346 -0.4684  0.6009 -0.5971
 1962TIP3    H227378   4.702   4.021   0.357 -0.6682  0.8463  0.5165
 1963TIP3   OH227379   1.542   6.110  11.384 -0.3659 -0.2724 -0.6207
 1963TIP3    H127380   1.603   6.123  11.311 -1.9678  0.4896 -1.8914
 1963TIP3    H227381   1.504   6.196  11.399 -1.6856 -0.8848 -0.3677
 1964TIP3   OH227382   0.738   2.300   2.782 -0.5957  0.0053  0.6094
 1964TIP3    H127383   0.825   2.328   2.809 -0.7898  0.3830  0.8602
 1964TIP3    H227384   0.687   2.299   2.863 -1.0319  0.5769  0.3490
 1965TIP3   OH227385   2.259   1.094   2.327 -0.1570 -0.1005  0.2747
 1965TIP3    H127386   2.333   1.153   2.342 -1.2935  1.7608 -0.9255
 1965TIP3    H227387   2.276   1.055   2.242 -0.8683  0.9171 -0.3587
 1966TIP3   OH227388   0.136   5.482   2.064 -0.2772 -0.0213 -0.3222
 1966TIP3    H127389   0.133   5.395   2.024  1.6277 -0.2577 -0.0535
 1966TIP3    H227390   0.145   5.543   1.990 -2.8766  0.1181 -0.6070
 1967TIP3   OH227391   5.111   0.216   0.320  0.0464 -0.1759  0.1517
 1967TIP3    H127392   5.124   0.228   0.414  2.1020 -0.0798 -0.1075
 1967TIP3    H227393   5.016   0.206   0.311 -0.0517 -2.4170  2.4804
 1968TIP3   OH227394   4.804   6.220  14.900  1.0373  0.3384  0.1337
 1968TIP3    H127395   4.838   6.300  14.860  0.4267 -0.5055 -2.2525
 1968TIP3    H227396   4.881   6.179  14.940  2.0270  0.5677 -1.4228
 1969TIP3   OH227397   1.078   0.444  12.535  0.4930 -0.2963  0.0351
 1969TIP3    H127398   1.169   0.420  12.521  0.7542 -0.8376  2.3446
 1969TIP3    H227399   1.080   0.519  12.594 -0.5662  0.0843 -0.3712
 1970TIP3   OH227400   4.975   5.437   2.395 -0.2160  0.1569  0.4522
 1970TIP3    H127401   5.035   5.389   2.337 -0.7411  0.1341 -0.0806
 1970TIP3    H227402   4.939   5.506   2.340 -0.9878 -0.0821  0.6464
 1971TIP3   OH227403   1.103   2.242  16.647  0.7144  0.1182 -0.3572
 1971TIP3    H127404   1.175   2.276  16.700  0.7871 -1.5374  0.6430
 1971TIP3    H227405   1.086   2.154  16.681 -1.4169  0.2437 -0.9352
 1972TIP3   OH227406   3.084   1.084  15.943  0.9092  0.7844  0.4303
 1972TIP3    H127407   3.041   1.122  15.866  0.1530  0.7376  0.8209
 1972TIP3    H227408   3.088   0.990  15.924 -1.7555  0.3469  1.5634
 1973TIP3   OH227409   1.675   5.029   2.923  0.3474  0.6013 -0.0121
 1973TIP3    H127410   1.603   4.966   2.929  0.1291  0.6432 -1.6989
 1973TIP3    H227411   1.748   4.979   2.886 -0.1355  1.4934 -2.3555
 1974TIP3   OH227412   1.060   5.686   0.702 -0.0457 -0.1297 -0.6131
 1974TIP3    H127413   1.150   5.671   0.674  0.0143  0.5646 -0.8154
 1974TIP3    H227414   1.010   5.694   0.620 -0.3860 -1.0238 -0.5028
 1975TIP3   OH227415   1.305   1.189  13.736 -0.3038  0.3596 -0.2780
 1975TIP3    H127416   1.329   1.274  13.697 -1.8601  1.0448  0.1635
 1975TIP3    H227417   1.323   1.200  13.829  3.1703 -1.1890 -0.6350
 1976TIP3   OH227418   6.650   5.642  15.364  0.3141 -0.3789  0.3940
 1976TIP3    H127419   6.733   5.680  15.392  0.0944 -0.6258  1.4148
 1976TIP3    H227420   6.600   5.631  15.445  0.2364 -2.5169  0.1039
 1977TIP3   OH227421   4.902   4.539  14.467 -0.1161 -0.1355 -0.1599
 1977TIP3    H127422   4.971   4.547  14.401 -0.2172  1.0734 -0.1460
 1977TIP3    H227423   4.948   4.543  14.551 -0.1766  0.4420 -0.1518
 1978TIP3   OH227424   6.079   2.410   0.631 -0.0808 -0.2005  0.5681
 1978TIP3    H127425   6.051   2.318   0.626  0.8492 -0.4752  0.3326
 1978TIP3    H227426   6.127   2.425   0.550 -0.3667  0.5546  0.5288
 1979TIP3   OH227427   4.993   2.004   0.096  0.1173 -0.2060  0.0977
 1979TIP3    H127428   4.967   1.915   0.071  0.3586 -0.3707  0.4236
 1979TIP3    H227429   4.938   2.061   0.043 -0.5786 -0.5510  0.4324
 1980TIP3   OH227430   5.517   4.596  10.703  0.3824 -0.2413  0.5024
 1980TIP3    H127431   5.567   4.624  10.626  0.7018 -2.0319  0.0093
 1980TIP3    H227432   5.439   4.651  10.702  0.7675  0.3164 -0.6361
 1981TIP3   OH227433   0.040   4.208  15.530 -0.8320 -0.2286 -0.5463
 1981TIP3    H127434  -0.042   4.252  15.509 -0.2768  0.8038 -0.5875
 1981TIP3    H227435   0.107   4.259  15.484 -0.2642 -1.6985 -1.4270
 1982TIP3   OH227436   1.227   1.523  15.672  0.7914 -0.0571  0.0166
 1982TIP3    H127437   1.306   1.469  15.667  1.1115  0.5331 -1.9765
 1982TIP3    H227438   1.163   1.479  15.617 -0.4885 -0.7684  1.9666
 1983TIP3   OH227439   1.604   1.721   4.093 -0.2655 -0.2344 -0.1746
 1983TIP3    H127440   1.621   1.636   4.135  0.2976 -0.4062 -0.7497
 1983TIP3    H227441   1.670   1.779   4.128 -0.4810 -0.0973  0.0085
 1984TIP3   OH227442   3.551   5.772  14.268  0.3637  0.4606 -0.2532
 1984TIP3    H127443   3.492   5.782  14.342  1.2141  1.5919  0.3098
 1984TIP3    H227444   3.525   5.840  14.206  0.1629  0.0341 -0.6409
 1985TIP3   OH227445   6.262   4.551   1.187 -0.1060 -0.2300  0.0473
 1985TIP3    H127446   6.283   4.604   1.110 -0.8672 -1.0217 -0.7388
 1985TIP3    H227447   6.216   4.611   1.246 -0.0242  0.2504 -0.3693
 1986TIP3   OH227448   0.592   2.404  14.740  0.1570 -0.2454  0.2510
 1986TIP3    H127449   0.671   2.434  14.785  0.6267  0.4649 -0.9863
 1986TIP3    H227450   0.626   2.360  14.661 -0.6187 -1.7605  0.7187
 1987TIP3   OH227451   1.075   0.413   0.647  0.6227  0.4471 -0.0498
 1987TIP3    H127452   1.006   0.376   0.702 -1.7805  0.8284 -2.5338
 1987TIP3    H227453   1.047   0.503   0.631  2.1437  0.8617 -0.4978
 1988TIP3   OH227454   4.430   3.181   2.218  0.0915 -0.2050 -0.1194
 1988TIP3    H127455   4.507   3.125   2.213  0.4015 -0.2632  2.9930
 1988TIP3    H227456   4.419   3.217   2.130  1.6597 -2.7801 -1.4626
 1989TIP3   OH227457   3.451   1.502   5.938 -0.0192 -0.1373  0.3189
 1989TIP3    H127458   3.480   1.493   6.028  3.7640  3.3492 -0.2763
 1989TIP3    H227459   3.379   1.565   5.943 -1.1220 -1.3909  0.9619
 1990TIP3   OH227460   0.586   5.136   0.617  0.5612 -0.0553  0.7147
 1990TIP3    H127461   0.599   5.107   0.707  0.0121  1.2984  1.2576
 1990TIP3    H227462   0.492   5.127   0.602  0.6399 -0.2082  0.2942
 1991TIP3   OH227463   6.444   0.187  10.758  0.3604 -0.4768  0.4880
 1991TIP3    H127464   6.486   0.218  10.839 -0.9522 -1.5892  1.6534
 1991TIP3    H227465   6.368   0.244  10.747 -0.3757 -1.3296  0.9815
 1992TIP3   OH227466   0.939   0.841   1.526 -0.0164 -0.4424  0.0222
 1992TIP3    H127467   1.029   0.850   1.557  0.4714 -0.3794 -1.3112
 1992TIP3    H227468   0.936   0.754   1.487 -1.2893 -1.4762  2.2764
 1993TIP3   OH227469   3.039   2.880   1.778 -0.5627  0.1551  0.5377
 1993TIP3    H127470   2.998   2.926   1.851 -1.6763  0.8531 -0.4853
 1993TIP3    H227471   3.107   2.941   1.746 -1.0946  0.5136  0.0637
 1994TIP3   OH227472   3.524   0.491  15.925 -0.0768 -0.2796  0.0369
 1994TIP3    H127473   3.515   0.563  15.987 -0.5264  0.1809 -0.5484
 1994TIP3    H227474   3.603   0.513  15.875 -0.6566  0.2385 -0.6775
 1995TIP3   OH227475   4.957   3.430  10.916  0.3695  0.3249 -0.2849
 1995TIP3    H127476   4.996   3.386  10.841  0.6232 -2.3233  1.3016
 1995TIP3    H227477   4.970   3.371  10.989 -2.4977  1.4294  1.3026
 1996TIP3   OH227478   3.806   0.675  14.831  0.3751  0.1064  0.4464
 1996TIP3    H127479   3.725   0.634  14.862  1.8292 -1.9161  1.8251
 1996TIP3    H227480   3.824   0.743  14.896 -0.8147  1.4262 -0.5496
 1997TIP3   OH227481   5.710   5.737  13.263  0.0376  0.3591  0.2468
 1997TIP3    H127482   5.638   5.747  13.326 -1.0988 -0.1618 -0.9187
 1997TIP3    H227483   5.722   5.825  13.227 -0.1233  0.4217  0.3423
 1998TIP3   OH227484   3.712   2.985   2.123  0.2604  0.6375  0.1327
 1998TIP3    H127485   3.708   2.935   2.041 -1.0241 -0.6518  0.9185
 1998TIP3    H227486   3.652   3.059   2.109  0.4858  0.7443 -0.2805
 1999TIP3   OH227487   2.859   2.236  14.415  0.1593 -0.8243 -0.5020
 1999TIP3    H127488   2.918   2.160  14.414 -0.5368 -1.3818 -1.9155
 1999TIP3    H227489   2.905   2.302  14.467  1.5626 -1.6025 -0.7134
 2000TIP3   OH227490   2.860   3.454  10.816  0.1894 -0.0178  0.2880
 2000TIP3    H127491   2.848   3.519  10.747  0.3490 -0.2760  0.0129
 2000TIP3    H227492   2.835   3.371  10.775 -1.1241  0.0072  0.9620
 2001TIP3   OH227493   3.668   1.796   0.595  0.0434 -0.0502 -0.2089
 2001TIP3    H127494   3.597   1.780   0.657  0.4467  0.0217  0.2779
 2001TIP3    H227495   3.745   1.758   0.637  0.6252  1.3720  0.0444
 2002TIP3   OH227496   0.348   1.621  11.247  0.4392  0.4741 -0.8304
 2002TIP3    H127497   0.309   1.653  11.328  1.6610  0.8162 -0.3566
 2002TIP3    H227498   0.304   1.670  11.178  0.1835  1.0024 -0.2995
 2003TIP3   OH227499   3.305   6.234  13.549  0.2310 -0.5326  0.0604
 2003TIP3    H127500   3.246   6.300  13.586 -0.2299 -1.3959  0.9062
 2003TIP3    H227501   3.284   6.154  13.597  0.6114 -1.3620 -1.1122
 2004TIP3   OH227502   2.197   3.505  13.684  0.3101  0.4456 -0.7280
 2004TIP3    H127503   2.174   3.568  13.752 -0.9963 -0.0927 -0.6477
 2004TIP3    H227504   2.149   3.535  13.607 -1.7210 -1.3479 -0.2557
 2005TIP3   OH227505   2.123   0.408  15.184  0.1761 -0.1080  0.2334
 2005TIP3    H127506   2.053   0.348  15.157 -0.1610  1.4309 -2.7267
 2005TIP3    H227507   2.082   0.464  15.250 -1.9117  1.4640 -2.1879
 2006TIP3   OH227508   5.095   0.788  14.995  0.3462 -0.4683 -0.0819
 2006TIP3    H127509   5.189   0.793  14.976  0.4843 -0.3433  0.6125
 2006TIP3    H227510   5.089   0.734  15.074 -0.1223 -0.0025  0.2043
 2007TIP3   OH227511   0.865   5.582  11.739 -0.6540 -0.0176 -0.3148
 2007TIP3    H127512   0.908   5.565  11.656 -0.8893  0.9017 -0.6397
 2007TIP3    H227513   0.935   5.615  11.796 -0.3453 -1.3188  0.0931
 2008TIP3   OH227514   2.577   2.092  15.537  0.2052  0.3450 -0.0981
 2008TIP3    H127515   2.486   2.098  15.566  0.4969  3.0872  0.5677
 2008TIP3    H227516   2.592   2.174  15.489  2.4586  0.2067  0.2784
 2009TIP3   OH227517   2.091   0.024   4.549 -0.1253 -0.2417  0.3707
 2009TIP3    H127518   2.053  -0.048   4.498  0.3263 -0.0949 -0.1728
 2009TIP3    H227519   2.180  -0.004   4.569 -0.0351  0.0501  0.3895
 2010TIP3   OH227520   2.495   4.682  13.134 -1.0005 -0.4136 -0.9450
 2010TIP3    H127521   2.579   4.728  13.125 -1.1809 -0.1062 -1.0583
 2010TIP3    H227522   2.492   4.654  13.225 -0.8325 -0.3132 -0.9095
 2011TIP3   OH227523   5.702   4.752   2.014  0.2379 -0.3458 -1.0137
 2011TIP3    H127524   5.709   4.675   1.957  1.1734 -0.6076 -0.5772
 2011TIP3    H227525   5.743   4.724   2.096  3.6256  1.5452 -1.8454
 2012TIP3   OH227526   2.299   6.048  17.175  0.3111  0.2157 -0.3164
 2012TIP3    H127527   2.221   6.033  17.229  0.6956  1.1348  0.5284
 2012TIP3    H227528   2.362   5.983  17.206  0.2451  0.1845 -0.2462
 2013TIP3   OH227529   0.932   0.637   0.546 -0.0276 -0.2080  0.6504
 2013TIP3    H127530   0.971   0.721   0.569  0.7207 -0.6187  0.9023
 2013TIP3    H227531   0.921   0.642   0.451  2.0012 -0.6151  0.3360
 2014TIP3   OH227532   6.663   3.256   5.102 -0.0652 -0.4702 -0.6639
 2014TIP3    H127533   6.716   3.321   5.057  0.0597 -1.5640 -2.1713
 2014TIP3    H227534   6.605   3.221   5.034 -0.6904 -1.3565  0.2900
 2015TIP3   OH227535   1.231   0.397   3.208 -0.2247  0.1574 -0.9068
 2015TIP3    H127536   1.289   0.449   3.151  0.6433  1.2711  0.9012
 2015TIP3    H227537   1.287   0.371   3.281 -1.6359 -0.0626  0.1242
 2016TIP3   OH227538   0.515   3.567   4.995 -0.0609  0.2239  0.1172
 2016TIP3    H127539   0.483   3.492   4.943 -0.7290  0.5420  0.0589
 2016TIP3    H227540   0.436   3.616   5.017  0.4256  1.2528 -0.3640
 2017TIP3   OH227541   1.015   4.891  15.736 -0.0362  0.7368 -0.2045
 2017TIP3    H127542   1.092   4.942  15.708 -0.6516  2.8263  1.5835
 2017TIP3    H227543   1.028   4.879  15.830 -0.2412 -1.9920 -0.4646
 2018TIP3   OH227544   2.496   6.593   0.652  0.2871 -0.1608 -0.1935
 2018TIP3    H127545   2.425   6.554   0.703 -0.1496  0.0808 -0.6084
 2018TIP3    H227546   2.547   6.518   0.622 -1.1550 -0.5652 -1.8888
 2019TIP3   OH227547   0.597   3.916   0.682 -0.1892  0.7469  0.8065
 2019TIP3    H127548   0.587   3.976   0.608 -1.8706 -0.4097  0.0390
 2019TIP3    H227549   0.689   3.890   0.680  0.1118  1.8023 -0.0106
 2020TIP3   OH227550   3.008   4.829  14.649 -0.4348 -0.0828 -0.1134
 2020TIP3    H127551   3.076   4.791  14.593  1.3969 -0.7604  2.4248
 2020TIP3    H227552   3.053   4.900  14.696 -1.6149 -0.2388  1.2940
 2021TIP3   OH227553   0.563   5.937   5.558  0.3291  0.3685 -0.1356
 2021TIP3    H127554   0.593   5.965   5.472  1.9903 -1.0868 -0.0935
 2021TIP3    H227555   0.624   5.868   5.583 -1.4803 -0.8371  1.2245
 2022TIP3   OH227556   2.880   0.498  12.440  0.5627  0.1775 -0.0075
 2022TIP3    H127557   2.881   0.404  12.424 -0.3940 -0.2326  2.0161
 2022TIP3    H227558   2.791   0.525  12.422  0.3484  0.3185  1.1767
 2023TIP3   OH227559   3.138   1.877   0.440  0.0847 -0.5339  0.2307
 2023TIP3    H127560   3.097   1.961   0.460 -0.4179 -0.4450 -1.0999
 2023TIP3    H227561   3.198   1.862   0.513 -1.2641  0.0195  1.5016
 2024TIP3   OH227562   2.987   4.167   3.759 -0.0291 -0.4000  0.0703
 2024TIP3    H127563   2.998   4.183   3.665  0.4256  0.1547  0.2125
 2024TIP3    H227564   2.927   4.236   3.788  0.1571 -0.3173  0.2641
 2025TIP3   OH227565   4.654   4.194  16.845  0.4336 -0.2602 -0.3793
 2025TIP3    H127566   4.623   4.104  16.854 -1.6703  0.6203  1.9133
 2025TIP3    H227567   4.681   4.220  16.933 -0.7275  1.9325 -0.6049
 2026TIP3   OH227568   0.771   1.654  12.976 -0.3008 -0.2090  0.0065
 2026TIP3    H127569   0.848   1.707  12.956  1.0372 -2.4434 -1.1788
 2026TIP3    H227570   0.744   1.683  13.063  2.5559 -0.0617  0.9535
 2027TIP3   OH227571   5.960   1.583  11.099  0.2561 -0.6034 -0.2307
 2027TIP3    H127572   5.893   1.591  11.030 -0.8077  0.4885  0.8735
 2027TIP3    H227573   5.910   1.564  11.178  1.4396 -1.5465  0.3084
 2028TIP3   OH227574   4.386   1.040   0.233 -0.0662 -0.1913 -0.4872
 2028TIP3    H127575   4.469   1.084   0.215 -0.0135  0.0003  0.2163
 2028TIP3    H227576   4.326   1.110   0.258 -0.3801 -0.3573 -0.7580
 2029TIP3   OH227577   5.899   1.339   1.388 -0.8420  0.5396  0.0056
 2029TIP3    H127578   5.948   1.410   1.430 -1.0703  0.4897  0.3644
 2029TIP3    H227579   5.909   1.264   1.447  2.7749 -1.0220 -2.2349
 2030TIP3   OH227580   6.361   5.273   2.682 -0.6840 -0.3508 -0.1928
 2030TIP3    H127581   6.312   5.272   2.599  0.7554  0.8082 -1.0972
 2030TIP3    H227582   6.406   5.189   2.684 -1.7644 -0.9472  0.0931
 2031TIP3   OH227583   6.676   0.187  14.667  0.1637 -0.1485  0.4482
 2031TIP3    H127584   6.672   0.097  14.632  0.7752 -1.4398  3.4265
 2031TIP3    H227585   6.761   0.220  14.636 -1.0742  0.4595 -2.7331
 2032TIP3   OH227586   2.207   1.622   0.183 -0.1693 -0.0414  0.0599
 2032TIP3    H127587   2.237   1.702   0.140  0.2179 -0.1415  0.1323
 2032TIP3    H227588   2.133   1.592   0.131  0.1057  0.0044 -0.3611
 2033TIP3   OH227589   5.219   2.403   5.362  0.0445 -0.0565 -0.5836
 2033TIP3    H127590   5.294   2.462   5.368  0.5723 -0.7909  0.4929
 2033TIP3    H227591   5.252   2.319   5.394 -0.2569 -1.3944 -3.4585
 2034TIP3   OH227592   0.820   2.248   3.088  0.2986 -0.6733 -0.0899
 2034TIP3    H127593   0.826   2.197   3.168 -0.1111  0.8556  0.9610
 2034TIP3    H227594   0.726   2.251   3.068  0.2514  0.1864  0.2269
 2035TIP3   OH227595   4.510   5.799   0.714 -0.4597 -0.3799  0.0187
 2035TIP3    H127596   4.459   5.880   0.704 -0.0410  0.2926  2.5542
 2035TIP3    H227597   4.601   5.829   0.722 -0.0623 -1.2847 -0.9612
 2036TIP3   OH227598   0.765   5.632   3.290  0.0960 -0.5219  0.0437
 2036TIP3    H127599   0.730   5.716   3.319 -0.4627  0.1968 -2.4872
 2036TIP3    H227600   0.717   5.567   3.341 -1.8991  0.5985 -0.3193
 2037TIP3   OH227601   5.294   5.223   1.974  0.1954 -0.4432 -0.2239
 2037TIP3    H127602   5.332   5.254   2.056  2.6526 -1.6536 -0.8335
 2037TIP3    H227603   5.247   5.299   1.939  2.3436  1.2622  0.4302
 2038TIP3   OH227604   6.489   0.550  16.228  0.3086 -0.3308 -0.0747
 2038TIP3    H127605   6.416   0.523  16.172 -0.8652  4.9877 -1.7171
 2038TIP3    H227606   6.567   0.534  16.176 -0.5656  1.8867 -2.3146
 2039TIP3   OH227607   2.310   1.250   0.105 -0.0696 -0.4439 -0.2734
 2039TIP3    H127608   2.357   1.330   0.130  2.4704 -1.7268 -0.6026
 2039TIP3    H227609   2.310   1.251   0.010 -1.1036 -0.2799 -0.2805
 2040TIP3   OH227610   6.653   4.548  13.215  0.2981 -0.1857 -0.1811
 2040TIP3    H127611   6.560   4.531  13.230  0.6067 -0.9049  1.0456
 2040TIP3    H227612   6.671   4.507  13.130 -0.5912  0.3572 -0.6500
 2041TIP3   OH227613   5.910   1.122  16.821  0.5539  0.1802 -0.1693
 2041TIP3    H127614   5.903   1.074  16.739  0.8639 -0.1911  0.0179
 2041TIP3    H227615   5.957   1.063  16.880  1.3896  0.9155 -0.0833
 2042TIP3   OH227616   5.214   6.386  12.025  0.7959  0.1355  0.3469
 2042TIP3    H127617   5.234   6.331  11.949  1.1775  0.4594  0.2078
 2042TIP3    H227618   5.299   6.421  12.053  0.7320 -0.4373  1.2819
 2043TIP3   OH227619   4.196   0.476   4.655  0.3234  0.1494 -0.6711
 2043TIP3    H127620   4.269   0.529   4.688 -0.0852 -0.5055  1.4000
 2043TIP3    H227621   4.148   0.536   4.597  0.1837  1.9317  1.1634
 2044TIP3   OH227622   3.898   5.548  15.037 -0.3125 -0.4575 -0.9670
 2044TIP3    H127623   3.886   5.573  14.946 -0.8693 -1.2312 -1.1216
 2044TIP3    H227624   3.918   5.629  15.083 -0.0271 -0.0635 -1.7758
 2045TIP3   OH227625   5.336   4.054   5.441  0.0427 -0.3158  0.0158
 2045TIP3    H127626   5.270   3.993   5.411  0.8381 -1.5374  0.6724
 2045TIP3    H227627   5.412   4.039   5.384 -0.5389  1.8580 -1.4792
 2046TIP3   OH227628   5.172   3.625  16.138 -0.3081  0.0199  0.3185
 2046TIP3    H127629   5.206   3.536  16.147  1.2288  0.5570  0.2037
 2046TIP3    H227630   5.115   3.637  16.214  1.2120 -0.3468  1.5664
 2047TIP3   OH227631   4.375   4.089   1.771  0.4953 -0.4583  0.4436
 2047TIP3    H127632   4.379   4.049   1.684  1.5270  1.2665 -0.3483
 2047TIP3    H227633   4.455   4.141   1.777  0.5066 -0.6413  2.5016
 2048TIP3   OH227634   2.521   4.590  14.746  0.6952 -0.2039  0.4443
 2048TIP3    H127635   2.430   4.561  14.733  0.0393  0.6162  2.6949
 2048TIP3    H227636   2.549   4.621  14.660 -1.4182  0.2074 -0.1514
 2049TIP3   OH227637   2.007   0.736   4.072  0.3679 -0.1628 -0.4636
 2049TIP3    H127638   1.941   0.761   4.007  0.8196 -1.3374 -1.4075
 2049TIP3    H227639   1.974   0.772   4.154 -1.3606 -0.5616 -0.9407
 2050TIP3   OH227640   1.161   1.773   3.170 -0.3401  0.5232  0.0962
 2050TIP3    H127641   1.248   1.737   3.184 -0.1530  0.8862 -0.1098
 2050TIP3    H227642   1.113   1.703   3.125  0.0164  0.5281 -0.2933
 2051TIP3   OH227643   1.071   0.462  14.641  0.2035 -0.0664  0.4028
 2051TIP3    H127644   1.000   0.500  14.693  0.7231  1.2781  0.1690
 2051TIP3    H227645   1.151   0.494  14.683  0.6713 -1.0690  0.3017
 2052TIP3   OH227646   1.423   5.722  10.948 -0.4875 -0.6334 -0.4084
 2052TIP3    H127647   1.497   5.669  10.920  0.0594 -0.5729  0.8759
 2052TIP3    H227648   1.462   5.802  10.983 -1.2915  0.5706 -2.1214
 2053TIP3   OH227649   4.148   5.750  14.552  0.0273  0.3118 -0.1514
 2053TIP3    H127650   4.055   5.769  14.564  0.2700  0.7961  1.1029
 2053TIP3    H227651   4.192   5.820  14.600  1.0495  0.1253 -0.7960
 2054TIP3   OH227652   3.044   3.928   0.983 -0.2089 -0.6971  0.3657
 2054TIP3    H127653   3.025   3.974   0.902 -0.7147 -0.9071  0.3581
 2054TIP3    H227654   3.139   3.915   0.983 -0.2847 -1.3313 -0.5362
 2055TIP3   OH227655   5.585   6.634   6.353 -0.7621 -0.2357  0.2562
 2055TIP3    H127656   5.545   6.667   6.433  1.8899  1.6983  0.9156
 2055TIP3    H227657   5.644   6.564   6.383 -0.3472 -0.0377 -0.0881
 2056TIP3   OH227658   4.181   5.521   0.324 -0.6483 -0.2948 -0.0789
 2056TIP3    H127659   4.174   5.608   0.362  1.4332 -0.4628  0.7834
 2056TIP3    H227660   4.189   5.462   0.399 -3.2840 -1.4595 -0.5712
 2057TIP3   OH227661   3.534   2.932   0.829 -0.3244  0.0747  0.2385
 2057TIP3    H127662   3.525   2.886   0.746  0.3532 -1.5880  1.0376
 2057TIP3    H227663   3.538   2.862   0.895  1.1718  1.2368  1.4664
 2058TIP3   OH227664   2.376   6.174   0.896  0.6307  0.1499  0.0888
 2058TIP3    H127665   2.329   6.108   0.947  1.7055 -0.0810  0.8023
 2058TIP3    H227666   2.370   6.254   0.949 -1.5699  0.9785 -1.2447
 2059TIP3   OH227667   3.238   0.994  16.732  0.0533 -0.2564  0.3527
 2059TIP3    H127668   3.301   0.971  16.663 -1.1522 -1.4919 -0.3882
 2059TIP3    H227669   3.266   1.080  16.761  2.6947 -1.1340  0.7640
 2060TIP3   OH227670   2.701   0.682   2.134 -0.2444  0.0078 -0.1151
 2060TIP3    H127671   2.641   0.718   2.200 -0.3711  1.2594 -0.8805
 2060TIP3    H227672   2.645   0.635   2.073 -0.1738 -0.7804  0.4103
 2061TIP3   OH227673   3.890   4.006  16.163  0.2902 -0.4519 -0.5066
 2061TIP3    H127674   3.808   4.032  16.205  2.0225  2.2704  1.5551
 2061TIP3    H227675   3.884   4.039  16.074 -1.3199 -1.4651 -0.8054
 2062TIP3   OH227676   2.945   4.382   4.585  0.1532  0.6763  0.1927
 2062TIP3    H127677   2.946   4.450   4.651  2.1109  1.3713 -0.4671
 2062TIP3    H227678   2.890   4.313   4.622 -0.0722  1.6865  1.8404
 2063TIP3   OH227679   1.511   5.976  16.423  0.2680  0.1341 -0.0263
 2063TIP3    H127680   1.460   5.995  16.344  0.4188  2.6105  0.3842
 2063TIP3    H227681   1.601   5.993  16.397  0.6100 -1.5448  0.0052
 2064TIP3   OH227682   5.170   1.359  12.807  0.1962 -0.3783  0.4003
 2064TIP3    H127683   5.199   1.347  12.717 -2.3523 -0.8141 -0.4128
 2064TIP3    H227684   5.202   1.281  12.853 -1.9754 -2.2494 -1.0954
 2065TIP3   OH227685   4.434   5.893   3.330  0.2688 -0.2978  0.3859
 2065TIP3    H127686   4.469   5.848   3.407  2.2063 -1.3311 -1.0282
 2065TIP3    H227687   4.461   5.984   3.341 -0.2786 -0.2390  1.3559
 2066TIP3   OH227688   0.064   3.205   5.303 -0.3485 -0.9048 -0.2516
 2066TIP3    H127689  -0.017   3.235   5.263  0.1692  2.3308  0.8371
 2066TIP3    H227690   0.041   3.192   5.395  0.7504  2.4938  0.6366
 2067TIP3   OH227691   3.751   3.242  12.186 -0.1822 -0.0901  0.5266
 2067TIP3    H127692   3.765   3.305  12.115  2.7105 -0.0864  0.9890
 2067TIP3    H227693   3.732   3.160  12.142 -0.1880  0.2892 -0.1932
 2068TIP3   OH227694   1.000   4.243  13.384 -0.1357 -0.9679  0.0953
 2068TIP3    H127695   1.085   4.207  13.409  0.9053  0.4386 -1.2493
 2068TIP3    H227696   1.008   4.337  13.399 -2.1541 -0.9980  1.7572
 2069TIP3   OH227697   0.648   2.736   3.475 -0.4147  0.7096  0.0046
 2069TIP3    H127698   0.656   2.831   3.484 -0.7374  0.7074  0.3455
 2069TIP3    H227699   0.555   2.719   3.490 -0.3490  0.3343 -0.0111
 2070TIP3   OH227700   1.629   4.356  12.898 -0.3165  0.6462  0.2232
 2070TIP3    H127701   1.692   4.302  12.946 -0.2474  1.4274  1.0465
 2070TIP3    H227702   1.597   4.299  12.828  0.3068 -0.2054  0.6069
 2071TIP3   OH227703   3.961   2.948  12.947 -0.3250 -0.4794 -0.4651
 2071TIP3    H127704   3.916   2.916  13.026  0.4475  0.7029  0.4948
 2071TIP3    H227705   3.946   3.042  12.948  0.4953 -0.3273 -1.2170
 2072TIP3   OH227706   0.116   0.372   1.814  1.0667  0.0469 -0.7515
 2072TIP3    H127707   0.197   0.382   1.864  1.5289 -1.2064 -1.2157
 2072TIP3    H227708   0.136   0.407   1.728  1.1831 -0.4536 -0.9292
 2073TIP3   OH227709   4.081   5.096  14.291  0.3953 -0.4131 -0.1286
 2073TIP3    H127710   4.080   5.180  14.336  0.9244 -0.0313 -0.8105
 2073TIP3    H227711   3.989   5.075  14.278  0.2544  0.6248 -0.9553
 2074TIP3   OH227712   0.956   4.032  17.036  0.3975  0.5332 -0.2947
 2074TIP3    H127713   0.921   3.968  17.098 -0.7633 -0.1864 -1.6290
 2074TIP3    H227714   1.015   4.087  17.088 -0.6652  0.0782  1.4579
 2075TIP3   OH227715   3.129   2.014  12.086 -0.0452  0.2319  0.8671
 2075TIP3    H127716   3.217   2.015  12.122 -0.6627 -1.3831  2.6081
 2075TIP3    H227717   3.074   1.981  12.157 -2.0392  0.9950 -0.2216
 2076TIP3   OH227718   2.209   1.403   2.540  0.0208 -0.3457  0.1500
 2076TIP3    H127719   2.300   1.399   2.570 -0.5795 -1.7046  2.0099
 2076TIP3    H227720   2.197   1.493   2.511  1.2953  0.5675  2.2331
 2077TIP3   OH227721   1.975   1.521  11.027  0.1799  0.2612  0.1731
 2077TIP3    H127722   2.037   1.515  10.955 -1.5406  0.9998 -1.4546
 2077TIP3    H227723   1.944   1.431  11.040  2.2543 -0.3067  1.7108
 2078TIP3   OH227724   3.882   1.199   5.521 -0.1517 -0.1926  0.2127
 2078TIP3    H127725   3.878   1.209   5.426 -2.6123 -1.7655  0.0540
 2078TIP3    H227726   3.830   1.271   5.555  0.0053 -0.1282  0.3168
 2079TIP3   OH227727   1.772   4.975  12.580  0.3396 -0.7372 -0.1704
 2079TIP3    H127728   1.719   4.896  12.591  0.9943 -1.2995 -0.9239
 2079TIP3    H227729   1.816   4.986  12.664  1.0631 -1.8001 -0.3929
 2080TIP3   OH227730   2.991   4.241   2.665  0.2556  0.2544 -0.1767
 2080TIP3    H127731   3.062   4.180   2.650 -1.3688 -1.4840 -1.2321
 2080TIP3    H227732   2.996   4.303   2.591 -1.8609 -2.5019 -2.8787
 2081TIP3   OH227733   5.431   1.998  13.566  0.1909  0.3963  0.1833
 2081TIP3    H127734   5.361   1.938  13.589  1.0256 -1.1239 -1.0414
 2081TIP3    H227735   5.403   2.038  13.483  0.5360  0.1605 -0.0522
 2082TIP3   OH227736   0.022   6.812   0.475 -0.2250  0.4608  0.1718
 2082TIP3    H127737   0.027   6.903   0.448 -2.1869  0.7413  0.5647
 2082TIP3    H227738  -0.037   6.813   0.551  0.7878 -0.9792  1.0346
 2083TIP3   OH227739   2.329   4.696   2.014  0.2485  0.2479 -0.2567
 2083TIP3    H127740   2.407   4.646   1.987 -0.0581 -0.6999  0.5591
 2083TIP3    H227741   2.359   4.748   2.088  0.5958  1.4052 -1.1729
 2084TIP3   OH227742   2.206   1.133  15.705  0.0915  0.0722 -0.6245
 2084TIP3    H127743   2.228   1.224  15.726 -1.3276  0.7566 -1.8478
 2084TIP3    H227744   2.172   1.097  15.787  0.1736  0.8116 -0.2558
 2085TIP3   OH227745   4.989   5.283  15.809  0.3178 -0.0503  0.3661
 2085TIP3    H127746   4.947   5.294  15.724 -0.7369  0.5757  0.9522
 2085TIP3    H227747   5.078   5.255  15.788  0.5931  1.6852 -0.9971
 2086TIP3   OH227748   2.040   0.108   0.572 -0.6342  0.2366  0.3087
 2086TIP3    H127749   2.119   0.162   0.579  0.9206 -1.3617 -2.9177
 2086TIP3    H227750   1.982   0.160   0.516  0.0787 -0.4933 -1.1693
 2087TIP3   OH227751   0.056   1.417  15.521 -0.3461  0.7108  0.4206
 2087TIP3    H127752   0.058   1.373  15.605  0.1399 -1.1047 -0.4834
 2087TIP3    H227753  -0.036   1.411  15.493 -0.0016 -1.3225 -0.4399
 2088TIP3   OH227754   2.911   2.735   3.337 -0.1001  0.1896 -0.1239
 2088TIP3    H127755   2.859   2.656   3.351  1.0459 -0.7345 -0.8381
 2088TIP3    H227756   2.924   2.739   3.242 -0.1142  1.2318 -0.0971
 2089TIP3   OH227757   6.045   4.089  11.713  0.5863  0.0046  0.2861
 2089TIP3    H127758   6.055   4.116  11.804 -0.3285 -1.4253  0.8319
 2089TIP3    H227759   6.002   4.004  11.717 -2.0133  1.1030 -1.5262
 2090TIP3   OH227760   5.393   1.813  13.340 -0.4099 -0.2503 -0.4901
 2090TIP3    H127761   5.359   1.791  13.254 -2.4023  0.0203  0.1871
 2090TIP3    H227762   5.318   1.805  13.399  0.2522  2.1240  0.8167
 2091TIP3   OH227763   3.136   5.443  11.351 -0.1711 -0.4501 -0.1788
 2091TIP3    H127764   3.142   5.349  11.332 -0.3539 -0.2385 -1.3657
 2091TIP3    H227765   3.068   5.449  11.419 -0.3134 -1.1539 -0.2457
 2092TIP3   OH227766   6.279   2.173  12.449 -0.0041  0.4804 -0.2157
 2092TIP3    H127767   6.220   2.201  12.379 -0.8593  0.8110  0.6116
 2092TIP3    H227768   6.238   2.094  12.485  0.1527  0.6047  0.2479
 2093TIP3   OH227769   4.461   2.817   0.057 -0.6381  0.4017  0.0401
 2093TIP3    H127770   4.458   2.736   0.107 -1.3289  0.7561  0.5996
 2093TIP3    H227771   4.375   2.822   0.014 -0.3346  0.4806 -0.5723
 2094TIP3   OH227772   4.788   6.310   3.663 -0.7868  0.0397 -0.3502
 2094TIP3    H127773   4.825   6.239   3.611 -1.9909 -1.2528  0.4695
 2094TIP3    H227774   4.862   6.342   3.715 -0.6087 -2.1036  0.8597
 2095TIP3   OH227775   0.785   2.511   5.328 -0.2608 -0.3643 -0.4143
 2095TIP3    H127776   0.740   2.485   5.248 -0.4100 -0.1383 -0.4058
 2095TIP3    H227777   0.754   2.600   5.345  0.1143 -0.2450 -0.3530
 2096TIP3   OH227778   0.406   2.759   4.747  0.1688  0.1548  0.3774
 2096TIP3    H127779   0.379   2.841   4.788 -0.5763 -0.2399  0.7100
 2096TIP3    H227780   0.426   2.782   4.657  0.2719  0.7558  0.5507
 2097TIP3   OH227781   1.300   3.620   6.532  0.1075 -0.1609 -0.5688
 2097TIP3    H127782   1.317   3.695   6.590 -0.5729  1.0489 -1.8782
 2097TIP3    H227783   1.324   3.650   6.445 -1.1552 -1.0985 -1.2839
 2098TIP3   OH227784   3.750   2.451  14.429  0.6761  0.0991 -0.4052
 2098TIP3    H127785   3.732   2.544  14.443  2.1406  0.4658 -0.8207
 2098TIP3    H227786   3.664   2.413  14.411  0.3021  1.7613 -2.4698
 2099TIP3   OH227787   0.879   6.360  13.210  0.5140 -0.1517 -0.2045
 2099TIP3    H127788   0.936   6.314  13.148 -1.1087  1.4215 -3.0336
 2099TIP3    H227789   0.938   6.418  13.258  1.5782  0.0614 -1.7161
 2100TIP3   OH227790   4.672   2.786  12.724  0.0048  0.1008  0.4238
 2100TIP3    H127791   4.755   2.831  12.710  0.3739 -0.7820 -0.2717
 2100TIP3    H227792   4.686   2.734  12.803  0.4785 -0.8681 -0.2838
 2101TIP3   OH227793   3.609   6.246  10.837 -0.1270 -0.3267 -0.5230
 2101TIP3    H127794   3.679   6.181  10.845  0.8945  0.8070  0.0614
 2101TIP3    H227795   3.653   6.331  10.845 -1.7470  0.4156  1.9006
 2102TIP3   OH227796   0.849   1.064   5.364  0.2492 -0.1963  0.3065
 2102TIP3    H127797   0.912   1.012   5.414 -1.2322 -0.5497  1.9196
 2102TIP3    H227798   0.779   1.082   5.426  0.2975  3.0871 -0.4096
 2103TIP3   OH227799   2.348   3.260  13.376  0.3336 -0.1629 -0.1145
 2103TIP3    H127800   2.265   3.219  13.353 -0.8174  1.0873  1.5198
 2103TIP3    H227801   2.356   3.334  13.315 -0.3051  0.3189  0.3662
 2104TIP3   OH227802   4.905   6.538  15.940 -0.4260  0.0361  0.7924
 2104TIP3    H127803   4.901   6.488  16.021 -0.5675 -0.3681  0.5405
 2104TIP3    H227804   4.993   6.520  15.905 -0.2713  0.4134  0.9826
 2105TIP3   OH227805   2.853   5.064   6.640  0.2403 -0.4661 -0.2315
 2105TIP3    H127806   2.790   5.136   6.644 -1.1147 -1.6049 -0.1097
 2105TIP3    H227807   2.816   4.998   6.699  0.6626 -1.8428 -1.4692
 2106TIP3   OH227808   6.517   1.279  15.776  0.2031  0.1601  0.3818
 2106TIP3    H127809   6.491   1.371  15.782  1.0867  0.4541 -0.0668
 2106TIP3    H227810   6.573   1.265  15.852 -1.1828 -0.4569  1.3233
 2107TIP3   OH227811   0.520   4.146   1.960 -0.0157 -0.0143 -0.0975
 2107TIP3    H127812   0.521   4.169   2.053  0.0575 -1.3274  0.2402
 2107TIP3    H227813   0.432   4.115   1.944  0.5939 -1.9529  0.1096
 2108TIP3   OH227814   1.997   5.812   3.409 -0.0225 -0.4839 -0.2946
 2108TIP3    H127815   1.933   5.864   3.458  0.6858  1.0708 -0.9599
 2108TIP3    H227816   1.959   5.724   3.407 -3.1936  0.7566 -2.4230
 2109TIP3   OH227817   3.812   2.235  14.612  0.1663 -0.7986 -0.1076
 2109TIP3    H127818   3.751   2.292  14.659  0.9070 -0.4469  0.4490
 2109TIP3    H227819   3.811   2.267  14.522  1.8858  1.2942  0.5216
 2110TIP3   OH227820   0.545   5.750  10.676 -0.8256 -0.3366  0.1078
 2110TIP3    H127821   0.621   5.744  10.734 -1.3184 -0.9022  0.7111
 2110TIP3    H227822   0.553   5.836  10.635 -0.5652  0.1661  1.1688
 2111TIP3   OH227823   3.575   0.201  12.562  0.2795 -0.1627  0.3379
 2111TIP3    H127824   3.528   0.261  12.503  0.7479  0.2524  0.3765
 2111TIP3    H227825   3.666   0.229  12.556  0.5713 -1.1293  0.0642
 2112TIP3   OH227826   5.145   4.328   1.677 -0.0310 -0.4507 -0.8177
 2112TIP3    H127827   5.160   4.384   1.601  2.5794  1.5498  0.9859
 2112TIP3    H227828   5.210   4.258   1.668  0.2245 -0.2577 -0.4971
 2113TIP3   OH227829   3.853   4.421   1.626  0.7343  0.3194 -0.1729
 2113TIP3    H127830   3.801   4.501   1.625 -0.8886 -0.7045 -1.1811
 2113TIP3    H227831   3.841   4.386   1.715  0.9139  0.8438  0.0610
 2114TIP3   OH227832   0.809   2.171  11.555 -0.2190 -0.2064  0.0259
 2114TIP3    H127833   0.833   2.147  11.644 -1.6499  0.4017  0.6093
 2114TIP3    H227834   0.714   2.184  11.558 -0.5120 -1.5029 -1.9112
 2115TIP3   OH227835   0.491   3.956  17.078 -0.3959  0.1302 -0.7909
 2115TIP3    H127836   0.415   3.993  17.032  0.1247 -1.1661 -2.8283
 2115TIP3    H227837   0.567   3.997  17.037  0.0563  0.2353  0.1288
 2116TIP3   OH227838   1.228   6.329   4.049 -1.1052 -0.4614  0.5395
 2116TIP3    H127839   1.323   6.340   4.045 -1.0361 -1.2552 -0.0617
 2116TIP3    H227840   1.194   6.418   4.063 -0.2507 -0.2588  1.4164
 2117TIP3   OH227841   1.402   6.075  11.665  0.2577 -0.1827 -1.0108
 2117TIP3    H127842   1.438   6.160  11.640  0.6620 -0.0417  0.0160
 2117TIP3    H227843   1.476   6.015  11.661  0.1276 -0.3419 -1.0460
 2118TIP3   OH227844   5.666   0.399   3.856 -0.3164 -0.0501 -0.1536
 2118TIP3    H127845   5.678   0.492   3.836 -2.5188 -0.0366 -1.8573
 2118TIP3    H227846   5.600   0.397   3.925  0.1949 -0.3599  0.3369
 2119TIP3   OH227847   0.180   2.184  11.341  0.4523 -0.0803 -0.0058
 2119TIP3    H127848   0.245   2.251  11.362  0.3045 -0.3573  1.4296
 2119TIP3    H227849   0.225   2.126  11.279  0.3832  1.6231 -1.7452
 2120TIP3   OH227850   3.048   4.486  15.491 -0.1008 -0.0603 -0.4646
 2120TIP3    H127851   3.000   4.479  15.409  1.6073 -1.9000 -1.4096
 2120TIP3    H227852   3.099   4.405  15.495  0.2223  0.1914  2.1974
 2121TIP3   OH227853   0.613   3.240  16.468  0.1971 -0.1000  0.3366
 2121TIP3    H127854   0.667   3.168  16.436  0.2597 -0.5998  1.5068
 2121TIP3    H227855   0.628   3.242  16.562 -0.9293  0.4991  0.5306
 2122TIP3   OH227856   0.142   2.896   1.119  0.7584  0.0453 -0.4478
 2122TIP3    H127857   0.199   2.819   1.125  0.9977  0.2983  0.8635
 2122TIP3    H227858   0.173   2.954   1.189 -1.7097 -0.2283  0.9906
 2123TIP3   OH227859   6.406   5.700   4.022  0.6635  0.0133  0.5209
 2123TIP3    H127860   6.378   5.753   4.097 -2.2813 -1.3050  0.4881
 2123TIP3    H227861   6.502   5.701   4.026  0.6272  1.5703  3.1494
 2124TIP3   OH227862   6.460   2.900   4.141  0.1345  0.7985  0.1798
 2124TIP3    H127863   6.386   2.855   4.180 -0.8015  1.7186 -0.4650
 2124TIP3    H227864   6.536   2.870   4.191 -0.6706 -0.1221  0.8878
 2125TIP3   OH227865   5.381   6.374   2.764  0.0914 -0.1076 -0.8703
 2125TIP3    H127866   5.418   6.460   2.783  1.5917 -1.0323  0.6118
 2125TIP3    H227867   5.291   6.379   2.796  1.0534  0.0087  2.1318
 2126TIP3   OH227868   2.173   6.464   5.908 -0.0352  0.0174 -0.0498
 2126TIP3    H127869   2.240   6.506   5.853 -1.0684 -0.1418 -1.4674
 2126TIP3    H227870   2.156   6.380   5.865 -2.2288  0.6846 -0.6162
 2127TIP3   OH227871   5.556   5.718  11.435  0.7379 -0.0096  0.3887
 2127TIP3    H127872   5.615   5.652  11.398  0.3944 -0.5463  0.7779
 2127TIP3    H227873   5.486   5.667  11.475 -0.7029  0.6244 -1.1931
 2128TIP3   OH227874   2.918   2.647  12.422  0.5159  0.1031  0.3762
 2128TIP3    H127875   2.825   2.624  12.410  0.0805  1.1018  1.6202
 2128TIP3    H227876   2.950   2.587  12.489  1.7155 -2.4146 -2.2289
 2129TIP3   OH227877   5.375   4.511   5.626 -0.5105  0.2573  0.2208
 2129TIP3    H127878   5.410   4.425   5.605 -2.3109 -0.6886  0.8851
 2129TIP3    H227879   5.347   4.548   5.542 -0.8055 -0.3200  0.0611
 2130TIP3   OH227880   0.684   4.681  16.026 -0.0926 -0.1622 -0.2418
 2130TIP3    H127881   0.658   4.615  16.091 -0.4489  0.5610  0.3643
 2130TIP3    H227882   0.725   4.630  15.955 -1.2745 -1.1458 -0.2597
 2131TIP3   OH227883   1.155   5.960  16.508  0.1239  0.4195 -0.2655
 2131TIP3    H127884   1.068   5.993  16.529  0.8766  1.4871  1.3414
 2131TIP3    H227885   1.163   5.881  16.561 -0.6436 -0.9705 -2.0801
 2132TIP3   OH227886   6.356   4.283   2.654 -0.1074 -0.5272 -0.0028
 2132TIP3    H127887   6.414   4.358   2.640 -0.4840 -0.4306 -1.1880
 2132TIP3    H227888   6.396   4.235   2.726  0.7011  0.2657  0.1011
 2133TIP3   OH227889   0.245   5.210   6.469  0.2056  0.0862  0.1684
 2133TIP3    H127890   0.173   5.223   6.407  1.9688 -0.2797 -2.0877
 2133TIP3    H227891   0.257   5.115   6.472  1.5761  0.2045 -0.7330
 2134TIP3   OH227892   5.652   3.298   0.601  0.6153  0.7188 -0.0930
 2134TIP3    H127893   5.675   3.260   0.516 -1.3886  2.3786 -1.4374
 2134TIP3    H227894   5.735   3.298   0.650  1.5718 -1.3151 -1.5779
 2135TIP3   OH227895   0.165   3.047  15.099 -0.2793  0.0076  0.0760
 2135TIP3    H127896   0.078   3.022  15.130 -0.6565 -0.5526 -1.3300
 2135TIP3    H227897   0.163   3.027  15.005  0.2686  3.0546 -0.6669
 2136TIP3   OH227898   4.992   2.194   0.913 -0.9591 -0.0878  0.0182
 2136TIP3    H127899   4.972   2.123   0.974 -1.4008 -0.1764 -0.2211
 2136TIP3    H227900   4.971   2.274   0.960 -0.9614 -0.1395  0.1049
 2137TIP3   OH227901   0.831   1.828   0.220 -0.4287  0.2310 -0.5219
 2137TIP3    H127902   0.784   1.750   0.248  1.0758  0.1210  1.9896
 2137TIP3    H227903   0.838   1.882   0.299  1.1895  1.5224 -1.4677
 2138TIP3   OH227904   4.669   4.870   3.758  0.0943  0.0907  0.2183
 2138TIP3    H127905   4.630   4.865   3.670 -0.5978 -0.1941  0.5291
 2138TIP3    H227906   4.698   4.780   3.776  1.6817  0.4693 -0.3463
 2139TIP3   OH227907   4.648   5.375   5.475 -0.1536 -0.0179 -0.0547
 2139TIP3    H127908   4.585   5.323   5.525  0.3145 -1.5010 -0.9155
 2139TIP3    H227909   4.607   5.387   5.389  0.7394 -1.1502 -0.6845
 2140TIP3   OH227910   0.581   5.862   0.484 -0.3870  0.6341  0.1114
 2140TIP3    H127911   0.620   5.865   0.572  0.1575  2.5658 -0.1469
 2140TIP3    H227912   0.623   5.787   0.442  0.6022  0.6850  0.9518
 2141TIP3   OH227913   0.670   4.402   5.341  0.6277 -0.2154 -0.2263
 2141TIP3    H127914   0.602   4.336   5.349 -1.7166  2.0380 -0.0200
 2141TIP3    H227915   0.645   4.453   5.264  0.9629  1.8028  0.9181
 2142TIP3   OH227916   0.216   1.941   3.693 -0.1725  0.1344  0.2995
 2142TIP3    H127917   0.254   1.856   3.670  0.3859  0.2824  0.6392
 2142TIP3    H227918   0.122   1.927   3.692 -0.0753 -0.6196  0.8197
 2143TIP3   OH227919   5.988   6.222   1.833 -0.1033  0.3996  0.1695
 2143TIP3    H127920   6.064   6.166   1.850  0.4543  1.2062  0.3691
 2143TIP3    H227921   5.984   6.280   1.909  0.9553  2.4453 -1.2570
 2144TIP3   OH227922   6.786   4.883   0.440 -0.5950 -0.1232  0.8276
 2144TIP3    H127923   6.842   4.811   0.469 -0.7073 -0.1548  0.9678
 2144TIP3    H227924   6.764   4.860   0.350  0.5442  0.4654  0.3780
 2145TIP3   OH227925   5.521   4.363   2.714  0.7580  0.3739  0.0853
 2145TIP3    H127926   5.595   4.303   2.714  0.8050  0.4120 -1.2884
 2145TIP3    H227927   5.470   4.338   2.637 -0.3837  0.6890  0.7165
 2146TIP3   OH227928   1.167   5.781   3.977 -0.2703  0.0012  0.6513
 2146TIP3    H127929   1.087   5.806   4.022 -2.0702 -1.5851 -1.4697
 2146TIP3    H227930   1.153   5.808   3.886  0.4671 -2.5779 -0.3134
 2147TIP3   OH227931   6.670   0.079   5.455  0.2565  0.3725 -0.3263
 2147TIP3    H127932   6.620   0.071   5.536  1.1251  0.4617  0.2406
 2147TIP3    H227933   6.722  -0.002   5.451  1.7683  1.2616  0.3206
 2148TIP3   OH227934   2.232   1.544   5.504  0.0544  0.6011  0.0474
 2148TIP3    H127935   2.311   1.518   5.456 -0.3466  0.2371 -0.4255
 2148TIP3    H227936   2.265   1.598   5.576  1.0406 -1.9413  1.6679
 2149TIP3   OH227937   0.809   5.072  13.573  0.0471  0.2001 -0.0408
 2149TIP3    H127938   0.717   5.053  13.591 -0.2874 -0.0509 -1.8208
 2149TIP3    H227939   0.851   4.987  13.568  0.3320  0.3045  0.4854
 2150TIP3   OH227940   5.021   3.474   3.021  0.1973 -0.4552  0.2563
 2150TIP3    H127941   4.958   3.428   3.076  1.4751 -2.0923  0.4112
 2150TIP3    H227942   4.975   3.552   2.992 -1.5332 -1.0856  1.2000
 2151TIP3   OH227943   4.955   6.178   0.559 -0.0263 -0.1339  0.4250
 2151TIP3    H127944   4.976   6.186   0.652 -1.2792  0.4695  0.6799
 2151TIP3    H227945   4.952   6.268   0.527  5.5030 -0.2825 -1.5217
 2152TIP3   OH227946   4.349   0.086   2.396 -0.0680 -0.1106 -0.0015
 2152TIP3    H127947   4.271   0.057   2.347  0.5792 -1.5499 -0.2473
 2152TIP3    H227948   4.421   0.075   2.334  0.5686 -0.5391  0.7982
 2153TIP3   OH227949   0.423   2.678   0.667 -0.3313 -0.6555 -0.2459
 2153TIP3    H127950   0.370   2.642   0.596 -1.6878 -0.1270  0.4588
 2153TIP3    H227951   0.362   2.689   0.740  0.6066  0.5691  0.4090
 2154TIP3   OH227952   2.311   1.211   2.854 -0.4116 -0.0253 -0.1891
 2154TIP3    H127953   2.359   1.259   2.788 -2.0649  1.2420 -0.5237
 2154TIP3    H227954   2.219   1.228   2.835 -0.9962 -1.5073  1.0496
 2155TIP3   OH227955   4.654   1.920  13.033 -0.0324  0.8105 -0.3438
 2155TIP3    H127956   4.588   1.970  12.984  0.1466  1.8125  0.3939
 2155TIP3    H227957   4.620   1.831  13.034 -0.9418  1.1285 -0.7380
 2156TIP3   OH227958   4.059   1.441  15.204 -0.2940 -0.2313 -0.2305
 2156TIP3    H127959   4.027   1.389  15.130  0.4194  0.7760 -1.2859
 2156TIP3    H227960   4.118   1.505  15.164  0.1893  0.2718  1.2366
 2157TIP3   OH227961   6.747   2.951   1.791 -0.4087 -0.6125  0.0028
 2157TIP3    H127962   6.767   3.043   1.771  0.0147 -0.6455  0.2733
 2157TIP3    H227963   6.831   2.906   1.782 -0.7819 -1.1338 -1.0240
 2158TIP3   OH227964   2.730   2.083  15.196  0.3929 -0.1878 -0.0591
 2158TIP3    H127965   2.684   2.166  15.182  1.0808  0.1784 -0.1847
 2158TIP3    H227966   2.660   2.018  15.204 -0.2052  0.5852  1.2939
 2159TIP3   OH227967   3.033   1.548  14.155  0.3373 -0.1757 -0.1850
 2159TIP3    H127968   3.040   1.566  14.249 -0.7988 -0.1749 -0.0962
 2159TIP3    H227969   3.097   1.479  14.140  1.0796  0.3454  0.4363
 2160TIP3   OH227970   1.395   1.986   0.802 -0.0599 -0.0726 -0.0073
 2160TIP3    H127971   1.311   2.009   0.763  0.2005 -0.6876 -0.9524
 2160TIP3    H227972   1.389   2.019   0.892 -1.1370  0.2768 -0.1922
 2161TIP3   OH227973   4.344   4.517  12.549  0.6174 -0.1311  0.1708
 2161TIP3    H127974   4.356   4.588  12.612 -2.8712 -0.2214  1.1200
 2161TIP3    H227975   4.301   4.557  12.474  0.3217 -0.9231 -0.0918
 2162TIP3   OH227976   3.808   6.472  13.075  0.4218  0.0846  0.0300
 2162TIP3    H127977   3.900   6.466  13.048  0.2854  0.6258 -0.5869
 2162TIP3    H227978   3.767   6.394  13.038  0.3963  0.4362 -0.6967
 2163TIP3   OH227979   3.252   4.489   0.687  0.7825 -0.0255 -0.2290
 2163TIP3    H127980   3.347   4.498   0.699  0.7844  0.7834 -0.7811
 2163TIP3    H227981   3.217   4.487   0.776  1.5183 -3.0608  0.0919
 2164TIP3   OH227982   5.450   4.063  12.408  0.0903  0.0173 -0.5434
 2164TIP3    H127983   5.412   3.980  12.438 -0.6711  0.2040 -0.9632
 2164TIP3    H227984   5.542   4.056  12.431 -0.0612 -0.7375 -0.1121
 2165TIP3   OH227985   0.777   0.236  11.922  0.1357  0.5916  0.3977
 2165TIP3    H127986   0.724   0.250  11.844  0.7679  1.1921  0.0638
 2165TIP3    H227987   0.824   0.319  11.935 -1.3901  1.2004  2.5355
 2166TIP3   OH227988   1.912   2.829  11.133 -0.3966  0.0034  0.4832
 2166TIP3    H127989   1.941   2.851  11.044 -2.5082 -0.4247 -0.3713
 2166TIP3    H227990   1.902   2.914  11.177  0.1181  0.2439  0.1438
 2167TIP3   OH227991   2.194   3.686   1.320 -0.4656 -0.5208  0.3039
 2167TIP3    H127992   2.122   3.665   1.261 -1.3897 -2.7847  2.0832
 2167TIP3    H227993   2.153   3.705   1.404  0.9445 -0.1604  0.9537
 2168TIP3   OH227994   1.262   0.504   2.833  0.1332  0.0599  0.6775
 2168TIP3    H127995   1.170   0.480   2.841  0.2339 -0.9856 -0.8830
 2168TIP3    H227996   1.262   0.599   2.833 -0.9741  0.0769  0.5401
 2169TIP3   OH227997   0.601   1.687  13.951 -0.2256  0.2225  1.1388
 2169TIP3    H127998   0.560   1.606  13.923 -1.7385  1.3923 -0.2286
 2169TIP3    H227999   0.578   1.696  14.043 -1.0409 -0.3434  0.9997
 2170TIP3   OH228000   2.009   2.752  15.172  0.2295 -0.1076  0.4828
 2170TIP3    H128001   1.994   2.784  15.261  0.0189  0.4194  0.2589
 2170TIP3    H228002   1.924   2.717  15.145  0.2775 -0.2090  0.4606
 2171TIP3   OH228003   4.913   6.759  16.091 -0.2316  0.2636  0.5045
 2171TIP3    H128004   4.825   6.795  16.105 -0.4219 -0.7728  2.1026
 2171TIP3    H228005   4.899   6.683  16.034 -0.2194  0.7332 -0.1402
 2172TIP3   OH228006   5.218   0.081   0.712  0.7194 -0.0523 -0.3079
 2172TIP3    H128007   5.169   0.005   0.681 -1.1265  0.7904  0.3781
 2172TIP3    H228008   5.303   0.046   0.738 -0.1182 -1.9018  0.1088
 2173TIP3   OH228009   6.454   3.257   2.870 -0.1705 -0.4951  0.2536
 2173TIP3    H128010   6.414   3.268   2.784 -0.4441 -0.3608  0.3969
 2173TIP3    H228011   6.402   3.188   2.911 -0.7876  0.2522  0.7577
 2174TIP3   OH228012   5.048   3.037   6.423  0.1531  0.0180 -0.4767
 2174TIP3    H128013   5.090   2.982   6.489 -1.3733 -0.3076  0.2756
 2174TIP3    H228014   5.066   3.127   6.451 -1.2913 -0.1056  0.9776
 2175TIP3   OH228015   1.589   3.728  10.866  0.5434  0.2664 -0.4322
 2175TIP3    H128016   1.651   3.677  10.917  0.3167  0.8736  0.4797
 2175TIP3    H228017   1.643   3.775  10.802  0.7918 -0.7723 -1.0068
 2176TIP3   OH228018   6.729   2.733  13.219  0.3259 -0.1048 -0.4773
 2176TIP3    H128019   6.810   2.694  13.251 -0.2164 -0.2563  0.7572
 2176TIP3    H228020   6.675   2.659  13.192  0.7425  0.0175 -1.7018
 2177TIP3   OH228021   2.542   5.546   5.577  0.2409 -0.6232 -0.2078
 2177TIP3    H128022   2.607   5.533   5.508 -1.8453  0.3571 -2.5269
 2177TIP3    H228023   2.558   5.635   5.609 -1.0221  0.3787 -2.1393
 2178TIP3   OH228024   3.303   6.322  11.257  0.5291 -0.1035 -0.2983
 2178TIP3    H128025   3.369   6.319  11.325  0.5912 -1.8520 -0.3955
 2178TIP3    H228026   3.235   6.381  11.291  0.8649 -0.4361  0.9758
 2179TIP3   OH228027   5.158   6.656   0.597  0.2501  0.2263 -0.2527
 2179TIP3    H128028   5.195   6.572   0.623  0.2178 -0.5403 -2.4268
 2179TIP3    H228029   5.205   6.678   0.516 -2.9712 -0.1076 -2.3796
 2180TIP3   OH228030   0.620   5.655  13.311  0.4627  0.3242 -0.1943
 2180TIP3    H128031   0.567   5.577  13.293  1.4205 -0.7764  1.4768
 2180TIP3    H228032   0.710   5.626  13.299  0.8276  1.3026  0.0587
 2181TIP3   OH228033   3.948   3.055   5.574 -0.1570  0.0961  0.0384
 2181TIP3    H128034   3.943   2.997   5.498  0.7747 -0.1541  0.1545
 2181TIP3    H228035   4.029   3.106   5.560 -0.7715  1.1303  0.1051
 2182TIP3   OH228036   1.114   4.867  12.099  0.2220  0.3445  0.4643
 2182TIP3    H128037   1.050   4.839  12.164  0.1172  0.4338  0.3997
 2182TIP3    H228038   1.063   4.918  12.036  0.4667  0.9395  0.7399
 2183TIP3   OH228039   6.519   0.442  15.456 -0.0334  0.0363  0.7530
 2183TIP3    H128040   6.427   0.471  15.455 -0.3826 -1.0282 -0.2365
 2183TIP3    H228041   6.556   0.481  15.376  0.2611  0.0941  0.9191
 2184TIP3   OH228042   0.320   2.259  17.151 -0.1342 -0.1991 -0.0667
 2184TIP3    H128043   0.301   2.348  17.183  1.8101 -0.6089  2.5496
 2184TIP3    H228044   0.248   2.206  17.184 -1.7933  0.4470 -2.4036
 2185TIP3   OH228045   1.280   5.380  12.904 -0.6924  0.0465 -0.0129
 2185TIP3    H128046   1.251   5.448  12.965 -0.4030 -0.3326  0.5561
 2185TIP3    H228047   1.242   5.405  12.820 -3.1647 -0.7164  0.7962
 2186TIP3   OH228048   2.138   0.547   4.207 -0.3331  0.2049 -0.2760
 2186TIP3    H128049   2.093   0.599   4.141  2.1522 -1.1842 -3.3350
 2186TIP3    H228050   2.221   0.592   4.220  0.9429 -1.6962 -1.3470
 2187TIP3   OH228051   2.670   0.461  13.710 -0.0052  0.2025 -0.0540
 2187TIP3    H128052   2.759   0.494  13.703 -0.1343  0.4227 -0.7033
 2187TIP3    H228053   2.676   0.369  13.682 -0.3165  0.7616 -2.0957
 2188TIP3   OH228054   2.032   4.091   2.306  0.2389  0.2623 -0.0077
 2188TIP3    H128055   2.049   3.998   2.292  2.9174  0.9553 -2.1085
 2188TIP3    H228056   1.963   4.112   2.243 -0.4394 -0.2823  0.5351
 2189TIP3   OH228057   4.818   6.733   2.347  0.0227  0.5644  0.3899
 2189TIP3    H128058   4.855   6.667   2.405 -1.8413 -0.6185  0.3024
 2189TIP3    H228059   4.869   6.726   2.267  1.9858  1.5499  1.4703
 2190TIP3   OH228060   0.703   6.423  13.921 -0.4315 -0.4167 -0.0204
 2190TIP3    H128061   0.632   6.449  13.863  1.5226  1.3692 -1.7605
 2190TIP3    H228062   0.782   6.462  13.883  1.6445 -2.8930  1.3821
 2191TIP3   OH228063   2.228   2.507  12.515  0.2526 -0.3980 -0.0175
 2191TIP3    H128064   2.211   2.533  12.424  2.0847 -1.0744 -0.6142
 2191TIP3    H228065   2.257   2.587  12.558  1.0013 -0.3996 -0.4986
 2192TIP3   OH228066   2.855   5.496   4.633 -0.2157  0.5873 -0.4677
 2192TIP3    H128067   2.852   5.428   4.701 -0.9030 -1.0263 -2.0202
 2192TIP3    H228068   2.907   5.456   4.562 -0.2573  1.8737 -1.2464
 2193TIP3   OH228069   4.670   3.161  13.868 -0.8239 -0.4265  0.4001
 2193TIP3    H128070   4.704   3.213  13.940 -1.1696 -0.5831  0.6769
 2193TIP3    H228071   4.740   3.098  13.848 -0.0878  0.6235 -0.4404
 2194TIP3   OH228072   1.092   3.207  14.365  0.3423  0.5079 -0.0074
 2194TIP3    H128073   1.174   3.210  14.316 -0.7083 -0.5356 -1.9646
 2194TIP3    H228074   1.085   3.293  14.406  1.5396  1.2712 -1.3041
 2195TIP3   OH228075   1.965   4.508   1.329  0.2324  0.2666  0.1995
 2195TIP3    H128076   2.004   4.478   1.247 -1.2986  0.2156 -0.5454
 2195TIP3    H228077   2.020   4.581   1.357  2.3005 -1.3077  0.5070
 2196TIP3   OH228078   2.688   1.190   1.700 -0.0658 -0.2706  0.8237
 2196TIP3    H128079   2.623   1.136   1.656 -2.5957  2.5996  0.7629
 2196TIP3    H228080   2.699   1.267   1.645  0.9462  0.8321  2.4459
 2197TIP3   OH228081   0.572   1.583   2.494 -0.0067  0.0780  0.0878
 2197TIP3    H128082   0.631   1.596   2.568 -0.4266  1.0693  0.2575
 2197TIP3    H228083   0.490   1.624   2.521 -0.1776  0.4203 -0.9142
 2198TIP3   OH228084   3.133   1.709  15.228 -0.2092 -0.0210 -0.2975
 2198TIP3    H128085   3.140   1.785  15.170 -1.3319  0.9567  0.7763
 2198TIP3    H228086   3.224   1.684  15.245  0.2260  1.5414 -0.1359
 2199TIP3   OH228087   1.240   3.215   5.024  0.7583  0.3659 -0.3552
 2199TIP3    H128088   1.157   3.252   5.056 -0.8553 -2.7985 -0.4725
 2199TIP3    H228089   1.294   3.205   5.102 -1.0365 -2.2280  0.6947
 2200TIP3   OH228090   1.243   1.044  16.780 -0.1315 -0.7277  0.2003
 2200TIP3    H128091   1.229   0.989  16.856  1.5928 -3.0393 -1.0132
 2200TIP3    H228092   1.156   1.072  16.752 -0.7522  1.4292  3.7411
 2201TIP3   OH228093   0.081   4.512   5.477 -0.0464  0.0885 -0.3479
 2201TIP3    H128094   0.118   4.461   5.405  0.2245 -0.4065  0.1371
 2201TIP3    H228095   0.053   4.594   5.436 -3.2339 -1.5277 -1.7601
 2202TIP3   OH228096   3.423   2.994  12.337 -0.6273 -0.3133 -0.1738
 2202TIP3    H128097   3.355   3.021  12.275 -1.3820 -0.4136  0.5888
 2202TIP3    H228098   3.468   2.922  12.293 -0.6989  0.0619 -0.8853
 2203TIP3   OH228099   5.049   5.883  15.321  0.4152  0.3773 -0.5274
 2203TIP3    H128100   4.961   5.903  15.353 -0.5512 -2.4420 -1.1002
 2203TIP3    H228101   5.098   5.858  15.400  0.0734 -0.0189 -0.4362
 2204TIP3   OH228102   2.596   3.360   3.643  0.2322 -0.2524  0.1422
 2204TIP3    H128103   2.626   3.422   3.709 -1.1784 -1.2507  1.8106
 2204TIP3    H228104   2.530   3.409   3.593 -0.2550 -0.1412  0.8872
 2205TIP3   OH228105   4.211   3.393   0.253 -0.2316  0.1436 -0.0499
 2205TIP3    H128106   4.261   3.338   0.193 -0.3619  2.0164 -1.9721
 2205TIP3    H228107   4.152   3.443   0.197 -2.0909  0.2725  1.8713
 2206TIP3   OH228108   5.022   6.594  14.178  0.3494  0.1405 -0.2715
 2206TIP3    H128109   5.003   6.675  14.226  0.9035 -0.8119  1.6553
 2206TIP3    H228110   4.938   6.548  14.173  0.2655  0.3011 -0.3568
 2207TIP3   OH228111   4.773   2.004  14.098 -0.0899  0.5468 -0.0514
 2207TIP3    H128112   4.718   2.081  14.085  1.4897  1.6732 -0.2729
 2207TIP3    H228113   4.748   1.972  14.185 -1.2341  0.9011 -0.2327
 2208TIP3   OH228114   5.634   6.700  14.190 -0.3117 -0.4187 -0.2617
 2208TIP3    H128115   5.705   6.705  14.254 -1.9180 -3.1338  1.9569
 2208TIP3    H228116   5.679   6.698  14.105  1.9801  1.8380  0.7402
 2209TIP3   OH228117   6.196   2.887  12.537 -0.4026 -0.3412 -0.4119
 2209TIP3    H128118   6.183   2.803  12.492 -1.2660 -0.1693 -0.4916
 2209TIP3    H228119   6.211   2.863  12.628  0.8256 -0.6606 -0.6831
 2210TIP3   OH228120   2.641   5.821  15.764 -0.0156  0.3960  0.1016
 2210TIP3    H128121   2.665   5.904  15.806 -1.4164  0.9138 -0.0771
 2210TIP3    H228122   2.619   5.845  15.674 -0.7451 -0.1111  0.1387
 2211TIP3   OH228123   4.134   2.670  14.933  0.8247 -0.4476  0.0204
 2211TIP3    H128124   4.137   2.575  14.936 -0.3284 -0.4736  1.3192
 2211TIP3    H228125   4.078   2.695  15.006  1.3356  1.2479 -0.1109
 2212TIP3   OH228126   4.671   3.230  15.904  0.0335  0.2088 -0.0401
 2212TIP3    H128127   4.688   3.238  15.810  0.2460  0.1966 -0.0027
 2212TIP3    H228128   4.598   3.168  15.910 -0.2024  0.4652 -0.2149
 2213TIP3   OH228129   6.724   4.864  15.071  0.5405 -0.0886 -0.2269
 2213TIP3    H128130   6.723   4.911  14.987 -0.7104  0.7059  0.2102
 2213TIP3    H228131   6.733   4.933  15.137 -2.7845 -0.2245  0.5202
 2214TIP3   OH228132   5.771   1.336   5.935  0.0259  0.3466  0.3746
 2214TIP3    H128133   5.776   1.368   6.025 -0.8677  0.2119  0.4753
 2214TIP3    H228134   5.698   1.274   5.935 -0.3751  0.8022 -0.5849
 2215TIP3   OH228135   3.842   3.538  12.772  0.4469  0.9491 -0.4058
 2215TIP3    H128136   3.799   3.453  12.762  1.6861 -0.0623  1.9043
 2215TIP3    H228137   3.855   3.547  12.867  3.0027  2.3191 -0.7795
 2216TIP3   OH228138   4.164   6.621   3.624 -0.8942 -0.1540 -0.2959
 2216TIP3    H128139   4.165   6.659   3.536 -0.8885  1.6136  0.4442
 2216TIP3    H228140   4.241   6.658   3.668  0.4277 -2.7708 -0.2125
 2217TIP3   OH228141   0.929   5.401  16.873 -0.9172 -0.1270  0.2731
 2217TIP3    H128142   0.854   5.401  16.933 -1.7702 -0.5399 -0.7630
 2217TIP3    H228143   0.893   5.433  16.791  0.1883  0.2141 -0.0943
 2218TIP3   OH228144   2.977   4.303   4.119  0.1298  0.0602  0.1038
 2218TIP3    H128145   2.928   4.351   4.053 -1.5795 -0.6296  0.7926
 2218TIP3    H228146   2.976   4.212   4.088  1.1869  0.0675  0.0251
 2219TIP3   OH228147   2.036   2.430   1.364 -0.1441  0.3124 -0.7230
 2219TIP3    H128148   2.076   2.408   1.280  2.4297 -0.7520  0.6759
 2219TIP3    H228149   1.988   2.512   1.348  4.1001  2.7787 -2.2369
 2220TIP3   OH228150   2.024   1.164  14.718 -0.1393 -0.2615  0.4072
 2220TIP3    H128151   2.068   1.095  14.669  1.1667  1.5175 -1.0841
 2220TIP3    H228152   2.095   1.206  14.769 -0.7330  0.5000  0.6345
 2221TIP3   OH228153   1.210   1.580  12.038  0.7215 -0.1233 -0.0453
 2221TIP3    H128154   1.141   1.646  12.044  0.8448  0.0731 -0.7532
 2221TIP3    H228155   1.199   1.541  11.951  1.3693 -0.2368 -0.0821
 2222TIP3   OH228156   2.680   2.902  17.007 -0.1950  0.1440  0.8224
 2222TIP3    H128157   2.668   2.987  16.964 -2.1889 -0.7858 -0.6421
 2222TIP3    H228158   2.761   2.867  16.971 -1.0660  0.0420 -1.1781
 2223TIP3   OH228159   6.196   3.759  13.579  0.2760  0.4063 -0.0738
 2223TIP3    H128160   6.143   3.839  13.585  0.1226  0.2734  0.4051
 2223TIP3    H228161   6.265   3.771  13.645 -1.2456 -0.9493  1.8702
 2224TIP3   OH228162   3.051   1.851  13.022 -0.4148 -0.2459 -0.2494
 2224TIP3    H128163   3.142   1.847  13.052  0.1236  1.1696 -1.5374
 2224TIP3    H228164   3.016   1.763  13.038  1.4295 -1.0597 -0.4395
 2225TIP3   OH228165   5.552   5.882   1.006  0.2851 -0.3126  0.8316
 2225TIP3    H128166   5.459   5.903   0.996  0.0982 -0.7946  1.5551
 2225TIP3    H228167   5.557   5.787   1.003  0.8232 -0.2776  0.2859
 2226TIP3   OH228168   6.663   6.299  13.314 -0.0549  0.0086  0.1136
 2226TIP3    H128169   6.668   6.394  13.330 -0.7333  0.0403  0.1368
 2226TIP3    H228170   6.741   6.264  13.357 -0.0357  0.4988  0.4888
 2227TIP3   OH228171   4.071   0.833   1.266  0.3289 -0.0422 -0.1397
 2227TIP3    H128172   4.031   0.848   1.180 -0.7289 -3.1493 -0.3219
 2227TIP3    H228173   4.022   0.889   1.326 -0.9172 -0.0156 -1.1523
 2228TIP3   OH228174   2.576   0.991   0.493  0.7434 -0.5616  0.5032
 2228TIP3    H128175   2.609   0.914   0.448  1.4471 -0.3993  0.7255
 2228TIP3    H228176   2.508   1.026   0.435  0.6974 -1.1114  0.2158
 2229TIP3   OH228177   0.931   3.786   4.409 -1.4206  0.2549 -0.0734
 2229TIP3    H128178   0.900   3.819   4.324 -0.9044  0.2522 -0.2674
 2229TIP3    H228179   0.997   3.849   4.436 -1.1352 -0.0880  0.0271
 2230TIP3   OH228180   0.530   5.563   3.723 -0.2667 -0.0657  0.5941
 2230TIP3    H128181   0.443   5.574   3.759 -0.1007 -0.7979  1.2488
 2230TIP3    H228182   0.589   5.580   3.797  0.0634 -2.2423  0.8969
 2231TIP3   OH228183   1.742   0.028  17.047 -0.2389  0.3222  0.2284
 2231TIP3    H128184   1.741   0.001  17.139  1.6747  0.8951  0.4630
 2231TIP3    H228185   1.832   0.011  17.018 -0.5747  0.9615 -1.2939
 2232TIP3   OH228186   1.878   1.490   2.075 -0.5289 -0.0408 -0.2711
 2232TIP3    H128187   1.959   1.455   2.113 -0.2092 -0.9595 -1.7232
 2232TIP3    H228188   1.835   1.535   2.148  1.4941  0.8790  0.4349
 2233TIP3   OH228189   6.713   0.478   3.521  0.1045 -0.0683 -0.5474
 2233TIP3    H128190   6.730   0.434   3.604  1.4812 -1.4471 -1.5097
 2233TIP3    H228191   6.637   0.535   3.539  0.3735 -0.3181  1.6194
 2234TIP3   OH228192   5.444   6.121   2.404 -0.0534 -0.2361  1.0680
 2234TIP3    H128193   5.524   6.096   2.358 -1.4576  1.0562 -2.4548
 2234TIP3    H228194   5.381   6.052   2.381 -0.2090 -0.9005  3.2706
 2235TIP3   OH228195   3.988   2.646   0.380  0.5097  0.2916 -0.4015
 2235TIP3    H128196   3.974   2.579   0.314  0.5059 -1.1247  0.9731
 2235TIP3    H228197   3.929   2.622   0.452  1.8722  0.6544  0.8999
 2236TIP3   OH228198   1.968   2.437   3.015 -0.2653 -0.0038  0.5950
 2236TIP3    H128199   2.020   2.486   3.079 -0.5393 -2.2633  2.6848
 2236TIP3    H228200   1.912   2.504   2.975  1.8823  1.9612  0.6041
 2237TIP3   OH228201   4.678   5.697  15.820  0.0495 -0.3997  0.0716
 2237TIP3    H128202   4.631   5.664  15.896  1.5984 -0.4009  1.0660
 2237TIP3    H228203   4.769   5.670  15.834  0.2512 -1.1266 -2.1842
 2238TIP3   OH228204   2.344   6.325   1.481 -0.1461 -0.3512  0.0256
 2238TIP3    H128205   2.352   6.417   1.455  0.6955 -0.0339  1.3030
 2238TIP3    H228206   2.254   6.318   1.514  0.1157  0.3222  0.9465
 2239TIP3   OH228207   1.577   1.401   5.521 -0.9617  0.1792 -0.7333
 2239TIP3    H128208   1.604   1.491   5.538  2.5946 -0.9742  0.7687
 2239TIP3    H228209   1.597   1.387   5.428 -0.2998  0.6019 -0.6620
 2240TIP3   OH228210   5.556   2.532  16.465 -0.2252 -0.0663 -0.4867
 2240TIP3    H128211   5.605   2.546  16.546 -0.0729  1.4030 -0.8028
 2240TIP3    H228212   5.574   2.441  16.442  1.1849  0.0017  0.1892
 2241TIP3   OH228213   0.545   0.647   3.077  0.3209 -0.0864  0.3405
 2241TIP3    H128214   0.555   0.552   3.084 -1.5054 -0.3761 -0.4833
 2241TIP3    H228215   0.452   0.660   3.059  0.6349  1.8374 -0.0832
 2242TIP3   OH228216   0.092   2.213  16.785 -0.3834  0.1506 -0.3196
 2242TIP3    H128217   0.050   2.288  16.741 -0.8729  0.2642  0.3329
 2242TIP3    H228218   0.183   2.240  16.798 -0.3966  0.3724 -0.6722
 2243TIP3   OH228219   2.243   6.235   1.970  0.4435  0.1455  0.0225
 2243TIP3    H128220   2.308   6.291   1.926  0.4429 -0.2824 -0.5344
 2243TIP3    H228221   2.279   6.147   1.964  0.9231  0.1904  1.7870
 2244TIP3   OH228222   2.579   1.048  15.855 -0.0885 -0.4966  0.1971
 2244TIP3    H128223   2.565   1.076  15.765 -0.3643 -0.3381  0.2857
 2244TIP3    H228224   2.494   1.016  15.884 -0.4841  1.1172  0.9667
 2245TIP3   OH228225   3.937   1.790  16.641  0.2549  0.2537  0.2983
 2245TIP3    H128226   3.999   1.758  16.577  0.4927 -0.1955  0.7467
 2245TIP3    H228227   3.851   1.771  16.604  0.3917 -0.7173  0.4608
 2246TIP3   OH228228   1.736   2.501   0.676 -0.2636 -0.5048 -0.5485
 2246TIP3    H128229   1.672   2.526   0.742  1.1274  0.0986  0.6520
 2246TIP3    H228230   1.690   2.508   0.592 -1.7468 -0.1612  0.2766
 2247TIP3   OH228231   2.474   2.860  14.048 -0.1965  0.4984 -0.8369
 2247TIP3    H128232   2.407   2.802  14.084  1.7858 -2.3049 -1.2478
 2247TIP3    H228233   2.446   2.875  13.957 -0.4361 -0.3826 -0.9197
 2248TIP3   OH228234   0.912   6.584  12.097  0.2588 -0.5431  0.1675
 2248TIP3    H128235   0.984   6.523  12.113  0.9901  0.3844  0.4878
 2248TIP3    H228236   0.953   6.658  12.051 -0.4194  0.1483  0.6550
 2249TIP3   OH228237   3.844   3.877   5.208 -0.2684 -0.0723 -0.6508
 2249TIP3    H128238   3.833   3.782   5.220 -1.7616  0.1716  0.1215
 2249TIP3    H228239   3.855   3.911   5.297  1.6055  0.3658 -1.0063
 2250TIP3   OH228240   3.426   4.823   1.452 -0.2722 -0.7228 -0.3099
 2250TIP3    H128241   3.496   4.877   1.415  0.9941 -1.3852  1.0543
 2250TIP3    H228242   3.363   4.814   1.380  1.6080 -1.1179 -1.9877
 2251TIP3   OH228243   1.704   2.735   3.713 -0.2813  0.6308  0.5074
 2251TIP3    H128244   1.686   2.706   3.802 -1.1484  0.6406  0.3475
 2251TIP3    H228245   1.787   2.693   3.691 -0.2374  0.3365  1.1916
 2252TIP3   OH228246   3.087   1.259   2.275 -0.0639  0.5994 -0.0797
 2252TIP3    H128247   3.142   1.223   2.205  0.1504 -1.6875  1.1906
 2252TIP3    H228248   2.999   1.258   2.238 -0.0561 -1.2413 -0.1116
 2253TIP3   OH228249   1.852   2.666   0.021  0.0114 -0.3079  0.1887
 2253TIP3    H128250   1.768   2.622   0.039 -0.3309  1.3474  3.3444
 2253TIP3    H228251   1.831   2.730  -0.047 -0.7145 -1.4668 -0.7047
 2254TIP3   OH228252   5.466   5.321   3.450  1.1820 -0.5836  0.7091
 2254TIP3    H128253   5.463   5.250   3.513  1.2285 -1.1618  0.0747
 2254TIP3    H228254   5.433   5.282   3.369 -1.4846  0.8072  0.9903
 2255TIP3   OH228255   6.180   0.328  11.216 -0.3676 -0.0727 -1.0165
 2255TIP3    H128256   6.152   0.315  11.126  0.2849  3.4385 -1.8807
 2255TIP3    H228257   6.235   0.407  11.213  2.8032 -1.9108  1.8867
 2256TIP3   OH228258   5.819   5.607   6.403 -0.2937  0.6053 -0.5056
 2256TIP3    H128259   5.749   5.607   6.468 -0.9141  0.4390 -1.1688
 2256TIP3    H228260   5.789   5.666   6.334 -0.3106 -0.3312 -1.3307
 2257TIP3   OH228261   1.887   4.493   3.831  0.3552 -0.0230 -0.2558
 2257TIP3    H128262   1.949   4.519   3.763  2.0739 -0.0657  1.2456
 2257TIP3    H228263   1.813   4.455   3.782  2.4162 -2.0042 -2.0673
 2258TIP3   OH228264   3.868   0.117  10.598 -0.4492  0.1067  0.4921
 2258TIP3    H128265   3.886   0.023  10.596  0.1528  0.2341 -0.7689
 2258TIP3    H228266   3.903   0.150  10.516 -2.2051  1.1700  0.1182
 2259TIP3   OH228267   6.268   4.329   0.118 -0.0972 -0.2070 -0.3506
 2259TIP3    H128268   6.250   4.279   0.197  1.3864 -1.1666 -0.5786
 2259TIP3    H228269   6.187   4.324   0.067 -0.8643 -0.0665  0.8175
 2260TIP3   OH228270   5.656   0.304   2.410 -0.4441 -0.5080 -0.3740
 2260TIP3    H128271   5.674   0.270   2.497  0.8340  0.4296 -0.2425
 2260TIP3    H228272   5.574   0.353   2.420 -0.0380  0.0343  0.4466
 2261TIP3   OH228273   6.609   0.677   4.492  0.4756 -0.3569 -0.6141
 2261TIP3    H128274   6.546   0.605   4.492  0.7439 -0.7435  2.7928
 2261TIP3    H228275   6.557   0.754   4.469 -0.8701 -0.9746  0.2011
 2262TIP3   OH228276   1.582   3.702   4.537 -0.2596  0.1779  0.2005
 2262TIP3    H128277   1.552   3.615   4.565  0.7494 -0.1865  0.2184
 2262TIP3    H228278   1.587   3.695   4.442 -0.3326  0.2683  0.1908
 2263TIP3   OH228279   4.196   6.193  13.421  0.2775 -0.9382  0.3483
 2263TIP3    H128280   4.236   6.161  13.341 -0.1243 -2.1087  0.5998
 2263TIP3    H228281   4.134   6.260  13.391  0.7819 -0.7204 -0.2296
 2264TIP3   OH228282   1.390   5.773  13.649 -0.6429  0.0457 -0.3887
 2264TIP3    H128283   1.397   5.681  13.623 -0.1704 -0.2814  0.8338
 2264TIP3    H228284   1.374   5.820  13.567  0.6004 -0.9504 -1.2433
 2265TIP3   OH228285   3.477   5.503   3.286 -0.1263  0.0179 -0.2432
 2265TIP3    H128286   3.423   5.581   3.275  2.3596  1.7870 -0.9353
 2265TIP3    H228287   3.451   5.445   3.214 -0.0344  1.5205 -1.5436
 2266TIP3   OH228288   0.429   2.206  12.291  0.4872 -0.0627  0.1886
 2266TIP3    H128289   0.495   2.255  12.341 -0.3423  1.1567  0.1316
 2266TIP3    H228290   0.445   2.229  12.200  0.0426  0.1834  0.1680
 2267TIP3   OH228291   2.233   4.899   1.848 -0.5112  0.2964  0.2587
 2267TIP3    H128292   2.249   4.831   1.915 -0.6784  0.9887  1.0161
 2267TIP3    H228293   2.320   4.918   1.813 -0.1654  1.1489  1.5051
 2268TIP3   OH228294   6.642   6.094  15.669  0.2774 -0.3729  0.2097
 2268TIP3    H128295   6.648   6.183  15.703  0.2556 -0.5468  0.6819
 2268TIP3    H228296   6.548   6.075  15.670  0.2897 -0.4334  0.1990
 2269TIP3   OH228297   6.644   1.681  14.481 -0.3427 -0.3845 -0.2290
 2269TIP3    H128298   6.590   1.744  14.431  1.4122  0.4556 -1.1650
 2269TIP3    H228299   6.676   1.732  14.555 -0.2642 -0.6740 -0.0662
 2270TIP3   OH228300   5.709   2.887  16.039  0.4968 -0.1766  0.0440
 2270TIP3    H128301   5.670   2.935  15.966  0.8562 -1.2094 -0.8575
 2270TIP3    H228302   5.723   2.954  16.107 -0.2989  0.7097 -0.6387
 2271TIP3   OH228303   2.271   1.183   3.915 -0.4741 -0.0489  0.0428
 2271TIP3    H128304   2.310   1.228   3.841 -0.4897 -0.5605 -0.2838
 2271TIP3    H228305   2.180   1.166   3.889 -0.7854  0.6904  0.5981
 2272TIP3   OH228306   2.679   5.178  13.464 -0.1068  0.5214 -0.3118
 2272TIP3    H128307   2.696   5.159  13.556 -0.4723  0.8641 -0.1660
 2272TIP3    H228308   2.694   5.272  13.456  2.0805  0.1512 -1.1043
 2273TIP3   OH228309   4.599   0.345   2.150  0.0566 -0.4827 -0.0731
 2273TIP3    H128310   4.552   0.401   2.088 -1.9205 -1.3674  0.5574
 2273TIP3    H228311   4.690   0.349   2.121 -0.3327  1.4774 -1.2200
 2274TIP3   OH228312   2.421   4.131   0.986  0.3659 -0.2325  0.7232
 2274TIP3    H128313   2.342   4.182   1.005  0.7933  0.9799 -0.5984
 2274TIP3    H228314   2.455   4.168   0.905  2.6042 -0.3617  1.5300
 2275TIP3   OH228315   1.596   3.538   4.825 -0.4855 -0.2196  0.4811
 2275TIP3    H128316   1.520   3.567   4.875 -0.6601  0.1611 -0.0019
 2275TIP3    H228317   1.615   3.611   4.766  1.2953  0.4293  1.7511
 2276TIP3   OH228318   0.176   1.316  14.285  0.1221  0.1039  0.3836
 2276TIP3    H128319   0.098   1.367  14.309 -1.0461 -1.3093 -0.2221
 2276TIP3    H228320   0.204   1.276  14.368 -0.0662  0.2778  0.5343
 2277TIP3   OH228321   6.454   0.018   1.303  0.1419  0.5584 -0.5710
 2277TIP3    H128322   6.477   0.095   1.355  3.5513 -0.1425 -0.8085
 2277TIP3    H228323   6.415   0.053   1.223 -0.4443  1.8858  0.2699
 2278TIP3   OH228324   1.985   1.213   4.829  0.7554 -0.1585 -0.3354
 2278TIP3    H128325   1.909   1.188   4.777  1.7006  0.0488 -1.8840
 2278TIP3    H228326   2.024   1.130   4.856 -0.3662 -0.2672  1.0412
 2279TIP3   OH228327   2.422   6.062   0.251  0.1578 -0.7908  0.1314
 2279TIP3    H128328   2.337   6.038   0.288 -0.7883 -0.1406 -1.5106
 2279TIP3    H228329   2.427   6.013   0.169 -0.4463  2.1003 -1.7784
 2280TIP3   OH228330   0.422   0.164   6.695 -0.3667 -0.1991  0.0077
 2280TIP3    H128331   0.410   0.076   6.731 -0.9677 -0.0911  0.0844
 2280TIP3    H228332   0.357   0.217   6.741 -1.3506 -0.1145 -1.4333
 2281TIP3   OH228333   5.728   5.675  12.974 -0.0719 -0.5850 -0.1212
 2281TIP3    H128334   5.717   5.580  12.970  1.2431 -0.7596 -0.3346
 2281TIP3    H228335   5.734   5.696  13.067 -1.6332 -0.5173 -0.0103
 2282TIP3   OH228336   0.972   0.782   6.415  0.0297 -0.1082  0.2471
 2282TIP3    H128337   1.066   0.798   6.421 -0.0997  1.4180 -1.1918
 2282TIP3    H228338   0.963   0.722   6.342 -0.1627  0.3730 -0.1287
 2283TIP3   OH228339   2.218   4.781   4.831  0.3554 -0.5813  0.2293
 2283TIP3    H128340   2.192   4.690   4.845 -0.6059 -0.3636 -0.1181
 2283TIP3    H228341   2.143   4.822   4.789  1.1890  0.1151 -0.6159
 2284TIP3   OH228342   6.723   1.873  16.490 -0.3993  0.4486  0.2850
 2284TIP3    H128343   6.771   1.888  16.571  1.0685 -0.2824 -0.4125
 2284TIP3    H228344   6.789   1.882  16.421 -0.9759 -1.7772 -0.6262
 2285TIP3   OH228345   1.017   3.645   6.373  0.3000 -0.0084  0.3554
 2285TIP3    H128346   1.050   3.697   6.447  2.2850 -0.1539 -0.3724
 2285TIP3    H228347   1.021   3.554   6.404 -2.2450  0.1048  1.2742
 2286TIP3   OH228348   1.131   4.233   0.894  0.0873 -0.2009 -0.4314
 2286TIP3    H128349   1.107   4.317   0.934 -0.2939 -0.7479  0.5129
 2286TIP3    H228350   1.089   4.235   0.808  0.7211  0.8947 -0.7332
 2287TIP3   OH228351   4.465   1.898   4.964 -0.0419  0.0970 -0.3445
 2287TIP3    H128352   4.527   1.825   4.963  0.6884  0.7167 -0.7456
 2287TIP3    H228353   4.389   1.865   4.916 -0.6916 -1.2080  1.4324
 2288TIP3   OH228354   5.400   0.520  16.335  0.5740  0.1396 -0.0646
 2288TIP3    H128355   5.462   0.544  16.266  0.2577 -0.1566 -0.4560
 2288TIP3    H228356   5.430   0.568  16.412  1.3329 -0.0635 -0.2281
 2289TIP3   OH228357   5.128   6.550  15.527 -0.1359  0.0740  0.2629
 2289TIP3    H128358   5.107   6.484  15.461  2.3327  0.9533 -1.5608
 2289TIP3    H228359   5.101   6.633  15.487 -0.5948  0.4420  1.3106
 2290TIP3   OH228360   3.427   6.241  13.289  0.3812  0.8662  0.2252
 2290TIP3    H128361   3.523   6.238  13.297  0.1790 -0.9721  3.1982
 2290TIP3    H228362   3.395   6.224  13.377 -2.7328  1.0149 -0.7758
 2291TIP3   OH228363   5.675   2.965   0.921  0.5368  0.1033 -0.2104
 2291TIP3    H128364   5.609   3.011   0.869  1.4508  1.2970 -0.3608
 2291TIP3    H228365   5.629   2.888   0.955 -0.8903  0.8134 -0.4321
 2292TIP3   OH228366   0.867   5.987   5.483 -0.3760  0.0860  0.7114
 2292TIP3    H128367   0.961   5.991   5.503 -0.2268  0.4297 -0.0113
 2292TIP3    H228368   0.845   5.894   5.489  0.3678 -0.2049 -0.6070
 2293TIP3   OH228369   4.441   3.792   0.957 -0.2768  0.7222 -0.2228
 2293TIP3    H128370   4.407   3.793   0.867 -1.2751  0.4162  0.1390
 2293TIP3    H228371   4.532   3.819   0.948 -0.5550  1.3913 -1.2525
 2294TIP3   OH228372   3.054   5.046  10.912 -0.3520 -0.5814 -0.4562
 2294TIP3    H128373   3.054   5.088  10.826 -1.0325  0.2534 -0.0654
 2294TIP3    H228374   3.125   5.088  10.960  0.0492 -1.0705 -0.6156
 2295TIP3   OH228375   6.684   1.027  15.109 -0.2455 -0.0498  0.0231
 2295TIP3    H128376   6.595   1.014  15.140  0.3695 -1.4811  1.2730
 2295TIP3    H228377   6.701   0.953  15.051  0.8384 -1.0244  1.5149
 2296TIP3   OH228378   1.631   2.085  13.942 -0.2914 -0.6665 -0.1978
 2296TIP3    H128379   1.701   2.022  13.958  1.3935  1.0082 -0.6199
 2296TIP3    H228380   1.590   2.055  13.860  4.6370  1.9730 -4.2183
 2297TIP3   OH228381   5.871   1.916  12.438 -0.5620  0.2791  0.0504
 2297TIP3    H128382   5.888   1.981  12.369 -1.8349 -0.1292 -0.6904
 2297TIP3    H228383   5.848   1.837  12.389 -0.1955 -0.3945  0.9570
 2298TIP3   OH228384   5.400   3.657   0.645 -0.6680 -0.3276 -0.6190
 2298TIP3    H128385   5.320   3.654   0.698  0.0787 -0.4510  0.5505
 2298TIP3    H228386   5.379   3.606   0.567 -1.7972 -0.1652 -0.4459
 2299TIP3   OH228387   4.378   6.218  12.043  0.0444  0.4664  0.2285
 2299TIP3    H128388   4.438   6.147  12.063 -0.5394 -0.6997 -1.8488
 2299TIP3    H228389   4.328   6.232  12.124  0.2742 -1.3880  0.7255
 2300TIP3   OH228390   3.777   0.042  13.389  0.1047  0.2386  0.0500
 2300TIP3    H128391   3.820   0.058  13.473 -0.3811  0.1509  0.3189
 2300TIP3    H228392   3.782  -0.053  13.378  0.7502  0.3084 -0.3413
 2301TIP3   OH228393   0.082   2.689  14.559  0.1775 -0.3735  0.3449
 2301TIP3    H128394   0.154   2.632  14.532  0.6896  0.4552 -0.0651
 2301TIP3    H228395   0.108   2.776  14.530 -1.7013 -0.2810 -1.2586
 2302TIP3   OH228396   4.302   5.855  13.357 -0.1053  0.0049 -0.4012
 2302TIP3    H128397   4.375   5.894  13.406 -1.4276  1.1577  0.7542
 2302TIP3    H228398   4.318   5.881  13.266  0.6055  0.7869 -0.0724
 2303TIP3   OH228399   0.444   4.921  13.316  0.0308  0.4301 -0.3822
 2303TIP3    H128400   0.516   4.908  13.254 -0.0043  1.9545 -0.7986
 2303TIP3    H228401   0.473   4.878  13.396  0.5325 -0.6852 -1.1323
 2304TIP3   OH228402   0.354   5.415  16.418  0.3346  0.3450 -0.1562
 2304TIP3    H128403   0.292   5.389  16.349  0.6812  0.5001 -0.5304
 2304TIP3    H228404   0.298   5.441  16.491 -0.0424  0.3080 -0.4245
 2305TIP3   OH228405   2.432   1.569  15.120 -0.0256 -0.0277 -0.8055
 2305TIP3    H128406   2.402   1.500  15.061  1.0258 -1.1515 -0.0671
 2305TIP3    H228407   2.372   1.642  15.104  0.4228 -0.1503 -3.5240
 2306TIP3   OH228408   6.571   2.884  13.571  0.0784 -0.3522 -0.0019
 2306TIP3    H128409   6.660   2.859  13.544 -0.7373 -2.1370 -1.1836
 2306TIP3    H228410   6.570   2.980  13.561  1.3873 -0.4581 -1.5505
 2307TIP3   OH228411   1.326   0.216  13.733  0.0555 -0.0307 -0.8618
 2307TIP3    H128412   1.395   0.152  13.747  0.2103  0.1428 -0.8289
 2307TIP3    H228413   1.372   0.300  13.724 -0.1531  0.0915 -0.7942
 2308TIP3   OH228414   3.775   3.866  12.088  0.2330 -0.0779 -0.1849
 2308TIP3    H128415   3.695   3.853  12.037 -0.5356  1.9412  0.3824
 2308TIP3    H228416   3.763   3.811  12.166 -0.0978 -0.6143 -0.6076
 2309TIP3   OH228417   2.817   0.020  15.106 -0.6325  0.6207  0.2170
 2309TIP3    H128418   2.750   0.032  15.038 -0.9910 -0.8097  0.2964
 2309TIP3    H228419   2.773  -0.031  15.174  0.4663 -0.1230  0.3814
 2310TIP3   OH228420   5.963   0.447   3.404  0.4483 -0.2611 -0.2755
 2310TIP3    H128421   5.933   0.528   3.363 -0.5513 -0.6943 -0.4075
 2310TIP3    H228422   5.910   0.378   3.364  1.4894 -1.0296 -0.3796
 2311TIP3   OH228423   6.062   4.968  16.536 -0.3785 -0.0195  0.0146
 2311TIP3    H128424   6.110   4.986  16.617  0.5856  0.2267 -0.5921
 2311TIP3    H228425   6.121   4.997  16.467 -1.2941  0.0060 -0.7744
 2312TIP3   OH228426   3.054   2.899   6.505  0.6907 -0.1362  0.7342
 2312TIP3    H128427   3.102   2.876   6.585  0.3171 -1.4086  0.6076
 2312TIP3    H228428   3.017   2.816   6.474  2.8137 -0.1646 -2.1035
 2313TIP3   OH228429   2.975   5.767   4.581  0.1465  0.1554 -0.5349
 2313TIP3    H128430   2.909   5.707   4.545 -0.2842  0.5357 -0.3885
 2313TIP3    H228431   2.927   5.848   4.598  0.6260  0.3945 -0.3001
 2314TIP3   OH228432   5.791   1.077  13.600 -0.3093  0.0390 -0.6234
 2314TIP3    H128433   5.770   1.036  13.516 -0.1351 -1.8839  0.2104
 2314TIP3    H228434   5.747   1.023  13.665  1.6890 -0.1214  0.7036
 2315TIP3   OH228435   4.500   2.095  14.657  0.5947  0.1494  0.0527
 2315TIP3    H128436   4.484   2.089  14.751 -0.7100 -2.1918 -0.2367
 2315TIP3    H228437   4.415   2.076  14.617  1.1646  0.9081 -1.6205
 2316TIP3   OH228438   4.545   0.650  13.414  0.3425 -0.2558 -0.2632
 2316TIP3    H128439   4.614   0.693  13.364  1.0029 -0.8775  0.0851
 2316TIP3    H228440   4.565   0.556  13.407  0.8173 -0.3403  1.6497
 2317TIP3   OH228441   3.265   3.357  15.107  0.4118 -0.4853 -0.1033
 2317TIP3    H128442   3.285   3.316  15.191 -0.8762 -1.2798 -0.1596
 2317TIP3    H228443   3.257   3.450  15.127  1.9040 -0.4076  0.2950
 2318TIP3   OH228444   5.115   6.351   5.043  0.0499  0.8170 -0.5500
 2318TIP3    H128445   5.198   6.357   5.090 -0.2056 -0.0045  0.0267
 2318TIP3    H228446   5.122   6.270   4.992  0.2015  1.5393 -1.7058
 2319TIP3   OH228447   4.735   3.043  15.315  0.5020 -0.4827 -0.2701
 2319TIP3    H128448   4.807   3.103  15.294 -1.2454  2.2672  1.0291
 2319TIP3    H228449   4.730   3.044  15.411 -1.8709  0.2781 -0.3304
 2320TIP3   OH228450   6.737   3.147  13.870 -0.7877  0.0106 -0.4204
 2320TIP3    H128451   6.701   3.142  13.782 -0.9252 -0.0423 -0.3622
 2320TIP3    H228452   6.678   3.092  13.923  0.5882 -1.8569 -0.7234
 2321TIP3   OH228453   0.488   2.859   2.061  0.1122  0.1322 -0.6236
 2321TIP3    H128454   0.404   2.868   2.108  0.7371 -0.6650  0.7275
 2321TIP3    H228455   0.463   2.831   1.973 -1.1007  1.4242 -0.7229
 2322TIP3   OH228456   0.392   3.131   2.672  0.6651 -0.0054 -0.3574
 2322TIP3    H128457   0.375   3.057   2.615  3.7266  0.0634 -1.5032
 2322TIP3    H228458   0.436   3.094   2.748 -0.2164  0.3561  0.3576
 2323TIP3   OH228459   6.082   1.798  13.177  0.3087 -0.2069 -0.5581
 2323TIP3    H128460   6.078   1.814  13.271  0.7642 -1.0982 -0.3759
 2323TIP3    H228461   6.010   1.737  13.160 -0.0085  0.2458 -0.8570
 2324TIP3   OH228462   5.350   5.504  12.179  0.0546  0.7727  0.0157
 2324TIP3    H128463   5.298   5.583  12.167  0.4127  0.8367 -1.2015
 2324TIP3    H228464   5.335   5.480  12.271 -2.6142  0.4452 -0.4140
 2325TIP3   OH228465   4.279   1.409   6.202  0.1592 -0.0345 -0.1900
 2325TIP3    H128466   4.364   1.434   6.165  0.9501 -2.1654  0.0329
 2325TIP3    H228467   4.216   1.465   6.157  1.6900  1.8531 -0.1083
 2326TIP3   OH228468   1.538   2.867   5.727 -0.5789  0.2595  0.2240
 2326TIP3    H128469   1.528   2.863   5.632  0.3815 -0.4848  0.1352
 2326TIP3    H228470   1.449   2.857   5.761 -1.0010  1.1105 -0.5985
 2327TIP3   OH228471   0.007   4.217   0.314 -0.4746  0.5960 -0.0511
 2327TIP3    H128472   0.057   4.290   0.351  0.1157  0.3662 -0.3719
 2327TIP3    H228473   0.061   4.186   0.241 -0.3678 -0.5956  0.4933
 2328TIP3   OH228474   1.806   3.937  17.164 -0.1166  0.0139 -0.5582
 2328TIP3    H128475   1.721   3.976  17.143 -0.7172 -0.9613  0.0337
 2328TIP3    H228476   1.837   3.988  17.239 -1.7117 -1.6740  1.3705
 2329TIP3   OH228477   3.667   6.161  13.577  0.1547 -0.3586 -0.0791
 2329TIP3    H128478   3.753   6.145  13.618  0.1781 -0.8807 -0.3183
 2329TIP3    H228479   3.687   6.212  13.499  0.3356 -1.0940 -0.5248
 2330TIP3   OH228480   2.785   6.280  12.753 -0.5174  0.1698  0.1786
 2330TIP3    H128481   2.696   6.298  12.723 -0.8178 -0.9822  0.3211
 2330TIP3    H228482   2.804   6.350  12.816 -0.6638  1.4103 -1.1117
 2331TIP3   OH228483   3.391   1.664  15.310  0.4234  0.0071 -0.3473
 2331TIP3    H128484   3.380   1.611  15.390  1.0439  0.6412  0.1750
 2331TIP3    H228485   3.468   1.626  15.268  1.9207  1.4920  0.8966
 2332TIP3   OH228486   1.015   3.439  15.734 -0.5589 -0.1242 -0.1002
 2332TIP3    H128487   1.054   3.353  15.748  0.4066  0.3861  0.4189
 2332TIP3    H228488   1.085   3.501  15.755 -0.0954  0.8077 -3.7342
 2333TIP3   OH228489   4.852   3.196  16.783  0.0948 -0.2702 -0.2518
 2333TIP3    H128490   4.814   3.212  16.869  0.0798  0.2527 -0.3474
 2333TIP3    H228491   4.802   3.123  16.747 -2.8284  2.1201 -1.5242
 2334TIP3   OH228492   6.058   4.197   6.040 -0.8017 -0.1958 -0.0964
 2334TIP3    H128493   6.003   4.264   6.079 -1.8643 -0.0742 -1.6929
 2334TIP3    H228494   6.133   4.189   6.099 -2.6629 -0.5937  2.3419
 2335TIP3   OH228495   1.687   2.890  13.447  0.1469 -0.3268  0.2781
 2335TIP3    H128496   1.720   2.856  13.364  2.3716  0.2203  0.8717
 2335TIP3    H228497   1.754   2.867  13.512 -1.5357 -0.7666  1.9617
 2336TIP3   OH228498   5.334   3.320   3.831  0.4695  0.2777  0.0827
 2336TIP3    H128499   5.242   3.332   3.854  0.2921  0.2127 -0.5950
 2336TIP3    H228500   5.381   3.339   3.913 -0.1421  0.2642  0.4439
 2337TIP3   OH228501   5.817   3.353   1.180  0.2329 -0.0392  0.7775
 2337TIP3    H128502   5.878   3.282   1.196  1.5242  1.0561  0.8594
 2337TIP3    H228503   5.782   3.376   1.266  0.9882  0.4349  0.9641
 2338TIP3   OH228504   1.386   5.439   2.234  0.6300  0.4769 -1.2283
 2338TIP3    H128505   1.421   5.360   2.193  0.5695  0.4528 -1.2330
 2338TIP3    H228506   1.292   5.436   2.217  0.0679 -1.1577  1.5480
 2339TIP3   OH228507   6.209   1.936   5.725  0.6836 -0.4332 -0.5204
 2339TIP3    H128508   6.243   2.019   5.757 -2.2208  0.6338  0.0401
 2339TIP3    H228509   6.247   1.870   5.783  1.1021  0.7418  0.5752
 2340TIP3   OH228510   2.124   5.955   0.933  0.5776 -0.4806  0.0796
 2340TIP3    H128511   2.173   5.913   1.004 -0.5120 -1.4198  0.3115
 2340TIP3    H228512   2.074   5.883   0.893  0.5809  0.1728 -1.1427
 2341TIP3   OH228513   6.134   6.127  16.206 -0.6828 -0.7020 -0.2140
 2341TIP3    H128514   6.076   6.051  16.212 -0.1653 -1.0418  0.6914
 2341TIP3    H228515   6.155   6.148  16.297 -0.0708 -0.0479 -0.4985
 2342TIP3   OH228516   5.260   1.175   4.096  0.3410 -0.2560  0.3860
 2342TIP3    H128517   5.189   1.133   4.145  0.0120 -0.9910 -0.6996
 2342TIP3    H228518   5.216   1.230   4.032  0.7698  1.5216  1.5385
 2343TIP3   OH228519   1.616   5.627   5.793 -0.4887  0.2408  0.3934
 2343TIP3    H128520   1.546   5.676   5.837 -0.8118 -0.0275  0.1903
 2343TIP3    H228521   1.583   5.613   5.704  0.2096  0.8748  0.0300
 2344TIP3   OH228522   1.309   3.623  14.978  0.6374 -0.3020  0.3005
 2344TIP3    H128523   1.372   3.551  14.979  0.6729 -0.2726  1.0224
 2344TIP3    H228524   1.226   3.583  14.954 -0.0059 -1.1883  3.5608
 2345TIP3   OH228525   1.638   3.834   4.876  0.0312  0.3180  0.2351
 2345TIP3    H128526   1.732   3.846   4.885  0.0949 -0.4279  0.6278
 2345TIP3    H228527   1.609   3.807   4.964 -0.4508 -0.0663 -0.0376
 2346TIP3   OH228528   2.131   1.446  13.741 -0.1655 -0.0429 -0.2241
 2346TIP3    H128529   2.036   1.462  13.743 -0.3162 -0.8844  1.8543
 2346TIP3    H228530   2.140   1.357  13.708 -0.0992  0.0620 -0.4884
 2347TIP3   OH228531   3.703   0.508  15.558  0.0801  0.1048  0.0606
 2347TIP3    H128532   3.716   0.486  15.650 -0.6367  3.0172  0.9783
 2347TIP3    H228533   3.790   0.535  15.528  0.1329  0.0599  0.1729
 2348TIP3   OH228534   6.403   2.777   0.868  0.2096  0.4918 -0.1459
 2348TIP3    H128535   6.354   2.696   0.879 -0.8698  1.2016  0.5098
 2348TIP3    H228536   6.339   2.846   0.888  1.5426  1.4463  1.0488
 2349TIP3   OH228537   5.011   5.095   3.559  0.0244 -0.0715  0.1092
 2349TIP3    H128538   5.100   5.060   3.549 -0.1121 -0.9590  1.6998
 2349TIP3    H228539   4.972   5.041   3.628 -1.5569  0.6970 -0.1482
 2350TIP3   OH228540   1.259   0.460  14.403 -0.6321 -0.2796 -0.5097
 2350TIP3    H128541   1.221   0.377  14.432 -0.0138 -0.3022  0.2459
 2350TIP3    H228542   1.228   0.525  14.466  0.1049 -0.2020 -0.2136
 2351TIP3   OH228543   1.898   4.097   0.088  0.8024 -0.4809  0.1418
 2351TIP3    H128544   1.817   4.068   0.131  0.7759 -0.1621  0.3095
 2351TIP3    H228545   1.889   4.192   0.082  1.9378 -0.2168  1.8049
 2352TIP3   OH228546   0.958   5.890   6.202  0.1087 -0.0900 -0.6475
 2352TIP3    H128547   0.989   5.969   6.246 -1.7837  0.5643 -0.4387
 2352TIP3    H228548   0.905   5.845   6.267 -1.1481 -0.0830 -1.6437
 2353TIP3   OH228549   3.166   6.483   3.395  0.2990  0.0209 -0.3691
 2353TIP3    H128550   3.252   6.441   3.396  1.2472  1.8060 -1.1598
 2353TIP3    H228551   3.136   6.473   3.304  0.2711  0.5114 -0.4166
 2354TIP3   OH228552   4.603   3.127  15.618 -0.6084  0.1865  0.1374
 2354TIP3    H128553   4.524   3.171  15.587 -0.2292  0.3427 -0.6526
 2354TIP3    H228554   4.577   3.035  15.630 -0.8620  0.1946 -0.3279
 2355TIP3   OH228555   2.722   3.269  16.660  0.1118 -0.0018  0.0564
 2355TIP3    H128556   2.668   3.234  16.590 -0.9746  0.6880  0.5233
 2355TIP3    H228557   2.690   3.358  16.673  2.1401  0.8730 -0.4356
 2356TIP3   OH228558   3.852   1.617   1.744 -0.2643  0.5577 -0.4904
 2356TIP3    H128559   3.813   1.546   1.693  1.7787 -1.0731  0.0380
 2356TIP3    H228560   3.835   1.592   1.835 -1.2769  1.8551 -0.3043
 2357TIP3   OH228561   4.754   4.257  15.189  0.3209 -0.2148  0.0879
 2357TIP3    H128562   4.795   4.326  15.241  1.5173 -0.7852 -0.0610
 2357TIP3    H228563   4.725   4.193  15.253 -1.2068  0.6031  0.2623
 2358TIP3   OH228564   1.814   5.937  12.116  0.7843  0.1632 -0.4191
 2358TIP3    H128565   1.900   5.951  12.155  0.7970  1.3993 -0.8541
 2358TIP3    H228566   1.757   6.000  12.160  0.1833 -0.3422 -0.4498
 2359TIP3   OH228567   0.646   1.937  12.567  0.0237 -0.3235 -0.0065
 2359TIP3    H128568   0.660   1.855  12.614 -1.4022  0.0035  1.0559
 2359TIP3    H228569   0.598   1.992  12.629 -0.4697  0.7260 -1.2787
 2360TIP3   OH228570   1.693   3.043  14.095 -0.4110  0.4007  0.7774
 2360TIP3    H128571   1.769   3.051  14.037 -0.6942 -2.6902 -0.2153
 2360TIP3    H228572   1.719   2.975  14.158 -2.0625 -0.1815  0.8662
 2361TIP3   OH228573   1.570   4.414  11.683 -0.4143 -0.0164  0.2452
 2361TIP3    H128574   1.528   4.401  11.599 -0.6832 -1.5479  0.5945
 2361TIP3    H228575   1.498   4.438  11.742 -0.5176 -0.7654  0.4302
 2362TIP3   OH228576   5.903   5.891  14.090 -0.2268 -0.1817  0.2046
 2362TIP3    H128577   5.987   5.869  14.130 -2.0176 -2.8379  2.8788
 2362TIP3    H228578   5.899   5.837  14.011 -0.7659 -2.7743  1.9142
 2363TIP3   OH228579   3.074   2.057   0.728  0.1405 -0.3848 -0.0419
 2363TIP3    H128580   3.059   2.023   0.817 -1.0452  1.3868  0.4781
 2363TIP3    H228581   3.159   2.100   0.733  0.9021 -1.7777 -0.2829
 2364TIP3   OH228582   5.741   3.378  16.553  0.2706  0.0813  0.2759
 2364TIP3    H128583   5.691   3.360  16.632 -0.2905  1.3400  0.2240
 2364TIP3    H228584   5.830   3.348  16.574  0.5230  1.8483  1.9863
 2365TIP3   OH228585   2.599   4.897   1.024  0.3646 -0.0133  0.1712
 2365TIP3    H128586   2.524   4.901   1.084  1.8011  0.2230  2.0310
 2365TIP3    H228587   2.669   4.942   1.071  1.5425  0.2410 -1.7530
 2366TIP3   OH228588   4.010   5.297   0.751 -0.2927  0.0117 -0.1433
 2366TIP3    H128589   4.069   5.259   0.686 -0.7965 -1.0285 -0.0014
 2366TIP3    H228590   3.994   5.226   0.813 -4.0612 -0.7759 -1.7293
 2367TIP3   OH228591   3.103   5.070   0.567  0.5316 -0.2326 -0.3672
 2367TIP3    H128592   3.119   4.988   0.521  0.5992 -0.6283  0.3344
 2367TIP3    H228593   3.177   5.078   0.627 -0.7076 -0.9511  1.3434
 2368TIP3   OH228594   4.659   4.279  13.021  0.2943  0.5791 -0.0303
 2368TIP3    H128595   4.610   4.198  13.036  1.5427 -0.2953 -0.5596
 2368TIP3    H228596   4.750   4.256  13.037  0.9431  1.3016 -2.3082
 2369TIP3   OH228597   6.013   0.412   1.012  0.9180 -0.5956  0.4174
 2369TIP3    H128598   6.030   0.496   1.054  0.3637 -0.8555  1.1876
 2369TIP3    H228599   6.095   0.391   0.967  1.2670  0.0614  0.7343
 2370TIP3   OH228600   1.856   3.487   2.768  0.2537 -0.0571 -0.1288
 2370TIP3    H128601   1.864   3.506   2.861 -0.6555 -1.5209  0.2768
 2370TIP3    H228602   1.942   3.452   2.743 -0.0650 -1.4832  0.6420
 2371TIP3   OH228603   3.477   2.699  14.919  0.1145 -0.1564 -0.1511
 2371TIP3    H128604   3.390   2.682  14.882  0.6198  0.3723 -1.6358
 2371TIP3    H228605   3.537   2.651  14.863  0.8747  0.2115  0.3346
 2372TIP3   OH228606   0.272   1.101  13.523  0.1629 -0.1764  0.3969
 2372TIP3    H128607   0.240   1.113  13.434  2.6788 -0.6466 -0.6260
 2372TIP3    H228608   0.193   1.106  13.577 -1.5110 -0.5137 -1.8826
 2373TIP3   OH228609   4.119   4.583  16.972  0.2165  0.2767 -0.2044
 2373TIP3    H128610   4.079   4.572  17.058  1.9994  0.7683  0.7329
 2373TIP3    H228611   4.046   4.607  16.915 -0.7370  1.9362  1.5810
 2374TIP3   OH228612   5.339   6.250  15.377  0.1477  0.8497 -0.2698
 2374TIP3    H128613   5.349   6.161  15.344 -0.2393  0.6370  0.1815
 2374TIP3    H228614   5.394   6.303  15.319  1.8476  0.0749  0.5685
 2375TIP3   OH228615   1.467   2.459  16.589 -0.6225  0.2437 -0.2759
 2375TIP3    H128616   1.457   2.459  16.494  0.9705  1.9052 -0.5150
 2375TIP3    H228617   1.529   2.388  16.607  0.1564  0.8077 -0.6616
 2376TIP3   OH228618   0.967   0.470   0.921  0.3081  0.0415 -0.5644
 2376TIP3    H128619   1.052   0.511   0.933  0.0020  0.6408 -0.4401
 2376TIP3    H228620   0.968   0.395   0.981  0.6187  0.2384 -0.3196
 2377TIP3   OH228621   5.588   4.161  12.784  0.4522 -0.4740  0.8976
 2377TIP3    H128622   5.658   4.105  12.818  1.7734  0.4686 -0.1378
 2377TIP3    H228623   5.573   4.226  12.852  0.8259 -0.4783  0.9826
 2378TIP3   OH228624   3.018   6.386   1.556  0.2063 -0.0419  0.1717
 2378TIP3    H128625   3.051   6.313   1.608 -1.0011 -1.6540 -1.2253
 2378TIP3    H228626   2.997   6.348   1.471 -2.9249  1.3031  0.1836
 2379TIP3   OH228627   4.047   1.836  13.296 -0.0607 -0.4598  0.0183
 2379TIP3    H128628   3.975   1.863  13.239  1.1802  0.4473 -1.1847
 2379TIP3    H228629   4.021   1.864  13.384 -0.7528  0.7390 -0.5521
 2380TIP3   OH228630   4.052   5.176   1.515  0.1284  0.2671  0.5725
 2380TIP3    H128631   4.131   5.165   1.567  0.1134 -1.9176  0.2030
 2380TIP3    H228632   4.055   5.107   1.449 -0.8222  1.7498 -1.1432
 2381TIP3   OH228633   3.525   2.890   2.852  0.2767  0.0841 -0.2646
 2381TIP3    H128634   3.470   2.966   2.873 -2.2687 -1.2715 -1.6428
 2381TIP3    H228635   3.494   2.821   2.910  0.1313 -0.8548 -1.4179
 2382TIP3   OH228636   5.147   4.317  16.551  0.5369  0.3801  0.5998
 2382TIP3    H128637   5.166   4.346  16.461  0.2260 -0.6469  0.1923
 2382TIP3    H228638   5.055   4.340  16.563  0.6258  0.6775  0.7263
 2383TIP3   OH228639   4.437   1.106   4.740  0.7650  0.1059  0.1158
 2383TIP3    H128640   4.523   1.074   4.767  0.6309  0.5933  1.1459
 2383TIP3    H228641   4.393   1.028   4.705  1.4918 -0.2198 -0.0931
 2384TIP3   OH228642   4.668   4.096  14.104  0.2186  0.5272  0.2347
 2384TIP3    H128643   4.602   4.099  14.173 -0.7361 -1.9319 -0.4476
 2384TIP3    H228644   4.731   4.029  14.133 -0.3562 -0.7727 -1.3156
 2385TIP3   OH228645   0.614   3.903   5.533 -0.0018  0.2588  0.4314
 2385TIP3    H128646   0.522   3.922   5.551  0.1088 -0.1597  1.5287
 2385TIP3    H228647   0.657   3.910   5.618  0.5906 -1.7378  0.3466
 2386TIP3   OH228648   0.982   5.619  14.265  0.0507  0.2626  0.0138
 2386TIP3    H128649   0.960   5.712  14.273  1.0413  0.6241 -1.0564
 2386TIP3    H228650   0.967   5.599  14.173  0.4911 -0.4567  0.0916
 2387TIP3   OH228651   3.453   5.352   3.042 -0.0421 -0.0014 -0.1979
 2387TIP3    H128652   3.401   5.423   3.006  0.2544  0.1633 -0.3051
 2387TIP3    H228653   3.452   5.284   2.974 -1.0650 -0.4709  0.2614
 2388TIP3   OH228654   4.323   6.212   3.595 -0.0381 -0.7775  0.3296
 2388TIP3    H128655   4.284   6.273   3.532  0.5418  0.0672  0.7650
 2388TIP3    H228656   4.250   6.189   3.653 -0.7090 -1.9926 -0.9385
 2389TIP3   OH228657   3.624   6.521  16.288  0.3524 -0.3634  0.4401
 2389TIP3    H128658   3.677   6.586  16.334  1.3183 -2.2667  2.1786
 2389TIP3    H228659   3.686   6.477  16.229 -0.2198  0.0184 -0.4742
 2390TIP3   OH228660   6.528   3.186   6.400 -0.0580 -0.0621 -0.0726
 2390TIP3    H128661   6.480   3.104   6.391 -1.4912  0.8588 -1.2187
 2390TIP3    H228662   6.618   3.164   6.378 -0.6095 -1.1278 -1.3350
 2391TIP3   OH228663   3.042   6.328  15.277  0.4623 -0.0312  0.5808
 2391TIP3    H128664   3.037   6.277  15.196  0.0361  2.2101 -0.8892
 2391TIP3    H228665   3.135   6.348  15.286  0.5057 -0.2497  0.6370
 2392TIP3   OH228666   6.651   1.790  12.046 -0.4871 -0.7263 -0.4220
 2392TIP3    H128667   6.558   1.777  12.031 -0.7505  0.6276 -0.0589
 2392TIP3    H228668   6.694   1.734  11.982 -1.5477 -0.2106 -1.6088
 2393TIP3   OH228669   0.791   4.961  14.948 -0.0367  0.2888 -0.6511
 2393TIP3    H128670   0.764   4.897  15.013  2.5639  0.9194  1.2085
 2393TIP3    H228671   0.845   4.912  14.887 -0.7450  0.1199 -1.1618
 2394TIP3   OH228672   4.815   3.744  15.443  0.1727 -0.8395  0.4680
 2394TIP3    H128673   4.721   3.739  15.460 -0.3101 -0.1416 -1.6790
 2394TIP3    H228674   4.855   3.698  15.517 -1.8336 -1.0530  1.4940
 2395TIP3   OH228675   4.766   3.708   6.151  0.3997  0.0834 -0.4853
 2395TIP3    H128676   4.823   3.716   6.227 -1.0209 -0.9493  0.7473
 2395TIP3    H228677   4.679   3.729   6.184 -0.5635 -2.2443 -1.3381
 2396TIP3   OH228678   5.170   2.379  11.828  0.0283  0.8114 -0.1567
 2396TIP3    H128679   5.151   2.447  11.763  1.4073  0.5987 -0.8056
 2396TIP3    H228680   5.265   2.375  11.833  0.0863 -2.1070 -1.3010
 2397TIP3   OH228681   2.064   3.989  15.421 -0.0552  0.1318 -0.0284
 2397TIP3    H128682   2.096   3.924  15.484  0.2379 -0.2824 -0.5966
 2397TIP3    H228683   2.032   4.061  15.475 -0.0396 -0.3277  0.6009
 2398TIP3   OH228684   2.678   0.395  17.090  0.2853  0.5668 -0.2675
 2398TIP3    H128685   2.587   0.414  17.112  0.7016  0.1984  1.9334
 2398TIP3    H228686   2.674   0.319  17.032 -0.7435 -0.4127  1.0577
 2399TIP3   OH228687   5.022   6.548  12.582 -0.5651  0.4218  0.1436
 2399TIP3    H128688   4.987   6.634  12.604 -1.2543 -0.0442  0.9659
 2399TIP3    H228689   5.005   6.538  12.489  0.0987  1.4224 -0.0998
 2400TIP3   OH228690   4.463   6.711   0.469  0.1127  0.1049 -0.2449
 2400TIP3    H128691   4.537   6.732   0.526 -0.8074  0.4318  0.8590
 2400TIP3    H228692   4.403   6.661   0.525 -1.2085  1.1797 -0.6520
 2401TIP3   OH228693   4.046   3.662  10.814  0.6686  0.1712 -0.1830
 2401TIP3    H128694   4.011   3.715  10.742  1.5932 -0.1240 -0.8636
 2401TIP3    H228695   4.141   3.661  10.800  0.8271 -0.2039  0.8289
 2402TIP3   OH228696   6.249   1.842   6.295  0.0133 -0.1189  0.2436
 2402TIP3    H128697   6.269   1.812   6.384 -2.8738 -2.5837  0.2036
 2402TIP3    H228698   6.325   1.815   6.243  0.8033 -0.5697  1.5764
 2403TIP3   OH228699   3.557   2.098   6.263  0.1054  0.1869  0.5587
 2403TIP3    H128700   3.591   2.165   6.204  2.1287 -0.7221  0.5950
 2403TIP3    H228701   3.525   2.029   6.204  0.0351  0.2474  0.5253
 2404TIP3   OH228702   3.787   5.271  14.993  0.5988  0.2541  0.5155
 2404TIP3    H128703   3.828   5.346  15.037 -0.2446  1.9275 -1.3423
 2404TIP3    H228704   3.782   5.298  14.901 -2.0720 -1.0257  0.1870
 2405TIP3   OH228705   6.154   2.050   5.360 -0.3710  0.0416  0.0243
 2405TIP3    H128706   6.096   2.095   5.422 -1.8647 -0.8754 -0.6473
 2405TIP3    H228707   6.132   2.089   5.275 -0.3734 -0.6634 -0.3069
 2406TIP3   OH228708   2.159   5.053  10.917 -0.1632  0.1946  0.2440
 2406TIP3    H128709   2.177   5.013  10.832  1.5109 -0.8917  1.0539
 2406TIP3    H228710   2.064   5.059  10.921 -0.4619 -2.8215 -0.3605
 2407TIP3   OH228711   0.984   1.436   2.173 -0.0984  0.5157 -0.0307
 2407TIP3    H128712   0.982   1.340   2.176 -1.8889  0.5332  1.9956
 2407TIP3    H228713   0.892   1.461   2.161 -0.1651  1.9544  2.7016
 2408TIP3   OH228714   1.059   4.479   1.005  0.6131 -0.7982  0.6972
 2408TIP3    H128715   0.971   4.495   0.972  0.4169 -1.5887  0.8095
 2408TIP3    H228716   1.048   4.460   1.098  1.1657  1.3889  1.2701
 2409TIP3   OH228717   0.914   1.498   6.714  0.1374 -0.0457  0.5056
 2409TIP3    H128718   1.005   1.499   6.685  0.3115 -0.9859  0.9915
 2409TIP3    H228719   0.881   1.413   6.685 -0.5406  0.2361  0.4517
 2410TIP3   OH228720   6.585   0.891   6.640  0.5450  0.0270 -0.0842
 2410TIP3    H128721   6.669   0.877   6.683  0.6517 -1.0805 -0.6257
 2410TIP3    H228722   6.599   0.966   6.582  1.0620  0.0519  0.0719
 2411TIP3   OH228723   1.637   5.668   6.759 -0.2615  0.1655 -0.0750
 2411TIP3    H128724   1.700   5.622   6.815  0.3592 -0.3867 -1.2010
 2411TIP3    H228725   1.684   5.747   6.731 -0.1579 -0.1149 -0.7008
 2412TIP3   OH228726   3.906   5.832  15.848  0.0572  0.0398  0.4207
 2412TIP3    H128727   3.872   5.744  15.830  0.1196  0.3191 -1.2908
 2412TIP3    H228728   3.974   5.819  15.914 -1.0290 -0.9684  1.3786
 2413TIP3   OH228729   1.256   4.180  10.581  0.1902 -0.1611 -0.2045
 2413TIP3    H128730   1.325   4.243  10.559  2.0679 -1.4864  1.5798
 2413TIP3    H228731   1.255   4.119  10.507  0.4581  0.2392 -0.5458
 2414TIP3   OH228732   0.630   5.686   2.021  0.4996 -0.4623 -0.3571
 2414TIP3    H128733   0.701   5.634   2.059  0.0230  1.1420  3.0394
 2414TIP3    H228734   0.562   5.621   2.001  0.5316 -1.4197  2.2539
 2415TIP3   OH228735   2.295   3.409   4.425  0.1872 -0.0909 -0.2200
 2415TIP3    H128736   2.354   3.411   4.349 -0.9478  1.3455 -1.1274
 2415TIP3    H228737   2.331   3.342   4.482  2.2816  0.2333 -1.0779
 2416TIP3   OH228738   1.059   2.032   2.401  0.5108 -0.6300  0.1794
 2416TIP3    H128739   0.968   2.006   2.415  0.0485 -0.7444 -2.5632
 2416TIP3    H228740   1.103   1.951   2.377  0.8730 -0.2337 -0.5072
 2417TIP3   OH228741   6.201   0.417  16.458  0.1913 -0.5188  0.1075
 2417TIP3    H128742   6.293   0.405  16.436  0.6365  0.7670  1.1789
 2417TIP3    H228743   6.167   0.327  16.466  0.5261 -1.0653 -3.3462
 2418TIP3   OH228744   4.500   6.341   6.192 -0.1397 -0.8900  0.7216
 2418TIP3    H128745   4.495   6.433   6.167  2.0359 -0.9408 -0.0738
 2418TIP3    H228746   4.444   6.334   6.269 -0.0425  1.1803  1.0298
 2419TIP3   OH228747   2.053   0.815   2.706 -0.1349  0.2101 -0.1429
 2419TIP3    H128748   1.970   0.855   2.731 -0.9617 -1.9301  0.8354
 2419TIP3    H228749   2.058   0.827   2.611 -1.5148  0.4877 -0.2023
 2420TIP3   OH228750   3.381   6.536  14.583 -0.2122  0.9602 -0.1297
 2420TIP3    H128751   3.293   6.514  14.614 -0.6321  1.6879 -0.7862
 2420TIP3    H228752   3.372   6.623  14.544  0.2749  0.0860 -2.3498
 2421TIP3   OH228753   1.474   3.458   1.684  0.4203 -0.2456 -0.4856
 2421TIP3    H128754   1.535   3.504   1.626 -2.6663  1.5334 -2.6755
 2421TIP3    H228755   1.429   3.528   1.732 -0.2113 -1.4251  0.6993
 2422TIP3   OH228756   6.790   6.200  16.351  0.1958 -0.3134 -0.1646
 2422TIP3    H128757   6.717   6.231  16.405  0.3405  0.2382 -0.2707
 2422TIP3    H228758   6.750   6.139  16.289 -0.1149 -0.2989  0.0207
 2423TIP3   OH228759   2.303   1.274   4.468  0.4721 -0.2094 -0.1276
 2423TIP3    H128760   2.286   1.335   4.539  0.7329  1.8002 -1.6934
 2423TIP3    H228761   2.394   1.247   4.481  0.2115 -0.6748  0.8415
 2424TIP3   OH228762   0.608   5.146  11.324  0.4578 -0.1756  0.5664
 2424TIP3    H128763   0.595   5.102  11.408 -0.1579  0.5890  0.8848
 2424TIP3    H228764   0.636   5.234  11.347  0.6081 -0.0574 -0.0428
 2425TIP3   OH228765   5.870   0.048   2.222 -0.0439  0.1280 -0.2950
 2425TIP3    H128766   5.786   0.081   2.256  0.7459  2.3932 -0.3750
 2425TIP3    H228767   5.883   0.096   2.140  1.0504 -0.6576 -0.5995
 2426TIP3   OH228768   5.350   1.811  12.348  0.6532 -0.0745 -0.3998
 2426TIP3    H128769   5.428   1.811  12.293  0.4266 -2.4120 -0.8264
 2426TIP3    H228770   5.279   1.833  12.288  0.7808  0.4808 -0.3521
 2427TIP3   OH228771   2.231   5.560  13.225  0.3561  0.5070  0.5213
 2427TIP3    H128772   2.280   5.482  13.247 -1.8345 -1.4661 -1.0792
 2427TIP3    H228773   2.258   5.582  13.136 -1.9783 -1.0451 -0.6773
 2428TIP3   OH228774   6.799   1.117  11.371 -0.5483 -0.2570 -0.2514
 2428TIP3    H128775   6.858   1.184  11.338 -2.2037  1.1257 -0.5666
 2428TIP3    H228776   6.813   1.042  11.313 -0.4516  0.7140 -1.5179
 2429TIP3   OH228777   4.994   3.227  11.455 -0.2779 -0.0318  0.4888
 2429TIP3    H128778   4.929   3.283  11.497 -1.0470  1.2323 -2.1885
 2429TIP3    H228779   4.951   3.142  11.445 -1.4122  0.6795 -0.8953
 2430TIP3   OH228780   3.457   5.792  12.217 -0.5046  0.0165  0.1213
 2430TIP3    H128781   3.384   5.761  12.163  0.5109  0.4011 -1.5734
 2430TIP3    H228782   3.497   5.862  12.165 -0.5759  1.7193  2.2465
 2431TIP3   OH228783   2.126   4.085  15.057  0.4465 -0.2764  0.3401
 2431TIP3    H128784   2.208   4.044  15.030  1.2428  1.7599 -0.4601
 2431TIP3    H228785   2.115   4.159  14.998 -0.7046  0.9617  2.0198
 2432TIP3   OH228786   0.307   1.019   5.188  0.6205  0.2894 -0.1162
 2432TIP3    H128787   0.351   0.998   5.271 -1.7209 -0.2542  1.0830
 2432TIP3    H228788   0.307   0.936   5.140  0.3732  0.1321  0.1503
 2433TIP3   OH228789   6.655   1.173   1.830 -0.3538  0.7385  0.1970
 2433TIP3    H128790   6.681   1.223   1.907 -0.0389  1.9687 -0.6804
 2433TIP3    H228791   6.598   1.232   1.781  0.5386  0.5077 -1.1816
 2434TIP3   OH228792   2.390   1.907   1.569  0.1080 -0.3350 -0.1482
 2434TIP3    H128793   2.380   1.995   1.606 -1.2640  0.7824 -2.9073
 2434TIP3    H228794   2.318   1.856   1.608 -0.5787  0.4595 -0.3548
 2435TIP3   OH228795   6.684   2.596  15.087  0.0714 -0.1234 -0.4480
 2435TIP3    H128796   6.758   2.541  15.115 -0.3248  0.1264  1.2119
 2435TIP3    H228797   6.725   2.668  15.038  0.7835 -0.7511 -0.7911
 2436TIP3   OH228798   3.691   4.832   1.946  0.3174 -0.4396  0.1932
 2436TIP3    H128799   3.773   4.832   1.996  0.5772 -0.4013 -0.2230
 2436TIP3    H228800   3.714   4.874   1.863 -0.1066 -0.5053  0.0404
 2437TIP3   OH228801   6.016   0.342   5.348  1.0214  0.2946  0.3227
 2437TIP3    H128802   6.024   0.253   5.314 -0.8059  1.0748 -2.5207
 2437TIP3    H228803   6.084   0.391   5.301 -0.0577  0.9700 -0.5761
 2438TIP3   OH228804   2.777   3.773   2.063  0.1716  0.1725 -0.2631
 2438TIP3    H128805   2.862   3.729   2.064 -0.2206 -0.6532 -1.0046
 2438TIP3    H228806   2.794   3.859   2.100  0.8474 -0.8192  1.9216
 2439TIP3   OH228807   5.083   3.522   6.112  0.2513  0.3026  0.2382
 2439TIP3    H128808   5.108   3.433   6.086 -0.5918  0.3944 -0.9571
 2439TIP3    H228809   4.998   3.511   6.155 -0.4136  0.6342 -0.9413
 2440TIP3   OH228810   2.593   1.940   0.511 -0.2270 -0.3981 -0.1241
 2440TIP3    H128811   2.510   1.932   0.465 -0.1487  0.2852 -0.3973
 2440TIP3    H228812   2.598   2.032   0.536 -0.1362 -0.7059  1.0155
 2441TIP3   OH228813   3.645   3.006   1.837  0.7090 -0.7821 -0.2777
 2441TIP3    H128814   3.736   3.028   1.858  0.6510  1.2521 -1.8095
 2441TIP3    H228815   3.649   2.971   1.748 -0.1832  1.4823 -1.2688
 2442TIP3   OH228816   1.462   2.742   2.126  0.1037 -0.3779  0.8204
 2442TIP3    H128817   1.547   2.775   2.157 -0.0589 -0.5976  1.5158
 2442TIP3    H228818   1.439   2.800   2.053  0.6035  0.0111  0.9639
 2443TIP3   OH228819   4.163   3.356  15.867  0.4247 -0.0020 -0.2006
 2443TIP3    H128820   4.234   3.367  15.805  1.0975  2.5934  0.8974
 2443TIP3    H228821   4.132   3.267  15.853  0.3145  0.5272 -4.4161
 2444TIP3   OH228822   4.813   1.352   2.158 -0.2812 -0.2062 -0.5681
 2444TIP3    H128823   4.758   1.398   2.095  1.7675  0.8269 -1.7077
 2444TIP3    H228824   4.806   1.259   2.133 -0.7550  0.0158 -1.2794
 2445TIP3   OH228825   3.848   1.877   3.272 -0.6055 -0.0067  0.1363
 2445TIP3    H128826   3.766   1.915   3.243  0.7746  2.0072 -1.4129
 2445TIP3    H228827   3.864   1.917   3.358 -2.0855 -1.8854  1.3810
 2446TIP3   OH228828   3.309   3.690  10.659 -0.0212 -0.2958 -0.3101
 2446TIP3    H128829   3.306   3.687  10.563  2.2518  0.3683 -0.4715
 2446TIP3    H228830   3.270   3.774  10.681 -0.4296 -0.3890 -0.6651
 2447TIP3   OH228831   5.152   2.640   2.338 -0.2143  0.2568 -0.0190
 2447TIP3    H128832   5.198   2.705   2.390  0.4438 -0.1505 -0.0806
 2447TIP3    H228833   5.113   2.581   2.403 -1.3432  1.0487  0.0544
 2448TIP3   OH228834   0.464   4.402  14.042  0.2087 -0.0930  0.0924
 2448TIP3    H128835   0.505   4.400  13.956  1.9484 -0.8935  0.8761
 2448TIP3    H228836   0.485   4.489  14.077  1.4379 -0.5401  0.5369
 2449TIP3   OH228837   1.866   2.499   4.587  0.0969  0.2581  0.1215
 2449TIP3    H128838   1.799   2.432   4.607  0.2845 -0.5841 -1.8151
 2449TIP3    H228839   1.821   2.560   4.527  1.0369 -0.3798 -1.2901
 2450TIP3   OH228840   6.771   5.775  14.137 -0.1411  0.8056 -0.1833
 2450TIP3    H128841   6.748   5.851  14.190 -2.4556  1.1297 -1.5159
 2450TIP3    H228842   6.837   5.807  14.077  0.9969  0.9655  1.0996
 2451TIP3   OH228843   0.892   0.698   3.585  0.1500 -0.5972  0.4113
 2451TIP3    H128844   0.980   0.730   3.606 -0.2572  0.8167  0.1155
 2451TIP3    H228845   0.838   0.726   3.659 -0.6195  1.3464 -0.8007
 2452TIP3   OH228846   4.735   3.819   4.856  0.1168  0.2373 -0.3995
 2452TIP3    H128847   4.757   3.867   4.936 -0.7657  1.0066 -0.5984
 2452TIP3    H228848   4.646   3.847   4.834 -0.5258 -1.6645 -0.4266
 2453TIP3   OH228849   2.285   5.587   2.814  0.6518  0.1291 -0.4468
 2453TIP3    H128850   2.311   5.627   2.897  0.8157  0.7762 -0.8044
 2453TIP3    H228851   2.225   5.517   2.839  0.5134  0.4717  0.2007
 2454TIP3   OH228852   4.198   3.363   6.635  0.2466  0.1054 -0.5130
 2454TIP3    H128853   4.190   3.304   6.560  0.3346 -0.2556 -0.2433
 2454TIP3    H228854   4.274   3.331   6.683  1.7689  1.8662 -1.6163
 2455TIP3   OH228855   1.867   0.770   5.869 -0.3849 -0.0567  0.0078
 2455TIP3    H128856   1.774   0.750   5.879  0.1723 -2.6379  0.6381
 2455TIP3    H228857   1.900   0.781   5.958  0.3567 -1.5757 -0.0539
 2456TIP3   OH228858   1.803   2.881   5.472 -0.1463  0.1224  0.1313
 2456TIP3    H128859   1.709   2.882   5.453 -0.1128 -0.3190 -0.0687
 2456TIP3    H228860   1.823   2.789   5.489 -0.0806  0.4173  1.8662
 2457TIP3   OH228861   3.188   4.139   1.459  0.2057 -0.2947 -0.4456
 2457TIP3    H128862   3.099   4.122   1.427  0.3331  0.5697 -1.3013
 2457TIP3    H228863   3.227   4.052   1.469  0.0719 -0.6134 -2.4375
 2458TIP3   OH228864   3.152   1.297   0.565 -0.1710 -0.2200 -0.2737
 2458TIP3    H128865   3.105   1.326   0.643  0.1665 -1.6396  0.5028
 2458TIP3    H228866   3.152   1.373   0.507 -2.9558  0.0151 -0.1137
 2459TIP3   OH228867   0.684   5.685  12.654 -0.2176  0.1717  0.2237
 2459TIP3    H128868   0.617   5.716  12.715 -0.9581  0.2676 -0.6072
 2459TIP3    H228869   0.659   5.594  12.637  1.3353 -0.6161  1.8360
 2460TIP3   OH228870   5.018   4.986  13.527  0.5434  0.1968 -0.0111
 2460TIP3    H128871   5.053   5.076  13.526  0.2317  0.3285  0.5489
 2460TIP3    H228872   4.964   4.983  13.606  2.0749 -1.0655  1.0426
 2461TIP3   OH228873   4.945   5.419   4.376  0.1001  0.2965 -0.2736
 2461TIP3    H128874   4.972   5.492   4.320  0.7929  0.8249  0.7185
 2461TIP3    H228875   4.858   5.443   4.408  0.5096  0.9266  0.4089
 2462TIP3   OH228876   6.777   0.640  14.690  0.4828 -0.1882 -0.0357
 2462TIP3    H128877   6.833   0.595  14.627  0.9311 -0.6363  0.6713
 2462TIP3    H228878   6.717   0.573  14.722  2.9033 -1.1554  3.0887
 2463TIP3   OH228879   0.302   5.603  13.493  0.1529  0.1701  0.1279
 2463TIP3    H128880   0.369   5.656  13.450  0.5071  0.6286  1.2049
 2463TIP3    H228881   0.310   5.517  13.452  1.1539  0.3222 -0.0221
 2464TIP3   OH228882   4.090   4.504   3.329  0.4957 -0.2060  0.2005
 2464TIP3    H128883   4.077   4.599   3.319 -0.8107 -0.2904  0.8987
 2464TIP3    H228884   4.053   4.484   3.415  2.8614 -1.0043  1.1200
 2465TIP3   OH228885   5.327   2.207   4.773  0.0297 -0.5039 -0.3917
 2465TIP3    H128886   5.311   2.210   4.867 -0.0872  0.1949 -0.4284
 2465TIP3    H228887   5.252   2.161   4.737  0.6505 -1.8580 -0.0311
 2466TIP3   OH228888   5.071   0.128  17.222  0.2588  0.3598  0.0741
 2466TIP3    H128889   5.044   0.082  17.143  2.7244  1.0286 -1.2400
 2466TIP3    H228890   5.160   0.097  17.240  0.3558  1.4212  1.6571
 2467TIP3   OH228891   3.040   2.894  15.903 -0.0891 -0.4062 -0.1364
 2467TIP3    H128892   3.091   2.847  15.968 -1.4665  1.6291  2.6694
 2467TIP3    H228893   2.958   2.845  15.896  0.6808 -1.5595 -1.7442
 2468TIP3   OH228894   5.566   0.737   0.629 -0.0532  0.0770 -0.1937
 2468TIP3    H128895   5.510   0.742   0.552 -0.1605  1.9398 -0.0401
 2468TIP3    H228896   5.509   0.761   0.702  0.2843 -0.7130  0.3345
 2469TIP3   OH228897   6.369   6.677  13.245  0.0215  0.3158  0.4955
 2469TIP3    H128898   6.405   6.619  13.178  0.5366 -0.4668  1.4260
 2469TIP3    H228899   6.443   6.730  13.273 -0.2402  0.7878  0.2997
 2470TIP3   OH228900   5.981   1.169   6.416 -0.0167  0.4114  0.0427
 2470TIP3    H128901   5.914   1.158   6.348  1.2472  1.2674 -1.4122
 2470TIP3    H228902   6.000   1.080   6.445  0.0500 -0.0709 -1.3789
 2471TIP3   OH228903   1.372   5.837   2.053  0.3609  0.0296  0.4782
 2471TIP3    H128904   1.354   5.859   1.962 -0.6709  2.9256  1.2887
 2471TIP3    H228905   1.429   5.760   2.048 -0.7413 -0.7175 -2.5405
 2472TIP3   OH228906   3.511   3.548   3.982  0.1765  0.7265 -0.1705
 2472TIP3    H128907   3.554   3.632   3.998 -1.3579  1.4692  0.2187
 2472TIP3    H228908   3.431   3.571   3.935  0.3783 -0.6575 -1.2681
 2473TIP3   OH228909   4.663   0.158   3.612 -0.1978 -0.1547  0.3813
 2473TIP3    H128910   4.659   0.088   3.677 -0.2644 -0.7053 -0.2078
 2473TIP3    H228911   4.576   0.158   3.572  0.0170 -0.1952 -0.0922
 2474TIP3   OH228912   4.355   2.901  13.951 -0.0624 -0.4687  0.1016
 2474TIP3    H128913   4.315   2.825  13.993 -0.1628 -1.2895 -1.4100
 2474TIP3    H228914   4.310   2.909  13.866  1.1945  0.1642 -0.5361
 2475TIP3   OH228915   6.771   6.104   2.411 -0.1842  0.2396  0.4810
 2475TIP3    H128916   6.677   6.086   2.418 -0.1093 -0.5449 -0.2591
 2475TIP3    H228917   6.808   6.071   2.492 -0.2991 -1.4210 -0.0966
 2476TIP3   OH228918   5.190   5.701  16.658 -0.0446  0.5514 -0.6331
 2476TIP3    H128919   5.240   5.769  16.613 -0.6059  0.7754 -0.9293
 2476TIP3    H228920   5.100   5.734  16.661 -0.2780 -0.0644 -0.5576
 2477TIP3   OH228921   0.099   4.709   4.989 -0.4190  0.3315 -0.1129
 2477TIP3    H128922   0.101   4.737   5.080 -1.0089  0.4438 -0.1322
 2477TIP3    H228923   0.011   4.731   4.958 -1.1241 -2.0292  0.0296
 2478TIP3   OH228924   2.449   1.306   0.599 -0.6406  0.0307  0.2538
 2478TIP3    H128925   2.366   1.259   0.588 -0.7224  0.3525 -0.6081
 2478TIP3    H228926   2.484   1.312   0.510 -0.2559  0.9298  0.4612
 2479TIP3   OH228927   2.014   3.311   1.142  0.0961 -0.2067 -0.6545
 2479TIP3    H128928   1.966   3.233   1.114 -0.6601 -0.1212  0.3326
 2479TIP3    H228929   2.090   3.315   1.084  0.2683 -1.8016 -0.5691
 2480TIP3   OH228930   6.551   2.590  16.750 -0.4804  0.2947 -0.3092
 2480TIP3    H128931   6.471   2.639  16.731 -0.0369  0.4333 -2.0282
 2480TIP3    H228932   6.529   2.499  16.730  0.0428  0.4648 -1.8255
 2481TIP3   OH228933   6.341   3.111  13.268 -1.2403 -0.4615  0.2242
 2481TIP3    H128934   6.330   3.018  13.287 -4.3620 -0.3184 -0.4321
 2481TIP3    H228935   6.372   3.113  13.177  0.6693 -0.8108  0.8063
 2482TIP3   OH228936   3.057   2.260   1.632 -0.3520 -0.7813 -0.7369
 2482TIP3    H128937   3.017   2.188   1.584 -1.1184 -0.0510 -1.2327
 2482TIP3    H228938   3.151   2.248   1.620 -0.4148 -2.2905  0.0887
 2483TIP3   OH228939   0.144   2.526   5.296 -0.0576  0.1674 -0.0798
 2483TIP3    H128940   0.158   2.463   5.366  0.8176  0.5408  0.0868
 2483TIP3    H228941   0.061   2.499   5.256 -0.3070 -0.3435  0.7711
 2484TIP3   OH228942   0.647   4.439   4.111 -0.2747  0.1806  0.0115
 2484TIP3    H128943   0.599   4.440   4.028  1.1974  0.3847 -0.8884
 2484TIP3    H228944   0.691   4.524   4.115  0.4771 -0.2111  0.4928
 2485TIP3   OH228945   0.686   2.486   1.312 -0.2482  0.2141 -0.3344
 2485TIP3    H128946   0.763   2.443   1.350 -1.6740 -2.1830  0.0021
 2485TIP3    H228947   0.653   2.541   1.383  1.3636  1.6741 -0.6350
 2486TIP3   OH228948   3.185   0.419   2.883  0.1923 -0.4382 -0.2076
 2486TIP3    H128949   3.108   0.474   2.872 -0.8259 -1.9554 -0.9764
 2486TIP3    H228950   3.170   0.370   2.963 -0.1720 -1.5061 -0.9035
 2487TIP3   OH228951   4.272   6.741   0.284  0.0949 -0.1565 -0.3910
 2487TIP3    H128952   4.347   6.727   0.342 -1.0116  0.5653  1.2923
 2487TIP3    H228953   4.202   6.687   0.322 -0.4762 -0.2168 -1.4797
 2488TIP3   OH228954   3.201   5.000   0.868  0.1463 -0.2416 -0.3684
 2488TIP3    H128955   3.183   4.920   0.918  0.9541 -0.1401  0.1076
 2488TIP3    H228956   3.115   5.032   0.842 -0.1473 -1.9576 -1.6790
 2489TIP3   OH228957   5.176   6.601   2.194 -0.2905  0.0434 -0.0813
 2489TIP3    H128958   5.197   6.514   2.158  0.9952  0.4695 -0.4420
 2489TIP3    H228959   5.183   6.659   2.118  0.8535  0.7307  0.5211
 2490TIP3   OH228960   4.288   2.624   3.701 -0.2255  0.5417 -0.8246
 2490TIP3    H128961   4.307   2.546   3.754 -1.0287  0.7625 -0.1908
 2490TIP3    H228962   4.334   2.608   3.619 -2.4458 -1.8411 -1.7628
 2491TIP3   OH228963   3.311   2.706   3.199  0.0110 -0.7174 -0.2335
 2491TIP3    H128964   3.378   2.714   3.267  0.0324 -2.5076  0.0013
 2491TIP3    H228965   3.297   2.796   3.169  0.9647 -0.0462  1.1957
 2492TIP3   OH228966   0.494   1.283  13.474 -0.0452 -0.4450 -0.1658
 2492TIP3    H128967   0.518   1.264  13.565  1.4553 -0.4380 -0.5426
 2492TIP3    H228968   0.422   1.222  13.456  1.2175 -2.1839  0.3086
 2493TIP3   OH228969   4.047   5.655   1.982  0.1172 -0.1753 -0.0764
 2493TIP3    H128970   4.077   5.693   1.899  0.6768 -0.4152  0.0135
 2493TIP3    H228971   4.000   5.727   2.025  0.4952  0.1830 -0.2543
 2494TIP3   OH228972   1.258   2.193   1.672  0.4041 -0.1106  0.2361
 2494TIP3    H128973   1.250   2.199   1.576  0.0865 -0.6851  0.2212
 2494TIP3    H228974   1.347   2.162   1.687  0.9578  1.3908  0.1923
 2495TIP3   OH228975   1.392   0.085  16.070 -0.5682  0.1005  0.4003
 2495TIP3    H128976   1.380   0.174  16.036 -1.6995  0.9748  2.8214
 2495TIP3    H228977   1.480   0.086  16.108 -0.4398  0.0629  0.1064
 2496TIP3   OH228978   2.639   5.781  12.564  0.2080 -0.3491  0.3693
 2496TIP3    H128979   2.577   5.806  12.632  0.9562  1.5830  0.3901
 2496TIP3    H228980   2.676   5.698  12.595 -0.3090 -0.0914  1.7426
 2497TIP3   OH228981   6.146   1.776  16.908  1.1336 -0.1069  0.1045
 2497TIP3    H128982   6.204   1.702  16.925 -0.0184 -1.8267 -2.7222
 2497TIP3    H228983   6.204   1.851  16.897  2.4616 -0.9207  1.3004
 2498TIP3   OH228984   6.246   3.797  13.029  0.8595  0.1863  0.4419
 2498TIP3    H128985   6.218   3.837  12.948  2.1486 -1.2517 -0.7894
 2498TIP3    H228986   6.187   3.832  13.096 -2.2474 -0.8444 -1.5416
 2499TIP3   OH228987   6.678   5.347   0.393 -0.3090 -0.2682 -0.0819
 2499TIP3    H128988   6.608   5.308   0.446 -1.4076  0.7749 -0.7110
 2499TIP3    H228989   6.691   5.285   0.322 -2.5481  0.7516 -1.4768
 2500TIP3   OH228990   5.338   6.656  15.250  0.2761 -0.3108  0.0281
 2500TIP3    H128991   5.399   6.693  15.313 -0.9704  1.8743  0.0378
 2500TIP3    H228992   5.363   6.695  15.166  0.5295 -1.4770 -0.4582
 2501TIP3   OH228993   6.707   3.256   3.089  0.5354  0.3410  0.1911
 2501TIP3    H128994   6.650   3.318   3.044  0.3929 -0.4645 -0.7709
 2501TIP3    H228995   6.790   3.262   3.042  0.2700 -0.7868 -0.4517
 2502TIP3   OH228996   6.725   0.603   4.814  0.6876 -0.5111 -0.7296
 2502TIP3    H128997   6.685   0.688   4.832  2.0073 -0.0791  0.3440
 2502TIP3    H228998   6.753   0.609   4.723  4.1265  1.7631  0.2337
 2503TIP3   OH228999   3.548   1.289  12.323  0.4468  0.5095 -0.6462
 2503TIP3    H129000   3.541   1.337  12.405 -1.3058  0.1107 -0.5202
 2503TIP3    H229001   3.524   1.199  12.346  0.2411  0.3262 -1.5440
 2504TIP3   OH229002   4.259   3.279  13.557  0.5425 -0.2395  0.4968
 2504TIP3    H129003   4.191   3.212  13.550 -0.7190  0.8796  1.5698
 2504TIP3    H229004   4.334   3.233  13.596 -0.4522 -0.9547  1.6335
 2505TIP3   OH229005   4.550   2.734  13.862  0.0965 -0.1219  0.3425
 2505TIP3    H129006   4.523   2.812  13.912  2.6065  0.8407  0.3409
 2505TIP3    H229007   4.568   2.668  13.929  0.2676  0.0859  0.5042
 2506TIP3   OH229008   5.410   4.654  11.892 -0.0100 -0.3019  0.3872
 2506TIP3    H129009   5.506   4.647  11.890  0.1730  1.4422  0.9948
 2506TIP3    H229010   5.394   4.744  11.922 -1.8353 -0.0322 -1.2178
 2507TIP3   OH229011   2.869   1.003  17.262  0.0622  0.5887 -0.2315
 2507TIP3    H129012   2.927   1.005  17.338 -0.6662  1.3745  0.3099
 2507TIP3    H229013   2.882   0.915  17.225 -0.9382 -0.4971  1.8679
 2508TIP3   OH229014   3.760   5.117   2.539  0.3458 -0.1566 -0.0118
 2508TIP3    H129015   3.835   5.175   2.535 -1.3370  2.1684 -0.1531
 2508TIP3    H229016   3.709   5.148   2.614 -1.0633 -0.8547 -0.6376
 2509TIP3   OH229017   3.200   2.913   2.560  0.3030  0.0477  0.2276
 2509TIP3    H129018   3.217   2.827   2.599  0.5551 -0.6953 -1.3991
 2509TIP3    H229019   3.114   2.939   2.594  0.2050 -0.8775  0.7088
 2510TIP3   OH229020   4.597   3.112  12.573  0.4524  0.5303  0.1214
 2510TIP3    H129021   4.651   3.100  12.494  0.1896  0.6454 -0.0774
 2510TIP3    H229022   4.650   3.168  12.630  0.5685  0.5944 -0.0473
 2511TIP3   OH229023   5.096   0.903  13.627 -0.3095 -0.1675 -0.2474
 2511TIP3    H129024   5.048   0.922  13.708  1.9667 -2.4897  1.8426
 2511TIP3    H229025   5.138   0.985  13.604  0.4722  0.1296  2.0488
 2512TIP3   OH229026   0.021   0.666  15.066  0.0804  0.1523 -0.1495
 2512TIP3    H129027   0.085   0.646  15.134 -1.5353  1.0878  1.7368
 2512TIP3    H229028  -0.013   0.580  15.040 -0.5313 -0.1311  1.5148
 2513TIP3   OH229029   4.519   1.387  12.723 -0.3597  0.2048  0.2360
 2513TIP3    H129030   4.533   1.372  12.629 -2.3255  0.3135 -0.1189
 2513TIP3    H229031   4.550   1.477  12.737 -2.4309  1.1873 -0.9392
 2514TIP3   OH229032   0.085   1.601   0.712 -0.4788  0.0537  0.3674
 2514TIP3    H129033   0.120   1.623   0.798 -0.2983  0.2316  0.2487
 2514TIP3    H229034   0.158   1.615   0.652 -0.5635 -0.2025  0.2019
 2515TIP3   OH229035   1.181   4.945   0.564  0.6696  0.2242  0.0813
 2515TIP3    H129036   1.128   4.874   0.600  0.7291 -0.8236 -1.7609
 2515TIP3    H229037   1.181   5.012   0.632 -1.0061 -0.7382  1.0964
 2516TIP3   OH229038   2.141   3.590   2.916 -0.3680  0.9415  0.3261
 2516TIP3    H129039   2.185   3.666   2.954 -1.2327  2.0630 -0.8175
 2516TIP3    H229040   2.169   3.516   2.969  1.4904  1.8766  0.7014
 2517TIP3   OH229041   3.070   0.049   1.539  0.1863  0.9959 -0.8442
 2517TIP3    H129042   3.054  -0.040   1.571  1.2295  0.7379 -1.0371
 2517TIP3    H229043   2.992   0.070   1.487 -0.7478  0.7636  0.3881
 2518TIP3   OH229044   0.252   0.232   5.361  0.0580  0.2183  0.3160
 2518TIP3    H129045   0.257   0.306   5.301  1.3622 -1.0224 -1.1786
 2518TIP3    H229046   0.191   0.171   5.321  0.8999 -0.6034  0.2546
 2519TIP3   OH229047   0.998   1.150  14.197  0.6396 -0.2177  0.1548
 2519TIP3    H129048   1.009   1.219  14.132  1.4029 -0.0165  0.4822
 2519TIP3    H229049   0.936   1.088  14.157 -0.9753  1.2183  0.3230
 2520TIP3   OH229050   4.029   0.603  14.364 -0.3159 -0.1326 -0.5657
 2520TIP3    H129051   4.113   0.605  14.411  0.5868  0.0176 -2.1166
 2520TIP3    H229052   4.044   0.657  14.287 -2.2633  0.9326 -0.2478
 2521TIP3   OH229053   6.157   2.260  12.685 -0.4527 -0.5433  0.1345
 2521TIP3    H129054   6.080   2.232  12.637 -0.1589  0.6562 -1.0880
 2521TIP3    H229055   6.224   2.275  12.618  0.9028 -1.6376  1.1690
 2522TIP3   OH229056   2.140   3.342  15.602 -0.3539  0.2308  0.4707
 2522TIP3    H129057   2.154   3.257  15.644 -1.4135 -1.1383 -1.7426
 2522TIP3    H229058   2.079   3.324  15.531  0.2008  2.6723 -0.7456
 2523TIP3   OH229059   2.274   6.700   4.189 -0.7023  0.0259 -0.1508
 2523TIP3    H129060   2.285   6.776   4.245  1.1902  0.5959 -1.2177
 2523TIP3    H229061   2.261   6.627   4.250 -3.2810  1.2363  0.8692
 2524TIP3   OH229062   6.627   2.503  13.101 -0.1831  0.1145 -0.3962
 2524TIP3    H129063   6.555   2.445  13.127  0.7604  0.0249  2.4255
 2524TIP3    H229064   6.698   2.443  13.078  0.4958  0.0449  1.6367
 2525TIP3   OH229065   4.662   5.951  14.827  0.2815  0.4085  0.4841
 2525TIP3    H129066   4.728   5.966  14.895 -0.3798 -0.3605  1.3094
 2525TIP3    H229067   4.713   5.941  14.746  1.3661 -2.0401  1.3767
 2526TIP3   OH229068   3.601   4.718  12.979  0.3099 -0.3829  0.3120
 2526TIP3    H129069   3.564   4.788  12.925  2.9153  0.2644 -0.8181
 2526TIP3    H229070   3.527   4.682  13.027 -1.9674 -0.0501 -2.6672
 2527TIP3   OH229071   2.539   0.629   5.675  0.0269  0.6042 -0.4993
 2527TIP3    H129072   2.515   0.537   5.660 -0.2143  0.5598  0.1343
 2527TIP3    H229073   2.464   0.666   5.722  0.0732  1.1595 -0.8572
 2528TIP3   OH229074   0.177   4.000   0.764  0.9221  0.1562  0.3847
 2528TIP3    H129075   0.203   4.053   0.840 -0.9082  4.5834 -1.6789
 2528TIP3    H229076   0.082   3.996   0.769  0.7683  0.3750 -1.4980
 2529TIP3   OH229077   0.993   3.616  13.339 -0.7080  0.0111 -0.0071
 2529TIP3    H129078   0.999   3.606  13.434 -3.1822 -2.0925  0.0618
 2529TIP3    H229079   1.084   3.621  13.310  0.1167  1.2168  2.4689
 2530TIP3   OH229080   1.617   5.015  15.038  0.0156  0.3134  0.4260
 2530TIP3    H129081   1.538   5.026  15.092 -0.0448 -1.2223  0.6987
 2530TIP3    H229082   1.610   4.925  15.004  1.9653 -0.0997  0.9866
 2531TIP3   OH229083   1.360   3.952  12.682 -0.0963  0.0686 -0.1209
 2531TIP3    H129084   1.429   3.908  12.731  1.1651  1.2682 -0.7623
 2531TIP3    H229085   1.330   3.886  12.619  0.7040 -0.3671 -0.0626
 2532TIP3   OH229086   6.322   2.682  14.908 -0.3383  0.1367  0.2434
 2532TIP3    H129087   6.387   2.612  14.897 -0.5696 -0.0871  0.2866
 2532TIP3    H229088   6.373   2.763  14.908 -0.1340  0.0088 -0.4576
 2533TIP3   OH229089   0.410   0.510  11.072 -0.3400  0.3367 -0.4076
 2533TIP3    H129090   0.455   0.554  11.145 -0.1800 -0.2670 -0.1356
 2533TIP3    H229091   0.476   0.504  11.003  0.4698 -1.7618  0.4649
 2534TIP3   OH229092   1.034   6.484  14.313 -0.3565  0.0861 -0.3251
 2534TIP3    H129093   0.971   6.529  14.256  0.2636  0.6062 -0.6111
 2534TIP3    H229094   1.118   6.498  14.271  0.0292 -0.1095  0.3681
 2535TIP3   OH229095   1.802   2.196   3.024 -0.0480  0.3862 -0.5015
 2535TIP3    H129096   1.796   2.191   3.120 -3.0178 -1.1143 -0.6321
 2535TIP3    H229097   1.864   2.266   3.007  0.9902  0.3284  2.5161
 2536TIP3   OH229098   0.603   0.654  11.683  0.0097  0.1811  0.5062
 2536TIP3    H129099   0.688   0.677  11.720  0.3082  0.9445 -0.6173
 2536TIP3    H229100   0.623   0.602  11.605 -0.5970 -0.9278  1.0568
 2537TIP3   OH229101   1.036   2.811  15.086  0.0554 -0.5819 -0.1418
 2537TIP3    H129102   1.046   2.827  14.993  0.7944  0.2317  0.0651
 2537TIP3    H229103   1.063   2.893  15.128 -2.1452 -0.2303  0.7185
 2538TIP3   OH229104   4.865   0.266   1.958 -0.7260 -0.5600  0.2477
 2538TIP3    H129105   4.907   0.323   2.022  1.5087  0.2860 -1.8151
 2538TIP3    H229106   4.807   0.324   1.909 -0.4252 -0.6230 -0.1858
 2539TIP3   OH229107   5.188   4.646   6.150  0.2694 -0.3271  0.5649
 2539TIP3    H129108   5.221   4.566   6.111 -1.4597 -0.8891  0.1709
 2539TIP3    H229109   5.218   4.643   6.241 -0.5663 -1.9191  0.8269
 2540TIP3   OH229110   6.379   0.208  13.501  0.2014 -0.3691  0.2793
 2540TIP3    H129111   6.370   0.231  13.408  0.6058  0.8040  0.5172
 2540TIP3    H229112   6.466   0.169  13.507  1.2360  1.8178  0.5601
 2541TIP3   OH229113   4.801   5.952  12.229 -0.0860  0.1537 -0.3326
 2541TIP3    H129114   4.827   5.860  12.221 -0.5117 -0.0254  0.2440
 2541TIP3    H229115   4.832   5.978  12.316 -1.2758  0.1131  0.1173
 2542TIP3   OH229116   0.796   1.124  11.076  0.2305 -0.0592 -0.2211
 2542TIP3    H129117   0.752   1.152  10.995  0.6123  1.1644 -0.0372
 2542TIP3    H229118   0.811   1.206  11.123  1.4679 -0.6028  0.3461
 2543TIP3   OH229119   0.895   6.487  11.134  0.0321  0.1186  0.2576
 2543TIP3    H129120   0.967   6.425  11.127 -0.5459 -0.4776 -0.6981
 2543TIP3    H229121   0.840   6.469  11.057  0.4320  2.5701 -0.6942
 2544TIP3   OH229122   4.790   0.427   5.214 -0.4568  0.2760  0.0248
 2544TIP3    H129123   4.847   0.402   5.287 -2.6045 -0.4303  1.5698
 2544TIP3    H229124   4.841   0.489   5.163  2.4946 -1.9542  0.0268
 2545TIP3   OH229125   4.362   2.972  14.766 -0.6330  0.0214  0.6438
 2545TIP3    H129126   4.330   3.053  14.725 -0.3625 -0.2032 -0.0159
 2545TIP3    H229127   4.289   2.911  14.760 -0.3499 -0.2428 -0.1604
 2546TIP3   OH229128   0.719   1.879   0.510 -0.2769  0.0244 -0.4732
 2546TIP3    H129129   0.742   1.938   0.582  3.0223 -0.2670 -1.1362
 2546TIP3    H229130   0.738   1.791   0.543  1.7219 -0.0828 -1.7278
 2547TIP3   OH229131   3.487   1.700  11.342  0.5144  0.0564 -0.2681
 2547TIP3    H129132   3.459   1.652  11.264 -0.3813  0.5840 -0.2837
 2547TIP3    H229133   3.582   1.691  11.343  0.4942 -0.3410 -1.1674
 2548TIP3   OH229134   6.588   0.882   5.120  0.1042 -0.2163  0.0851
 2548TIP3    H129135   6.606   0.958   5.175  2.8241 -1.7647  1.5463
 2548TIP3    H229136   6.669   0.868   5.071 -1.0340 -1.0215 -1.6886
 2549TIP3   OH229137   5.514   4.630   2.669 -0.1345 -0.6451  0.1796
 2549TIP3    H129138   5.420   4.646   2.677 -0.0123 -0.8569  3.0046
 2549TIP3    H229139   5.528   4.545   2.711  1.2724 -0.8783 -0.6800
 2550TIP3   OH229140   1.029   2.432  16.139  0.0598 -0.1323 -0.7037
 2550TIP3    H129141   1.061   2.369  16.074  1.9473 -0.6629  0.6653
 2550TIP3    H229142   0.958   2.387  16.184 -2.2261  0.7106 -3.1379
 2551TIP3   OH229143   1.955   6.677  17.009 -0.2894  0.3722  0.6330
 2551TIP3    H129144   1.985   6.648  16.923  0.2107 -0.0050  0.9299
 2551TIP3    H229145   2.020   6.742  17.037  0.5680 -0.8189  1.5019
 2552TIP3   OH229146   5.916   3.581   0.861 -0.0776 -0.0854 -0.2703
 2552TIP3    H129147   5.822   3.586   0.845 -0.0689  1.8720  0.0495
 2552TIP3    H229148   5.953   3.653   0.810  0.9688  0.6422  1.4332
 2553TIP3   OH229149   0.034   1.529  12.083 -0.2163 -0.0519  0.0383
 2553TIP3    H129150   0.079   1.598  12.132 -2.6839  1.7922 -0.1371
 2553TIP3    H229151   0.053   1.548  11.991  1.2844 -1.2735  0.0444
 2554TIP3   OH229152   0.800   0.095  14.479 -0.4144  0.5288 -0.1170
 2554TIP3    H129153   0.874   0.056  14.526 -0.0599  0.0328 -1.0515
 2554TIP3    H229154   0.726   0.037  14.499 -0.2674  0.3229 -0.1640
 2555TIP3   OH229155   5.888   4.344   1.729  0.0655 -0.5613  0.7049
 2555TIP3    H129156   5.906   4.265   1.782  1.4629 -0.9994 -0.3607
 2555TIP3    H229157   5.975   4.374   1.702 -0.4447  1.3883  1.1014
 2556TIP3   OH229158   0.711   0.503   1.070  0.0146 -0.1105 -0.1140
 2556TIP3    H129159   0.623   0.541   1.068 -0.2601 -0.7844 -2.2052
 2556TIP3    H229160   0.769   0.579   1.085 -0.8072  0.5283 -0.0882
 2557TIP3   OH229161   1.652   0.471  17.121 -0.1397 -0.0256 -0.0411
 2557TIP3    H129162   1.583   0.479  17.054  2.5490 -3.2485 -3.6358
 2557TIP3    H229163   1.622   0.400  17.178  0.0612 -1.4308 -1.5947
 2558TIP3   OH229164   6.809   6.367  16.623  0.3909 -0.2871 -0.3293
 2558TIP3    H129165   6.863   6.294  16.650  1.3458  0.3823 -0.3765
 2558TIP3    H229166   6.779   6.406  16.705  0.0666 -0.5930 -0.3010
 2559TIP3   OH229167   5.811   2.100  14.478 -0.4563 -0.3241 -0.2450
 2559TIP3    H129168   5.737   2.141  14.434  0.6344  2.5648  0.3515
 2559TIP3    H229169   5.799   2.122  14.571  1.5615  1.1116 -0.2474
 2560TIP3   OH229170   6.287   4.826   4.694  0.5452  0.0841  0.3463
 2560TIP3    H129171   6.275   4.739   4.734 -0.0980  0.9184  2.0434
 2560TIP3    H229172   6.362   4.863   4.740  0.9272  0.3907 -0.4974
 2561TIP3   OH229173   3.855   2.742  14.694  0.0252  0.1822  0.3926
 2561TIP3    H129174   3.927   2.725  14.755  0.1400 -0.5478  0.0657
 2561TIP3    H229175   3.812   2.820  14.729  1.4412  1.0972  0.1602
 2562TIP3   OH229176   3.445   0.202  11.583 -0.2123  0.3383 -0.3717
 2562TIP3    H129177   3.457   0.197  11.488  1.9617  1.3129 -0.1966
 2562TIP3    H229178   3.443   0.110  11.611 -1.1231  0.0325 -1.3491
 2563TIP3   OH229179   2.332   3.608   3.230 -0.2202 -0.7201 -0.5379
 2563TIP3    H129180   2.311   3.688   3.183  0.5428 -0.1344  0.0928
 2563TIP3    H229181   2.259   3.597   3.291 -0.4500 -0.6508 -0.7959
 2564TIP3   OH229182   4.052   0.211   4.656  0.2144 -0.6118 -0.5341
 2564TIP3    H129183   3.969   0.220   4.702 -0.3031 -2.6417 -0.9497
 2564TIP3    H229184   4.090   0.299   4.657 -1.5381  0.1914  0.3850
 2565TIP3   OH229185   3.244   4.020  16.349  0.7023 -0.3175 -0.0429
 2565TIP3    H129186   3.277   3.981  16.268  3.2415  0.2085  0.6509
 2565TIP3    H229187   3.287   3.972  16.419 -1.0283 -0.3993  1.0271
 2566TIP3   OH229188   0.872   2.129   0.363  0.1031  0.7877  0.4729
 2566TIP3    H129189   0.777   2.117   0.371  0.1934  0.1880  0.6648
 2566TIP3    H229190   0.894   2.186   0.437  0.0866 -0.1804  1.2515
 2567TIP3   OH229191   1.054   1.519   3.876 -0.2159  0.4228  0.2606
 2567TIP3    H129192   0.999   1.496   3.801 -0.6810 -0.9717  0.9928
 2567TIP3    H229193   1.114   1.585   3.842 -0.1296 -0.4684 -1.4687
 2568TIP3   OH229194   1.422   3.018  12.968  0.4060 -0.6665 -0.9978
 2568TIP3    H129195   1.406   3.044  13.059 -0.0852 -2.0499 -0.6663
 2568TIP3    H229196   1.470   3.092  12.930 -3.0116  1.8748 -0.8508
 2569TIP3   OH229197   6.774   5.087  15.215  0.2721 -0.2061 -0.4096
 2569TIP3    H129198   6.746   5.163  15.164  0.3435  1.6135  2.0517
 2569TIP3    H229199   6.865   5.107  15.240  0.7558 -1.7661 -0.8174
 2570TIP3   OH229200   5.233   3.427  13.529 -0.4888 -0.1273 -0.3499
 2570TIP3    H129201   5.161   3.466  13.480 -1.2567  0.9819  1.5541
 2570TIP3    H229202   5.253   3.346  13.482 -2.1438  0.1423 -1.6121
 2571TIP3   OH229203   4.883   5.954   1.971  0.4131  0.4874 -0.3469
 2571TIP3    H129204   4.811   5.892   1.976  0.1472  0.9117  2.8644
 2571TIP3    H229205   4.841   6.038   1.950  0.5516  0.0322 -2.7074
 2572TIP3   OH229206   2.608   6.494   4.149  0.5420  0.3533 -0.0383
 2572TIP3    H129207   2.604   6.452   4.063  0.7345  0.5918 -0.1645
 2572TIP3    H229208   2.629   6.423   4.209  0.9988  0.2862 -0.2708
 2573TIP3   OH229209   5.404   0.744  10.665  0.3684  0.3077  0.2002
 2573TIP3    H129210   5.320   0.759  10.710  0.1500  1.4283 -0.5403
 2573TIP3    H229211   5.466   0.800  10.711  0.6623 -0.2653  0.5265
 2574TIP3   OH229212   2.435   1.369  16.422  0.1000  0.1823 -0.3826
 2574TIP3    H129213   2.487   1.383  16.502 -1.3643  1.8751  0.3268
 2574TIP3    H229214   2.425   1.274  16.416 -0.9240  0.0653  2.2456
 2575TIP3   OH229215   0.643   6.481  12.017 -0.4717  0.3752 -0.1789
 2575TIP3    H129216   0.739   6.491  12.018 -0.1452 -2.0026  0.8260
 2575TIP3    H229217   0.611   6.557  11.968  2.0403  0.3108 -2.1250
 2576TIP3   OH229218   5.755   2.989  15.611  0.5983 -0.1109 -0.2680
 2576TIP3    H129219   5.766   2.947  15.525  0.7251  0.0522 -0.3326
 2576TIP3    H229220   5.837   3.037  15.624 -0.0578  1.2091 -0.7998
 2577TIP3   OH229221   5.227   4.284   1.196 -0.1151 -0.1231  0.2855
 2577TIP3    H129222   5.246   4.270   1.289 -1.2866 -0.2643  0.5132
 2577TIP3    H229223   5.226   4.196   1.158  0.4830 -0.0578  0.1058
 2578TIP3   OH229224   0.722   3.347  11.711  0.5335 -0.6726 -0.2384
 2578TIP3    H129225   0.746   3.398  11.634 -0.5421  0.9516  0.4428
 2578TIP3    H229226   0.631   3.321  11.694  0.4132 -0.6157  0.3229
 2579TIP3   OH229227   5.074   0.088   4.838 -0.0858 -0.3486 -0.2478
 2579TIP3    H129228   5.099  -0.003   4.845  0.4360 -0.2699 -1.0077
 2579TIP3    H229229   5.078   0.122   4.928 -1.3870 -1.3468  0.2105
 2580TIP3   OH229230   2.606   2.245  11.590  0.4192 -0.0683  0.4154
 2580TIP3    H129231   2.592   2.333  11.554  0.1745 -0.1491  0.3102
 2580TIP3    H229232   2.624   2.191  11.513 -1.4388 -0.5091  0.2648
 2581TIP3   OH229233   1.871   1.500   4.912  0.1562  0.1443  0.5888
 2581TIP3    H129234   1.924   1.425   4.939 -0.2816  0.2285  1.7013
 2581TIP3    H229235   1.901   1.572   4.968 -0.8698  0.2887  0.9555
 2582TIP3   OH229236   4.928   2.068   6.033  0.4845 -0.2153 -0.2354
 2582TIP3    H129237   4.919   2.113   6.117 -0.1073 -1.0429  0.1652
 2582TIP3    H229238   4.874   2.119   5.973 -1.2113 -1.0394  0.5005
 2583TIP3   OH229239   1.926   3.130  11.822 -0.4292 -0.4318  0.3398
 2583TIP3    H129240   1.994   3.063  11.821 -1.1746 -1.2482  1.5914
 2583TIP3    H229241   1.876   3.113  11.902 -0.7564  1.5178  0.6025
 2584TIP3   OH229242   4.962   5.856  11.232 -0.3611 -0.1978  0.0371
 2584TIP3    H129243   4.979   5.937  11.281  3.1543 -0.6447 -0.1276
 2584TIP3    H229244   4.934   5.793  11.298  1.7820 -0.0886  1.1687
 2585TIP3   OH229245   5.006   5.916  14.419 -0.6131 -0.4525  0.7139
 2585TIP3    H129246   4.983   5.886  14.331 -1.1186 -0.8291  0.9683
 2585TIP3    H229247   5.051   5.842  14.459 -2.2666 -1.0820  1.5008
 2586TIP3   OH229248   1.418   5.428   6.421  0.3774 -0.4919  0.3379
 2586TIP3    H129249   1.404   5.469   6.335 -1.6329 -0.2785  0.7108
 2586TIP3    H229250   1.496   5.470   6.455 -1.5450  3.2344  0.6986
 2587TIP3   OH229251   3.176   3.127   2.399 -0.1729 -0.0592  0.0109
 2587TIP3    H129252   3.256   3.176   2.418  0.6291 -0.9157 -0.9942
 2587TIP3    H229253   3.187   3.044   2.446 -0.2039 -0.3963 -0.5663
 2588TIP3   OH229254   1.461   6.378   1.530 -0.9532 -0.5101 -0.0129
 2588TIP3    H129255   1.446   6.340   1.443 -0.4150 -0.1207 -0.2777
 2588TIP3    H229256   1.457   6.473   1.516  0.5055 -0.4061  0.1238
 2589TIP3   OH229257   5.309   5.144  12.840  0.1798  0.5392  0.0866
 2589TIP3    H129258   5.268   5.062  12.864  1.7219 -0.3877 -0.2781
 2589TIP3    H229259   5.240   5.210  12.847 -1.0205 -0.7492  0.5908
 2590TIP3   OH229260   6.256   3.185   1.795  0.1819 -0.8522  0.0913
 2590TIP3    H129261   6.328   3.122   1.789 -0.5200 -1.5203 -3.1301
 2590TIP3    H229262   6.296   3.269   1.774  0.3233 -0.9397  0.0074
 2591TIP3   OH229263   4.221   4.464   0.504  0.0357 -0.0405  0.5156
 2591TIP3    H129264   4.263   4.465   0.418  0.2067  0.5924  0.6074
 2591TIP3    H229265   4.145   4.407   0.492  0.1136 -0.0385 -0.0285
 2592TIP3   OH229266   1.029   5.687  11.004 -0.6618 -0.1305  0.4870
 2592TIP3    H129267   0.957   5.635  10.968  0.5336  0.5267 -3.2712
 2592TIP3    H229268   1.107   5.635  10.987  0.3629  1.9349 -1.5865
 2593TIP3   OH229269   4.938   6.671  13.677 -0.4321  0.5759  0.6506
 2593TIP3    H129270   4.872   6.606  13.654 -1.0409  1.3207  0.2331
 2593TIP3    H229271   4.972   6.642  13.762 -0.5599 -0.3763  0.3891
 2594TIP3   OH229272   4.075   3.314  12.273 -0.0754 -0.3604  0.4734
 2594TIP3    H129273   4.097   3.264  12.352  1.5496 -0.3435  0.0558
 2594TIP3    H229274   3.984   3.342  12.288 -0.1784 -1.3022  1.8270
 2595TIP3   OH229275   4.611   4.404  16.529 -0.6219  0.4870 -0.1203
 2595TIP3    H129276   4.602   4.343  16.456 -1.1367 -0.4575  0.7110
 2595TIP3    H229277   4.524   4.407  16.569 -0.0200 -0.1593  1.3213
 2596TIP3   OH229278   1.585   5.218  14.051 -1.0887 -0.2365 -0.6079
 2596TIP3    H129279   1.619   5.273  13.980 -0.6256 -0.2241 -0.3793
 2596TIP3    H229280   1.490   5.230  14.047 -1.1631 -1.1668 -1.9908
 2597TIP3   OH229281   4.099   3.364   5.861  0.0625 -0.4356  0.1971
 2597TIP3    H129282   4.140   3.430   5.917 -1.8951 -0.5264  1.8431
 2597TIP3    H229283   4.022   3.408   5.825  0.7069 -0.7257 -1.6507
 2598TIP3   OH229284   4.162   0.321  16.621 -0.0251 -0.8663 -0.3902
 2598TIP3    H129285   4.242   0.319  16.569 -1.1405 -0.7243 -2.2132
 2598TIP3    H229286   4.179   0.387  16.688  1.4910 -1.0915 -0.5148
 2599TIP3   OH229287   6.293   2.736  13.026  0.3660  0.1348 -0.2161
 2599TIP3    H129288   6.270   2.644  13.015 -0.9500  0.3250  0.6677
 2599TIP3    H229289   6.309   2.745  13.120 -0.7955  1.0583 -0.0832
 2600TIP3   OH229290   5.632   5.611  10.550 -0.6779 -0.0514 -0.0294
 2600TIP3    H129291   5.705   5.620  10.611 -1.0660  1.4212  0.2740
 2600TIP3    H229292   5.662   5.548  10.485  0.9094  0.5999  0.0218
 2601TIP3   OH229293   6.420   5.518   2.414  0.3664 -0.0202  0.1544
 2601TIP3    H129294   6.481   5.559   2.475 -1.2496  0.6619  1.4054
 2601TIP3    H229295   6.453   5.542   2.328  0.2839  2.8764  0.7963
 2602TIP3   OH229296   0.739   1.299  16.379 -0.2352 -0.7158 -0.0289
 2602TIP3    H129297   0.828   1.268  16.366 -0.8210 -2.7120  0.2947
 2602TIP3    H229298   0.705   1.312  16.290 -0.0367 -1.2766 -0.1911
 2603TIP3   OH229299   0.290   5.782  11.931  0.3551 -0.3017 -0.5414
 2603TIP3    H129300   0.370   5.760  11.980 -0.0081  1.0132  0.7091
 2603TIP3    H229301   0.304   5.871  11.901 -1.0730  0.3951  0.7134
 2604TIP3   OH229302   3.842   0.309  11.933  0.1073  0.1922 -0.2675
 2604TIP3    H129303   3.921   0.265  11.963  0.4971 -0.7809 -2.5275
 2604TIP3    H229304   3.861   0.402  11.944 -0.2324 -0.0009  3.3537
 2605TIP3   OH229305   0.341   0.472   1.631  0.5105  0.5188  0.0978
 2605TIP3    H129306   0.321   0.481   1.538  1.9512  0.2632 -0.2640
 2605TIP3    H229307   0.371   0.558   1.657  1.3276  0.2770 -0.0075
 2606TIP3   OH229308   5.415   2.387   6.164 -0.4613  0.2472 -0.0326
 2606TIP3    H129309   5.465   2.405   6.243 -0.9078  0.2797  0.2471
 2606TIP3    H229310   5.351   2.321   6.190  0.4838 -0.9917 -0.7999
 2607TIP3   OH229311   5.905   2.647  10.713  0.4176 -0.2871 -0.0913
 2607TIP3    H129312   5.853   2.623  10.790 -0.0274 -0.2720 -0.3848
 2607TIP3    H229313   5.865   2.599  10.641 -1.0545  1.9369 -0.8684
 2608TIP3   OH229314   3.363   0.022  12.267 -0.0101 -0.1899  0.6432
 2608TIP3    H129315   3.296   0.045  12.331  0.4818 -1.6343  1.7421
 2608TIP3    H229316   3.423  -0.035  12.315  1.2228 -0.0855 -0.7032
 2609TIP3   OH229317   2.136   0.545   3.842 -0.7055  0.3105 -0.5067
 2609TIP3    H129318   2.065   0.574   3.784 -1.4562  0.1878  0.3309
 2609TIP3    H229319   2.122   0.594   3.923 -0.2027 -0.1873 -0.1158
 2610TIP3   OH229320   1.905   5.021  13.454  0.3432  0.4689 -0.3846
 2610TIP3    H129321   1.865   4.948  13.502  2.8581 -0.1571  0.9770
 2610TIP3    H229322   1.937   4.982  13.373  1.8872 -0.0915  0.4429
 2611TIP3   OH229323   2.300   1.753   1.216  0.3659  0.0157 -0.0953
 2611TIP3    H129324   2.341   1.728   1.299 -0.4694  0.3812  0.4462
 2611TIP3    H229325   2.225   1.695   1.208 -0.4405  0.9964  0.1736
 2612TIP3   OH229326   4.393   1.021  12.876  0.4768 -0.8615 -0.2997
 2612TIP3    H129327   4.423   0.944  12.828  0.0061 -0.8696 -0.5892
 2612TIP3    H229328   4.381   0.989  12.966  2.9576 -0.4486  0.2555
 2613TIP3   OH229329   0.819   0.111  12.201  0.6030 -0.0407 -0.0957
 2613TIP3    H129330   0.800   0.154  12.118 -1.1555 -0.9464 -0.2209
 2613TIP3    H229331   0.760   0.036  12.203  1.4613 -0.7238  1.4448
 2614TIP3   OH229332   4.309   2.123   4.312  0.4303 -0.3645 -0.3324
 2614TIP3    H129333   4.292   2.129   4.218  0.9357  1.6195 -0.3426
 2614TIP3    H229334   4.238   2.068   4.346 -1.1230  0.7981 -1.5539
 2615TIP3   OH229335   0.722   1.298   4.254 -0.2558  0.1391  0.0613
 2615TIP3    H129336   0.702   1.228   4.192 -1.2051  0.1983  0.2939
 2615TIP3    H229337   0.809   1.275   4.289  0.5671  0.4154 -1.7000
 2616TIP3   OH229338   5.209   6.157   4.284  0.5268  0.3197  0.4183
 2616TIP3    H129339   5.213   6.197   4.370  1.7777 -1.7066  1.3806
 2616TIP3    H229340   5.295   6.172   4.246  1.5312 -2.4876  1.3727
 2617TIP3   OH229341   0.716   4.481  14.391 -0.0963 -0.3430 -0.2563
 2617TIP3    H129342   0.760   4.453  14.472 -0.4868 -2.2457 -0.6375
 2617TIP3    H229343   0.691   4.399  14.349 -1.7181  0.6425 -1.3166
 2618TIP3   OH229344   6.202   1.458   4.975 -0.5646  0.1214 -0.6087
 2618TIP3    H129345   6.183   1.393   5.043 -1.0431  0.4628 -0.4079
 2618TIP3    H229346   6.132   1.523   4.985 -0.2523  0.5151 -0.9954
 2619TIP3   OH229347   5.149   4.690   3.805 -0.2472  0.1144 -0.4473
 2619TIP3    H129348   5.090   4.643   3.746 -1.0366  0.9893 -0.3719
 2619TIP3    H229349   5.141   4.782   3.779  0.6348  0.3122 -0.0471
 2620TIP3   OH229350   0.083   4.230   2.851  0.3351 -0.2367 -0.2474
 2620TIP3    H129351   0.101   4.316   2.813 -0.2367  0.2815  0.6462
 2620TIP3    H229352   0.075   4.246   2.945  0.4628 -1.3071 -0.0430
 2621TIP3   OH229353   0.786   2.725   1.493  0.5526  0.2890  0.0378
 2621TIP3    H129354   0.880   2.710   1.491  0.3826 -0.9571  0.6123
 2621TIP3    H229355   0.768   2.760   1.580  0.4028 -0.1053  0.1682
 2622TIP3   OH229356   3.160   5.794   3.458  0.1528 -0.3013  0.0190
 2622TIP3    H129357   3.145   5.764   3.368 -0.6172 -0.9088  0.3362
 2622TIP3    H229358   3.250   5.768   3.476 -0.0812 -1.3181 -0.1649
 2623TIP3   OH229359   0.009   6.525   0.155  0.1347  0.4544  0.4778
 2623TIP3    H129360  -0.086   6.513   0.163  0.1497 -0.8289 -0.8729
 2623TIP3    H229361   0.027   6.509   0.062  1.7089  0.5237  0.7548
 2624TIP3   OH229362   5.759   3.928  14.004 -0.0495 -0.2820 -0.2555
 2624TIP3    H129363   5.719   4.002  13.958 -1.1821 -0.7111  0.0041
 2624TIP3    H229364   5.844   3.917  13.963  0.1390  1.1680 -0.3011
 2625TIP3   OH229365   1.461   2.865  14.377 -0.6396  0.0126 -0.4084
 2625TIP3    H129366   1.439   2.948  14.420  0.0049  0.5715 -1.1205
 2625TIP3    H229367   1.529   2.827  14.433 -0.4104  0.3243 -0.4693
 2626TIP3   OH229368   0.039   4.527   3.944 -0.4450  0.1463 -0.7632
 2626TIP3    H129369   0.132   4.530   3.922  0.0761  0.8487  1.3065
 2626TIP3    H229370   0.010   4.442   3.911  1.1076 -0.4098 -0.7984
 2627TIP3   OH229371   3.760   2.564  17.024  0.2703 -0.0399 -0.0395
 2627TIP3    H129372   3.710   2.529  17.097 -0.5681  1.8753  0.3546
 2627TIP3    H229373   3.732   2.655  17.016  2.2338  0.5384 -1.1105
 2628TIP3   OH229374   6.535   6.667  11.732 -0.0865  0.5305  0.6340
 2628TIP3    H129375   6.453   6.689  11.689  0.4890  2.0215  0.2214
 2628TIP3    H229376   6.563   6.586  11.690  0.1927  1.6427 -1.5018
 2629TIP3   OH229377   0.204   0.864   2.781 -0.3123  0.0951 -0.5243
 2629TIP3    H129378   0.124   0.826   2.744 -0.5921  1.1178 -1.0082
 2629TIP3    H229379   0.239   0.919   2.711  0.1506  0.6164  0.1044
 2630TIP3   OH229380   6.419   4.857  14.092  0.0051 -0.0088  0.0650
 2630TIP3    H129381   6.370   4.884  14.170 -0.9793 -1.4095 -0.0282
 2630TIP3    H229382   6.481   4.929  14.077 -0.5067  0.7862  1.4983
 2631TIP3   OH229383   1.263   2.352   3.320 -0.4863 -0.5216  0.0171
 2631TIP3    H129384   1.202   2.350   3.246  0.3788 -1.0848 -0.7039
 2631TIP3    H229385   1.220   2.408   3.385 -1.6620 -0.7289 -0.5558
 2632TIP3   OH229386   4.925   4.543  14.761  0.1245  0.1639  0.3942
 2632TIP3    H129387   4.890   4.456  14.782 -0.2675  0.3097  0.3567
 2632TIP3    H229388   5.019   4.535  14.773  0.0627 -0.1968  0.6461
 2633TIP3   OH229389   0.176   2.017  14.534  0.1632 -0.0245 -0.1383
 2633TIP3    H129390   0.198   2.086  14.597  1.1889 -0.5668  0.1097
 2633TIP3    H229391   0.119   1.957  14.583  1.6411 -0.9014  0.5839
 2634TIP3   OH229392   2.917   5.841  15.004 -0.7588  0.8673 -0.4790
 2634TIP3    H129393   2.912   5.747  14.988 -0.3150  0.8124 -0.3006
 2634TIP3    H229394   2.983   5.873  14.942 -1.7429  1.2541 -1.3569
 2635TIP3   OH229395   5.940   2.988  12.715 -0.0346 -0.1750 -0.0008
 2635TIP3    H129396   5.995   2.912  12.733  0.0224  0.1375  1.2132
 2635TIP3    H229397   6.000   3.053  12.678  0.0315 -0.5110 -0.4833
 2636TIP3   OH229398   1.772   5.586  15.596 -0.2852  0.4728 -0.5146
 2636TIP3    H129399   1.791   5.505  15.642 -0.9623  0.6319  0.0606
 2636TIP3    H229400   1.680   5.579  15.570 -0.2974  0.9697 -0.6275
 2637TIP3   OH229401   1.551   2.672  13.515 -0.7779  0.0980  0.4599
 2637TIP3    H129402   1.587   2.752  13.476  2.8001 -1.8255 -0.7364
 2637TIP3    H229403   1.522   2.620  13.440 -0.7037 -0.6887  0.9621
 2638TIP3   OH229404   3.017   0.498  14.128 -0.0226 -0.6920  0.4796
 2638TIP3    H129405   3.024   0.575  14.184  1.7266  0.6742 -1.4800
 2638TIP3    H229406   2.934   0.510  14.081  0.2377  0.0013  0.1867
 2639TIP3   OH229407   2.650   6.267   4.314  0.0292 -0.0768 -0.2308
 2639TIP3    H129408   2.555   6.258   4.306  0.1712 -0.0388 -2.8593
 2639TIP3    H229409   2.663   6.307   4.400 -2.4847  1.8081 -0.6012
 2640TIP3   OH229410   6.341   4.152  11.633 -0.0887  0.2035 -0.3227
 2640TIP3    H129411   6.287   4.083  11.595 -1.8971  2.1781 -1.6197
 2640TIP3    H229412   6.283   4.195  11.696  0.7880  0.9075  0.0290
 2641TIP3   OH229413   5.939   4.810   0.077  0.2440  0.2071  0.3365
 2641TIP3    H129414   6.008   4.854   0.027 -1.7329  1.6990 -1.2575
 2641TIP3    H229415   5.942   4.719   0.048 -1.0567  1.0692 -3.0014
 2642TIP3   OH229416   4.453   2.604   0.960  0.1447  0.6233 -0.0467
 2642TIP3    H129417   4.434   2.604   1.054  0.6924  1.0529  0.0679
 2642TIP3    H229418   4.451   2.512   0.935 -0.6205  0.5462  0.2554
 2643TIP3   OH229419   6.359   4.127  11.975 -0.1298  0.2282 -0.4099
 2643TIP3    H129420   6.392   4.038  11.984 -0.3615  0.0658 -1.1404
 2643TIP3    H229421   6.435   4.182  11.993  0.6148 -0.1479 -2.1873
 2644TIP3   OH229422   4.864   4.802  14.449  0.5201 -0.9201  0.5286
 2644TIP3    H129423   4.882   4.711  14.472  2.9548 -1.4172 -2.6035
 2644TIP3    H229424   4.916   4.818  14.370 -2.0750  2.3339 -0.7954
 2645TIP3   OH229425   4.065   3.285  16.846 -0.1791 -0.2026  0.0408
 2645TIP3    H129426   4.119   3.334  16.783  0.7197  0.4115  1.2430
 2645TIP3    H229427   3.975   3.304  16.821  0.1116  2.4272  0.6617
 2646TIP3   OH229428   1.103   2.141  11.154 -0.4409  0.0987 -0.3231
 2646TIP3    H129429   1.123   2.115  11.064 -1.0795 -0.6445 -0.2686
 2646TIP3    H229430   1.123   2.063  11.206  0.1186  0.5957  0.2037
 2647TIP3   OH229431   4.866   2.285   5.544  0.3223  0.1921  0.1535
 2647TIP3    H129432   4.949   2.288   5.495  0.7084  1.0782  0.8383
 2647TIP3    H229433   4.801   2.316   5.482  0.7749  1.0969  0.1168
 2648TIP3   OH229434   4.822   3.419   4.591 -0.5682  0.2591 -0.2699
 2648TIP3    H129435   4.815   3.394   4.499  0.3324 -0.3970 -0.1731
 2648TIP3    H229436   4.827   3.335   4.638  0.0678  0.5949  0.2768
 2649TIP3   OH229437   1.274   1.326  14.532 -0.0010 -0.3674 -0.3470
 2649TIP3    H129438   1.187   1.338  14.571 -0.7116  0.3136 -2.0617
 2649TIP3    H229439   1.257   1.280  14.450  1.1234  0.6815 -1.2027
 2650TIP3   OH229440   2.442   4.347  16.675  1.1953  0.0503  0.0178
 2650TIP3    H129441   2.422   4.283  16.607 -0.6191  1.0631 -0.4561
 2650TIP3    H229442   2.532   4.326  16.702  0.8983 -2.2683 -0.5555
 2651TIP3   OH229443   3.574   2.351  10.648 -0.2046  0.0802  0.1576
 2651TIP3    H129444   3.592   2.445  10.649  1.4398 -0.1360  3.1711
 2651TIP3    H229445   3.654   2.312  10.612 -0.2114 -0.2248  0.4693
 2652TIP3   OH229446   3.981   4.089   0.426 -0.0438  0.2222 -0.1954
 2652TIP3    H129447   3.963   4.154   0.358 -3.2148 -0.3385 -0.0500
 2652TIP3    H229448   3.975   4.139   0.508 -2.2651 -0.0972 -0.0957
 2653TIP3   OH229449   1.116   5.635  15.377  0.3125 -0.0064  0.5344
 2653TIP3    H129450   1.187   5.693  15.352 -0.5750  0.2013 -1.8064
 2653TIP3    H229451   1.136   5.552  15.332  0.0922 -0.5968  1.4913
 2654TIP3   OH229452   3.363   3.865  11.564  0.2820 -0.2965 -0.1130
 2654TIP3    H129453   3.271   3.844  11.577  0.7131 -0.8615  3.1110
 2654TIP3    H229454   3.368   3.961  11.574  0.3565 -0.5240  4.2562
 2655TIP3   OH229455   5.983   5.245   1.768 -0.4068 -0.4814 -0.0314
 2655TIP3    H129456   5.894   5.238   1.734  0.0185 -0.0916 -1.2728
 2655TIP3    H229457   5.974   5.300   1.846 -1.1853 -0.0467 -0.4151
 2656TIP3   OH229458   6.267   3.959   3.975  0.0750  0.0157  0.1974
 2656TIP3    H129459   6.197   3.903   3.942  0.4129 -1.0672  1.2358
 2656TIP3    H229460   6.347   3.911   3.956  0.4048  0.3518  0.7207
 2657TIP3   OH229461   5.589   2.857   5.133 -0.1233 -0.2689 -0.0660
 2657TIP3    H129462   5.649   2.887   5.202  1.1394 -3.0492  0.2020
 2657TIP3    H229463   5.593   2.761   5.139 -0.1417 -0.6431 -3.8599
 2658TIP3   OH229464   4.413   6.235  16.339 -0.5485  0.1956 -0.5105
 2658TIP3    H129465   4.392   6.323  16.373 -3.0764 -1.1944  1.9794
 2658TIP3    H229466   4.340   6.213  16.282  1.0448  0.3696 -2.7353
 2659TIP3   OH229467   5.037   6.597   2.841  0.3401  0.2958  0.4119
 2659TIP3    H129468   5.061   6.683   2.875  1.5336  0.9158 -1.8396
 2659TIP3    H229469   4.941   6.597   2.841  0.2985  2.1972 -0.8453
 2660TIP3   OH229470   2.606   4.720   0.816 -0.0505 -0.1587 -0.2838
 2660TIP3    H129471   2.589   4.803   0.861  0.8628 -0.1303  0.0313
 2660TIP3    H229472   2.693   4.732   0.776  0.3685 -1.1888  0.2967
 2661TIP3   OH229473   4.254   3.620   3.812  0.2777  0.3287 -0.4094
 2661TIP3    H129474   4.210   3.672   3.745  0.0095 -0.1010 -0.5673
 2661TIP3    H229475   4.183   3.593   3.871  0.6637  1.8013  0.8074
 2662TIP3   OH229476   3.599   5.352   4.028 -0.0859 -0.5493  0.3005
 2662TIP3    H129477   3.574   5.417   4.094 -2.4979 -0.3949 -0.6355
 2662TIP3    H229478   3.610   5.403   3.947  1.2404 -0.9299  0.2263
 2663TIP3   OH229479   0.562   2.249   2.970 -0.2304 -0.5243 -0.2375
 2663TIP3    H129480   0.486   2.268   3.024  0.4585 -1.4914  1.1414
 2663TIP3    H229481   0.528   2.202   2.895 -1.0597 -0.3557  0.0293
 2664TIP3   OH229482   0.962   4.420  14.904  0.1070 -0.7351  0.4727
 2664TIP3    H129483   0.887   4.362  14.891 -0.0388 -0.2148 -1.2328
 2664TIP3    H229484   0.975   4.422  14.999 -0.4395 -2.8317  0.6395
 2665TIP3   OH229485   6.299   3.611  13.871 -0.4041 -0.6124 -0.0547
 2665TIP3    H129486   6.231   3.569  13.819  0.3508 -1.0928 -0.6624
 2665TIP3    H229487   6.372   3.624  13.811  0.0955 -0.2113  0.6159
 2666TIP3   OH229488   1.911   4.517  14.584  0.1920  0.5660  0.0960
 2666TIP3    H129489   1.827   4.561  14.595 -0.4756  0.3094 -3.1487
 2666TIP3    H229490   1.968   4.582  14.543  0.8603  0.0018  0.1019
 2667TIP3   OH229491   0.312   2.529  14.507 -0.1218  0.1998 -0.0324
 2667TIP3    H129492   0.329   2.437  14.488 -3.1766 -0.0266 -2.4316
 2667TIP3    H229493   0.382   2.576  14.462  0.4123 -0.8785 -0.3544
 2668TIP3   OH229494   1.205   3.952  10.945 -0.0278 -0.3878 -0.5062
 2668TIP3    H129495   1.205   3.963  11.040 -0.1752  2.1151 -0.7415
 2668TIP3    H229496   1.257   3.872  10.930 -0.1091 -0.8995  1.6481
 2669TIP3   OH229497   5.633   6.035   2.238  0.0161 -0.4789  0.6418
 2669TIP3    H129498   5.713   6.086   2.254  0.1719 -0.9583  1.4409
 2669TIP3    H229499   5.650   5.989   2.156  0.4597 -0.3856  0.6794
 2670TIP3   OH229500   2.205   0.163   4.320 -0.0852 -0.0873  0.4811
 2670TIP3    H129501   2.186   0.186   4.230  0.8202 -0.0785  0.2769
 2670TIP3    H229502   2.120   0.157   4.363 -0.4469  1.5849  0.0444
 2671TIP3   OH229503   6.680   3.492  13.602 -0.4008  0.6467  0.3410
 2671TIP3    H129504   6.772   3.475  13.580 -0.4014  1.0690 -0.0147
 2671TIP3    H229505   6.668   3.455  13.689 -0.0358  0.1103  0.1653
 2672TIP3   OH229506   4.200   0.908   2.906 -0.2135  0.3238  0.2382
 2672TIP3    H129507   4.220   0.822   2.869 -2.2347  0.2955 -0.9391
 2672TIP3    H229508   4.285   0.952   2.910  0.5511 -0.8775 -1.3958
 2673TIP3   OH229509   1.134   1.965   4.713 -0.1787 -0.1710 -0.0450
 2673TIP3    H129510   1.119   1.996   4.803  1.1290  0.5665 -0.0558
 2673TIP3    H229511   1.071   2.014   4.660 -1.7246 -1.4052  0.5652
 2674TIP3   OH229512   2.675   0.234  13.540 -0.3096  0.6354  0.4446
 2674TIP3    H129513   2.646   0.231  13.449  0.5704  0.7441  0.1509
 2674TIP3    H229514   2.755   0.180  13.542 -1.6142 -1.3980  1.6610
 2675TIP3   OH229515   5.787   6.017   0.891 -0.2852 -0.3174 -0.5438
 2675TIP3    H129516   5.862   5.966   0.860  1.2292 -0.2547  2.6191
 2675TIP3    H229517   5.737   5.956   0.945 -0.3077  0.6093  0.5351
 2676TIP3   OH229518   1.923   2.457  12.255  0.0894 -0.1018 -0.5149
 2676TIP3    H129519   1.849   2.434  12.198  0.0100 -2.6630  0.4552
 2676TIP3    H229520   1.993   2.397  12.229  1.1185  0.8721 -0.0401
 2677TIP3   OH229521   3.025   1.142   0.825  0.1196  0.5654 -0.3115
 2677TIP3    H129522   2.976   1.224   0.820  0.8754  1.0681  0.3169
 2677TIP3    H229523   3.016   1.115   0.916 -0.4093 -0.2431 -0.5904
 2678TIP3   OH229524   6.601   3.106   4.411 -0.4455 -0.4908  0.4059
 2678TIP3    H129525   6.624   3.175   4.474  0.0124  0.6294 -0.9466
 2678TIP3    H229526   6.507   3.094   4.423 -0.2986 -0.6353  1.6055
 2679TIP3   OH229527   6.154   3.843  15.837 -0.3020  0.3378 -0.1962
 2679TIP3    H129528   6.104   3.768  15.805 -1.4916  0.7299  0.6427
 2679TIP3    H229529   6.090   3.915  15.837  0.0480  0.6821  1.6438
 2680TIP3   OH229530   3.956   6.420   4.660 -0.0796  0.2264  0.1673
 2680TIP3    H129531   3.918   6.488   4.605 -1.0833 -1.4065 -1.2656
 2680TIP3    H229532   3.888   6.352   4.665  0.2696 -0.0401  2.8189
 2681TIP3   OH229533   3.815   3.744   0.247 -1.0457  0.5975 -0.0878
 2681TIP3    H129534   3.802   3.767   0.339 -1.0193  0.7965 -0.1334
 2681TIP3    H229535   3.799   3.649   0.243 -1.2879  0.6312  0.0761
 2682TIP3   OH229536   0.075   1.176   2.863 -0.2381  0.8717  0.4938
 2682TIP3    H129537   0.023   1.161   2.784 -0.7174 -2.0023  1.2428
 2682TIP3    H229538   0.010   1.185   2.932  0.1625 -0.8232  1.1403
 2683TIP3   OH229539   0.233   1.660   5.265  0.4783  0.2729 -0.3199
 2683TIP3    H129540   0.272   1.668   5.178  0.1595  0.3271 -0.4598
 2683TIP3    H229541   0.262   1.574   5.297 -0.3404 -0.2555 -0.9565
 2684TIP3   OH229542   6.457   0.607   6.552 -0.1052  0.7251 -0.0841
 2684TIP3    H129543   6.497   0.670   6.612 -0.7320  0.7457  0.3239
 2684TIP3    H229544   6.405   0.550   6.608 -1.1788  1.1132 -0.6591
 2685TIP3   OH229545   5.957   1.684   2.204 -0.0774 -0.2507  0.1541
 2685TIP3    H129546   5.906   1.765   2.207 -0.5859 -0.5793  0.5549
 2685TIP3    H229547   5.948   1.654   2.114  1.1867  0.8023 -0.3625
 2686TIP3   OH229548   1.496   2.010   0.173 -0.1172  0.6562  0.7609
 2686TIP3    H129549   1.484   2.105   0.169  3.5399  1.1752 -0.8660
 2686TIP3    H229550   1.560   1.997   0.243 -1.4430 -0.8188  1.7818
 2687TIP3   OH229551   4.996   2.427   1.080  0.3627  0.2119 -0.4026
 2687TIP3    H129552   4.968   2.487   1.149  0.7400  0.5400 -0.5325
 2687TIP3    H229553   5.091   2.438   1.075  0.1962  1.4316 -2.0748
 2688TIP3   OH229554   4.481   0.317  15.173  0.2174 -0.4674  0.4273
 2688TIP3    H129555   4.561   0.268  15.156  0.5886  0.6998 -1.5760
 2688TIP3    H229556   4.435   0.318  15.089 -1.7431 -0.7647  1.4242
 2689TIP3   OH229557   5.258   6.018  14.334 -0.5708 -0.2162 -0.0758
 2689TIP3    H129558   5.169   6.022  14.370 -0.5477  1.5548 -0.1331
 2689TIP3    H229559   5.275   5.924  14.324 -1.6705 -0.6825  1.8154
 2690TIP3   OH229560   5.532   1.047  15.716  0.1701 -0.7784  0.0363
 2690TIP3    H129561   5.482   1.088  15.646  0.8605  1.8430  0.9721
 2690TIP3    H229562   5.469   0.990  15.761 -1.2503  0.3220 -0.4948
 2691TIP3   OH229563   6.185   2.068  12.011 -0.0081  0.1212  0.0487
 2691TIP3    H129564   6.138   2.034  11.934  0.8855  0.6960 -0.7814
 2691TIP3    H229565   6.276   2.070  11.983  0.3486  0.2077  1.1946
 2692TIP3   OH229566   5.597   2.620  14.408  0.2659 -0.6761 -0.0644
 2692TIP3    H129567   5.663   2.652  14.347 -0.9942  0.5711 -0.8273
 2692TIP3    H229568   5.599   2.525  14.398  1.4055 -0.6051 -0.6294
 2693TIP3   OH229569   6.292   6.750  12.966  0.0692  0.1865  0.6167
 2693TIP3    H129570   6.366   6.688  12.972 -1.4655 -1.7696  0.4794
 2693TIP3    H229571   6.256   6.752  13.055 -0.5754 -0.0564  0.3709
 2694TIP3   OH229572   2.776   2.792  13.505 -0.5159  0.0145 -0.3708
 2694TIP3    H129573   2.752   2.708  13.545 -2.2170  0.6557  0.0266
 2694TIP3    H229574   2.826   2.767  13.427  1.0870 -1.2943  0.9787
 2695TIP3   OH229575   5.889   1.887  11.514  0.5540  0.5197  0.3124
 2695TIP3    H129576   5.920   1.899  11.424 -0.6133 -1.2189 -0.3778
 2695TIP3    H229577   5.862   1.974  11.542 -4.3119  0.5066 -3.1051
 2696TIP3   OH229578   4.231   5.790  10.922  0.2082  0.0807  0.3137
 2696TIP3    H129579   4.282   5.871  10.924 -0.0279  0.3071 -1.2872
 2696TIP3    H229580   4.140   5.819  10.925  0.1278 -0.2061  0.8973
 2697TIP3   OH229581   3.911   0.369  14.280  0.0072 -0.3130  0.8607
 2697TIP3    H129582   3.961   0.449  14.295 -0.0323  0.2145 -1.4523
 2697TIP3    H229583   3.970   0.299  14.309  0.4010  0.4862  2.0635
 2698TIP3   OH229584   0.459   1.775  17.199 -0.0961  0.3445 -0.0807
 2698TIP3    H129585   0.408   1.825  17.263 -0.1261 -0.1593  0.2953
 2698TIP3    H229586   0.401   1.704  17.173 -0.1531  0.6451 -0.8126
 2699TIP3   OH229587   3.848   4.649  16.899  0.3512 -0.1697  0.0274
 2699TIP3    H129588   3.838   4.581  16.832 -0.9801 -1.1742  1.1688
 2699TIP3    H229589   3.777   4.631  16.961  0.0806  2.1838  0.4698
 2700TIP3   OH229590   2.120   3.349  14.016  0.3176  0.4605 -0.3263
 2700TIP3    H129591   2.164   3.433  14.024  1.3053 -0.0509 -0.1202
 2700TIP3    H229592   2.123   3.312  14.105 -1.5632  0.8834 -0.0469
 2701TIP3   OH229593   2.530   0.201  10.823  0.2650 -0.0579 -0.1355
 2701TIP3    H129594   2.576   0.141  10.765  1.2854  0.8291 -0.2840
 2701TIP3    H229595   2.445   0.216  10.781 -0.6918 -2.6070  0.7122
 2702TIP3   OH229596   2.867   5.449  13.142  0.0580 -0.1204  0.2530
 2702TIP3    H129597   2.956   5.483  13.155  0.4797 -0.5314 -1.4031
 2702TIP3    H229598   2.873   5.357  13.167  0.0242 -0.0848  0.3952
 2703TIP3   OH229599   3.837   3.762  14.193  0.2144 -0.4349  0.1864
 2703TIP3    H129600   3.903   3.725  14.133  0.8282  1.4562 -0.3862
 2703TIP3    H229601   3.889   3.812  14.257 -0.6432  1.1613 -0.3246
 2704TIP3   OH229602   5.280   2.671   5.103 -0.1070 -0.3435 -0.2363
 2704TIP3    H129603   5.225   2.593   5.111 -0.9580  0.1874 -0.8192
 2704TIP3    H229604   5.299   2.696   5.193 -0.2773 -0.9065 -0.0402
 2705TIP3   OH229605   2.963   5.460   0.403  0.2125 -0.7981  0.7536
 2705TIP3    H129606   2.972   5.421   0.490  0.1971 -2.5769  0.0174
 2705TIP3    H229607   3.041   5.432   0.356 -0.2074 -0.6291 -0.0604
 2706TIP3   OH229608   2.128   4.394  13.438  0.1542  0.0334 -0.1259
 2706TIP3    H129609   2.142   4.407  13.344  0.2453 -0.3711 -0.1708
 2706TIP3    H229610   2.112   4.300  13.447  1.0669 -0.0880  0.3736
 2707TIP3   OH229611   5.918   3.661  15.195 -0.6766 -0.6250 -0.3272
 2707TIP3    H129612   5.867   3.740  15.177 -0.7581 -0.8027 -0.8951
 2707TIP3    H229613   5.856   3.603  15.239  0.0381  0.5355  2.3913
 2708TIP3   OH229614   4.757   2.616   2.023  0.0216  0.3120 -0.4097
 2708TIP3    H129615   4.810   2.541   1.994  1.0530  0.9264 -0.1558
 2708TIP3    H229616   4.744   2.601   2.117 -0.2766  0.1579 -0.4732
 2709TIP3   OH229617   5.894   5.498   4.338 -0.5778  0.3549 -0.4690
 2709TIP3    H129618   5.858   5.411   4.319 -0.9202  0.1050  1.1920
 2709TIP3    H229619   5.966   5.508   4.275 -1.4078 -0.5315 -1.6047
 2710TIP3   OH229620   0.139   6.765   2.385 -0.3611  0.3202  0.0430
 2710TIP3    H129621   0.171   6.681   2.353 -1.4334  0.0473 -0.3452
 2710TIP3    H229622   0.046   6.766   2.362 -1.0736  0.3469  2.6398
 2711TIP3   OH229623   2.640   5.183  14.788 -0.2785  0.0741  0.1503
 2711TIP3    H129624   2.590   5.158  14.866  0.6549 -0.2788  0.6525
 2711TIP3    H229625   2.669   5.100  14.750 -1.8055  0.1655 -1.3433
 2712TIP3   OH229626   3.306   5.182  12.179  0.2058  1.1607  0.1004
 2712TIP3    H129627   3.234   5.235  12.214  0.1324  0.8928  0.3543
 2712TIP3    H229628   3.288   5.178  12.085  0.4285  1.9212  0.0154
 2713TIP3   OH229629   4.079   0.249   2.640  0.3915 -0.1338 -0.6786
 2713TIP3    H129630   4.117   0.310   2.577 -0.5674  0.6757 -0.5009
 2713TIP3    H229631   3.986   0.270   2.640  0.3383 -0.2932  0.8276
 2714TIP3   OH229632   5.377   5.060   5.813  0.1984 -0.0199  0.4598
 2714TIP3    H129633   5.327   4.999   5.868 -0.4874 -0.5335 -0.6722
 2714TIP3    H229634   5.459   5.073   5.860 -0.6184  0.0948  1.9152
 2715TIP3   OH229635   6.503   0.010  16.237  0.0726  0.1914  0.1195
 2715TIP3    H129636   6.572   0.004  16.170  0.3471  1.0453  0.3074
 2715TIP3    H229637   6.465  -0.077  16.240  2.1410 -0.7427  1.0538
 2716TIP3   OH229638   2.540   4.026  14.566  0.3833 -0.0721 -0.3468
 2716TIP3    H129639   2.525   4.044  14.659  2.8242  1.0830 -0.1079
 2716TIP3    H229640   2.586   3.942  14.565 -0.6638 -0.6661 -0.6427
 2717TIP3   OH229641   5.893   5.451  14.560 -0.4971  0.5219 -0.7559
 2717TIP3    H129642   5.897   5.540  14.596 -0.7146  0.1841  0.1364
 2717TIP3    H229643   5.880   5.395  14.637  1.0701 -0.4279 -1.1317
 2718TIP3   OH229644   0.429   4.913  12.460  0.1984  0.0124 -0.3743
 2718TIP3    H129645   0.482   4.917  12.539  0.0229  1.0570 -0.2951
 2718TIP3    H229646   0.485   4.950  12.392  0.2174 -0.5489 -0.6741
 2719TIP3   OH229647   5.414   6.755  15.001 -0.1951 -0.0381  0.3667
 2719TIP3    H129648   5.459   6.828  15.043  0.2251 -0.6433  0.9807
 2719TIP3    H229649   5.458   6.746  14.916 -0.6079  0.7591  0.0539
 2720TIP3   OH229650   1.919   0.951  11.480 -0.4501 -0.2653  0.0089
 2720TIP3    H129651   1.830   0.968  11.511  0.6042  2.7764  1.8789
 2720TIP3    H229652   1.950   1.036  11.447  0.8049 -1.9164 -3.4968
 2721TIP3   OH229653   3.282   3.285  16.686 -0.0615 -0.0145  0.1372
 2721TIP3    H129654   3.327   3.280  16.770 -2.0037 -0.0865  1.2140
 2721TIP3    H229655   3.305   3.204  16.641  1.3146  0.2054  0.3853
 2722TIP3   OH229656   2.019   0.599   2.079 -0.4132  0.1332 -0.3177
 2722TIP3    H129657   2.005   0.694   2.079  1.7028  0.5354 -2.3006
 2722TIP3    H229658   2.106   0.588   2.040 -1.6176 -2.7329 -2.5343
 2723TIP3   OH229659   2.901   0.476   0.883 -0.0702 -0.2258  0.2358
 2723TIP3    H129660   2.857   0.559   0.902  1.0784  0.1162  1.5673
 2723TIP3    H229661   2.922   0.439   0.969  1.4839 -0.7608 -0.3317
 2724TIP3   OH229662   3.665   0.896  13.943  0.3121 -0.2191 -0.6333
 2724TIP3    H129663   3.661   0.894  13.847  1.8517 -0.6235 -0.7178
 2724TIP3    H229664   3.753   0.927  13.962 -0.3570  0.9418  0.6725
 2725TIP3   OH229665   6.117   6.683  16.555 -0.2872  0.2617 -0.8726
 2725TIP3    H129666   6.168   6.670  16.476  0.6195 -0.4223 -0.1931
 2725TIP3    H229667   6.135   6.606  16.609  0.2488  1.3792  0.6053
 2726TIP3   OH229668   5.501   4.955   1.428 -0.1192 -0.1232  0.1177
 2726TIP3    H129669   5.406   4.954   1.438 -0.3582  1.1996 -1.6175
 2726TIP3    H229670   5.534   4.919   1.511 -2.0947  0.0462  1.0321
 2727TIP3   OH229671   5.250   6.313  15.644 -0.5892 -0.2109  0.2255
 2727TIP3    H129672   5.281   6.287  15.557  0.8342 -0.7895  0.8667
 2727TIP3    H229673   5.211   6.400  15.630  0.1470 -0.0338 -0.8966
 2728TIP3   OH229674   6.538   3.395   0.842  0.3354 -0.3399  0.1074
 2728TIP3    H129675   6.568   3.404   0.751 -0.0183 -0.6488 -0.0451
 2728TIP3    H229676   6.533   3.300   0.856  0.6214 -0.2963  0.5307
 2729TIP3   OH229677   6.607   4.956  14.461  0.2001  0.3313 -0.1628
 2729TIP3    H129678   6.620   4.897  14.536 -0.0330  0.5020  0.0119
 2729TIP3    H229679   6.641   5.040  14.491 -2.1149  1.0575  0.6646
 2730TIP3   OH229680   4.328   5.250  14.507  0.0888 -0.6178 -0.1838
 2730TIP3    H129681   4.348   5.340  14.482  0.2187 -0.6762 -0.2883
 2730TIP3    H229682   4.243   5.233  14.466 -0.3439 -0.2588  0.5403
 2731TIP3   OH229683   1.719   3.552  16.396 -0.2321 -0.1934 -0.7735
 2731TIP3    H129684   1.642   3.554  16.453  0.3058  0.6855 -0.0538
 2731TIP3    H229685   1.685   3.575  16.309 -0.7816  0.2086 -0.4578
 2732TIP3   OH229686   3.966   4.756   2.126  0.6492  0.1713  0.1732
 2732TIP3    H129687   4.059   4.768   2.142  1.0819 -2.7929  0.5290
 2732TIP3    H229688   3.922   4.793   2.202  1.6200  0.5485  0.5517
 2733TIP3   OH229689   0.257   5.097   4.483  0.2762 -0.3940 -0.1080
 2733TIP3    H129690   0.237   5.152   4.559  1.2707  0.6688 -0.5882
 2733TIP3    H229691   0.351   5.111   4.468  0.0016 -0.2395 -1.7981
 2734TIP3   OH229692   3.857   0.704   3.465  0.5550 -0.5537  0.2541
 2734TIP3    H129693   3.847   0.635   3.399  4.0041 -1.6551  0.7045
 2734TIP3    H229694   3.853   0.786   3.415  1.1739 -1.2889 -1.0450
 2735TIP3   OH229695   2.016   0.332  16.250 -0.2269 -0.2007 -0.8265
 2735TIP3    H129696   1.959   0.333  16.327  0.1550  0.6446 -0.5452
 2735TIP3    H229697   2.096   0.376  16.279  0.8683 -1.9525 -0.9876
 2736TIP3   OH229698   1.711   2.545  16.778  0.2255  0.3276 -0.0207
 2736TIP3    H129699   1.776   2.612  16.798 -0.9636  1.4392  0.2827
 2736TIP3    H229700   1.747   2.499  16.702  1.6598  0.4692  0.5540
 2737TIP3   OH229701   2.466   5.851  15.124  0.4187 -0.1518 -0.2182
 2737TIP3    H129702   2.382   5.822  15.088  0.7648 -1.3665 -0.0989
 2737TIP3    H229703   2.510   5.895  15.051  0.2776 -0.8104 -0.7118
 2738TIP3   OH229704   4.599   6.011   0.977  0.2784 -0.1128 -0.0667
 2738TIP3    H129705   4.681   5.961   0.981  1.1280  1.0482 -1.5339
 2738TIP3    H229706   4.626   6.101   0.993 -0.4890  0.4480 -1.6870
 2739TIP3   OH229707   1.221   3.812   1.999  0.2514  0.2357  0.5007
 2739TIP3    H129708   1.155   3.874   1.968  0.4078 -0.6697 -1.9003
 2739TIP3    H229709   1.278   3.864   2.056 -1.1841  1.5887  0.7718
 2740TIP3   OH229710   2.717   3.973  16.853  0.4511 -0.0975 -0.0730
 2740TIP3    H129711   2.796   3.939  16.897  1.5743  1.7040 -0.6102
 2740TIP3    H229712   2.646   3.952  16.914  1.7713  1.0997  2.0093
 2741TIP3   OH229713   0.115   3.762  14.660 -0.5215  0.0862 -0.1967
 2741TIP3    H129714   0.169   3.787  14.585  0.1815 -1.3981 -0.2189
 2741TIP3    H229715   0.037   3.817  14.653  0.9830  2.4024 -0.1014
 2742TIP3   OH229716   3.212   3.684   1.088 -0.4234 -0.4147 -0.3011
 2742TIP3    H129717   3.302   3.699   1.060 -0.1766  0.6614  0.9444
 2742TIP3    H229718   3.219   3.614   1.153 -0.9122 -2.4569 -2.3175
 2743TIP3   OH229719   0.970   2.549  12.534  0.2652  0.4490  0.3903
 2743TIP3    H129720   0.973   2.557  12.438 -0.6968  0.0404  0.3076
 2743TIP3    H229721   1.061   2.537  12.560  0.3976 -1.0328 -0.6328
 2744TIP3   OH229722   6.430   6.019  16.898 -0.3837  0.1378  0.1662
 2744TIP3    H129723   6.493   6.024  16.970 -0.3253  0.6760  0.0826
 2744TIP3    H229724   6.358   6.076  16.925 -0.6513 -0.1598  0.0824
 2745TIP3   OH229725   4.385   6.160  17.185 -0.1907  0.2392 -0.2456
 2745TIP3    H129726   4.466   6.207  17.164 -0.2267  0.1198 -0.6538
 2745TIP3    H229727   4.402   6.069  17.161 -0.1852  0.0717  0.3786
 2746TIP3   OH229728   4.213   2.174   1.709 -0.0735  0.5452 -0.2087
 2746TIP3    H129729   4.237   2.215   1.792 -1.3192 -0.4898  0.6977
 2746TIP3    H229730   4.284   2.113   1.691 -1.0184 -1.1823  1.5260
 2747TIP3   OH229731   1.579   0.122  13.809 -0.3962  0.0685 -0.0160
 2747TIP3    H129732   1.590   0.204  13.857  4.9329 -0.4617  0.3043
 2747TIP3    H229733   1.571   0.055  13.877  0.0553 -0.0414 -0.0629
 2748TIP3   OH229734   1.888   4.541   4.353  0.0650  0.0208 -0.0049
 2748TIP3    H129735   1.958   4.556   4.290  1.4268 -0.4159  1.3313
 2748TIP3    H229736   1.911   4.459   4.395 -0.3652  0.6667  1.5757
 2749TIP3   OH229737   3.828   3.109  15.024 -0.2960 -0.1450 -1.0656
 2749TIP3    H129738   3.776   3.090  14.946 -1.4071 -1.3204 -0.0766
 2749TIP3    H229739   3.904   3.051  15.016  0.4075  0.8438 -1.9971
 2750TIP3   OH229740   4.122   5.816   5.841 -0.4538  0.4433  1.2452
 2750TIP3    H129741   4.202   5.765   5.830 -0.6148  0.6006 -1.0468
 2750TIP3    H229742   4.055   5.750   5.861 -0.5434 -0.2519 -1.0997
 2751TIP3   OH229743   5.098   2.285  13.441  0.4732  0.3312  1.0056
 2751TIP3    H129744   5.094   2.211  13.501 -0.9162 -0.5153 -0.0725
 2751TIP3    H229745   5.186   2.321  13.453  1.3997 -1.8460  1.1309
 2752TIP3   OH229746   6.060   5.661   0.504 -0.0743 -0.0603  0.5976
 2752TIP3    H129747   6.080   5.652   0.411  0.2283 -4.0608  0.8615
 2752TIP3    H229748   6.145   5.683   0.544  0.3815 -0.9171  0.1382
 2753TIP3   OH229749   5.381   2.388  11.629 -0.7208 -0.4048  0.5052
 2753TIP3    H129750   5.401   2.302  11.591 -1.8797  0.0988 -1.3783
 2753TIP3    H229751   5.455   2.407  11.687 -0.5474 -2.7663  1.1886
 2754TIP3   OH229752   3.471   5.708  13.821  0.5311 -0.2235  0.5992
 2754TIP3    H129753   3.492   5.784  13.766  0.1336 -1.2925 -1.1031
 2754TIP3    H229754   3.378   5.715  13.837  0.7289  0.3304  1.5416
 2755TIP3   OH229755   5.283   3.372   0.183 -0.0315 -0.2916  0.1533
 2755TIP3    H129756   5.242   3.320   0.114 -0.1133 -0.6204  0.4419
 2755TIP3    H229757   5.360   3.411   0.143  0.8438 -1.7889  0.2979
 2756TIP3   OH229758   6.508   1.740   2.767 -0.1081 -0.3597  0.1319
 2756TIP3    H129759   6.459   1.820   2.784 -0.9855 -0.6949 -0.7208
 2756TIP3    H229760   6.565   1.761   2.692  1.0420  0.0075  1.0728
 2757TIP3   OH229761   2.893   0.227  15.324 -0.4711  0.0209 -0.0917
 2757TIP3    H129762   2.965   0.286  15.303 -1.8877  1.5206 -1.0495
 2757TIP3    H229763   2.885   0.170  15.247 -0.4948  0.0559 -0.1157
 2758TIP3   OH229764   4.909   3.148  11.822  0.3237 -0.0054  0.1234
 2758TIP3    H129765   4.924   3.236  11.859 -1.2076  0.6634 -0.7512
 2758TIP3    H229766   4.995   3.121  11.791  0.7741  1.3694  0.0762
 2759TIP3   OH229767   6.668   4.543  14.964 -0.3732  0.1029  0.0177
 2759TIP3    H129768   6.637   4.457  14.937  0.9310  0.1511 -1.8129
 2759TIP3    H229769   6.609   4.605  14.920 -0.5921  0.1791  0.4051
 2760TIP3   OH229770   6.280   2.960  15.256 -0.5622  0.2833  0.0222
 2760TIP3    H129771   6.220   2.907  15.204 -0.1741 -1.3673  1.1981
 2760TIP3    H229772   6.227   2.989  15.331 -0.8435  1.8270 -0.7292
 2761TIP3   OH229773   2.811   1.601   5.955 -0.2492 -0.6603 -0.0177
 2761TIP3    H129774   2.720   1.571   5.955 -0.3701 -0.3084  0.4724
 2761TIP3    H229775   2.853   1.550   5.886 -0.7435 -1.0459 -0.0399
 2762TIP3   OH229776   5.874   0.993  11.405  0.0393  0.0695 -0.1208
 2762TIP3    H129777   5.784   0.972  11.430  0.7068 -0.7092  1.8152
 2762TIP3    H229778   5.876   0.980  11.310 -1.4275 -1.7275  0.0361
 2763TIP3   OH229779   4.968   0.443   4.096 -0.6251 -0.0521 -0.3003
 2763TIP3    H129780   5.058   0.462   4.122 -0.3969 -1.8146  0.3496
 2763TIP3    H229781   4.935   0.386   4.165 -2.3713  0.8008 -0.3638
 2764TIP3   OH229782   6.523   2.188   3.368  0.5501 -0.1549 -0.2768
 2764TIP3    H129783   6.429   2.208   3.375  0.5458  0.2616 -1.3758
 2764TIP3    H229784   6.565   2.254   3.424  0.2785  0.5683 -0.9105
 2765TIP3   OH229785   5.506   1.255  12.706 -0.5333  0.5344  0.4321
 2765TIP3    H129786   5.451   1.321  12.664 -0.2735  0.7735  0.4639
 2765TIP3    H229787   5.572   1.233  12.641 -2.1459 -1.6482 -0.5838
 2766TIP3   OH229788   6.577   4.094   2.422 -0.4144  0.9641 -0.4044
 2766TIP3    H129789   6.611   4.047   2.497  0.6235  3.9673  1.1736
 2766TIP3    H229790   6.578   4.030   2.350  2.8921 -0.7864  0.9987
 2767TIP3   OH229791   3.959   2.895  16.752  0.1627  0.1887  0.6563
 2767TIP3    H129792   4.054   2.883  16.755  0.3303  1.5453  1.6960
 2767TIP3    H229793   3.929   2.832  16.686  2.0815  1.5390 -1.7002
 2768TIP3   OH229794   4.837   5.301   3.658 -0.0925 -0.2732 -0.1258
 2768TIP3    H129795   4.851   5.217   3.614 -1.4747 -0.1076 -0.8978
 2768TIP3    H229796   4.808   5.360   3.590 -0.3488  0.5170  0.6528
 2769TIP3   OH229797   3.796   2.312   3.297 -0.2149  0.0283  0.6963
 2769TIP3    H129798   3.865   2.338   3.237  0.5560 -0.6963  1.2501
 2769TIP3    H229799   3.750   2.393   3.319  1.1156  0.6745  1.1407
 2770TIP3   OH229800   4.739   2.266   3.974  0.3255 -0.0391  0.0614
 2770TIP3    H129801   4.702   2.279   4.061  0.5036 -1.2360  0.3433
 2770TIP3    H229802   4.826   2.229   3.990 -0.1748 -1.5829 -0.6099
 2771TIP3   OH229803   0.584   3.153   2.201 -0.0871  0.0411  0.2157
 2771TIP3    H129804   0.490   3.159   2.186  0.1149 -0.3842 -1.4099
 2771TIP3    H229805   0.595   3.178   2.293 -1.8070 -0.2285  0.5334
 2772TIP3   OH229806   5.308   0.074   2.187  0.3647 -0.3463  0.0735
 2772TIP3    H129807   5.233   0.089   2.130  0.9224  0.2706 -0.5090
 2772TIP3    H229808   5.271   0.026   2.262 -0.6735  0.2226 -0.0450
 2773TIP3   OH229809   4.751   1.597  14.411  0.0625 -0.9821  0.5782
 2773TIP3    H129810   4.660   1.627  14.418  0.5495  1.3693 -1.7120
 2773TIP3    H229811   4.745   1.512  14.369 -1.0874 -0.8958  0.5390
 2774TIP3   OH229812   3.149   1.976  10.731 -0.5030  0.0706 -0.1952
 2774TIP3    H129813   3.186   2.057  10.765 -0.7957  0.9520 -1.8937
 2774TIP3    H229814   3.224   1.928  10.696 -0.6621  0.8841 -1.6946
 2775TIP3   OH229815   4.491   3.669   5.705 -0.3465 -0.7658 -0.3721
 2775TIP3    H129816   4.558   3.608   5.736 -0.7624 -1.5039 -0.8900
 2775TIP3    H229817   4.419   3.659   5.768 -0.3115 -0.6226 -0.3099
 2776TIP3   OH229818   2.609   0.829  15.541 -0.2601  0.4847  0.1948
 2776TIP3    H129819   2.565   0.898  15.590 -0.0179 -0.5220  1.9000
 2776TIP3    H229820   2.697   0.862  15.527 -0.2693  0.6965  0.6332
 2777TIP3   OH229821   1.653   6.036   0.093  0.1299 -0.2656 -0.0959
 2777TIP3    H129822   1.733   6.041   0.146  0.2083  1.1372 -0.2941
 2777TIP3    H229823   1.582   6.035   0.157  0.2554  0.4033  0.0634
 2778TIP3   OH229824   3.843   1.356   5.747  0.2757  0.4778  0.3941
 2778TIP3    H129825   3.896   1.433   5.768  0.8556  0.1656  0.0979
 2778TIP3    H229826   3.906   1.284   5.747 -0.6764 -0.5026  3.4448
 2779TIP3   OH229827   1.068   2.051   0.177 -0.3388  0.0283  0.0533
 2779TIP3    H129828   1.042   2.069   0.087  1.5517  3.0906 -0.0090
 2779TIP3    H229829   1.002   2.094   0.230 -0.2615  0.0903  0.0982
 2780TIP3   OH229830   4.938   2.030   2.460 -0.6238  0.2362  0.1411
 2780TIP3    H129831   4.912   1.991   2.543  0.9208 -0.3256  0.3886
 2780TIP3    H229832   5.027   2.063   2.475 -1.2079  2.3321 -0.5763
 2781TIP3   OH229833   0.076   0.503   2.451 -0.7083 -0.5979  0.2998
 2781TIP3    H129834   0.050   0.501   2.359  0.7269  1.1866 -0.1905
 2781TIP3    H229835   0.027   0.577   2.488  0.5998  0.2681  0.3342
 2782TIP3   OH229836   6.347   2.462  12.577 -0.3965  0.0747  0.3646
 2782TIP3    H129837   6.400   2.495  12.650  0.2707  0.1860 -0.1689
 2782TIP3    H229838   6.315   2.541  12.533 -2.7122  0.0761  1.8569
 2783TIP3   OH229839   6.177   1.971  13.793 -0.5892  0.5927  0.5524
 2783TIP3    H129840   6.263   1.995  13.757  0.1120  0.1328  1.8417
 2783TIP3    H229841   6.121   2.046  13.774 -0.1326  0.5615 -1.0381
 2784TIP3   OH229842   2.653   6.249   2.143 -0.4971 -0.2618 -0.3082
 2784TIP3    H129843   2.726   6.311   2.133 -0.0427 -0.6223  0.6603
 2784TIP3    H229844   2.590   6.295   2.199 -0.6830 -0.2412 -0.5300
 2785TIP3   OH229845   5.024   1.749  14.753 -0.0968  0.3135 -0.0524
 2785TIP3    H129846   5.053   1.685  14.818 -1.9369 -0.5952 -0.0470
 2785TIP3    H229847   5.019   1.831  14.801 -0.8907 -0.2338  0.8581
 2786TIP3   OH229848   4.532   6.506  13.681  0.2835 -0.0467 -0.1065
 2786TIP3    H129849   4.610   6.458  13.708  0.2265  0.7118  1.5079
 2786TIP3    H229850   4.460   6.460  13.723 -0.4359 -1.8439 -3.0211
 2787TIP3   OH229851   5.597   3.464  13.693 -0.1188 -0.4059  0.6120
 2787TIP3    H129852   5.616   3.556  13.675  0.9518 -1.0939 -2.2652
 2787TIP3    H229853   5.672   3.434  13.744  0.3477 -0.0809  0.1225
 2788TIP3   OH229854   5.982   5.034   1.485  0.3796 -0.3603  0.5643
 2788TIP3    H129855   5.971   5.036   1.390  0.2807 -2.0979  0.4982
 2788TIP3    H229856   5.893   5.041   1.520  0.2164 -1.5365  0.4406
 2789TIP3   OH229857   1.843   5.398  11.797  0.6823  0.5945  0.5567
 2789TIP3    H129858   1.826   5.324  11.739 -0.6587  0.9738  0.4183
 2789TIP3    H229859   1.889   5.462  11.743 -1.1565  1.2273 -0.3593
 2790TIP3   OH229860   1.577   1.392   4.091 -0.4402  0.3957  0.7100
 2790TIP3    H129861   1.506   1.365   4.149 -0.1836 -1.0011  0.4212
 2790TIP3    H229862   1.535   1.404   4.006 -0.4780  0.3974  0.7289
 2791TIP3   OH229863   3.626   0.250  13.614 -0.4765 -0.2836 -0.0383
 2791TIP3    H129864   3.612   0.327  13.668 -1.0141  0.2561 -0.9145
 2791TIP3    H229865   3.691   0.277  13.549  1.2734 -1.3621  1.1659
 2792TIP3   OH229866   2.743   4.626   4.257 -0.2920 -0.2955 -0.1501
 2792TIP3    H129867   2.715   4.545   4.300  2.2447 -1.4837 -0.5435
 2792TIP3    H229868   2.661   4.672   4.239 -2.0358 -3.5090 -1.3989
 2793TIP3   OH229869   3.486   1.632   4.657 -0.1153 -0.5419 -0.4567
 2793TIP3    H129870   3.450   1.655   4.742  1.1949 -0.2960  0.0559
 2793TIP3    H229871   3.502   1.538   4.661  1.2634 -0.3104  0.1203
 2794TIP3   OH229872   1.075   4.098  14.301 -0.8710  0.0154 -0.1578
 2794TIP3    H129873   1.127   4.038  14.248  0.9984  1.0448  0.3694
 2794TIP3    H229874   1.034   4.043  14.367  1.5812 -0.6704  0.9266
 2795TIP3   OH229875   3.920   5.020  11.472 -0.7452  0.0089  0.2652
 2795TIP3    H129876   3.904   5.063  11.556 -0.8797 -0.3011  0.4002
 2795TIP3    H229877   3.891   5.083  11.406 -1.2793 -0.0214  0.4721
 2796TIP3   OH229878   2.552   6.524  13.831  0.1010  0.6371  0.1718
 2796TIP3    H129879   2.522   6.501  13.918 -3.1269 -1.3453 -1.2952
 2796TIP3    H229880   2.556   6.619  13.831  0.5043  0.6792  2.5063
 2797TIP3   OH229881   3.375   6.297  16.914  0.3612  0.1367 -0.7924
 2797TIP3    H129882   3.379   6.201  16.918  0.0175  0.1527  0.9243
 2797TIP3    H229883   3.307   6.320  16.978  0.7431  1.5439 -0.8671
 2798TIP3   OH229884   5.960   6.094   4.460  0.1316 -0.2163 -0.0178
 2798TIP3    H129885   6.002   6.130   4.539 -0.9470 -0.5409  0.7363
 2798TIP3    H229886   6.003   6.138   4.387  0.4424  0.8793  0.7974
 2799TIP3   OH229887   2.526   2.154   1.100 -0.0762 -0.1292 -0.2512
 2799TIP3    H129888   2.454   2.115   1.052  1.4435 -1.7755 -1.3207
 2799TIP3    H229889   2.494   2.162   1.190 -1.6437 -0.6023 -0.7401
 2800TIP3   OH229890   3.991   5.413   3.114  0.6370  0.1789 -0.7043
 2800TIP3    H129891   3.976   5.479   3.048  0.1457  0.7226 -0.0602
 2800TIP3    H229892   3.908   5.366   3.122  0.2061  1.0898  0.5648
 2801TIP3   OH229893   5.004   2.925   3.030  0.7895  0.2166 -0.7249
 2801TIP3    H129894   5.005   2.847   3.087  1.1978 -0.0818 -1.1324
 2801TIP3    H229895   5.009   2.998   3.091  0.7031 -0.0886 -0.3461
 2802TIP3   OH229896   4.290   1.745   2.559  0.4156 -0.1379  0.0459
 2802TIP3    H129897   4.271   1.818   2.500  0.3512  1.1705  1.6071
 2802TIP3    H229898   4.314   1.672   2.501  2.4285  1.6460 -1.5345
 2803TIP3   OH229899   3.071   6.440  11.341 -0.7648 -0.1910 -0.4715
 2803TIP3    H129900   3.015   6.409  11.413  0.3952  0.3359  0.6964
 2803TIP3    H229901   3.020   6.510  11.300 -0.4764  1.1400  1.3673
 2804TIP3   OH229902   4.266   4.818   2.106  0.4640  0.0937  0.1265
 2804TIP3    H129903   4.325   4.777   2.169 -0.4378  0.4471  1.2377
 2804TIP3    H229904   4.274   4.912   2.123  3.0222  0.5694 -2.8354
 2805TIP3   OH229905   2.739   1.463  15.829 -0.3832 -0.1578 -0.2036
 2805TIP3    H129906   2.752   1.377  15.790 -0.6290 -0.0470 -0.5248
 2805TIP3    H229907   2.659   1.497  15.789 -0.7072 -0.0928  0.4757
 2806TIP3   OH229908   1.535   1.531  13.817 -0.2367 -0.1080 -0.0077
 2806TIP3    H129909   1.518   1.469  13.746 -2.8905  0.7980 -0.2849
 2806TIP3    H229910   1.479   1.606  13.797  2.0587  1.9910  0.8718
 2807TIP3   OH229911   4.952   4.926   4.364  0.1866 -0.0206  1.0313
 2807TIP3    H129912   4.930   5.011   4.402  1.7074  1.3825 -1.0171
 2807TIP3    H229913   4.993   4.947   4.280 -0.6832 -2.8431 -0.2224
 2808TIP3   OH229914   4.941   1.470  14.059 -0.5689 -0.0220  0.5158
 2808TIP3    H129915   4.929   1.493  13.967 -2.3358  0.5312  0.8547
 2808TIP3    H229916   5.010   1.403  14.058  1.2867  1.7637 -0.9427
 2809TIP3   OH229917   3.417   4.524   5.697 -0.2101 -0.7402  0.6643
 2809TIP3    H129918   3.325   4.502   5.714 -0.3898 -0.5520 -0.0461
 2809TIP3    H229919   3.414   4.600   5.639  0.4084  0.0365  1.6201
 2810TIP3   OH229920   4.340   5.616  15.783 -0.1214  0.3172 -0.1793
 2810TIP3    H129921   4.363   5.638  15.692  0.2983  0.4720 -0.0382
 2810TIP3    H229922   4.260   5.564  15.776 -0.1553  0.4283 -0.6320
 2811TIP3   OH229923   1.280   4.941   2.808  0.1295  0.2661 -0.4437
 2811TIP3    H129924   1.358   4.962   2.757 -0.4303  1.9223 -0.6810
 2811TIP3    H229925   1.277   5.009   2.876  0.0751 -1.0573  0.9116
 2812TIP3   OH229926   0.613   2.787  15.867 -0.0519  0.0467  0.4104
 2812TIP3    H129927   0.545   2.721  15.877  0.5629 -0.7006 -0.1634
 2812TIP3    H229928   0.679   2.745  15.812  0.5329  1.0098  0.3488
 2813TIP3   OH229929   3.708   4.785   0.139 -0.6660 -0.0444 -0.5046
 2813TIP3    H129930   3.655   4.705   0.141 -0.0216 -0.4959 -1.1958
 2813TIP3    H229931   3.789   4.762   0.183 -1.6049  1.1146  2.0621
 2814TIP3   OH229932   0.372   4.638   0.753  0.0794 -0.1261  0.1240
 2814TIP3    H129933   0.427   4.631   0.831  1.2881 -0.3484 -0.7221
 2814TIP3    H229934   0.334   4.550   0.743 -0.2358 -0.0439  0.5577
 2815TIP3   OH229935   5.536   1.087  11.248 -0.0166 -0.2436  0.4299
 2815TIP3    H129936   5.560   1.155  11.185 -0.4778  0.1541  0.6779
 2815TIP3    H229937   5.525   1.008  11.195  0.6969 -0.1696  0.1639
 2816TIP3   OH229938   3.112   5.354  12.307 -0.2934 -0.6444 -0.4245
 2816TIP3    H129939   3.125   5.428  12.367  0.3667 -0.9877 -0.1362
 2816TIP3    H229940   3.062   5.391  12.235 -0.0898  0.0566 -0.2177
 2817TIP3   OH229941   2.419   0.341  17.098  0.0838  0.1326 -0.3211
 2817TIP3    H129942   2.426   0.305  17.010 -0.3479  0.8497 -0.6610
 2817TIP3    H229943   2.337   0.391  17.096  0.2833  0.4924  0.3609
 2818TIP3   OH229944   4.141   6.200  12.986  0.1484  0.0183 -0.0178
 2818TIP3    H129945   4.218   6.169  13.035 -0.4439 -0.6125  0.5277
 2818TIP3    H229946   4.173   6.278  12.939  1.0173 -0.0047  0.5050
 2819TIP3   OH229947   6.788   2.620   4.716  0.2614  0.2874  0.2176
 2819TIP3    H129948   6.810   2.694   4.659  0.2044 -0.9576 -1.5059
 2819TIP3    H229949   6.693   2.616   4.713  0.3068 -0.6347 -0.8110
 2820TIP3   OH229950   2.883   6.355  11.555 -0.2184 -0.6387 -0.4239
 2820TIP3    H129951   2.896   6.280  11.614 -0.5840 -0.4947 -0.1551
 2820TIP3    H229952   2.789   6.372  11.559 -0.0563  0.2141 -0.0233
 2821TIP3   OH229953   3.983   3.442  12.546  0.2626  0.4482 -0.8167
 2821TIP3    H129954   3.928   3.482  12.613 -1.3760 -1.5560 -0.8812
 2821TIP3    H229955   3.938   3.463  12.463 -0.1837 -0.7799 -0.9066
 2822TIP3   OH229956   3.186   6.714  15.502  0.0025  0.3588 -0.8155
 2822TIP3    H129957   3.097   6.678  15.497 -0.9903  2.2498  1.2850
 2822TIP3    H229958   3.243   6.637  15.503 -1.8281 -1.0852  0.9163
 2823TIP3   OH229959   6.000   6.401   2.035 -0.5749 -0.0596 -0.6350
 2823TIP3    H129960   6.028   6.316   2.070 -0.6833 -0.7476 -2.1108
 2823TIP3    H229961   6.009   6.462   2.108  0.6255 -1.1133  0.1368
 2824TIP3   OH229962   3.998   4.463   0.826  0.1332  0.3285 -0.4091
 2824TIP3    H129963   3.987   4.388   0.884 -0.2866 -0.4087 -1.4094
 2824TIP3    H229964   4.091   4.465   0.806 -0.0189 -0.7346 -1.3791
 2825TIP3   OH229965   6.082   2.277  11.021 -0.2580 -0.6276 -0.4394
 2825TIP3    H129966   5.988   2.294  11.010 -0.2238 -0.8324 -1.0831
 2825TIP3    H229967   6.089   2.238  11.109 -0.8360 -1.0420 -0.5707
 2826TIP3   OH229968   1.549   5.769  13.876 -0.4204 -1.1117  0.0140
 2826TIP3    H129969   1.553   5.755  13.782 -0.3059 -1.0651  0.0124
 2826TIP3    H229970   1.458   5.795  13.892 -0.0927  0.2765 -0.2752
 2827TIP3   OH229971   4.073   1.098   2.520 -0.0350 -0.2575  0.0634
 2827TIP3    H129972   4.113   1.017   2.488 -2.3655 -2.7837  3.0079
 2827TIP3    H229973   3.987   1.101   2.477  0.0493  0.7535 -0.0666
 2828TIP3   OH229974   0.287   5.783  15.425  0.4895  0.1336 -0.2952
 2828TIP3    H129975   0.284   5.703  15.372 -3.4570 -1.0939  1.4187
 2828TIP3    H229976   0.303   5.853  15.362  2.7179 -1.8143 -2.0471
 2829TIP3   OH229977   3.532   2.391   2.566 -0.1687  0.2925 -0.1204
 2829TIP3    H129978   3.439   2.412   2.574 -1.0428 -1.9925 -2.6726
 2829TIP3    H229979   3.569   2.465   2.517 -1.2447  0.0647 -1.3327
 2830TIP3   OH229980   2.989   3.090  12.798 -0.4164 -0.2096  0.0960
 2830TIP3    H129981   3.056   3.139  12.845 -1.2996  3.2095 -1.9195
 2830TIP3    H229982   2.929   3.059  12.867  2.5197 -2.5403  1.8335
 2831TIP3   OH229983   0.764   4.317  17.282  0.0746 -0.0370  0.3145
 2831TIP3    H129984   0.830   4.336  17.215 -2.9180 -0.7161 -3.1728
 2831TIP3    H229985   0.729   4.403  17.306  1.2860  0.2249  1.2734
 2832TIP3   OH229986   2.087   3.621  12.598  0.2467 -0.2830 -0.4969
 2832TIP3    H129987   2.095   3.529  12.624  0.9630  0.6449  3.0728
 2832TIP3    H229988   2.162   3.664  12.638 -0.9963  2.1477 -0.6030
 2833TIP3   OH229989   3.624   2.545   3.277  0.1166 -0.2920 -0.0432
 2833TIP3    H129990   3.577   2.620   3.313 -1.0139 -0.5965 -0.8508
 2833TIP3    H229991   3.678   2.581   3.207  1.5119  0.1342  1.1951
 2834TIP3   OH229992   4.867   1.117  11.927  0.0308 -0.1813 -0.5152
 2834TIP3    H129993   4.916   1.156  11.854 -0.3869  0.0706 -0.6662
 2834TIP3    H229994   4.848   1.028  11.898 -0.0259 -0.1220 -0.6593
 2835TIP3   OH229995   3.837   6.780  16.722  0.4118  0.2125  0.0397
 2835TIP3    H129996   3.771   6.841  16.687  1.9461  2.5345  0.9303
 2835TIP3    H229997   3.878   6.742  16.644  1.2141  2.4322 -0.7127
 2836TIP3   OH229998   6.589   6.648  15.091 -0.2034  0.6352  0.5408
 2836TIP3    H129999   6.671   6.658  15.140  1.0927  0.7264 -1.5353
 2836TIP3    H230000   6.540   6.728  15.110 -1.2048 -0.6732  4.1380
 2837TIP3   OH230001   5.211   3.066  12.800 -1.0068 -0.1655  0.2039
 2837TIP3    H130002   5.256   2.982  12.794 -1.8760 -0.5709 -0.9356
 2837TIP3    H230003   5.267   3.119  12.857 -0.8873 -1.7810  1.6604
 2838TIP3   OH230004   5.536   5.448  14.676  0.1902 -0.1908  0.3683
 2838TIP3    H130005   5.459   5.460  14.732  1.5109  0.9012  2.0390
 2838TIP3    H230006   5.550   5.533  14.635  0.7703 -0.2510  0.4340
 2839TIP3   OH230007   1.256   4.751  16.334  0.0765 -0.4706 -0.2395
 2839TIP3    H130008   1.162   4.766  16.349  0.1259 -0.8729  0.5011
 2839TIP3    H230009   1.260   4.661  16.302  0.0067  0.2383 -2.4749
 2840TIP3   OH230010   0.296   1.017   1.198 -0.7384 -0.4034 -0.6023
 2840TIP3    H130011   0.359   0.945   1.194  1.0284  0.8296  1.8016
 2840TIP3    H230012   0.348   1.095   1.175 -0.0430  1.2277  5.0146
 2841TIP3   OH230013   1.214   3.481   6.764  0.5600 -0.2646  0.5828
 2841TIP3    H130014   1.172   3.405   6.725 -0.6974  1.2159 -1.1154
 2841TIP3    H230015   1.243   3.534   6.690 -0.4771  1.9040  1.6189
 2842TIP3   OH230016   0.461   0.648   3.707  0.2934  0.1229  0.2069
 2842TIP3    H130017   0.382   0.700   3.698  0.1558 -0.3757 -1.7490
 2842TIP3    H230018   0.488   0.628   3.617  0.6517 -2.7000  0.8375
 2843TIP3   OH230019   0.853   1.914   5.096  0.6224 -0.1572 -0.0521
 2843TIP3    H130020   0.844   1.838   5.039  1.1219 -1.4371  1.5024
 2843TIP3    H230021   0.880   1.878   5.180 -1.1829  1.5184  1.3605
 2844TIP3   OH230022   0.923   3.306  15.307  0.1613  0.0452 -0.3996
 2844TIP3    H130023   0.874   3.325  15.388  1.3257  1.2487  0.0678
 2844TIP3    H230024   1.012   3.289  15.337  0.5010  0.0290 -1.3943
 2845TIP3   OH230025   5.752   4.741   4.666 -0.0185 -0.2672 -0.2779
 2845TIP3    H130026   5.694   4.685   4.718 -1.7408  1.1011 -0.6507
 2845TIP3    H230027   5.759   4.822   4.715  2.1726 -0.6021  0.0786
 2846TIP3   OH230028   3.954   2.366  16.091  0.0625 -0.0003 -0.3912
 2846TIP3    H130029   4.036   2.319  16.076  0.0387 -1.3050  2.8003
 2846TIP3    H230030   3.886   2.300  16.077 -0.2305  0.1734  0.1921
 2847TIP3   OH230031   0.435   4.653  16.802  0.0100  0.4002  0.6885
 2847TIP3    H130032   0.467   4.566  16.827 -0.2221  0.5552  1.5292
 2847TIP3    H230033   0.512   4.695  16.763 -0.0590 -0.4264 -0.4058
 2848TIP3   OH230034   3.878   0.923   5.650  0.1410 -0.0628 -0.2622
 2848TIP3    H130035   3.942   0.854   5.628  0.5791  0.2387  0.0512
 2848TIP3    H230036   3.894   0.991   5.585  0.8728  0.4710  0.4492
 2849TIP3   OH230037   1.024   1.044  17.100 -0.3559 -0.4107 -0.1896
 2849TIP3    H130038   1.066   1.012  17.021 -0.4712  0.2859 -0.5314
 2849TIP3    H230039   1.058   1.132  17.113 -0.0686 -0.6425  0.7351
 2850TIP3   OH230040   4.891   4.437   4.581  0.0055 -0.5746 -0.5272
 2850TIP3    H130041   4.855   4.525   4.574 -0.1258 -0.6121 -0.3447
 2850TIP3    H230042   4.862   4.406   4.667  0.3745 -0.6533 -0.4318
 2851TIP3   OH230043   0.754   2.927  17.053  0.7191 -0.3206 -0.2787
 2851TIP3    H130044   0.720   2.948  17.139 -3.2320 -1.3786 -1.3989
 2851TIP3    H230045   0.805   2.847  17.065 -0.1242 -0.6800  1.0318
 2852TIP3   OH230046   3.315   1.040   0.794  0.4160 -0.1165 -0.2598
 2852TIP3    H130047   3.230   1.083   0.789  1.9433  3.2084 -0.0569
 2852TIP3    H230048   3.337   1.020   0.703 -0.1071 -0.0021 -0.4154
 2853TIP3   OH230049   1.807   4.076   0.850 -0.2407  0.0995 -0.3069
 2853TIP3    H130050   1.901   4.088   0.865 -0.3406  0.1147  0.3503
 2853TIP3    H230051   1.785   4.140   0.782  0.3881 -0.5008 -1.0892
 2854TIP3   OH230052   5.414   6.079   5.605  0.2677 -0.1217  0.4666
 2854TIP3    H130053   5.403   6.013   5.537 -0.0691 -1.6932  1.9871
 2854TIP3    H230054   5.404   6.162   5.559  0.8261 -1.0873 -1.5330
 2855TIP3   OH230055   0.921   5.678   5.317  0.5069 -0.4682  0.7434
 2855TIP3    H130056   0.845   5.665   5.261 -1.4727  0.4342  3.0647
 2855TIP3    H230057   0.979   5.733   5.266 -1.1534  0.2200 -0.4753
 2856TIP3   OH230058   6.323   6.174  15.035  0.0784 -0.4155  0.5114
 2856TIP3    H130059   6.319   6.266  15.010  1.2522 -0.3964  0.3786
 2856TIP3    H230060   6.254   6.132  14.983 -0.5551  0.3957  0.6749
 2857TIP3   OH230061   4.302   3.164  13.978  0.2322  0.4799  0.7631
 2857TIP3    H130062   4.324   3.184  14.069 -0.2162 -1.4161  1.3318
 2857TIP3    H230063   4.343   3.079  13.962  0.4303  0.8684 -0.8742
 2858TIP3   OH230064   4.218   0.463  11.563  0.1691 -0.4072  0.1963
 2858TIP3    H130065   4.256   0.540  11.522  0.8067 -0.7447  0.1470
 2858TIP3    H230066   4.190   0.492  11.649 -2.4739  0.6872 -0.9307
 2859TIP3   OH230067   0.874   0.106   6.139  0.0212 -0.1590  0.4244
 2859TIP3    H130068   0.856   0.079   6.229  0.5184 -0.9216  0.3016
 2859TIP3    H230069   0.907   0.195   6.147  0.4407 -0.3629  1.0344
 2860TIP3   OH230070   6.392   6.708   0.997 -0.3566 -0.0430 -0.2154
 2860TIP3    H130071   6.477   6.703   1.040 -1.1177  0.7585  1.4789
 2860TIP3    H230072   6.340   6.639   1.038 -0.2485 -1.2828 -2.0207
 2861TIP3   OH230073   2.351   3.351  11.221  0.5516 -0.6238 -0.0112
 2861TIP3    H130074   2.413   3.340  11.150  0.1240  1.1865 -0.7100
 2861TIP3    H230075   2.403   3.388  11.293  0.4523  0.1874 -0.3455
 2862TIP3   OH230076   1.191   5.491  14.714  0.0063  0.0060  0.1306
 2862TIP3    H130077   1.181   5.533  14.628  0.2964 -0.1579  0.0174
 2862TIP3    H230078   1.235   5.408  14.696  0.8218  0.3409  0.5321
 2863TIP3   OH230079   5.868   1.882   3.632  0.0229  0.1976  0.1312
 2863TIP3    H130080   5.942   1.822   3.636 -0.4473 -0.3924  0.1549
 2863TIP3    H230081   5.869   1.928   3.716 -0.0396 -0.2999  0.4067
 2864TIP3   OH230082   0.531   0.099  10.715 -0.7285  0.2214 -1.0228
 2864TIP3    H130083   0.551   0.045  10.638 -0.4992 -0.4010 -0.5302
 2864TIP3    H230084   0.615   0.108  10.760 -1.1498 -0.7131 -0.0221
 2865TIP3   OH230085   2.608   1.170  14.212 -0.0341  0.3033 -0.1346
 2865TIP3    H130086   2.573   1.129  14.133 -0.5571 -0.4545  0.4717
 2865TIP3    H230087   2.639   1.256  14.183  0.6864 -0.3401 -1.3528
 2866TIP3   OH230088   5.305   2.968   3.240 -0.4121 -0.2412 -0.6350
 2866TIP3    H130089   5.315   2.875   3.219 -0.6578 -0.8699  1.7630
 2866TIP3    H230090   5.231   2.971   3.301 -0.4059  1.5556 -0.6534
 2867TIP3   OH230091   1.554   1.870  11.553  0.1224 -0.2756  0.1270
 2867TIP3    H130092   1.532   1.936  11.618  0.6997 -0.7187  0.7782
 2867TIP3    H230093   1.648   1.854  11.565  0.1311 -0.7253 -0.4719
 2868TIP3   OH230094   6.604   1.359  17.115 -0.2482  0.0747  0.1940
 2868TIP3    H130095   6.586   1.266  17.127  0.2686 -0.0502  0.0060
 2868TIP3    H230096   6.672   1.379  17.180  0.7247 -0.0220 -0.7690
 2869TIP3   OH230097   1.122   5.054   2.605  0.4889 -0.4050  0.1938
 2869TIP3    H130098   1.040   5.023   2.643  0.1352  0.7234  0.3720
 2869TIP3    H230099   1.188   5.033   2.670 -0.1451  1.7750  1.6383
 2870TIP3   OH230100   1.641   0.574   5.048 -0.3259  0.0061  0.1424
 2870TIP3    H130101   1.611   0.491   5.084 -2.1958 -0.2556 -1.8121
 2870TIP3    H230102   1.654   0.630   5.124 -2.6950 -0.9279  1.3285
 2871TIP3   OH230103   2.982   2.989  13.803  0.0216 -0.3900  0.3150
 2871TIP3    H130104   2.954   3.027  13.720  1.9721  2.1374  0.6888
 2871TIP3    H230105   2.904   2.989  13.858 -1.0781 -1.2615 -1.1933
 2872TIP3   OH230106   6.674   1.407  11.257  0.4488  0.2172  0.1352
 2872TIP3    H130107   6.748   1.444  11.208  0.0444 -0.5574 -1.1332
 2872TIP3    H230108   6.600   1.461  11.231  0.2893 -0.0091  0.1130
 2873TIP3   OH230109   2.506   6.004   0.721  0.5512 -0.1986  0.4728
 2873TIP3    H130110   2.482   6.069   0.788 -1.8498  0.1024 -0.5477
 2873TIP3    H230111   2.567   6.050   0.663  0.2441  0.5819  0.7503
 2874TIP3   OH230112   2.795   3.892  11.576 -0.5299  0.0857  0.1396
 2874TIP3    H130113   2.781   3.908  11.669 -0.6495  0.9518 -0.0199
 2874TIP3    H230114   2.852   3.964  11.548  2.5694 -2.0972  0.3067
 2875TIP3   OH230115   5.343   4.201  11.874  0.0245 -0.4850 -0.1951
 2875TIP3    H130116   5.311   4.132  11.817 -3.2322  2.0029 -1.7181
 2875TIP3    H230117   5.297   4.187  11.957 -1.4759  0.4081 -0.8538
 2876TIP3   OH230118   5.000   4.105  10.753 -0.1419  0.6963  0.4052
 2876TIP3    H130119   4.973   4.031  10.700 -1.5687  1.9777 -0.7701
 2876TIP3    H230120   5.095   4.109  10.744  0.0011 -1.1920  0.8212
 2877TIP3   OH230121   5.845   6.570   1.879 -0.1477 -0.0367 -0.3548
 2877TIP3    H130122   5.792   6.502   1.838 -0.6241 -0.9133  1.5831
 2877TIP3    H230123   5.899   6.523   1.943  2.0319  1.0066 -1.3393
 2878TIP3   OH230124   2.165   2.712  14.396 -0.3585 -0.3485 -0.1607
 2878TIP3    H130125   2.241   2.659  14.372  2.0182  2.2630  0.9355
 2878TIP3    H230126   2.138   2.678  14.481  1.4233  0.3879  0.7463
 2879TIP3   OH230127   5.506   0.625   1.639  0.0072 -0.2275 -0.0052
 2879TIP3    H130128   5.586   0.627   1.691  1.6014  0.3508 -2.3359
 2879TIP3    H230129   5.468   0.539   1.657  1.4077 -0.7055  0.7842
 2880TIP3   OH230130   0.880   5.764  14.649  0.0752  0.3338  0.0777
 2880TIP3    H130131   0.851   5.749  14.739  2.7421 -2.7582  0.6104
 2880TIP3    H230132   0.958   5.818  14.657  0.3636 -0.0130 -0.3581
 2881TIP3   OH230133   5.338   2.426   6.526 -0.1087  0.1144  0.2298
 2881TIP3    H130134   5.371   2.391   6.608 -0.5544  0.4052  0.5395
 2881TIP3    H230135   5.298   2.510   6.550  2.1790  1.5551 -0.7083
 2882TIP3   OH230136   2.824   1.754   2.440  0.1454 -0.2030  0.4054
 2882TIP3    H130137   2.901   1.729   2.492  0.2323 -0.9068 -0.0612
 2882TIP3    H230138   2.859   1.813   2.373  0.0587  0.5729  1.0227
 2883TIP3   OH230139   0.172   2.945   4.272  0.3554 -0.2248  0.1203
 2883TIP3    H130140   0.129   2.862   4.292 -3.1718  1.7804  1.8074
 2883TIP3    H230141   0.261   2.921   4.249  0.1293 -4.2839  2.5402
 2884TIP3   OH230142   0.278   6.292  11.226 -0.2395  0.3821  0.0826
 2884TIP3    H130143   0.318   6.222  11.277  0.9188 -0.2250 -1.5635
 2884TIP3    H230144   0.310   6.373  11.265  0.6366 -0.0655  0.2987
 2885TIP3   OH230145   2.648   4.730  11.808  0.4784 -0.1119  0.1136
 2885TIP3    H130146   2.684   4.686  11.731 -3.3038 -1.3639 -1.1946
 2885TIP3    H230147   2.675   4.675  11.881 -1.8391 -3.3420 -1.2025
 2886TIP3   OH230148   1.048   5.312   6.060 -0.4072 -0.2594 -0.1735
 2886TIP3    H130149   1.047   5.406   6.077  0.7382  0.1632 -2.0842
 2886TIP3    H230150   1.071   5.272   6.144  1.4844  1.3629  0.1391
 2887TIP3   OH230151   6.208   4.427  13.589  0.5728 -0.3303 -0.1576
 2887TIP3    H130152   6.188   4.368  13.662 -2.6879  2.3411  1.3908
 2887TIP3    H230153   6.213   4.514  13.629 -2.3134  1.3989 -3.0603
 2888TIP3   OH230154   5.776   4.442  12.224  0.0615 -0.2559  0.5131
 2888TIP3    H130155   5.729   4.359  12.216  2.3379 -1.8029  1.8425
 2888TIP3    H230156   5.729   4.490  12.292 -1.0029 -0.6673  0.0816
 2889TIP3   OH230157   6.155   1.449  11.459  0.0246 -0.0357  0.0610
 2889TIP3    H130158   6.079   1.390  11.462  0.5439 -0.7893 -0.9174
 2889TIP3    H230159   6.223   1.402  11.508  0.3687 -0.1484 -0.5175
 2890TIP3   OH230160   6.078   2.804  15.167 -0.4557 -0.1473  0.6462
 2890TIP3    H130161   6.096   2.714  15.193 -0.2367 -0.0204  0.9335
 2890TIP3    H230162   5.996   2.799  15.117  0.4680 -0.7543 -0.8530
 2891TIP3   OH230163   4.011   4.752  12.599  0.2718  0.1716 -0.1773
 2891TIP3    H130164   4.070   4.794  12.536  1.7367 -2.4102 -0.7212
 2891TIP3    H230165   4.058   4.756  12.682 -0.0295  0.4857 -0.0227
 2892TIP3   OH230166   1.956   0.155   2.512  0.7949 -0.3260  0.4802
 2892TIP3    H130167   1.929   0.246   2.525  2.8245  0.1499  1.8133
 2892TIP3    H230168   1.886   0.103   2.552  0.0883  0.6857  0.5844
 2893TIP3   OH230169   3.467   4.361  12.668  0.3945  0.1084  0.9114
 2893TIP3    H130170   3.533   4.329  12.729  0.2040  0.6337  1.4034
 2893TIP3    H230171   3.506   4.439  12.629  0.1907  0.2469  0.9803
 2894TIP3   OH230172   5.114   0.325  15.963 -0.2271 -0.1175  0.5768
 2894TIP3    H130173   5.160   0.260  15.911  2.2881  0.4631  1.8985
 2894TIP3    H230174   5.144   0.309  16.053  1.5338  3.5094  0.8301
 2895TIP3   OH230175   1.625   1.748  14.513  0.2209  0.4385 -0.2491
 2895TIP3    H130176   1.558   1.808  14.480 -0.4799  0.8495  1.7939
 2895TIP3    H230177   1.578   1.686  14.569  1.3239 -0.3423 -0.1294
 2896TIP3   OH230178   1.607   4.000   3.889  0.5417 -0.6103  0.0405
 2896TIP3    H130179   1.556   3.948   3.951  0.9574  0.0117  0.9265
 2896TIP3    H230180   1.542   4.058   3.848  0.8364  2.6447  3.6352
 2897TIP3   OH230181   1.915   2.147  13.318  0.0584 -0.5322  0.4946
 2897TIP3    H130182   1.949   2.083  13.381  0.0551  0.1303  1.1764
 2897TIP3    H230183   1.884   2.220  13.371 -1.7010 -0.7583 -0.1597
 2898TIP3   OH230184   0.338   1.917  12.618 -0.1405 -0.3455  0.1206
 2898TIP3    H130185   0.417   1.965  12.643  0.8627 -1.8275 -0.0694
 2898TIP3    H230186   0.317   1.863  12.695 -0.1455 -0.9840 -0.3184
 2899TIP3   OH230187   6.216   5.425   1.205  0.0781 -0.6854 -0.6557
 2899TIP3    H130188   6.301   5.446   1.167  2.1076 -1.6926  2.8647
 2899TIP3    H230189   6.234   5.351   1.263 -3.2126 -0.8927  0.2834
 2900TIP3   OH230190   5.891   0.193   5.052 -0.0585 -0.4872  0.4993
 2900TIP3    H130191   5.856   0.253   5.118  0.3347  0.3575 -0.0322
 2900TIP3    H230192   5.853   0.108   5.074 -1.4465  0.1442  0.6798
 2901TIP3   OH230193   6.293   4.655   2.026 -0.0699 -0.0845  0.0252
 2901TIP3    H130194   6.290   4.741   2.069 -2.0238  0.0709 -0.3037
 2901TIP3    H230195   6.202   4.626   2.026  0.5932 -2.3205  0.3892
 2902TIP3   OH230196   0.640   0.766   4.216 -0.0669 -0.6472  0.3733
 2902TIP3    H130197   0.577   0.838   4.209  3.5549  2.7613 -0.5511
 2902TIP3    H230198   0.618   0.708   4.143  0.4032  2.7786 -2.7891
 2903TIP3   OH230199   0.112   0.796  12.573  0.4567 -0.7373  0.8794
 2903TIP3    H130200   0.160   0.803  12.656 -0.6960  1.2451  1.4388
 2903TIP3    H230201   0.063   0.878  12.566 -2.4790 -2.4093  0.0898
 2904TIP3   OH230202   6.205   4.881   4.969  0.5977  0.1236  0.2557
 2904TIP3    H130203   6.122   4.926   4.982  0.1184 -1.3011  2.9039
 2904TIP3    H230204   6.202   4.850   4.878 -0.5538  2.3464 -0.5209
 2905TIP3   OH230205   2.225   6.747  13.450 -0.4930 -0.6185  0.1667
 2905TIP3    H130206   2.215   6.799  13.370 -0.7322  0.6084  0.9667
 2905TIP3    H230207   2.179   6.665  13.432 -0.0330 -0.6005 -1.1606
 2906TIP3   OH230208   0.397   5.769   2.198 -0.3579  0.1124  0.3290
 2906TIP3    H130209   0.310   5.767   2.237  0.4431  0.7226  2.2599
 2906TIP3    H230210   0.453   5.725   2.262  0.6719 -0.8333 -1.1628
 2907TIP3   OH230211   1.813   4.364   6.276  0.5444 -0.7849  0.9251
 2907TIP3    H130212   1.767   4.297   6.226 -2.2393  0.4126  1.6787
 2907TIP3    H230213   1.841   4.320   6.356  0.2840 -1.4299  0.6645
 2908TIP3   OH230214   5.420   0.829  15.512  0.4213 -0.0544 -0.0968
 2908TIP3    H130215   5.351   0.816  15.447  0.6752 -0.0525 -0.3721
 2908TIP3    H230216   5.375   0.825  15.596  0.3607 -1.9574 -0.1812
 2909TIP3   OH230217   2.474   2.358  16.455  0.0900 -0.0599 -0.4134
 2909TIP3    H130218   2.479   2.320  16.542  1.0587  1.6864  0.3360
 2909TIP3    H230219   2.419   2.435  16.465  1.1728  0.8231 -1.0680
 2910TIP3   OH230220   3.795   2.392  13.951  0.3262 -0.0902  0.0323
 2910TIP3    H130221   3.727   2.331  13.924  1.3193 -1.1723 -0.0899
 2910TIP3    H230222   3.785   2.467  13.892 -1.4064  0.2449  0.6989
 2911TIP3   OH230223   4.296   6.321   5.081 -0.2867  0.5367  0.1152
 2911TIP3    H130224   4.316   6.297   5.172  1.3928 -0.8063 -0.5466
 2911TIP3    H230225   4.214   6.275   5.062 -0.4121  0.4555  0.8109
 2912TIP3   OH230226   4.033   5.992  14.790  0.0597 -0.1973  0.0056
 2912TIP3    H130227   3.948   5.968  14.753 -0.3691 -1.2933  1.6382
 2912TIP3    H230228   4.012   6.045  14.867  0.7411 -2.0586  1.5499
 2913TIP3   OH230229   1.452   0.956  13.763 -0.5261  0.8385  0.8592
 2913TIP3    H130230   1.419   1.032  13.716  0.4748 -0.4078 -2.0784
 2913TIP3    H230231   1.528   0.989  13.811 -0.1111  1.7303 -0.3561
 2914TIP3   OH230232   6.715   6.442   2.434 -0.0648  0.5289  0.4612
 2914TIP3    H130233   6.643   6.468   2.491  0.3490 -0.2320  1.3423
 2914TIP3    H230234   6.672   6.413   2.353 -0.8021 -0.5078  1.1997
 2915TIP3   OH230235   2.365   5.035   5.579 -0.1668 -0.1376  0.2171
 2915TIP3    H130236   2.424   5.032   5.654  1.5844  0.7582 -1.0464
 2915TIP3    H230237   2.277   5.029   5.617  0.6734 -0.1946  2.2718
 2916TIP3   OH230238   5.058   3.425   0.524  0.0513 -0.3510 -0.2109
 2916TIP3    H130239   5.101   3.476   0.593 -0.7302 -0.4798  0.3873
 2916TIP3    H230240   5.081   3.334   0.543 -0.2865 -0.3990 -0.0332
 2917TIP3   OH230241   4.545   5.586  12.135  0.3858 -0.0188  0.4144
 2917TIP3    H130242   4.569   5.504  12.177 -0.8433 -1.0175 -0.7398
 2917TIP3    H230243   4.625   5.615  12.090  0.7080 -0.8313  0.4501
 2918TIP3   OH230244   0.307   3.958   6.108 -0.6409 -0.7199 -0.1998
 2918TIP3    H130245   0.225   3.913   6.129 -1.2700  0.9820  1.1627
 2918TIP3    H230246   0.303   4.040   6.157  2.2672 -0.9613  0.5985
 2919TIP3   OH230247   2.545   0.711   2.909  0.0428 -0.3207  0.1479
 2919TIP3    H130248   2.465   0.683   2.954 -0.6930  0.9608 -0.3257
 2919TIP3    H230249   2.592   0.629   2.891 -0.8329 -1.0421  1.0183
 2920TIP3   OH230250   6.110   6.759   3.167 -0.2585 -0.1849  0.1212
 2920TIP3    H130251   6.083   6.674   3.132  0.4516 -0.9920  1.4499
 2920TIP3    H230252   6.175   6.738   3.233 -0.1242  1.4058  0.5315
 2921TIP3   OH230253   1.459   6.738   4.609  0.2980 -0.1417  0.2478
 2921TIP3    H130254   1.444   6.669   4.544  0.8156  0.1367 -0.1794
 2921TIP3    H230255   1.528   6.792   4.570 -0.6283  1.0676  0.2245
 2922TIP3   OH230256   1.004   4.600   5.648 -0.2373 -0.3986 -0.5162
 2922TIP3    H130257   0.987   4.599   5.554  2.1189 -1.4825 -1.0046
 2922TIP3    H230258   1.011   4.507   5.672  2.2402 -0.1437  0.0266
 2923TIP3   OH230259   2.513   3.893   4.242 -0.1694  0.2884  0.4457
 2923TIP3    H130260   2.463   3.842   4.307 -1.6256  2.7739  1.4428
 2923TIP3    H230261   2.597   3.909   4.284  0.4620 -1.5014 -0.0371
 2924TIP3   OH230262   2.449   4.346  15.562 -0.8300 -0.1025 -0.3546
 2924TIP3    H130263   2.390   4.368  15.634  0.7781 -0.0788  1.0078
 2924TIP3    H230264   2.398   4.288  15.506 -2.0983 -0.1981  0.8575
 2925TIP3   OH230265   6.540   4.742  13.829 -0.1074 -0.0589  0.2917
 2925TIP3    H130266   6.531   4.746  13.733 -0.9586  0.9948  0.3999
 2925TIP3    H230267   6.482   4.671  13.856  0.1259 -0.3514  0.0380
 2926TIP3   OH230268   4.247   2.919  15.983 -0.7760  0.2060 -0.1910
 2926TIP3    H130269   4.173   2.935  16.041  0.8964  0.1038  2.1094
 2926TIP3    H230270   4.225   2.837  15.938 -1.1927 -0.9651  2.0104
 2927TIP3   OH230271   4.311   0.143  14.776 -0.2919 -0.0218  0.4860
 2927TIP3    H130272   4.258   0.183  14.845 -1.6935  0.8599 -1.0094
 2927TIP3    H230273   4.281   0.052  14.772  0.7524 -0.4557  1.8881
 2928TIP3   OH230274   0.082   6.739  11.695 -0.4751 -0.8504  0.6285
 2928TIP3    H130275   0.113   6.688  11.769  0.2605 -0.3868  0.6562
 2928TIP3    H230276   0.115   6.828  11.712 -0.1464 -0.7747 -0.3243
 2929TIP3   OH230277   2.967   4.719   2.161  0.4154  0.7527  0.0578
 2929TIP3    H130278   2.924   4.804   2.149 -0.3113  0.2785 -0.8766
 2929TIP3    H230279   3.046   4.739   2.212  0.3408  2.0109 -0.2780
 2930TIP3   OH230280   0.721   5.520  13.791  0.0958  0.5355  0.2212
 2930TIP3    H130281   0.763   5.493  13.709  0.5458 -2.2707  1.2577
 2930TIP3    H230282   0.717   5.439  13.843 -0.6671  2.1014  2.7529
 2931TIP3   OH230283   0.265   2.745  15.427 -0.0629 -0.2235 -0.4395
 2931TIP3    H130284   0.211   2.675  15.461 -1.3718  0.7880 -0.3459
 2931TIP3    H230285   0.212   2.824  15.437  1.6566  0.9145  0.1740
 2932TIP3   OH230286   2.037   2.227  11.034  0.5114 -0.2395  1.0846
 2932TIP3    H130287   2.042   2.140  11.074  0.1956  0.4629  2.7254
 2932TIP3    H230288   2.044   2.210  10.940 -0.0357 -2.0789  1.3310
 2933TIP3   OH230289   6.651   0.288   2.759 -0.2978 -0.3491  0.2583
 2933TIP3    H130290   6.735   0.333   2.755 -0.3525  0.0181  2.1998
 2933TIP3    H230291   6.586   0.355   2.736 -0.1665 -0.3072  0.0022
 2934TIP3   OH230292   5.818   4.231  15.947 -0.3246 -0.1009 -0.5886
 2934TIP3    H130293   5.758   4.255  15.876 -1.2178 -1.5863 -0.3688
 2934TIP3    H230294   5.779   4.154  15.987  0.6421  0.1572  0.9498
 2935TIP3   OH230295   6.131   1.032  11.793 -0.3957 -0.2961  0.0024
 2935TIP3    H130296   6.174   1.104  11.840 -1.0873 -0.2232  0.5435
 2935TIP3    H230297   6.197   1.002  11.730 -0.1072  0.8213 -0.2506
 2936TIP3   OH230298   0.326   5.538  13.849  0.4674 -0.5707 -0.4188
 2936TIP3    H130299   0.390   5.607  13.866  0.9168 -0.5728 -1.8906
 2936TIP3    H230300   0.258   5.582  13.797  0.0738 -0.9324 -0.2143
 2937TIP3   OH230301   5.662   4.733  15.249  0.4465 -0.2009 -0.0540
 2937TIP3    H130302   5.606   4.807  15.271 -1.9755 -2.5799  2.4977
 2937TIP3    H230303   5.639   4.713  15.158 -1.4268  0.1322  0.2951
 2938TIP3   OH230304   4.000   3.741  11.452  0.5240  0.4879  0.4105
 2938TIP3    H130305   3.910   3.718  11.428  1.0165 -2.4493  0.9598
 2938TIP3    H230306   4.053   3.709  11.379  1.3595 -1.3331  1.7258
 2939TIP3   OH230307   3.795   1.964  17.216  0.2863 -0.8077 -0.5511
 2939TIP3    H130308   3.812   2.037  17.275 -0.9707 -0.0635 -1.0686
 2939TIP3    H230309   3.824   1.887  17.265 -0.3568 -0.1711  0.9015
 2940TIP3   OH230310   4.604   0.985  15.927 -0.2747 -0.4624 -0.1558
 2940TIP3    H130311   4.552   1.051  15.881  0.9253 -0.4192 -1.5048
 2940TIP3    H230312   4.570   0.986  16.017 -4.4940 -2.3841 -1.4946
 2941TIP3   OH230313   5.185   2.514  12.420 -0.3696  0.0480  0.4740
 2941TIP3    H130314   5.133   2.529  12.499 -0.8803 -0.3388  0.2125
 2941TIP3    H230315   5.156   2.429  12.387 -1.0743  0.7608 -0.8394
 2942TIP3   OH230316   4.196   6.199   0.739  0.0614 -0.0263  0.0956
 2942TIP3    H130317   4.160   6.286   0.726  0.4339  0.5692  2.4537
 2942TIP3    H230318   4.137   6.158   0.803  0.7334 -0.9314  0.1554
 2943TIP3   OH230319   1.311   4.648  10.797 -0.0449 -0.1048  0.2459
 2943TIP3    H130320   1.233   4.699  10.821  1.6263  1.7371  2.2233
 2943TIP3    H230321   1.357   4.636  10.880  1.5217 -1.6473 -0.7853
 2944TIP3   OH230322   3.485   4.500  12.007 -1.1040 -0.1634 -0.7608
 2944TIP3    H130323   3.482   4.571  11.943  2.2916  0.2359 -0.6598
 2944TIP3    H230324   3.442   4.536  12.085  1.5823  2.4208 -0.2875
 2945TIP3   OH230325   4.242   4.708   4.843  0.2157 -0.5425  0.7449
 2945TIP3    H130326   4.248   4.762   4.922  0.5169  0.3502  0.1320
 2945TIP3    H230327   4.148   4.701   4.826  0.1838  1.4046 -0.2042
 2946TIP3   OH230328   2.738   3.916   2.676  0.2060 -0.3479 -0.5054
 2946TIP3    H130329   2.754   3.942   2.767 -1.7174 -1.5358  0.2220
 2946TIP3    H230330   2.809   3.854   2.657  1.5888  1.1309 -0.4295
 2947TIP3   OH230331   1.798   1.979   6.475  0.0830  0.6420 -0.7831
 2947TIP3    H130332   1.741   1.948   6.405 -0.0933  1.7275 -1.1477
 2947TIP3    H230333   1.834   2.062   6.442  0.4799  0.8670  0.1615
 2948TIP3   OH230334   1.718   2.319   1.808  0.7070 -0.5890  0.4758
 2948TIP3    H130335   1.786   2.282   1.864  1.1749 -0.4618 -0.0058
 2948TIP3    H230336   1.762   2.385   1.755  0.0156  0.1986  0.8435
 2949TIP3   OH230337   0.256   1.069  13.907 -0.0790  0.3665  0.6986
 2949TIP3    H130338   0.315   1.131  13.950  0.6018  0.5746 -0.4677
 2949TIP3    H230339   0.184   1.057  13.968  1.1750  0.0908  2.1932
 2950TIP3   OH230340   2.430   2.181  12.992  0.3718  0.0039  0.3298
 2950TIP3    H130341   2.519   2.216  12.985  0.3260 -0.1055 -1.1406
 2950TIP3    H230342   2.441   2.098  13.038  1.0742 -0.1562 -0.1137
 2951TIP3   OH230343   0.133   6.185  13.065 -0.5515  0.0207 -0.2667
 2951TIP3    H130344   0.046   6.147  13.059 -0.8909  0.7996 -0.3324
 2951TIP3    H230345   0.142   6.239  12.987  0.3723 -0.8076 -0.7675
 2952TIP3   OH230346   1.228   6.195  11.231  0.0122 -0.4984 -0.6343
 2952TIP3    H130347   1.274   6.229  11.307 -0.0362 -0.9758 -0.3901
 2952TIP3    H230348   1.252   6.103  11.227 -0.8396 -0.7393 -0.5540
 2953TIP3   OH230349   6.347   6.289  12.555  0.0226 -0.1590  0.3193
 2953TIP3    H130350   6.360   6.296  12.650 -0.7930 -1.4205  0.5587
 2953TIP3    H230351   6.267   6.236  12.546  0.4393 -0.5905 -1.0671
 2954TIP3   OH230352   3.700   1.627  13.649 -0.4418  0.2549  0.5195
 2954TIP3    H130353   3.658   1.675  13.577  1.6716  0.2069 -0.8396
 2954TIP3    H230354   3.628   1.583  13.694 -1.9089  0.8017 -1.1798
 2955TIP3   OH230355   5.759   4.383   3.964 -0.5697 -0.1381 -0.1944
 2955TIP3    H130356   5.706   4.368   4.043  2.7695 -0.0585  2.3168
 2955TIP3    H230357   5.815   4.306   3.958  2.3200  1.7628  0.3222
 2956TIP3   OH230358   4.737   4.960   1.686 -0.3306  0.3577 -0.0437
 2956TIP3    H130359   4.777   4.911   1.613 -1.7366 -1.8888  0.5959
 2956TIP3    H230360   4.743   4.900   1.761  0.9791  2.5644  1.7393
 2957TIP3   OH230361   2.757   0.918  14.455  0.1308 -0.7622 -0.0615
 2957TIP3    H130362   2.796   0.981  14.395 -0.4413 -0.5597 -0.2307
 2957TIP3    H230363   2.683   0.965  14.494  0.4430 -0.9178  0.7406
 2958TIP3   OH230364   4.473   3.226  12.891  0.1641 -0.3241 -0.2587
 2958TIP3    H130365   4.378   3.232  12.903  0.2154  0.1826 -0.0788
 2958TIP3    H230366   4.494   3.135  12.912 -0.2899 -0.4568 -0.3623
 2959TIP3   OH230367   6.282   3.995   1.084 -0.1021  0.0523 -0.3513
 2959TIP3    H130368   6.359   3.948   1.052  0.8431  0.3545  1.3466
 2959TIP3    H230369   6.293   3.997   1.179 -1.3039  1.6758 -0.2035
 2960TIP3   OH230370   1.784   5.235  14.282 -0.2769 -0.6056 -0.3323
 2960TIP3    H130371   1.713   5.212  14.223 -0.6152  1.2754 -0.7299
 2960TIP3    H230372   1.833   5.302  14.235  0.2938 -0.0904  0.9474
 2961TIP3   OH230373   4.191   2.072  13.475  0.5165 -0.1289  0.0168
 2961TIP3    H130374   4.274   2.042  13.512 -0.2201  0.2907  2.1372
 2961TIP3    H230375   4.216   2.130  13.403  2.1065  0.6363  1.1205
 2962TIP3   OH230376   3.775   5.564   4.092 -0.6113 -0.0208  1.0235
 2962TIP3    H130377   3.815   5.509   4.159 -1.9530 -2.6844 -0.2316
 2962TIP3    H230378   3.838   5.636   4.079  1.1666 -1.1699  2.8177
 2963TIP3   OH230379   6.196   1.464  13.070 -0.0260  0.2281 -0.1254
 2963TIP3    H130380   6.216   1.499  12.983  0.5143  0.4800  0.0972
 2963TIP3    H230381   6.271   1.490  13.124  0.3466 -1.1783  0.0717
 2964TIP3   OH230382   0.563   0.305   3.351  0.0290 -0.6337  0.4655
 2964TIP3    H130383   0.649   0.337   3.378 -0.0567  0.9544 -1.0130
 2964TIP3    H230384   0.558   0.324   3.258 -2.1297 -0.2212  0.6105
 2965TIP3   OH230385   5.781   6.612   4.772 -0.7390 -0.5396  0.4051
 2965TIP3    H130386   5.789   6.565   4.689 -1.6182  1.2636 -0.7713
 2965TIP3    H230387   5.687   6.619   4.787 -0.7851  2.7006 -0.6666
 2966TIP3   OH230388   1.453   2.948  12.336 -0.2296  0.4943  0.8451
 2966TIP3    H130389   1.480   3.026  12.286 -2.7628  1.1035  0.2944
 2966TIP3    H230390   1.363   2.932  12.308  0.6632 -3.6981 -0.3277
 2967TIP3   OH230391   2.885   4.674   5.074 -0.2285 -0.0712 -0.2996
 2967TIP3    H130392   2.807   4.631   5.108  1.9327 -2.6867  1.8659
 2967TIP3    H230393   2.901   4.747   5.134 -0.0452 -0.6726  0.4010
 2968TIP3   OH230394   6.461   3.426  14.480 -0.0464 -1.2808  0.0616
 2968TIP3    H130395   6.470   3.470  14.564  2.5149 -0.2340 -0.6615
 2968TIP3    H230396   6.374   3.451  14.448 -0.5385 -0.6701  1.8108
 2969TIP3   OH230397   3.426   3.808   2.059  0.1688 -0.0644  0.4087
 2969TIP3    H130398   3.502   3.799   2.001  0.3195 -2.6752  0.9236
 2969TIP3    H230399   3.365   3.742   2.028 -0.9474  0.4498  1.4565
 2970TIP3   OH230400   2.285   4.811  14.929 -0.0038 -0.4669  0.2351
 2970TIP3    H130401   2.312   4.731  14.884 -0.2411 -0.2468 -0.2917
 2970TIP3    H230402   2.233   4.859  14.865  2.2643  1.3514 -0.3822
 2971TIP3   OH230403   3.505   0.809  12.207  0.6668  0.1686  0.0949
 2971TIP3    H130404   3.533   0.876  12.145  2.7318 -0.3550  0.3995
 2971TIP3    H230405   3.475   0.737  12.151 -0.0104  0.6878 -0.2393
 2972TIP3   OH230406   0.951   6.296  15.583 -0.1865  0.2326 -0.6396
 2972TIP3    H130407   0.973   6.300  15.676 -0.0648 -0.3830 -0.6396
 2972TIP3    H230408   0.895   6.372  15.569  0.3477  0.7133 -0.2138
 2973TIP3   OH230409   1.314   5.655   5.880 -0.3890 -0.5375 -0.0104
 2973TIP3    H130410   1.314   5.692   5.792  2.7188  0.7733  0.4198
 2973TIP3    H230411   1.245   5.702   5.927 -0.8375  0.0354 -1.2148
 2974TIP3   OH230412   0.201   1.831  11.066  0.3846  0.1363 -0.4227
 2974TIP3    H130413   0.249   1.914  11.070 -0.0267  0.3223  1.1356
 2974TIP3    H230414   0.158   1.833  10.980 -0.8237  2.2441  0.1648
 2975TIP3   OH230415   3.726   2.765   3.621  0.0757  0.2559 -0.1771
 2975TIP3    H130416   3.725   2.673   3.594 -1.3998  0.1067  0.2834
 2975TIP3    H230417   3.817   2.782   3.645 -0.0083 -1.7316  1.8316
 2976TIP3   OH230418   1.749   2.721   1.886 -0.0717  0.4832  0.5937
 2976TIP3    H130419   1.695   2.647   1.912 -0.2367 -0.2874 -1.6799
 2976TIP3    H230420   1.757   2.775   1.965 -0.3264 -1.6988  2.1863
 2977TIP3   OH230421   3.412   1.051  12.357 -0.1611  0.3184  0.1567
 2977TIP3    H130422   3.429   0.961  12.329 -1.1575 -0.0088  0.5887
 2977TIP3    H230423   3.388   1.044  12.449  1.8640  1.2692  0.8293
 2978TIP3   OH230424   0.711   3.513  12.192  0.6672 -0.3786  0.1948
 2978TIP3    H130425   0.682   3.506  12.283 -1.0688 -1.6788 -0.3993
 2978TIP3    H230426   0.674   3.596  12.161  0.1865 -0.5466  0.3209
 2979TIP3   OH230427   6.336   6.206   4.468  0.3402  0.4055  0.7463
 2979TIP3    H130428   6.427   6.202   4.439 -0.0711  0.8076 -0.6789
 2979TIP3    H230429   6.313   6.115   4.485  1.4325  0.4269  2.5967
 2980TIP3   OH230430   0.570   4.473   0.537  0.1563  0.2906  0.0080
 2980TIP3    H130431   0.525   4.412   0.480 -0.5777  1.1670 -0.3825
 2980TIP3    H230432   0.508   4.545   0.549  1.0616  1.0499  0.2871
 2981TIP3   OH230433   6.089   1.886  16.402  0.0263 -0.0374  0.0929
 2981TIP3    H130434   6.031   1.930  16.340  0.3030 -0.4247 -0.4483
 2981TIP3    H230435   6.158   1.949  16.420 -0.0949  0.1031  0.0708
 2982TIP3   OH230436   1.284   3.312   4.075 -0.2027 -0.3948 -0.8841
 2982TIP3    H130437   1.345   3.253   4.119 -0.9489 -1.1226 -0.8019
 2982TIP3    H230438   1.336   3.356   4.009  1.2560  1.5955  1.4350
 2983TIP3   OH230439   3.915   0.029   3.894 -0.0934  0.4696  0.0095
 2983TIP3    H130440   3.857   0.105   3.898 -1.6173 -0.5921 -0.8476
 2983TIP3    H230441   3.932   0.016   3.801  3.1678  1.8831  0.3065
 2984TIP3   OH230442   1.189   5.980   5.846 -0.0386  0.1076 -0.2309
 2984TIP3    H130443   1.113   5.951   5.796  1.0600  0.2467 -2.0423
 2984TIP3    H230444   1.221   5.900   5.889 -1.2685  0.0772  0.6870
 2985TIP3   OH230445   6.173   6.080  12.647  0.2360  0.2838  0.0118
 2985TIP3    H130446   6.135   6.075  12.735  0.2132  0.2941  0.0024
 2985TIP3    H230447   6.191   5.989  12.624 -1.8605  0.0548 -0.8958
 2986TIP3   OH230448   2.604   5.593  15.119  0.3314 -0.0897 -0.1344
 2986TIP3    H130449   2.561   5.674  15.147 -2.3373 -1.4468  0.0096
 2986TIP3    H230450   2.575   5.581  15.029 -1.0438 -1.8673  0.4819
 2987TIP3   OH230451   5.526   0.120  16.354 -0.1130  0.3520  0.7167
 2987TIP3    H130452   5.512   0.030  16.323 -1.2782  0.4146  1.0199
 2987TIP3    H230453   5.542   0.170  16.274 -1.4328  0.2154  0.3423
 2988TIP3   OH230454   1.344   6.192  14.419  0.3730  0.3313  0.1236
 2988TIP3    H130455   1.309   6.199  14.330 -0.4834 -0.1187  0.4183
 2988TIP3    H230456   1.290   6.251  14.471  1.1276  0.8922  0.2806
 2989TIP3   OH230457   6.256   0.187   2.795 -0.2629 -0.1969 -0.4721
 2989TIP3    H130458   6.301   0.146   2.869 -0.7025 -0.9673 -0.6190
 2989TIP3    H230459   6.257   0.120   2.726 -1.2004 -0.0488 -0.6415
 2990TIP3   OH230460   4.929   4.243  13.665 -0.4950 -0.2440  0.3922
 2990TIP3    H130461   4.908   4.302  13.738 -0.4774 -0.1896  0.3534
 2990TIP3    H230462   4.884   4.161  13.687 -0.4286 -0.2509  0.5018
 2991TIP3   OH230463   6.389   4.624   3.937 -0.1420 -0.5002  0.2258
 2991TIP3    H130464   6.464   4.661   3.892 -0.7793 -0.3050 -0.7016
 2991TIP3    H230465   6.320   4.691   3.929 -1.0655 -1.5254 -0.7834
 2992TIP3   OH230466   6.023   5.658   6.570 -0.5892  1.0097 -0.0239
 2992TIP3    H130467   6.090   5.654   6.502  1.8694 -1.6447  2.2628
 2992TIP3    H230468   5.944   5.627   6.527  0.7867 -0.2613 -1.8070
 2993TIP3   OH230469   2.991   4.569   4.372  0.1701 -0.4479 -0.3223
 2993TIP3    H130470   2.996   4.518   4.452 -1.3905  2.0444  1.5058
 2993TIP3    H230471   2.897   4.573   4.352  0.1417  2.1979  0.0261
 2994TIP3   OH230472   3.854   0.893  12.125  0.0518 -0.4738 -0.3748
 2994TIP3    H130473   3.920   0.956  12.154 -1.3387 -0.3708  2.9705
 2994TIP3    H230474   3.778   0.947  12.103 -0.5793 -0.8172  0.8603
 2995TIP3   OH230475   2.703   2.569  16.145 -0.1582  0.2275  0.0257
 2995TIP3    H130476   2.620   2.569  16.098  0.7431  0.4094 -1.6188
 2995TIP3    H230477   2.716   2.477  16.169 -1.8219  0.4762  2.2081
 2996TIP3   OH230478   5.037   0.774  12.563 -0.7634 -0.4813  0.0198
 2996TIP3    H130479   5.030   0.862  12.600 -0.0060  0.2816 -1.5677
 2996TIP3    H230480   5.071   0.720  12.635  1.4633  1.1126  0.2524
 2997TIP3   OH230481   6.658   4.870   4.980 -0.5613 -0.7490  0.1577
 2997TIP3    H130482   6.607   4.931   5.034 -2.1604 -1.9436  0.0485
 2997TIP3    H230483   6.653   4.906   4.892  3.0099  1.8499  0.7770
 2998TIP3   OH230484   6.190   0.910   0.597 -0.4506  0.5321  0.5558
 2998TIP3    H130485   6.230   0.852   0.662 -2.0057 -0.7936  0.3969
 2998TIP3    H230486   6.121   0.857   0.557  0.7679  1.0779 -2.6095
 2999TIP3   OH230487   0.009   2.978  13.153  0.4456  0.2843  0.2963
 2999TIP3    H130488  -0.046   3.000  13.078  0.4188  1.0107  0.5217
 2999TIP3    H230489  -0.022   2.891  13.180  0.0908  0.2502 -0.1986
 3000TIP3   OH230490   3.085   2.502   3.634 -0.0272  0.1350 -0.5851
 3000TIP3    H130491   3.136   2.502   3.715 -0.8277  0.6275 -0.0676
 3000TIP3    H230492   3.107   2.586   3.592 -0.9531  0.6844  0.0010
 3001TIP3   OH230493   4.023   3.552  14.933  0.5302  0.0164 -0.1280
 3001TIP3    H130494   4.103   3.603  14.925  0.5785  0.1756  1.1419
 3001TIP3    H230495   3.953   3.617  14.939  0.3727 -0.1086 -0.6036
 3002TIP3   OH230496   1.802   3.856   2.309 -0.2221  0.0826  0.4448
 3002TIP3    H130497   1.876   3.807   2.272  0.4294  2.2821 -1.3960
 3002TIP3    H230498   1.738   3.860   2.238  0.1206  2.5231  0.1708
 3003TIP3   OH230499   4.855   4.425  11.367 -0.2351 -0.1956 -0.3141
 3003TIP3    H130500   4.867   4.339  11.328 -0.4982 -0.1340 -0.5324
 3003TIP3    H230501   4.797   4.409  11.442 -0.4764 -0.1767 -0.4930
 3004TIP3   OH230502   5.579   5.849  15.730  0.3776 -0.7310 -0.4982
 3004TIP3    H130503   5.640   5.840  15.657 -0.5003  1.5428 -1.6101
 3004TIP3    H230504   5.558   5.942  15.733 -1.2492 -1.0860  1.3211
 3005TIP3   OH230505   5.472   2.243  15.612 -0.1813  0.1386  0.0903
 3005TIP3    H130506   5.439   2.322  15.655  0.1740  0.0250  0.5734
 3005TIP3    H230507   5.567   2.245  15.627 -0.3474 -1.2435  1.5703
 3006TIP3   OH230508   3.280   6.701   5.130 -0.4910 -0.2368 -0.2288
 3006TIP3    H130509   3.236   6.703   5.045 -3.2740  0.8562  1.1132
 3006TIP3    H230510   3.316   6.789   5.141  0.9025 -0.7156 -0.7084
 3007TIP3   OH230511   6.423   2.511  16.331  0.1830 -0.3516 -0.0505
 3007TIP3    H130512   6.462   2.586  16.375  0.5996 -1.3026  1.2964
 3007TIP3    H230513   6.391   2.545  16.248 -0.5719  1.5497  0.9479
 3008TIP3   OH230514   2.400   3.081  16.379 -0.4963  0.4566  0.1168
 3008TIP3    H130515   2.465   3.053  16.314 -0.3841  0.8524  0.0561
 3008TIP3    H230516   2.419   3.174  16.393 -0.8971  0.5132  0.2823
 3009TIP3   OH230517   1.810   1.158  12.981 -0.4235 -0.0115 -0.2770
 3009TIP3    H130518   1.849   1.237  12.945  0.0448  0.5967  1.4657
 3009TIP3    H230519   1.716   1.178  12.987 -0.1767  0.8647  1.1471
 3010TIP3   OH230520   6.029   1.825  13.441  0.3462 -0.6595  0.5135
 3010TIP3    H130521   5.982   1.905  13.465 -0.5533 -1.1353  0.3486
 3010TIP3    H230522   5.987   1.756  13.493 -1.7173 -1.7555 -2.3545
 3011TIP3   OH230523   5.747   1.206   4.142 -0.0503 -0.0890 -0.0914
 3011TIP3    H130524   5.666   1.166   4.174 -0.3259 -0.1569 -0.8442
 3011TIP3    H230525   5.717   1.279   4.087  0.3849 -0.2859 -0.6035
 3012TIP3   OH230526   5.687   3.592  14.288  0.1437  0.1014 -0.2785
 3012TIP3    H130527   5.673   3.590  14.193  1.1400  0.8427 -0.4600
 3012TIP3    H230528   5.624   3.529  14.323 -1.4567  1.0825 -1.2604
 3013TIP3   OH230529   0.983   1.535  17.061  0.4391  0.1689 -0.4765
 3013TIP3    H130530   0.922   1.605  17.040 -0.4429 -0.2374  0.6416
 3013TIP3    H230531   0.958   1.463  17.003  0.4621  0.3078 -0.6621
 3014TIP3   OH230532   6.257   5.775  10.897  0.0507 -0.5114  0.3616
 3014TIP3    H130533   6.242   5.861  10.936 -0.3235  0.3554 -1.5907
 3014TIP3    H230534   6.172   5.731  10.903 -0.8992  0.8236 -2.2256
 3015TIP3   OH230535   6.359   5.508   5.231  0.2060  0.0179 -0.7676
 3015TIP3    H130536   6.445   5.529   5.195  0.0486 -0.5921 -1.5213
 3015TIP3    H230537   6.304   5.583   5.207  0.4045  0.1858 -0.7020
 3016TIP3   OH230538   1.147   0.748  17.219 -0.0955 -0.4822  0.0411
 3016TIP3    H130539   1.074   0.740  17.280 -0.1891 -0.2953 -0.0469
 3016TIP3    H230540   1.173   0.658  17.201  0.0369 -0.5326  0.4833
 3017TIP3   OH230541   3.244   0.632   4.797 -0.0482  0.4613  0.3569
 3017TIP3    H130542   3.176   0.626   4.865 -0.9242 -1.4880 -0.6144
 3017TIP3    H230543   3.322   0.663   4.843 -1.1465  1.1442  1.8360
 3018TIP3   OH230544   1.372   3.266   0.787  0.2086 -0.3670  1.5893
 3018TIP3    H130545   1.425   3.334   0.828  1.7095 -0.5257  0.0638
 3018TIP3    H230546   1.332   3.309   0.711  3.1772 -1.5629 -0.9173
 3019TIP3   OH230547   5.363   4.167  16.658 -0.0713 -0.3111 -0.5071
 3019TIP3    H130548   5.270   4.187  16.644 -0.6148 -2.9412 -1.2799
 3019TIP3    H230549   5.381   4.195  16.748 -1.7155 -0.0524 -0.2294
 3020TIP3   OH230550   0.430   3.783   5.928 -0.4389 -1.2180  0.4232
 3020TIP3    H130551   0.403   3.857   5.983 -1.2239 -1.0192 -0.2101
 3020TIP3    H230552   0.348   3.745   5.898 -0.0750 -0.2852 -1.9595
 3021TIP3   OH230553   2.875   5.016  11.113 -0.2402 -0.1056 -0.1993
 3021TIP3    H130554   2.929   5.060  11.047 -0.9831 -0.4496 -1.0589
 3021TIP3    H230555   2.922   5.030  11.196  1.8295 -1.4706 -1.0518
 3022TIP3   OH230556   6.786   4.745  12.461 -0.1135  0.4721 -0.0568
 3022TIP3    H130557   6.860   4.799  12.435 -0.2286  0.2359 -0.8851
 3022TIP3    H230558   6.710   4.802  12.451 -0.1377  0.4470 -0.0196
 3023TIP3   OH230559   1.052   6.762   2.450 -0.3384 -0.5616 -0.3677
 3023TIP3    H130560   0.998   6.760   2.529  0.3175  0.7484  0.1459
 3023TIP3    H230561   1.118   6.695   2.465 -0.3310 -0.4537  0.1148
 3024TIP3   OH230562   2.386   1.066  11.736  0.5992  0.2301 -0.7871
 3024TIP3    H130563   2.445   1.007  11.689 -0.1335 -0.4288 -0.9062
 3024TIP3    H230564   2.316   1.084  11.673  1.1025  1.6933 -0.9513
 3025TIP3   OH230565   2.428   3.614   3.621 -0.1277 -0.4313  0.2952
 3025TIP3    H130566   2.340   3.595   3.654 -0.4216 -0.8808 -0.7135
 3025TIP3    H230567   2.416   3.681   3.554  0.5986  1.3167  1.8125
 3026TIP3   OH230568   5.283   4.110  11.139 -0.1735 -0.4546 -0.2589
 3026TIP3    H130569   5.324   4.133  11.056  0.5622  1.9834  0.6818
 3026TIP3    H230570   5.312   4.178  11.200  0.7361 -3.0745  2.4819
 3027TIP3   OH230571   4.427   2.453  12.863 -0.1039  0.7543 -0.5959
 3027TIP3    H130572   4.339   2.430  12.832 -0.6108 -1.1724  1.8713
 3027TIP3    H230573   4.486   2.418  12.796 -1.1754  0.8972 -1.6539
 3028TIP3   OH230574   3.154   4.204   6.440 -0.0070  0.4129  0.1387
 3028TIP3    H130575   3.174   4.116   6.471  0.2461 -0.6817 -2.7976
 3028TIP3    H230576   3.078   4.194   6.384  1.9545  1.3215 -2.9656
 3029TIP3   OH230577   3.608   4.800  12.329  0.1219  0.2688 -0.0559
 3029TIP3    H130578   3.639   4.801  12.420 -0.1810 -0.4721  0.0674
 3029TIP3    H230579   3.539   4.866  12.326 -0.6892 -0.5275  0.5677
 3030TIP3   OH230580   2.036   3.765  14.604  0.3670  0.3116 -0.1408
 3030TIP3    H130581   2.075   3.678  14.607 -0.1833  0.0692  0.2335
 3030TIP3    H230582   1.942   3.749  14.601  0.2592  0.8963 -0.0403
 3031TIP3   OH230583   1.577   3.941   0.086 -0.2983 -0.6267 -0.2602
 3031TIP3    H130584   1.588   3.976   0.175  0.8637 -1.8818  0.1113
 3031TIP3    H230585   1.525   4.008   0.042 -1.9415 -0.5191  1.6899
 3032TIP3   OH230586   1.943   5.285  13.417 -0.5895 -0.3603  0.0883
 3032TIP3    H130587   2.009   5.319  13.477 -0.0291 -0.5294 -0.4252
 3032TIP3    H230588   1.946   5.190  13.430  0.8049 -0.5787 -1.4583
 3033TIP3   OH230589   1.706   5.796  14.069 -0.4438 -0.2254 -0.0950
 3033TIP3    H130590   1.688   5.872  14.124 -0.7451 -0.9926  0.8935
 3033TIP3    H230591   1.644   5.803  13.997  0.9283  1.5917 -1.2079
 3034TIP3   OH230592   1.227   5.756  12.754 -0.2665 -0.8802 -0.0847
 3034TIP3    H130593   1.255   5.764  12.663 -0.0055 -0.1726  0.0477
 3034TIP3    H230594   1.221   5.847  12.785 -0.0414 -1.1201  0.6915
 3035TIP3   OH230595   4.077   5.976   2.898 -0.5919  0.2480  0.3980
 3035TIP3    H130596   4.022   5.951   2.972 -0.6186  1.0124  0.6514
 3035TIP3    H230597   4.166   5.951   2.924 -0.7994 -0.9680 -0.0022
 3036TIP3   OH230598   0.014   4.176   4.079 -0.6175  0.6743 -0.2056
 3036TIP3    H130599  -0.013   4.098   4.031 -0.7023  0.1032  0.7219
 3036TIP3    H230600  -0.044   4.245   4.049 -0.5697  0.3714 -1.0130
 3037TIP3   OH230601   4.554   6.671  11.492 -0.0045  0.5265  0.8710
 3037TIP3    H130602   4.566   6.761  11.462 -0.7761  0.4431  0.2570
 3037TIP3    H230603   4.621   6.658  11.559  2.3754  0.4767 -1.3609
 3038TIP3   OH230604   6.524   4.234  17.039 -0.4016  0.0446 -0.2991
 3038TIP3    H130605   6.458   4.303  17.046  0.4909  0.7838  1.8661
 3038TIP3    H230606   6.479   4.155  17.067 -0.3099  0.6411  1.6973
 3039TIP3   OH230607   5.576   0.334   0.656 -0.2826 -0.2766  0.1304
 3039TIP3    H130608   5.617   0.257   0.696  1.4563  0.6363  0.2028
 3039TIP3    H230609   5.483   0.322   0.671  0.1961 -0.3937  3.7277
 3040TIP3   OH230610   2.658   0.426  15.264  0.7760 -0.2779 -0.1483
 3040TIP3    H130611   2.673   0.334  15.283  0.1536 -0.3775 -0.1049
 3040TIP3    H230612   2.565   0.430  15.239 -0.5371  1.0107  4.1951
 3041TIP3   OH230613   1.354   2.881   5.978 -0.2380  0.4668  0.4360
 3041TIP3    H130614   1.315   2.832   5.906  1.2258 -1.2133  0.6949
 3041TIP3    H230615   1.350   2.972   5.951 -0.7181 -0.0370 -1.2719
 3042TIP3   OH230616   6.279   4.741   0.951  0.5604  0.0586  0.1707
 3042TIP3    H130617   6.193   4.777   0.973 -0.7895 -1.5631 -1.9829
 3042TIP3    H230618   6.287   4.752   0.856  1.9751 -1.3271  0.0749
 3043TIP3   OH230619   2.950   0.756  11.086  0.5115 -0.0469  0.9226
 3043TIP3    H130620   2.983   0.755  11.176  3.3551  1.0008  0.0232
 3043TIP3    H230621   2.882   0.823  11.086  1.0713  0.5565  2.1216
 3044TIP3   OH230622   3.892   1.954  15.203 -0.1960 -0.1014 -0.2293
 3044TIP3    H130623   3.962   2.003  15.160 -0.7075 -0.3770 -1.4099
 3044TIP3    H230624   3.909   1.965  15.297  0.5623  1.0756 -0.4847
 3045TIP3   OH230625   4.582   6.030  12.095 -0.4222 -0.4659  0.5731
 3045TIP3    H130626   4.579   5.995  12.006 -0.6091  1.2522 -0.1258
 3045TIP3    H230627   4.650   5.978  12.138 -0.4914 -1.4883 -0.4816
 3046TIP3   OH230628   3.114   6.551   2.437 -0.2419 -0.0389 -0.0432
 3046TIP3    H130629   3.054   6.598   2.495  1.1414  1.2595  0.4037
 3046TIP3    H230630   3.165   6.620   2.395  0.1447 -1.0576 -1.2990
 3047TIP3   OH230631   6.334   5.838  11.224  0.2063  0.2090 -0.0514
 3047TIP3    H130632   6.285   5.894  11.164  1.1981  1.6247  0.3879
 3047TIP3    H230633   6.370   5.899  11.289  3.1774 -0.5666 -0.7790
 3048TIP3   OH230634   0.776   6.109   4.651  0.0732 -0.0371  0.5200
 3048TIP3    H130635   0.867   6.078   4.660 -0.4111 -1.5313  0.5692
 3048TIP3    H230636   0.784   6.193   4.605  1.4946 -0.0142  0.7631
 3049TIP3   OH230637   0.197   1.696   3.052 -0.1376  0.2004 -0.2643
 3049TIP3    H130638   0.188   1.703   3.147  2.1540 -0.8394  0.0893
 3049TIP3    H230639   0.178   1.603   3.034  0.0917  0.2463 -0.7393
 3050TIP3   OH230640   0.186   6.204   1.919  0.0840  0.4789  0.3829
 3050TIP3    H130641   0.142   6.211   1.834  3.1749 -1.1707 -1.5434
 3050TIP3    H230642   0.145   6.129   1.962 -1.2972  1.1298  0.2512
 3051TIP3   OH230643   2.696   3.541  17.037 -0.1631 -0.3449 -0.2213
 3051TIP3    H130644   2.745   3.553  16.956 -1.8473  0.4583 -1.1719
 3051TIP3    H230645   2.680   3.447  17.043  1.5879 -0.6435  0.1968
 3052TIP3   OH230646   2.934   5.215  16.443  0.0114 -0.5648  0.1846
 3052TIP3    H130647   3.016   5.197  16.399 -0.8472 -3.2405 -0.4916
 3052TIP3    H230648   2.882   5.263  16.378  0.6740  0.2977  0.2780
 3053TIP3   OH230649   3.503   2.434  11.259  0.1110  0.3271 -0.1727
 3053TIP3    H130650   3.419   2.404  11.225  0.7537 -1.0749 -0.6362
 3053TIP3    H230651   3.482   2.480  11.339 -1.0040 -1.2837  0.5160
 3054TIP3   OH230652   2.601   2.872   3.001  0.0079  0.1276  0.3255
 3054TIP3    H130653   2.526   2.929   3.015  0.0612  0.3464 -0.2960
 3054TIP3    H230654   2.614   2.829   3.086 -0.9848 -0.1168  0.3562
 3055TIP3   OH230655   4.910   6.522   5.052 -0.0106 -0.2338 -0.8245
 3055TIP3    H130656   4.865   6.520   5.136  0.6980  0.1923 -0.4341
 3055TIP3    H230657   4.971   6.448   5.055  0.2438 -0.0250 -0.8379
 3056TIP3   OH230658   4.009   0.007  11.838 -0.0287  0.1491 -0.1978
 3056TIP3    H130659   4.058   0.084  11.808  0.8359 -0.3634 -0.1513
 3056TIP3    H230660   3.936  -0.000  11.776  0.3713  0.5043 -0.7287
 3057TIP3   OH230661   5.377   1.657   0.930 -0.1763 -0.0309  0.3475
 3057TIP3    H130662   5.410   1.602   0.859  0.1725  0.3537  0.2075
 3057TIP3    H230663   5.284   1.669   0.909 -0.8388 -2.3724  1.5569
 3058TIP3   OH230664   4.143   1.712  11.077  0.0849  0.1368  0.1635
 3058TIP3    H130665   4.190   1.704  10.994 -0.4175  0.7318 -0.1812
 3058TIP3    H230666   4.076   1.779  11.062  0.4143  0.7474  1.2391
 3059TIP3   OH230667   2.114   0.480  16.551  0.2939 -0.2627  0.0552
 3059TIP3    H130668   2.038   0.422  16.541  0.3555  0.1052 -3.9154
 3059TIP3    H230669   2.169   0.461  16.475  2.4625  1.9895  0.9322
 3060TIP3   OH230670   4.003   6.508   0.903 -0.0717  0.2025 -0.3573
 3060TIP3    H130671   4.073   6.535   0.962  0.6651 -1.4472 -0.4192
 3060TIP3    H230672   3.925   6.550   0.939  0.6816  0.8551  0.6031
 3061TIP3   OH230673   0.438   2.577   4.183  0.5664  0.0445 -0.2015
 3061TIP3    H130674   0.532   2.561   4.182  0.6537  0.0574  2.4056
 3061TIP3    H230675   0.404   2.517   4.249 -0.8317  1.9639  0.9193
 3062TIP3   OH230676   4.210   5.503  11.811 -0.7331 -0.1517  0.1916
 3062TIP3    H130677   4.161   5.532  11.888  0.3549  1.2740  0.3836
 3062TIP3    H230678   4.142   5.477  11.748 -1.6467 -0.8035  1.4102
 3063TIP3   OH230679   2.374   4.262   3.665 -0.4302  0.1784  0.8078
 3063TIP3    H130680   2.327   4.195   3.714 -0.2382 -1.5088 -1.1419
 3063TIP3    H230681   2.467   4.243   3.681 -0.3633 -0.4349 -0.1899
 3064TIP3   OH230682   1.800   1.603  15.162 -0.3493 -0.5218  0.1377
 3064TIP3    H130683   1.778   1.526  15.214 -0.4697 -0.4615  0.1767
 3064TIP3    H230684   1.833   1.666  15.226  1.4728 -1.1666 -0.1062
 3065TIP3   OH230685   1.694   4.253   2.743 -0.5198  0.2484  0.0856
 3065TIP3    H130686   1.730   4.177   2.697 -1.4680  0.3875 -0.9396
 3065TIP3    H230687   1.770   4.308   2.761 -0.2052  0.8688 -2.6429
 3066TIP3   OH230688   6.527   1.233   0.157 -0.6935  0.2141 -0.1956
 3066TIP3    H130689   6.433   1.217   0.150 -0.6820 -0.7662  1.4074
 3066TIP3    H230690   6.536   1.328   0.147 -1.6479  0.1671 -1.9533
 3067TIP3   OH230691   4.149   3.007   3.431 -0.3046  0.7135  0.7080
 3067TIP3    H130692   4.092   3.034   3.359  0.4724 -1.3421 -0.7687
 3067TIP3    H230693   4.094   3.014   3.509 -2.7256 -1.3696 -0.6693
 3068TIP3   OH230694   5.379   1.004  12.363  0.1342  0.0465  0.4319
 3068TIP3    H130695   5.397   1.089  12.323  0.5110  0.1979  0.9216
 3068TIP3    H230696   5.466   0.969  12.385 -0.0389 -0.3056  0.5624
 3069TIP3   OH230697   2.299   0.003   1.547 -0.2132 -0.0813  0.3966
 3069TIP3    H130698   2.204  -0.004   1.538 -0.1817 -1.4584  0.8900
 3069TIP3    H230699   2.323   0.075   1.488 -1.6646  1.0268  1.0595
 3070TIP3   OH230700   3.724   5.525   1.358 -0.1007 -0.0269  0.0547
 3070TIP3    H130701   3.753   5.613   1.380  0.9928 -0.3529 -0.0162
 3070TIP3    H230702   3.644   5.538   1.306  0.0064  0.9043  0.1076
 3071TIP3   OH230703   4.566   6.228   2.382  0.2990  0.1822  0.2918
 3071TIP3    H130704   4.658   6.248   2.399  0.2703  0.5075  0.0747
 3071TIP3    H230705   4.539   6.292   2.317 -0.5294  1.1575  1.5427
 3072TIP3   OH230706   0.882   6.288   3.965 -0.6717  0.7128  0.2390
 3072TIP3    H130707   0.869   6.253   4.054 -1.3117 -0.3649 -0.2497
 3072TIP3    H230708   0.940   6.224   3.923 -1.7728  0.2500 -0.6432
 3073TIP3   OH230709   1.119   2.955  12.610 -0.8156  0.1869 -0.1906
 3073TIP3    H130710   1.170   2.904  12.673 -0.4330  0.9752  0.1542
 3073TIP3    H230711   1.035   2.972  12.654 -0.9570 -0.1643 -0.3199
 3074TIP3   OH230712   1.875   5.409   2.396 -0.0714 -0.0711 -1.0416
 3074TIP3    H130713   1.906   5.436   2.310  1.6161  1.0328 -0.1608
 3074TIP3    H230714   1.940   5.347   2.427 -1.5245 -1.7428 -1.1643
 3075TIP3   OH230715   2.444   1.519  15.893 -0.6893 -0.3927 -0.0087
 3075TIP3    H130716   2.465   1.527  15.986  0.6244 -0.2004 -0.3004
 3075TIP3    H230717   2.432   1.609  15.863 -0.4024 -0.4079 -0.1746
 3076TIP3   OH230718   4.238   4.608   5.620  0.2804 -0.2429  0.3570
 3076TIP3    H130719   4.320   4.592   5.667 -0.2443 -1.5283  0.8739
 3076TIP3    H230720   4.213   4.523   5.585 -1.2135 -0.0481  0.8492
 3077TIP3   OH230721   3.486   0.355   0.675 -0.4677  0.0717  0.2635
 3077TIP3    H130722   3.392   0.338   0.687  0.0011 -1.2289  2.5257
 3077TIP3    H230723   3.496   0.449   0.693 -1.3536  0.3156 -0.4205
 3078TIP3   OH230724   1.439   6.429  13.687 -0.0206  0.0430  0.1108
 3078TIP3    H130725   1.501   6.387  13.626  0.8516  0.4404  0.7041
 3078TIP3    H230726   1.404   6.356  13.739 -0.3384 -0.2291 -0.4778
 3079TIP3   OH230727   5.098   4.903  15.405  0.1412  0.6401  0.6790
 3079TIP3    H130728   5.121   4.870  15.492 -1.3716 -0.7466  0.6028
 3079TIP3    H230729   5.119   4.831  15.345  0.3417  1.2529 -0.0010
 3080TIP3   OH230730   5.789   0.990   2.861  0.0193  0.0124  0.0281
 3080TIP3    H130731   5.876   0.950   2.862  0.3866  0.7933 -0.0142
 3080TIP3    H230732   5.730   0.919   2.887  0.9347  0.0843  2.6630
 3081TIP3   OH230733   6.680   3.983  11.367  0.2014 -0.0659 -0.1389
 3081TIP3    H130734   6.696   4.037  11.289  0.0859 -1.3067 -1.0585
 3081TIP3    H230735   6.759   3.992  11.419  1.1534 -0.7940 -1.3922
 3082TIP3   OH230736   5.763   2.008  13.095  0.4184 -0.4043 -0.5952
 3082TIP3    H130737   5.753   1.960  13.013 -0.6647 -0.8846 -0.2038
 3082TIP3    H230738   5.720   1.952  13.161 -1.7359  1.4919 -0.2700
 3083TIP3   OH230739   6.389   2.299   0.311 -0.1950  0.2398  0.2306
 3083TIP3    H130740   6.424   2.271   0.396 -0.0190 -0.5458 -0.0847
 3083TIP3    H230741   6.463   2.343   0.269  0.5749 -1.6488 -0.5408
 3084TIP3   OH230742   4.917   6.508   5.427 -0.3111  0.2035  0.3848
 3084TIP3    H130743   4.935   6.438   5.365 -1.4246  0.1795  0.0654
 3084TIP3    H230744   4.958   6.585   5.389  2.3782 -0.5168  1.5251
 3085TIP3   OH230745   1.264   6.279   1.104  0.1159 -0.3774 -0.1683
 3085TIP3    H130746   1.201   6.346   1.134  1.5670  1.3106 -0.7075
 3085TIP3    H230747   1.275   6.297   1.011 -0.6570 -2.4569 -0.7164
 3086TIP3   OH230748   2.242   2.295   3.229 -0.0158  0.5669  0.2997
 3086TIP3    H130749   2.291   2.365   3.187 -1.9252 -0.0169 -3.3804
 3086TIP3    H230750   2.174   2.340   3.280 -1.2234  1.5566 -2.0095
 3087TIP3   OH230751   0.694   1.813  14.575 -0.1571  0.2224 -0.3696
 3087TIP3    H130752   0.711   1.778  14.662  1.8435 -2.9791 -1.8994
 3087TIP3    H230753   0.774   1.859  14.550 -0.5001  0.6273 -0.7713
 3088TIP3   OH230754   4.165   2.964  16.473  0.0064 -0.4379  0.2254
 3088TIP3    H130755   4.216   2.999  16.400  0.4190 -0.2321  0.6094
 3088TIP3    H230756   4.224   2.903  16.517  0.7132  1.3732  1.9465
 3089TIP3   OH230757   0.626   6.609   6.758  0.2625  0.2153  0.3678
 3089TIP3    H130758   0.550   6.602   6.700  0.8074 -0.2868 -0.3047
 3089TIP3    H230759   0.686   6.667   6.712  1.0622 -0.8630  0.0102
 3090TIP3   OH230760   5.483   0.100  14.782  0.0293 -0.6977 -0.0208
 3090TIP3    H130761   5.429   0.045  14.725  0.2961 -0.0315 -0.9365
 3090TIP3    H230762   5.421   0.164  14.817 -0.1146 -1.0434  0.3702
 3091TIP3   OH230763   4.322   5.363  11.192 -0.1398  0.4825  0.2520
 3091TIP3    H130764   4.363   5.440  11.153 -0.9041  1.0174  0.4763
 3091TIP3    H230765   4.262   5.331  11.124 -1.1215  1.1362  0.7800
 3092TIP3   OH230766   3.923   4.814  15.006 -0.2237 -0.3110  0.0245
 3092TIP3    H130767   3.984   4.853  14.944 -0.1531  0.4223  0.5430
 3092TIP3    H230768   3.894   4.733  14.964 -0.0795  0.1073 -0.8962
 3093TIP3   OH230769   6.077   6.511   0.821  0.0478  0.0837  0.0549
 3093TIP3    H130770   6.050   6.514   0.729 -0.6508 -0.7496  0.2148
 3093TIP3    H230771   6.026   6.579   0.864  1.5707  1.6090 -0.4352
 3094TIP3   OH230772   5.833   0.878   4.465  0.1429  0.6870 -0.1973
 3094TIP3    H130773   5.872   0.857   4.550  0.6172 -0.2571 -0.6355
 3094TIP3    H230774   5.900   0.930   4.421  1.0747 -1.1172 -1.0351
 3095TIP3   OH230775   5.674   1.891  12.622 -0.0551  0.3477  0.0717
 3095TIP3    H130776   5.742   1.905  12.556 -0.8649  1.8485 -0.4879
 3095TIP3    H230777   5.600   1.943  12.592 -0.4682  1.0474  2.1342
 3096TIP3   OH230778   3.628   2.425   5.312  0.2270 -0.2066  0.2445
 3096TIP3    H130779   3.570   2.466   5.247  0.7338  0.7719  0.3977
 3096TIP3    H230780   3.709   2.409   5.265  0.1445 -0.7655  0.2768
 3097TIP3   OH230781   2.638   3.405  15.834 -0.2349  0.2255 -0.1999
 3097TIP3    H130782   2.731   3.424  15.836  0.4653 -2.6883 -0.0009
 3097TIP3    H230783   2.619   3.385  15.743 -0.4358 -0.1417 -0.0796
 3098TIP3   OH230784   5.000   1.859   5.823 -0.8139  0.0236  0.1368
 3098TIP3    H130785   4.999   1.864   5.728  0.9094  0.9230  0.1424
 3098TIP3    H230786   4.978   1.948   5.852 -1.4417 -0.2727  0.5860
 3099TIP3   OH230787   0.655   5.770  16.047  0.0667  0.9747 -0.0859
 3099TIP3    H130788   0.711   5.693  16.045  0.1223  1.0096  0.0658
 3099TIP3    H230789   0.572   5.742  16.008  0.2675  0.9862 -0.5167
 3100TIP3   OH230790   6.606   1.870  12.926 -0.4457  0.2741  0.1383
 3100TIP3    H130791   6.632   1.867  13.018 -0.0994 -1.1046  0.0268
 3100TIP3    H230792   6.525   1.921  12.926  0.1699  1.2905  1.0372
 3101TIP3   OH230793   4.802   3.304   1.641 -0.1995 -0.3279 -0.4043
 3101TIP3    H130794   4.796   3.222   1.591 -0.1313 -3.2083  3.7875
 3101TIP3    H230795   4.714   3.317   1.676  0.2010  0.4582  0.3378
 3102TIP3   OH230796   3.744   1.219  15.618 -0.4773  0.2507  0.3124
 3102TIP3    H130797   3.827   1.226  15.666 -0.1421 -1.1341 -0.0140
 3102TIP3    H230798   3.679   1.258  15.676  0.0085 -0.8353  1.6411
 3103TIP3   OH230799   3.634   5.483  14.149  0.2802  0.6217 -0.3833
 3103TIP3    H130800   3.673   5.548  14.091  2.6909  0.1136  0.5388
 3103TIP3    H230801   3.563   5.529  14.193  0.1743  1.8013 -1.7295
 3104TIP3   OH230802   4.547   2.661   1.225 -0.0508  0.5411  0.1074
 3104TIP3    H130803   4.599   2.623   1.155  0.3894  0.7875  0.2949
 3104TIP3    H230804   4.606   2.723   1.268 -0.0573 -0.1582  1.1785
 3105TIP3   OH230805   2.951   4.030   4.075 -0.1627 -0.1692 -0.2843
 3105TIP3    H130806   2.925   3.939   4.059 -1.7013 -0.0804  1.3772
 3105TIP3    H230807   3.045   4.032   4.058 -0.4440 -1.5896 -2.2902
 3106TIP3   OH230808   1.557   5.158  13.619 -0.1249 -0.0287 -0.1540
 3106TIP3    H130809   1.562   5.251  13.597  0.8904  0.3523  1.5869
 3106TIP3    H230810   1.603   5.150  13.702 -0.8051 -1.9845  0.0786
 3107TIP3   OH230811   4.512   5.206   1.998 -0.1909  0.1560  0.4451
 3107TIP3    H130812   4.579   5.258   2.042  0.2817 -0.2362  0.2015
 3107TIP3    H230813   4.538   5.207   1.906 -0.8732  0.5264  0.2543
 3108TIP3   OH230814   5.593   6.734  16.744  0.5921 -0.1446  0.1319
 3108TIP3    H130815   5.505   6.741  16.706  1.0207  2.0994 -0.6170
 3108TIP3    H230816   5.585   6.776  16.830  1.0435  0.5931 -0.1789
 3109TIP3   OH230817   5.014   1.885   4.716  0.6639 -0.2351  0.6100
 3109TIP3    H130818   4.968   1.832   4.650  0.1372  1.0249 -0.0714
 3109TIP3    H230819   5.040   1.822   4.783 -0.8010 -1.2154  0.3066
 3110TIP3   OH230820   1.732   1.983   2.440 -0.5067 -0.5703  0.5981
 3110TIP3    H130821   1.767   1.896   2.457 -1.0330 -0.7026  1.0696
 3110TIP3    H230822   1.752   2.000   2.348 -0.9802 -1.4646  0.3153
 3111TIP3   OH230823   0.378   0.856  16.581  0.0052  0.5685 -0.0807
 3111TIP3    H130824   0.310   0.789  16.575  1.3025 -0.9248  1.0252
 3111TIP3    H230825   0.366   0.893  16.669  1.3631 -0.5999  0.6328
 3112TIP3   OH230826   0.096   1.515   4.502  0.8346  0.2891  0.5805
 3112TIP3    H130827   0.186   1.536   4.478  1.3140  1.8679  3.3268
 3112TIP3    H230828   0.060   1.597   4.537 -1.5249 -0.4278  0.0321
 3113TIP3   OH230829   5.744   6.441  14.086 -0.6615 -0.4687  0.0549
 3113TIP3    H130830   5.768   6.484  14.168 -0.6096  0.6786 -0.5414
 3113TIP3    H230831   5.652   6.419  14.097 -0.3998 -1.2158  0.7962
 3114TIP3   OH230832   4.645   0.640   2.430 -0.3876  0.0481 -0.0871
 3114TIP3    H130833   4.660   0.665   2.521  1.4970  0.2449 -0.4216
 3114TIP3    H230834   4.707   0.569   2.414  0.9711  1.5354 -1.8440
 3115TIP3   OH230835   3.844   6.197   1.603 -0.0271 -0.5350 -0.2186
 3115TIP3    H130836   3.911   6.129   1.611 -0.1828 -0.6931 -0.2676
 3115TIP3    H230837   3.783   6.179   1.674  1.4850  1.3080  1.7026
 3116TIP3   OH230838   5.024   0.883   3.433 -0.2016 -0.1072  0.3722
 3116TIP3    H130839   5.068   0.821   3.491  0.1614 -1.0659 -0.8736
 3116TIP3    H230840   5.033   0.967   3.476 -0.8723 -0.9322  2.2151
 3117TIP3   OH230841   5.165   0.484  13.160 -0.0450  0.0017 -0.1787
 3117TIP3    H130842   5.076   0.517  13.176 -0.5711 -1.3362 -0.2014
 3117TIP3    H230843   5.222   0.553  13.195 -1.0985 -0.5098  2.8975
 3118TIP3   OH230844   0.702   4.572   5.563  0.7727 -0.6080  0.0513
 3118TIP3    H130845   0.679   4.531   5.646  0.2404  0.7360  0.5955
 3118TIP3    H230846   0.700   4.500   5.500 -2.1675 -1.1331  0.5772
 3119TIP3   OH230847   6.066   3.364   2.961  0.4486 -0.0732 -0.4212
 3119TIP3    H130848   5.978   3.395   2.982  0.5092 -1.2628  1.9054
 3119TIP3    H230849   6.125   3.422   3.010  0.7128 -1.6297  1.2048
 3120TIP3   OH230850   2.799   2.239   4.997  0.4123 -0.0333  0.1929
 3120TIP3    H130851   2.849   2.202   4.924  0.9303  2.5485 -0.8909
 3120TIP3    H230852   2.859   2.238   5.071  0.7108 -0.4965 -0.0544
 3121TIP3   OH230853   4.251   6.362  11.857 -0.3626  0.5891 -0.4677
 3121TIP3    H130854   4.296   6.284  11.889 -1.2432 -0.3420 -1.3922
 3121TIP3    H230855   4.319   6.428  11.847  0.5968 -0.4203 -0.7277
 3122TIP3   OH230856   5.455   4.364   0.699 -0.3574  0.0566  0.1789
 3122TIP3    H130857   5.362   4.374   0.680 -0.0534  0.0257 -1.4831
 3122TIP3    H230858   5.493   4.450   0.678  0.2039 -0.3971 -0.7605
 3123TIP3   OH230859   3.302   4.870   3.530  0.3752 -0.1456  0.9959
 3123TIP3    H130860   3.276   4.925   3.604  1.7638  0.9608  0.7203
 3123TIP3    H230861   3.393   4.895   3.513  0.3502 -0.9856 -0.5469
 3124TIP3   OH230862   2.717   4.279   2.736 -0.1285 -0.8985 -0.1379
 3124TIP3    H130863   2.644   4.225   2.707 -0.0594 -0.0453 -2.0172
 3124TIP3    H230864   2.778   4.278   2.663 -0.1659  1.7702 -0.2811
 3125TIP3   OH230865   0.604   5.179   2.495 -0.2364 -0.0651  0.0832
 3125TIP3    H130866   0.619   5.092   2.533 -1.2255 -1.8669 -3.2011
 3125TIP3    H230867   0.549   5.162   2.418 -2.7339  3.8242  0.7240
 3126TIP3   OH230868   1.477   4.644  15.777  0.0215  0.0373 -0.0719
 3126TIP3    H130869   1.558   4.633  15.827  1.0745  0.1226 -1.6664
 3126TIP3    H230870   1.456   4.737  15.786  0.9405  0.3401 -0.8032
 3127TIP3   OH230871   5.363   1.886  16.864 -0.5042 -0.2150  0.0718
 3127TIP3    H130872   5.351   1.876  16.958 -0.0563  1.8030  0.3865
 3127TIP3    H230873   5.318   1.967  16.842  0.5376  0.0482 -1.2099
 3128TIP3   OH230874   0.175   3.268  14.644  0.0069  0.6400 -0.3318
 3128TIP3    H130875   0.106   3.201  14.646 -0.2258  0.8439  2.5363
 3128TIP3    H230876   0.130   3.348  14.618 -0.3173  0.2697 -0.9241
 3129TIP3   OH230877   6.748   3.118   6.261 -0.1560 -0.2934  0.4365
 3129TIP3    H130878   6.736   3.034   6.306 -1.8983 -0.8124 -0.8822
 3129TIP3    H230879   6.843   3.127   6.252  0.1377 -3.5923 -1.9108
 3130TIP3   OH230880   1.909   1.040  16.098 -0.3850 -0.1100 -0.0742
 3130TIP3    H130881   1.895   0.968  16.160 -0.9688  0.3101  0.2959
 3130TIP3    H230882   1.938   1.113  16.153 -1.7368  0.5212 -0.1537
 3131TIP3   OH230883   4.989   1.715  14.471 -0.3186 -0.2614 -0.3816
 3131TIP3    H130884   4.989   1.720  14.567 -0.3273 -0.1223 -0.3886
 3131TIP3    H230885   4.900   1.686  14.449 -1.1060  1.9841 -0.4610
 3132TIP3   OH230886   2.324   4.501   0.060  0.3657  0.0113  0.3786
 3132TIP3    H130887   2.251   4.440   0.068 -0.4183  0.7921 -0.6006
 3132TIP3    H230888   2.398   4.446   0.033 -0.3647 -0.4952 -0.6445
 3133TIP3   OH230889   3.922   0.657   5.470 -1.1362 -0.1473  0.1231
 3133TIP3    H130890   3.991   0.675   5.534 -1.9558  1.5668  0.6005
 3133TIP3    H230891   3.950   0.704   5.391 -0.3886 -1.8207 -0.6569
 3134TIP3   OH230892   2.043   0.621  15.346  0.3618 -0.0458 -0.6745
 3134TIP3    H130893   1.986   0.637  15.421 -0.2768 -1.0768 -0.9298
 3134TIP3    H230894   2.124   0.669  15.367 -0.1328  0.4083  0.2494
 3135TIP3   OH230895   1.689   5.715   3.265  0.4990  0.0373  0.1172
 3135TIP3    H130896   1.618   5.657   3.290  1.4702 -1.0539  0.4218
 3135TIP3    H230897   1.729   5.674   3.188  1.1619  0.3220  0.2929
 3136TIP3   OH230898   2.015   3.701   5.132 -0.9762 -0.1313  0.0951
 3136TIP3    H130899   2.002   3.789   5.169 -1.6902 -0.3633  0.4132
 3136TIP3    H230900   1.957   3.645   5.183 -0.1281 -0.8899  0.2504
 3137TIP3   OH230901   1.312   2.061   4.531 -1.0254  0.1972 -0.2269
 3137TIP3    H130902   1.292   2.025   4.444  0.3990 -0.3748 -0.3539
 3137TIP3    H230903   1.252   2.016   4.590 -1.4974  0.0343 -0.8228
 3138TIP3   OH230904   3.589   5.668   6.283  0.1863 -0.2356  0.0129
 3138TIP3    H130905   3.673   5.644   6.322 -0.3484 -0.7609  0.8770
 3138TIP3    H230906   3.524   5.615   6.331 -0.7330  0.8369  0.0111
 3139TIP3   OH230907   1.122   5.413  13.732 -0.0751  0.4124 -0.4049
 3139TIP3    H130908   1.157   5.432  13.819 -0.3525  1.4435 -0.5043
 3139TIP3    H230909   1.036   5.375  13.748  0.3650 -0.5185 -0.2044
 3140TIP3   OH230910   1.336   0.721  13.888  0.0955  0.4760  0.3801
 3140TIP3    H130911   1.248   0.695  13.861  0.8326 -0.0193 -1.7162
 3140TIP3    H230912   1.356   0.798  13.836  0.9175  0.5624  0.8058
 3141TIP3   OH230913   3.059   0.087  16.938 -0.3422 -0.0636  0.1877
 3141TIP3    H130914   3.135   0.145  16.932  1.1258 -1.9768 -0.3999
 3141TIP3    H230915   3.045   0.056  16.849 -1.3924 -0.2888  0.4132
 3142TIP3   OH230916   3.698   4.076   5.879 -0.3820 -0.8629  0.1162
 3142TIP3    H130917   3.696   3.990   5.921 -1.6335 -1.0702 -0.3179
 3142TIP3    H230918   3.730   4.136   5.947  1.2927 -1.7783  0.1763
 3143TIP3   OH230919   3.585   4.693  11.402 -0.5684  0.2870  0.0700
 3143TIP3    H130920   3.490   4.698  11.402 -0.6297  0.2594 -2.0465
 3143TIP3    H230921   3.612   4.737  11.482 -2.3441  0.4437  0.6220
 3144TIP3   OH230922   6.562   4.691  15.198 -0.4529 -0.4746  0.2625
 3144TIP3    H130923   6.600   4.754  15.138  0.3459 -0.0359  1.1943
 3144TIP3    H230924   6.600   4.607  15.173  0.8575 -0.1033  0.9267
 3145TIP3   OH230925   5.077   2.627  11.734 -0.1772 -0.0848 -0.0142
 3145TIP3    H130926   4.995   2.617  11.686 -0.9077  0.9517  0.9807
 3145TIP3    H230927   5.145   2.621  11.666 -0.9716 -2.2339 -0.6850
 3146TIP3   OH230928   6.414   1.867  11.092  0.2468  0.2422  0.1822
 3146TIP3    H130929   6.338   1.835  11.044  0.3697 -1.8028  1.2643
 3146TIP3    H230930   6.488   1.858  11.031  0.6082 -3.3892  0.9554
 3147TIP3   OH230931   3.565   5.625   0.588 -0.1225  0.1230 -0.0158
 3147TIP3    H130932   3.617   5.560   0.541 -0.3088  0.3340 -0.5212
 3147TIP3    H230933   3.475   5.596   0.580 -0.1206 -0.0477  0.5514
 3148TIP3   OH230934   0.546   2.899   3.069  0.1143 -0.2974 -0.0210
 3148TIP3    H130935   0.576   2.914   2.979  1.6071  0.8776  0.6213
 3148TIP3    H230936   0.622   2.861   3.113 -0.6366 -0.9568  0.7227
 3149TIP3   OH230937   1.508   0.719   1.464  0.2196 -0.0470 -1.0127
 3149TIP3    H130938   1.537   0.732   1.374  1.9943  0.9688 -0.3375
 3149TIP3    H230939   1.518   0.805   1.505 -1.3723 -0.2852 -0.0408
 3150TIP3   OH230940   2.695   2.574   5.786  0.7033  0.0649  0.0302
 3150TIP3    H130941   2.732   2.486   5.794 -1.4175 -0.7778  1.4218
 3150TIP3    H230942   2.688   2.606   5.876  0.1880  1.0930 -0.3529
 3151TIP3   OH230943   6.343   2.896  12.240  0.0037 -0.7393  0.3508
 3151TIP3    H130944   6.360   2.945  12.321  0.3446 -1.1790  0.5535
 3151TIP3    H230945   6.429   2.886  12.199 -0.1448 -0.6604  0.0157
 3152TIP3   OH230946   4.009   1.992   2.300  0.2275  0.2929 -0.5417
 3152TIP3    H130947   3.968   1.986   2.387 -1.4743 -2.2978 -1.4005
 3152TIP3    H230948   4.082   1.930   2.304 -0.0354 -0.0553 -1.0143
 3153TIP3   OH230949   3.744   1.359  11.815  0.1918 -0.3886 -0.2638
 3153TIP3    H130950   3.689   1.370  11.892 -0.6917  2.0270 -1.1372
 3153TIP3    H230951   3.700   1.290  11.764  0.0407 -1.0382  0.7172
 3154TIP3   OH230952   3.614   4.964   3.695 -0.3404  0.9591  0.1917
 3154TIP3    H130953   3.625   4.920   3.611  3.0808  0.4815  0.7624
 3154TIP3    H230954   3.581   4.895   3.754  0.7338  0.3052  0.0508
 3155TIP3   OH230955   0.583   4.118   3.980 -0.4739 -0.0644  0.2570
 3155TIP3    H130956   0.548   4.206   3.996 -2.6681 -0.6314 -0.9225
 3155TIP3    H230957   0.566   4.070   4.061  0.3926  0.4638  0.7701
 3156TIP3   OH230958   5.731   5.759   5.974  0.7408  0.2700 -0.4925
 3156TIP3    H130959   5.748   5.776   6.067  1.6623  0.9015 -0.7577
 3156TIP3    H230960   5.818   5.749   5.935  0.3690  0.1565 -1.3150
 3157TIP3   OH230961   6.589   5.633   0.401  0.2535 -0.0241 -0.1364
 3157TIP3    H130962   6.591   5.541   0.373  0.4132  0.1400 -0.6712
 3157TIP3    H230963   6.667   5.643   0.455  0.5281 -0.0576 -0.5316
 3158TIP3   OH230964   0.332   4.879   0.321 -0.0744 -0.4313 -0.1333
 3158TIP3    H130965   0.293   4.948   0.375  1.1848 -0.6262  1.0966
 3158TIP3    H230966   0.382   4.926   0.254  1.2359 -0.0866  1.0323
 3159TIP3   OH230967   1.150   2.104   0.754  0.1828 -0.6180 -0.3825
 3159TIP3    H130968   1.153   2.157   0.675  3.0045 -1.3489 -0.8743
 3159TIP3    H230969   1.117   2.019   0.725  1.9986 -1.1487 -1.0151
 3160TIP3   OH230970   0.170   0.962   4.158 -0.0252 -0.1513  0.2910
 3160TIP3    H130971   0.113   0.922   4.223  1.0805  0.5818  1.7593
 3160TIP3    H230972   0.117   1.030   4.117 -0.6816 -0.5228  0.5177
 3161TIP3   OH230973   6.748   3.793  12.705  0.0963  0.3153  0.0860
 3161TIP3    H130974   6.740   3.886  12.727 -0.8365  0.1847  0.3663
 3161TIP3    H230975   6.661   3.757  12.722  0.2409 -0.4623 -0.7407
 3162TIP3   OH230976   4.765   2.151   2.071 -0.4724  0.0821 -0.5505
 3162TIP3    H130977   4.701   2.089   2.038 -1.2591 -1.0994  2.7855
 3162TIP3    H230978   4.841   2.097   2.095  0.5547  1.0482 -1.4652
 3163TIP3   OH230979   5.978   4.905  14.808  0.2512  0.0887  0.8009
 3163TIP3    H130980   5.955   4.914  14.901  1.1266  0.5270  0.9876
 3163TIP3    H230981   5.975   4.994  14.774  1.1332  0.0923  0.7097
 3164TIP3   OH230982   5.451   3.516   1.272  0.3631  0.5397  0.0348
 3164TIP3    H130983   5.362   3.543   1.295 -1.2257 -0.6632 -3.9881
 3164TIP3    H230984   5.499   3.598   1.265 -0.9858  1.3777  0.2021
 3165TIP3   OH230985   4.805   0.494  12.582  0.1636 -0.2918 -0.0584
 3165TIP3    H130986   4.721   0.539  12.586  0.5449  0.3716  0.9740
 3165TIP3    H230987   4.784   0.401  12.593 -0.5013 -0.2192 -0.6966
 3166TIP3   OH230988   4.836   6.115  11.640  1.0500  0.1130  0.5201
 3166TIP3    H130989   4.794   6.099  11.725 -0.1530 -0.0314 -0.0711
 3166TIP3    H230990   4.808   6.041  11.585 -0.9941  1.8619 -0.9706
 3167TIP3   OH230991   2.316   3.870   0.990 -0.7182  0.0641  0.2524
 3167TIP3    H130992   2.352   3.959   0.989 -0.4978  0.0055  1.3724
 3167TIP3    H230993   2.221   3.883   0.994 -0.6893  0.2565  0.3632
 3168TIP3   OH230994   2.211   1.251  11.938  0.4900 -0.0485 -0.2464
 3168TIP3    H130995   2.203   1.261  11.843  1.0916 -0.7456 -0.3826
 3168TIP3    H230996   2.145   1.185  11.960  0.1155  0.3613 -0.1227
 3169TIP3   OH230997   2.212   2.468   0.330 -0.5169  0.8128 -0.0630
 3169TIP3    H130998   2.151   2.459   0.404  0.3181 -2.4464  0.3929
 3169TIP3    H230999   2.274   2.534   0.359 -0.3489 -0.1999  2.1640
 3170TIP3   OH231000   0.276   2.598   2.296 -0.0073 -0.0013  0.0475
 3170TIP3    H131001   0.356   2.586   2.348 -0.8131 -0.0999  1.3082
 3170TIP3    H231002   0.302   2.577   2.206  1.9094  1.9834  0.0461
 3171TIP3   OH231003   1.756   6.640   5.407  0.3349  0.1872  0.2915
 3171TIP3    H131004   1.726   6.730   5.393  0.7442  0.2837  0.0165
 3171TIP3    H231005   1.816   6.623   5.334  1.7657  0.3568  1.3936
 3172TIP3   OH231006   5.966   3.474  11.316 -0.1392  0.7205  0.2867
 3172TIP3    H131007   6.036   3.539  11.321  0.2622  0.6011 -2.5505
 3172TIP3    H231008   6.010   3.393  11.289 -0.8503 -0.4287  2.3190
 3173TIP3   OH231009   0.410   4.714   3.752 -0.3316 -0.1863  0.1184
 3173TIP3    H131010   0.365   4.759   3.823 -2.0904 -0.8991 -0.4994
 3173TIP3    H231011   0.458   4.643   3.795 -2.6400 -1.6069  0.5309
 3174TIP3   OH231012   5.095   2.037   6.420 -0.2781  0.7504  0.7612
 3174TIP3    H131013   5.127   1.950   6.440  1.4623  0.6588 -1.9292
 3174TIP3    H231014   5.001   2.026   6.406 -0.0072 -0.7946  0.0286
 3175TIP3   OH231015   6.791   2.543  11.309 -0.4125 -0.4928  0.0917
 3175TIP3    H131016   6.778   2.589  11.226  2.1619  3.5979  1.6664
 3175TIP3    H231017   6.862   2.481  11.292 -0.8655 -0.7403 -1.0035
 3176TIP3   OH231018   0.050   1.410   5.061  0.0948 -0.4835 -0.5246
 3176TIP3    H131019   0.088   1.350   5.125 -0.3797 -0.5842 -0.3308
 3176TIP3    H231020   0.052   1.362   4.979 -0.8035 -0.9916 -0.2594
 3177TIP3   OH231021   5.622   3.195   6.094  0.4778  0.2817 -0.2003
 3177TIP3    H131022   5.655   3.108   6.119 -0.9212  0.0520  1.0261
 3177TIP3    H231023   5.652   3.253   6.164  2.3560  1.0578 -1.5821
 3178TIP3   OH231024   3.407   1.368   0.313  0.6108 -0.3949 -0.2289
 3178TIP3    H131025   3.320   1.369   0.275  0.1407  0.6820  0.8295
 3178TIP3    H231026   3.460   1.422   0.254  0.6721 -1.3242 -1.0567
 3179TIP3   OH231027   4.629   3.666   6.759  0.4254  0.2819  0.7076
 3179TIP3    H131028   4.536   3.688   6.764 -0.0145 -1.0053 -0.9107
 3179TIP3    H231029   4.663   3.684   6.847 -1.5927 -0.3444  1.6673
 3180TIP3   OH231030   2.694   1.801   1.686  0.8690  0.5440  0.3070
 3180TIP3    H131031   2.599   1.800   1.685  0.7510  1.6538 -3.1088
 3180TIP3    H231032   2.717   1.849   1.766 -1.5058  1.7942  0.3056
 3181TIP3   OH231033   5.895   1.263  15.912 -0.5049 -0.0176  0.0111
 3181TIP3    H131034   5.903   1.206  15.989 -0.3549 -0.7433 -0.5394
 3181TIP3    H231035   5.909   1.205  15.837 -0.7742  0.6632 -0.5733
 3182TIP3   OH231036   3.792   3.322   5.463  0.4341  0.0568 -0.0777
 3182TIP3    H131037   3.886   3.335   5.474  0.4892  0.1979 -0.6750
 3182TIP3    H231038   3.784   3.234   5.425  0.3570  0.2455 -0.4987
 3183TIP3   OH231039   2.064   5.685  12.579  0.2583 -0.1423  0.3219
 3183TIP3    H131040   2.153   5.693  12.544 -0.9005 -0.8302 -3.1494
 3183TIP3    H231041   2.022   5.768  12.554 -0.3760 -0.2785  0.9316
 3184TIP3   OH231042   2.294   6.517  14.537 -0.5376  0.7911  0.3446
 3184TIP3    H131043   2.289   6.467  14.455 -2.7947  1.1079  0.2375
 3184TIP3    H231044   2.257   6.459  14.603  0.7671  0.7485  1.0734
 3185TIP3   OH231045   3.171   5.737  15.397  0.8412  0.0804  0.2793
 3185TIP3    H131046   3.081   5.711  15.413  0.0971  1.3247 -1.5237
 3185TIP3    H231047   3.171   5.832  15.408  1.8475  0.1406 -0.0827
 3186TIP3   OH231048   1.474   6.639   1.437  0.3797 -0.1165 -0.0104
 3186TIP3    H131049   1.431   6.713   1.395  0.4960 -0.5427 -0.9015
 3186TIP3    H231050   1.543   6.678   1.491 -0.7812  0.5328  1.0435
 3187TIP3   OH231051   3.079   1.762  14.559  0.3882  0.2759 -0.3767
 3187TIP3    H131052   3.073   1.749  14.654 -2.0335 -0.7041 -0.5935
 3187TIP3    H231053   3.102   1.676  14.524  1.4582  0.6751 -0.6936
 3188TIP3   OH231054   1.823   4.003   1.743 -0.0817 -0.1468  0.1078
 3188TIP3    H131055   1.857   4.038   1.826 -0.3439  0.3789 -0.0006
 3188TIP3    H231056   1.900   3.989   1.689 -0.0805  2.5162 -0.7135
 3189TIP3   OH231057   0.252   6.782   4.447  0.1351  0.0819  0.5936
 3189TIP3    H131058   0.296   6.823   4.522  0.1567  1.5311 -0.1701
 3189TIP3    H231059   0.178   6.736   4.486  0.1197  0.8538  1.5246
 3190TIP3   OH231060   1.462   1.150  11.437  0.0372  0.0897  0.0924
 3190TIP3    H131061   1.403   1.112  11.503 -0.6606 -0.2543 -0.7104
 3190TIP3    H231062   1.436   1.242  11.432 -1.0636 -0.2527 -0.8966
 3191TIP3   OH231063   4.730   3.572   5.385  0.7094  0.4778 -0.1521
 3191TIP3    H131064   4.779   3.589   5.465  2.6061 -1.3242 -0.8354
 3191TIP3    H231065   4.734   3.653   5.336 -2.5688  2.4986  2.4438
 3192TIP3   OH231066   6.315   4.227   1.515 -0.2896  0.2762 -0.1599
 3192TIP3    H131067   6.362   4.195   1.438  1.0194  0.5523  0.4955
 3192TIP3    H231068   6.324   4.157   1.579 -0.7418  0.3518 -0.0122
 3193TIP3   OH231069   0.328   4.198   4.984  0.1221  0.0419  0.2348
 3193TIP3    H131070   0.376   4.268   4.940  1.5526  0.8670  2.8803
 3193TIP3    H231071   0.236   4.226   4.982  0.3273  0.7037 -0.9111
 3194TIP3   OH231072   6.747   5.720  16.643 -0.4708  0.5677 -0.3901
 3194TIP3    H131073   6.837   5.728  16.613 -0.0050 -3.0340 -0.3910
 3194TIP3    H231074   6.752   5.733  16.738 -0.2026  1.5558 -0.5239
 3195TIP3   OH231075   4.696   3.492   1.402  0.3102 -0.1275 -0.1453
 3195TIP3    H131076   4.742   3.451   1.329  1.1609  2.1466 -0.9812
 3195TIP3    H231077   4.763   3.501   1.470  0.5907  1.2307 -0.5642
 3196TIP3   OH231078   1.359   4.286   1.021  0.1780  0.1775  0.0877
 3196TIP3    H131079   1.309   4.243   0.952  1.2151  1.1347 -1.3061
 3196TIP3    H231080   1.377   4.217   1.084 -0.5579 -0.7881 -0.7272
 3197TIP3   OH231081   0.157   0.314   0.372  0.4277 -0.6075  0.4398
 3197TIP3    H131082   0.184   0.377   0.439 -1.7965  0.7654  0.1570
 3197TIP3    H231083   0.061   0.311   0.379  0.4082 -3.8812  0.3026
 3198TIP3   OH231084   4.944   4.043  16.453  0.0887  0.0372 -0.5937
 3198TIP3    H131085   4.923   4.101  16.525  1.4607  1.4188 -1.2506
 3198TIP3    H231086   5.037   4.022  16.465  0.0361 -0.6798 -1.3003
 3199TIP3   OH231087   2.082   6.723  14.272  0.1320 -0.0755 -0.1978
 3199TIP3    H131088   2.103   6.680  14.189 -0.6967  0.9710 -0.9680
 3199TIP3    H231089   2.162   6.770  14.296 -0.0416  0.6937 -1.0964
 3200TIP3   OH231090   5.828   4.624  12.960 -0.3655 -0.1601  0.1293
 3200TIP3    H131091   5.779   4.685  12.905  1.3151  0.6017 -0.6034
 3200TIP3    H231092   5.861   4.558  12.899  1.6844  0.8052  0.1028
 3201TIP3   OH231093   0.896   6.587   2.297  0.0629 -0.2165 -0.0099
 3201TIP3    H131094   0.937   6.652   2.353 -0.9152  0.4433 -0.0276
 3201TIP3    H231095   0.952   6.583   2.220  0.8093 -0.3171  0.5344
 3202TIP3   OH231096   1.264   1.974   4.273  0.7420  0.0992 -0.3337
 3202TIP3    H131097   1.190   2.032   4.258  0.8754  0.3767  0.0494
 3202TIP3    H231098   1.277   1.929   4.190 -0.1612 -0.3145 -0.2694
 3203TIP3   OH231099   0.954   1.216  13.792 -0.8159 -1.0602  0.4396
 3203TIP3    H131100   0.960   1.123  13.817  1.9851 -1.4057 -1.0781
 3203TIP3    H231101   1.023   1.259  13.842 -0.4685 -0.2794 -0.6678
 3204TIP3   OH231102   4.637   2.809   5.724 -0.2944 -0.0837  0.1369
 3204TIP3    H131103   4.606   2.781   5.810 -0.1433  1.9275  0.9143
 3204TIP3    H231104   4.716   2.757   5.708 -1.3458 -1.8114  0.3252
 3205TIP3   OH231105   3.686   3.526   5.306  0.5568 -0.1725 -0.3705
 3205TIP3    H131106   3.722   3.468   5.373  0.9366 -0.7207 -1.0335
 3205TIP3    H231107   3.633   3.589   5.355 -3.4814 -3.5456  0.2023
 3206TIP3   OH231108   6.415   6.486   5.752  0.7583 -0.2870 -0.1158
 3206TIP3    H131109   6.363   6.559   5.721 -0.1952 -2.0151 -2.8895
 3206TIP3    H231110   6.360   6.443   5.817 -0.4023 -0.8345 -1.4302
 3207TIP3   OH231111   5.739   6.385   6.689 -0.3735 -0.0350 -0.5230
 3207TIP3    H131112   5.715   6.391   6.781 -2.0335 -1.5026 -0.7966
 3207TIP3    H231113   5.775   6.297   6.680 -1.6218 -0.4725 -1.5289
 3208TIP3   OH231114   6.355   1.969   2.712  0.4627  0.0639  0.6679
 3208TIP3    H131115   6.379   2.058   2.689  0.2137 -0.3501 -1.4112
 3208TIP3    H231116   6.261   1.973   2.732  0.3754  0.2323  0.2388
 3209TIP3   OH231117   2.365   5.106  16.990  0.4727 -0.4851  0.3904
 3209TIP3    H131118   2.368   5.071  16.901 -0.2272  0.8083 -0.1708
 3209TIP3    H231119   2.452   5.141  17.005  1.0829 -2.1025  0.8377
 3210TIP3   OH231120   3.062   3.724   5.262 -0.6670  0.3747 -0.7767
 3210TIP3    H131121   3.042   3.818   5.259 -1.6030  0.3816  2.3177
 3210TIP3    H231122   2.990   3.683   5.214 -1.7811  1.1311  0.1767
 3211TIP3   OH231123   6.367   5.219  16.915 -0.3342  0.6380 -0.5046
 3211TIP3    H131124   6.451   5.235  16.872 -0.4754  1.7131 -0.4101
 3211TIP3    H231125   6.352   5.297  16.968 -0.4316 -0.4190  1.0827
 3212TIP3   OH231126   3.155   0.888   5.944 -0.2688  0.0674 -0.2278
 3212TIP3    H131127   3.077   0.841   5.975 -0.6402  0.0508 -1.1559
 3212TIP3    H231128   3.190   0.930   6.022 -0.8162 -0.4958  0.3331
 3213TIP3   OH231129   0.284   0.105  14.612 -0.2639  0.3087  0.3502
 3213TIP3    H131130   0.250   0.116  14.523  2.4005  1.2907 -0.6574
 3213TIP3    H231131   0.254   0.018  14.638  0.0456 -0.6074 -2.0913
 3214TIP3   OH231132   3.391   3.540  16.459  0.3975  0.2347 -0.2565
 3214TIP3    H131133   3.410   3.450  16.483  0.2176  0.4322  0.6540
 3214TIP3    H231134   3.329   3.533  16.386  0.0687 -0.3823  0.0737
 3215TIP3   OH231135   4.931   0.105   4.452  0.4551  0.3299  0.2569
 3215TIP3    H131136   4.853   0.117   4.507  0.7028 -0.6719  0.8467
 3215TIP3    H231137   4.905   0.040   4.387  0.8984 -0.2714  0.6724
 3216TIP3   OH231138   1.926   5.564   5.167  0.0689  0.6023 -0.4540
 3216TIP3    H131139   1.966   5.494   5.219  1.5437  1.2791 -0.6418
 3216TIP3    H231140   1.991   5.585   5.101 -1.3589  0.4785 -1.9781
 3217TIP3   OH231141   0.146   5.262   4.695 -0.5010  0.2927 -0.5598
 3217TIP3    H131142   0.067   5.272   4.643 -0.5430  1.4574 -0.3085
 3217TIP3    H231143   0.129   5.313   4.775 -0.4752 -1.5066  0.6548
 3218TIP3   OH231144   0.541   2.319  13.493  0.3619 -0.3203  0.4037
 3218TIP3    H131145   0.461   2.371  13.485  0.3754 -0.0526  1.7479
 3218TIP3    H231146   0.514   2.239  13.538  0.8703 -0.1402  1.0499
 3219TIP3   OH231147   6.585   6.523   3.291  1.1626 -0.1203 -0.5849
 3219TIP3    H131148   6.641   6.598   3.272  0.7796  0.4804  0.5522
 3219TIP3    H231149   6.497   6.560   3.299  1.3252 -0.1619  2.7120
 3220TIP3   OH231150   6.308   1.311   2.972  0.5149 -0.4092 -0.5910
 3220TIP3    H131151   6.310   1.323   3.067 -1.7915 -0.9855 -0.4067
 3220TIP3    H231152   6.231   1.360   2.944  0.8924 -0.6358 -2.1188
 3221TIP3   OH231153   3.239   0.826   1.202 -0.7353 -0.7837  0.1960
 3221TIP3    H131154   3.260   0.733   1.203 -0.1564 -0.6923 -0.9631
 3221TIP3    H231155   3.143   0.828   1.195 -0.7029 -1.3151 -0.5873
 3222TIP3   OH231156   1.832   2.248   0.723 -0.2810 -0.1487 -0.0616
 3222TIP3    H131157   1.800   2.336   0.702  0.6794 -0.3821 -3.0179
 3222TIP3    H231158   1.753   2.198   0.742 -0.9840  0.9885  0.1242
 3223TIP3   OH231159   3.903   1.004  13.020  0.6927  0.5778  0.1948
 3223TIP3    H131160   3.936   0.972  13.104 -0.6355 -1.2408  0.0915
 3223TIP3    H231161   3.850   1.081  13.042 -0.3635 -0.3963  1.1805
 3224TIP3   OH231162   5.899   4.338  14.483  0.5647  0.5563  0.3143
 3224TIP3    H131163   5.937   4.333  14.570  1.1805  2.9810  0.2647
 3224TIP3    H231164   5.838   4.411  14.488 -0.1498  0.0818 -1.0244
 3225TIP3   OH231165   4.268   5.643   0.089 -0.7185 -0.3838  0.2216
 3225TIP3    H131166   4.340   5.704   0.101 -1.7196  0.7550  0.6254
 3225TIP3    H231167   4.268   5.591   0.170  0.3882 -1.2262 -0.2963
 3226TIP3   OH231168   1.788   5.681   0.398  0.4839 -0.0463 -0.1665
 3226TIP3    H131169   1.706   5.666   0.351 -0.6047  1.4768  1.1578
 3226TIP3    H231170   1.855   5.676   0.330 -0.8294 -0.0336 -1.5138
 3227TIP3   OH231171   0.092   3.298   2.886  0.1214  0.1994 -0.4016
 3227TIP3    H131172   0.170   3.246   2.904 -0.1514  0.3074  1.1987
 3227TIP3    H231173   0.125   3.380   2.849  0.7598  0.1801  0.1155
 3228TIP3   OH231174   5.958   4.490  11.710  0.3134 -0.2873  0.0369
 3228TIP3    H131175   5.905   4.426  11.758  0.2274 -1.1962 -1.2103
 3228TIP3    H231176   5.985   4.444  11.630  0.7592  1.0421 -0.6173
 3229TIP3   OH231177   3.127   0.652  12.467 -0.4721 -0.4393 -0.1585
 3229TIP3    H131178   3.070   0.576  12.480 -0.7803 -0.6096 -2.2281
 3229TIP3    H231179   3.109   0.708  12.542 -3.7112 -0.3025 -0.8815
 3230TIP3   OH231180   1.885   3.646  10.511  0.3679  0.3077 -0.1519
 3230TIP3    H131181   1.962   3.604  10.548  0.1126 -0.5677 -0.5925
 3230TIP3    H231182   1.913   3.736  10.491  1.3111 -0.0427 -0.4312
 3231TIP3   OH231183   5.152   0.605   0.038 -0.2995 -0.3834  0.3946
 3231TIP3    H131184   5.062   0.580   0.060 -0.2479  0.0036  1.0364
 3231TIP3    H231185   5.143   0.657  -0.042 -0.7612  0.6201  1.0900
 3232TIP3   OH231186   1.197   5.482  16.833 -0.2253 -0.8982  0.2334
 3232TIP3    H131187   1.119   5.457  16.882  0.3421 -1.4000  0.9106
 3232TIP3    H231188   1.185   5.444  16.746  0.4434 -3.3194  1.1107
 3233TIP3   OH231189   1.782   0.682  10.410  0.5823 -0.0804 -0.0900
 3233TIP3    H131190   1.748   0.594  10.428  0.6326  0.2064  1.5956
 3233TIP3    H231191   1.775   0.728  10.494  1.4529  1.2247 -0.6983
 3234TIP3   OH231192   2.745   3.324  13.249  0.5114 -0.3052 -0.1428
 3234TIP3    H131193   2.685   3.370  13.308  0.6822 -1.6836  1.1864
 3234TIP3    H231194   2.714   3.233  13.251  1.5915 -0.7024 -0.8215
 3235TIP3   OH231195   5.708   0.134  13.603 -0.4598  1.0331 -0.4075
 3235TIP3    H131196   5.623   0.154  13.643  0.3114  1.0013  1.3252
 3235TIP3    H231197   5.754   0.217  13.601  1.3915  0.3495  3.5351
 3236TIP3   OH231198   4.463   1.166  14.344 -0.7397  0.1125 -0.3298
 3236TIP3    H131199   4.451   1.257  14.371  0.1951  0.0620  0.2873
 3236TIP3    H231200   4.479   1.171  14.249  0.6805  0.7271 -0.0774
 3237TIP3   OH231201   4.532   1.684   1.289  0.2716  0.6218 -0.0997
 3237TIP3    H131202   4.501   1.598   1.259  0.6010 -0.0877  1.5001
 3237TIP3    H231203   4.627   1.680   1.279  0.3553  0.5030  0.6599
 3238TIP3   OH231204   3.307   6.689  15.875  0.1678 -0.0772 -0.0127
 3238TIP3    H131205   3.341   6.720  15.958  2.0894 -1.4413 -0.2041
 3238TIP3    H231206   3.335   6.597  15.870 -1.8299 -0.6981 -1.1844
 3239TIP3   OH231207   2.854   2.919   5.356  0.3733 -0.2843  0.2246
 3239TIP3    H131208   2.794   2.857   5.313 -0.2844  0.7397 -0.3930
 3239TIP3    H231209   2.869   2.883   5.443  0.3014 -1.4941 -0.2525
 3240TIP3   OH231210   2.002   6.349   5.034 -0.2590 -0.2007 -0.3050
 3240TIP3    H131211   1.974   6.315   4.949  0.9951  0.5009 -1.0161
 3240TIP3    H231212   2.089   6.312   5.047 -0.5056 -0.4428  0.7749
 3241TIP3   OH231213   4.562   3.901   0.389 -0.9208 -0.3771  0.6444
 3241TIP3    H131214   4.600   3.836   0.448 -0.8969  0.4205  1.5266
 3241TIP3    H231215   4.538   3.851   0.310  0.6573 -1.1446  0.6120
 3242TIP3   OH231216   1.670   1.483  14.675  0.5256 -0.1671 -0.1502
 3242TIP3    H131217   1.596   1.522  14.628  0.6404 -0.1342 -0.3031
 3242TIP3    H231218   1.727   1.449  14.607 -1.5276 -4.3905 -0.0454
 3243TIP3   OH231219   5.039   0.183  16.497 -0.6215 -0.2989 -0.3295
 3243TIP3    H131220   5.045   0.278  16.512 -2.3331  0.1585 -2.1576
 3243TIP3    H231221   4.969   0.154  16.554  0.7848 -0.7757  1.2415
 3244TIP3   OH231222   6.053   4.834  15.925 -0.2553  0.5155  0.7977
 3244TIP3    H131223   6.098   4.827  15.841 -0.0639 -0.1367  0.9443
 3244TIP3    H231224   6.015   4.921  15.925  0.9648  1.0693  0.6449
 3245TIP3   OH231225   2.330   5.716   2.578  0.3198  0.0359 -0.5450
 3245TIP3    H131226   2.355   5.686   2.666  0.5590 -0.0340 -0.6338
 3245TIP3    H231227   2.237   5.733   2.584  0.6860  1.9923  0.2793
 3246TIP3   OH231228   6.685   1.130   1.559  0.0381 -0.6562 -0.1012
 3246TIP3    H131229   6.781   1.133   1.550  0.2084 -0.4347  1.4271
 3246TIP3    H231230   6.670   1.149   1.651 -1.6164  1.7462 -0.7792
 3247TIP3   OH231231   1.124   0.808  16.936  0.2263 -0.7558  0.5675
 3247TIP3    H131232   1.089   0.743  16.875 -1.3912 -1.4239  2.1288
 3247TIP3    H231233   1.101   0.775  17.022  0.7818  1.1156  1.4779
 3248TIP3   OH231234   2.789   6.539   3.106  0.0389  0.0850  0.2798
 3248TIP3    H131235   2.778   6.539   3.011  0.9652  0.1738  0.1572
 3248TIP3    H231236   2.706   6.508   3.140 -0.1608 -0.3574 -0.5795
 3249TIP3   OH231237   6.803   6.739  12.076  0.3635 -0.8664  0.6445
 3249TIP3    H131238   6.773   6.653  12.046 -1.0763  0.2092 -1.2387
 3249TIP3    H231239   6.723   6.785  12.101  0.8043  0.7161 -0.6643
 3250TIP3   OH231240   0.332   4.114  12.275 -0.6669 -0.1133 -0.1816
 3250TIP3    H131241   0.310   4.207  12.266  0.0914  0.1984  0.9122
 3250TIP3    H231242   0.427   4.112  12.268 -0.8350 -1.3098 -3.9223
 3251TIP3   OH231243   6.151   4.716   3.479 -0.8714 -0.5099 -0.2828
 3251TIP3    H131244   6.090   4.764   3.534 -0.5556 -0.1698 -0.2236
 3251TIP3    H231245   6.124   4.737   3.389 -0.5299  0.0625 -0.2623
 3252TIP3   OH231246   2.747   2.433  14.941  0.1144  0.2096  0.6635
 3252TIP3    H131247   2.793   2.382  14.874  1.3816  0.4008  1.3403
 3252TIP3    H231248   2.701   2.501  14.892  0.7806  0.1739 -0.0425
 3253TIP3   OH231249   0.242   1.592  14.400  0.0290 -0.1768  0.1606
 3253TIP3    H131250   0.158   1.552  14.419 -0.5819  0.9055 -0.1756
 3253TIP3    H231251   0.246   1.594  14.304  1.1028 -1.5409  0.1389
 3254TIP3   OH231252   4.486   3.678  13.258  0.4946 -0.3495  0.5077
 3254TIP3    H131253   4.444   3.593  13.275  0.7725 -0.4727  0.5798
 3254TIP3    H231254   4.511   3.673  13.165 -2.1333  0.7981 -0.3618
 3255TIP3   OH231255   5.839   1.556  14.255  0.1672  0.0604  0.4346
 3255TIP3    H131256   5.868   1.647  14.249 -0.2336  0.1192 -0.9518
 3255TIP3    H231257   5.917   1.505  14.234 -0.1181  0.1673 -1.0279
 3256TIP3   OH231258   1.618   2.642   5.130 -0.0700 -0.8771 -0.0752
 3256TIP3    H131259   1.697   2.620   5.081  0.6938 -1.3741  1.3418
 3256TIP3    H231260   1.620   2.738   5.137  0.2359 -0.8649 -0.3050
 3257TIP3   OH231261   5.349   0.269   5.558  0.2124  0.2907 -0.2085
 3257TIP3    H131262   5.381   0.359   5.570  0.8556 -0.1869  2.2058
 3257TIP3    H231263   5.424   0.214   5.581 -0.5235 -0.8830 -0.5384
 3258TIP3   OH231264   2.464   0.725   4.853 -0.1155  0.0587 -0.4209
 3258TIP3    H131265   2.449   0.654   4.916 -0.8807  0.2655 -0.3629
 3258TIP3    H231266   2.388   0.722   4.795 -0.1093  0.7754 -0.4721
 3259TIP3   OH231267   3.044   2.036  17.247 -0.5633 -0.0303  0.4258
 3259TIP3    H131268   3.029   1.942  17.239  1.3294 -0.4174  1.0755
 3259TIP3    H231269   3.100   2.045  17.323  1.6834  1.3344 -1.2582
 3260TIP3   OH231270   4.304   1.416  17.129 -0.2598 -0.5750  0.1338
 3260TIP3    H131271   4.319   1.435  17.037  2.4968  0.6448  0.7485
 3260TIP3    H231272   4.351   1.334  17.144  2.7381  1.1550  1.1660
 3261TIP3   OH231273   3.764   6.469   1.617  0.0367 -0.1486 -0.6056
 3261TIP3    H131274   3.826   6.526   1.572  1.8242 -0.5832  1.1749
 3261TIP3    H231275   3.812   6.388   1.632 -0.4632 -0.0583  1.9628
 3262TIP3   OH231276   5.852   5.111   3.323 -0.0731  0.4486 -0.0316
 3262TIP3    H131277   5.908   5.153   3.388 -0.5977 -0.9612  1.3894
 3262TIP3    H231278   5.786   5.178   3.302  0.1326  0.9430  0.8470
 3263TIP3   OH231279   3.512   1.559   3.133  0.2132  0.3984 -0.4800
 3263TIP3    H131280   3.514   1.644   3.177 -0.7204  0.4918 -0.6001
 3263TIP3    H231281   3.570   1.504   3.186 -0.5183  0.6363  0.6049
 3264TIP3   OH231282   0.447   6.025  14.500 -0.4074  0.0542  0.9968
 3264TIP3    H131283   0.414   6.020  14.590  0.2856  0.6506  1.3024
 3264TIP3    H231284   0.446   5.935  14.468 -2.8037  0.1052  0.7875
 3265TIP3   OH231285   4.771   5.230   2.475  0.2916 -0.4564  0.3588
 3265TIP3    H131286   4.776   5.161   2.408  0.1669  1.0034 -1.2014
 3265TIP3    H231287   4.822   5.302   2.439 -0.1531  0.5389  1.6651
 3266TIP3   OH231288   6.538   0.350   4.727 -0.1443 -0.3719  0.5717
 3266TIP3    H131289   6.569   0.291   4.796 -0.4222 -0.1835  0.8560
 3266TIP3    H231290   6.615   0.365   4.672 -0.3037 -1.8306 -0.1017
 3267TIP3   OH231291   3.628   5.804   0.967  0.4090 -0.3269 -0.1194
 3267TIP3    H131292   3.616   5.787   1.061  0.2791 -0.6631 -0.1946
 3267TIP3    H231293   3.652   5.719   0.931 -0.5422 -0.4305 -0.5509
 3268TIP3   OH231294   2.335   5.329   0.885  0.2159  0.0287  0.1686
 3268TIP3    H131295   2.319   5.423   0.878  0.7732  0.1547  0.5814
 3268TIP3    H231296   2.248   5.292   0.903  0.1280  0.5530  0.8571
 3269TIP3   OH231297   2.402   6.245  15.890  0.3436  0.8860 -0.2888
 3269TIP3    H131298   2.405   6.290  15.974  0.3200  0.0322  0.1790
 3269TIP3    H231299   2.423   6.312  15.825  3.0849  0.9853  0.5987
 3270TIP3   OH231300   1.668   4.499   1.750 -0.1983  0.6176  0.1263
 3270TIP3    H131301   1.753   4.506   1.707  0.3800 -0.5036  1.0444
 3270TIP3    H231302   1.659   4.406   1.770 -1.8651  0.6328 -0.3697
 3271TIP3   OH231303   0.354   2.712   1.034 -0.2266 -0.3216 -0.4461
 3271TIP3    H131304   0.426   2.773   1.019 -0.2129  0.1511  1.3082
 3271TIP3    H231305   0.396   2.626   1.032  0.3673 -0.0681  0.2773
 3272TIP3   OH231306   2.142   3.710   1.593  0.1074 -0.1587  0.0764
 3272TIP3    H131307   2.085   3.648   1.638  1.2998 -0.5836  1.0385
 3272TIP3    H231308   2.227   3.701   1.636  1.2865 -0.5072 -2.1669
 3273TIP3   OH231309   0.428   1.018  10.659 -0.6968  0.1333 -0.0303
 3273TIP3    H131310   0.340   1.018  10.620 -1.0968  1.4494  0.7966
 3273TIP3    H231311   0.443   1.110  10.683  0.3316 -0.3095  1.0901
 3274TIP3   OH231312   2.723   0.002   5.526  0.2065  0.1720  0.3209
 3274TIP3    H131313   2.753   0.049   5.448 -0.6710 -0.0171 -0.1433
 3274TIP3    H231314   2.762  -0.085   5.517  0.4405  0.2773  0.3049
 3275TIP3   OH231315   5.763   1.283  13.781 -0.0415  0.4122 -0.1951
 3275TIP3    H131316   5.848   1.271  13.823  0.1186  0.8813 -0.3813
 3275TIP3    H231317   5.765   1.223  13.706 -1.0897 -1.9503  1.5086
 3276TIP3   OH231318   6.585   4.607  16.666 -0.1941  0.3441 -0.7506
 3276TIP3    H131319   6.509   4.596  16.722 -0.4723 -0.8695 -1.3381
 3276TIP3    H231320   6.635   4.526  16.676  0.9347  1.0365 -0.5253
 3277TIP3   OH231321   2.569   2.391   2.086 -0.4157 -0.1419 -0.1831
 3277TIP3    H131322   2.480   2.374   2.053 -0.3481  0.3591 -0.6380
 3277TIP3    H231323   2.577   2.486   2.084  0.2319 -0.2002 -0.4074
 3278TIP3   OH231324   6.010   5.280  13.418  0.5845  0.3138 -0.5863
 3278TIP3    H131325   5.934   5.222  13.409  0.9711 -0.2815 -0.0599
 3278TIP3    H231326   5.980   5.364  13.381 -1.0794  0.7737  1.5829
 3279TIP3   OH231327   2.070   0.709  11.093  0.1423 -0.4387 -0.0208
 3279TIP3    H131328   2.023   0.664  11.024  0.3885 -0.4928 -0.1554
 3279TIP3    H231329   2.013   0.782  11.118 -0.2193 -0.7763  0.1411
 3280TIP3   OH231330   6.271   3.567  16.380  0.2389 -0.6480  0.5650
 3280TIP3    H131331   6.354   3.560  16.333  0.0868  0.7026  0.0560
 3280TIP3    H231332   6.272   3.655  16.418 -0.9392 -0.6288  0.5814
 3281TIP3   OH231333   3.956   4.814   3.564 -0.9847  0.1199 -0.1478
 3281TIP3    H131334   3.884   4.777   3.513  1.0472 -1.5938 -1.9870
 3281TIP3    H231335   3.942   4.908   3.560 -1.6950  0.0005 -2.8377
 3282TIP3   OH231336   1.516   5.323   0.525  0.0579  0.2518  0.2053
 3282TIP3    H131337   1.422   5.322   0.509  0.1448 -1.7057 -0.4423
 3282TIP3    H231338   1.552   5.375   0.454 -0.5080  0.9749  0.4325
 3283TIP3   OH231339   3.774   0.253  10.832 -0.7653  0.3011  0.6996
 3283TIP3    H131340   3.755   0.212  10.747  0.6517 -3.1746  1.8755
 3283TIP3    H231341   3.868   0.271  10.828 -0.3987 -1.1654  1.9480
 3284TIP3   OH231342   2.136   5.456  13.611  0.3155 -0.0992 -0.5641
 3284TIP3    H131343   2.108   5.531  13.559 -0.2439 -0.3978 -0.7000
 3284TIP3    H231344   2.231   5.457  13.605  0.2794  0.1766 -1.1566
 3285TIP3   OH231345   1.155   0.715  13.572  0.3311  0.4327  0.0102
 3285TIP3    H131346   1.241   0.679  13.593  1.3221  1.5692 -1.7992
 3285TIP3    H231347   1.169   0.810  13.572 -0.7506  0.6036 -0.9796
 3286TIP3   OH231348   2.667   0.310   5.333  0.4689 -0.1727 -0.4008
 3286TIP3    H131349   2.692   0.313   5.240  0.6954  0.1450 -0.3325
 3286TIP3    H231350   2.742   0.349   5.378  0.7375 -1.1250 -0.0080
 3287TIP3   OH231351   1.423   2.526  11.752 -0.2177  0.2833  0.4113
 3287TIP3    H131352   1.381   2.480  11.679  0.0100  0.2256  0.3147
 3287TIP3    H231353   1.506   2.558  11.716 -0.3709  0.7707  0.4775
 3288TIP3   OH231354   6.043   3.067  12.368 -0.5256 -0.4725  0.6624
 3288TIP3    H131355   6.073   3.078  12.458 -0.2611  0.5949  0.4571
 3288TIP3    H231356   5.948   3.067  12.374 -0.5269  0.6517  0.8456
 3289TIP3   OH231357   2.075   2.532  16.526  0.4239  0.2154  0.0376
 3289TIP3    H131358   2.098   2.615  16.483  0.5802  0.7453  1.1152
 3289TIP3    H231359   2.117   2.537  16.611  0.1008 -0.8133  0.2688
 3290TIP3   OH231360   6.685   3.490   6.745  0.3110  0.3254 -0.3166
 3290TIP3    H131361   6.654   3.557   6.806 -1.6649 -0.9663  0.1847
 3290TIP3    H231362   6.753   3.443   6.794 -0.3240  0.1469  0.4208
 3291TIP3   OH231363   2.357   4.315  14.651  0.2427  0.6730 -0.2354
 3291TIP3    H131364   2.446   4.342  14.629  0.2794 -1.0703 -2.6002
 3291TIP3    H231365   2.340   4.241  14.593 -3.4857  2.1575 -1.2620
 3292TIP3   OH231366   3.288   0.538  14.109  0.1337  0.0837 -0.1934
 3292TIP3    H131367   3.272   0.627  14.139  0.8289  0.0976  0.1581
 3292TIP3    H231368   3.203   0.494  14.115 -0.2020  0.7115 -0.3371
 3293TIP3   OH231369   3.411   4.589  11.120  0.3161 -0.1443  0.3088
 3293TIP3    H131370   3.334   4.617  11.071  1.1483  1.5141 -0.1279
 3293TIP3    H231371   3.463   4.669  11.130  2.2335 -1.3220  0.1083
 3294TIP3   OH231372   2.808   2.609  10.438  0.3229 -0.0407 -0.3171
 3294TIP3    H131373   2.889   2.592  10.485  1.2132  1.2360 -1.3441
 3294TIP3    H231374   2.739   2.579  10.498  1.5434 -2.1546  0.1406
 3295TIP3   OH231375   4.753   0.149   2.446 -0.3583  0.5458 -0.3427
 3295TIP3    H131376   4.743   0.061   2.410  0.3633  0.7279 -1.0433
 3295TIP3    H231377   4.757   0.137   2.541 -2.1405  0.0288 -0.2987
 3296TIP3   OH231378   3.635   2.872   4.417 -0.1636  0.3469  0.1473
 3296TIP3    H131379   3.661   2.953   4.374 -0.5109  0.5209  0.2610
 3296TIP3    H231380   3.659   2.803   4.355  1.0781  0.4499  0.4783
 3297TIP3   OH231381   2.398   2.091   2.288 -0.4199 -0.1625 -0.2341
 3297TIP3    H131382   2.405   2.140   2.370  0.4925 -1.2313  0.3456
 3297TIP3    H231383   2.366   2.156   2.225 -1.4422  0.6048  1.0087
 3298TIP3   OH231384   6.760   1.586  15.131  0.1969  0.1857 -0.1398
 3298TIP3    H131385   6.806   1.623  15.207 -1.8838  3.4831 -0.2909
 3298TIP3    H231386   6.813   1.614  15.056 -0.4910  1.5513 -0.1480
 3299TIP3   OH231387   1.639   0.417  16.187 -0.2858 -0.0959  0.1882
 3299TIP3    H131388   1.660   0.324  16.190  0.2479 -0.0290 -0.9711
 3299TIP3    H231389   1.552   0.423  16.227 -0.3920 -1.1082  0.1329
 3300TIP3   OH231390   2.728   3.444  11.765 -0.5177  0.1980 -0.0561
 3300TIP3    H131391   2.816   3.481  11.771 -0.1356 -0.8683  1.3016
 3300TIP3    H231392   2.727   3.398  11.681 -0.3835  1.6172 -0.8846
 3301TIP3   OH231393   2.905   6.291   0.665 -0.4454 -0.5162  0.0779
 3301TIP3    H131394   2.886   6.199   0.647  0.1848 -0.3509 -1.6569
 3301TIP3    H231395   2.993   6.291   0.702 -0.0844 -0.5541 -0.7666
 3302TIP3   OH231396   2.176   3.042  15.476  0.2075  0.3860 -0.3326
 3302TIP3    H131397   2.116   2.973  15.504  1.6368 -0.7605  0.0195
 3302TIP3    H231398   2.152   3.059  15.385 -0.2993 -0.4393 -0.3650
 3303TIP3   OH231399   6.506   0.656  14.419 -0.6697 -0.0271  0.2818
 3303TIP3    H131400   6.417   0.621  14.415 -0.6404 -0.5648  2.8599
 3303TIP3    H231401   6.549   0.619  14.342 -2.6184  0.1903 -0.9885
 3304TIP3   OH231402   0.008   3.585  16.159  0.5352 -0.4561  0.4671
 3304TIP3    H131403   0.049   3.653  16.104 -3.4853 -0.2091 -2.6316
 3304TIP3    H231404   0.053   3.505  16.134  0.0115 -0.0640 -2.0359
 3305TIP3   OH231405   4.738   0.451   3.448  0.0150 -0.3051  0.3938
 3305TIP3    H131406   4.790   0.436   3.527  1.6544 -3.2967 -1.0739
 3305TIP3    H231407   4.777   0.529   3.408  0.9819 -0.3856  1.1464
 3306TIP3   OH231408   3.839   2.411  12.009 -0.0794  0.2351  0.0275
 3306TIP3    H131409   3.758   2.436  11.964  0.4779 -2.0478 -2.4802
 3306TIP3    H231410   3.909   2.447  11.955  0.6202  0.0335  0.7755
 3307TIP3   OH231411   4.175   0.795  10.510  0.1153  0.0949 -0.0782
 3307TIP3    H131412   4.126   0.720  10.544  0.2883 -0.2200 -0.5211
 3307TIP3    H231413   4.111   0.865  10.505  0.2645  0.4140  1.7348
 3308TIP3   OH231414   1.059   0.267  11.460 -0.9007  0.0532 -0.1884
 3308TIP3    H131415   0.969   0.263  11.430 -1.6649 -1.3192  2.0258
 3308TIP3    H231416   1.108   0.305  11.387 -3.1395  0.2118 -1.6788
 3309TIP3   OH231417   5.328   1.753  13.077 -0.1971 -0.0574  0.0766
 3309TIP3    H131418   5.270   1.698  13.024  0.5182 -1.5608  0.7958
 3309TIP3    H231419   5.388   1.792  13.013 -0.5857 -0.2583 -0.4267
 3310TIP3   OH231420   5.401   1.154  10.681  0.9518 -0.3687 -0.1838
 3310TIP3    H131421   5.429   1.063  10.680  0.1579 -0.6232 -0.0801
 3310TIP3    H231422   5.461   1.198  10.742 -0.1046 -1.3001  1.5858
 3311TIP3   OH231423   1.186   5.584  14.464  0.9398  0.0466  0.0582
 3311TIP3    H131424   1.183   5.678  14.480  0.7970  0.1500 -0.5392
 3311TIP3    H231425   1.128   5.571  14.389 -1.9810 -1.0031  2.3369
 3312TIP3   OH231426   1.954   0.781   0.256 -0.6975  0.0373  0.2568
 3312TIP3    H131427   1.947   0.825   0.340 -1.5888  1.2052 -0.3976
 3312TIP3    H231428   1.878   0.811   0.206 -1.3295 -2.2001 -0.2798
 3313TIP3   OH231429   2.562   4.481  15.852  0.7022 -0.6152  0.5611
 3313TIP3    H131430   2.612   4.452  15.777 -1.2848  0.2306 -1.2095
 3313TIP3    H231431   2.507   4.406  15.875  1.6180 -1.0166  1.4701
 3314TIP3   OH231432   0.495   2.386   6.270  0.0993  0.2021  0.2614
 3314TIP3    H131433   0.399   2.394   6.277 -0.0961 -0.4705 -1.3094
 3314TIP3    H231434   0.513   2.300   6.308 -0.0890 -0.2277 -0.5934
 3315TIP3   OH231435   4.813   4.358   4.853 -0.5008  0.5507  0.1592
 3315TIP3    H131436   4.861   4.410   4.916 -2.3855  1.1122  1.2222
 3315TIP3    H231437   4.855   4.272   4.855  0.1384  0.8747  1.3678
 3316TIP3   OH231438   4.599   5.376  14.252  0.8084  0.2258  0.1604
 3316TIP3    H131439   4.609   5.339  14.339 -1.0903  0.5133  0.5435
 3316TIP3    H231440   4.598   5.301  14.193 -0.1290 -0.1452  0.6348
 3317TIP3   OH231441   3.941   2.843   0.728  0.5810 -0.3061 -0.4544
 3317TIP3    H131442   3.898   2.913   0.778 -1.1103 -1.3795 -0.3155
 3317TIP3    H231443   3.885   2.830   0.652 -0.2310 -2.7132  0.4477
 3318TIP3   OH231444   3.411   3.424   6.012 -0.3103 -0.5269  0.2514
 3318TIP3    H131445   3.430   3.485   6.084 -2.0441  1.0033 -0.5077
 3318TIP3    H231446   3.420   3.337   6.052  1.1786  0.2104  1.6510
 3319TIP3   OH231447   0.915   5.611  13.995 -0.1023  0.2261 -0.1693
 3319TIP3    H131448   0.987   5.652  13.948  1.0098 -0.7375  0.6309
 3319TIP3    H231449   0.851   5.590  13.927  1.2127 -0.6280 -1.2018
 3320TIP3   OH231450   5.950   4.035   5.449  0.8350  0.0338 -0.2036
 3320TIP3    H131451   5.977   3.964   5.508  2.2791  1.7384  1.2943
 3320TIP3    H231452   5.915   4.103   5.506  2.8192  1.9878 -1.1564
 3321TIP3   OH231453   4.075   5.881   1.288  0.0384  0.1831 -0.3325
 3321TIP3    H131454   4.086   5.791   1.319  0.3367  0.7520  1.3007
 3321TIP3    H231455   4.091   5.876   1.194 -3.3816 -2.0850 -0.9768
 3322TIP3   OH231456   2.464   1.953  15.981  0.2414  0.0513  0.0007
 3322TIP3    H131457   2.557   1.973  15.979  0.0112  1.2245 -2.1762
 3322TIP3    H231458   2.436   1.976  16.069  2.4135 -2.6124  1.5476
 3323TIP3   OH231459   3.796   3.696   6.327  0.0915  0.0297 -0.7311
 3323TIP3    H131460   3.858   3.760   6.363  1.6577 -2.1453  0.7338
 3323TIP3    H231461   3.730   3.686   6.396  0.0498 -0.1886 -0.8027
 3324TIP3   OH231462   2.995   4.176   5.828 -0.4001 -0.0962 -0.0976
 3324TIP3    H131463   2.928   4.123   5.872  0.3879 -0.0590  1.2106
 3324TIP3    H231464   3.009   4.133   5.744  0.4043 -2.1545  1.0233
 3325TIP3   OH231465   4.486   5.302  13.002 -0.4210 -0.0473 -0.1092
 3325TIP3    H131466   4.561   5.335  12.952 -0.1987 -0.9586 -0.3946
 3325TIP3    H231467   4.419   5.370  12.993  0.2269  0.5930 -0.1904
 3326TIP3   OH231468   3.421   0.824   1.832  0.6258  0.5669 -0.6400
 3326TIP3    H131469   3.370   0.891   1.876  0.9482  0.2580  0.2293
 3326TIP3    H231470   3.359   0.752   1.817  0.6187  0.5022 -0.2962
 3327TIP3   OH231471   1.914   5.423   3.615  0.4228  0.4360 -0.3378
 3327TIP3    H131472   1.863   5.407   3.694 -0.1365  2.3350 -0.2752
 3327TIP3    H231473   1.993   5.468   3.645  0.8610 -0.0333 -0.7391
 3328TIP3   OH231474   3.321   6.803  13.269 -0.5264  0.1707  0.2038
 3328TIP3    H131475   3.344   6.867  13.201  1.2919 -1.4169 -0.7725
 3328TIP3    H231476   3.378   6.825  13.343  0.8004 -0.8419 -0.4788
 3329TIP3   OH231477   0.757   3.873  12.871 -0.1078  0.4182 -0.1067
 3329TIP3    H131478   0.754   3.963  12.904 -0.4662 -0.0660  1.2459
 3329TIP3    H231479   0.667   3.842  12.878  0.1608 -0.3069  0.1967
 3330TIP3   OH231480   3.846   3.974   1.773 -0.4469 -0.1338 -0.0242
 3330TIP3    H131481   3.804   4.040   1.717 -0.3452  0.1144  0.1912
 3330TIP3    H231482   3.940   3.988   1.761 -0.4244 -0.2362  0.0292
 3331TIP3   OH231483   4.107   3.076   1.004 -0.6607  0.0826 -0.1593
 3331TIP3    H131484   4.059   3.106   0.926 -1.9462  2.5709  1.4532
 3331TIP3    H231485   4.132   2.986   0.984 -3.4514 -0.3350 -2.3140
 3332TIP3   OH231486   4.702   0.693   5.842 -0.2757  0.2840 -0.1599
 3332TIP3    H131487   4.656   0.758   5.789 -0.7377  0.6403  0.6477
 3332TIP3    H231488   4.658   0.696   5.927  2.0947  1.6865  1.1465
 3333TIP3   OH231489   0.418   6.048  12.748 -0.0128 -0.0649  0.3856
 3333TIP3    H131490   0.430   6.052  12.653  0.4634  1.1317  0.4717
 3333TIP3    H231491   0.504   6.073  12.783 -0.7930  1.8185  1.0910
 3334TIP3   OH231492   2.405   6.046   3.919  0.3179 -0.0844 -0.4063
 3334TIP3    H131493   2.314   6.045   3.890 -0.3768 -0.2367  1.5734
 3334TIP3    H231494   2.445   6.118   3.870 -0.8412 -0.0822 -1.3892
 3335TIP3   OH231495   1.046   6.818   5.213  0.2443 -0.3671  0.1125
 3335TIP3    H131496   1.004   6.901   5.188  1.3833 -0.1055 -1.0449
 3335TIP3    H231497   1.032   6.812   5.307 -2.7914 -0.5490 -0.2362
 3336TIP3   OH231498   2.880   3.933  13.840 -0.3409 -0.0976 -0.3613
 3336TIP3    H131499   2.962   3.919  13.792 -1.6958 -2.8718 -2.0618
 3336TIP3    H231500   2.851   4.020  13.813  1.7694  0.7688 -0.0477
 3337TIP3   OH231501   3.442   4.561  12.291 -0.3151 -0.0132 -0.2939
 3337TIP3    H131502   3.353   4.562  12.324 -0.1345 -0.4766  0.2035
 3337TIP3    H231503   3.491   4.615  12.353  0.1426 -1.3618  0.5600
 3338TIP3   OH231504   1.016   6.355   1.199 -0.1961  0.4602 -0.1716
 3338TIP3    H131505   0.976   6.329   1.282 -1.2878 -0.1185 -0.8575
 3338TIP3    H231506   1.027   6.450   1.206 -0.8691  0.5037  0.3906
 3339TIP3   OH231507   4.690   5.614  13.342  0.0785 -0.5593 -0.7533
 3339TIP3    H131508   4.670   5.521  13.335 -0.5444 -0.4433 -0.6527
 3339TIP3    H231509   4.649   5.641  13.424 -1.2672  0.1514 -1.5992
 3340TIP3   OH231510   1.651   3.774  13.062 -0.2108 -0.3974  0.1655
 3340TIP3    H131511   1.673   3.681  13.069 -0.9471 -0.5236  0.9680
 3340TIP3    H231512   1.648   3.804  13.152 -0.1548  0.3708 -0.0860
 3341TIP3   OH231513   0.217   3.370  17.149  0.2538  0.0492 -0.2959
 3341TIP3    H131514   0.122   3.361  17.158  0.1811  1.4533  0.8439
 3341TIP3    H231515   0.229   3.455  17.107  0.9899 -1.1831 -2.7350
 3342TIP3   OH231516   6.049   2.527  12.677  0.1928  0.7765 -0.7200
 3342TIP3    H131517   5.969   2.486  12.643  0.0646  0.5304 -0.1391
 3342TIP3    H231518   6.110   2.454  12.689 -0.6535  0.4151  2.0821
 3343TIP3   OH231519   3.517   4.770   2.410  0.0928  0.3851  0.9141
 3343TIP3    H131520   3.612   4.762   2.420  0.2900 -4.9661 -1.6029
 3343TIP3    H231521   3.504   4.853   2.364  3.5909  1.1160  1.0208
 3344TIP3   OH231522   0.718   3.033  16.332 -0.0294 -0.2344 -0.1687
 3344TIP3    H131523   0.710   2.990  16.247  0.0101  0.1686 -0.3772
 3344TIP3    H231524   0.705   2.963  16.396 -2.4559 -0.1566 -0.4767
 3345TIP3   OH231525   2.531   5.717   1.019 -0.2463 -0.2651  0.0467
 3345TIP3    H131526   2.532   5.680   1.108 -0.1166 -1.9180 -0.6115
 3345TIP3    H231527   2.492   5.803   1.030 -0.9352 -0.7337  1.6033
 3346TIP3   OH231528   1.905   0.342  13.560 -0.0696  0.0956  0.2890
 3346TIP3    H131529   1.891   0.395  13.481  1.7805  0.7685  0.3475
 3346TIP3    H231530   1.960   0.397  13.616 -0.0533 -0.9841  1.3666
 3347TIP3   OH231531   2.917   4.409  11.244  0.6835 -0.1702  0.1341
 3347TIP3    H131532   2.903   4.469  11.171  0.2998  1.1932  1.2664
 3347TIP3    H231533   3.010   4.387  11.240  0.2032 -2.2621 -2.2742
 3348TIP3   OH231534   3.283   3.910   5.536  0.4502  0.0047  0.2140
 3348TIP3    H131535   3.375   3.912   5.564  0.6934  1.5906 -0.5801
 3348TIP3    H231536   3.282   3.849   5.462  0.8321 -0.1411  0.3266
 3349TIP3   OH231537   6.545   4.255   0.338 -0.3288  0.1225 -0.2178
 3349TIP3    H131538   6.637   4.232   0.333 -0.7377 -2.0342  0.8630
 3349TIP3    H231539   6.506   4.215   0.261 -0.6826 -0.9231  0.4797
 3350TIP3   OH231540   6.228   2.267   3.435  0.1212  0.2916  0.5362
 3350TIP3    H131541   6.191   2.308   3.357 -0.6017  0.2034  0.8185
 3350TIP3    H231542   6.182   2.309   3.508  0.4979  0.0855  0.8997
 3351TIP3   OH231543   6.237   2.559   1.858 -0.6745 -0.1093  0.5424
 3351TIP3    H131544   6.244   2.559   1.763 -0.4068 -0.2030  0.5602
 3351TIP3    H231545   6.181   2.633   1.879 -0.3373  0.2025  0.3384
 3352TIP3   OH231546   3.392   0.148  13.536 -0.1913  0.0144 -0.0354
 3352TIP3    H131547   3.344   0.135  13.618  0.2685 -1.5025  0.0247
 3352TIP3    H231548   3.472   0.193  13.562 -0.2173 -0.1234  0.2958
 3353TIP3   OH231549   6.807   2.493  10.583  0.0233  0.3369 -0.2471
 3353TIP3    H131550   6.882   2.541  10.549  0.4251 -0.1063 -0.0055
 3353TIP3    H231551   6.736   2.556  10.584  0.5810  0.9728  0.2016
 3354TIP3   OH231552   3.833   5.067  14.395 -0.0575  0.2343 -0.3427
 3354TIP3    H131553   3.743   5.088  14.370 -0.3207  0.7930  0.9872
 3354TIP3    H231554   3.835   5.081  14.490  0.9983 -1.3760 -0.1006
 3355TIP3   OH231555   2.948   5.841   5.070 -0.2328 -0.3413  0.0474
 3355TIP3    H131556   2.943   5.932   5.039 -0.8940 -0.1066  0.7954
 3355TIP3    H231557   3.037   5.814   5.049 -0.3687  0.1026 -1.1990
 3356TIP3   OH231558   1.503   3.597   5.766  0.3486 -0.4841  0.3288
 3356TIP3    H131559   1.542   3.524   5.815 -0.5613 -2.1176 -1.2383
 3356TIP3    H231560   1.420   3.614   5.811 -0.3214 -1.7450 -0.3495
 3357TIP3   OH231561   1.340   1.213   4.264 -0.1347 -0.0560 -0.2429
 3357TIP3    H131562   1.345   1.270   4.340 -0.5047 -2.3491  1.6297
 3357TIP3    H231563   1.247   1.201   4.249 -0.1080  1.4961 -2.0527
 3358TIP3   OH231564   5.446   3.318   4.077 -0.1210  0.0714 -0.2397
 3358TIP3    H131565   5.522   3.303   4.134  0.1775  0.7591 -0.4550
 3358TIP3    H231566   5.371   3.296   4.132  0.1816  0.3877  0.3046
 3359TIP3   OH231567   5.883   5.749  11.246 -0.2745  0.0659 -0.0428
 3359TIP3    H131568   5.808   5.691  11.258 -0.7066  0.8019  0.9340
 3359TIP3    H231569   5.845   5.835  11.228  0.3486  0.2305 -0.6426
 3360TIP3   OH231570   5.312   2.982  15.746  0.3226 -0.4232  0.3332
 3360TIP3    H131571   5.279   2.997  15.658  2.2024  0.0608 -0.3426
 3360TIP3    H231572   5.287   3.060  15.796  3.4834  1.7601 -1.1514
 3361TIP3   OH231573   3.490   3.680  16.012  0.1711 -0.1905 -0.7526
 3361TIP3    H131574   3.555   3.687  15.942  0.2281 -0.2616 -0.7061
 3361TIP3    H231575   3.537   3.640  16.085 -0.2628 -1.4744 -1.1479
 3362TIP3   OH231576   6.433   5.078  15.375  0.9010  0.0398 -0.1445
 3362TIP3    H131577   6.343   5.070  15.345  0.9336  0.6155 -0.4048
 3362TIP3    H231578   6.465   5.159  15.335  0.5706  1.5241  2.3661
 3363TIP3   OH231579   0.162   5.426  15.011 -0.3634  0.0053 -0.1712
 3363TIP3    H131580   0.177   5.418  14.916  0.2237  0.1176 -0.0925
 3363TIP3    H231581   0.151   5.520  15.025  3.0669  0.4706  0.3333
 3364TIP3   OH231582   6.148   1.546   1.050  0.4062  0.4856 -0.3342
 3364TIP3    H131583   6.109   1.463   1.023 -0.0833  0.3663  0.7161
 3364TIP3    H231584   6.202   1.572   0.975 -0.2977 -0.2239 -1.1092
 3365TIP3   OH231585   5.912   4.322  12.934  0.4509  0.2649 -0.2216
 3365TIP3    H131586   5.998   4.331  12.894  0.2635 -0.9886 -0.9686
 3365TIP3    H231587   5.850   4.347  12.865  0.1966  0.9424  0.2368
 3366TIP3   OH231588   4.424   2.604  12.180 -0.8601  0.2240 -0.3027
 3366TIP3    H131589   4.451   2.513  12.192 -0.8611  0.1002 -1.1471
 3366TIP3    H231590   4.505   2.652  12.164 -0.8249  0.4393  0.4962
 3367TIP3   OH231591   5.283   4.948   0.230 -0.4202 -0.6995 -0.5566
 3367TIP3    H131592   5.345   4.985   0.294  0.3540 -1.6037 -0.7640
 3367TIP3    H231593   5.311   4.985   0.146  0.4045 -1.7614 -0.7764
 3368TIP3   OH231594   5.850   6.230  15.199 -0.1865  0.0982 -0.1121
 3368TIP3    H131595   5.844   6.309  15.146 -1.1583 -0.1073 -0.3284
 3368TIP3    H231596   5.834   6.158  15.137 -0.8032 -0.1704  0.3398
 3369TIP3   OH231597   6.148   2.442  16.759  0.2936  0.3947 -0.1107
 3369TIP3    H131598   6.117   2.417  16.846  0.2610  0.9471  0.0339
 3369TIP3    H231599   6.174   2.359  16.719 -1.3320 -0.0886 -0.2278
 3370TIP3   OH231600   3.244   5.006   2.511 -0.5235 -0.2680  0.1373
 3370TIP3    H131601   3.193   5.007   2.592 -1.9147 -0.5652 -0.6968
 3370TIP3    H231602   3.324   4.958   2.533 -1.2992 -1.1653  1.0982
 3371TIP3   OH231603   4.421   5.677   5.499  0.4293 -0.5478  0.6357
 3371TIP3    H131604   4.505   5.686   5.545  0.4275 -0.6741  0.6648
 3371TIP3    H231605   4.377   5.761   5.512  1.1861  0.0653 -0.6754
 3372TIP3   OH231606   4.945   4.443  16.914 -0.5512 -0.3701  0.0525
 3372TIP3    H131607   4.880   4.393  16.964 -0.2418 -1.8123 -0.9404
 3372TIP3    H231608   5.010   4.469  16.979 -2.1886  1.3620  1.1388
 3373TIP3   OH231609   5.649   5.584  16.757 -0.3131 -0.0401 -0.3638
 3373TIP3    H131610   5.708   5.542  16.694 -0.1129  1.1707 -1.0121
 3373TIP3    H231611   5.582   5.626  16.704  0.1324  1.4190  0.1761
 3374TIP3   OH231612   0.820   1.203   0.166  0.1729  0.1051  0.0538
 3374TIP3    H131613   0.778   1.160   0.091 -0.5825 -0.9747  1.0430
 3374TIP3    H231614   0.788   1.154   0.242 -0.3753  2.1712  1.2274
 3375TIP3   OH231615   1.814   6.389  17.084 -0.2621  0.0640  0.0943
 3375TIP3    H131616   1.852   6.469  17.118  0.6225 -0.2008 -0.2312
 3375TIP3    H231617   1.888   6.330  17.073 -0.9331 -0.9188  0.6363
 3376TIP3   OH231618   5.126   4.677   0.619  0.1988  0.0596 -0.2681
 3376TIP3    H131619   5.138   4.587   0.648 -0.1930 -0.7241 -2.3400
 3376TIP3    H231620   5.177   4.683   0.538 -0.5507  1.4165 -0.6836
 3377TIP3   OH231621   3.311   3.388  17.016 -0.3787 -0.5500 -0.4370
 3377TIP3    H131622   3.375   3.385  17.086  1.0219 -1.2788 -1.6920
 3377TIP3    H231623   3.231   3.418  17.058  0.5200 -0.5544  1.3723
 3378TIP3   OH231624   5.947   0.004  13.715 -0.3519  0.4913 -0.0998
 3378TIP3    H131625   5.857   0.031  13.698 -0.6469 -0.8237 -0.7083
 3378TIP3    H231626   5.946  -0.091  13.706  0.8009  0.3177  1.2993
 3379TIP3   OH231627   1.758   6.657   2.175  0.3617 -0.2978  0.2761
 3379TIP3    H131628   1.828   6.606   2.216  0.8390 -0.7206 -1.0146
 3379TIP3    H231629   1.766   6.744   2.214 -0.3247 -1.1076  2.3409
 3380TIP3   OH231630   5.931   5.633  15.925 -0.0657 -0.1258  0.2917
 3380TIP3    H131631   5.881   5.555  15.950  0.5989 -1.0298 -1.0666
 3380TIP3    H231632   6.002   5.637  15.989  0.8080 -1.5802 -0.5395
 3381TIP3   OH231633   0.670   5.970  12.964  0.0123  0.4686  0.2185
 3381TIP3    H131634   0.737   5.940  12.902 -1.4881 -1.6573 -0.5079
 3381TIP3    H231635   0.703   6.053  12.998  3.2985 -0.7584  0.3472
 3382TIP3   OH231636   5.111   6.337  11.265  0.0078 -0.0146  0.0388
 3382TIP3    H131637   5.180   6.393  11.229  0.1373 -0.4524 -0.3896
 3382TIP3    H231638   5.105   6.263  11.205 -3.4035  1.7656 -2.1088
 3383TIP3   OH231639   3.979   1.696  14.441 -0.2506 -0.1496  0.0678
 3383TIP3    H131640   3.978   1.620  14.383  1.1051  0.1535 -0.3846
 3383TIP3    H231641   3.889   1.703  14.473 -0.8457 -0.7783 -1.3951
 3384TIP3   OH231642   6.581   4.304  14.481  1.1319 -0.3419 -0.6607
 3384TIP3    H131643   6.639   4.365  14.435  1.9757 -0.9896 -0.4780
 3384TIP3    H231644   6.595   4.324  14.574 -0.3241  0.7417 -0.6395
 3385TIP3   OH231645   2.402   5.423   6.239 -0.1674  0.3702  0.3438
 3385TIP3    H131646   2.461   5.422   6.314  1.0325 -0.5917 -0.5703
 3385TIP3    H231647   2.336   5.356   6.259 -0.5152  0.9014  1.0174
 3386TIP3   OH231648   2.062   2.691   0.208  0.6303  0.8034  0.3027
 3386TIP3    H131649   1.993   2.675   0.143  0.4352 -0.0805  0.7221
 3386TIP3    H231650   2.143   2.692   0.156  0.8367 -2.8013  0.3059
 3387TIP3   OH231651   6.498   4.338   3.730  0.2139 -0.0547  0.4806
 3387TIP3    H131652   6.537   4.419   3.763 -0.2745 -0.2136  1.5002
 3387TIP3    H231653   6.523   4.335   3.638  0.2301  1.2614  0.4221
 3388TIP3   OH231654   6.480   5.303   4.084 -0.2068 -0.2702  0.0812
 3388TIP3    H131655   6.412   5.239   4.104  0.0754 -1.0257 -1.2562
 3388TIP3    H231656   6.527   5.315   4.166 -1.4928 -0.2710  0.8541
 3389TIP3   OH231657   0.370   1.199   5.545  0.0992  0.2755 -0.0684
 3389TIP3    H131658   0.367   1.231   5.635  0.7590 -0.2489  0.1566
 3389TIP3    H231659   0.292   1.234   5.503  1.2550  3.0224 -0.1407
 3390TIP3   OH231660   0.885   5.519   4.175  0.0946  0.2524  0.3294
 3390TIP3    H131661   0.940   5.518   4.098 -0.2131  1.6292  0.0663
 3390TIP3    H231662   0.939   5.480   4.244  1.3184  1.3446  0.0294
 3391TIP3   OH231663   1.929   4.991  10.748 -0.6634 -0.0578  0.4017
 3391TIP3    H131664   1.916   4.899  10.722  0.6307  0.0999 -0.9367
 3391TIP3    H231665   1.870   5.040  10.691 -0.1506  0.0490 -0.0468
 3392TIP3   OH231666   5.016   1.299   0.150  0.3404  0.3704  0.6242
 3392TIP3    H131667   5.035   1.238   0.222  1.1632 -0.6958 -0.4637
 3392TIP3    H231668   4.979   1.243   0.081 -1.7525  1.5772  0.6792
 3393TIP3   OH231669   0.561   2.817  16.618 -0.4269  0.2497  0.3705
 3393TIP3    H131670   0.526   2.840  16.704 -0.8589 -0.0967  0.2904
 3393TIP3    H231671   0.655   2.835  16.625 -0.3657 -0.3007  1.1000
 3394TIP3   OH231672   6.156   6.181   1.592  0.0351  0.2372  0.1489
 3394TIP3    H131673   6.217   6.151   1.660 -2.2280 -3.2103  0.9297
 3394TIP3    H231674   6.091   6.233   1.639  0.6929  1.4099 -0.1877
 3395TIP3   OH231675   0.995   0.377   0.300  0.3411  0.5791 -0.1838
 3395TIP3    H131676   0.902   0.393   0.315 -0.1720 -1.1300 -1.2379
 3395TIP3    H231677   1.032   0.369   0.388 -0.3587  1.9121  0.2608
 3396TIP3   OH231678   1.392   5.121  11.820 -0.0328  0.6312  0.0070
 3396TIP3    H131679   1.478   5.160  11.834 -0.1246  0.1016  2.7074
 3396TIP3    H231680   1.382   5.058  11.892 -1.7619 -1.0130 -1.5253
 3397TIP3   OH231681   1.128   0.818   6.156  0.1198 -0.3475  0.3397
 3397TIP3    H131682   1.138   0.737   6.207  0.4827  0.2397  1.2226
 3397TIP3    H231683   1.216   0.840   6.127  0.3167  0.6724  1.6123
 3398TIP3   OH231684   3.508   6.435  15.169 -0.1507  0.6192 -0.2720
 3398TIP3    H131685   3.599   6.463  15.171  0.3566 -0.9621  0.1455
 3398TIP3    H231686   3.486   6.431  15.075 -0.2273  2.2692 -0.3424
 3399TIP3   OH231687   0.984   4.391   1.750 -0.3436  0.1289 -0.1686
 3399TIP3    H131688   0.895   4.360   1.764 -0.5592 -0.2134 -2.0390
 3399TIP3    H231689   1.039   4.329   1.798 -1.0493 -0.3814 -0.0052
 3400TIP3   OH231690   1.569   2.518  16.039 -0.0690 -0.5423 -0.6039
 3400TIP3    H131691   1.614   2.453  16.092  1.3940  2.0674  1.6433
 3400TIP3    H231692   1.482   2.482  16.023  0.9017 -3.2732 -0.1051
 3401TIP3   OH231693   3.720   6.083   5.223 -0.3648  0.1676 -0.9233
 3401TIP3    H131694   3.767   6.132   5.291 -0.7645  0.6239 -0.9738
 3401TIP3    H231695   3.760   6.111   5.141 -0.4401  0.2389 -0.9357
 3402TIP3   OH231696   1.055   1.375  14.697  0.2680 -0.1406 -0.1764
 3402TIP3    H131697   1.097   1.352  14.780 -1.3494 -0.0444  0.7083
 3402TIP3    H231698   0.963   1.388  14.719  0.0625  1.4240 -1.7165
 3403TIP3   OH231699   0.833   6.183   3.332  0.8221 -0.4533 -0.1710
 3403TIP3    H131700   0.906   6.121   3.330  1.1334 -0.0794 -0.9354
 3403TIP3    H231701   0.867   6.259   3.379  0.3145 -0.9854  1.1216
 3404TIP3   OH231702   2.678   1.066  13.397  0.0604 -0.0066 -0.2506
 3404TIP3    H131703   2.750   1.009  13.370  0.1568 -0.9477  1.7957
 3404TIP3    H231704   2.718   1.129  13.457 -0.7170 -0.3554  0.6783
 3405TIP3   OH231705   3.089   4.110  15.261 -0.3038 -0.2974 -0.1115
 3405TIP3    H131706   3.147   4.067  15.324 -1.2698  0.2704  1.1909
 3405TIP3    H231707   3.061   4.040  15.202  1.7703 -0.5722 -0.8565
 3406TIP3   OH231708   4.920   5.074   3.088 -0.3511 -0.3039  0.2129
 3406TIP3    H131709   4.892   4.987   3.114 -0.2234 -0.2260  0.6107
 3406TIP3    H231710   4.921   5.125   3.169 -0.4638  0.0786 -0.0222
 3407TIP3   OH231711   1.079   3.614  13.585  0.1112 -0.6054 -0.4515
 3407TIP3    H131712   1.118   3.567  13.659  1.5958  1.2148  0.0016
 3407TIP3    H231713   1.105   3.705  13.598 -1.5110  0.1539 -2.0210
 3408TIP3   OH231714   4.649   4.391   5.903 -0.1405 -0.3837  0.1141
 3408TIP3    H131715   4.681   4.390   5.993 -0.6673 -0.7579  0.3032
 3408TIP3    H231716   4.630   4.299   5.883 -1.6754 -0.1060  0.2261
 3409TIP3   OH231717   1.170   4.599   4.557  0.2849  0.0659 -0.4267
 3409TIP3    H131718   1.082   4.587   4.593  0.9239 -0.6686  0.9263
 3409TIP3    H231719   1.227   4.605   4.633  1.2682  1.9042 -1.2429
 3410TIP3   OH231720   6.159   5.753   1.988  0.1657  0.8209  0.1953
 3410TIP3    H131721   6.176   5.841   2.022 -1.1526  0.3177  2.3741
 3410TIP3    H231722   6.073   5.761   1.946 -0.7184  0.2843  1.8143
 3411TIP3   OH231723   5.298   1.245   5.334 -0.1305  0.8603 -0.5131
 3411TIP3    H131724   5.202   1.245   5.338 -0.1360  1.2929  3.6744
 3411TIP3    H231725   5.322   1.336   5.353  1.1159  0.6691 -1.1128
 3412TIP3   OH231726   1.258   0.972  11.550  0.2330  0.4295 -0.2110
 3412TIP3    H131727   1.172   0.974  11.508  0.6982 -1.1702 -1.3599
 3412TIP3    H231728   1.280   0.878  11.553  1.7352  0.7804  0.4704
 3413TIP3   OH231729   4.562   5.149  13.364  0.2940  0.2436 -0.4446
 3413TIP3    H131730   4.587   5.231  13.320 -0.9337  0.4368 -0.8162
 3413TIP3    H231731   4.494   5.175  13.426  1.4379 -0.1664  1.0207
 3414TIP3   OH231732   4.433   4.095  11.563 -0.2529  0.1277  0.0311
 3414TIP3    H131733   4.423   4.004  11.590 -0.1097 -0.8781 -2.9826
 3414TIP3    H231734   4.385   4.102  11.481  1.3986  2.2239 -0.8700
 3415TIP3   OH231735   6.405   1.934  15.193 -0.0841  0.9414  0.1936
 3415TIP3    H131736   6.347   1.999  15.154  0.1341  2.2901  2.0115
 3415TIP3    H231737   6.439   1.975  15.272  2.1211 -0.3978  0.0541
 3416TIP3   OH231738   1.406   0.210  14.066  0.3322  0.2461 -0.3512
 3416TIP3    H131739   1.324   0.258  14.053  0.3581  0.9692  1.8232
 3416TIP3    H231740   1.466   0.248  14.002 -1.0309 -0.3851 -2.0656
 3417TIP3   OH231741   1.931   3.001  12.886  0.4435 -0.8704  0.7980
 3417TIP3    H131742   1.845   3.042  12.899  1.0116 -0.0096  2.0949
 3417TIP3    H231743   1.979   3.063  12.831  0.5073 -0.9481  0.7675
 3418TIP3   OH231744   2.860   4.546  16.300  0.1443 -0.4222 -0.1536
 3418TIP3    H131745   2.852   4.639  16.322 -0.6671 -0.2405 -1.1341
 3418TIP3    H231746   2.953   4.534  16.280  0.0874  0.4160 -0.9863
 3419TIP3   OH231747   2.731   4.969   5.083  0.3483  0.5942 -0.1976
 3419TIP3    H131748   2.669   4.897   5.077  0.2580  0.7084 -0.7068
 3419TIP3    H231749   2.753   4.990   4.992  0.9158  0.7425 -0.0344
 3420TIP3   OH231750   2.414   5.266  15.153  0.2774  0.2676 -0.1198
 3420TIP3    H131751   2.322   5.289  15.138 -0.5438 -2.3750  0.4610
 3420TIP3    H231752   2.442   5.225  15.072  0.8903  0.8217 -0.1976
 3421TIP3   OH231753   0.983   2.582  16.910  0.0108  0.5057  0.6770
 3421TIP3    H131754   0.977   2.535  16.993 -1.3611  2.3743  1.7134
 3421TIP3    H231755   0.981   2.514  16.843 -2.2903 -0.9323  2.0748
 3422TIP3   OH231756   3.192   4.517  12.372  0.2703  0.9607  1.0476
 3422TIP3    H131757   3.136   4.551  12.442  0.9831  1.1369  1.5541
 3422TIP3    H231758   3.238   4.443  12.412  0.9311  1.2700  0.8765
 3423TIP3   OH231759   1.789   2.660  15.972 -0.3568  0.3318 -0.5385
 3423TIP3    H131760   1.707   2.613  15.986  0.8479 -1.0869  2.6102
 3423TIP3    H231761   1.852   2.593  15.947  0.2018  1.1620 -1.4249
 3424TIP3   OH231762   3.041   0.218  10.956 -0.5120  0.0210  0.7077
 3424TIP3    H131763   3.032   0.292  11.015  1.8899 -0.5708  1.9458
 3424TIP3    H231764   2.954   0.208  10.917 -0.5700  4.5124 -0.8965
 3425TIP3   OH231765   0.803   0.419   1.617 -0.1265  0.3336 -0.5473
 3425TIP3    H131766   0.890   0.459   1.609  0.5002 -1.1255 -1.4783
 3425TIP3    H231767   0.761   0.438   1.533  0.2048 -0.9679 -1.0234
 3426TIP3   OH231768   4.854   3.918  12.118  0.8804  0.6816  0.3490
 3426TIP3    H131769   4.898   3.851  12.066 -0.3719  0.6793 -0.7637
 3426TIP3    H231770   4.770   3.879  12.142 -0.8292  2.5353 -2.1631
 3427TIP3   OH231771   6.535   1.053  11.987 -0.2853  0.4287 -0.2264
 3427TIP3    H131772   6.561   1.019  12.073  1.1363 -0.9205 -1.1195
 3427TIP3    H231773   6.446   1.085  11.999 -0.7253 -1.2371  1.3777
 3428TIP3   OH231774   2.268   0.776  17.097 -0.5744 -0.8303 -0.6899
 3428TIP3    H131775   2.361   0.779  17.074 -0.5233  0.7575 -0.4123
 3428TIP3    H231776   2.257   0.692  17.142  1.0967 -0.3437  0.7258
 3429TIP3   OH231777   3.689   6.501  15.410  0.0276  0.3976  0.9356
 3429TIP3    H131778   3.704   6.581  15.359 -0.6688  0.7617  1.2844
 3429TIP3    H231779   3.602   6.512  15.447 -0.2031 -0.6741  0.7396
 3430TIP3   OH231780   0.009   6.670  15.238 -0.0893  0.0701  0.3993
 3430TIP3    H131781  -0.008   6.666  15.332 -2.9467  1.3382  0.0608
 3430TIP3    H231782   0.053   6.754  15.225 -2.1901  1.2507  0.4102
 3431TIP3   OH231783   3.239   1.179  10.446  0.4050 -0.4346 -0.1037
 3431TIP3    H131784   3.213   1.214  10.531  1.0747 -0.3955  0.0936
 3431TIP3    H231785   3.335   1.170  10.452  0.7685  1.6079 -1.5913
 3432TIP3   OH231786   0.084   4.154   5.535  0.5017  0.3753 -0.0501
 3432TIP3    H131787   0.071   4.059   5.532  1.2432  0.2445  0.5189
 3432TIP3    H231788   0.047   4.187   5.453  0.9105 -0.4893 -0.5900
 3433TIP3   OH231789   2.884   3.399   0.097 -0.3600  0.3457 -0.0551
 3433TIP3    H131790   2.905   3.386   0.190 -2.2241 -0.5668  0.2983
 3433TIP3    H231791   2.968   3.387   0.052  0.7897  1.7892  1.5525
 3434TIP3   OH231792   1.128   2.811   4.196  0.7171 -0.2350 -0.0490
 3434TIP3    H131793   1.198   2.816   4.130  2.3863  0.9892  1.7002
 3434TIP3    H231794   1.147   2.731   4.245  0.9986  0.1730  0.5191
 3435TIP3   OH231795   4.769   6.276  13.654  0.6524 -0.2438 -0.4481
 3435TIP3    H131796   4.774   6.310  13.743  0.4074  0.8945 -0.8409
 3435TIP3    H231797   4.817   6.341  13.601 -0.6931  0.0478 -1.3698
 3436TIP3   OH231798   2.152   4.931   4.288  0.0845  0.0600  0.4198
 3436TIP3    H131799   2.172   4.883   4.369  0.0574  0.8219  0.8954
 3436TIP3    H231800   2.237   4.942   4.246 -0.2072 -2.8762 -1.1742
 3437TIP3   OH231801   2.855   2.464  13.636 -0.3091  0.6458 -0.5727
 3437TIP3    H131802   2.938   2.513  13.630 -0.2161  0.3710 -1.7814
 3437TIP3    H231803   2.812   2.501  13.713  0.8719  0.8972  0.0007
 3438TIP3   OH231804   6.644   0.598   4.213  0.1788  0.1108 -0.0530
 3438TIP3    H131805   6.572   0.603   4.276 -0.7774 -0.9449 -1.0222
 3438TIP3    H231806   6.639   0.509   4.178  2.2326 -0.1353  0.1543
 3439TIP3   OH231807   6.150   1.058  11.196 -0.0497 -0.4070 -0.2223
 3439TIP3    H131808   6.084   1.126  11.183  0.3369  1.2423  4.4883
 3439TIP3    H231809   6.233   1.105  11.189  0.4870 -1.5145 -1.6502
 3440TIP3   OH231810   4.587   2.073   0.790 -0.0431  0.3386  0.0923
 3440TIP3    H131811   4.666   2.084   0.737  0.7114  1.2604  1.3504
 3440TIP3    H231812   4.522   2.036   0.729  0.9197  0.8878 -1.3267
 3441TIP3   OH231813   1.671   2.250   1.484 -0.0332 -0.4772  0.3439
 3441TIP3    H131814   1.581   2.282   1.476  0.2830  0.7429  1.2424
 3441TIP3    H231815   1.721   2.327   1.512  1.1520 -1.3096  0.6019
 3442TIP3   OH231816   6.770   1.722   4.654 -0.1000  0.1166  0.2688
 3442TIP3    H131817   6.808   1.707   4.741  0.9831  0.7630 -0.0770
 3442TIP3    H231818   6.695   1.780   4.670  1.9771  2.9404  0.5004
 3443TIP3   OH231819   3.820   0.005   6.440 -0.0951 -1.2192  0.1142
 3443TIP3    H131820   3.767  -0.074   6.424 -2.3014  0.5611 -2.0701
 3443TIP3    H231821   3.766   0.059   6.497  0.8959 -0.7728  0.6514
 3444TIP3   OH231822   3.814   1.572  13.049 -0.6097 -0.2404  0.0538
 3444TIP3    H131823   3.871   1.619  12.988  1.0412 -0.1645  1.5709
 3444TIP3    H231824   3.853   1.485  13.055 -2.6775 -1.3477 -1.4535
 3445TIP3   OH231825   1.113   5.521   6.298  0.1927 -0.4167 -0.1889
 3445TIP3    H131826   1.039   5.559   6.346 -0.0991 -0.6312 -0.4631
 3445TIP3    H231827   1.134   5.440   6.345  0.1864 -0.4087 -0.1723
 3446TIP3   OH231828   1.569   5.031   4.428 -0.2870  0.3930  0.5148
 3446TIP3    H131829   1.640   5.080   4.387  0.6451 -2.3778 -1.5385
 3446TIP3    H231830   1.593   5.024   4.520  1.7970  0.1289 -0.0026
 3447TIP3   OH231831   0.300   3.166  12.492  0.3033 -0.0778 -0.1191
 3447TIP3    H131832   0.286   3.248  12.538 -2.7265 -1.3255  1.4889
 3447TIP3    H231833   0.271   3.183  12.402  1.3963  1.0301 -0.2776
 3448TIP3   OH231834   0.328   0.296  12.298  0.4166  0.2236 -0.3834
 3448TIP3    H131835   0.268   0.348  12.350  0.4153  0.4910 -0.6489
 3448TIP3    H231836   0.371   0.238  12.361 -0.5484 -0.3974 -0.2716
 3449TIP3   OH231837   5.189   0.248   5.782  0.4373 -0.1290 -0.0359
 3449TIP3    H131838   5.249   0.260   5.708  2.8615  1.4219  2.0009
 3449TIP3    H231839   5.226   0.176   5.832 -0.5605 -0.4503  0.2620
 3450TIP3   OH231840   1.335   0.761   5.284  0.5847 -0.1687  0.3167
 3450TIP3    H131841   1.300   0.830   5.341  1.0988  0.8238 -0.5354
 3450TIP3    H231842   1.367   0.807   5.207  2.9914 -1.0941  0.6760
 3451TIP3   OH231843   6.364   0.294   5.968 -0.0246  0.2350 -0.9010
 3451TIP3    H131844   6.313   0.261   5.894 -1.4762  0.7554 -0.1550
 3451TIP3    H231845   6.328   0.250   6.045  2.9171 -2.0210 -0.6246
 3452TIP3   OH231846   4.875   2.798   1.657 -0.3934  0.4789 -0.6704
 3452TIP3    H131847   4.955   2.758   1.691 -0.5124 -0.0560 -1.0097
 3452TIP3    H231848   4.808   2.731   1.668 -0.0163 -0.6367 -3.9750
 3453TIP3   OH231849   4.313   3.436   2.873  0.1315  0.3607 -0.7430
 3453TIP3    H131850   4.393   3.383   2.879  0.3396  0.7280 -0.2978
 3453TIP3    H231851   4.344   3.526   2.867 -0.2510  0.5001 -0.6549
 3454TIP3   OH231852   4.728   5.334  16.477  0.4342 -0.1297  0.0494
 3454TIP3    H131853   4.699   5.311  16.388 -0.2237  2.3648 -0.4379
 3454TIP3    H231854   4.735   5.429  16.476 -0.6880  0.0663  3.0212
 3455TIP3   OH231855   5.848   2.767  11.971  0.3334 -0.0865  0.1562
 3455TIP3    H131856   5.807   2.705  11.911  1.1117 -1.5752  1.1068
 3455TIP3    H231857   5.868   2.716  12.049 -0.9242  1.8703  1.8659
 3456TIP3   OH231858   4.410   1.928  15.578 -0.1066  0.5894 -0.0383
 3456TIP3    H131859   4.479   1.988  15.608  1.4039  0.3229 -2.6498
 3456TIP3    H231860   4.437   1.843  15.611  0.4115  0.6192 -0.3622
 3457TIP3   OH231861   5.283   1.772  10.972 -0.3177  0.2282  0.5055
 3457TIP3    H131862   5.222   1.748  11.042 -0.4176 -0.1010  0.3084
 3457TIP3    H231863   5.233   1.832  10.916 -0.9889 -1.2342 -0.5061
 3458TIP3   OH231864   1.543   3.679   0.405 -0.3262 -0.1763 -0.2605
 3458TIP3    H131865   1.543   3.675   0.309  0.3142 -0.0088 -0.2699
 3458TIP3    H231866   1.627   3.720   0.427 -0.6240  0.1074  0.3587
 3459TIP3   OH231867   6.324   0.109   3.038 -0.4148 -0.0497 -0.0350
 3459TIP3    H131868   6.373   0.132   3.117  0.3367  0.9505 -0.7560
 3459TIP3    H231869   6.243   0.070   3.070 -1.4905  3.0244  1.3298
 3460TIP3   OH231870   5.661   2.717  11.474 -0.0253 -0.4239  0.3993
 3460TIP3    H131871   5.627   2.637  11.436 -1.8664  0.1502  0.7037
 3460TIP3    H231872   5.587   2.778  11.472  0.4573  0.3555  2.7452
 3461TIP3   OH231873   2.201   4.107  15.829  0.5741  0.2272 -0.0422
 3461TIP3    H131874   2.158   4.065  15.904  0.0057 -1.6873 -1.3425
 3461TIP3    H231875   2.241   4.034  15.782  0.6857  1.3347 -1.7271
 3462TIP3   OH231876   3.030   3.025   1.448  0.2816  0.1280 -0.1724
 3462TIP3    H131877   3.112   2.993   1.486 -2.1239 -3.8739  2.3240
 3462TIP3    H231878   2.977   3.051   1.523 -1.3539  1.1707 -1.6064
 3463TIP3   OH231879   3.623   6.658   6.438 -0.2017  0.0930 -0.8676
 3463TIP3    H131880   3.642   6.642   6.531  1.3095  0.5636 -1.0586
 3463TIP3    H231881   3.618   6.571   6.399 -0.4752 -0.0994 -0.4109
 3464TIP3   OH231882   4.648   1.133  13.432 -0.6398 -0.2103 -0.3638
 3464TIP3    H131883   4.707   1.108  13.502 -0.4184 -0.7204 -0.7269
 3464TIP3    H231884   4.658   1.064  13.366 -2.5063 -0.9543  0.0625
 3465TIP3   OH231885   5.008   2.869  12.984  0.5032 -0.2506  0.1507
 3465TIP3    H131886   4.961   2.951  12.971  1.8442  0.5324 -0.0124
 3465TIP3    H231887   5.056   2.856  12.902  0.1533 -1.3157  0.0981
 3466TIP3   OH231888   0.682   0.059  15.864  0.0842  0.4786  0.1778
 3466TIP3    H131889   0.653   0.123  15.799 -2.4493 -0.4404  0.2821
 3466TIP3    H231890   0.699  -0.020  15.814 -3.6266 -0.7939  0.6207
 3467TIP3   OH231891   3.838   2.564   6.709  0.1349 -0.0400  0.1201
 3467TIP3    H131892   3.748   2.535   6.700 -0.4688  1.4985  0.8291
 3467TIP3    H231893   3.832   2.652   6.747  1.9721 -0.5104  1.6941
 3468TIP3   OH231894   2.503   3.451   3.092  0.0339  0.0579 -0.1364
 3468TIP3    H131895   2.591   3.460   3.128  0.2933 -1.1149 -0.4287
 3468TIP3    H231896   2.450   3.511   3.144  0.4567 -1.3108  2.0430
 3469TIP3   OH231897   4.750   3.220  14.961  0.4883  0.1804  0.3949
 3469TIP3    H131898   4.670   3.265  14.987  0.9175  0.1041  1.9491
 3469TIP3    H231899   4.725   3.128  14.956  0.2675  0.2602 -0.0844
 3470TIP3   OH231900   1.688   0.138   1.332 -0.3769  0.2196  0.6171
 3470TIP3    H131901   1.688   0.060   1.387  2.9535  0.7781  1.6483
 3470TIP3    H231902   1.657   0.208   1.388 -3.1987 -0.2185 -0.2579
 3471TIP3   OH231903   0.114   0.883   1.889 -0.0940 -0.1655 -0.8477
 3471TIP3    H131904   0.066   0.801   1.876 -0.1970 -0.2152 -0.2047
 3471TIP3    H231905   0.091   0.911   1.978 -1.6179  1.5879 -1.7189
 3472TIP3   OH231906   1.832   5.825   1.199  0.4162 -0.1634 -0.2045
 3472TIP3    H131907   1.777   5.829   1.277  0.0257 -0.0098 -0.4849
 3472TIP3    H231908   1.822   5.735   1.167  1.4811 -0.5793  0.5612
 3473TIP3   OH231909   1.253   5.163   2.942  0.2973  0.1214 -0.1660
 3473TIP3    H131910   1.178   5.214   2.911 -0.4235 -0.5783  0.3665
 3473TIP3    H231911   1.321   5.227   2.960 -0.8777  1.0148  1.3634
 3474TIP3   OH231912   6.466   0.962  12.637  0.0951  0.2914  0.0321
 3474TIP3    H131913   6.399   0.977  12.570 -0.2948 -0.0741  0.3367
 3474TIP3    H231914   6.431   1.002  12.716 -1.3886 -2.7791  1.1085
 3475TIP3   OH231915   3.497   0.691   5.719 -0.3002  0.4971 -0.2455
 3475TIP3    H131916   3.576   0.739   5.741  1.4556 -0.7110 -3.3105
 3475TIP3    H231917   3.523   0.631   5.649 -3.3529 -1.8327  0.3621
 3476TIP3   OH231918   6.702   3.450  13.908 -0.3002 -0.3574  0.0232
 3476TIP3    H131919   6.786   3.491  13.930 -0.2656 -0.1352 -0.4951
 3476TIP3    H231920   6.717   3.356  13.918  0.4708 -0.4258 -1.5587
 3477TIP3   OH231921   2.130   4.922   0.480  0.4122 -0.6694 -0.8516
 3477TIP3    H131922   2.131   4.841   0.429 -1.1326 -0.5701 -1.0807
 3477TIP3    H231923   2.209   4.969   0.452 -0.5580 -0.4335 -3.5128
 3478TIP3   OH231924   4.484   2.045   3.556 -0.2537  0.0126 -0.3497
 3478TIP3    H131925   4.496   1.951   3.574  1.2065  0.0707 -0.8507
 3478TIP3    H231926   4.459   2.082   3.641  0.0226 -0.7090  0.0597
 3479TIP3   OH231927   1.562   1.268   5.277 -0.2882 -0.4489 -0.1791
 3479TIP3    H131928   1.610   1.274   5.194 -1.1579  0.9706 -0.6254
 3479TIP3    H231929   1.470   1.282   5.252 -0.7754 -1.7191  0.8278
 3480TIP3   OH231930   4.453   2.153   0.540  0.0007  0.3676 -0.2183
 3480TIP3    H131931   4.418   2.065   0.551 -0.9663  0.7928  0.2130
 3480TIP3    H231932   4.399   2.193   0.472  0.9337  0.3867 -0.9816
 3481TIP3   OH231933   4.113   4.456  11.876 -0.1051 -0.3617 -0.0306
 3481TIP3    H131934   4.039   4.397  11.878  1.8020 -2.9618  2.5221
 3481TIP3    H231935   4.172   4.419  11.810 -0.3041  0.7132 -0.8430
 3482TIP3   OH231936   0.829   2.122   3.360  0.0204 -0.1038 -0.4675
 3482TIP3    H131937   0.808   2.074   3.440  1.0952 -1.6992 -1.0869
 3482TIP3    H231938   0.920   2.148   3.370  0.1884 -0.3834 -1.2021
 3483TIP3   OH231939   1.704   0.829  11.786  0.1146 -0.2060  0.2923
 3483TIP3    H131940   1.703   0.893  11.715 -0.8246  0.8227  1.1939
 3483TIP3    H231941   1.796   0.811  11.802  0.3469 -0.1660 -0.9190
 3484TIP3   OH231942   0.036   2.453  16.680 -0.3366  0.0366  0.3198
 3484TIP3    H131943   0.117   2.493  16.649  0.4084 -2.4442 -1.2588
 3484TIP3    H231944  -0.033   2.500  16.634  0.4763 -0.1710 -1.1849
 3485TIP3   OH231945   6.450   1.873   0.857  0.2761 -0.3142 -1.0190
 3485TIP3    H131946   6.496   1.869   0.773 -0.4742  0.8089 -1.5120
 3485TIP3    H231947   6.379   1.936   0.842  1.8158  2.1454  1.2607
 3486TIP3   OH231948   4.595   0.754   2.182  0.1809  0.6575  0.2410
 3486TIP3    H131949   4.540   0.828   2.206 -0.6310 -0.3052  1.4604
 3486TIP3    H231950   4.605   0.703   2.263 -0.0834 -1.0716 -0.7491
 3487TIP3   OH231951   2.221   5.324   1.949 -0.5253 -0.0483 -0.1042
 3487TIP3    H131952   2.255   5.283   1.869 -0.4756  1.2281 -0.7706
 3487TIP3    H231953   2.132   5.352   1.925 -0.8965 -0.5661  0.6287
 3488TIP3   OH231954   1.208   6.066  17.128  0.0349  0.1522 -0.6525
 3488TIP3    H131955   1.297   6.100  17.135  0.0046 -0.0866  1.9463
 3488TIP3    H231956   1.162   6.105  17.202 -1.6239 -0.8402 -1.1151
 3489TIP3   OH231957   3.886   5.512   2.867  0.0819 -0.0759 -0.0219
 3489TIP3    H131958   3.826   5.587   2.860 -0.0975 -0.2543 -0.4732
 3489TIP3    H231959   3.971   5.546   2.841 -0.3190 -0.4084 -1.9971
 3490TIP3   OH231960   6.165   2.141   1.252 -0.2788 -0.4296  0.3564
 3490TIP3    H131961   6.254   2.176   1.263  0.0857 -1.2556  0.1372
 3490TIP3    H231962   6.122   2.159   1.335 -0.5604  1.7598 -0.2137
 3491TIP3   OH231963   4.019   3.605  13.787  0.5157 -0.0088  0.1357
 3491TIP3    H131964   3.987   3.619  13.876 -0.5967 -1.1401 -0.0506
 3491TIP3    H231965   4.092   3.544  13.796  1.9976  1.7386  0.4634
 3492TIP3   OH231966   5.374   0.401   0.415 -0.3145  0.2783  0.3196
 3492TIP3    H131967   5.363   0.427   0.507  0.6890  1.1421  0.2107
 3492TIP3    H231968   5.326   0.466   0.365 -1.4472 -0.5877  0.2456
 3493TIP3   OH231969   5.036   5.247   5.093  0.0811 -0.0336  0.2566
 3493TIP3    H131970   5.031   5.183   5.164 -1.6661  0.4345  0.6032
 3493TIP3    H231971   5.080   5.201   5.022 -0.9312 -1.5629  0.5730
 3494TIP3   OH231972   2.192   3.977  14.733  0.2665 -0.3933  0.2081
 3494TIP3    H131973   2.246   3.925  14.793 -1.8751 -1.5150  1.3018
 3494TIP3    H231974   2.125   3.916  14.703 -1.0503  1.1860 -0.2060
 3495TIP3   OH231975   1.888   6.020  14.035  0.1758 -0.6048 -0.2345
 3495TIP3    H131976   1.940   6.034  14.113 -0.1113  0.3988 -0.2171
 3495TIP3    H231977   1.840   5.939  14.053  0.5036 -0.6622  0.4073
 3496TIP3   OH231978   6.510   4.321   2.273 -0.2653 -0.4711 -0.2533
 3496TIP3    H131979   6.545   4.260   2.337  0.8085  0.4698  0.0945
 3496TIP3    H231980   6.559   4.303   2.193 -1.1316 -1.1850 -0.6416
 3497TIP3   OH231981   4.519   1.815  16.486  0.1282 -0.4649 -0.2136
 3497TIP3    H131982   4.526   1.740  16.545 -0.6322 -0.5631 -0.2510
 3497TIP3    H231983   4.584   1.798  16.417 -0.9825 -1.7525 -0.9677
 3498TIP3   OH231984   0.500   2.811   2.653 -0.4387 -0.1374  0.2526
 3498TIP3    H131985   0.450   2.806   2.735  1.0210 -0.0118  1.2037
 3498TIP3    H231986   0.502   2.721   2.621 -2.4629  0.0702 -0.5979
 3499TIP3   OH231987   4.695   3.848   5.325 -0.2305  0.8174 -0.0275
 3499TIP3    H131988   4.649   3.879   5.247  0.5877  0.7372 -0.5434
 3499TIP3    H231989   4.783   3.885   5.318  0.2476 -0.2681  0.1931
 3500TIP3   OH231990   1.186   2.552   0.383 -0.1239 -0.1933  0.3693
 3500TIP3    H131991   1.094   2.529   0.369  0.4098 -1.9872 -0.5203
 3500TIP3    H231992   1.186   2.647   0.392 -1.8745 -0.0036 -1.1645
 3501TIP3   OH231993   0.598   3.922  15.365  0.5811  0.6238  0.0111
 3501TIP3    H131994   0.585   3.950  15.456 -1.8151  0.6341 -0.2871
 3501TIP3    H231995   0.574   3.830  15.364 -2.1916  1.2644 -1.0770
 3502TIP3   OH231996   3.771   5.581  15.952  0.1425 -0.0065  0.5637
 3502TIP3    H131997   3.700   5.541  16.004  0.2591  0.7512  1.3313
 3502TIP3    H231998   3.837   5.604  16.017  0.4729  0.5878  0.0181
 3503TIP3   OH231999   6.785   3.742   6.903 -0.2871 -0.0989  0.3267
 3503TIP3    H132000   6.863   3.689   6.887  0.4376  0.5981  1.4238
 3503TIP3    H232001   6.785   3.806   6.832 -0.7796 -1.0914 -0.5992
 3504TIP3   OH232002   2.187   6.756  14.659  0.2324  0.2602  0.2586
 3504TIP3    H132003   2.196   6.661  14.657  2.1935  0.3714  1.4289
 3504TIP3    H232004   2.210   6.784  14.570 -1.2259 -0.3883 -0.3461
 3505TIP3   OH232005   0.958   0.140   1.307  0.3850 -0.6056  0.0277
 3505TIP3    H132006   0.948   0.139   1.402 -0.1065  1.4902  0.0334
 3505TIP3    H232007   0.883   0.089   1.275  0.2079 -0.8016  0.7408
 3506TIP3   OH232008   1.648   5.600   6.189  0.3088 -0.2841  0.0137
 3506TIP3    H132009   1.676   5.665   6.124 -0.4692 -0.9481 -1.0078
 3506TIP3    H232010   1.552   5.601   6.183  0.2959 -1.8954 -0.4090
 3507TIP3   OH232011   4.192   3.846   5.136 -0.4544 -0.1645 -0.3168
 3507TIP3    H132012   4.267   3.794   5.105  0.0159  0.7081 -0.6782
 3507TIP3    H232013   4.117   3.810   5.090 -0.5875 -2.2622  1.3924
 3508TIP3   OH232014   0.834   5.530  15.315 -0.5840  0.3158  0.0603
 3508TIP3    H132015   0.889   5.493  15.246 -1.9689 -1.1275 -0.3204
 3508TIP3    H232016   0.896   5.551  15.385  0.5736 -0.4127 -0.7033
 3509TIP3   OH232017   0.422   0.199   3.584 -0.5688  0.2290  0.3511
 3509TIP3    H132018   0.506   0.234   3.555 -0.8772  2.0671  1.5353
 3509TIP3    H232019   0.405   0.126   3.524  2.1787 -0.6721  0.5279
 3510TIP3   OH232020   0.489   1.652  13.671 -0.3889  0.1959 -0.2544
 3510TIP3    H132021   0.399   1.634  13.699 -0.3488 -2.1061 -1.3631
 3510TIP3    H232022   0.538   1.664  13.753 -1.3782 -0.2728  0.4251
 3511TIP3   OH232023   1.100   1.037   1.144  0.0192  0.0703  0.1633
 3511TIP3    H132024   1.017   1.018   1.189 -0.0512 -1.6650 -0.6105
 3511TIP3    H232025   1.167   1.021   1.210 -0.2245  1.4299  0.7790
 3512TIP3   OH232026   1.352   5.317   3.882  0.3522  0.2243  0.1452
 3512TIP3    H132027   1.352   5.352   3.971  0.3056 -0.5660  0.4580
 3512TIP3    H232028   1.367   5.223   3.892  0.3057  0.1184 -0.6780
 3513TIP3   OH232029   0.656   4.601  17.251 -0.1977  0.6182 -0.4607
 3513TIP3    H132030   0.644   4.642  17.165 -2.3153  0.4190 -0.3066
 3513TIP3    H232031   0.698   4.669  17.304  0.2097  1.0939 -1.3642
 3514TIP3   OH232032   4.045   5.454   2.175 -0.4702  0.3121  0.1774
 3514TIP3    H132033   4.041   5.534   2.123  0.3853 -0.6319 -1.4317
 3514TIP3    H232034   4.087   5.390   2.117  0.9489 -0.7017  2.1829
 3515TIP3   OH232035   4.711   1.087   2.116 -0.4801  0.7275 -0.4638
 3515TIP3    H132036   4.758   1.033   2.052 -0.7415  0.4626 -0.4333
 3515TIP3    H232037   4.640   1.128   2.066  0.6746  2.3540 -0.8716
 3516TIP3   OH232038   1.236   0.144   1.343  0.4102  0.1527  0.1732
 3516TIP3    H132039   1.243   0.117   1.434  0.3632 -1.6135 -0.3248
 3516TIP3    H232040   1.148   0.118   1.317  0.3880  0.7425 -0.3580
 3517TIP3   OH232041   6.409   2.025   5.500 -0.3401 -0.0373  0.2250
 3517TIP3    H132042   6.337   2.072   5.458 -0.2136 -0.4924 -0.5349
 3517TIP3    H232043   6.370   1.943   5.531  0.0532 -0.8442 -1.2644
 3518TIP3   OH232044   3.377   0.034  16.125 -0.1588  0.2681  0.5676
 3518TIP3    H132045   3.372   0.130  16.120 -0.7118  0.2212  0.1223
 3518TIP3    H232046   3.468   0.014  16.101  0.8554  0.8371  3.5449
 3519TIP3   OH232047   5.611   5.359  13.416  0.3144  0.4855 -0.2282
 3519TIP3    H132048   5.680   5.414  13.452  1.3398  0.2907 -1.7855
 3519TIP3    H232049   5.658   5.283  13.380 -0.7663  0.0690 -0.7997
 3520TIP3   OH232050   5.319   2.024  15.248 -0.2801 -0.4003  0.6327
 3520TIP3    H132051   5.247   2.064  15.296 -0.9984 -1.1035  0.1608
 3520TIP3    H232052   5.397   2.070  15.278 -0.7756 -0.4724  2.0907
 3521TIP3   OH232053   3.452   0.922  11.545 -0.1392  0.2891 -0.5854
 3521TIP3    H132054   3.408   0.965  11.472  0.8700  0.7671 -0.9354
 3521TIP3    H232055   3.506   0.991  11.585  0.2808 -0.2714 -0.1650
 3522TIP3   OH232056   0.546   6.219  15.461 -0.5374 -0.2058 -0.1916
 3522TIP3    H132057   0.479   6.242  15.398 -1.5131  1.0241  1.2181
 3522TIP3    H232058   0.498   6.188  15.538  0.5034  0.4383  0.7551
 3523TIP3   OH232059   5.095   6.349  16.220 -0.1200  0.2148  0.7674
 3523TIP3    H132060   5.001   6.329  16.226  0.3524 -1.7905  2.6713
 3523TIP3    H232061   5.115   6.340  16.127 -1.6245 -0.1980  0.4517
 3524TIP3   OH232062   0.364   1.095   4.894  0.2614  0.6520  0.0153
 3524TIP3    H132063   0.277   1.121   4.864  0.7593  1.5392 -0.6926
 3524TIP3    H232064   0.364   1.117   4.988 -1.1107 -1.6561  0.6410
 3525TIP3   OH232065   4.563   2.895  14.192 -0.4526 -0.1921  0.4393
 3525TIP3    H132066   4.488   2.885  14.134 -1.2117 -0.5640  1.4634
 3525TIP3    H232067   4.637   2.857  14.143 -0.9679 -0.0692 -0.4581
 3526TIP3   OH232068   0.429   0.821   4.829 -0.0685  0.1385  0.1350
 3526TIP3    H132069   0.434   0.811   4.734  1.9730  2.6324 -0.1400
 3526TIP3    H232070   0.416   0.915   4.842  2.7439  0.3568  2.2805
 3527TIP3   OH232071   4.258   1.728   0.765 -0.3350  0.0598  0.1418
 3527TIP3    H132072   4.190   1.683   0.815 -0.7440  1.6230  1.0922
 3527TIP3    H232073   4.288   1.798   0.824  1.7125 -0.2352 -0.4739
 3528TIP3   OH232074   2.950   1.956  12.276 -1.0060 -0.4366 -0.0183
 3528TIP3    H132075   2.872   1.970  12.330 -0.1758 -0.2856  1.1972
 3528TIP3    H232076   3.014   1.919  12.337  0.1990  0.4044 -0.7407
 3529TIP3   OH232077   3.332   6.252  10.947  0.1390  0.1036  0.3315
 3529TIP3    H132078   3.422   6.250  10.913 -0.1608  1.2618 -0.5863
 3529TIP3    H232079   3.289   6.176  10.906  0.3577  0.2745 -0.2206
 3530TIP3   OH232080   3.164   6.248   0.722 -0.2737  0.1631 -0.0824
 3530TIP3    H132081   3.187   6.155   0.725 -0.4452 -0.0582 -2.8661
 3530TIP3    H232082   3.243   6.294   0.751 -0.3989 -0.8156  1.9563
 3531TIP3   OH232083   6.674   6.347  15.694 -0.3162 -0.0012 -0.2723
 3531TIP3    H132084   6.763   6.380  15.709 -0.0061 -0.6438 -0.6859
 3531TIP3    H232085   6.625   6.424  15.665  0.0915  0.3676 -0.0019
 3532TIP3   OH232086   3.680   3.899   4.536  0.4268 -0.2791 -0.2433
 3532TIP3    H132087   3.643   3.913   4.623  2.8698 -0.7389  0.9458
 3532TIP3    H232088   3.697   3.988   4.504 -2.9566  0.0777 -1.5508
 3533TIP3   OH232089   1.001   1.060   6.075 -0.1378 -0.2308  0.1040
 3533TIP3    H132090   1.026   0.974   6.108 -0.1372 -0.0138  0.6738
 3533TIP3    H232091   1.067   1.080   6.008  2.5277  1.1808  2.8846
 3534TIP3   OH232092   0.622   3.763  14.869  0.7918  0.1405 -0.4731
 3534TIP3    H132093   0.708   3.723  14.869  0.4318 -0.6601  0.0517
 3534TIP3    H232094   0.588   3.749  14.958 -0.0783 -0.0277 -0.8170
 3535TIP3   OH232095   4.887   2.535   3.268  0.5032 -0.1610 -0.5848
 3535TIP3    H132096   4.980   2.543   3.250  0.4589  0.1001 -0.7026
 3535TIP3    H232097   4.878   2.553   3.361  0.8668 -2.5483 -0.0195
 3536TIP3   OH232098   2.834   5.197   5.169  0.2666 -0.3544  0.1310
 3536TIP3    H132099   2.819   5.104   5.151 -0.4128 -0.3501  0.6542
 3536TIP3    H232100   2.747   5.237   5.165  0.3002 -0.0552  1.6492
 3537TIP3   OH232101   6.465   0.299  11.010  0.6814  0.1599  0.1855
 3537TIP3    H132102   6.431   0.373  10.960  0.8115  0.5368  0.6452
 3537TIP3    H232103   6.543   0.333  11.053  0.4056 -0.0623  0.8865
 3538TIP3   OH232104   2.927   4.470   3.798 -0.0006 -0.2442  0.0561
 3538TIP3    H132105   3.012   4.442   3.831 -0.0270 -1.2028 -0.6421
 3538TIP3    H232106   2.928   4.565   3.806  0.5690 -0.3483  1.3686
 3539TIP3   OH232107   6.739   2.407   0.987  0.1730  0.0382  0.6994
 3539TIP3    H132108   6.665   2.433   1.041  1.3383 -0.1797  2.5020
 3539TIP3    H232109   6.710   2.327   0.943 -1.2621  0.9450 -0.0401
 3540TIP3   OH232110   1.292   0.527   6.022  0.7079 -0.0600 -0.0420
 3540TIP3    H132111   1.293   0.613   5.981  0.1897  1.0196  2.0462
 3540TIP3    H232112   1.268   0.544   6.113 -1.7970 -2.6321 -0.0474
 3541TIP3   OH232113   5.067   0.487  11.570  0.1373 -0.0947 -0.0422
 3541TIP3    H132114   5.109   0.559  11.522 -2.2686  1.9979  0.7475
 3541TIP3    H232115   4.987   0.469  11.520 -0.6406 -0.3038  1.2401
 3542TIP3   OH232116   1.020   0.684   0.291 -0.3789  0.3014 -0.0221
 3542TIP3    H132117   0.934   0.692   0.249 -0.6318  0.1715  0.4614
 3542TIP3    H232118   1.040   0.591   0.287 -1.1238  0.0511  1.5325
 3543TIP3   OH232119   2.300   3.279   3.508 -0.5464  0.1772  0.4085
 3543TIP3    H132120   2.378   3.257   3.458  0.3907  0.9948  1.4573
 3543TIP3    H232121   2.295   3.211   3.575  0.1897  0.9880  1.3128
 3544TIP3   OH232122   4.569   1.138   3.847 -0.3184 -0.8760  0.1091
 3544TIP3    H132123   4.614   1.056   3.826  0.4178 -0.2397 -0.8782
 3544TIP3    H232124   4.476   1.117   3.843 -0.1461 -1.4788 -0.9453
 3545TIP3   OH232125   0.444   3.962  11.623 -0.0862 -0.0275 -0.6062
 3545TIP3    H132126   0.426   4.020  11.696 -1.0648 -0.4491 -0.4938
 3545TIP3    H232127   0.520   3.911  11.650 -0.0007  0.3264 -0.1884
 3546TIP3   OH232128   4.064   1.371   4.100  0.2874 -0.6035  0.2321
 3546TIP3    H132129   4.011   1.445   4.127 -2.3909 -1.5258 -2.0373
 3546TIP3    H232130   4.143   1.410   4.063 -0.2147  0.9989  0.7758
 3547TIP3   OH232131   2.975   6.602   1.277  0.3214  0.4239 -0.0776
 3547TIP3    H132132   2.936   6.638   1.198 -0.4523  0.0599  0.1248
 3547TIP3    H232133   2.945   6.660   1.347 -1.5883 -0.9857  0.3615
 3548TIP3   OH232134   6.254   5.092   0.275  0.2719  0.0628  0.3025
 3548TIP3    H132135   6.254   5.083   0.180 -1.9380  2.3531 -0.0001
 3548TIP3    H232136   6.231   5.004   0.306 -1.3834 -0.1859 -1.4180
 3549TIP3   OH232137   1.994   1.647  10.465 -0.4082  0.1478  0.3111
 3549TIP3    H132138   2.074   1.695  10.444 -0.4672 -0.2517 -0.9470
 3549TIP3    H232139   2.013   1.557  10.440 -1.7759  0.3283 -1.6305
 3550TIP3   OH232140   1.596   2.439  13.297  0.4618  0.4660 -0.3046
 3550TIP3    H132141   1.654   2.434  13.221 -1.0673  1.5600 -1.5848
 3550TIP3    H232142   1.516   2.394  13.270 -0.2378  1.1725  0.5377
 3551TIP3   OH232143   4.094   6.729  12.094  0.0335 -0.3067  0.2911
 3551TIP3    H132144   4.040   6.650  12.090 -0.9788  0.4188 -1.8096
 3551TIP3    H232145   4.066   6.781  12.019  1.4317  1.5799  0.9995
 3552TIP3   OH232146   0.636   2.892  13.523 -0.0905 -0.2957 -0.1459
 3552TIP3    H132147   0.665   2.801  13.524 -0.6955 -0.5259 -1.4612
 3552TIP3    H232148   0.699   2.936  13.466 -0.2691 -0.0645 -0.1669
 3553TIP3   OH232149   0.846   0.992  12.618 -0.4734  0.0999  0.3225
 3553TIP3    H132150   0.788   0.991  12.542 -0.6732 -0.4162  0.4767
 3553TIP3    H232151   0.919   1.047  12.591 -1.3342  1.3027  0.3616
 3554TIP3   OH232152   0.798   6.787  11.307  0.5562 -0.0743  0.8420
 3554TIP3    H132153   0.760   6.709  11.348 -0.5159  0.7275  1.4132
 3554TIP3    H232154   0.891   6.765  11.295 -0.0303 -2.0945 -0.6065
 3555TIP3   OH232155   5.137   5.375  14.593  0.0572 -0.2333  0.1002
 3555TIP3    H132156   5.114   5.358  14.685 -1.0779  1.7316  0.2441
 3555TIP3    H232157   5.076   5.444  14.566 -0.2836 -1.4264 -2.4390
 3556TIP3   OH232158   3.456   2.551   4.522 -0.0568 -0.0812 -0.4038
 3556TIP3    H132159   3.538   2.510   4.495 -0.9128 -2.0453 -0.1709
 3556TIP3    H232160   3.388   2.490   4.492 -1.3865  1.0731  0.1678
 3557TIP3   OH232161   3.214   1.701  10.991  0.1189 -0.2751 -0.6139
 3557TIP3    H132162   3.188   1.792  11.005 -1.2466 -0.5464 -1.1924
 3557TIP3    H232163   3.310   1.704  10.985  0.1695  0.9625  0.3789
 3558TIP3   OH232164   1.186   3.577  15.895  0.1509 -0.1100 -0.2055
 3558TIP3    H132165   1.151   3.621  15.973  0.7436  0.6127 -0.3332
 3558TIP3    H232166   1.236   3.503  15.929 -0.6150 -0.5283  0.0311
 3559TIP3   OH232167   5.148   0.122  11.259  0.1181  0.0937 -0.4887
 3559TIP3    H132168   5.207   0.197  11.271  0.6337 -0.4037  0.1952
 3559TIP3    H232169   5.203   0.046  11.280  0.0272 -0.6031 -2.6059
 3560TIP3   OH232170   1.977   5.010  12.249  0.1488  0.6414 -0.3071
 3560TIP3    H132171   1.958   4.943  12.183 -0.7762  0.5304  0.0597
 3560TIP3    H232172   1.949   5.092  12.208 -0.4596  0.5676 -0.0408
 3561TIP3   OH232173   0.336   6.409  16.530 -0.8062  0.1205  0.3135
 3561TIP3    H132174   0.265   6.345  16.528 -0.6982  0.0065 -1.4439
 3561TIP3    H232175   0.403   6.368  16.585 -0.2498 -1.8857 -1.7144
 3562TIP3   OH232176   6.179   5.438   4.209  0.2348  0.2176  0.2873
 3562TIP3    H132177   6.186   5.359   4.155  2.0205  0.5580 -0.0174
 3562TIP3    H232178   6.167   5.509   4.146  1.8279  0.5573  0.3510
 3563TIP3   OH232179   5.186   2.617   4.156 -0.1771 -0.1987 -0.4519
 3563TIP3    H132180   5.141   2.562   4.092  1.4348 -2.7052  0.3706
 3563TIP3    H232181   5.262   2.652   4.109 -0.7454  0.6671 -0.7457
 3564TIP3   OH232182   0.424   6.178  11.584  0.0698  0.3286 -0.3686
 3564TIP3    H132183   0.455   6.172  11.493  2.5104  2.6910  0.1910
 3564TIP3    H232184   0.451   6.265  11.613  0.3421 -0.7321  2.9725
 3565TIP3   OH232185   5.631   6.369  10.596 -0.0385 -0.5362 -0.5360
 3565TIP3    H132186   5.712   6.418  10.612  0.1736 -1.5050  1.6594
 3565TIP3    H232187   5.619   6.374  10.501  1.3819  1.5017 -0.6897
 3566TIP3   OH232188   2.067   4.592  13.642 -0.2398 -0.3918 -0.0373
 3566TIP3    H132189   1.974   4.586  13.660 -0.2147  0.0541  0.2630
 3566TIP3    H232190   2.086   4.516  13.586 -0.1200 -2.4554  2.6014
 3567TIP3   OH232191   6.142   3.755   4.672  0.4903 -0.4432 -0.2988
 3567TIP3    H132192   6.110   3.775   4.585  1.1090  0.7723 -0.2723
 3567TIP3    H232193   6.237   3.750   4.662  0.5952  0.0828  0.3707
 3568TIP3   OH232194   1.505   1.573  11.090  0.6864  0.4030 -0.1174
 3568TIP3    H132195   1.530   1.490  11.131 -0.8869 -1.7416 -3.1210
 3568TIP3    H232196   1.588   1.620  11.081  1.8019 -1.2603  0.8067
 3569TIP3   OH232197   1.753   0.697   2.885 -0.2022 -0.6082  0.6284
 3569TIP3    H132198   1.673   0.742   2.858 -0.2523 -0.9306  0.2247
 3569TIP3    H232199   1.792   0.754   2.951  0.8377  1.0905 -1.3461
 3570TIP3   OH232200   6.657   0.766  14.102 -0.2493  0.3894  0.3535
 3570TIP3    H132201   6.696   0.686  14.067 -1.0176  0.8251 -1.6532
 3570TIP3    H232202   6.721   0.797  14.166  0.2666 -1.5657  0.8527
 3571TIP3   OH232203   2.536   3.030  10.681 -0.0435  0.1977  0.1406
 3571TIP3    H132204   2.570   2.958  10.627 -2.3557 -1.0344  0.2104
 3571TIP3    H232205   2.465   3.067  10.628  0.7868  2.1568  0.3287
 3572TIP3   OH232206   2.368   3.090   3.098 -0.4173  0.4244 -0.0861
 3572TIP3    H132207   2.292   3.031   3.099 -1.1341  1.2882  1.8322
 3572TIP3    H232208   2.340   3.164   3.044 -0.0343 -0.3014 -1.3240
 3573TIP3   OH232209   1.590   2.840   0.109 -0.0752 -0.5339  0.2179
 3573TIP3    H132210   1.638   2.758   0.112  1.9898  0.5879 -0.3794
 3573TIP3    H232211   1.623   2.890   0.184 -1.5276 -0.3223  0.7515
 3574TIP3   OH232212   3.615   5.784   2.927 -0.5563 -0.0056 -0.5969
 3574TIP3    H132213   3.567   5.707   2.898 -1.4406 -0.2116  1.2436
 3574TIP3    H232214   3.699   5.779   2.882 -0.5181 -2.1450 -0.3924
 3575TIP3   OH232215   5.798   6.403   4.115  0.5450  0.2310 -0.0037
 3575TIP3    H132216   5.779   6.454   4.036 -0.6898 -1.8116 -1.1139
 3575TIP3    H232217   5.713   6.393   4.158  1.0978  0.7256  1.2540
 3576TIP3   OH232218   6.179   5.151  11.610  0.4481 -0.0411  0.3699
 3576TIP3    H132219   6.219   5.227  11.649  0.7258 -0.7254  1.4481
 3576TIP3    H232220   6.085   5.162  11.625  0.3644  0.6757 -0.5742
 3577TIP3   OH232221   6.187   1.102  15.092 -0.1051  0.2934  0.0068
 3577TIP3    H132222   6.220   1.084  15.004  0.8805 -1.5139  0.6986
 3577TIP3    H232223   6.182   1.198  15.097  0.1291  0.4324 -1.8819
 3578TIP3   OH232224   4.644   3.857   1.835  0.3114  0.1863  0.0272
 3578TIP3    H132225   4.708   3.787   1.848  0.2763  0.0373 -0.5863
 3578TIP3    H232226   4.696   3.937   1.840  0.2573  0.1654  1.3540
 3579TIP3   OH232227   5.657   1.584  14.795 -0.3487 -0.4719  0.5848
 3579TIP3    H132228   5.563   1.575  14.809 -0.3414  0.0031  0.9767
 3579TIP3    H232229   5.683   1.654  14.855  0.0876  0.0389 -0.1887
 3580TIP3   OH232230   2.609   2.802  10.533  0.3261 -0.2036  0.1540
 3580TIP3    H132231   2.556   2.780  10.456 -0.3861 -0.3090  0.6659
 3580TIP3    H232232   2.693   2.758  10.517 -0.1423 -1.0201 -0.1173
 3581TIP3   OH232233   3.844   2.011   0.571 -0.1235  0.1771 -0.0313
 3581TIP3    H132234   3.833   2.046   0.660 -1.5774  0.8628 -0.4586
 3581TIP3    H232235   3.774   1.946   0.563  0.0274  0.0940 -0.6841
 3582TIP3   OH232236   3.034   3.376   3.018 -0.0575 -0.6533 -0.2028
 3582TIP3    H132237   3.069   3.313   3.080 -0.6971  0.2987  1.1825
 3582TIP3    H232238   3.077   3.459   3.040  0.1157 -0.3989 -1.4059
 3583TIP3   OH232239   3.505   3.873  11.998 -0.1355 -0.0628 -0.6246
 3583TIP3    H132240   3.470   3.912  12.079 -0.8059 -0.4176 -0.7364
 3583TIP3    H232241   3.451   3.910  11.929  0.3426  0.1240 -0.9039
 3584TIP3   OH232242   0.345   6.484   0.880 -0.4373 -0.7522 -0.1494
 3584TIP3    H132243   0.316   6.484   0.971 -2.1104 -0.6184 -0.6608
 3584TIP3    H232244   0.386   6.398   0.868 -1.0522 -1.1459  0.4851
 3585TIP3   OH232245   0.303   1.542   1.802 -0.0616 -0.7274 -0.1468
 3585TIP3    H132246   0.309   1.554   1.897 -1.9238 -1.6728  0.1162
 3585TIP3    H232247   0.362   1.469   1.783  1.1108  0.1211  0.1034
 3586TIP3   OH232248   5.241   0.675  14.168  0.4505  0.5095  0.7473
 3586TIP3    H132249   5.152   0.666  14.134  0.7133  0.6562  0.0114
 3586TIP3    H232250   5.271   0.759  14.134  1.1247  0.1299  0.3924
 3587TIP3   OH232251   0.782   2.875  15.509 -0.2054 -0.3613  0.4711
 3587TIP3    H132252   0.802   2.846  15.598 -2.7242  1.1118  1.6535
 3587TIP3    H232253   0.698   2.834  15.489 -1.1570  1.6463  0.0305
 3588TIP3   OH232254   0.950   6.193   5.858 -0.0374 -0.3542 -0.4391
 3588TIP3    H132255   1.042   6.170   5.842  0.1927  1.2201 -1.5678
 3588TIP3    H232256   0.908   6.186   5.773 -0.5421  0.7420 -0.2939
 3589TIP3   OH232257   5.674   5.414  12.905  0.0103 -0.2167 -0.1330
 3589TIP3    H132258   5.710   5.372  12.983  0.8796 -1.8778 -1.3770
 3589TIP3    H232259   5.584   5.382  12.900  0.8383 -2.6117 -1.4141
 3590TIP3   OH232260   3.333   2.964   0.504  0.4104  0.1122  0.0963
 3590TIP3    H132261   3.306   2.957   0.595  2.0980 -0.3927  0.5801
 3590TIP3    H232262   3.384   3.045   0.499  0.5005  0.0340 -0.3519
 3591TIP3   OH232263   3.164   2.681  16.050 -0.6249 -0.4702 -0.9103
 3591TIP3    H132264   3.149   2.676  16.144 -0.2798 -1.7707 -0.9160
 3591TIP3    H232265   3.083   2.648  16.010 -0.4368 -0.7631 -1.0527
 3592TIP3   OH232266   6.616   0.973   0.347 -0.0866  0.1705 -0.3228
 3592TIP3    H132267   6.638   1.016   0.264  1.4103  1.1244  0.5229
 3592TIP3    H232268   6.531   1.010   0.371 -0.1969  0.4232 -1.0700
 3593TIP3   OH232269   1.656   2.818  15.733  0.6884  0.0528 -1.2034
 3593TIP3    H132270   1.604   2.898  15.739  2.0931  0.9776 -0.7013
 3593TIP3    H232271   1.696   2.808  15.819  1.9365 -0.1678 -1.7721
 3594TIP3   OH232272   4.908   0.652  17.077  0.0755  0.2772 -0.0187
 3594TIP3    H132273   4.994   0.646  17.035  0.1603  0.0311  0.1878
 3594TIP3    H232274   4.921   0.714  17.149  0.5587 -1.1354  1.1626
 3595TIP3   OH232275   4.377   5.012   4.828  0.0615  0.4706  0.0093
 3595TIP3    H132276   4.288   5.047   4.837  0.4329  1.5702 -0.3366
 3595TIP3    H232277   4.368   4.942   4.763 -0.7601 -0.3244  0.9401
 3596TIP3   OH232278   1.155   1.442   6.589  0.3180  0.5413 -0.0964
 3596TIP3    H132279   1.237   1.458   6.636  0.0812 -0.1788  0.5707
 3596TIP3    H232280   1.178   1.376   6.523  0.5426  1.2177 -0.7129
 3597TIP3   OH232281   4.517   2.622   1.869 -0.3184 -0.6203  0.4650
 3597TIP3    H132282   4.601   2.622   1.914 -0.4392  0.3940  0.7233
 3597TIP3    H232283   4.453   2.640   1.938 -0.5735  0.2623  0.0092
 3598TIP3   OH232284   3.472   4.196  16.294  0.0383 -0.1234 -0.5260
 3598TIP3    H132285   3.513   4.276  16.326  1.3146 -0.6440 -0.7994
 3598TIP3    H232286   3.399   4.227  16.239 -0.9928  0.7928  1.2542
 3599TIP3   OH232287   1.658   5.428   1.705 -0.3960  0.1609 -0.1574
 3599TIP3    H132288   1.656   5.522   1.686  0.3639  0.6042  1.7344
 3599TIP3    H232289   1.742   5.399   1.671  0.2208  0.5862  0.9817
 3600TIP3   OH232290   2.161   3.709   5.548  0.3673 -0.1053  0.0371
 3600TIP3    H132291   2.222   3.765   5.595  1.4673 -1.1708 -0.0793
 3600TIP3    H232292   2.082   3.708   5.603  1.2528 -0.5028  1.3506
 3601TIP3   OH232293   5.170   3.543  14.013 -0.1045 -0.1223 -0.2527
 3601TIP3    H132294   5.164   3.601  13.937  0.6441 -0.4366 -0.5640
 3601TIP3    H232295   5.255   3.564  14.052 -0.3865 -0.1184  0.3762
 3602TIP3   OH232296   0.249   2.879  16.312  0.5832 -0.0021 -0.7591
 3602TIP3    H132297   0.332   2.832  16.307  1.0523  0.8299 -0.8639
 3602TIP3    H232298   0.240   2.903  16.405  0.1799 -0.5718 -0.6422
 3603TIP3   OH232299   6.218   5.299   2.458 -0.6642 -0.2667  0.1538
 3603TIP3    H132300   6.157   5.237   2.418 -0.1552  0.5803 -2.0994
 3603TIP3    H232301   6.257   5.345   2.383 -1.9008  3.6371  1.6760
 3604TIP3   OH232302   2.280   4.580   5.210 -0.3365  0.0541 -0.4775
 3604TIP3    H132303   2.249   4.606   5.297 -0.2175 -0.6204 -0.2256
 3604TIP3    H232304   2.280   4.484   5.212  1.0963  0.0232 -0.7034
 3605TIP3   OH232305   3.707   1.099  17.102 -0.0338  0.1466 -0.6930
 3605TIP3    H132306   3.790   1.132  17.068  0.8836 -1.9999 -0.7587
 3605TIP3    H232307   3.690   1.020  17.049 -1.5317 -0.0800  0.0733
 3606TIP3   OH232308   3.157   3.647  13.800  0.8351 -0.0091 -0.2586
 3606TIP3    H132309   3.229   3.602  13.756 -0.2190 -2.0479  0.0312
 3606TIP3    H232310   3.078   3.613  13.759 -0.0800 -0.1212  1.5149
 3607TIP3   OH232311   3.793   6.299  15.094 -0.0220  0.0677  0.0604
 3607TIP3    H132312   3.805   6.312  15.188 -0.3840 -1.0819  0.2865
 3607TIP3    H232313   3.818   6.382  15.054  1.4015  0.1634  1.0764
 3608TIP3   OH232314   0.931   4.749   2.170 -0.2914 -0.1736 -0.0483
 3608TIP3    H132315   0.954   4.736   2.078  0.1142  2.9271 -0.4960
 3608TIP3    H232316   0.845   4.791   2.167 -0.4553 -0.4093  1.0137
 3609TIP3   OH232317   4.112   1.357   5.553 -0.1012 -0.3238 -0.1838
 3609TIP3    H132318   4.048   1.373   5.483 -0.7584  0.0498  0.4874
 3609TIP3    H232319   4.098   1.265   5.577 -1.1587  0.0361  0.6878
 3610TIP3   OH232320   6.282   4.942   5.247 -0.1488 -0.1418  0.2160
 3610TIP3    H132321   6.340   4.868   5.265  0.6777  0.3816 -0.2100
 3610TIP3    H232322   6.261   4.933   5.154  0.4665  0.5003  0.0074
 3611TIP3   OH232323   5.232   3.041  12.051  0.5235  0.5981 -0.0044
 3611TIP3    H132324   5.212   3.132  12.032 -0.5888  0.4246  0.2366
 3611TIP3    H232325   5.276   3.009  11.973 -0.5830  0.9031 -0.7716
 3612TIP3   OH232326   6.303   5.902  11.534 -0.2053 -0.1891  0.2507
 3612TIP3    H132327   6.363   5.909  11.460 -0.2956 -0.9901  0.0877
 3612TIP3    H232328   6.360   5.902  11.611  0.0251 -1.0221  0.0937
 3613TIP3   OH232329   3.897   1.576  14.884 -0.4024  0.3575 -0.0418
 3613TIP3    H132330   3.967   1.514  14.906  1.2700  1.5723 -1.5812
 3613TIP3    H232331   3.892   1.633  14.960 -0.6375 -0.5060  0.6108
 3614TIP3   OH232332   4.020   1.237   5.976  0.3859  0.1240  1.0558
 3614TIP3    H132333   3.945   1.254   5.919  0.5442 -0.9171  0.5174
 3614TIP3    H232334   4.071   1.318   5.972  0.8084 -0.1904 -0.9418
 3615TIP3   OH232335   4.986   1.294  16.252  0.1925  0.3472  0.3191
 3615TIP3    H132336   5.067   1.250  16.277 -0.6823 -0.7012  1.4139
 3615TIP3    H232337   4.917   1.245  16.296 -1.1237  0.7539 -1.1985
 3616TIP3   OH232338   5.925   2.289  17.279  0.4942  0.1500 -0.4336
 3616TIP3    H132339   5.945   2.240  17.358 -0.6101 -0.3609 -0.4417
 3616TIP3    H232340   5.859   2.236  17.234 -3.1486  2.9819  1.0675
 3617TIP3   OH232341   3.034   1.726   4.064  0.4946 -0.1204 -0.6469
 3617TIP3    H132342   2.994   1.666   4.000  0.8917 -0.6759 -0.3826
 3617TIP3    H232343   2.967   1.792   4.080 -0.4137 -1.1432 -0.0640
 3618TIP3   OH232344   4.179   2.439   4.526 -0.3501  0.1466  0.3743
 3618TIP3    H132345   4.227   2.424   4.608  0.4030  0.0604 -0.0633
 3618TIP3    H232346   4.108   2.376   4.528 -0.8073  0.6698  1.3127
 3619TIP3   OH232347   5.825   4.952   4.792 -0.2072 -0.2350 -0.0442
 3619TIP3    H132348   5.823   5.034   4.743  0.8300  0.1871  0.5716
 3619TIP3    H232349   5.894   4.965   4.857 -0.5621 -1.3130  0.5745
 3620TIP3   OH232350   3.547   1.396  13.015  0.0853 -0.4313  0.8055
 3620TIP3    H132351   3.566   1.489  13.002  0.2150 -0.5651 -0.0764
 3620TIP3    H232352   3.624   1.362  13.060  0.7828 -0.4270 -0.3384
 3621TIP3   OH232353   4.941   2.907  16.847  0.3956 -0.6241  0.7828
 3621TIP3    H132354   5.031   2.918  16.817  0.2600  0.3480  0.7006
 3621TIP3    H232355   4.888   2.945  16.777 -0.2196 -2.9360 -0.1151
 3622TIP3   OH232356   3.271   1.431   3.491 -0.1121 -0.1184  0.4519
 3622TIP3    H132357   3.281   1.476   3.574  0.2690 -0.4791  0.6033
 3622TIP3    H232358   3.176   1.430   3.475 -0.0723  2.0361 -0.2795
 3623TIP3   OH232359   6.269   5.492   6.375 -0.2680  0.0059  0.3050
 3623TIP3    H132360   6.266   5.403   6.412  0.3771 -0.2272 -0.1697
 3623TIP3    H232361   6.297   5.479   6.285 -0.2219  0.6911  0.2162
 3624TIP3   OH232362   2.092   3.210  12.789 -0.2545 -0.3846  0.2656
 3624TIP3    H132363   2.102   3.269  12.715 -0.9418 -1.7324 -0.9413
 3624TIP3    H232364   2.182   3.193  12.818 -0.0314  3.5104  2.6242
 3625TIP3   OH232365   0.110   2.416  14.343 -0.6304 -0.9498  0.1282
 3625TIP3    H132366   0.148   2.346  14.291 -1.4475 -2.0214  0.9106
 3625TIP3    H232367   0.182   2.476  14.360 -0.0418 -1.3018 -1.0284
 3626TIP3   OH232368   3.886   2.252   5.510  0.3472 -0.0446  0.2412
 3626TIP3    H132369   3.865   2.168   5.469  2.5279 -0.4938 -0.0641
 3626TIP3    H232370   3.897   2.232   5.603 -3.6672  0.8125  1.1007
 3627TIP3   OH232371   6.139   5.086   3.106 -0.1503 -0.2342 -0.3001
 3627TIP3    H132372   6.094   5.141   3.170  0.8016 -1.0900  1.1799
 3627TIP3    H232373   6.113   5.121   3.021 -1.0483  1.2859  0.5559
 3628TIP3   OH232374   3.057   1.492   4.192 -0.0893  0.2573  0.8371
 3628TIP3    H132375   3.037   1.550   4.266 -1.2050  0.2174  0.5782
 3628TIP3    H232376   3.072   1.552   4.118  1.5834  0.3263  1.1900
 3629TIP3   OH232377   4.407   6.167   5.844  0.0575  0.1320  0.1092
 3629TIP3    H132378   4.317   6.172   5.812 -0.1731  2.0987  0.9209
 3629TIP3    H232379   4.445   6.253   5.825  1.9571 -0.8196 -0.6955
 3630TIP3   OH232380   5.171   5.044  16.090  0.0629 -0.6661  0.5638
 3630TIP3    H132381   5.210   5.126  16.122  1.9597 -0.8123 -1.1808
 3630TIP3    H232382   5.121   5.011  16.165 -0.1699  1.7092  1.5388
 3631TIP3   OH232383   0.590   5.010   6.072 -0.2721  0.0867  0.4199
 3631TIP3    H132384   0.568   4.941   6.009  0.6889  0.1087  0.0282
 3631TIP3    H232385   0.640   5.074   6.020  0.6761  0.0331  1.2315
 3632TIP3   OH232386   1.407   4.550   5.931 -0.3500 -0.2422  0.0713
 3632TIP3    H132387   1.329   4.553   5.986  0.1953 -0.2545  0.8656
 3632TIP3    H232388   1.452   4.633   5.948 -1.2238  0.7261 -1.9782
 3633TIP3   OH232389   2.968   3.397   3.737 -0.1756  0.5460 -0.1443
 3633TIP3    H132390   2.943   3.343   3.812  0.4984  0.3297 -0.0608
 3633TIP3    H232391   3.040   3.348   3.696  1.5156  2.0867  0.8105
 3634TIP3   OH232392   2.422   3.166   4.531 -0.1019 -0.1661 -0.2587
 3634TIP3    H132393   2.485   3.143   4.599  0.8118  3.3612  0.2945
 3634TIP3    H232394   2.460   3.129   4.451  0.7293 -1.2369  0.5801
 3635TIP3   OH232395   0.008   0.370  12.679  0.2263 -0.9759  0.2584
 3635TIP3    H132396  -0.036   0.286  12.691 -1.8874 -0.1066 -0.8725
 3635TIP3    H232397  -0.062   0.430  12.653  1.6108  1.2300  1.3466
 3636TIP3   OH232398   1.942   3.857   3.360  0.2660 -0.3342  1.0876
 3636TIP3    H132399   1.865   3.906   3.330  1.0907  0.9065  0.8838
 3636TIP3    H232400   2.003   3.863   3.287  1.7064  1.3716  2.3233
 3637TIP3   OH232401   4.039   0.642  14.044 -0.0170  0.5796 -0.0908
 3637TIP3    H132402   4.099   0.645  13.970 -1.0744  1.8364 -0.9439
 3637TIP3    H232403   3.952   0.643  14.004 -0.6514  3.3027  1.1430
 3638TIP3   OH232404   2.956   0.808   1.124 -0.0332 -0.3834  0.5514
 3638TIP3    H132405   2.914   0.748   1.062 -2.2436  0.5277  1.0585
 3638TIP3    H232406   2.893   0.816   1.195  0.8451  1.4066  1.1900
 3639TIP3   OH232407   2.606   1.167  11.393  0.3183  0.4736 -0.1101
 3639TIP3    H132408   2.617   1.196  11.303 -0.6756 -0.7551 -0.6606
 3639TIP3    H232409   2.636   1.240  11.446 -1.1416  2.0923 -1.4228
 3640TIP3   OH232410   5.164   6.111  11.109 -0.0840  0.1589 -0.0608
 3640TIP3    H132411   5.126   6.042  11.054 -0.4431  0.4356 -0.1641
 3640TIP3    H232412   5.255   6.084  11.122  0.1767  0.3895 -1.2706
 3641TIP3   OH232413   0.127   1.208  16.443  0.1118 -0.4898  0.3649
 3641TIP3    H132414   0.062   1.246  16.502  0.2614 -0.7037  0.6762
 3641TIP3    H232415   0.105   1.243  16.357 -0.4022 -0.5419  0.4686
 3642TIP3   OH232416   1.958   6.363  15.808  0.2157 -0.9193  0.1416
 3642TIP3    H132417   1.999   6.278  15.792  0.9454 -0.8139  1.3728
 3642TIP3    H232418   1.955   6.371  15.903 -0.7045  0.0313  0.0466
 3643TIP3   OH232419   0.407   1.693   3.623  0.3233 -0.1698  0.2109
 3643TIP3    H132420   0.329   1.639   3.608  1.0085 -1.4129  0.9851
 3643TIP3    H232421   0.437   1.716   3.535 -0.5734 -0.1606 -0.1036
 3644TIP3   OH232422   1.177   0.961   2.365  0.1928  0.0821  0.6071
 3644TIP3    H132423   1.149   0.870   2.375  0.5460 -0.1486 -0.3912
 3644TIP3    H232424   1.261   0.955   2.320 -0.3904  0.9399 -0.6585
 3645TIP3   OH232425   6.689   1.573  11.777  0.8474  0.1807  0.5559
 3645TIP3    H132426   6.656   1.663  11.774 -2.0402 -0.7933 -0.1877
 3645TIP3    H232427   6.748   1.567  11.702 -0.8649  0.8608 -0.9441
 3646TIP3   OH232428   0.576   5.123   2.014  0.3967 -0.1593 -0.1126
 3646TIP3    H132429   0.613   5.206   1.987  1.5776 -0.1363  1.4127
 3646TIP3    H232430   0.578   5.068   1.936  0.1824  1.0282 -0.9735
 3647TIP3   OH232431   1.059   1.915  13.490  0.0364  0.5452  0.2095
 3647TIP3    H132432   1.091   1.980  13.551  0.4305 -1.2200  1.9946
 3647TIP3    H232433   1.021   1.846  13.545  2.1982 -2.0990 -1.3021
 3648TIP3   OH232434   5.291   2.330  16.923  0.0943 -0.3521  0.5433
 3648TIP3    H132435   5.364   2.385  16.896 -0.8257  1.3610  1.3423
 3648TIP3    H232436   5.257   2.372  17.003 -3.0007  0.1475 -0.8727
 3649TIP3   OH232437   1.210   1.223  13.113 -0.7320 -0.2292  0.3680
 3649TIP3    H132438   1.154   1.170  13.057  0.7235 -0.5227 -0.8918
 3649TIP3    H232439   1.298   1.209  13.078 -0.0092  1.1018  1.5593
 3650TIP3   OH232440   5.381   0.798   4.168 -0.3838  0.3153 -0.3852
 3650TIP3    H132441   5.411   0.837   4.250  0.6282 -1.0056 -0.0992
 3650TIP3    H232442   5.383   0.870   4.105 -0.4061  1.1597  0.5557
 3651TIP3   OH232443   5.444   3.265   4.769 -0.2047 -0.2700 -0.6176
 3651TIP3    H132444   5.503   3.313   4.711 -0.0810  0.2920 -0.0448
 3651TIP3    H232445   5.502   3.210   4.822 -0.3296 -0.9010 -1.1249
 3652TIP3   OH232446   1.593   5.311   4.987  1.1429  0.5175  0.3091
 3652TIP3    H132447   1.648   5.262   5.049  1.7874  1.8955  0.8665
 3652TIP3    H232448   1.575   5.249   4.917  0.5275 -1.0425  1.7874
 3653TIP3   OH232449   2.015   4.264  13.697 -0.0333  0.3055 -0.1996
 3653TIP3    H132450   1.934   4.315  13.691 -0.5977 -0.6741 -1.0969
 3653TIP3    H232451   2.055   4.293  13.779 -1.7467  0.1389  0.7276
 3654TIP3   OH232452   3.568   3.721   0.415  0.7270 -0.3454 -0.2836
 3654TIP3    H132453   3.553   3.710   0.321  0.9306  1.2267 -0.5202
 3654TIP3    H232454   3.502   3.785   0.443  0.2587 -1.2551  0.7901
 3655TIP3   OH232455   1.492   0.724  13.578 -0.1180 -0.5649  0.0852
 3655TIP3    H132456   1.505   0.771  13.495  0.5666 -1.6334 -0.4254
 3655TIP3    H232457   1.475   0.794  13.642 -0.7046  0.2790 -0.9451
 3656TIP3   OH232458   6.525   3.147   1.490 -0.2356 -0.0707 -0.5237
 3656TIP3    H132459   6.514   3.052   1.488 -0.8772 -0.1318  2.0351
 3656TIP3    H232460   6.451   3.181   1.441 -1.4516 -0.8768  0.6984
 3657TIP3   OH232461   5.747   1.966  15.049  0.1405  0.6903  0.3168
 3657TIP3    H132462   5.817   1.941  14.989  0.2157 -0.7833  0.9768
 3657TIP3    H232463   5.702   2.038  15.005  1.6599  1.2408 -0.4198
 3658TIP3   OH232464   5.517   4.568  16.998 -0.1847 -0.1389 -0.0678
 3658TIP3    H132465   5.456   4.547  16.928 -0.1728  0.8526 -0.4006
 3658TIP3    H232466   5.481   4.647  17.039  0.1908 -0.2854  0.5644
 3659TIP3   OH232467   0.739   4.641   2.387 -0.6994 -0.0365  0.3272
 3659TIP3    H132468   0.715   4.707   2.322  1.6654  1.2074  0.6034
 3659TIP3    H232469   0.676   4.652   2.458 -2.6278 -0.6617 -1.2234
 3660TIP3   OH232470   1.007   3.054   5.373 -0.2395 -0.2539  0.5265
 3660TIP3    H132471   0.971   3.140   5.354  1.6436  0.5755  0.4883
 3660TIP3    H232472   1.020   3.053   5.468  0.3900 -0.2113  0.4457
 3661TIP3   OH232473   5.472   1.101   6.613 -0.3352 -0.2777 -0.1112
 3661TIP3    H132474   5.499   1.020   6.571 -1.5206 -0.5958 -0.2962
 3661TIP3    H232475   5.552   1.134   6.655  0.0731 -1.7547  0.3393
 3662TIP3   OH232476   5.734   4.924  11.391 -0.1971 -0.1345  0.1428
 3662TIP3    H132477   5.657   4.934  11.446  0.2227  0.9202  0.5673
 3662TIP3    H232478   5.744   5.009  11.347  2.6705  1.0311  2.6970
 3663TIP3   OH232479   2.251   1.200   1.637 -0.0723 -0.4155  0.5130
 3663TIP3    H132480   2.197   1.270   1.601 -1.9584 -1.6555  0.7871
 3663TIP3    H232481   2.317   1.184   1.570 -0.0646  1.0831  0.1196
 3664TIP3   OH232482   6.793   3.103   3.520  0.5150  0.3135 -0.0081
 3664TIP3    H132483   6.834   3.017   3.509 -3.0083 -1.4643 -0.6445
 3664TIP3    H232484   6.713   3.086   3.569 -1.0019  2.9874 -1.2838
 3665TIP3   OH232485   0.676   3.392  13.088 -0.2188 -0.0453 -0.0629
 3665TIP3    H132486   0.715   3.305  13.090 -0.9419 -0.3605  1.1324
 3665TIP3    H232487   0.748   3.452  13.107 -0.4351 -0.6870  3.2204
 3666TIP3   OH232488   0.912   2.647   2.674 -0.4602 -0.9665 -0.3650
 3666TIP3    H132489   0.902   2.739   2.649 -1.8453 -0.5823  1.3623
 3666TIP3    H232490   0.822   2.615   2.683  0.0016 -2.5726 -1.1720
 3667TIP3   OH232491   2.584   1.758  16.356 -0.2987  0.2101 -0.0984
 3667TIP3    H132492   2.666   1.741  16.403  0.7988 -0.1986 -2.0705
 3667TIP3    H232493   2.558   1.845  16.386 -0.1411 -0.3830  1.9077
 3668TIP3   OH232494   4.472   2.955  12.898 -0.2226  0.1809  0.6639
 3668TIP3    H132495   4.435   2.894  12.962 -0.0788  0.1015  0.6724
 3668TIP3    H232496   4.502   2.898  12.827 -1.1834  0.3337  0.1254
 3669TIP3   OH232497   3.327   3.515  12.267  0.0570 -0.6968  0.3046
 3669TIP3    H132498   3.372   3.449  12.320  1.1714 -0.0724  0.1471
 3669TIP3    H232499   3.252   3.541  12.320  0.4776 -0.9634  1.0377
 3670TIP3   OH232500   3.365   6.070   0.165  0.2187 -0.5065  0.0068
 3670TIP3    H132501   3.297   6.136   0.181  0.4911 -0.2794  0.2118
 3670TIP3    H232502   3.317   5.996   0.127 -0.0502 -0.0922 -0.4758
 3671TIP3   OH232503   4.576   5.915   5.736 -0.0991 -0.0947  0.1327
 3671TIP3    H132504   4.633   5.841   5.718  0.1656  0.1433 -0.0100
 3671TIP3    H232505   4.570   5.918   5.832  1.3873  0.8199  0.2207
 3672TIP3   OH232506   5.869   3.773  12.568  0.6313 -0.3176 -0.5135
 3672TIP3    H132507   5.925   3.705  12.530 -0.1795 -2.0233  1.2034
 3672TIP3    H232508   5.888   3.770  12.662 -1.3113  0.0219 -0.0729
 3673TIP3   OH232509   3.135   6.154   0.438 -0.3853  0.0003 -0.1744
 3673TIP3    H132510   3.165   6.197   0.518  0.9747  0.1013 -0.7042
 3673TIP3    H232511   3.177   6.203   0.367 -2.5719  0.7282 -1.0524
 3674TIP3   OH232512   6.139   1.898  15.769 -0.5089  0.2913  0.1354
 3674TIP3    H132513   6.228   1.926  15.750  0.2371 -1.1334  1.3369
 3674TIP3    H232514   6.146   1.847  15.850 -2.3464 -0.2101  0.0324
 3675TIP3   OH232515   5.224   5.437   1.817 -0.0104  0.1721 -0.0430
 3675TIP3    H132516   5.176   5.516   1.793  0.2159  0.4900  0.5194
 3675TIP3    H232517   5.231   5.387   1.736 -1.9331 -0.2462  0.0103
 3676TIP3   OH232518   4.855   4.321   0.056 -0.1673  0.5376 -0.1637
 3676TIP3    H132519   4.903   4.283   0.129 -0.0177  0.8147 -0.1182
 3676TIP3    H232520   4.900   4.404   0.037 -2.0727  2.0492  1.4892
 3677TIP3   OH232521   3.739   6.687   3.575 -0.1722 -0.5058 -0.2406
 3677TIP3    H132522   3.689   6.648   3.503  0.2743 -0.2482 -0.7014
 3677TIP3    H232523   3.673   6.713   3.639 -0.4648 -2.2705  0.2215
 3678TIP3   OH232524   1.076   5.477   5.460 -0.2016 -0.3581 -0.3820
 3678TIP3    H132525   1.139   5.504   5.526  0.9865 -0.5100 -1.4193
 3678TIP3    H232526   1.035   5.558   5.431  2.2975  0.3046 -2.4289
 3679TIP3   OH232527   1.137   4.854  11.241 -0.2367  0.0205  0.2821
 3679TIP3    H132528   1.060   4.873  11.296  2.0703  1.2512  3.4143
 3679TIP3    H232529   1.186   4.788  11.290  2.4601  1.9090  0.3644
 3680TIP3   OH232530   2.745   4.154  12.386  0.4491  0.1427 -0.2970
 3680TIP3    H132531   2.760   4.146  12.292 -0.6012 -0.6937 -0.4074
 3680TIP3    H232532   2.773   4.243  12.407  3.6202 -0.5954 -0.8198
 3681TIP3   OH232533   2.690   5.688   6.364  0.1027 -0.6720  0.1253
 3681TIP3    H132534   2.647   5.765   6.327 -0.1135 -0.7933  0.1230
 3681TIP3    H232535   2.771   5.679   6.314 -0.6019 -1.3575 -0.9171
 3682TIP3   OH232536   5.513   2.595   1.211  0.0375 -0.4687  0.0749
 3682TIP3    H132537   5.570   2.529   1.172 -2.0891 -2.2451 -0.2756
 3682TIP3    H232538   5.541   2.600   1.302  0.3568 -1.7774  0.0692
 3683TIP3   OH232539   1.645   2.867  13.791 -0.1657 -0.4503 -0.0692
 3683TIP3    H132540   1.639   2.804  13.719  0.4153 -0.7109  0.0986
 3683TIP3    H232541   1.710   2.828  13.850  1.0590  0.8536 -0.5115
 3684TIP3   OH232542   4.609   0.640  12.141 -0.1287  0.3422  0.6664
 3684TIP3    H132543   4.594   0.584  12.065 -2.4944 -0.3265  1.5441
 3684TIP3    H232544   4.703   0.633  12.158  0.1564 -0.8469 -1.1280
 3685TIP3   OH232545   3.139   3.092  12.568  0.5445 -0.1483 -0.1579
 3685TIP3    H132546   3.122   3.004  12.534 -1.4165  0.8948 -2.0855
 3685TIP3    H232547   3.074   3.105  12.637  2.3495 -0.9964  1.8212
 3686TIP3   OH232548   1.162   4.085  17.233  0.0256 -0.0196 -0.0669
 3686TIP3    H132549   1.251   4.096  17.267  0.1191  1.3294 -0.6796
 3686TIP3    H232550   1.140   3.995  17.254  1.6117 -0.4442 -0.0452
 3687TIP3   OH232551   6.541   2.523  14.877  0.3676 -0.3074 -0.3245
 3687TIP3    H132552   6.592   2.537  14.797  1.0534 -1.2580 -0.0584
 3687TIP3    H232553   6.598   2.552  14.948 -0.1622  0.3345 -0.1426
 3688TIP3   OH232554   5.632   0.638   0.989  0.1792  0.2046  0.0725
 3688TIP3    H132555   5.606   0.571   0.927 -2.5398  0.8301  0.4144
 3688TIP3    H232556   5.665   0.590   1.065 -0.3925 -0.6761 -0.2332
 3689TIP3   OH232557   4.898   1.364  12.923 -0.4711  0.2007  0.3306
 3689TIP3    H132558   4.852   1.291  12.882 -0.6768  0.0692  0.7886
 3689TIP3    H232559   4.989   1.353  12.896 -0.5521 -0.0558  0.1544
 3690TIP3   OH232560   5.682   4.112  16.583 -0.2299 -0.8653  0.1697
 3690TIP3    H132561   5.634   4.042  16.628  2.3002 -2.6092  0.3962
 3690TIP3    H232562   5.649   4.193  16.621 -2.0977 -2.0124  1.1288
 3691TIP3   OH232563   6.590   1.318  14.741  0.2917 -0.1255 -0.0396
 3691TIP3    H132564   6.647   1.321  14.665 -1.5715 -0.4162 -1.5205
 3691TIP3    H232565   6.554   1.229  14.741  0.2165 -0.1137  1.1560
 3692TIP3   OH232566   2.495   3.932  12.781 -0.5210 -0.0795 -0.1725
 3692TIP3    H132567   2.587   3.920  12.756  0.0971  1.3948  1.2197
 3692TIP3    H232568   2.494   4.014  12.831 -2.7491  0.3608 -0.8395
 3693TIP3   OH232569   6.156   2.149   4.661 -0.2172 -0.1794  0.1831
 3693TIP3    H132570   6.117   2.117   4.743 -0.6403 -1.2638 -0.4208
 3693TIP3    H232571   6.083   2.189   4.614 -0.2168 -0.5386 -0.1319
 3694TIP3   OH232572   2.097   2.924  13.763  0.5535 -0.7542 -0.9765
 3694TIP3    H132573   2.107   2.988  13.834 -1.3393 -2.2994  0.8283
 3694TIP3    H232574   2.061   2.974  13.690 -3.1080  0.0710  1.1007
 3695TIP3   OH232575   1.126   5.874  14.522 -0.0555  0.0103 -0.0961
 3695TIP3    H132576   1.059   5.910  14.464  0.6430  0.2083 -0.8033
 3695TIP3    H232577   1.204   5.869  14.467  1.2181  2.1730  1.3542
 3696TIP3   OH232578   4.616   3.749   0.645  0.0999 -1.1605 -0.2706
 3696TIP3    H132579   4.693   3.744   0.587 -0.4359  2.3463 -1.5189
 3696TIP3    H232580   4.648   3.795   0.723 -0.4398 -1.0118 -0.1354
 3697TIP3   OH232581   6.678   6.176  12.527 -0.0769 -0.1992 -0.1457
 3697TIP3    H132582   6.598   6.150  12.572  0.5588  0.6900  1.6263
 3697TIP3    H232583   6.728   6.095  12.517 -1.0713 -0.7193 -1.0488
 3698TIP3   OH232584   6.370   1.792   0.343 -0.2918  0.8665  0.5066
 3698TIP3    H132585   6.456   1.788   0.303  0.1657  0.9078  1.4724
 3698TIP3    H232586   6.309   1.781   0.270  0.5405 -2.7863  0.2078
 3699TIP3   OH232587   0.742   1.120  13.609 -0.5460  0.1466  0.0787
 3699TIP3    H132588   0.654   1.089  13.629 -1.0463  2.0708  1.1076
 3699TIP3    H232589   0.769   1.170  13.686  1.1397  0.2633 -0.5316
 3700TIP3   OH232590   5.894   1.269   0.627  0.2681 -0.1161  0.6652
 3700TIP3    H132591   5.871   1.355   0.594  2.3415  0.3245  0.2370
 3700TIP3    H232592   5.927   1.285   0.715  1.1233 -0.3963  0.4014
 3701TIP3   OH232593   1.624   6.441   4.184 -0.0845 -0.0384 -0.3881
 3701TIP3    H132594   1.656   6.375   4.245  0.8269  0.8688  0.1324
 3701TIP3    H232595   1.656   6.524   4.218 -1.3082  0.7026 -0.9742
 3702TIP3   OH232596   0.082   3.176  13.344  0.6162  0.2900  0.1452
 3702TIP3    H132597   0.001   3.168  13.394  1.5987 -1.3772  1.6080
 3702TIP3    H232598   0.064   3.134  13.260 -1.2502  3.6420 -1.3087
 3703TIP3   OH232599   0.014   0.486   1.047 -0.0289 -0.0288  0.2518
 3703TIP3    H132600   0.086   0.537   1.084 -2.7183  2.0240  3.0907
 3703TIP3    H232601  -0.021   0.540   0.976  0.4265 -0.5051 -0.3564
 3704TIP3   OH232602   2.194   0.955  15.494  0.2655 -0.1854 -0.1063
 3704TIP3    H132603   2.212   1.039  15.534  0.3993  0.4573 -1.4530
 3704TIP3    H232604   2.112   0.926  15.534  0.6727  0.1513  1.0060
 3705TIP3   OH232605   0.425   5.115  17.055 -0.3311  0.1138 -0.0385
 3705TIP3    H132606   0.414   5.191  17.112 -1.9796 -1.0932  1.3476
 3705TIP3    H232607   0.336   5.093  17.026 -0.1458 -2.2352  0.9436
 3706TIP3   OH232608   3.136   0.924  12.840  0.0156  0.2947  0.0330
 3706TIP3    H132609   3.162   0.939  12.931  0.9351  0.3773 -0.2315
 3706TIP3    H232610   3.041   0.914  12.844  0.0550  0.1381  1.0240
 3707TIP3   OH232611   2.607   6.682   0.150  0.0032  0.0653  0.1931
 3707TIP3    H132612   2.538   6.616   0.148  0.1464 -0.0677 -0.9697
 3707TIP3    H232613   2.687   6.633   0.170  0.5406 -0.5981 -2.9678
 3708TIP3   OH232614   5.011   1.796  11.785 -0.2350  0.0851 -0.2678
 3708TIP3    H132615   5.102   1.768  11.774 -0.3557 -1.0611  1.2366
 3708TIP3    H232616   4.971   1.784  11.699  0.6685 -0.8870 -0.5713
 3709TIP3   OH232617   1.411   4.629   5.661 -0.5273  0.3476 -0.4063
 3709TIP3    H132618   1.494   4.674   5.677  0.8020 -1.3644 -2.0574
 3709TIP3    H232619   1.389   4.589   5.745  1.4473 -0.8823 -0.4159
 3710TIP3   OH232620   4.115   2.341  11.318  0.2055  0.1622  0.3373
 3710TIP3    H132621   4.086   2.427  11.348  1.9031  0.3545  1.5287
 3710TIP3    H232622   4.143   2.356  11.228  0.2459  0.7942  0.4465
 3711TIP3   OH232623   2.388   1.341   5.094 -0.1004  0.2546  0.0697
 3711TIP3    H132624   2.446   1.266   5.109 -0.5853  0.5216  4.2670
 3711TIP3    H232625   2.447   1.412   5.071  0.6884 -0.5589 -0.5218
 3712TIP3   OH232626   1.598   5.006   3.225 -0.4016 -0.2798  0.0803
 3712TIP3    H132627   1.599   4.990   3.130 -1.2898 -2.3502  0.3671
 3712TIP3    H232628   1.686   4.981   3.254 -0.3211 -0.2231 -0.1080
 3713TIP3   OH232629   4.550   0.049   0.834 -0.2718  0.4648 -0.0310
 3713TIP3    H132630   4.573  -0.038   0.867  1.1283  0.4716 -0.9082
 3713TIP3    H232631   4.586   0.052   0.746 -1.9279  1.2845 -0.7234
 3714TIP3   OH232632   3.361   6.541  12.169  0.4607  1.2700 -0.5327
 3714TIP3    H132633   3.404   6.581  12.244  0.3453  0.3544  0.0310
 3714TIP3    H232634   3.269   6.537  12.192  0.2755  1.8731 -1.1315
 3715TIP3   OH232635   4.316   4.811   3.604  0.4317  0.7803 -0.1338
 3715TIP3    H132636   4.258   4.847   3.536 -0.0458  1.1082  0.4371
 3715TIP3    H232637   4.403   4.811   3.564 -0.3281 -2.6528 -2.1955
 3716TIP3   OH232638   5.522   3.495  15.891 -0.1262 -0.5175  0.3747
 3716TIP3    H132639   5.599   3.533  15.935 -2.8406  2.5379  2.9645
 3716TIP3    H232640   5.496   3.422  15.948  0.1596 -0.8402  0.1009
 3717TIP3   OH232641   3.980   5.106   0.950 -0.2095 -0.3456 -0.0084
 3717TIP3    H132642   4.031   5.159   1.010  2.0864  0.1392 -2.1966
 3717TIP3    H232643   3.956   5.028   1.000  0.1011  0.7855  1.9707
 3718TIP3   OH232644   4.707   2.329   4.541  0.5056 -0.0332  0.4377
 3718TIP3    H132645   4.622   2.307   4.578  0.8517  0.3053  1.4604
 3718TIP3    H232646   4.770   2.291   4.601  1.0887  0.0814 -0.0880
 3719TIP3   OH232647   4.188   4.923   1.025 -0.1689 -0.0647  0.4087
 3719TIP3    H132648   4.234   5.002   0.995 -2.3401  1.5173  0.9699
 3719TIP3    H232649   4.157   4.881   0.945  0.8325 -0.2681  0.1135
 3720TIP3   OH232650   4.728   5.558   2.811  0.0201 -0.3399  0.4835
 3720TIP3    H132651   4.749   5.478   2.859 -1.2482 -1.4436 -0.6989
 3720TIP3    H232652   4.660   5.600   2.864 -1.0898 -1.3496 -0.0934
 3721TIP3   OH232653   6.346   0.727  10.748  0.3537  0.1396 -0.3323
 3721TIP3    H132654   6.388   0.735  10.662  0.8627  0.9347 -0.0220
 3721TIP3    H232655   6.413   0.756  10.810 -0.2326  0.2027  0.2768
 3722TIP3   OH232656   1.269   4.583  12.827 -0.0532 -0.6250  0.1325
 3722TIP3    H132657   1.337   4.525  12.861 -0.3597 -0.3389  1.2875
 3722TIP3    H232658   1.301   4.671  12.847 -0.6675 -0.4820  0.4958
 3723TIP3   OH232659   0.288   3.876  16.265  0.0940 -0.3453 -0.3008
 3723TIP3    H132660   0.259   3.955  16.312  1.5091 -0.4302  0.7753
 3723TIP3    H232661   0.383   3.881  16.266  0.2369 -2.3036  0.2209
 3724TIP3   OH232662   3.536   2.612   0.620 -0.0800  0.8290  0.0473
 3724TIP3    H132663   3.517   2.522   0.595  1.0772  0.6897 -0.3812
 3724TIP3    H232664   3.456   2.643   0.663 -0.4263 -0.4524  0.3506
 3725TIP3   OH232665   2.753   5.179   6.025 -0.4450 -0.1045  0.3714
 3725TIP3    H132666   2.778   5.253   6.081 -1.7958  1.5714 -1.1109
 3725TIP3    H232667   2.662   5.163   6.046 -0.1193 -1.5069  0.7894
 3726TIP3   OH232668   3.150   0.674   5.627 -0.1192 -0.3945  0.0854
 3726TIP3    H132669   3.209   0.626   5.568  0.2182 -0.1443  0.2200
 3726TIP3    H232670   3.147   0.763   5.591  1.7540  0.3556  1.6068
 3727TIP3   OH232671   0.131   1.621  13.254 -0.7494 -0.0748 -0.0970
 3727TIP3    H132672   0.054   1.656  13.299 -1.1579  1.5055 -1.8562
 3727TIP3    H232673   0.196   1.691  13.260  0.1206 -0.9170  0.3383
 3728TIP3   OH232674   1.649   3.320  13.960 -0.8211  0.1854 -0.1274
 3728TIP3    H132675   1.712   3.385  13.991 -0.8300  0.5968 -0.9412
 3728TIP3    H232676   1.673   3.239  14.005  0.6569  0.1950 -0.8290
 3729TIP3   OH232677   4.066   4.197  12.713 -0.3170  0.0610 -0.3633
 3729TIP3    H132678   4.039   4.277  12.759  1.2239 -0.0048  0.7559
 3729TIP3    H232679   4.159   4.211  12.694  0.0808 -1.5876  0.1783
 3730TIP3   OH232680   5.623   2.077   0.483  0.0250  0.2798  0.1939
 3730TIP3    H132681   5.668   2.015   0.540  0.1072  0.8310  0.7355
 3730TIP3    H232682   5.553   2.026   0.442  0.0248 -0.1428  0.7158
 3731TIP3   OH232683   6.228   4.296   1.995  0.4013  0.0405  0.4105
 3731TIP3    H132684   6.320   4.270   2.004  0.9731  1.5793 -0.5134
 3731TIP3    H232685   6.192   4.237   1.930  0.6275 -0.8033  1.0394
 3732TIP3   OH232686   5.156   6.052   1.674 -0.4972  0.1899  0.1822
 3732TIP3    H132687   5.066   6.060   1.643 -0.3656 -0.7806 -0.5025
 3732TIP3    H232688   5.153   5.983   1.740 -0.2805  0.2282  0.2339
 3733TIP3   OH232689   2.959   3.649   3.603 -0.5325  0.0432 -0.2370
 3733TIP3    H132690   2.959   3.731   3.651 -1.5988  0.3923 -0.8083
 3733TIP3    H232691   2.951   3.582   3.670 -1.3413  0.4939  0.1202
 3734TIP3   OH232692   3.249   0.534   0.457 -0.0041 -0.0351 -0.6426
 3734TIP3    H132693   3.201   0.466   0.504 -1.0982  0.3168 -1.2217
 3734TIP3    H232694   3.266   0.601   0.523 -0.1108 -0.2644 -0.3806
 3735TIP3   OH232695   6.146   2.649   5.664  0.2353 -0.4182  0.1510
 3735TIP3    H132696   6.126   2.591   5.591  0.5584 -0.5950  0.2021
 3735TIP3    H232697   6.196   2.595   5.725  0.0656 -0.2408  0.4536
 3736TIP3   OH232698   6.258   3.628  11.573 -0.1444 -0.2243 -0.0163
 3736TIP3    H132699   6.225   3.578  11.647  0.1043  0.6556  0.6938
 3736TIP3    H232700   6.337   3.671  11.605  1.0604 -1.3266 -1.3373
 3737TIP3   OH232701   1.237   1.065  11.119 -0.3841  0.4425  0.2966
 3737TIP3    H132702   1.308   1.040  11.061 -0.0111 -0.6629  1.1938
 3737TIP3    H232703   1.261   1.152  11.150 -0.6841  1.1360 -1.3138
 3738TIP3   OH232704   1.929   1.703   5.091  0.6256  0.1887 -0.9570
 3738TIP3    H132705   1.874   1.773   5.056  0.9006  0.1814 -1.4109
 3738TIP3    H232706   2.003   1.749   5.131  1.1088  0.1384 -1.7836
 3739TIP3   OH232707   4.356   2.830   3.455 -0.3051 -0.1708 -0.1770
 3739TIP3    H132708   4.439   2.877   3.464  0.2409 -0.9634 -0.9012
 3739TIP3    H232709   4.290   2.898   3.448  0.0649  0.4913  2.0402
 3740TIP3   OH232710   5.334   1.726  15.961  0.1917 -0.4153  0.4067
 3740TIP3    H132711   5.414   1.770  15.991  0.3674 -0.0287 -0.6184
 3740TIP3    H232712   5.339   1.639  16.002  0.6905 -0.0897  1.0650
 3741TIP3   OH232713   1.203   6.467  12.982 -0.3586  0.5178 -0.3049
 3741TIP3    H132714   1.217   6.547  13.031 -0.1866  0.4749 -0.2832
 3741TIP3    H232715   1.161   6.495  12.900 -2.0772  0.4407  0.5018
 3742TIP3   OH232716   6.322   1.035  14.868  0.2915 -0.5017  0.1950
 3742TIP3    H132717   6.276   0.980  14.805 -0.3952 -0.5125  0.6889
 3742TIP3    H232718   6.406   1.055  14.827 -0.9469  1.2560 -1.7010
 3743TIP3   OH232719   4.161   6.778  15.433  0.3513 -0.2543  0.1970
 3743TIP3    H132720   4.110   6.711  15.387  0.3741 -0.0640 -0.1061
 3743TIP3    H232721   4.098   6.849  15.448  0.5773  0.0761 -0.3774
 3744TIP3   OH232722   6.194   2.457  15.031  0.3824  0.0918 -0.3352
 3744TIP3    H132723   6.230   2.535  14.989 -0.8146  0.8501 -0.0165
 3744TIP3    H232724   6.112   2.441  14.984 -0.6936  0.6037  1.2841
 3745TIP3   OH232725   6.568   3.171  14.549  0.2804 -0.4873  0.2399
 3745TIP3    H132726   6.555   3.130  14.634 -0.9517 -0.1015  0.2533
 3745TIP3    H232727   6.491   3.226  14.536  1.7634  1.7034  0.1435
 3746TIP3   OH232728   3.906   4.903   2.870  0.6380 -0.0915  0.0644
 3746TIP3    H132729   3.925   4.861   2.786  2.1441  2.1203 -0.7996
 3746TIP3    H232730   3.990   4.937   2.900 -0.2246  0.9235  1.4706
 3747TIP3   OH232731   1.218   1.957   3.495  0.2457  0.4907  0.2617
 3747TIP3    H132732   1.166   1.877   3.504  0.3113  0.3530 -0.4914
 3747TIP3    H232733   1.153   2.025   3.477  0.2620  0.4515  0.0530
 3748TIP3   OH232734   1.647   2.238  12.444 -0.5486  0.4027  0.0060
 3748TIP3    H132735   1.555   2.226  12.471 -0.6032  1.1577  0.1823
 3748TIP3    H232736   1.683   2.150  12.441 -1.9780 -0.1932 -2.6280
 3749TIP3   OH232737   2.956   3.914   0.579  0.0427 -0.2350 -0.0952
 3749TIP3    H132738   3.021   3.969   0.622 -1.6238  0.9259  1.0777
 3749TIP3    H232739   2.890   3.975   0.547 -0.0210 -1.2969 -2.1452
 3750TIP3   OH232740   3.138   3.845   3.128 -0.0205 -0.2027  0.0455
 3750TIP3    H132741   3.137   3.887   3.042  0.8709 -0.9286 -0.3380
 3750TIP3    H232742   3.180   3.909   3.186  1.5493 -0.6046 -0.5819
 3751TIP3   OH232743   6.611   2.732   6.614  0.3453  0.1475  0.2496
 3751TIP3    H132744   6.527   2.690   6.596  0.7451 -1.3014  1.5329
 3751TIP3    H232745   6.659   2.667   6.666  2.3250  0.8686 -0.5980
 3752TIP3   OH232746   4.198   2.639  11.306  0.3594 -0.0779 -0.4224
 3752TIP3    H132747   4.290   2.610  11.309  0.8434  1.2428 -1.4317
 3752TIP3    H232748   4.164   2.621  11.393  0.7637 -3.1244 -0.7801
 3753TIP3   OH232749   3.457   6.644   3.051  0.2354 -0.2880 -0.2187
 3753TIP3    H132750   3.410   6.702   3.111 -1.0178 -1.7406  0.3072
 3753TIP3    H232751   3.451   6.687   2.966 -0.9458  0.2023  0.0886
 3754TIP3   OH232752   2.392   1.708  10.771 -0.0791 -0.3130 -0.7512
 3754TIP3    H132753   2.483   1.678  10.766  0.2785  0.8744 -2.1797
 3754TIP3    H232754   2.394   1.779  10.835 -0.4257 -1.5616  0.7018
 3755TIP3   OH232755   5.399   2.237   4.356 -0.0572 -0.6106 -0.0901
 3755TIP3    H132756   5.397   2.202   4.267  0.8065 -0.2558 -0.2533
 3755TIP3    H232757   5.317   2.286   4.364  0.7936  1.1645 -1.4542
 3756TIP3   OH232758   4.022   2.315  10.658  0.5547  0.2373 -0.1427
 3756TIP3    H132759   3.993   2.389  10.712  1.1613 -0.4359  1.1348
 3756TIP3    H232760   4.116   2.330  10.646  0.6853 -0.3238  0.1395
 3757TIP3   OH232761   6.003   0.057  11.209 -0.0820 -0.0758 -0.0970
 3757TIP3    H132762   6.032  -0.022  11.254 -0.7277 -0.6503 -0.6621
 3757TIP3    H232763   6.034   0.047  11.119 -2.5348 -1.0649 -0.9315
 3758TIP3   OH232764   2.183   4.101  12.547  0.1955  0.1296  0.3721
 3758TIP3    H132765   2.095   4.136  12.544  0.2573  0.2335 -0.5739
 3758TIP3    H232766   2.196   4.074  12.638 -1.6602 -2.0671  0.0629
 3759TIP3   OH232767   4.148   0.365   3.485  0.3631 -0.3865 -0.0594
 3759TIP3    H132768   4.094   0.445   3.482 -0.4865 -0.9746 -1.4217
 3759TIP3    H232769   4.229   0.389   3.440  0.5144 -0.0128  0.4055
 3760TIP3   OH232770   4.066   3.979  12.220  0.5250 -0.0398 -0.2705
 3760TIP3    H132771   4.041   4.070  12.234 -0.9572 -0.5160  0.3354
 3760TIP3    H232772   4.047   3.963  12.128 -3.1524 -0.8256  0.4731
 3761TIP3   OH232773   6.517   2.158  16.877 -0.8175  0.0521  0.5079
 3761TIP3    H132774   6.542   2.172  16.786 -0.5774 -0.6740  0.4556
 3761TIP3    H232775   6.600   2.164  16.926 -0.6926 -1.1896  0.4759
 3762TIP3   OH232776   0.083   4.616  15.298 -0.4819  0.2903 -0.3928
 3762TIP3    H132777   0.048   4.687  15.351  0.2769  0.8745 -0.6573
 3762TIP3    H232778   0.137   4.659  15.231 -0.8066 -0.4686 -1.1751
 3763TIP3   OH232779   0.216   1.877  15.914  0.1835 -0.9241  0.3722
 3763TIP3    H132780   0.242   1.830  15.993  0.7033 -2.3841 -0.6083
 3763TIP3    H232781   0.233   1.814  15.843  2.1313  1.2039 -1.1779
 3764TIP3   OH232782   4.811   5.545  14.205 -0.4390 -0.8140 -0.6812
 3764TIP3    H132783   4.760   5.608  14.155 -0.1780  0.8533  1.0790
 3764TIP3    H232784   4.746   5.486  14.243 -1.0125  0.5874  0.5934
 3765TIP3   OH232785   5.304   2.607  16.880 -0.3875 -0.1893  0.6607
 3765TIP3    H132786   5.227   2.558  16.853 -1.5947  1.0309  1.7678
 3765TIP3    H232787   5.328   2.658  16.803 -0.5471 -0.7104  0.2547
 3766TIP3   OH232788   4.109   5.253  14.798 -0.0655  0.1585 -0.4016
 3766TIP3    H132789   4.103   5.324  14.733  0.6577  0.4791 -0.1369
 3766TIP3    H232790   4.169   5.288  14.864 -1.6565  0.2742  1.0150
 3767TIP3   OH232791   6.218   0.955   4.286 -0.1568 -0.0029  0.5399
 3767TIP3    H132792   6.203   0.927   4.196  1.6217  0.4595  0.0533
 3767TIP3    H232793   6.142   1.010   4.307 -0.7654 -0.4019 -0.5446
 3768TIP3   OH232794   1.283   5.783   2.689  0.4425 -0.4880 -0.6495
 3768TIP3    H132795   1.353   5.720   2.672  0.6246 -0.1846 -1.0592
 3768TIP3    H232796   1.208   5.730   2.714  0.4877 -0.8929 -1.3571
 3769TIP3   OH232797   6.660   3.226  12.804 -0.4685 -0.0622  0.3938
 3769TIP3    H132798   6.680   3.155  12.865 -0.7082 -1.3540 -0.9799
 3769TIP3    H232799   6.741   3.241  12.757 -1.1508 -1.4300 -1.2942
 3770TIP3   OH232800   5.353   4.240  12.962 -0.5593 -0.6091 -0.4410
 3770TIP3    H132801   5.401   4.225  13.043 -0.8867 -0.8420 -0.2902
 3770TIP3    H232802   5.319   4.154  12.938  0.0428 -0.6621 -1.1515
 3771TIP3   OH232803   4.897   3.924   1.668 -0.2767  0.0253 -0.2473
 3771TIP3    H132804   4.833   3.980   1.623  0.8431  0.2402 -1.6409
 3771TIP3    H232805   4.911   3.851   1.608  0.1687 -0.4278  0.4073
 3772TIP3   OH232806   2.979   4.597   5.780 -0.4601  0.0861  0.5915
 3772TIP3    H132807   3.050   4.661   5.776  0.1680 -0.5485  1.2500
 3772TIP3    H232808   3.022   4.512   5.775 -1.3501 -0.3097 -1.1813
 3773TIP3   OH232809   0.122   4.991  16.398 -0.5721  0.4300  0.0183
 3773TIP3    H132810   0.078   5.075  16.398  0.1352  0.8718 -2.0535
 3773TIP3    H232811   0.125   4.965  16.305  1.3953 -0.6754  0.3252
 3774TIP3   OH232812   2.184   2.892  16.851  0.0073 -0.5002 -0.2359
 3774TIP3    H132813   2.237   2.931  16.782 -0.7063  0.7215 -0.1313
 3774TIP3    H232814   2.246   2.845  16.906  0.8845  0.2978 -0.5150
 3775TIP3   OH232815   6.014   6.404   4.558 -0.0343 -0.5622  0.2582
 3775TIP3    H132816   6.000   6.335   4.623 -1.0820  0.5098  1.1998
 3775TIP3    H232817   5.929   6.446   4.548  0.4051  0.0995 -0.8966
 3776TIP3   OH232818   3.877   4.428  16.434  0.4306 -0.5898  0.2165
 3776TIP3    H132819   3.810   4.452  16.371  1.9460  0.2387 -1.1699
 3776TIP3    H232820   3.833   4.429  16.519 -0.8009  2.2505 -0.3471
 3777TIP3   OH232821   5.440   6.411   4.431  0.2235 -0.6574  0.0306
 3777TIP3    H132822   5.451   6.433   4.338 -0.9679 -2.3157 -0.5474
 3777TIP3    H232823   5.351   6.377   4.437 -0.2926  0.8342  2.1049
 3778TIP3   OH232824   4.372   2.786   2.449  0.2878 -0.7117  0.6936
 3778TIP3    H132825   4.422   2.851   2.400 -0.9253  0.5911  1.1176
 3778TIP3    H232826   4.361   2.713   2.388  1.5291 -0.4569  0.1477
 3779TIP3   OH232827   0.968   0.064   4.533 -0.5370 -0.2018  0.3441
 3779TIP3    H132828   1.060   0.073   4.510 -0.6811  0.8194  0.1297
 3779TIP3    H232829   0.922   0.060   4.449 -0.9698  2.5678  0.3352
 3780TIP3   OH232830   5.922   2.060   5.544  0.6927  0.1374  0.0459
 3780TIP3    H132831   5.836   2.089   5.515  1.6404  2.2043 -0.8578
 3780TIP3    H232832   5.921   2.075   5.639 -0.2963 -0.9423  0.2360
 3781TIP3   OH232833   2.894   2.063  15.786 -0.8547  0.2549 -0.3962
 3781TIP3    H132834   2.887   2.069  15.691 -2.3673  1.3003 -0.2579
 3781TIP3    H232835   2.859   1.977  15.807 -0.6354  0.0701 -0.7772
 3782TIP3   OH232836   0.471   5.304   4.813 -0.1014  0.4467 -0.5424
 3782TIP3    H132837   0.422   5.379   4.846  0.4343  0.4446  0.2885
 3782TIP3    H232838   0.495   5.255   4.892  1.6579  0.7142 -0.8719
 3783TIP3   OH232839   3.582   4.077  15.101 -0.3834 -0.4644  0.2927
 3783TIP3    H132840   3.598   4.039  15.015 -0.8745  1.2627 -0.5948
 3783TIP3    H232841   3.633   4.022  15.161  0.2747 -1.4658 -1.1350
 3784TIP3   OH232842   1.825   1.913   3.142 -0.0212 -0.4223  0.2841
 3784TIP3    H132843   1.847   1.926   3.234 -0.8157  0.8586  0.3103
 3784TIP3    H232844   1.884   1.971   3.094  1.6067 -2.3395 -0.1933
 3785TIP3   OH232845   3.238   1.933  16.889  0.6185  0.1605  0.1412
 3785TIP3    H132846   3.229   1.922  16.794  1.4956 -0.3469  0.0997
 3785TIP3    H232847   3.268   2.024  16.899 -0.6319  0.5976  0.0257
 3786TIP3   OH232848   3.255   5.536  16.463 -0.2257  0.4845  0.6550
 3786TIP3    H132849   3.266   5.625  16.496 -1.2161  1.5383 -1.6665
 3786TIP3    H232850   3.172   5.506  16.501  0.4105  0.2559  1.9361
 3787TIP3   OH232851   2.425   4.935  16.772  0.6261  0.1142 -0.5220
 3787TIP3    H132852   2.428   4.840  16.784 -0.9486 -0.1073 -1.5841
 3787TIP3    H232853   2.409   4.947  16.679 -0.5804  1.3735 -0.1776
 3788TIP3   OH232854   5.026   6.210  12.227  0.2491 -0.0709  0.2066
 3788TIP3    H132855   5.059   6.210  12.317  0.0085  1.2796  0.3149
 3788TIP3    H232856   5.105   6.199  12.173  0.2235 -2.8805  0.5669
 3789TIP3   OH232857   2.699   3.524  12.050 -0.1284  0.5472  0.0639
 3789TIP3    H132858   2.705   3.457  11.981  2.7841  1.0942 -0.3305
 3789TIP3    H232859   2.611   3.559  12.041 -0.8752 -1.4749 -1.3841
 3790TIP3   OH232860   6.089   2.437   1.372 -0.0109 -0.1756 -0.3475
 3790TIP3    H132861   6.181   2.439   1.400  0.0842  0.5903 -0.6845
 3790TIP3    H232862   6.094   2.428   1.277 -0.3280 -2.6451 -0.1941
 3791TIP3   OH232863   2.232   5.616  12.104  0.1506  0.0342 -0.4247
 3791TIP3    H132864   2.312   5.638  12.057  0.6474  0.5822  0.6389
 3791TIP3    H232865   2.200   5.699  12.140  0.9940 -0.6027  2.0143
 3792TIP3   OH232866   2.029   6.597   0.032  0.1266  0.3857 -0.4289
 3792TIP3    H132867   2.047   6.641  -0.052  2.2318  0.8245  0.1989
 3792TIP3    H232868   2.111   6.604   0.080  0.3343 -3.5313  0.0807
 3793TIP3   OH232869   4.598   2.544   4.793 -0.0122 -0.4965 -0.4234
 3793TIP3    H132870   4.510   2.572   4.819 -0.4694  0.1248 -2.4996
 3793TIP3    H232871   4.594   2.536   4.698  1.7662 -2.0012 -0.4320
 3794TIP3   OH232872   6.647   1.570   2.241 -0.3097  0.2146  0.0319
 3794TIP3    H132873   6.645   1.663   2.263  1.9408 -0.4557  4.0630
 3794TIP3    H232874   6.734   1.556   2.205 -0.3932 -0.4132  0.0667
 3795TIP3   OH232875   6.248   0.813  15.151 -0.6214  0.5416  0.0023
 3795TIP3    H132876   6.195   0.872  15.097 -1.2843  0.8148  0.9334
 3795TIP3    H232877   6.265   0.738  15.093  1.6001  2.2733 -1.7618
 3796TIP3   OH232878   0.182   0.156  12.602  0.6536  0.1742 -0.5183
 3796TIP3    H132879   0.254   0.148  12.664  0.5065  0.2019 -0.3442
 3796TIP3    H232880   0.165   0.250  12.596 -1.6202  0.0355  2.0481
 3797TIP3   OH232881   1.481   1.078  16.892  0.2725 -0.1587 -0.0314
 3797TIP3    H132882   1.407   1.093  16.833 -0.5225 -0.5095  0.8490
 3797TIP3    H232883   1.451   1.010  16.952  0.6740  0.8753  1.4086
 3798TIP3   OH232884   4.954   5.028  11.890  0.5563 -0.1910 -0.3387
 3798TIP3    H132885   4.976   4.950  11.839 -1.0953 -0.9535  0.0429
 3798TIP3    H232886   4.870   5.058  11.854 -1.3565 -1.4939  2.6053
 3799TIP3   OH232887   4.442   5.906  17.100 -0.1090 -0.1656  0.1129
 3799TIP3    H132888   4.468   5.814  17.092  2.6320  0.4912  0.5293
 3799TIP3    H232889   4.368   5.915  17.040  0.6060 -2.2668 -1.2016
 3800TIP3   OH232890   3.614   1.049  13.153  0.2640 -0.1693  0.4601
 3800TIP3    H132891   3.659   1.133  13.161  0.1949  0.2729 -2.6436
 3800TIP3    H232892   3.535   1.059  13.205  0.8291  1.2400  1.1049
 3801TIP3   OH232893   4.811   2.230  17.255 -0.2643  0.3288  0.2431
 3801TIP3    H132894   4.807   2.218  17.160  0.4704  1.2304  0.0772
 3801TIP3    H232895   4.727   2.196  17.288  0.0469 -1.3076 -0.5558
 3802TIP3   OH232896   5.164   5.598  11.747 -0.0284 -0.1528 -0.7562
 3802TIP3    H132897   5.168   5.513  11.789 -2.0400  0.8295  1.7108
 3802TIP3    H232898   5.143   5.579  11.655  1.1380 -2.2940 -0.6434
 3803TIP3   OH232899   4.453   5.175  16.479 -0.5411  0.2932 -0.1105
 3803TIP3    H132900   4.526   5.237  16.475 -1.1219  0.9148 -1.7515
 3803TIP3    H232901   4.454   5.131  16.394 -1.4810 -0.4147  0.2289
 3804TIP3   OH232902   1.151   2.915   1.256 -0.0275 -0.0521  0.0210
 3804TIP3    H132903   1.087   2.982   1.235  0.9796  0.6259 -1.0063
 3804TIP3    H232904   1.099   2.844   1.294 -1.2950  0.7272 -0.1805
 3805TIP3   OH232905   4.602   4.264  16.283  0.5872  0.0441  0.7171
 3805TIP3    H132906   4.652   4.185  16.264 -0.8704 -0.4653 -1.3184
 3805TIP3    H232907   4.512   4.242  16.258  0.3560  2.7860 -1.2797
 3806TIP3   OH232908   0.373   3.953   0.495 -0.5285  0.2104 -0.3065
 3806TIP3    H132909   0.284   3.973   0.468 -0.9643 -0.7507  0.3680
 3806TIP3    H232910   0.363   3.905   0.577  0.6941  2.5327  1.3342
 3807TIP3   OH232911   4.974   6.403   0.389  0.0772 -0.2251 -0.3926
 3807TIP3    H132912   5.055   6.442   0.356  0.2704  0.8388  1.2422
 3807TIP3    H232913   4.908   6.426   0.323  0.6214  1.0710 -0.5111
 3808TIP3   OH232914   4.327   2.964  15.434 -0.2241  0.1581  0.1912
 3808TIP3    H132915   4.323   2.888  15.375 -2.3415 -0.3579  0.8916
 3808TIP3    H232916   4.296   3.037  15.380 -1.0322 -0.0804  0.3202
 3809TIP3   OH232917   5.929   0.593   0.084  0.0064  0.2246 -0.9324
 3809TIP3    H132918   5.847   0.550   0.059 -0.1555  0.0732 -0.1798
 3809TIP3    H232919   5.996   0.527   0.070 -0.0060  0.3245 -1.4836
 3810TIP3   OH232920   2.668   1.152  12.189 -0.4730 -0.1252  0.2050
 3810TIP3    H132921   2.695   1.243  12.175 -1.4089  0.1055 -0.1467
 3810TIP3    H232922   2.666   1.142  12.284  1.5378 -0.3802  0.2792
 3811TIP3   OH232923   4.452   1.018  14.984  0.4248 -0.0199 -0.0777
 3811TIP3    H132924   4.456   0.937  15.034 -1.4140  0.5586  1.1059
 3811TIP3    H232925   4.508   1.079  15.031 -2.5593  1.0315  2.4566
 3812TIP3   OH232926   4.982   2.864   0.260 -0.3091  0.5645 -0.4141
 3812TIP3    H132927   4.984   2.921   0.338  3.0646  0.5095 -0.2952
 3812TIP3    H232928   4.994   2.776   0.295  1.9052  0.6013 -0.9386
 3813TIP3   OH232929   1.045   3.049   3.898  0.1357  0.0011  0.3418
 3813TIP3    H132930   1.125   3.099   3.884  0.2966 -0.3398  0.0546
 3813TIP3    H232931   0.990   3.107   3.950  0.5161  0.2877  0.4265
 3814TIP3   OH232932   1.136   1.418   5.344  0.0576  0.2859 -0.6122
 3814TIP3    H132933   1.167   1.495   5.392  1.2461 -0.0831 -0.7710
 3814TIP3    H232934   1.042   1.415   5.363  0.6236 -0.5453  2.7365
 3815TIP3   OH232935   3.548   0.031  13.789  0.0813 -0.0356  0.0484
 3815TIP3    H132936   3.562   0.066  13.701  0.8899 -0.9194 -0.1901
 3815TIP3    H232937   3.456   0.006  13.791  0.5333 -2.0333 -1.3316
 3816TIP3   OH232938   1.701   3.326   0.091 -0.4627  0.3871  0.2665
 3816TIP3    H132939   1.707   3.248   0.036  0.6080  0.6093  0.0505
 3816TIP3    H232940   1.792   3.353   0.105 -0.7575  0.8634  1.3889
 3817TIP3   OH232941   1.499   0.697  17.205  0.2292  0.0672  0.4803
 3817TIP3    H132942   1.442   0.655  17.270 -0.7034  0.8947  0.2209
 3817TIP3    H232943   1.565   0.631  17.185  0.2695 -0.3676  1.9319
 3818TIP3   OH232944   2.538   2.260   5.994 -0.5542 -0.0671  0.9325
 3818TIP3    H132945   2.474   2.326   6.022 -0.4975  0.2982  0.2330
 3818TIP3    H232946   2.511   2.180   6.038 -0.0973  0.6049  2.5508
 3819TIP3   OH232947   1.370   0.504  11.183  0.8324  0.3125 -0.1663
 3819TIP3    H132948   1.451   0.453  11.179  0.2821 -0.5017 -1.6110
 3819TIP3    H232949   1.307   0.454  11.131  0.6875  3.1701 -3.1023
 3820TIP3   OH232950   3.518   2.594  16.806 -0.3906  0.1258 -0.0722
 3820TIP3    H132951   3.447   2.578  16.868 -0.2569  0.8744  0.2895
 3820TIP3    H232952   3.502   2.533  16.734 -3.2101  2.2802 -1.4780
 3821TIP3   OH232953   5.158   4.117   3.245  0.4716 -0.1231  0.1584
 3821TIP3    H132954   5.203   4.196   3.274  0.1328 -0.6444  2.2219
 3821TIP3    H232955   5.198   4.046   3.296 -1.1049 -0.9078  0.3690
 3822TIP3   OH232956   0.179   4.355   4.431  0.0067  0.1532  0.3751
 3822TIP3    H132957   0.241   4.400   4.374  2.9118  0.2445  3.3059
 3822TIP3    H232958   0.117   4.424   4.458  0.3751  0.7757 -0.3366
 3823TIP3   OH232959   2.151   2.797  16.020  0.2414 -0.0353 -0.7937
 3823TIP3    H132960   2.083   2.862  16.035  0.1227 -0.3435  0.0367
 3823TIP3    H232961   2.225   2.847  15.986  0.2793  0.5858  0.1820
 3824TIP3   OH232962   5.539   1.455  17.015  0.3759  0.4071 -0.0182
 3824TIP3    H132963   5.630   1.435  16.992 -0.2005  0.6699 -3.0627
 3824TIP3    H232964   5.504   1.372  17.049  1.7811  0.3887  1.4812
 3825TIP3   OH232965   3.551   3.886  14.881  0.0217  0.4606 -0.6656
 3825TIP3    H132966   3.468   3.841  14.865  1.2122 -1.7280 -1.1035
 3825TIP3    H232967   3.583   3.908  14.794  0.3391  0.4316 -0.5571
 3826TIP3   OH232968   3.095   5.786  11.402 -0.1624  0.0988  0.1065
 3826TIP3    H132969   3.185   5.797  11.370  0.6688  3.8577  2.9014
 3826TIP3    H232970   3.100   5.713  11.464  0.8102 -0.1305 -0.2310
 3827TIP3   OH232971   0.553   4.908   4.392 -0.0894  0.2970 -0.3154
 3827TIP3    H132972   0.633   4.953   4.363 -0.8163  1.5683 -0.4162
 3827TIP3    H232973   0.536   4.944   4.479 -0.9336  0.5519 -0.5778
 3828TIP3   OH232974   1.932   0.483   5.926  0.1614  0.1388 -0.6215
 3828TIP3    H132975   2.008   0.536   5.903  0.4672  0.4711  0.9728
 3828TIP3    H232976   1.925   0.492   6.022 -0.0631 -2.3312 -0.3509
 3829TIP3   OH232977   2.780   6.552  14.449 -0.2169  0.5535  0.1352
 3829TIP3    H132978   2.840   6.480  14.469  0.6775  0.8402 -1.3163
 3829TIP3    H232979   2.799   6.619  14.515  1.4924  0.8560 -0.6015
 3830TIP3   OH232980   2.370   2.123  11.930  0.0429 -0.6084  0.0385
 3830TIP3    H132981   2.458   2.110  11.894  1.2574  0.1281  2.4453
 3830TIP3    H232982   2.348   2.214  11.908  0.2947 -0.5074  0.1975
 3831TIP3   OH232983   0.536   5.476  12.188  0.4546  0.3889  0.2978
 3831TIP3    H132984   0.605   5.424  12.228 -0.2240  1.1975  2.7220
 3831TIP3    H232985   0.570   5.500  12.102  2.1371 -1.2517  0.4431
 3832TIP3   OH232986   6.780   2.273  12.376 -0.0615  0.0690  0.7153
 3832TIP3    H132987   6.747   2.190  12.410 -0.0071 -0.0575  0.4622
 3832TIP3    H232988   6.867   2.252  12.341 -0.6938 -0.1311 -0.8331
 3833TIP3   OH232989   3.745   3.006  12.054 -0.0635 -0.2471 -0.0654
 3833TIP3    H132990   3.727   2.980  11.963  1.9388 -1.6039 -0.1293
 3833TIP3    H232991   3.840   3.009  12.060 -0.1472  2.2231  1.3863
 3834TIP3   OH232992   2.913   1.718   1.185 -0.0360 -0.1994 -0.3611
 3834TIP3    H132993   2.852   1.653   1.217 -1.0195  0.5012 -0.7612
 3834TIP3    H232994   2.874   1.750   1.103 -0.1764  1.7086  0.4018
 3835TIP3   OH232995   2.137   1.088  16.700  0.0612 -0.0299  0.6659
 3835TIP3    H132996   2.145   1.133  16.784 -0.7814  0.2124  0.6242
 3835TIP3    H232997   2.227   1.063  16.678  0.5047  1.3779  0.8193
 3836TIP3   OH232998   0.633   0.574  13.111  0.1766 -0.1468  0.0392
 3836TIP3    H132999   0.590   0.540  13.033 -0.6006 -0.9235  0.7940
 3836TIP3    H233000   0.714   0.613  13.078 -0.4210  0.0912 -1.2276
 3837TIP3   OH233001   4.609   4.191  13.860  0.0887 -0.1456  0.1010
 3837TIP3    H133002   4.608   4.285  13.880 -0.3213 -0.1524  0.1359
 3837TIP3    H233003   4.614   4.148  13.946 -2.0509 -0.1804  0.2601
 3838TIP3   OH233004   6.157   1.504  11.844  0.0781 -0.3790  0.2698
 3838TIP3    H133005   6.218   1.516  11.771  1.1053  1.5153  1.3540
 3838TIP3    H233006   6.088   1.568  11.828  0.0662 -0.2754  0.7347
 3839TIP3   OH233007   2.554   5.948  13.220  0.1047  0.8030 -0.4543
 3839TIP3    H133008   2.566   5.990  13.134 -1.6669  1.1578 -0.5661
 3839TIP3    H233009   2.475   5.895  13.209 -1.4250  2.5032  1.5086
 3840TIP3   OH233010   1.811   5.930   3.575  0.0885 -0.9149  0.6156
 3840TIP3    H133011   1.838   6.018   3.546  0.3481 -1.1266  0.2051
 3840TIP3    H233012   1.720   5.941   3.602  0.3120 -0.3813  1.1714
 3841TIP3   OH233013   3.320   2.159   1.277 -0.1263  0.3582 -0.3294
 3841TIP3    H133014   3.360   2.073   1.271  1.6522  1.0960  0.2667
 3841TIP3    H233015   3.227   2.142   1.287  0.1949 -1.4820 -0.2354
 3842TIP3   OH233016   0.140   1.344   1.557  0.8498 -0.4093  0.2411
 3842TIP3    H133017   0.152   1.375   1.467  0.7524 -0.4282  0.2212
 3842TIP3    H233018   0.221   1.297   1.578  1.1888  0.2562  0.4357
 3843TIP3   OH233019   3.468   5.542  11.219  0.3622 -0.3524 -0.6343
 3843TIP3    H133020   3.508   5.582  11.142 -0.9866  0.7746 -0.7810
 3843TIP3    H233021   3.413   5.472  11.184 -0.4639  0.3385 -0.7209
 3844TIP3   OH233022   3.620   5.114  12.615  0.5373 -0.3847 -0.0703
 3844TIP3    H133023   3.572   5.175  12.559 -0.1828  0.2651  1.2134
 3844TIP3    H233024   3.552   5.064  12.660  1.0851 -0.4520  0.6984
 3845TIP3   OH233025   3.185   2.532  16.842 -0.2387  0.5378  0.3284
 3845TIP3    H133026   3.197   2.555  16.750  0.4047 -2.1946 -0.3495
 3845TIP3    H233027   3.113   2.469  16.843 -0.0152  0.2515  1.6386
 3846TIP3   OH233028   1.838   1.405   4.656 -0.0028  0.0949  0.6980
 3846TIP3    H133029   1.856   1.476   4.718  1.4670  0.9576 -0.6580
 3846TIP3    H233030   1.742   1.405   4.648 -0.1897  0.3205  2.5159
 3847TIP3   OH233031   4.614   2.423   2.794 -0.2792  0.5252  0.4007
 3847TIP3    H133032   4.529   2.408   2.834 -0.4642  2.0271  0.6057
 3847TIP3    H233033   4.672   2.442   2.867 -0.1582  1.2265  0.1253
 3848TIP3   OH233034   1.596   4.788   4.037 -0.8401 -0.6825  0.4486
 3848TIP3    H133035   1.620   4.706   4.080  0.4524 -0.9711 -0.7619
 3848TIP3    H233036   1.672   4.844   4.048 -1.3864  0.0576  0.5095
 3849TIP3   OH233037   5.614   1.442  13.151 -0.4184 -0.3504  0.1226
 3849TIP3    H133038   5.518   1.449  13.145 -0.2201  2.4584 -1.8578
 3849TIP3    H233039   5.637   1.381  13.081 -0.6675  0.5809 -0.7916
 3850TIP3   OH233040   2.491   1.973  14.418  0.7218  0.2206 -0.0959
 3850TIP3    H133041   2.557   1.909  14.442  1.6520  2.0742  2.7611
 3850TIP3    H233042   2.524   2.056  14.451 -2.2994  1.5212  0.0380
 3851TIP3   OH233043   3.344   2.532   0.279 -0.1378  0.1422  0.0544
 3851TIP3    H133044   3.275   2.543   0.344  1.7123  1.2767  1.9158
 3851TIP3    H233045   3.391   2.453   0.306 -0.2358 -0.2224 -0.7882
 3852TIP3   OH233046   2.138   3.675  10.863  0.6451 -0.2785 -0.6200
 3852TIP3    H133047   2.071   3.724  10.911  0.7462  0.9356 -1.6676
 3852TIP3    H233048   2.217   3.728  10.872  1.0849 -0.9102 -0.7038
 3853TIP3   OH233049   0.028   2.684   1.690 -0.1356  0.1278 -0.2676
 3853TIP3    H133050  -0.065   2.700   1.701 -0.0867 -0.3883  1.2373
 3853TIP3    H233051   0.047   2.710   1.600 -1.5889  0.8715 -0.3928
 3854TIP3   OH233052   0.367   1.668   2.659 -0.4903  0.0074 -0.1191
 3854TIP3    H133053   0.424   1.655   2.734 -0.4499  1.1240  0.0680
 3854TIP3    H233054   0.318   1.748   2.680 -1.9074 -0.7388 -0.4081
 3855TIP3   OH233055   4.878   1.847  12.440 -0.4546 -0.4794  0.5804
 3855TIP3    H133056   4.925   1.801  12.509  0.0264  0.3951  0.8616
 3855TIP3    H233057   4.807   1.892  12.485 -1.2870 -1.4228  0.2206
 3856TIP3   OH233058   6.646   3.103  17.163  0.0099  0.0894 -0.0511
 3856TIP3    H133059   6.737   3.077  17.179  0.5634  0.6365 -1.9696
 3856TIP3    H233060   6.614   3.039  17.100 -0.4472  0.7451 -0.4990
 3857TIP3   OH233061   2.735   4.136   0.163  0.5564 -0.2133 -0.3956
 3857TIP3    H133062   2.797   4.168   0.098 -1.0419  0.4223 -1.6688
 3857TIP3    H233063   2.752   4.190   0.241  0.5860  0.9972 -1.2162
 3858TIP3   OH233064   1.061   4.918   3.953 -0.0551  1.3929 -0.1372
 3858TIP3    H133065   0.985   4.970   3.980  0.1338  2.8788 -2.2052
 3858TIP3    H233066   1.131   4.945   4.011 -0.5596  1.6548  0.3635
 3859TIP3   OH233067   4.192   1.335   1.016 -0.4928  0.0324  0.3269
 3859TIP3    H133068   4.258   1.382   0.967  0.3920 -0.7500  0.7397
 3859TIP3    H233069   4.175   1.256   0.963 -1.6845  0.6020 -0.1740
 3860TIP3   OH233070   5.331   2.985   2.022  0.2549  0.1673  0.2412
 3860TIP3    H133071   5.276   2.915   2.056 -0.6781  0.6945 -0.1409
 3860TIP3    H233072   5.270   3.042   1.975  1.0892  0.9278  0.0661
 3861TIP3   OH233073   4.041   3.685  15.635 -0.0378  0.2580  0.4297
 3861TIP3    H133074   4.068   3.664  15.725  0.1231  1.4061  0.6733
 3861TIP3    H233075   4.025   3.779  15.637  0.7732  0.4483 -0.9455
 3862TIP3   OH233076   1.824   3.872   4.527  0.2872  0.3173 -0.4276
 3862TIP3    H133077   1.891   3.877   4.595  0.6497 -2.2217 -0.5175
 3862TIP3    H233078   1.766   3.803   4.556  0.3663 -0.7346 -2.6051
 3863TIP3   OH233079   2.317   0.088   0.654 -0.1382  0.0711  0.3030
 3863TIP3    H133080   2.280   0.004   0.681 -0.3384 -0.0174 -0.2281
 3863TIP3    H233081   2.370   0.066   0.577 -0.4393  0.4785 -0.0204
 3864TIP3   OH233082   1.074   6.062  15.422 -0.5342 -0.1372  0.6716
 3864TIP3    H133083   0.981   6.076  15.442 -0.1358  1.4311  1.5351
 3864TIP3    H233084   1.100   5.991  15.481 -1.2901 -0.9698  0.0391
 3865TIP3   OH233085   1.630   3.817   1.790 -0.3407 -0.1452  0.4528
 3865TIP3    H133086   1.664   3.830   1.878  1.0355  0.5853 -0.1362
 3865TIP3    H233087   1.690   3.868   1.734 -2.2481  0.9295 -0.7197
 3866TIP3   OH233088   6.654   2.854  12.497 -0.1066  0.2437  0.0995
 3866TIP3    H133089   6.596   2.857  12.573  0.5784  0.9338  0.6179
 3866TIP3    H233090   6.718   2.787  12.519 -0.4572 -0.2170 -0.2831
 3867TIP3   OH233091   5.898   0.048  15.133 -0.1895  0.1410  0.4923
 3867TIP3    H133092   5.966  -0.005  15.090  0.1953  0.0975  1.1499
 3867TIP3    H233093   5.855  -0.012  15.193 -0.9711  0.1127 -0.0773
 3868TIP3   OH233094   5.689   2.557  12.933 -0.2240 -0.0280  0.2898
 3868TIP3    H133095   5.743   2.484  12.900 -0.9530 -0.2209 -0.5146
 3868TIP3    H233096   5.745   2.634  12.923 -0.0953 -0.2161 -0.5979
 3869TIP3   OH233097   4.583   5.072   4.294 -0.5185 -0.0813 -0.7174
 3869TIP3    H133098   4.567   5.006   4.228  1.0612 -0.1038 -1.1155
 3869TIP3    H233099   4.579   5.025   4.377 -0.6934 -0.4182 -0.9168
 3870TIP3   OH233100   0.815   4.629  14.161 -0.5459 -0.1646 -0.0613
 3870TIP3    H133101   0.799   4.598  14.250 -0.0792  0.0841  0.1164
 3870TIP3    H233102   0.825   4.550  14.109 -2.3059 -0.3258 -0.1897
 3871TIP3   OH233103   4.386   5.814  15.238 -0.4373 -0.0094 -0.2319
 3871TIP3    H133104   4.293   5.797  15.251 -0.3998 -0.6520 -0.7394
 3871TIP3    H233105   4.389   5.890  15.180 -0.6839 -1.0075 -1.6031
 3872TIP3   OH233106   4.878   4.765  11.386 -0.4782  0.3367 -0.0322
 3872TIP3    H133107   4.810   4.701  11.365 -0.0155  0.4562 -2.1637
 3872TIP3    H233108   4.960   4.718  11.375 -0.1472  1.1177 -1.0543
 3873TIP3   OH233109   1.591   4.539   0.899 -0.0560  0.1024  0.4037
 3873TIP3    H133110   1.608   4.523   0.992  0.3220  1.4930  0.5883
 3873TIP3    H233111   1.496   4.546   0.893 -0.0455  0.6606  0.8044
 3874TIP3   OH233112   5.796   4.014   2.526  0.5573 -0.1349 -0.1719
 3874TIP3    H133113   5.721   4.041   2.473  1.9827 -1.5159 -3.1397
 3874TIP3    H233114   5.830   4.095   2.563 -0.4619  0.9307 -1.4765
 3875TIP3   OH233115   3.653   4.763   4.729 -0.1006  0.0023 -0.0290
 3875TIP3    H133116   3.577   4.778   4.673 -1.3107  1.3687  1.8329
 3875TIP3    H233117   3.618   4.715   4.804  0.4154  2.1177  1.6834
 3876TIP3   OH233118   0.699   5.261  13.932 -0.6994 -0.2284 -0.4192
 3876TIP3    H133119   0.613   5.282  13.897 -1.0983  1.0633  1.2025
 3876TIP3    H233120   0.682   5.232  14.022  0.5663  0.5341  0.0994
 3877TIP3   OH233121   1.234   3.013   1.508  0.6975 -0.1721  0.3339
 3877TIP3    H133122   1.189   3.024   1.424  1.1682  0.5915  0.1706
 3877TIP3    H233123   1.178   3.058   1.571  1.0656  0.5221  0.1791
 3878TIP3   OH233124   4.635   1.272  16.725  0.2338 -0.1726 -0.7340
 3878TIP3    H133125   4.729   1.288  16.717  0.5082 -1.8063 -1.1982
 3878TIP3    H233126   4.621   1.255  16.818  0.2235  0.9204 -0.5218
 3879TIP3   OH233127   1.876   1.733  13.206 -0.0167  0.0518  0.1762
 3879TIP3    H133128   1.875   1.714  13.300 -1.0020  0.6506  0.3021
 3879TIP3    H233129   1.955   1.785  13.193  1.4604 -2.0127  0.2282
 3880TIP3   OH233130   3.163   5.619   4.768  0.0381 -0.4182 -0.4873
 3880TIP3    H133131   3.077   5.645   4.734 -0.9169 -1.8103  0.7045
 3880TIP3    H233132   3.143   5.569   4.847  2.0755  0.9294  0.9571
 3881TIP3   OH233133   0.869   1.965  12.208  0.4805 -0.5086  0.2234
 3881TIP3    H133134   0.800   1.902  12.230  0.3995 -0.1186  1.1215
 3881TIP3    H233135   0.824   2.050  12.207  0.5575 -0.4542 -1.1259
 3882TIP3   OH233136   0.300   0.442  12.064 -0.3097 -0.0082  0.6416
 3882TIP3    H133137   0.214   0.481  12.047 -0.0746  1.0960  1.8159
 3882TIP3    H233138   0.283   0.369  12.123 -0.4556  0.0573  0.6796
 3883TIP3   OH233139   5.520   5.258   4.391  0.5533  0.0445  0.0741
 3883TIP3    H133140   5.599   5.215   4.358  0.2610 -0.5562  0.1432
 3883TIP3    H233141   5.459   5.253   4.317  0.2205 -0.4497  0.3786
 3884TIP3   OH233142   6.069   3.908   3.788 -0.6540  0.2834  0.4543
 3884TIP3    H133143   6.039   3.846   3.722 -3.0651 -0.2831  1.9770
 3884TIP3    H233144   6.080   3.991   3.740  1.2861 -0.8943 -1.3162
 3885TIP3   OH233145   3.873   6.163   2.483  0.2824 -0.2397  0.3468
 3885TIP3    H133146   3.778   6.157   2.480  0.2445  0.3353  0.3370
 3885TIP3    H233147   3.901   6.150   2.392  0.1564  0.4756  0.2014
 3886TIP3   OH233148   6.569   1.432   5.689  0.0988  0.2349  0.2237
 3886TIP3    H133149   6.653   1.472   5.667 -1.0011  1.3491 -2.5095
 3886TIP3    H233150   6.528   1.493   5.749  1.0443 -0.1096  1.2431
 3887TIP3   OH233151   4.717   0.144   5.219  0.8010  0.5168  0.3511
 3887TIP3    H133152   4.639   0.089   5.224  0.4492  0.7778 -1.4261
 3887TIP3    H233153   4.709   0.205   5.293  0.7280 -1.1660  1.7922
 3888TIP3   OH233154   3.627   1.147  10.985 -0.0016  0.2007  0.3403
 3888TIP3    H133155   3.642   1.069  10.932  0.4933  0.2936  0.3400
 3888TIP3    H233156   3.596   1.213  10.922 -3.2843 -0.7714  0.7352
 3889TIP3   OH233157   2.050   4.240  14.819 -0.4028  0.1625  0.2589
 3889TIP3    H133158   2.058   4.145  14.806  1.4530  0.2011  0.7876
 3889TIP3    H233159   2.113   4.278  14.757 -0.6378  1.0155  0.5314
 3890TIP3   OH233160   6.204   4.830  15.012 -0.0350  0.0498 -0.0849
 3890TIP3    H133161   6.174   4.748  15.051 -1.6885  0.9755  0.6876
 3890TIP3    H233162   6.178   4.823  14.920 -1.9742  0.4985  0.4036
 3891TIP3   OH233163   5.914   4.473   0.945 -0.3593 -0.3670  0.9756
 3891TIP3    H133164   5.978   4.529   0.988  0.7107 -1.2206  0.5411
 3891TIP3    H233165   5.857   4.442   1.016 -0.8430  1.0703  1.2439
 3892TIP3   OH233166   2.013   3.588   1.094 -0.1656 -0.1330  0.0873
 3892TIP3    H133167   1.952   3.625   1.157  0.1127 -1.1562  0.9868
 3892TIP3    H233168   1.983   3.498   1.080  0.3549 -0.2322 -0.4858
 3893TIP3   OH233169   0.643   0.560   2.037 -0.2971 -0.1861  0.3959
 3893TIP3    H133170   0.651   0.479   1.986  0.0373  0.1992 -0.1667
 3893TIP3    H233171   0.642   0.530   2.128 -0.7556 -0.8702  0.1787
 3894TIP3   OH233172   1.779   3.082  12.072  0.1966  0.4930 -0.1060
 3894TIP3    H133173   1.686   3.073  12.094  0.0147  1.5291 -0.3909
 3894TIP3    H233174   1.823   3.088  12.157 -0.1051  0.9092  0.0266
 3895TIP3   OH233175   1.668   1.200   2.114  0.2410  0.2888 -0.2936
 3895TIP3    H133176   1.629   1.238   2.035 -1.2075  0.6078  0.5410
 3895TIP3    H233177   1.667   1.271   2.178 -0.0796 -0.4032  0.4907
 3896TIP3   OH233178   4.666   0.321  11.097 -0.7484 -0.2026  0.0982
 3896TIP3    H133179   4.613   0.246  11.068 -0.5007 -0.8024  1.1382
 3896TIP3    H233180   4.615   0.361  11.167 -0.6940  0.3633 -0.1835
 3897TIP3   OH233181   5.684   2.222   5.127 -0.2294 -0.0181  0.2105
 3897TIP3    H133182   5.704   2.189   5.039  0.8600 -0.7068  0.6909
 3897TIP3    H233183   5.643   2.148   5.171  1.1471 -0.3925  0.9246
 3898TIP3   OH233184   0.989   0.733   5.371 -0.3813 -0.6294  0.4013
 3898TIP3    H133185   0.985   0.655   5.314  0.2522 -0.4136  0.0495
 3898TIP3    H233186   1.017   0.803   5.312  0.1558 -0.3752  0.9519
 3899TIP3   OH233187   4.500   0.851   0.060  0.2128 -0.1402  0.0215
 3899TIP3    H133188   4.454   0.928   0.095 -3.5451 -1.8126 -0.8157
 3899TIP3    H233189   4.514   0.795   0.137  0.1600  0.0391  0.1627
 3900TIP3   OH233190   2.514   3.460   5.385  0.1179 -0.2330 -0.0770
 3900TIP3    H133191   2.462   3.461   5.304 -0.1522  2.6513  0.0525
 3900TIP3    H233192   2.451   3.433   5.453 -1.2737  2.8865  0.0241
 3901TIP3   OH233193   0.656   1.070  17.224  0.0731 -0.3461  0.0036
 3901TIP3    H133194   0.669   1.126  17.147 -1.9063  0.0366 -0.1182
 3901TIP3    H233195   0.561   1.063  17.231  0.2613 -2.3698  1.0033
 3902TIP3   OH233196   2.592   2.320  15.180  0.1274 -0.2325  0.3910
 3902TIP3    H133197   2.601   2.403  15.133 -2.1598 -0.0304  0.2037
 3902TIP3    H233198   2.559   2.346  15.266 -0.8583 -0.9475  0.2401
 3903TIP3   OH233199   2.912   0.093   5.331  0.2323 -0.0040  0.0258
 3903TIP3    H133200   2.992   0.127   5.373  0.3288 -0.2569  0.0433
 3903TIP3    H233201   2.936   0.080   5.240  0.4373 -0.8149  0.1901
 3904TIP3   OH233202   0.549   5.408   1.650  0.2371 -0.2749 -0.0307
 3904TIP3    H133203   0.614   5.395   1.581 -0.4050 -0.1978 -0.6615
 3904TIP3    H233204   0.465   5.384   1.609 -0.4505  1.7980  0.0338
 3905TIP3   OH233205   1.535   3.078   4.748 -0.4641 -0.9435  0.2187
 3905TIP3    H133206   1.600   3.127   4.697 -0.6389 -0.2833  0.6189
 3905TIP3    H233207   1.457   3.135   4.748 -0.7490 -1.3301  0.4912
 3906TIP3   OH233208   5.409   2.924   0.121 -0.0363 -0.4074 -0.3853
 3906TIP3    H133209   5.322   2.964   0.121 -0.1547 -0.6494 -1.2606
 3906TIP3    H233210   5.405   2.855   0.186  0.3334  1.3247  1.5886
 3907TIP3   OH233211   1.321   5.044  16.968  0.3423  0.0093  0.7829
 3907TIP3    H133212   1.301   4.973  17.028  0.4151  0.6557  1.5906
 3907TIP3    H233213   1.244   5.101  16.972  0.3520  0.0649  0.2675
 3908TIP3   OH233214   4.625   3.218   5.338 -0.5766 -0.0787  0.2337
 3908TIP3    H133215   4.713   3.238   5.306 -0.4805 -0.4444  0.2732
 3908TIP3    H233216   4.574   3.296   5.317 -0.2415  0.1389  0.2200
 3909TIP3   OH233217   5.654   6.642   0.777  0.5838  0.1129  0.6533
 3909TIP3    H133218   5.612   6.571   0.728  1.4978 -0.1179  0.1901
 3909TIP3    H233219   5.680   6.602   0.860  0.4265  0.1034  0.6988
 3910TIP3   OH233220   1.687   2.297  16.137 -0.4594 -0.2278 -0.6735
 3910TIP3    H133221   1.735   2.258  16.064 -0.7113 -0.7540 -0.5615
 3910TIP3    H233222   1.616   2.235  16.155  0.5866 -1.0005  1.1186
 3911TIP3   OH233223   5.151   4.063  13.090  0.5038 -0.5391 -0.1963
 3911TIP3    H133224   5.184   3.992  13.035  1.1967 -0.9355  0.7101
 3911TIP3    H233225   5.163   4.032  13.180  2.0328  1.2412  0.2778
 3912TIP3   OH233226   4.060   5.136   4.060 -0.0947  0.0941  0.0071
 3912TIP3    H133227   4.128   5.075   4.032  0.5313  1.4214 -1.5264
 3912TIP3    H233228   4.092   5.222   4.032 -2.8961  0.6564 -1.8982
 3913TIP3   OH233229   0.497   4.234   0.173  0.0150  0.0357  0.1833
 3913TIP3    H133230   0.463   4.321   0.195 -0.7100 -0.1868 -0.0282
 3913TIP3    H233231   0.579   4.252   0.128  1.1828  0.5260  2.3878
 3914TIP3   OH233232   6.817   0.323  15.437 -0.4656  0.0318 -0.2713
 3914TIP3    H133233   6.804   0.400  15.492 -1.7733  1.2533 -2.1405
 3914TIP3    H233234   6.804   0.248  15.495  3.0151  1.0355  2.1588
 3915TIP3   OH233235   6.774   5.758  13.175 -0.5158  0.7933  0.2262
 3915TIP3    H133236   6.863   5.739  13.145 -0.1962  1.9157  0.4158
 3915TIP3    H233237   6.727   5.676  13.164  0.9297 -0.2723  1.5449
 3916TIP3   OH233238   0.661   3.023  11.774  0.0093  0.6405 -0.3090
 3916TIP3    H133239   0.581   3.013  11.826  0.5471 -1.9954  0.1790
 3916TIP3    H233240   0.732   3.008  11.837  0.7445 -0.4312 -1.3466
 3917TIP3   OH233241   5.800   1.201   1.702 -0.1721  0.6466  0.3592
 3917TIP3    H133242   5.795   1.210   1.797 -2.6581  0.0899  0.3338
 3917TIP3    H233243   5.775   1.287   1.669 -1.0774  0.3292  0.2096
 3918TIP3   OH233244   1.451   4.087  15.120 -0.7004 -0.3898 -0.8018
 3918TIP3    H133245   1.437   4.064  15.212 -1.2530  0.5655 -0.6321
 3918TIP3    H233246   1.387   4.033  15.072 -0.3340 -0.9717 -0.6429
 3919TIP3   OH233247   4.826   5.832   6.025 -0.0983 -0.0083 -0.3836
 3919TIP3    H133248   4.766   5.906   6.033  1.6118  1.3862  0.2735
 3919TIP3    H233249   4.789   5.778   5.956 -0.3695  2.5266 -2.3604
 3920TIP3   OH233250   3.037   6.192  12.211 -0.1895  0.3839  0.9408
 3920TIP3    H133251   3.061   6.275  12.168 -0.2240  0.3813  0.9163
 3920TIP3    H233252   3.058   6.207  12.303 -1.1982  0.8069  1.1120
 3921TIP3   OH233253   4.174   6.385   3.444  0.5843 -0.3240 -0.2960
 3921TIP3    H133254   4.149   6.460   3.498  0.1527 -0.6151 -0.0826
 3921TIP3    H233255   4.216   6.423   3.367 -0.4741  0.1848 -0.6415
 3922TIP3   OH233256   5.541   6.262   1.912  0.1971 -0.0660 -0.9003
 3922TIP3    H133257   5.580   6.317   1.845  1.2825  1.9785  1.2883
 3922TIP3    H233258   5.594   6.276   1.990 -3.2645  0.7901  1.5399
 3923TIP3   OH233259   2.581   4.496   0.635  0.0129  0.5436 -0.8354
 3923TIP3    H133260   2.588   4.556   0.710 -1.0050  1.3836 -1.3771
 3923TIP3    H233261   2.671   4.472   0.614  0.4675  2.0787 -0.7307
 3924TIP3   OH233262   1.442   4.175   3.736 -0.1025 -0.5658  0.3097
 3924TIP3    H133263   1.503   4.248   3.722 -0.5667 -0.2825 -0.2923
 3924TIP3    H233264   1.406   4.157   3.649  0.6909 -2.1301  0.2731
 3925TIP3   OH233265   6.402   5.296  10.633 -0.3134  0.4966  0.3947
 3925TIP3    H133266   6.364   5.307  10.720 -1.3002  0.9359 -0.0782
 3925TIP3    H233267   6.381   5.206  10.609  1.1709 -0.0903  1.1576
 3926TIP3   OH233268   2.014   3.378  11.462  0.2678  0.5338  0.1018
 3926TIP3    H133269   1.949   3.309  11.477 -0.9202  1.0553 -2.1146
 3926TIP3    H233270   2.094   3.345  11.504 -1.2779 -0.2734  2.6677
 3927TIP3   OH233271   5.921   1.481  12.998  0.4067  0.8562  0.2672
 3927TIP3    H133272   6.015   1.473  13.010  0.6587  2.9247  0.0191
 3927TIP3    H233273   5.891   1.535  13.071 -0.4251  1.0779 -0.2188
 3928TIP3   OH233274   2.986   6.197  10.710  0.1264  0.1551  0.2769
 3928TIP3    H133275   2.917   6.237  10.762 -1.5217 -0.6346 -1.2121
 3928TIP3    H233276   2.999   6.257  10.637  0.8655  0.1831  0.4235
 3929TIP3   OH233277   0.854   2.907   4.145 -0.6264 -0.0456  0.5620
 3929TIP3    H133278   0.841   3.002   4.136  0.0359  0.1735  1.6649
 3929TIP3    H233279   0.947   2.894   4.128 -0.4660 -0.3207  1.5684
 3930TIP3   OH233280   6.303   2.761  11.845  0.0755  0.3676  0.0865
 3930TIP3    H133281   6.281   2.823  11.775  1.5166  1.7300  0.7840
 3930TIP3    H233282   6.353   2.813  11.909  0.5036 -1.2965  1.1757
 3931TIP3   OH233283   0.347   6.053   5.730  0.4021  0.2335 -0.0098
 3931TIP3    H133284   0.403   6.093   5.796  0.3814  1.4623 -0.6921
 3931TIP3    H233285   0.407   6.016   5.666  0.4308  0.2660 -0.0014
 3932TIP3   OH233286   0.091   3.166   0.400  0.0697  0.5434  0.3154
 3932TIP3    H133287   0.134   3.244   0.434 -0.7451  1.5533 -0.8819
 3932TIP3    H233288   0.058   3.192   0.314 -0.6409 -0.9747  0.0915
 3933TIP3   OH233289   4.495   2.634  16.631 -0.1850  0.3817 -0.8126
 3933TIP3    H133290   4.524   2.577  16.702  0.8810 -1.2480 -2.4708
 3933TIP3    H233291   4.566   2.631  16.567 -1.0366  1.9260 -1.8951
 3934TIP3   OH233292   2.053   6.270  16.388 -0.4103  0.2401  0.0578
 3934TIP3    H133293   2.062   6.259  16.293 -1.4176 -0.5162  0.0284
 3934TIP3    H233294   2.078   6.361  16.404 -0.7609  0.5413 -1.0097
 3935TIP3   OH233295   3.431   4.473   2.128 -0.0668 -0.6864  0.9104
 3935TIP3    H133296   3.517   4.459   2.169  0.0973 -0.1969  0.7435
 3935TIP3    H233297   3.384   4.528   2.191 -0.2533 -0.9414  0.9942
 3936TIP3   OH233298   0.870   0.662  10.629  0.5758 -0.0034  0.0450
 3936TIP3    H133299   0.855   0.741  10.578  0.8971  0.5884  0.8520
 3936TIP3    H233300   0.835   0.682  10.716  1.8125 -0.2655  0.6339
 3937TIP3   OH233301   5.254   2.819  14.873  0.1925 -0.3383  0.0942
 3937TIP3    H133302   5.334   2.790  14.828  1.1661 -0.4215  1.7978
 3937TIP3    H233303   5.229   2.899  14.826 -0.3749 -1.8018 -2.2433
 3938TIP3   OH233304   0.130   5.384  12.751  0.0479 -0.5120 -0.1972
 3938TIP3    H133305   0.124   5.329  12.673  0.5315 -0.2754 -0.4047
 3938TIP3    H233306   0.047   5.431  12.754  0.3417  0.0891 -1.0358
 3939TIP3   OH233307   0.762   1.644   4.886 -0.2512  0.2080 -0.0819
 3939TIP3    H133308   0.776   1.686   4.801 -1.2185 -1.6260 -1.2225
 3939TIP3    H233309   0.845   1.601   4.905  0.1164  1.0015  0.1496
 3940TIP3   OH233310   0.438   4.559  15.126  0.1007  0.1571  0.0362
 3940TIP3    H133311   0.417   4.509  15.205  1.1373  0.9183  0.8134
 3940TIP3    H233312   0.407   4.647  15.145  2.0924  0.8260  0.4108
 3941TIP3   OH233313   4.000   4.792  13.354 -1.0240 -0.4568 -0.6719
 3941TIP3    H133314   3.952   4.715  13.322 -4.5204  0.8965  0.7783
 3941TIP3    H233315   3.962   4.865  13.305 -0.0599  0.6823  0.2377
 3942TIP3   OH233316   5.341   0.869   1.662  0.2486  0.5205  0.1207
 3942TIP3    H133317   5.401   0.794   1.661 -0.1440  0.1958 -1.4718
 3942TIP3    H233318   5.368   0.922   1.587 -0.8201  0.8958 -0.0115
 3943TIP3   OH233319   5.152   3.398   4.994 -0.5088  0.0173  0.6233
 3943TIP3    H133320   5.101   3.335   4.943  0.6084 -0.3092 -0.1388
 3943TIP3    H233321   5.195   3.345   5.061  0.0650  0.0364  0.2732
 3944TIP3   OH233322   3.210   5.564   1.970 -0.1365  0.0190  0.0978
 3944TIP3    H133323   3.288   5.509   1.959 -1.1831 -1.0336 -3.2818
 3944TIP3    H233324   3.238   5.633   2.030  3.0453 -0.9520 -0.0786
 3945TIP3   OH233325   5.572   3.582  12.188  0.1480  0.2924 -0.0890
 3945TIP3    H133326   5.573   3.520  12.115 -4.1020  0.4196 -0.4918
 3945TIP3    H233327   5.577   3.528  12.266  1.1563 -0.1272 -0.4307
 3946TIP3   OH233328   3.920   5.987  11.253 -0.2521 -0.1498  0.6353
 3946TIP3    H133329   3.994   6.022  11.303 -0.3358  0.0244  0.6391
 3946TIP3    H233330   3.880   5.923  11.312 -1.4563  1.3619  1.5395
 3947TIP3   OH233331   1.783   3.261   2.129 -0.5990  0.4963  0.0010
 3947TIP3    H133332   1.740   3.320   2.192  0.3347  0.5252  0.6346
 3947TIP3    H233333   1.804   3.318   2.054 -0.1715  0.8660  0.3922
 3948TIP3   OH233334   4.105   2.874   0.261  0.0617 -0.4405 -0.4204
 3948TIP3    H133335   4.073   2.942   0.320 -0.0974  0.6926 -1.7540
 3948TIP3    H233336   4.079   2.791   0.302  1.2216  0.2236  1.7961
 3949TIP3   OH233337   2.016   1.276   3.804 -0.2049 -0.1336 -0.2675
 3949TIP3    H133338   2.006   1.355   3.751 -2.3081 -0.1671  0.0105
 3949TIP3    H233339   1.957   1.290   3.878  3.3699  0.3853  2.7576
 3950TIP3   OH233340   4.455   5.399   0.771 -0.5539  0.1912 -0.3659
 3950TIP3    H133341   4.424   5.476   0.819  0.2980 -0.4843  1.3494
 3950TIP3    H233342   4.538   5.376   0.813 -0.1913 -0.9463 -1.6410
 3951TIP3   OH233343   4.072   3.588  17.070  0.3738 -0.6304 -0.4700
 3951TIP3    H133344   4.124   3.533  17.012  0.2528 -2.3475  0.9669
 3951TIP3    H233345   3.982   3.576  17.041  0.4007 -0.7914 -0.4852
 3952TIP3   OH233346   3.692   4.876  11.610  0.3598  1.2002  0.0294
 3952TIP3    H133347   3.748   4.819  11.663  1.3368  0.6916 -1.4854
 3952TIP3    H233348   3.752   4.919  11.549 -1.0021 -0.7470 -2.9333
 3953TIP3   OH233349   1.868   2.405   2.698  0.4248  0.1734 -0.4368
 3953TIP3    H133350   1.818   2.327   2.674  0.9051 -0.3239  0.1117
 3953TIP3    H233351   1.803   2.475   2.704 -0.2868 -0.5460  0.6736
 3954TIP3   OH233352   6.389   5.664  14.152 -0.3410 -0.0887  0.1149
 3954TIP3    H133353   6.457   5.682  14.087 -1.5399  2.1591 -0.6273
 3954TIP3    H233354   6.332   5.599  14.110  0.1438 -0.3336 -0.1631
 3955TIP3   OH233355   4.308   4.510   1.115  0.0064  0.1503 -0.3489
 3955TIP3    H133356   4.309   4.549   1.028  2.1402  0.1694 -0.3703
 3955TIP3    H233357   4.381   4.448   1.114 -0.3064 -0.2947  1.2439
 3956TIP3   OH233358   3.217   5.886  12.471  0.1001  0.6931  0.0697
 3956TIP3    H133359   3.125   5.885  12.445  0.2840  0.3749 -0.5654
 3956TIP3    H233360   3.256   5.956  12.420  0.9643 -1.3734 -2.3159
 3957TIP3   OH233361   1.551   3.998  13.346  0.4557  0.4014  0.3047
 3957TIP3    H133362   1.567   4.035  13.433 -0.1539  0.3963  0.4248
 3957TIP3    H233363   1.461   3.966  13.350  0.1065  1.2337 -0.6232
 3958TIP3   OH233364   6.161   1.091   4.761 -0.1151  0.3024 -0.3648
 3958TIP3    H133365   6.161   1.179   4.722 -0.9954  0.6677  0.3917
 3958TIP3    H233366   6.166   1.031   4.687 -2.5478  0.9483 -1.1557
 3959TIP3   OH233367   0.874   1.533   5.590 -0.2338 -0.5714  0.0883
 3959TIP3    H133368   0.915   1.447   5.602 -1.2738 -1.0646  0.2541
 3959TIP3    H233369   0.947   1.595   5.592  0.3273 -1.2036  2.5590
 3960TIP3   OH233370   5.922   3.776  11.426 -0.4895  0.0959 -0.3654
 3960TIP3    H133371   5.941   3.861  11.387 -1.3613 -0.0099 -1.0397
 3960TIP3    H233372   5.992   3.719  11.392 -0.1123  0.4499 -0.1968
 3961TIP3   OH233373   5.081   1.898   1.795  1.0927 -0.0764 -0.3166
 3961TIP3    H133374   4.993   1.934   1.779  1.0211  0.5429  1.3297
 3961TIP3    H233375   5.140   1.962   1.757  0.8553 -1.1860 -2.7368
 3962TIP3   OH233376   0.263   4.317   5.938 -0.5211 -0.2584 -0.3633
 3962TIP3    H133377   0.216   4.349   5.860 -0.7860  0.3442  0.0393
 3962TIP3    H233378   0.203   4.254   5.977 -1.0847  0.6173  0.2316
 3963TIP3   OH233379   3.424   6.462  16.487  0.0822  0.1328  0.3381
 3963TIP3    H133380   3.449   6.501  16.571  1.8894  0.2123 -0.1966
 3963TIP3    H233381   3.471   6.514  16.421  0.0752 -1.0025 -0.6068
 3964TIP3   OH233382   0.466   5.164   2.859 -0.8819  0.0705  0.0656
 3964TIP3    H133383   0.493   5.238   2.805 -1.3514  0.9059  0.9572
 3964TIP3    H233384   0.521   5.170   2.937 -1.3676 -0.1452  0.4248
 3965TIP3   OH233385   5.652   1.515   6.693 -0.2542 -0.3814 -0.1456
 3965TIP3    H133386   5.717   1.504   6.762 -0.5216 -0.4446  0.1010
 3965TIP3    H233387   5.671   1.600   6.654  0.5064 -0.7659 -0.6443
 3966TIP3   OH233388   1.735   1.680  14.909 -0.3538  0.0090  0.5513
 3966TIP3    H133389   1.745   1.657  15.001  2.4079  0.2754  0.4017
 3966TIP3    H233390   1.722   1.596  14.865 -1.7556 -0.1141  1.1385
 3967TIP3   OH233391   6.591   6.231   6.423  0.3873 -0.6645  0.3511
 3967TIP3    H133392   6.639   6.148   6.431  0.3707 -0.6874  0.2217
 3967TIP3    H233393   6.659   6.298   6.421  0.3519 -0.4782  2.6715
 3968TIP3   OH233394   1.954   0.331   5.454  0.2868  0.9587  0.2729
 3968TIP3    H133395   1.966   0.239   5.476 -0.8166 -0.0128 -2.7077
 3968TIP3    H233396   1.936   0.373   5.538 -0.3955 -1.7625  1.6127
 3969TIP3   OH233397   6.676   6.029  16.180 -0.0730 -0.4039  0.3787
 3969TIP3    H133398   6.694   5.936  16.195  1.2352  0.1186  2.4449
 3969TIP3    H233399   6.604   6.030  16.117  0.0419 -2.7994  0.1347
 3970TIP3   OH233400   2.766   5.272   2.001 -0.4802  0.2233 -0.2658
 3970TIP3    H133401   2.785   5.294   2.092  0.1841  0.5434 -0.4719
 3970TIP3    H233402   2.671   5.271   1.995 -0.5242  0.5929  0.3383
 3971TIP3   OH233403   0.213   1.936   3.411 -0.2256  0.5948  0.4894
 3971TIP3    H133404   0.217   1.969   3.500  0.0519  2.0668 -0.0404
 3971TIP3    H233405   0.123   1.954   3.382  0.4125  2.6377 -0.4039
 3972TIP3   OH233406   0.255   2.428   2.962  0.4930  0.3790  0.1977
 3972TIP3    H133407   0.332   2.456   3.011  0.6494  1.5448 -0.6741
 3972TIP3    H233408   0.208   2.509   2.942 -0.7684 -0.2832  0.3859
 3973TIP3   OH233409   2.553   6.171  12.589  0.0535  0.2816  0.4132
 3973TIP3    H133410   2.486   6.108  12.617  0.8313 -1.3380 -1.1648
 3973TIP3    H233411   2.512   6.219  12.517  0.1903  0.0357  0.1662
 3974TIP3   OH233412   0.434   2.444   1.148  0.1438 -0.0678  0.5301
 3974TIP3    H133413   0.377   2.516   1.174 -0.5862 -0.4185 -0.0638
 3974TIP3    H233414   0.500   2.440   1.217 -1.0459 -0.2145  1.7158
 3975TIP3   OH233415   3.069   1.607  12.226 -0.4973  0.1225  0.0900
 3975TIP3    H133416   3.154   1.649  12.237 -1.5513  2.3874  0.1490
 3975TIP3    H233417   3.032   1.647  12.147 -1.7900 -0.3220  0.4378
 3976TIP3   OH233418   3.545   6.747  14.187  0.7112 -0.5255 -0.3286
 3976TIP3    H133419   3.530   6.826  14.135  0.3608 -0.9324 -0.8406
 3976TIP3    H233420   3.528   6.674  14.128  1.0467 -0.9943  0.1380
 3977TIP3   OH233421   6.695   1.149  16.257  0.2213  0.1499  0.4006
 3977TIP3    H133422   6.611   1.133  16.300  0.7579 -0.0335  1.4210
 3977TIP3    H233423   6.751   1.077  16.286  0.3220 -0.6080 -1.4926
 3978TIP3   OH233424   5.127   2.795   3.900  0.4826 -0.0094  0.6261
 3978TIP3    H133425   5.171   2.860   3.845  0.2691  0.0663  0.5432
 3978TIP3    H233426   5.159   2.711   3.868  2.7443  0.0868  2.3840
 3979TIP3   OH233427   2.566   0.968  13.849  0.1289 -0.1263  0.5030
 3979TIP3    H133428   2.565   0.872  13.848 -1.3909 -0.1245 -0.5175
 3979TIP3    H233429   2.480   0.994  13.815  1.0418  1.5887 -0.6758
 3980TIP3   OH233430   1.170   3.926  12.244 -0.1491 -0.2735  0.0356
 3980TIP3    H133431   1.256   3.943  12.283 -0.9520 -0.9554  2.2458
 3980TIP3    H233432   1.189   3.866  12.172  1.2159 -0.5961  0.6149
 3981TIP3   OH233433   6.304   3.026  16.851  0.1560  0.2585 -0.3553
 3981TIP3    H133434   6.395   3.006  16.830  0.6914  1.9680  0.1664
 3981TIP3    H233435   6.296   3.121  16.835 -1.8709 -0.0507 -1.6113
 3982TIP3   OH233436   2.213   4.336   2.794  0.0672 -0.1702 -0.5245
 3982TIP3    H133437   2.265   4.414   2.813  3.1134 -1.9384 -0.8955
 3982TIP3    H233438   2.246   4.306   2.709 -0.7518 -2.0477 -0.2164
 3983TIP3   OH233439   0.842   5.595   1.203  0.0820 -0.5457  0.1751
 3983TIP3    H133440   0.771   5.654   1.230  0.9661  0.1242  1.1280
 3983TIP3    H233441   0.865   5.547   1.283 -1.3531 -3.0604 -0.8019
 3984TIP3   OH233442   2.832   6.007  14.514 -0.3278  0.2289 -0.5805
 3984TIP3    H133443   2.740   6.031  14.526 -0.5819 -1.3599  1.0948
 3984TIP3    H233444   2.880   6.089  14.525 -1.4114  0.7400  0.6212
 3985TIP3   OH233445   1.312   1.238   1.264  0.5563  0.2556  0.1966
 3985TIP3    H133446   1.261   1.205   1.338 -1.3256  1.6273 -0.4021
 3985TIP3    H233447   1.370   1.303   1.303 -0.3739  0.9207  0.5274
 3986TIP3   OH233448   3.514   0.392  12.362 -0.4393 -0.0024  0.0821
 3986TIP3    H133449   3.441   0.341  12.328 -0.5498 -0.0289  0.3563
 3986TIP3    H233450   3.491   0.483  12.342 -1.2349  0.1215  1.4166
 3987TIP3   OH233451   5.326   4.998   2.304 -0.7665 -0.4935  0.5600
 3987TIP3    H133452   5.307   4.910   2.336  2.7176 -0.7152  2.4778
 3987TIP3    H233453   5.357   4.984   2.214 -1.1642 -1.1147  0.5138
 3988TIP3   OH233454   2.232   4.751  15.946  0.1378  0.2593 -0.0926
 3988TIP3    H133455   2.242   4.674  16.002  0.5830 -0.5013 -1.1960
 3988TIP3    H233456   2.319   4.768  15.912 -0.3721 -0.1677 -1.6859
 3989TIP3   OH233457   4.239   1.935  13.091 -0.6102 -0.0831  0.7619
 3989TIP3    H133458   4.238   1.941  12.995  0.9846  2.4086  0.8125
 3989TIP3    H233459   4.146   1.932  13.115 -1.0871  0.7817 -0.8073
 3990TIP3   OH233460   2.810   5.217  14.525 -0.4224  0.3276  0.1541
 3990TIP3    H133461   2.848   5.224  14.612  1.1469  1.2052 -0.5524
 3990TIP3    H233462   2.818   5.124  14.502 -2.0069 -0.1512  1.3975
 3991TIP3   OH233463   3.204   6.319  14.417  0.1274 -0.0647  0.2846
 3991TIP3    H133464   3.247   6.384  14.361 -0.3485  0.4720  0.5286
 3991TIP3    H233465   3.221   6.235  14.374  0.5397  0.2459 -0.1694
 3992TIP3   OH233466   2.692   3.537  12.734  0.4150  0.0880 -0.5317
 3992TIP3    H133467   2.734   3.610  12.689 -1.2946 -0.1169 -2.6142
 3992TIP3    H233468   2.617   3.515  12.678 -1.0786 -1.0593  1.8018
 3993TIP3   OH233469   1.679   2.579   1.461 -0.0011 -0.1800 -0.9660
 3993TIP3    H133470   1.720   2.612   1.540 -0.0070 -0.4435 -0.8494
 3993TIP3    H233471   1.592   2.620   1.460  0.9450  1.9569 -2.2639
 3994TIP3   OH233472   4.240   0.117  16.278  0.2745 -0.4291 -0.1962
 3994TIP3    H133473   4.214   0.203  16.247  0.2104 -0.0085  0.9566
 3994TIP3    H233474   4.234   0.061  16.201 -2.1294  0.0497 -0.4614
 3995TIP3   OH233475   5.504   1.443  12.490 -0.6299  0.1143  0.0793
 3995TIP3    H133476   5.559   1.484  12.556 -0.4660 -1.4829  0.9937
 3995TIP3    H233477   5.415   1.474  12.509 -0.2079  2.0212 -0.8670
 3996TIP3   OH233478   5.214   1.019  12.584  0.2064 -0.3092 -0.4057
 3996TIP3    H133479   5.277   1.018  12.656 -0.7370  0.3397  0.4655
 3996TIP3    H233480   5.264   0.994  12.507  1.4796  0.0088  0.2976
 3997TIP3   OH233481   6.264   4.268   3.872  0.5694 -0.2707  0.4811
 3997TIP3    H133482   6.273   4.182   3.831 -0.5068  0.2229 -0.8644
 3997TIP3    H233483   6.303   4.329   3.810 -0.3011  0.3967  0.5610
 3998TIP3   OH233484   4.818   4.825   4.830 -0.1792  0.2002 -0.0969
 3998TIP3    H133485   4.792   4.901   4.779  0.6077 -0.6255 -1.8653
 3998TIP3    H233486   4.760   4.824   4.906 -1.1018  1.7673 -0.7451
 3999TIP3   OH233487   5.795   3.385   2.637  0.2081  0.2623 -0.2181
 3999TIP3    H133488   5.728   3.451   2.617  0.0760  0.2788  0.2632
 3999TIP3    H233489   5.795   3.380   2.733 -0.0278 -0.6864 -0.2601
 4000TIP3   OH233490   4.488   1.282  10.722 -0.3401 -0.1127  0.1130
 4000TIP3    H133491   4.577   1.246  10.716 -0.7941 -1.2225 -0.3531
 4000TIP3    H233492   4.431   1.209  10.696 -1.3601  0.7405 -0.1108
 4001TIP3   OH233493   4.213   2.498   5.698  0.2371  0.0467  0.3499
 4001TIP3    H133494   4.165   2.457   5.769  1.4953 -0.9566  0.6623
 4001TIP3    H233495   4.288   2.539   5.740  0.7914 -0.2330 -0.3402
 4002TIP3   OH233496   3.900   6.496   5.454  0.5735 -0.0804 -0.4260
 4002TIP3    H133497   3.895   6.465   5.364  3.0371  1.3316 -1.1287
 4002TIP3    H233498   3.883   6.590   5.449  0.3308 -0.0446  0.6608
 4003TIP3   OH233499   4.334   6.292  14.753 -0.2145 -0.0522  0.3304
 4003TIP3    H133500   4.244   6.320  14.767  0.0149  0.0235  1.8915
 4003TIP3    H233501   4.372   6.289  14.841  0.9486 -1.2883 -0.1715
 4004TIP3   OH233502   1.978   5.015  11.605 -0.4167  0.2741 -0.1047
 4004TIP3    H133503   1.964   4.952  11.676  2.0159 -1.5745 -1.0873
 4004TIP3    H233504   1.958   4.966  11.525 -0.7873  1.5374 -0.8179
 4005TIP3   OH233505   0.170   1.921  17.175  0.4214 -0.7914 -0.6046
 4005TIP3    H133506   0.143   1.983  17.243 -2.5981 -0.7834 -1.6693
 4005TIP3    H233507   0.176   1.837  17.220 -1.9619 -0.8657 -0.2764
 4006TIP3   OH233508   3.454   3.390   1.513 -0.2315  0.6946  0.1854
 4006TIP3    H133509   3.475   3.471   1.559 -0.2964  0.2309  1.0576
 4006TIP3    H233510   3.361   3.375   1.532  0.6107 -1.5500  3.2792
 4007TIP3   OH233511   6.572   1.043  14.730  0.0273  0.0309  0.2397
 4007TIP3    H133512   6.650   1.004  14.769  1.3090 -0.1356 -2.2742
 4007TIP3    H233513   6.558   0.992  14.650 -1.1863  1.6482 -0.6260
 4008TIP3   OH233514   0.213   2.949   3.813  0.5588  0.2669 -0.4229
 4008TIP3    H133515   0.238   2.859   3.793 -0.3614 -0.2161  0.5315
 4008TIP3    H233516   0.244   3.000   3.738  1.7596 -0.7259 -0.6287
 4009TIP3   OH233517   0.305   5.364   1.487 -0.4046 -0.2401 -0.0249
 4009TIP3    H133518   0.300   5.282   1.438  0.6381  0.4391 -1.3270
 4009TIP3    H233519   0.372   5.415   1.442 -0.1444  0.8371  1.5174
 4010TIP3   OH233520   4.855   6.090  13.275 -0.0499 -0.0428 -0.1975
 4010TIP3    H133521   4.925   6.153  13.292  3.1267 -3.2109 -0.5627
 4010TIP3    H233522   4.825   6.064  13.362  0.0145  0.4547 -0.0202
 4011TIP3   OH233523   3.139   5.433  15.704 -0.5232  0.7696  0.1874
 4011TIP3    H133524   3.146   5.400  15.793 -1.2472 -0.2585 -0.1145
 4011TIP3    H233525   3.200   5.507  15.700  1.5935 -0.8479  0.7558
 4012TIP3   OH233526   0.998   4.919   5.051  0.2362  0.5042 -0.0726
 4012TIP3    H133527   0.972   4.829   5.071  0.1911  0.5116 -0.0984
 4012TIP3    H233528   0.933   4.972   5.097  0.0137  0.5198 -0.4075
 4013TIP3   OH233529   5.424   6.379   2.260  0.3902 -0.1652  0.3678
 4013TIP3    H133530   5.371   6.351   2.186  1.9399 -0.9896 -0.4685
 4013TIP3    H233531   5.400   6.320   2.331  1.4493 -1.7055 -0.5177
 4014TIP3   OH233532   4.706   0.306   1.448  0.1365 -0.2190 -0.2653
 4014TIP3    H133533   4.748   0.247   1.385  2.0634 -0.2905  0.9841
 4014TIP3    H233534   4.689   0.386   1.399 -0.0963 -0.9000 -1.3261
 4015TIP3   OH233535   6.076   2.006  15.345  0.3055 -0.2100  0.1207
 4015TIP3    H133536   6.108   2.040  15.262 -1.1458 -0.5742 -0.6214
 4015TIP3    H233537   6.114   1.919  15.352 -1.9253 -1.4535 -1.7202
 4016TIP3   OH233538   2.371   4.594  11.882  1.0520 -0.0344  0.5948
 4016TIP3    H133539   2.383   4.606  11.787 -1.9617  2.0145  0.3372
 4016TIP3    H233540   2.448   4.634  11.921  0.9890  1.7874 -0.9955
 4017TIP3   OH233541   1.144   4.275  11.532 -0.2481 -0.0575 -0.4551
 4017TIP3    H133542   1.055   4.253  11.562  0.1906 -1.2918 -0.0070
 4017TIP3    H233543   1.133   4.356  11.483 -1.7251 -0.5194 -0.9368
 4018TIP3   OH233544   5.903   0.487   5.055 -0.0536 -0.1176  0.0856
 4018TIP3    H133545   5.938   0.566   5.096  2.4655 -1.8872  1.5944
 4018TIP3    H233546   5.977   0.450   5.006 -1.5018 -0.9584 -1.6284
 4019TIP3   OH233547   6.091   1.987  10.699  0.4161 -0.5942 -0.4581
 4019TIP3    H133548   6.018   1.929  10.721  0.8656 -0.9602  0.1062
 4019TIP3    H233549   6.149   1.982  10.775  0.0263  1.3018 -0.0035
 4020TIP3   OH233550   1.029   4.689   1.910 -0.1607 -0.5717 -0.2021
 4020TIP3    H133551   1.071   4.661   1.828  3.2083  2.2745  0.2815
 4020TIP3    H233552   0.963   4.753   1.883  2.2600  1.8619 -0.8527
 4021TIP3   OH233553   0.067   4.282   6.174  0.0773 -0.6253 -0.2287
 4021TIP3    H133554   0.033   4.350   6.116 -0.0502 -1.2407 -0.8967
 4021TIP3    H233555   0.016   4.292   6.254 -0.9588 -0.8444 -0.8361
 4022TIP3   OH233556   1.381   3.683   1.796 -0.3402 -0.1614  0.1171
 4022TIP3    H133557   1.338   3.714   1.876 -0.5018 -1.5143  0.5794
 4022TIP3    H233558   1.467   3.724   1.798 -0.8800  1.0251  0.1877
 4023TIP3   OH233559   5.951   6.305   4.903 -0.4653  0.9808 -0.1477
 4023TIP3    H133560   5.974   6.301   4.996  1.0860 -0.4882 -0.5478
 4023TIP3    H233561   5.856   6.292   4.902 -0.3502 -0.3881  1.1888
 4024TIP3   OH233562   2.579   0.386  12.569  0.2422 -0.0584 -0.0241
 4024TIP3    H133563   2.567   0.332  12.491  0.8526 -0.1250 -0.0812
 4024TIP3    H233564   2.568   0.476  12.538 -1.5474 -0.1662  0.2255
 4025TIP3   OH233565   2.950   3.392   0.401  0.5540 -0.1514 -0.3399
 4025TIP3    H133566   2.960   3.481   0.436  0.0867 -1.2011  2.7981
 4025TIP3    H233567   3.032   3.348   0.425 -0.2529 -1.2348  0.5622
 4026TIP3   OH233568   2.288   0.471  16.313 -0.1758  0.4797 -0.5221
 4026TIP3    H133569   2.360   0.502  16.259  0.6639 -0.7540 -0.1416
 4026TIP3    H233570   2.325   0.400  16.365 -1.3075  0.7408  0.6986
 4027TIP3   OH233571   0.846   3.266  13.937 -0.0660 -0.3763  0.1789
 4027TIP3    H133572   0.775   3.267  14.001  0.9419  0.5507  1.3400
 4027TIP3    H233573   0.926   3.267  13.990  0.8240 -1.1578 -1.0902
 4028TIP3   OH233574   3.116   2.597   1.105 -0.3678 -0.5747  0.3796
 4028TIP3    H133575   3.079   2.684   1.121  0.4238  0.4494 -2.6084
 4028TIP3    H233576   3.070   2.539   1.166 -1.3098  1.8215  2.0967
 4029TIP3   OH233577   6.585   1.352   3.904 -0.1800  0.2380 -0.3440
 4029TIP3    H133578   6.680   1.345   3.895 -0.2229  0.1083 -0.7335
 4029TIP3    H233579   6.569   1.445   3.923 -0.0116  0.3660 -0.8125
 4030TIP3   OH233580   3.296   3.964  15.862 -0.4977 -0.0209  0.1725
 4030TIP3    H133581   3.304   3.906  15.787 -2.2088  0.8414 -0.7294
 4030TIP3    H233582   3.334   4.047  15.832 -1.7789  0.5200  0.0028
 4031TIP3   OH233583   3.316   4.775  16.743  0.1575 -0.7129 -0.2028
 4031TIP3    H133584   3.348   4.788  16.832  1.7568 -1.9858 -0.5195
 4031TIP3    H233585   3.396   4.774  16.690 -0.8678  2.2567 -2.0269
 4032TIP3   OH233586   4.505   6.323   1.911 -0.3528 -0.5478 -0.1637
 4032TIP3    H133587   4.521   6.350   2.001 -0.1825 -0.1335 -0.3167
 4032TIP3    H233588   4.416   6.286   1.912 -0.7580  0.4020 -0.0327
 4033TIP3   OH233589   6.140   6.605  15.631 -0.0710  0.6169 -0.1102
 4033TIP3    H133590   6.234   6.594  15.622 -0.1351 -1.4074  1.0574
 4033TIP3    H233591   6.102   6.535  15.578 -0.8138 -0.0464  1.2298
 4034TIP3   OH233592   6.289   0.589  15.564  0.3045 -0.0248 -0.2528
 4034TIP3    H133593   6.206   0.617  15.603 -0.0309 -0.5244 -0.6083
 4034TIP3    H233594   6.356   0.633  15.617 -0.1576 -0.2591  0.5445
 4035TIP3   OH233595   3.971   6.039   0.850 -0.3013 -0.5745 -0.2856
 4035TIP3    H133596   3.966   5.944   0.862 -0.7659 -0.8987 -2.5239
 4035TIP3    H233597   3.949   6.053   0.758 -1.2957  1.8183  0.2263
 4036TIP3   OH233598   5.417   6.670  16.249  0.3605  0.6182 -0.0731
 4036TIP3    H133599   5.346   6.682  16.186  1.6872  2.3502 -1.3194
 4036TIP3    H233600   5.441   6.578  16.241 -0.2903  0.5295 -1.2143
 4037TIP3   OH233601   0.115   4.495   2.845  0.1923  0.5650  0.0031
 4037TIP3    H133602   0.147   4.544   2.921  1.7129 -2.6433  1.6221
 4037TIP3    H233603   0.051   4.554   2.804  2.4786  4.2042  1.1600
 4038TIP3   OH233604   3.512   1.526  11.121 -0.0412  0.1622 -0.0752
 4038TIP3    H133605   3.504   1.441  11.079  0.1506  0.6471 -1.1250
 4038TIP3    H233606   3.573   1.575  11.066 -0.2758  1.0314  0.4139
 4039TIP3   OH233607   2.596   5.658   0.090 -0.1643 -0.7510 -0.0570
 4039TIP3    H133608   2.569   5.588   0.031  0.5731  1.2819 -3.0704
 4039TIP3    H233609   2.690   5.644   0.103 -0.2774 -1.0560  0.4424
 4040TIP3   OH233610   2.870   1.912   0.242  0.4508  0.1634 -0.4257
 4040TIP3    H133611   2.887   1.955   0.325  0.8813 -0.6570 -0.0775
 4040TIP3    H233612   2.939   1.846   0.234 -0.7900 -1.1780 -0.4398
 4041TIP3   OH233613   5.176   5.383   5.336 -0.3943 -0.7809 -0.2188
 4041TIP3    H133614   5.094   5.369   5.288  0.2478 -0.5427 -1.4210
 4041TIP3    H233615   5.150   5.434   5.413 -1.2321  0.1678 -1.0978
 4042TIP3   OH233616   6.796   6.398  11.498  0.5531 -0.0762  0.4685
 4042TIP3    H133617   6.870   6.453  11.474  0.7948 -0.5125  0.1892
 4042TIP3    H233618   6.737   6.456  11.545 -0.2542  0.9825 -1.7204
 4043TIP3   OH233619   1.001   3.069   5.635 -0.1370 -0.5954 -0.4866
 4043TIP3    H133620   0.931   3.026   5.685 -0.0863  1.2169  1.3119
 4043TIP3    H233621   1.053   3.115   5.702  0.9511  0.5913 -2.0746
 4044TIP3   OH233622   2.975   0.000   4.684 -0.6866  0.2621 -0.8396
 4044TIP3    H133623   2.972  -0.048   4.767 -0.4262 -1.2177 -1.6500
 4044TIP3    H233624   2.901   0.060   4.688 -1.6810 -0.9590 -0.2236
 4045TIP3   OH233625   6.359   4.937  17.063  0.2364  0.0189 -0.0550
 4045TIP3    H133626   6.385   5.023  17.030 -1.5373  0.8658  0.6065
 4045TIP3    H233627   6.414   4.875  17.015  2.1455  1.5451  0.0588
 4046TIP3   OH233628   6.563   1.625   4.200  0.9337 -0.0391  0.3227
 4046TIP3    H133629   6.605   1.604   4.284 -0.3806  0.3441  1.1153
 4046TIP3    H233630   6.549   1.719   4.203  1.9959  0.1827 -0.8957
 4047TIP3   OH233631   3.679   2.067  12.856 -0.1422 -0.2085 -0.2484
 4047TIP3    H133632   3.638   2.090  12.772 -1.6205  0.3012  0.5748
 4047TIP3    H233633   3.767   2.038  12.833  0.0955  1.5958 -1.8267
 4048TIP3   OH233634   5.126   0.492  14.438  0.2074 -0.6147  0.0443
 4048TIP3    H133635   5.091   0.476  14.350 -0.7045 -0.8983  0.4413
 4048TIP3    H233636   5.049   0.487  14.495  0.6450  0.5213  0.7501
 4049TIP3   OH233637   6.551   5.567   3.743  0.1627  0.3057  0.3484
 4049TIP3    H133638   6.638   5.551   3.706  0.1216 -0.2230  0.4744
 4049TIP3    H233639   6.567   5.614   3.825  0.2063  2.7919 -0.9787
 4050TIP3   OH233640   5.297   1.777   5.295  0.1330 -0.2389 -0.2020
 4050TIP3    H133641   5.313   1.870   5.307  0.1122 -0.3473  0.7362
 4050TIP3    H233642   5.384   1.738   5.287  0.1778 -0.2302  0.1967
 4051TIP3   OH233643   5.887   1.786  16.804 -0.1615 -0.1224  0.0632
 4051TIP3    H133644   5.836   1.720  16.850 -1.3911 -0.0142 -1.0943
 4051TIP3    H233645   5.977   1.772  16.834 -0.4882 -1.9183  0.2932
 4052TIP3   OH233646   2.876   2.050   1.612  0.3353 -0.6176  0.1591
 4052TIP3    H133647   2.874   1.965   1.655  0.5459  0.7489  3.0754
 4052TIP3    H233648   2.793   2.091   1.636  1.6109  1.2380  1.6359
 4053TIP3   OH233649   1.358   5.847   5.135  0.5069  0.2207 -0.0246
 4053TIP3    H133650   1.438   5.895   5.116  0.4089 -0.5727 -2.8421
 4053TIP3    H233651   1.378   5.756   5.113 -0.9468 -0.1062 -0.1388
 4054TIP3   OH233652   0.295   4.158  16.112 -0.5589 -0.1410  0.4706
 4054TIP3    H133653   0.359   4.103  16.066 -0.1358  0.8198 -0.1225
 4054TIP3    H233654   0.247   4.203  16.042 -1.8456 -0.7740  0.9063
 4055TIP3   OH233655   1.870   4.049   1.416  0.0110  0.3818  1.1087
 4055TIP3    H133656   1.783   4.009   1.419 -0.0310  0.4513  0.8549
 4055TIP3    H233657   1.853   4.143   1.413  0.0613  0.3633 -0.1169
 4056TIP3   OH233658   4.471   6.402   1.243  0.1310 -0.2221  0.3637
 4056TIP3    H133659   4.398   6.463   1.231  0.5486 -0.1077 -2.0321
 4056TIP3    H233660   4.445   6.349   1.318 -2.1534  0.2228 -0.0242
 4057TIP3   OH233661   3.671   4.223  11.435 -0.4771 -0.7728 -0.7840
 4057TIP3    H133662   3.750   4.180  11.467  0.4761  2.1295  1.2006
 4057TIP3    H233663   3.678   4.220  11.339  1.7299 -1.1331 -0.6521
 4058TIP3   OH233664   3.316   1.728   1.420 -0.0293  0.4202  0.3247
 4058TIP3    H133665   3.231   1.737   1.463 -1.4530 -1.2789 -1.8990
 4058TIP3    H233666   3.311   1.644   1.374  2.5397  0.6809 -0.6118
 4059TIP3   OH233667   5.839   4.122   4.159 -0.3647 -0.2584  0.2155
 4059TIP3    H133668   5.811   4.192   4.217 -1.8446 -0.3090 -0.4159
 4059TIP3    H233669   5.758   4.080   4.130  0.4414 -1.5077 -0.3127
 4060TIP3   OH233670   5.915   2.807   0.783 -0.0468 -0.1406  0.2502
 4060TIP3    H133671   5.827   2.837   0.806 -1.0175 -0.9388 -2.0989
 4060TIP3    H233672   5.960   2.886   0.753 -0.1732  0.1553  0.8258
 4061TIP3   OH233673   2.171   3.914  14.422 -0.0528  0.3396  0.2184
 4061TIP3    H133674   2.128   3.873  14.497 -0.6630  0.9915  0.2254
 4061TIP3    H233675   2.103   3.966  14.380  0.1474 -0.4252 -1.0976
 4062TIP3   OH233676   5.293   1.246   6.425 -0.2659  0.1328  0.2818
 4062TIP3    H133677   5.268   1.160   6.391  0.3579  0.3141 -0.6829
 4062TIP3    H233678   5.368   1.229   6.481  1.1530  0.2404 -1.5009
 4063TIP3   OH233679   5.700   2.540  12.179 -0.2433 -1.2503 -0.0251
 4063TIP3    H133680   5.614   2.501  12.189 -0.6424 -0.5443 -0.6012
 4063TIP3    H233681   5.726   2.521  12.089 -0.5584 -0.0160 -0.4048
 4064TIP3   OH233682   0.942   2.293   1.941 -0.0441  0.8278 -0.3004
 4064TIP3    H133683   0.962   2.350   2.015  0.4024  1.7763 -1.1252
 4064TIP3    H233684   0.900   2.216   1.980  0.5513  1.1222  0.9683
 4065TIP3   OH233685   1.760   1.691  13.811 -0.4351  0.0027 -0.4807
 4065TIP3    H133686   1.832   1.651  13.859 -1.8412 -0.6694  1.2110
 4065TIP3    H233687   1.699   1.618  13.794 -1.9684  0.9510  0.6126
 4066TIP3   OH233688   4.374   1.178  16.100 -0.3909 -0.3949 -0.4994
 4066TIP3    H133689   4.430   1.228  16.039  0.0140  0.9574  0.9194
 4066TIP3    H233690   4.422   1.096  16.114  0.1692 -0.1581 -0.9609
 4067TIP3   OH233691   1.115   4.442   6.344 -0.4413  0.7886 -0.0346
 4067TIP3    H133692   1.100   4.535   6.333 -1.4247  0.5108 -1.2294
 4067TIP3    H233693   1.175   4.419   6.274  0.7367  0.7171  0.9630
 4068TIP3   OH233694   3.982   6.093  14.408 -0.0933 -0.1636  0.2469
 4068TIP3    H133695   4.016   6.070  14.321 -0.2617  1.7825 -0.3694
 4068TIP3    H233696   3.887   6.080  14.400  0.0466 -1.8524  0.7863
 4069TIP3   OH233697   4.191   3.253  12.883 -1.1162 -0.0229  0.2428
 4069TIP3    H133698   4.119   3.243  12.821  0.2128 -1.2889 -1.1775
 4069TIP3    H233699   4.216   3.345  12.876  0.3717 -0.5323 -2.8133
 4070TIP3   OH233700   2.504   3.630   1.515  0.1658  0.0885 -0.6039
 4070TIP3    H133701   2.458   3.555   1.477  1.9863 -1.8888  0.9232
 4070TIP3    H233702   2.456   3.649   1.595  0.6589 -0.5367 -0.1510
 4071TIP3   OH233703   3.346   3.451  12.779  0.0260 -0.4666 -0.9375
 4071TIP3    H133704   3.377   3.420  12.864 -0.0038 -0.3598 -0.8874
 4071TIP3    H233705   3.341   3.373  12.725  0.9029 -0.4106 -1.1128
 4072TIP3   OH233706   2.156   5.440   3.910 -0.0313 -0.7924  0.4802
 4072TIP3    H133707   2.164   5.480   3.823  1.4818  0.7995  1.2984
 4072TIP3    H233708   2.084   5.488   3.952 -0.6972 -1.4959  0.1744
 4073TIP3   OH233709   2.120   6.765   2.441  0.4896 -0.4160  0.2655
 4073TIP3    H133710   2.058   6.824   2.483  0.2439  0.6947 -1.5564
 4073TIP3    H233711   2.123   6.794   2.349  3.9249 -0.2160  0.3055
 4074TIP3   OH233712   2.632   6.456   5.132 -0.1554  0.1655  0.4068
 4074TIP3    H133713   2.683   6.532   5.160  1.5287 -1.0824  0.8782
 4074TIP3    H233714   2.551   6.461   5.184  0.5844  0.8084  1.5421
 4075TIP3   OH233715   6.747   0.129  15.590 -0.1475 -0.0221 -0.1891
 4075TIP3    H133716   6.749   0.037  15.619 -1.2379 -0.3501 -1.1102
 4075TIP3    H233717   6.656   0.155  15.598  0.1238  0.9474 -0.1035
 4076TIP3   OH233718   3.193   2.971  12.982 -0.2797  0.4515  0.0168
 4076TIP3    H133719   3.272   2.920  13.000  1.4935  2.4919 -1.4487
 4076TIP3    H233720   3.179   3.024  13.061 -0.0301  0.2522  0.1945
 4077TIP3   OH233721   0.540   4.873   3.548  0.5560  0.0812  0.2108
 4077TIP3    H133722   0.504   4.795   3.589 -1.4309  1.6301  1.6289
 4077TIP3    H233723   0.493   4.881   3.465  0.2560  0.1180  0.3819
 4078TIP3   OH233724   2.965   5.646  13.490 -0.2488  0.9478 -0.1286
 4078TIP3    H133725   2.904   5.706  13.446 -3.2185 -0.2375  2.0268
 4078TIP3    H233726   2.978   5.684  13.577 -0.4122 -0.3616  0.4966
 4079TIP3   OH233727   4.909   4.032   1.904 -0.3046 -0.4065  0.2008
 4079TIP3    H133728   4.898   3.977   1.982  0.0903 -0.8470 -0.0531
 4079TIP3    H233729   4.898   3.972   1.831 -2.1083  0.2528 -0.1241
 4080TIP3   OH233730   1.580   4.913  14.406  0.7053 -0.3388 -0.0337
 4080TIP3    H133731   1.545   4.999  14.382 -0.9943 -0.5201  1.6274
 4080TIP3    H233732   1.633   4.929  14.484  1.2740 -0.6682 -0.3365
 4081TIP3   OH233733   1.375   2.419  14.021  0.6060 -0.1928  0.9550
 4081TIP3    H133734   1.356   2.422  13.927 -0.8313 -1.2459  1.1647
 4081TIP3    H233735   1.411   2.505  14.042  0.2158  0.3248 -0.4214
 4082TIP3   OH233736   6.743   4.267  17.195 -0.2773 -0.1636  0.4962
 4082TIP3    H133737   6.683   4.242  17.125  0.7584 -0.8632 -0.1725
 4082TIP3    H233738   6.689   4.268  17.274 -1.5805  1.1027 -0.3508
 4083TIP3   OH233739   3.414   3.706  14.659 -0.0824  0.0203  0.0731
 4083TIP3    H133740   3.401   3.661  14.742  1.0038  0.4800  0.5178
 4083TIP3    H233741   3.388   3.643  14.592 -1.6781 -0.1025  0.7681
 4084TIP3   OH233742   2.785   1.404   4.905 -0.1054 -0.1626 -0.1370
 4084TIP3    H133743   2.784   1.415   4.810 -0.8427  2.3478  0.1014
 4084TIP3    H233744   2.720   1.466   4.938  0.1868 -0.9055  2.0371
 4085TIP3   OH233745   5.231   6.078  12.079  0.3964 -0.1303  0.5342
 4085TIP3    H133746   5.278   6.112  12.003 -1.3339  2.1258  0.3876
 4085TIP3    H233747   5.293   6.087  12.152  1.6554 -1.2284 -0.3576
 4086TIP3   OH233748   3.372   1.866   5.668  0.8113 -0.2473  0.2702
 4086TIP3    H133749   3.455   1.821   5.684  0.5923 -0.4613  0.8327
 4086TIP3    H233750   3.330   1.871   5.754 -0.6725 -1.9470 -0.2954
 4087TIP3   OH233751   0.602   3.550  16.164  0.4753  0.3579  0.3981
 4087TIP3    H133752   0.557   3.567  16.247 -0.2048  1.1671 -0.1148
 4087TIP3    H233753   0.674   3.492  16.187 -0.1875 -0.0861  1.4221
 4088TIP3   OH233754   2.775   5.945  14.129  0.2302 -0.4077  0.6886
 4088TIP3    H133755   2.697   5.902  14.165 -2.0464  0.4443 -2.7408
 4088TIP3    H233756   2.755   6.038  14.132  1.0101 -0.1766 -0.4205
 4089TIP3   OH233757   3.947   2.098   2.059  0.3802 -0.0773 -0.6326
 4089TIP3    H133758   3.960   2.059   2.146 -2.2733 -1.8843 -0.9120
 4089TIP3    H233759   3.907   2.183   2.077 -0.8770 -0.7596 -0.0046
 4090TIP3   OH233760   2.785   0.267  14.133 -0.0121  0.1631 -0.5457
 4090TIP3    H133761   2.834   0.213  14.195  0.3039  0.6963 -0.3233
 4090TIP3    H233762   2.820   0.243  14.048 -0.0253 -0.1416 -0.4670
 4091TIP3   OH233763   3.706   0.034   1.085 -0.0370  0.0156  0.4827
 4091TIP3    H133764   3.657   0.062   1.008 -1.6995  0.8645  1.7714
 4091TIP3    H233765   3.706  -0.062   1.080 -0.1047  0.0613 -0.5697
 4092TIP3   OH233766   4.223   5.156  15.505 -0.1229  0.0837 -0.1321
 4092TIP3    H133767   4.158   5.096  15.468  0.6265 -0.6757 -0.2455
 4092TIP3    H233768   4.304   5.135  15.459 -0.0390  1.8741 -0.8820
 4093TIP3   OH233769   2.543   1.956  10.657  0.5085  0.4949  0.5531
 4093TIP3    H133770   2.564   1.864  10.675  2.6565  1.0465  1.1211
 4093TIP3    H233771   2.450   1.964  10.678  0.5161 -1.3184  1.4407
 4094TIP3   OH233772   1.328   4.543   0.924  0.1799 -0.2989  0.3601
 4094TIP3    H133773   1.233   4.545   0.911  0.3504  0.4224 -0.8181
 4094TIP3    H233774   1.345   4.453   0.954 -0.8517 -0.4537  0.5372
 4095TIP3   OH233775   2.588   5.331  16.884 -0.0534  0.2815 -0.3087
 4095TIP3    H133776   2.620   5.246  16.853 -0.4221  1.0647 -3.0738
 4095TIP3    H233777   2.656   5.393  16.859 -0.2629  0.9476  0.7323
 4096TIP3   OH233778   1.139   1.552   0.627 -0.2250 -0.1130 -0.0674
 4096TIP3    H133779   1.206   1.613   0.659  0.1909 -0.5199 -0.1494
 4096TIP3    H233780   1.173   1.465   0.649  0.3785 -0.4481 -2.1215
 4097TIP3   OH233781   4.692   4.423  13.516 -0.5516 -0.1584 -0.4135
 4097TIP3    H133782   4.755   4.361  13.551  0.0282  0.1983 -0.8119
 4097TIP3    H233783   4.738   4.466  13.444 -0.2820  1.9946  0.9544
 4098TIP3   OH233784   0.411   6.019  11.853  0.3332  0.1403  0.6525
 4098TIP3    H133785   0.470   5.977  11.792 -1.1671  1.4974 -1.9094
 4098TIP3    H233786   0.465   6.081  11.901  1.1736  0.7244 -0.9994
 4099TIP3   OH233787   3.788   6.784  16.408  0.0762 -0.3773  0.2335
 4099TIP3    H133788   3.845   6.832  16.468 -0.0868 -0.6062  0.5726
 4099TIP3    H233789   3.725   6.849  16.378  2.3286  0.7044 -2.5630
 4100TIP3   OH233790   6.781   6.080   0.895  0.9391 -0.2288  0.4889
 4100TIP3    H133791   6.736   5.999   0.919 -0.7432  0.8354  1.1121
 4100TIP3    H233792   6.771   6.086   0.800 -0.8456  0.2860  0.6763
 4101TIP3   OH233793   5.132   1.208  12.033  0.1481  0.8118  1.2280
 4101TIP3    H133794   5.037   1.193  12.036  0.4319 -1.5121  0.7997
 4101TIP3    H233795   5.141   1.300  12.008 -1.9826  1.1465  1.4690
 4102TIP3   OH233796   1.135   2.166  11.531 -0.0813  0.3099  0.0104
 4102TIP3    H133797   1.090   2.082  11.543 -0.7068  0.7479  0.7256
 4102TIP3    H233798   1.068   2.225  11.497  0.6813  0.1794 -1.8882
 4103TIP3   OH233799   1.767   6.462   3.137 -0.0317  0.2859 -0.2283
 4103TIP3    H133800   1.682   6.456   3.093 -1.3785  0.9908  2.0780
 4103TIP3    H233801   1.753   6.419   3.222  2.5609 -1.4749 -0.5826
 4104TIP3   OH233802   1.234   0.603   0.802  0.3022 -0.5258 -0.5445
 4104TIP3    H133803   1.213   0.539   0.734 -0.6667 -0.4753 -0.3155
 4104TIP3    H233804   1.264   0.680   0.754  1.1370 -1.0253 -0.8384
 4105TIP3   OH233805   0.672   3.719  15.807  0.6867 -0.2247 -0.5446
 4105TIP3    H133806   0.696   3.629  15.828 -0.7986 -0.7189 -0.7995
 4105TIP3    H233807   0.739   3.749  15.745  0.7264 -1.4564 -1.1299
 4106TIP3   OH233808   0.304   6.695  14.105  0.2088  0.3727  0.0821
 4106TIP3    H133809   0.219   6.738  14.104  0.1633  0.3287  0.9678
 4106TIP3    H233810   0.366   6.763  14.078  0.2517  1.2940  2.3045
 4107TIP3   OH233811   0.249   4.646   2.470 -0.1134 -0.0949 -0.2150
 4107TIP3    H133812   0.225   4.608   2.554 -1.1899 -2.0792 -1.3442
 4107TIP3    H233813   0.325   4.595   2.441  0.6622  1.0072 -0.1737
 4108TIP3   OH233814   4.806   0.821  14.172 -0.3673 -0.1400  0.4502
 4108TIP3    H133815   4.806   0.795  14.264 -2.6831  0.1589  0.6062
 4108TIP3    H233816   4.836   0.912  14.172  3.6825 -1.2649  0.3510
 4109TIP3   OH233817   2.651   5.382   3.383  0.6916  0.0069  0.2939
 4109TIP3    H133818   2.716   5.349   3.321  0.5281 -1.3573  0.8042
 4109TIP3    H233819   2.586   5.427   3.329  1.4001  0.2812 -0.3434
 4110TIP3   OH233820   2.124   6.226   2.323  0.2183 -0.1104 -0.0251
 4110TIP3    H133821   2.089   6.247   2.236  2.8910  0.1442 -1.1303
 4110TIP3    H233822   2.129   6.310   2.368  0.5084  0.0160 -0.2949
 4111TIP3   OH233823   1.529   1.375  14.886 -0.4424 -0.2594 -0.0479
 4111TIP3    H133824   1.582   1.408  14.813  0.0469  1.1168  0.8708
 4111TIP3    H233825   1.483   1.299  14.851  1.8283 -1.2720 -1.0269
 4112TIP3   OH233826   3.343   2.078   2.659 -0.5473  0.0145  0.2002
 4112TIP3    H133827   3.295   2.144   2.609 -1.7355  0.5859  2.0137
 4112TIP3    H233828   3.427   2.119   2.678  0.0688 -0.3355 -1.5194
 4113TIP3   OH233829   3.780   6.788  14.319  0.1353  0.2968  0.2560
 4113TIP3    H133830   3.719   6.788  14.245  0.0125  1.7364  0.3286
 4113TIP3    H233831   3.747   6.857  14.377  0.6438 -0.3249  1.3054
 4114TIP3   OH233832   2.265   2.681  14.077  0.0089 -0.2670  0.1196
 4114TIP3    H133833   2.316   2.645  14.149  0.1765  1.8367  1.1171
 4114TIP3    H233834   2.274   2.616  14.007  0.5271 -1.9708  1.6789
 4115TIP3   OH233835   1.905   2.278  15.617 -0.2682 -0.0252 -0.2515
 4115TIP3    H133836   1.812   2.261  15.604 -0.4414  0.0583  0.8574
 4115TIP3    H233837   1.917   2.370  15.592 -0.8207  0.4711  1.2303
 4116TIP3   OH233838   2.216   2.527  13.843 -0.0535 -0.2022 -0.5814
 4116TIP3    H133839   2.128   2.489  13.848  0.2161 -0.9232 -1.1014
 4116TIP3    H233840   2.208   2.596  13.777 -0.2060 -0.3245 -0.6910
 4117TIP3   OH233841   4.153   6.729  11.563  0.9237 -0.2284  0.1764
 4117TIP3    H133842   4.123   6.806  11.513 -0.1088 -1.7175 -1.6497
 4117TIP3    H233843   4.115   6.655  11.516  0.7334 -1.8127  2.6716
 4118TIP3   OH233844   1.016   6.445  17.166  0.2619  0.0700 -0.1043
 4118TIP3    H133845   0.932   6.404  17.145  0.5299 -0.5368 -0.0066
 4118TIP3    H233846   0.994   6.536  17.186 -0.4002 -0.1435  0.1470
 4119TIP3   OH233847   6.650   5.843  12.150  0.3224  0.4514 -0.0631
 4119TIP3    H133848   6.559   5.871  12.158 -0.6566 -2.3009 -0.3836
 4119TIP3    H233849   6.699   5.924  12.142 -2.1895  2.0309 -0.7801
 4120TIP3   OH233850   0.085   5.610  13.731 -0.0813 -0.0164  0.1228
 4120TIP3    H133851   0.125   5.611  13.644 -0.7357 -1.8548 -0.2539
 4120TIP3    H233852   0.045   5.523  13.737 -1.6005  0.7329  1.5667
 4121TIP3   OH233853   3.029   3.545  15.584 -0.4135 -0.0735 -0.3484
 4121TIP3    H133854   3.112   3.522  15.627 -1.6162 -1.4710  1.3953
 4121TIP3    H233855   3.016   3.638  15.605  0.2041 -0.1146  0.2481
 4122TIP3   OH233856   3.766   4.339   1.902  0.0251 -0.3311  0.0827
 4122TIP3    H133857   3.708   4.265   1.924 -1.9190  1.0297 -0.2509
 4122TIP3    H233858   3.713   4.417   1.916  2.3837  1.1563  1.5976
 4123TIP3   OH233859   6.496   2.174  12.674 -0.6704 -0.2851  0.7046
 4123TIP3    H133860   6.453   2.221  12.603  2.7881 -1.8206 -2.6855
 4123TIP3    H233861   6.454   2.088  12.675 -0.6395 -0.3018  0.4571
 4124TIP3   OH233862   3.333   0.109   1.521 -0.2440 -0.2736  0.3446
 4124TIP3    H133863   3.356   0.050   1.449  0.7065  0.5914 -0.0777
 4124TIP3    H233864   3.237   0.105   1.525 -0.1919 -2.4282  0.8353
 4125TIP3   OH233865   5.690   3.136  11.262  0.1722 -0.2743 -0.1562
 4125TIP3    H133866   5.728   3.107  11.345  0.2580 -2.7553 -0.9894
 4125TIP3    H233867   5.629   3.066  11.237 -2.0525  1.7317 -0.8241
 4126TIP3   OH233868   2.567   6.315  13.652 -0.4896 -0.5163 -0.1203
 4126TIP3    H133869   2.571   6.373  13.728 -1.7097  0.1731 -0.5371
 4126TIP3    H233870   2.600   6.368  13.580 -1.3451 -0.4229 -0.4537
 4127TIP3   OH233871   5.893   3.047  16.877  0.2291 -0.0588  0.4087
 4127TIP3    H133872   5.809   3.036  16.921  1.9395  0.0010  4.0019
 4127TIP3    H233873   5.900   3.141  16.863  0.3060  0.0982  1.4491
 4128TIP3   OH233874   6.528   0.055   4.596  0.0951  0.1354 -0.2308
 4128TIP3    H133875   6.544  -0.035   4.626 -1.7017  0.1088  0.8247
 4128TIP3    H233876   6.596   0.107   4.640 -0.4266 -0.3823  1.2506
 4129TIP3   OH233877   4.355   6.138   3.241 -0.3163  0.1023  0.2876
 4129TIP3    H133878   4.286   6.166   3.180 -0.4532 -0.7964  0.0104
 4129TIP3    H233879   4.374   6.047   3.216 -0.1147 -0.1665  1.3500
 4130TIP3   OH233880   5.031   4.933   2.652 -0.1202  0.5630  0.4986
 4130TIP3    H133881   4.996   4.916   2.739 -1.7945 -0.4158 -0.3077
 4130TIP3    H233882   4.958   4.914   2.593  0.5863  2.3943 -1.0572
 4131TIP3   OH233883   0.142   3.882   4.758 -0.0042  0.5085  0.9924
 4131TIP3    H133884   0.140   3.965   4.711 -0.8427  1.0721  1.9823
 4131TIP3    H233885   0.070   3.831   4.720  0.2388  0.3935  0.6811
 4132TIP3   OH233886   2.293   0.992  13.684 -0.2650  0.2264 -0.2929
 4132TIP3    H133887   2.267   1.008  13.593 -0.0773  0.8044 -0.2459
 4132TIP3    H233888   2.324   1.077  13.716  1.4306 -0.3602 -0.2641
 4133TIP3   OH233889   1.340   4.225  13.041 -0.2307  0.0196  0.7810
 4133TIP3    H133890   1.413   4.162  13.039 -0.6808 -0.5032  0.5339
 4133TIP3    H233891   1.352   4.273  13.123  0.9179  0.5743  0.3103
 4134TIP3   OH233892   4.976   5.729   1.179  0.1058 -0.4888  0.1796
 4134TIP3    H133893   4.940   5.641   1.169 -1.7404  0.3039 -0.7375
 4134TIP3    H233894   4.978   5.764   1.090  2.3991 -0.1333  0.3005
 4135TIP3   OH233895   4.161   1.595   4.288 -0.3944 -0.3894  0.2747
 4135TIP3    H133896   4.214   1.648   4.230 -0.1271  1.1791  1.8814
 4135TIP3    H233897   4.219   1.525   4.318 -0.3259 -0.7752 -0.7213
 4136TIP3   OH233898   4.107   6.173   4.953  0.5436 -0.1483 -0.4766
 4136TIP3    H133899   4.012   6.162   4.952  0.3280  1.5049 -1.6957
 4136TIP3    H233900   4.130   6.186   4.861  1.6367  1.7197  0.0202
 4137TIP3   OH233901   1.644   0.055  14.496 -0.2386  0.0581  0.5676
 4137TIP3    H133902   1.709  -0.008  14.465 -0.7788 -0.4759  0.4914
 4137TIP3    H233903   1.621   0.024  14.583 -0.3390  0.2863  0.6219
 4138TIP3   OH233904   4.003   2.225   0.810  0.1112  0.0900 -0.6647
 4138TIP3    H133905   3.943   2.299   0.822  0.9212  0.8000 -0.9330
 4138TIP3    H233906   4.081   2.263   0.770 -0.0167 -1.1461 -2.1668
 4139TIP3   OH233907   6.791   1.657  11.449 -0.0917 -0.6181 -0.2635
 4139TIP3    H133908   6.702   1.626  11.462 -1.0061  2.0092  0.4528
 4139TIP3    H233909   6.783   1.727  11.384  0.8552  1.7501  1.9759
 4140TIP3   OH233910   3.364   4.045  14.501 -0.5984  0.1910  0.1913
 4140TIP3    H133911   3.292   3.983  14.498  0.0784 -0.6553  0.9193
 4140TIP3    H233912   3.440   3.993  14.528 -0.0672  1.3662  1.0467
 4141TIP3   OH233913   1.539   5.013  16.418  0.0347  0.2448  0.4459
 4141TIP3    H133914   1.489   4.933  16.436  1.0391 -1.2337 -2.7105
 4141TIP3    H233915   1.475   5.073  16.382 -0.3248  0.1094  0.8431
 4142TIP3   OH233916   3.960   4.943   5.275  0.9010  0.4150 -0.0897
 4142TIP3    H133917   4.023   5.014   5.262  0.7195  0.4194 -0.9967
 4142TIP3    H233918   3.915   4.936   5.191 -0.2758  0.3756  0.5290
 4143TIP3   OH233919   4.211   2.228   2.246  0.1604  0.2199 -0.3207
 4143TIP3    H133920   4.136   2.285   2.264  0.8340  0.5916  1.4654
 4143TIP3    H233921   4.183   2.142   2.276 -0.6845 -0.3905 -2.6004
 4144TIP3   OH233922   5.521   0.069  11.853  0.3883 -0.3602 -0.3140
 4144TIP3    H133923   5.458   0.080  11.782 -1.1248 -1.0844  0.8401
 4144TIP3    H233924   5.601   0.109  11.821 -0.5612  0.3092 -1.9839
 4145TIP3   OH233925   3.582   5.071   4.725 -0.3261  0.3388 -0.0936
 4145TIP3    H133926   3.620   4.985   4.742 -0.0673  0.3987 -0.3540
 4145TIP3    H233927   3.631   5.104   4.649  0.7095  1.3957  0.9820
 4146TIP3   OH233928   3.037   0.012  17.205 -0.0983 -0.3091  0.1764
 4146TIP3    H133929   2.995   0.018  17.119  0.3281 -1.2351 -0.1053
 4146TIP3    H233930   3.013   0.094  17.249 -1.7924 -0.5948 -0.1462
 4147TIP3   OH233931   0.916   1.681  12.620 -0.0349 -0.4669  0.8707
 4147TIP3    H133932   0.945   1.768  12.647 -1.1349  0.1766  0.0608
 4147TIP3    H233933   0.826   1.676  12.653 -0.4933 -0.6906 -0.3883
 4148TIP3   OH233934   2.851   3.816   5.559 -0.3231 -0.7398  0.2505
 4148TIP3    H133935   2.829   3.736   5.606 -0.5225 -1.9057 -1.7138
 4148TIP3    H233936   2.809   3.806   5.473 -0.5760  1.6016  0.0311
 4149TIP3   OH233937   2.294   0.924   5.334  0.2719  0.2461 -0.2881
 4149TIP3    H133938   2.373   0.896   5.288 -0.6836  0.6947 -2.3558
 4149TIP3    H233939   2.259   0.844   5.373 -0.7785 -1.0710 -3.5165
 4150TIP3   OH233940   5.446   6.086   2.777 -0.4742  0.2622 -0.4855
 4150TIP3    H133941   5.411   6.173   2.761  0.8755  0.8543 -0.3042
 4150TIP3    H233942   5.513   6.098   2.845 -1.1594 -1.1176  0.4915
 4151TIP3   OH233943   6.796   4.590  11.555 -0.0500 -0.6136  0.2696
 4151TIP3    H133944   6.705   4.562  11.565  0.0869 -0.3485  2.9453
 4151TIP3    H233945   6.791   4.674  11.509 -0.9726 -1.4709 -1.2758
 4152TIP3   OH233946   6.121   4.460  15.697 -0.0153 -0.5821 -0.2089
 4152TIP3    H133947   6.056   4.389  15.693 -3.4828  2.1492  1.7631
 4152TIP3    H233948   6.143   4.468  15.789  0.1252  0.9966 -0.3491
 4153TIP3   OH233949   5.812   5.032  15.793 -0.0792  0.3365  0.3038
 4153TIP3    H133950   5.792   5.014  15.884 -0.4027  0.3386  0.2333
 4153TIP3    H233951   5.907   5.043  15.791  0.2624 -2.0555  0.2441
 4154TIP3   OH233952   5.567   5.133   5.357 -0.2930 -0.4950 -0.3392
 4154TIP3    H133953   5.571   5.196   5.428 -1.4326 -0.8294  0.0439
 4154TIP3    H233954   5.473   5.123   5.339 -0.2896 -3.1781  0.6464
 4155TIP3   OH233955   5.997   4.975  14.037 -0.2389 -0.3844  0.9996
 4155TIP3    H133956   6.031   4.947  14.122 -0.1669 -0.0070  1.0990
 4155TIP3    H233957   6.071   5.017  13.994 -0.7210  1.0436  1.4878
 4156TIP3   OH233958   2.159   5.232  14.387 -0.1338 -0.0825 -0.0378
 4156TIP3    H133959   2.144   5.327  14.390  0.3508  0.0141 -0.5136
 4156TIP3    H233960   2.153   5.204  14.478  1.1802  0.6426  0.2979
 4157TIP3   OH233961   1.778   3.157   5.683  0.0718  0.1374  0.3808
 4157TIP3    H133962   1.827   3.216   5.627  0.5701 -0.7778 -0.1833
 4157TIP3    H233963   1.841   3.088   5.707 -0.2870  0.2046  1.6066
 4158TIP3   OH233964   3.820   2.897   1.026 -0.2938  0.2715 -0.3798
 4158TIP3    H133965   3.800   2.988   1.002  0.8936  1.3654  2.4152
 4158TIP3    H233966   3.735   2.856   1.040 -0.8683  0.6774 -2.3831
 4159TIP3   OH233967   3.377   1.999   4.090  0.2308  0.2749  0.0821
 4159TIP3    H133968   3.371   2.069   4.025  2.2264  1.6582  1.2839
 4159TIP3    H233969   3.466   1.964   4.080  0.0433 -0.5409  1.0380
 4160TIP3   OH233970   2.923   0.783   6.028 -0.4706 -0.0772 -0.2518
 4160TIP3    H133971   2.925   0.742   6.115 -0.2441  1.3342  0.4292
 4160TIP3    H233972   2.833   0.769   5.997 -0.9021  0.4411  0.7338
 4161TIP3   OH233973   6.210   5.985  13.012  0.0797  0.6855  0.2593
 4161TIP3    H133974   6.152   6.012  12.941 -2.5030 -0.8070  1.6115
 4161TIP3    H233975   6.217   6.063  13.068 -0.9393  0.8131  0.2306
 4162TIP3   OH233976   6.249   0.596  11.401  0.1662 -0.9034  0.1640
 4162TIP3    H133977   6.337   0.616  11.369 -0.8427 -0.2884 -2.5118
 4162TIP3    H233978   6.206   0.682  11.407 -1.0260 -1.3677 -1.2004
 4163TIP3   OH233979   2.087   2.920  12.090  0.3122 -0.1099  0.1136
 4163TIP3    H133980   2.105   2.932  11.997  0.3676  1.7007  0.3250
 4163TIP3    H233981   2.139   2.843  12.115  1.4475  0.2589 -1.0244
 4164TIP3   OH233982   2.229   4.715  12.919  0.3109 -0.0884 -0.2555
 4164TIP3    H133983   2.304   4.672  12.959 -0.2581 -0.3440  0.5737
 4164TIP3    H233984   2.186   4.760  12.992 -1.5941 -1.7891 -0.2591
 4165TIP3   OH233985   5.304   5.775   1.017 -0.6355  0.2063  0.4074
 4165TIP3    H133986   5.320   5.680   1.019 -1.9745 -0.0325  2.1189
 4165TIP3    H233987   5.310   5.802   1.109 -1.2771  1.6156  0.0562
 4166TIP3   OH233988   5.288   5.819   4.991 -0.3019 -0.5554  0.3599
 4166TIP3    H133989   5.231   5.749   4.958 -0.0945 -0.5047 -0.1068
 4166TIP3    H233990   5.312   5.870   4.914  0.8052 -0.8922  0.4563
 4167TIP3   OH233991   5.230   0.107  14.130  0.5773  0.2296 -0.3929
 4167TIP3    H133992   5.155   0.154  14.167  0.0080 -0.0071 -1.2116
 4167TIP3    H233993   5.263   0.053  14.202  0.0487  0.4517  0.0191
 4168TIP3   OH233994   0.209   0.143  11.764  0.2512  0.1914 -0.2642
 4168TIP3    H133995   0.201   0.195  11.844  1.5538 -0.1928  0.1408
 4168TIP3    H233996   0.288   0.176  11.722  0.8248 -1.1189 -0.2504
 4169TIP3   OH233997   4.063   6.474   5.687 -0.7020 -0.1214  0.0890
 4169TIP3    H133998   4.119   6.550   5.705  0.1512 -0.6302 -0.3375
 4169TIP3    H233999   3.995   6.508   5.629 -1.7612  0.8547  1.8268
 4170TIP3   OH234000   5.632   5.599   1.314 -0.1803 -0.0459 -0.5912
 4170TIP3    H134001   5.671   5.526   1.265  0.5560  0.1201 -0.2666
 4170TIP3    H234002   5.643   5.575   1.406 -0.2660  0.3032 -0.4876
 4171TIP3   OH234003   2.010   3.675   3.896 -0.2668 -0.2858 -0.2232
 4171TIP3    H134004   1.957   3.751   3.922 -1.0117 -0.6313 -0.6911
 4171TIP3    H234005   1.949   3.601   3.899  0.1701 -0.6814 -0.8360
 4172TIP3   OH234006   5.111   1.781   5.529 -0.4532  0.0769  0.6779
 4172TIP3    H134007   5.183   1.742   5.578 -1.2008 -0.9477  1.0193
 4172TIP3    H234008   5.131   1.763   5.437  0.9202  1.9418  0.5569
 4173TIP3   OH234009   2.955   0.515   5.019 -0.0445 -1.1164 -0.4418
 4173TIP3    H134010   3.004   0.475   4.948 -0.0393 -2.3756  0.2444
 4173TIP3    H234011   3.021   0.563   5.070  0.0980 -0.9817 -0.7536
 4174TIP3   OH234012   6.564   2.315   5.785 -0.0657  0.0881  0.0044
 4174TIP3    H134013   6.557   2.258   5.862  0.4794 -1.3265 -0.9364
 4174TIP3    H234014   6.606   2.260   5.719  1.2749  1.8832 -0.7132
 4175TIP3   OH234015   2.625   5.009  11.888  0.5031  0.5781 -0.1631
 4175TIP3    H134016   2.635   5.066  11.812 -0.7632 -0.5085 -1.1794
 4175TIP3    H234017   2.608   4.922  11.852 -3.1938  0.5367  1.2615
 4176TIP3   OH234018   1.198   3.270   3.332 -0.0539 -0.1565  0.1879
 4176TIP3    H134019   1.152   3.354   3.335  0.4470  0.1179  0.2506
 4176TIP3    H234020   1.287   3.292   3.303  0.7680 -0.3496  2.3492
 4177TIP3   OH234021   2.852   6.145  15.591 -0.1569  0.4178  0.1965
 4177TIP3    H134022   2.767   6.108  15.570  0.6601 -1.2442 -0.3552
 4177TIP3    H234023   2.838   6.195  15.671 -1.3564 -1.0497  0.9522
 4178TIP3   OH234024   4.956   0.428   2.157  0.0357 -0.2266 -0.2821
 4178TIP3    H134025   4.939   0.514   2.195 -0.6920 -0.1066 -0.8459
 4178TIP3    H234026   5.046   0.407   2.183 -0.0389  0.3724  0.4762
 4179TIP3   OH234027   5.247   0.497   5.277  0.0948  0.3226 -0.0880
 4179TIP3    H134028   5.245   0.571   5.337  1.1870 -0.2262  0.6599
 4179TIP3    H234029   5.287   0.532   5.197  0.0845  0.6720  0.0584
 4180TIP3   OH234030   5.818   3.103   3.202  0.4356  0.1901 -0.0304
 4180TIP3    H134031   5.786   3.053   3.278  0.8415  2.1772  1.5494
 4180TIP3    H234032   5.910   3.078   3.195  0.2565 -0.4242 -0.2343
 4181TIP3   OH234033   2.814   5.828   2.157  0.8884 -0.2711  0.0583
 4181TIP3    H134034   2.754   5.759   2.129  0.6929  0.1860 -0.6756
 4181TIP3    H234035   2.811   5.824   2.253  1.7393 -1.9999  0.0468
 4182TIP3   OH234036   1.447   3.156   1.082  0.6423 -0.3834  0.3168
 4182TIP3    H134037   1.390   3.170   1.007 -0.1389  1.2046  1.1506
 4182TIP3    H234038   1.534   3.143   1.044 -0.0886 -1.8895 -0.9302
 4183TIP3   OH234039   3.175   1.298   4.363 -0.2442  0.4792  0.0936
 4183TIP3    H134040   3.127   1.351   4.300 -1.9233  1.2028  1.8853
 4183TIP3    H234041   3.164   1.344   4.446  1.8808 -0.4371  0.9583
 4184TIP3   OH234042   4.810   3.789   1.204 -0.0119  0.0834  0.5729
 4184TIP3    H134043   4.719   3.759   1.206  0.0143 -0.2993 -1.7941
 4184TIP3    H234044   4.822   3.834   1.288 -1.7822 -1.5348  1.7863
 4185TIP3   OH234045   1.024   4.774   1.139 -0.5570 -0.4306 -0.2557
 4185TIP3    H134046   0.959   4.719   1.183  0.8813 -1.8836  0.1563
 4185TIP3    H234047   1.069   4.715   1.079 -3.2625  1.7164 -4.8879
 4186TIP3   OH234048   5.469   5.283  13.094 -0.4239 -0.1041  0.4579
 4186TIP3    H134049   5.493   5.360  13.145 -0.9276 -0.1052  0.7022
 4186TIP3    H234050   5.373   5.282  13.095 -0.4366 -0.2972 -0.2008
 4187TIP3   OH234051   1.246   2.191  13.508  1.0993  0.1026  0.4312
 4187TIP3    H134052   1.338   2.203  13.485  1.1257 -0.7704  0.0467
 4187TIP3    H234053   1.203   2.170  13.425  0.8740 -1.2560  0.8661
 4188TIP3   OH234054   0.563   0.270   5.215 -0.0905  0.1833  0.2230
 4188TIP3    H134055   0.607   0.309   5.290  0.7910 -0.6865  0.1675
 4188TIP3    H234056   0.560   0.340   5.149  2.6957 -0.1809 -0.3916
 4189TIP3   OH234057   2.034   2.219   1.667  0.2497  0.2355 -0.4108
 4189TIP3    H134058   1.973   2.146   1.654  1.1885 -0.5865 -0.3532
 4189TIP3    H234059   2.091   2.216   1.590 -1.6229  2.9237 -2.0558
 4190TIP3   OH234060   2.161   0.815  11.424 -0.7293  0.1527 -0.0352
 4190TIP3    H134061   2.069   0.837  11.439 -1.0526 -0.7005 -0.6949
 4190TIP3    H234062   2.159   0.727  11.387  0.4045 -0.2142  0.7136
 4191TIP3   OH234063   5.311   5.361   2.252 -1.0690  0.2701  0.1851
 4191TIP3    H134064   5.232   5.308   2.238 -0.6177  0.0284 -1.7834
 4191TIP3    H234065   5.288   5.448   2.220 -0.6129  0.2467 -0.2177
 4192TIP3   OH234066   0.887   2.549  15.430  0.9054 -0.6919  0.1823
 4192TIP3    H134067   0.979   2.563  15.407  0.9941 -1.1827  0.2147
 4192TIP3    H234068   0.839   2.562  15.348  1.0453 -0.8043  0.0808
 4193TIP3   OH234069   3.318   3.022  15.444  0.1981 -0.2185 -0.4008
 4193TIP3    H134070   3.391   2.962  15.460  1.1068  1.1200  0.7019
 4193TIP3    H234071   3.256   3.004  15.514  1.4036  1.4573  1.1860
 4194TIP3   OH234072   3.961   5.546   3.651 -0.4456  0.1843 -0.7256
 4194TIP3    H134073   3.975   5.520   3.560  1.3498  1.0872 -0.7688
 4194TIP3    H234074   3.989   5.470   3.703 -2.6995 -0.8334 -0.8736
 4195TIP3   OH234075   0.765   4.682   4.129  0.2500 -0.4353 -0.3530
 4195TIP3    H134076   0.836   4.733   4.167  0.7251 -1.6529  0.4864
 4195TIP3    H234077   0.711   4.745   4.083 -0.5448  1.2133  2.6245
 4196TIP3   OH234078   2.963   5.181  14.729 -0.0595 -0.0950 -0.2591
 4196TIP3    H134079   3.035   5.118  14.725 -1.0202 -1.1825 -0.9777
 4196TIP3    H234080   2.949   5.194  14.823 -2.2098 -3.8613  0.1574
 4197TIP3   OH234081   5.325   3.992   1.209 -0.1886  0.6258  0.1654
 4197TIP3    H134082   5.343   3.910   1.164 -0.4579  0.9779 -0.6011
 4197TIP3    H234083   5.300   3.965   1.298 -0.7175 -0.1602 -0.2021
 4198TIP3   OH234084   3.737   3.595   2.842 -0.6135  0.0053 -0.2626
 4198TIP3    H134085   3.744   3.609   2.747  2.6452 -2.8369 -0.6235
 4198TIP3    H234086   3.814   3.639   2.878 -0.8673 -0.4551  0.8622
 4199TIP3   OH234087   5.245   5.167  14.445  0.4561 -0.2727  0.0978
 4199TIP3    H134088   5.303   5.195  14.374  3.2926 -0.5403  2.1216
 4199TIP3    H234089   5.232   5.246  14.498  1.6058 -0.8927  1.3416
 4200TIP3   OH234090   5.806   2.667  11.681 -0.3028  0.1430  0.7520
 4200TIP3    H134091   5.770   2.672  11.592  0.6148 -1.3846  0.2632
 4200TIP3    H234092   5.760   2.593  11.721  0.6339 -0.3786  0.8881
 4201TIP3   OH234093   4.338   0.693   5.833  0.0067  0.1023  0.3110
 4201TIP3    H134094   4.336   0.598   5.833 -2.3241  0.0702 -1.4571
 4201TIP3    H234095   4.321   0.718   5.923 -0.0668 -1.1472  0.6549
 4202TIP3   OH234096   4.360   2.448  15.273 -0.8540 -0.5305 -0.4035
 4202TIP3    H134097   4.394   2.415  15.356 -0.0657  0.9269 -0.1112
 4202TIP3    H234098   4.357   2.372  15.216  0.8135 -1.1331  0.2596
 4203TIP3   OH234099   0.568   6.232   5.830 -0.0546  0.3496  0.3804
 4203TIP3    H134100   0.516   6.307   5.801  0.1509  0.0832 -0.7532
 4203TIP3    H234101   0.641   6.228   5.768 -0.2368 -0.9616  0.2138
 4204TIP3   OH234102   2.422   6.791   4.560  0.0836  0.0139 -0.3511
 4204TIP3    H134103   2.497   6.777   4.502  0.8438  1.1293  0.3170
 4204TIP3    H234104   2.426   6.884   4.582  0.0645 -0.4415  1.7974
 4205TIP3   OH234105   5.091   0.019   2.924  0.0255  0.1185  0.1230
 4205TIP3    H134106   5.160   0.080   2.896  0.4703  0.0147  0.9336
 4205TIP3    H234107   5.061   0.054   3.008 -1.2563  0.4173 -0.4377
 4206TIP3   OH234108   2.155   1.858  13.615  0.1839  0.2590  0.2903
 4206TIP3    H134109   2.239   1.845  13.571 -0.1840 -1.7219  0.0776
 4206TIP3    H234110   2.176   1.849  13.708  0.2565 -0.0740  0.2455
 4207TIP3   OH234111   3.264   5.764  13.185 -0.2808  0.5966 -0.4848
 4207TIP3    H134112   3.188   5.820  13.195  1.4586  3.7025 -2.7012
 4207TIP3    H234113   3.328   5.799  13.247  0.4602  0.3384 -1.0903
 4208TIP3   OH234114   4.463   4.335   4.454 -0.1513  0.1208  0.0545
 4208TIP3    H134115   4.466   4.336   4.550  0.8559  1.1581  0.0314
 4208TIP3    H234116   4.446   4.426   4.430  0.2501 -0.0122 -0.7626
 4209TIP3   OH234117   3.029   2.409   5.776  0.2722  0.0377 -0.4824
 4209TIP3    H134118   2.966   2.382   5.842  0.3429  1.3643  0.1540
 4209TIP3    H234119   3.072   2.327   5.748 -2.1605 -1.0090 -1.4254
 4210TIP3   OH234120   2.205   4.645   2.645  0.1717  0.4414  0.0123
 4210TIP3    H134121   2.229   4.736   2.665  1.3209 -0.2097  1.9464
 4210TIP3    H234122   2.287   4.597   2.657 -0.4041 -0.8414 -1.0943
 4211TIP3   OH234123   3.960   6.061  10.997 -0.1377 -0.2862  0.6201
 4211TIP3    H134124   3.979   5.991  10.934  1.2571  0.0461  0.6489
 4211TIP3    H234125   3.935   6.015  11.077  3.7410 -0.9376  1.6329
 4212TIP3   OH234126   5.222   3.902  13.657 -0.9176 -0.2375  0.0001
 4212TIP3    H134127   5.201   3.913  13.749 -1.2089 -0.3745 -0.0449
 4212TIP3    H234128   5.270   3.981  13.632 -0.1064 -0.5732  0.4708
 4213TIP3   OH234129   0.944   3.862   6.578 -0.4706  0.0360  0.8072
 4213TIP3    H134130   0.855   3.891   6.556  0.0738  0.4115 -1.0463
 4213TIP3    H234131   0.951   3.876   6.673 -1.3717  2.8330  0.5560
 4214TIP3   OH234132   0.104   3.820   6.202 -0.3383 -0.4298 -0.0822
 4214TIP3    H134133   0.019   3.857   6.226 -0.6364  0.1647 -1.9553
 4214TIP3    H234134   0.083   3.737   6.159  0.0678 -0.5235 -0.1050
 4215TIP3   OH234135   2.232   1.651  14.679  0.3247 -0.0684  0.1289
 4215TIP3    H134136   2.201   1.709  14.610 -0.4697 -0.8706 -0.1999
 4215TIP3    H234137   2.272   1.710  14.743 -1.1199  0.9085  0.1605
 4216TIP3   OH234138   4.233   4.657  12.055 -0.0957 -0.3511 -0.0477
 4216TIP3    H134139   4.289   4.692  11.986 -0.4943 -1.1208 -0.7793
 4216TIP3    H234140   4.168   4.604  12.009 -0.8416 -0.2554  0.8583
 4217TIP3   OH234141   5.809   4.631   5.087 -0.1976  0.4828 -0.4387
 4217TIP3    H134142   5.767   4.546   5.075  0.6973  0.0821 -0.8717
 4217TIP3    H234143   5.739   4.695   5.076 -0.9254 -0.2050  0.1071
 4218TIP3   OH234144   3.212   1.972   1.671  0.2937  0.3404 -0.1321
 4218TIP3    H134145   3.288   2.022   1.641 -0.1736  0.6806 -0.7694
 4218TIP3    H234146   3.151   1.974   1.597  0.6608 -2.0307 -0.5882
 4219TIP3   OH234147   1.535   2.581  15.579 -0.1257 -0.0134  0.5268
 4219TIP3    H134148   1.542   2.662  15.630  1.5046 -0.1720  0.5821
 4219TIP3    H234149   1.507   2.515  15.642 -0.5192  0.3004  0.6841
 4220TIP3   OH234150   4.912   4.209  15.440 -0.2866 -0.2760  0.2708
 4220TIP3    H134151   4.851   4.283  15.440  1.3269  1.1136 -0.4855
 4220TIP3    H234152   4.935   4.196  15.532 -0.9285 -0.1452  0.4528
 4221TIP3   OH234153   6.096   0.360  14.949  0.1902 -0.5663 -0.1875
 4221TIP3    H134154   6.056   0.293  14.894  0.5436 -0.9928  0.0597
 4221TIP3    H234155   6.169   0.393  14.897  0.8383 -1.3290  0.2060
 4222TIP3   OH234156   3.572   5.057   2.315  0.3340  0.0129 -0.1012
 4222TIP3    H134157   3.616   5.067   2.399  2.4677  0.6329 -1.2372
 4222TIP3    H234158   3.637   5.083   2.250 -0.8135 -1.6577 -2.0484
 4223TIP3   OH234159   0.432   4.965  15.533 -0.2902  0.4766  0.0193
 4223TIP3    H134160   0.350   4.936  15.494 -0.9320  0.6978  1.1449
 4223TIP3    H234161   0.415   5.054  15.562  1.0783  1.3674 -1.7481
 4224TIP3   OH234162   6.687   1.342  11.520 -0.0747 -0.0657  0.4926
 4224TIP3    H134163   6.763   1.346  11.461  1.4326  1.9904  2.3720
 4224TIP3    H234164   6.654   1.253  11.511 -0.2615  0.2116 -3.7245
 4225TIP3   OH234165   3.724   5.837   6.707  0.2462 -0.1763 -0.5702
 4225TIP3    H134166   3.762   5.888   6.778  0.6228 -1.2128 -0.0105
 4225TIP3    H234167   3.629   5.849   6.717  0.3522  1.4412 -1.2436
 4226TIP3   OH234168   5.586   5.104   2.184  0.4059 -0.5209  0.3224
 4226TIP3    H134169   5.551   5.125   2.271  0.1531 -0.4313  0.1997
 4226TIP3    H234170   5.609   5.189   2.146 -1.8931 -0.2974 -0.7187
 4227TIP3   OH234171   6.349   0.358  16.819 -0.8732 -0.9365 -0.8494
 4227TIP3    H134172   6.358   0.332  16.911 -1.2106  0.1788 -0.4818
 4227TIP3    H234173   6.434   0.398  16.798 -1.3289  0.2626 -0.5119
 4228TIP3   OH234174   0.308   4.172  14.043  0.2126  0.2975 -0.5280
 4228TIP3    H134175   0.337   4.142  13.957 -2.4591 -0.2681 -1.3071
 4228TIP3    H234176   0.354   4.255  14.056  1.0865  0.1250 -2.2445
 4229TIP3   OH234177   0.633   5.024  17.256  0.0460  0.1800 -0.2088
 4229TIP3    H134178   0.564   5.042  17.320 -2.7869  0.0704 -3.0064
 4229TIP3    H234179   0.700   4.976  17.306 -1.9070  0.1815  2.6514
 4230TIP3   OH234180   2.138   1.901   3.322 -0.3749  0.3848  0.1279
 4230TIP3    H134181   2.086   1.960   3.267  0.9453  0.8638 -0.6619
 4230TIP3    H234182   2.216   1.883   3.270  1.6433  2.0303  2.3923
 4231TIP3   OH234183   3.411   2.124  11.583  0.0300 -0.0969  0.2397
 4231TIP3    H134184   3.405   2.041  11.535  0.5934 -0.2933  0.4973
 4231TIP3    H234185   3.347   2.181  11.540  1.1105  0.0055 -1.3063
 4232TIP3   OH234186   0.260   3.860   3.123 -0.1512 -0.5310  0.1876
 4232TIP3    H134187   0.178   3.832   3.083 -0.5648 -0.7936  1.1870
 4232TIP3    H234188   0.240   3.868   3.217  1.4743 -2.6640  0.7849
 4233TIP3   OH234189   2.713   0.228   1.577 -0.3843  0.1768  0.4779
 4233TIP3    H134190   2.666   0.150   1.608  1.9576 -1.8666 -0.6833
 4233TIP3    H234191   2.658   0.262   1.507 -0.3648 -1.9696 -0.6800
 4234TIP3   OH234192   1.989   2.251  14.587  0.3226  1.0841 -0.4675
 4234TIP3    H134193   1.951   2.203  14.514 -1.0722  1.6385 -0.1470
 4234TIP3    H234194   2.078   2.270  14.560 -0.2313  1.4830 -2.1362
 4235TIP3   OH234195   1.919   0.138   5.249  0.0907  0.1602 -0.3119
 4235TIP3    H134196   1.956   0.072   5.308 -0.3925 -0.6323 -0.8774
 4235TIP3    H234197   1.872   0.198   5.306 -2.4151 -1.9029  0.0087
 4236TIP3   OH234198   4.972   6.390  12.916 -0.7259 -0.1411 -0.0444
 4236TIP3    H134199   4.911   6.320  12.940 -1.8844  0.8128 -0.0946
 4236TIP3    H234200   5.058   6.348  12.918 -1.3058 -1.3799  0.6481
 4237TIP3   OH234201   4.133   2.851  15.596 -0.2782 -0.0291  0.0218
 4237TIP3    H134202   4.218   2.878  15.562 -0.2780 -0.2712 -0.1739
 4237TIP3    H234203   4.076   2.926  15.582 -0.3468 -0.2211 -0.7635
 4238TIP3   OH234204   1.275   0.656   4.521  0.6306 -0.1835 -0.6135
 4238TIP3    H134205   1.258   0.611   4.604  0.1994  2.1677  0.6609
 4238TIP3    H234206   1.354   0.614   4.487  0.3962 -1.7132  0.5793
 4239TIP3   OH234207   2.668   6.430  12.436  0.7059 -0.0377  0.0266
 4239TIP3    H134208   2.639   6.521  12.445 -0.4345 -0.2798 -0.9440
 4239TIP3    H234209   2.752   6.427  12.482  1.0292  1.6332 -0.3984
 4240TIP3   OH234210   0.011   2.838  13.541 -0.5659 -0.2901 -0.0945
 4240TIP3    H134211   0.037   2.746  13.532 -1.6343 -0.7406  1.1009
 4240TIP3    H234212   0.090   2.882  13.572  0.1241 -0.6829 -1.2415
 4241TIP3   OH234213   1.278   0.789   0.608 -0.3921 -0.1604 -0.5832
 4241TIP3    H134214   1.361   0.783   0.560 -0.1772 -0.3097 -0.1939
 4241TIP3    H234215   1.217   0.826   0.545  0.1672  0.7119 -0.6355
 4242TIP3   OH234216   2.726   5.307  12.025  0.4517  0.4333 -0.3865
 4242TIP3    H134217   2.776   5.237  12.068  0.6834  0.0758 -1.2092
 4242TIP3    H234218   2.635   5.277  12.029  0.6043 -0.1868 -1.1914
 4243TIP3   OH234219   5.377   1.476   6.676 -0.7214 -0.8166  0.2294
 4243TIP3    H134220   5.368   1.560   6.631  0.0764  0.0031  1.5577
 4243TIP3    H234221   5.471   1.462   6.685 -0.8271 -2.0097 -0.2090
 4244TIP3   OH234222   0.836   1.428  11.608 -0.6914  0.4849  0.6115
 4244TIP3    H134223   0.908   1.388  11.656 -2.0641 -1.0999  1.4807
 4244TIP3    H234224   0.875   1.501  11.561  1.5264 -0.5403  0.7483
 4245TIP3   OH234225   3.350   1.700   4.908 -0.1525 -0.0317 -0.0702
 4245TIP3    H134226   3.386   1.664   4.989 -0.6363 -0.2404  0.0537
 4245TIP3    H234227   3.374   1.793   4.910  1.1026 -0.3268 -0.3914
 4246TIP3   OH234228   0.144   2.019   5.407  0.0366  0.0910  0.1016
 4246TIP3    H134229   0.095   1.961   5.347 -1.4533 -1.3695  2.5687
 4246TIP3    H234230   0.133   1.979   5.493  3.0851  1.4624  1.2637
 4247TIP3   OH234231   0.040   2.925  14.113 -0.5143 -0.3630 -0.9471
 4247TIP3    H134232   0.072   2.888  14.195  1.2557 -1.0076 -1.8780
 4247TIP3    H234233  -0.054   2.937  14.127 -0.3806 -1.1616  0.8916
 4248TIP3   OH234234   3.691   1.009   4.127  0.1122  0.3814  0.1117
 4248TIP3    H134235   3.730   1.093   4.152 -2.2953  1.6892 -0.1951
 4248TIP3    H234236   3.702   1.005   4.032 -1.0030  1.0821 -0.0683
 4249TIP3   OH234237   6.742   3.904   4.375 -0.6849  0.0060 -0.9141
 4249TIP3    H134238   6.832   3.874   4.382 -0.9816 -0.8318 -0.5538
 4249TIP3    H234239   6.747   3.999   4.388 -0.0619 -0.2426  1.1078
 4250TIP3   OH234240   5.270   5.015   3.494  0.1589  0.0205 -0.8194
 4250TIP3    H134241   5.316   4.986   3.415  1.7646  0.6403 -0.1573
 4250TIP3    H234242   5.340   5.028   3.558 -1.1147 -0.5336  0.7320
 4251TIP3   OH234243   2.784   4.063   5.950  0.2226 -0.0640  0.3221
 4251TIP3    H134244   2.733   3.988   5.920  0.3794 -0.6098  1.3478
 4251TIP3    H234245   2.719   4.126   5.980  0.0997  0.0700 -0.2159
 4252TIP3   OH234246   2.636   4.156  14.348  0.3783  0.3791  0.3197
 4252TIP3    H134247   2.606   4.112  14.427  1.0665  1.2596  1.1072
 4252TIP3    H234248   2.705   4.100  14.313  0.2088  0.0887  0.4530
 4253TIP3   OH234249   0.841   3.365  16.664 -0.3052 -0.1724 -0.2525
 4253TIP3    H134250   0.867   3.280  16.699  0.0948 -0.1662 -0.5253
 4253TIP3    H234251   0.860   3.428  16.734  0.0668 -0.2173 -0.3120
 4254TIP3   OH234252   6.086   1.201  10.711 -0.0256  0.5844 -0.1200
 4254TIP3    H134253   6.129   1.200  10.625 -0.9513 -1.4675 -0.6367
 4254TIP3    H234254   6.131   1.133  10.761  1.1579  2.4142  1.4417
 4255TIP3   OH234255   2.782   6.484   3.425  0.0687 -0.0731  0.0339
 4255TIP3    H134256   2.827   6.399   3.422 -0.9410 -0.6288  0.1244
 4255TIP3    H234257   2.848   6.545   3.458  1.2062 -0.5616 -1.2425
 4256TIP3   OH234258   4.827   6.486  13.472 -0.3358 -0.0875  0.1482
 4256TIP3    H134259   4.864   6.413  13.421 -0.2555 -1.0422  1.5203
 4256TIP3    H234260   4.796   6.548  13.406  0.7500 -0.7779 -1.0500
 4257TIP3   OH234261   0.299   1.363  15.429  0.3005  0.7330  0.2192
 4257TIP3    H134262   0.208   1.381  15.451 -0.9591 -1.0963 -2.8281
 4257TIP3    H234263   0.333   1.446  15.395 -0.3116  1.3277  1.0322
 4258TIP3   OH234264   5.474   5.779   4.600 -0.0068 -0.0749 -0.1402
 4258TIP3    H134265   5.527   5.699   4.597  0.3170  0.1169  0.4432
 4258TIP3    H234266   5.408   5.766   4.531  0.4242 -0.5731 -0.4697
 4259TIP3   OH234267   3.030   4.811   4.806  0.3240  0.0501  0.0306
 4259TIP3    H134268   3.040   4.901   4.837 -2.0755 -0.8350  4.0675
 4259TIP3    H234269   2.948   4.811   4.758 -0.6723 -0.2752  1.6809
 4260TIP3   OH234270   0.046   4.110  14.738  0.2437  0.9428  0.0323
 4260TIP3    H134271   0.071   4.113  14.646  2.4871  1.2185  0.5855
 4260TIP3    H234272  -0.045   4.079  14.738  0.5997 -0.2718 -2.1886
 4261TIP3   OH234273   4.199   5.420   2.439  0.1015  0.0163 -1.0170
 4261TIP3    H134274   4.167   5.413   2.350  1.4308  0.1597 -1.5252
 4261TIP3    H234275   4.291   5.391   2.435  1.4636  3.6883 -0.5104
 4262TIP3   OH234276   2.829   1.910   1.905 -0.1474  0.0514  0.2087
 4262TIP3    H134277   2.916   1.881   1.931 -0.2517 -1.9446 -1.4187
 4262TIP3    H234278   2.833   2.005   1.912  1.7772 -0.0443  1.2520
 4263TIP3   OH234279   0.079   6.162  13.350 -0.1360  0.1262 -0.0795
 4263TIP3    H134280   0.026   6.092  13.310  1.0392 -0.1566 -1.2264
 4263TIP3    H234281   0.141   6.116  13.407 -0.2365  0.3431  0.2045
 4264TIP3   OH234282   5.216   5.872  11.778 -0.7156 -0.0175  0.1830
 4264TIP3    H134283   5.236   5.779  11.766  0.7133  0.4392 -1.4655
 4264TIP3    H234284   5.181   5.900  11.694 -1.6614  0.8366  0.8393
 4265TIP3   OH234285   0.106   0.194  13.833  0.5743 -0.0681  0.0875
 4265TIP3    H134286   0.148   0.127  13.779 -1.4225 -1.7613  0.5171
 4265TIP3    H234287   0.121   0.276  13.786  1.0016 -1.1383 -1.7355
 4266TIP3   OH234288   0.381   2.349  16.895  0.2261 -1.2163  0.0777
 4266TIP3    H134289   0.382   2.315  16.984  0.8650 -0.1771  0.4832
 4266TIP3    H234290   0.471   2.379  16.880  0.3999 -2.3055 -1.2919
 4267TIP3   OH234291   2.587   5.791  14.241  0.5902  0.0714  0.4767
 4267TIP3    H134292   2.566   5.698  14.250 -3.7535  0.6008 -1.4256
 4267TIP3    H234293   2.555   5.830  14.323 -0.0011  0.1437  0.2176
 4268TIP3   OH234294   1.214   5.428   1.760 -0.6342  0.6732 -0.2166
 4268TIP3    H134295   1.209   5.379   1.678  1.7343  1.1235 -0.6913
 4268TIP3    H234296   1.132   5.408   1.805 -0.6272 -2.1265 -1.2676
 4269TIP3   OH234297   3.162   1.451   3.915 -0.0367  0.5769 -0.1478
 4269TIP3    H134298   3.213   1.496   3.849 -0.7404  1.1189 -0.3292
 4269TIP3    H234299   3.071   1.463   3.888 -0.5734  3.1491  2.2984
 4270TIP3   OH234300   0.263   3.456  14.899 -0.1962 -0.5525  0.1479
 4270TIP3    H134301   0.284   3.549  14.911  0.4855 -0.6422 -0.2852
 4270TIP3    H234302   0.187   3.455  14.841  0.9739 -0.2995 -1.4407
 4271TIP3   OH234303   6.182   2.005  10.451 -0.5535  0.6380 -0.1691
 4271TIP3    H134304   6.097   2.040  10.424 -1.8804 -0.7958  1.8732
 4271TIP3    H234305   6.176   1.996  10.546  1.7295  0.0230 -0.0040
 4272TIP3   OH234306   0.456   0.627   3.439 -0.1503 -0.0343 -0.3360
 4272TIP3    H134307   0.398   0.551   3.436 -0.8302  0.5006 -1.5483
 4272TIP3    H234308   0.513   0.617   3.362  0.7470 -0.0719  0.3227
 4273TIP3   OH234309   4.292   3.357   5.448  0.6611 -0.1961  0.0772
 4273TIP3    H134310   4.334   3.442   5.439 -2.8373  1.5254 -2.3421
 4273TIP3    H234311   4.313   3.310   5.368  1.2124 -0.9639  0.6583
 4274TIP3   OH234312   3.210   2.490   0.852  0.0521  0.3881  0.6649
 4274TIP3    H134313   3.203   2.394   0.858  3.6862  0.0275  1.5783
 4274TIP3    H234314   3.172   2.522   0.934 -0.2855 -0.3386  0.8070
 4275TIP3   OH234315   1.529   0.296   5.804  0.3019  0.1718  0.1450
 4275TIP3    H134316   1.451   0.283   5.750 -0.3690  1.8807  0.6410
 4275TIP3    H234317   1.557   0.386   5.783  1.1366  0.1740  1.2186
 4276TIP3   OH234318   1.472   6.776   2.787 -0.4313  0.1391 -0.4202
 4276TIP3    H134319   1.558   6.792   2.827 -0.0326  1.1863 -1.5971
 4276TIP3    H234320   1.474   6.684   2.761  0.1858  0.0510 -0.0754
 4277TIP3   OH234321   2.418   3.334   2.660  0.5482 -0.3679 -0.0193
 4277TIP3    H134322   2.398   3.327   2.567 -1.9431 -0.3380  0.4391
 4277TIP3    H234323   2.402   3.425   2.682 -1.2584 -0.8492  0.8632
 4278TIP3   OH234324   4.721   2.821   6.789  0.4321 -0.0498 -0.1022
 4278TIP3    H134325   4.779   2.883   6.744  0.6035 -0.4124 -0.3833
 4278TIP3    H234326   4.729   2.740   6.739  0.2047 -0.3000  0.2624
 4279TIP3   OH234327   5.288   2.097   0.245 -0.1263  0.6700 -0.0679
 4279TIP3    H134328   5.314   2.053   0.164 -1.6367  0.4778 -0.4769
 4279TIP3    H234329   5.312   2.188   0.232  2.7951  0.1187  0.6751
 4280TIP3   OH234330   2.477   6.352   2.357 -0.5436 -0.1110  0.0678
 4280TIP3    H134331   2.473   6.307   2.441 -1.3460  0.1472  0.1692
 4280TIP3    H234332   2.447   6.441   2.375  0.7240  0.4047 -0.1958
 4281TIP3   OH234333   5.167   6.491   4.253 -0.4590  0.1685 -0.6660
 4281TIP3    H134334   5.203   6.576   4.280 -2.6630  1.2361 -0.9022
 4281TIP3    H234335   5.244   6.440   4.227  0.9081  2.1621 -0.7735
 4282TIP3   OH234336   5.048   2.038  14.048 -0.3602  0.2916 -0.0555
 4282TIP3    H134337   5.076   1.951  14.018 -1.3489  0.1518 -0.6038
 4282TIP3    H234338   4.973   2.021  14.105 -0.8833  0.8089 -0.5776
 4283TIP3   OH234339   5.378   3.886  15.805 -0.5074 -0.3446  0.4427
 4283TIP3    H134340   5.373   3.823  15.732 -0.4757 -0.5439  0.6100
 4283TIP3    H234341   5.432   3.957  15.772 -0.6733 -0.3314  0.1962
 4284TIP3   OH234342   5.793   1.062   4.753  0.1404 -0.0677  0.5426
 4284TIP3    H134343   5.858   0.995   4.729  1.2266  0.6312  1.4198
 4284TIP3    H234344   5.839   1.117   4.816 -1.3537  0.4138  1.2336
 4285TIP3   OH234345   5.312   4.378   4.026 -0.0096  0.2529 -0.0016
 4285TIP3    H134346   5.333   4.423   3.945  1.0984 -1.6592 -0.8499
 4285TIP3    H234347   5.217   4.387   4.035 -0.4402 -0.9881 -2.5023
 4286TIP3   OH234348   6.137   5.149   3.404  0.4350 -0.0200 -0.2201
 4286TIP3    H134349   6.156   5.163   3.497  2.0462  3.0943 -0.9077
 4286TIP3    H234350   6.206   5.090   3.374  0.6861  0.0207  0.2712
 4287TIP3   OH234351   5.311   2.686   5.904  0.1818  0.6996 -0.0085
 4287TIP3    H134352   5.370   2.659   5.974 -0.5332  0.1465  0.3875
 4287TIP3    H234353   5.237   2.625   5.909  0.2933  0.4063 -1.4912
 4288TIP3   OH234354   5.630   0.635  13.038 -0.1049 -0.3835  0.0340
 4288TIP3    H134355   5.708   0.581  13.027 -0.5487 -0.9728 -0.2739
 4288TIP3    H234356   5.581   0.593  13.109 -0.9853 -1.0388 -0.9332
 4289TIP3   OH234357   2.774   2.647   5.233 -0.3235  0.1462 -0.1110
 4289TIP3    H134358   2.864   2.669   5.210  0.5337 -0.9932  1.9031
 4289TIP3    H234359   2.740   2.600   5.157  0.8570  0.4088 -0.8148
 4290TIP3   OH234360   3.254   1.975   4.524  0.1019 -0.0101  0.3900
 4290TIP3    H134361   3.174   1.922   4.526 -0.8182  1.2737  3.2023
 4290TIP3    H234362   3.228   2.053   4.474  0.5651 -0.8053 -1.1860
 4291TIP3   OH234363   0.671   2.496  16.075  0.5065 -0.3824  0.0522
 4291TIP3    H134364   0.721   2.577  16.082 -0.6701  0.3913 -0.2351
 4291TIP3    H234365   0.711   2.437  16.139  1.1337  0.5494  0.5295
 4292TIP3   OH234366   3.723   4.185   5.093  0.0775 -0.3608  0.0233
 4292TIP3    H134367   3.672   4.255   5.052  1.8702  1.3200  0.4941
 4292TIP3    H234368   3.681   4.170   5.177 -0.4836 -0.0496 -0.1950
 4293TIP3   OH234369   2.516   2.465   3.153  0.0580  0.1840 -0.3242
 4293TIP3    H134370   2.493   2.391   3.097 -0.4766  0.6332 -0.7066
 4293TIP3    H234371   2.436   2.517   3.157  0.4706  0.8089 -0.1600
 4294TIP3   OH234372   4.629   1.877  14.338  0.6421 -0.4762  0.8351
 4294TIP3    H134373   4.573   1.954  14.345  0.2099 -0.5627 -1.0839
 4294TIP3    H234374   4.686   1.881  14.415 -0.6427  0.7050  1.7692
 4295TIP3   OH234375   3.614   4.386   4.197 -0.0630  0.1827  0.8364
 4295TIP3    H134376   3.528   4.387   4.155 -0.0885 -0.1654  0.8771
 4295TIP3    H234377   3.630   4.477   4.221 -0.1504  0.3460  0.2831
 4296TIP3   OH234378   0.673   4.864  11.820 -0.0649 -0.2061 -0.2349
 4296TIP3    H134379   0.667   4.906  11.906 -1.1844 -0.4743 -0.1698
 4296TIP3    H234380   0.757   4.817  11.822 -0.4402 -0.8643  1.0022
 4297TIP3   OH234381   5.190   6.590  16.122  0.1699  0.0335 -0.2386
 4297TIP3    H134382   5.112   6.635  16.091 -0.0732  1.2223  1.8854
 4297TIP3    H234383   5.157   6.523  16.182  0.7280 -0.3431 -0.3436
 4298TIP3   OH234384   3.912   1.701   2.043 -0.2510 -0.3016 -0.2535
 4298TIP3    H134385   3.889   1.612   2.017 -1.2160 -0.0357 -0.3691
 4298TIP3    H234386   3.845   1.756   2.002 -0.0582  0.4116  0.3599
 4299TIP3   OH234387   6.092   4.344   5.644  0.3462  0.4219  0.0728
 4299TIP3    H134388   6.023   4.409   5.658 -0.2888  0.0851 -1.3574
 4299TIP3    H234389   6.168   4.380   5.691 -0.5599  1.1788  1.0067
 4300TIP3   OH234390   1.895   0.407   1.123 -0.3810  0.3407  0.0209
 4300TIP3    H134391   1.837   0.393   1.198 -1.5896  0.7547 -0.8213
 4300TIP3    H234392   1.859   0.352   1.054  0.5080  0.2540 -0.3957
 4301TIP3   OH234393   5.662   1.247  10.548 -0.0442 -0.1793  0.3645
 4301TIP3    H134394   5.703   1.165  10.520  0.2345 -0.1037  0.5440
 4301TIP3    H234395   5.586   1.256  10.491  0.4882 -0.0561 -0.3573
 4302TIP3   OH234396   3.885   4.578  14.384  0.6737 -0.1782  0.4317
 4302TIP3    H134397   3.973   4.541  14.374  0.8353 -0.0413  1.2778
 4302TIP3    H234398   3.841   4.519  14.446  0.8329  0.8399  1.5487
 4303TIP3   OH234399   1.954   0.875   6.147 -0.3821 -0.1123 -0.5924
 4303TIP3    H134400   1.878   0.862   6.204 -0.0228 -0.7830 -0.2562
 4303TIP3    H234401   1.991   0.958   6.175  0.4684 -0.9842  0.9647
 4304TIP3   OH234402   2.262   5.204   3.998  0.4639  0.0449  0.6931
 4304TIP3    H134403   2.224   5.286   3.967  0.6615  0.1343  0.6846
 4304TIP3    H234404   2.356   5.212   3.980  0.3212 -0.7012 -0.4816
 4305TIP3   OH234405   1.479   6.792  12.511  0.1358  0.4472  0.5522
 4305TIP3    H134406   1.552   6.730  12.520  1.5075  1.2776 -3.0885
 4305TIP3    H234407   1.401   6.738  12.516  1.1966 -1.1894  0.1801
 4306TIP3   OH234408   3.311   1.809   2.881 -0.1178 -0.8459 -0.1506
 4306TIP3    H134409   3.226   1.794   2.922  1.0278 -0.7692  2.4695
 4306TIP3    H234410   3.316   1.904   2.871  0.2500 -0.7155  1.1433
 4307TIP3   OH234411   2.493   0.087   5.686 -0.4281  0.2594  0.4759
 4307TIP3    H134412   2.512   0.025   5.616  0.1076 -0.3254  1.1168
 4307TIP3    H234413   2.397   0.086   5.693 -0.4931  0.4266 -0.3294
 4308TIP3   OH234414   3.760   3.082  13.131  0.3704  0.2315 -0.3860
 4308TIP3    H134415   3.765   3.035  13.214 -1.5083  0.8941  0.1534
 4308TIP3    H234416   3.820   3.155  13.140 -0.5700  0.8907  0.8366
 4309TIP3   OH234417   4.852   5.863  15.072 -0.1883  0.1055  0.5868
 4309TIP3    H134418   4.814   5.777  15.055  0.8331  0.0964 -2.2041
 4309TIP3    H234419   4.836   5.879  15.165 -1.3957 -2.5833  0.9238
 4310TIP3   OH234420   3.434   6.781  10.954 -0.2982  0.6123  0.3855
 4310TIP3    H134421   3.379   6.781  10.875  1.8759  0.7684 -1.2105
 4310TIP3    H234422   3.470   6.870  10.958  1.0216  0.0982  0.4759
 4311TIP3   OH234423   4.850   1.982   4.465 -0.1692  0.2062 -0.3084
 4311TIP3    H134424   4.871   2.003   4.556 -1.1459  1.6167 -0.3838
 4311TIP3    H234425   4.767   2.026   4.449 -0.0873 -0.1573 -1.8493
 4312TIP3   OH234426   0.522   6.211   6.242 -0.3423  0.5583  0.1078
 4312TIP3    H134427   0.477   6.279   6.294  0.7031  0.3259  1.3680
 4312TIP3    H234428   0.543   6.143   6.305  0.1591 -0.1696 -0.8231
 4313TIP3   OH234429   5.724   0.014   5.406 -0.1421  0.5666 -0.2098
 4313TIP3    H134430   5.817   0.022   5.383 -0.4245  1.7703 -1.0344
 4313TIP3    H234431   5.680   0.080   5.353 -1.5367 -0.2303 -0.1102
 4314TIP3   OH234432   5.580   4.440  12.933  0.3822 -0.5985  0.1990
 4314TIP3    H134433   5.642   4.510  12.911  0.0640 -0.0112  1.1159
 4314TIP3    H234434   5.498   4.486  12.952  0.2854 -1.1736  1.2253
 4315TIP3   OH234435   2.141   3.758  13.819  0.3122  0.0926  0.0404
 4315TIP3    H134436   2.189   3.794  13.893  0.4260  1.1105 -0.5206
 4315TIP3    H234437   2.108   3.834  13.771  1.1241 -0.4973 -1.5391
 4316TIP3   OH234438   5.120   0.950   2.167  0.2491 -0.5274 -0.0178
 4316TIP3    H134439   5.030   0.946   2.137  0.5443  2.7780 -1.9035
 4316TIP3    H234440   5.171   0.908   2.097  0.2885 -1.1172  0.3603
 4317TIP3   OH234441   4.299   2.509  13.201  0.0018 -0.4531 -0.5356
 4317TIP3    H134442   4.278   2.573  13.269  0.1337 -1.0277  0.0673
 4317TIP3    H234443   4.236   2.525  13.131 -0.5665 -0.2783  0.0126
 4318TIP3   OH234444   5.221   2.124  15.517 -0.4707 -0.0367 -0.3643
 4318TIP3    H134445   5.302   2.151  15.560 -0.3478 -0.9138 -0.0166
 4318TIP3    H234446   5.218   2.029  15.529 -2.1991  0.1042  0.8037
 4319TIP3   OH234447   0.465   1.856  12.087 -0.1803 -0.2259  0.0444
 4319TIP3    H134448   0.496   1.900  12.166 -0.7240 -0.1578  0.2265
 4319TIP3    H234449   0.467   1.924  12.019 -1.6266  0.2947  0.4701
 4320TIP3   OH234450   1.016   4.696   6.309 -0.1354 -0.1209  0.1363
 4320TIP3    H134451   1.078   4.754   6.264  1.3930  0.7681  3.1572
 4320TIP3    H234452   0.930   4.725   6.279  0.7539  0.7680 -1.7374
 4321TIP3   OH234453   0.813   2.977   0.979 -0.5183  0.4101 -0.2352
 4321TIP3    H134454   0.852   2.890   0.993 -2.2057 -0.4340 -0.5488
 4321TIP3    H234455   0.857   3.033   1.043  1.8588 -0.2378 -1.1912
 4322TIP3   OH234456   1.191   6.533   3.256 -0.2224  0.3696  0.0162
 4322TIP3    H134457   1.280   6.538   3.292 -0.6524  0.5626  1.1028
 4322TIP3    H234458   1.195   6.460   3.193  0.6383  0.2105  0.2349
 4323TIP3   OH234459   1.800   4.727   4.550 -0.2586 -0.2189  0.2502
 4323TIP3    H134460   1.705   4.729   4.552 -0.3046 -0.8589 -0.5814
 4323TIP3    H234461   1.821   4.675   4.472  0.7637 -0.2181  0.5117
 4324TIP3   OH234462   0.957   2.331  12.009  0.3087  0.3424 -0.5238
 4324TIP3    H134463   0.971   2.426  12.003  0.7064  0.3654  0.5707
 4324TIP3    H234464   1.037   2.293  11.973  0.5958  0.4341  0.0124
 4325TIP3   OH234465   6.736   1.654  14.201  0.1215  0.0443  0.8587
 4325TIP3    H134466   6.653   1.607  14.200  0.2265 -0.1468  0.0668
 4325TIP3    H234467   6.797   1.595  14.156  0.5171  0.4718  0.8244
 4326TIP3   OH234468   1.607   3.677   2.885  0.1498 -0.4696  0.0772
 4326TIP3    H134469   1.690   3.662   2.840  1.2017  0.8022  1.4661
 4326TIP3    H234470   1.630   3.734   2.959 -2.4105  2.4435 -1.1427
 4327TIP3   OH234471   1.498   1.164   1.047 -0.2141 -0.0296  0.0784
 4327TIP3    H134472   1.475   1.087   0.994 -0.5315  1.0368 -1.3715
 4327TIP3    H234473   1.421   1.179   1.101 -0.2191 -0.6176  0.2450
 4328TIP3   OH234474   5.972   6.714   6.079 -0.2555  0.1288  0.3466
 4328TIP3    H134475   5.986   6.638   6.135  0.4905  0.0209  0.0423
 4328TIP3    H234476   5.921   6.775   6.132  0.4564  0.0458  1.1513
 4329TIP3   OH234477   2.907   3.138  16.466 -0.3001 -0.2564 -0.7057
 4329TIP3    H134478   2.924   3.139  16.560 -0.6373 -0.2774 -0.6446
 4329TIP3    H234479   2.928   3.226  16.437 -2.0407  0.3335 -0.2775
 4330TIP3   OH234480   3.575   6.275  15.723  0.1219 -0.6200  0.5847
 4330TIP3    H134481   3.641   6.217  15.760  2.1567  0.4065 -1.2477
 4330TIP3    H234482   3.559   6.241  15.635  0.2345  0.7116  0.0245
 4331TIP3   OH234483   2.319   3.796   2.977 -0.3390 -0.0442  0.5723
 4331TIP3    H134484   2.286   3.844   3.053 -1.6835  0.0277 -0.0133
 4331TIP3    H234485   2.275   3.838   2.902 -0.7923 -1.5283 -0.0412
 4332TIP3   OH234486   5.171   4.694   3.450 -0.4902  1.2212 -0.2360
 4332TIP3    H134487   5.118   4.763   3.489 -2.0186 -0.7072  1.2601
 4332TIP3    H234488   5.115   4.657   3.382 -0.2658  0.4956 -0.0298
 4333TIP3   OH234489   2.026   6.387  11.103  0.0340 -0.0210  0.1274
 4333TIP3    H134490   2.109   6.372  11.059 -1.2806  2.4852 -3.7472
 4333TIP3    H234491   1.967   6.321  11.066 -0.8382  1.4617 -1.2640
 4334TIP3   OH234492   6.802   5.319   4.472  0.2788 -0.1085 -0.0918
 4334TIP3    H134493   6.883   5.308   4.422  1.5806  0.3793  1.7943
 4334TIP3    H234494   6.810   5.407   4.511 -2.2305  0.9106 -1.6342
 4335TIP3   OH234495   4.693   1.905  14.586 -0.2060  0.3337  0.5517
 4335TIP3    H134496   4.637   1.981  14.605  0.9592  1.4505 -0.2674
 4335TIP3    H234497   4.635   1.830  14.593 -1.3320  1.2576  1.7622
 4336TIP3   OH234498   5.261   3.217  15.598 -0.0553 -0.0508 -0.4022
 4336TIP3    H134499   5.251   3.312  15.602  0.9197  0.0252  0.4955
 4336TIP3    H234500   5.355   3.202  15.594 -0.2071 -0.9783 -0.9034
 4337TIP3   OH234501   4.555   4.282   4.022  0.1237 -0.2581 -0.1241
 4337TIP3    H134502   4.628   4.344   4.030 -1.1532  1.0869  4.6771
 4337TIP3    H234503   4.486   4.332   3.979 -0.0209  0.8432  1.3021
 4338TIP3   OH234504   1.729   5.862   1.916 -0.3223 -0.0098  0.4136
 4338TIP3    H134505   1.794   5.908   1.968  0.0470  0.1390 -0.1770
 4338TIP3    H234506   1.667   5.930   1.888 -0.0259  0.0622 -0.0814
 4339TIP3   OH234507   4.331   0.728  15.866 -0.1685  0.2229 -0.4563
 4339TIP3    H134508   4.373   0.772  15.792  2.6855  1.0571  1.5011
 4339TIP3    H234509   4.287   0.797  15.915  0.0436  0.0895 -0.0701
 4340TIP3   OH234510   2.324   5.031  11.889  0.4774 -0.0553  0.0520
 4340TIP3    H134511   2.408   5.014  11.931  1.2590  3.5011  0.2695
 4340TIP3    H234512   2.346   5.061  11.801 -0.1947  3.1777  0.8300
 4341TIP3   OH234513   4.915   1.494   4.270 -0.3537  0.2123 -0.0682
 4341TIP3    H134514   5.010   1.504   4.270 -0.4123  0.7615  0.0939
 4341TIP3    H234515   4.901   1.410   4.315  0.1006 -0.4208 -1.0612
 4342TIP3   OH234516   3.278   0.161   5.149  0.6154  1.0961 -0.1450
 4342TIP3    H134517   3.366   0.184   5.178 -0.2215  3.1089  1.0230
 4342TIP3    H234518   3.259   0.221   5.077  0.2848  0.4856 -0.5854
 4343TIP3   OH234519   3.241   2.934  14.379 -0.0195  0.4809 -0.5133
 4343TIP3    H134520   3.182   2.883  14.323  0.6846 -1.9264  0.7671
 4343TIP3    H234521   3.304   2.972  14.319 -1.9533  1.8715 -1.7530
 4344TIP3   OH234522   0.194   3.084  13.921 -0.2450  0.1044  0.7387
 4344TIP3    H134523   0.152   2.999  13.935  0.8387 -0.4400  0.8270
 4344TIP3    H234524   0.122   3.145  13.907 -1.0112 -1.0147 -0.3555
 4345TIP3   OH234525   5.800   1.888  12.860 -0.0873 -0.7731  0.2362
 4345TIP3    H134526   5.893   1.877  12.840  0.4089  1.1432  1.1921
 4345TIP3    H234527   5.760   1.916  12.778  0.0434 -2.1487 -0.3169
 4346TIP3   OH234528   5.097   5.928  10.947 -0.6290 -0.0112 -0.0537
 4346TIP3    H134529   5.100   5.936  10.852  1.8415 -1.8243 -0.1976
 4346TIP3    H234530   5.079   5.836  10.963 -0.2128  0.1128  1.2227
 4347TIP3   OH234531   3.243   0.137   4.805 -0.8224  0.2184  0.7205
 4347TIP3    H134532   3.286   0.131   4.720  0.5003  0.6680  1.3369
 4347TIP3    H234533   3.194   0.054   4.813  0.1743 -0.4467  0.1258
 4348TIP3   OH234534   1.431   2.388   2.527  0.1673  0.2193  0.3033
 4348TIP3    H134535   1.451   2.442   2.451 -2.8610  0.4065 -0.4883
 4348TIP3    H234536   1.375   2.317   2.493 -2.2426  0.9460  2.3912
 4349TIP3   OH234537   4.825   2.419   3.029  0.2377  0.4346 -1.2005
 4349TIP3    H134538   4.843   2.465   3.111 -0.2703  2.0187 -1.9487
 4349TIP3    H234539   4.788   2.335   3.057  0.9662  0.5493  0.1937
 4350TIP3   OH234540   0.170   1.855  15.571 -0.0914 -0.5011 -0.2073
 4350TIP3    H134541   0.263   1.868  15.552 -0.0683 -1.7062 -1.0264
 4350TIP3    H234542   0.169   1.802  15.651 -0.1583  2.3513  1.8090
 4351TIP3   OH234543   6.100   1.224   2.791 -0.3502 -0.5213 -0.4770
 4351TIP3    H134544   6.184   1.224   2.838 -0.1691  3.0627 -0.4976
 4351TIP3    H234545   6.124   1.209   2.699  0.2458 -0.0836 -0.4022
 4352TIP3   OH234546   4.811   2.392   2.450  0.3224  0.0524 -0.0117
 4352TIP3    H134547   4.732   2.404   2.397  0.7442  0.6797 -0.5123
 4352TIP3    H234548   4.827   2.298   2.447  0.4314  0.0855 -1.1628
 4353TIP3   OH234549   2.267   3.033  12.516  0.4392 -0.4400 -0.2219
 4353TIP3    H134550   2.281   3.120  12.553 -1.1980 -0.2972  0.1249
 4353TIP3    H234551   2.264   3.047  12.422 -2.8457  0.4555 -0.1132
 4354TIP3   OH234552   2.539   2.322  15.872 -0.0624  0.1006 -0.2531
 4354TIP3    H134553   2.466   2.383  15.884 -2.3016 -2.5222  0.5324
 4354TIP3    H234554   2.543   2.309  15.777 -0.2220  0.6994 -0.3499
 4355TIP3   OH234555   0.743   3.420   2.602  0.2379  1.0346 -0.2055
 4355TIP3    H134556   0.746   3.437   2.508 -0.8548 -0.4370 -0.5404
 4355TIP3    H234557   0.653   3.391   2.618  0.6286  0.5088  1.1532
 4356TIP3   OH234558   4.977   0.257   1.532 -0.3605  0.1812 -0.4101
 4356TIP3    H134559   4.881   0.248   1.538 -0.3334  0.4477  0.6039
 4356TIP3    H234560   4.995   0.251   1.438 -1.4491  0.8999 -0.6954
 4357TIP3   OH234561   1.754   4.605   6.168 -0.3512  0.2458 -0.0349
 4357TIP3    H134562   1.777   4.521   6.207 -1.9622 -0.6970 -0.9874
 4357TIP3    H234563   1.669   4.627   6.208 -0.4156  0.9245 -0.5332
 4358TIP3   OH234564   3.663   5.057   0.144 -0.3500 -0.3136 -0.1362
 4358TIP3    H134565   3.644   5.068   0.051 -0.3239 -1.0368 -0.2300
 4358TIP3    H234566   3.673   4.963   0.156 -1.3668 -0.3188  0.7997
 4359TIP3   OH234567   1.530   4.407  12.159 -0.1878  0.2004  0.5440
 4359TIP3    H134568   1.488   4.331  12.119  1.6421 -0.3674 -0.4243
 4359TIP3    H234569   1.471   4.433  12.229 -1.8808 -0.8267 -0.4286
 4360TIP3   OH234570   2.860   6.232   4.782 -0.5313 -0.1164  0.6298
 4360TIP3    H134571   2.899   6.215   4.868  0.5294 -0.9723 -0.0030
 4360TIP3    H234572   2.806   6.311   4.796  0.0233  0.0576  1.9517
 4361TIP3   OH234573   1.919   5.949   0.232 -0.5568  0.3911 -0.4294
 4361TIP3    H134574   1.990   5.980   0.287 -1.5359  0.1662  1.0229
 4361TIP3    H234575   1.944   5.859   0.209 -0.1307  0.4932 -0.3730
 4362TIP3   OH234576   3.366   2.566   1.235 -0.0977 -0.3146  0.5471
 4362TIP3    H134577   3.288   2.563   1.179  1.2886  1.0759 -1.5912
 4362TIP3    H234578   3.343   2.627   1.305 -0.5787  1.0135 -0.7171
 4363TIP3   OH234579   5.780   4.772  13.271  0.1674  0.1494 -0.4830
 4363TIP3    H134580   5.860   4.727  13.245  0.3382  1.0003 -1.5286
 4363TIP3    H234581   5.711   4.728  13.222  0.2423  0.5292 -0.9452
 4364TIP3   OH234582   3.004   2.088  11.070  0.2575 -0.5321 -0.3818
 4364TIP3    H134583   2.994   2.117  10.980  0.8512  2.5596  0.4509
 4364TIP3    H234584   3.097   2.071  11.080  0.4329  0.5472 -0.0155
 4365TIP3   OH234585   4.340   3.345  17.213  0.3414 -0.5313 -0.0011
 4365TIP3    H134586   4.277   3.273  17.204  0.7470 -0.8886  0.0033
 4365TIP3    H234587   4.391   3.343  17.133 -0.3143  0.4144 -0.4661
 4366TIP3   OH234588   5.571   2.467  11.418  0.2371  0.2911 -0.5882
 4366TIP3    H134589   5.489   2.418  11.411  0.7893 -0.9065  0.8609
 4366TIP3    H234590   5.633   2.417  11.365  0.5740 -0.0666  0.1360
 4367TIP3   OH234591   1.567   0.519   2.872 -0.5095  0.4330  0.5361
 4367TIP3    H134592   1.629   0.587   2.897  0.0082 -0.2705  1.2221
 4367TIP3    H234593   1.544   0.476   2.954 -0.0637 -0.8580  0.0125
 4368TIP3   OH234594   0.822   2.032   0.730  0.2076 -0.1832  1.0399
 4368TIP3    H134595   0.859   1.993   0.809 -0.2693  1.0045  1.8815
 4368TIP3    H234596   0.733   2.057   0.755  0.0664  0.2551  0.1494
 4369TIP3   OH234597   0.387   6.374   6.821 -0.4513 -0.0709  0.1113
 4369TIP3    H134598   0.417   6.401   6.734  0.3018  0.5224  0.5421
 4369TIP3    H234599   0.294   6.395   6.822 -0.3631  0.3673 -0.3858
 4370TIP3   OH234600   0.245   0.453   3.781  0.1325  0.2414 -0.0515
 4370TIP3    H134601   0.329   0.493   3.762  0.0402  0.2804 -0.3843
 4370TIP3    H234602   0.259   0.406   3.863  0.8098 -0.7141 -0.6900
 4371TIP3   OH234603   3.112   1.677   1.739 -0.5008 -0.4885 -0.8199
 4371TIP3    H134604   3.118   1.742   1.808 -0.3416 -3.0998  1.7891
 4371TIP3    H234605   3.019   1.677   1.713 -1.1720 -1.3085  1.3923
 4372TIP3   OH234606   6.679   0.628  17.092 -0.2795 -0.1796 -0.0639
 4372TIP3    H134607   6.685   0.687  17.016 -0.6687  0.6362  0.5315
 4372TIP3    H234608   6.644   0.682  17.162  1.3434 -0.5482  1.0996
 4373TIP3   OH234609   4.080   2.123   5.347 -0.1471 -0.0980  0.9884
 4373TIP3    H134610   4.132   2.199   5.374  0.8169 -0.1694 -0.5206
 4373TIP3    H234611   4.022   2.157   5.278  0.2873 -0.7170  0.3068
 4374TIP3   OH234612   5.928   5.216  16.999  0.3531  0.0762  0.3795
 4374TIP3    H134613   5.840   5.201  16.964  0.7671  0.9293 -1.1092
 4374TIP3    H234614   5.914   5.258  17.083 -0.6618  0.2229  0.1482
 4375TIP3   OH234615   3.164   2.498  12.559 -0.1264 -0.0356  0.5365
 4375TIP3    H134616   3.171   2.534  12.648 -1.3195  0.2759  0.5158
 4375TIP3    H234617   3.212   2.561  12.505  1.4579 -0.7364  1.0648
 4376TIP3   OH234618   2.807   1.335   5.885 -0.7588 -0.0580  0.2177
 4376TIP3    H134619   2.785   1.357   5.976  2.6918  1.4797  0.8576
 4376TIP3    H234620   2.876   1.270   5.893 -2.1625 -1.8490 -1.4627
 4377TIP3   OH234621   3.069   3.450  16.662  0.5263  0.2669 -0.0345
 4377TIP3    H134622   3.017   3.435  16.742  0.0945 -0.6885 -0.4760
 4377TIP3    H234623   3.151   3.402  16.678  0.9660  1.1052  0.3282
 4378TIP3   OH234624   2.522   0.250  12.292 -0.3255 -0.1904  0.4416
 4378TIP3    H134625   2.544   0.260  12.199 -3.5010  1.5340 -0.2690
 4378TIP3    H234626   2.499   0.158  12.301  1.7504 -0.8087  0.0316
 4379TIP3   OH234627   2.037   0.335  14.089  0.0288  1.1871 -0.6077
 4379TIP3    H134628   2.073   0.285  14.015  1.7535  0.3048  0.7452
 4379TIP3    H234629   2.100   0.405  14.103  0.2930  0.7190  0.6566
 4380TIP3   OH234630   5.284   0.081  12.435 -0.0557 -0.1793  0.0033
 4380TIP3    H134631   5.357   0.143  12.440 -0.0418 -0.2520  0.8115
 4380TIP3    H234632   5.206   0.135  12.446 -0.0083 -0.3878  1.5618
 4381TIP3   OH234633   4.056   3.777  16.238  0.0406  0.1852  0.3968
 4381TIP3    H134634   4.022   3.859  16.202 -1.2310 -0.7291 -0.5954
 4381TIP3    H234635   4.148   3.795  16.256  0.0965  1.4751 -0.9718
 4382TIP3   OH234636   0.005   5.543   5.130 -0.0676 -0.2485  0.0948
 4382TIP3    H134637   0.086   5.508   5.091 -0.4668 -0.2709 -0.7417
 4382TIP3    H234638   0.034   5.619   5.181  0.2669  1.2563 -2.1503
 4383TIP3   OH234639   0.286   0.943  15.490 -0.4281 -0.0712  0.0339
 4383TIP3    H134640   0.201   0.964  15.451 -1.3687 -1.5045  1.2005
 4383TIP3    H234641   0.293   0.848  15.483  0.2713 -0.1642  1.4992
 4384TIP3   OH234642   4.759   5.662  12.368  0.0739 -0.2804  0.1396
 4384TIP3    H134643   4.692   5.594  12.356 -0.4555  0.3939 -0.9494
 4384TIP3    H234644   4.724   5.718  12.437 -1.1238  0.7640 -1.2487
 4385TIP3   OH234645   1.051   4.824  13.002  0.3109  0.1474  0.0631
 4385TIP3    H134646   1.006   4.743  12.976 -1.0593  1.2389 -1.1195
 4385TIP3    H234647   1.135   4.819  12.957 -0.7139  0.4428 -2.0141
 4386TIP3   OH234648   1.556   0.958  16.376  0.1272  0.4333 -0.5068
 4386TIP3    H134649   1.577   0.955  16.469  1.3409  1.2127 -0.7354
 4386TIP3    H234650   1.462   0.940  16.372 -0.0435  0.9137  0.9054
 4387TIP3   OH234651   3.612   1.722   5.226  0.1177  0.5431 -0.2247
 4387TIP3    H134652   3.568   1.659   5.169  0.5221  0.7716 -0.8070
 4387TIP3    H234653   3.554   1.798   5.227 -0.6140 -0.0159  0.8842
 4388TIP3   OH234654   5.823   3.685   4.520  0.1622 -0.0998 -0.3813
 4388TIP3    H134655   5.825   3.696   4.615  0.2716  1.2030 -0.5096
 4388TIP3    H234656   5.874   3.606   4.503 -2.0146 -1.8604  0.8215
 4389TIP3   OH234657   1.657   2.326   4.589 -0.2346  0.5226 -0.3006
 4389TIP3    H134658   1.659   2.231   4.599 -0.9947  0.6005  0.7152
 4389TIP3    H234659   1.566   2.346   4.566 -0.5325  1.1575  1.3345
 4390TIP3   OH234660   0.799   0.893  16.230  0.3813  0.4450  0.1125
 4390TIP3    H134661   0.704   0.891  16.217  0.5237 -2.6876 -1.4075
 4390TIP3    H234662   0.833   0.930  16.148  0.4981  0.3883  0.1345
 4391TIP3   OH234663   0.649   1.317  13.885  0.0249 -0.2182 -0.3192
 4391TIP3    H134664   0.697   1.250  13.934  1.4915  2.1820  1.7539
 4391TIP3    H234665   0.718   1.369  13.843 -1.1079 -0.2386 -2.3312
 4392TIP3   OH234666   5.066   0.486  16.242  0.1941 -0.3807  0.1346
 4392TIP3    H134667   5.161   0.500  16.251 -0.0227 -0.0000  2.5278
 4392TIP3    H234668   5.037   0.555  16.182  1.1257  1.0130  1.2079
 4393TIP3   OH234669   3.145   6.535   4.349  0.1381  0.3882  0.2712
 4393TIP3    H134670   3.194   6.573   4.422  0.7412 -0.1620  0.1640
 4393TIP3    H234671   3.103   6.458   4.385 -0.2252  0.5701  0.2350
 4394TIP3   OH234672   0.094   0.423  15.848  0.1394 -0.2025 -0.7755
 4394TIP3    H134673   0.015   0.469  15.820  0.7569  1.3586 -0.1182
 4394TIP3    H234674   0.106   0.450  15.940 -0.0104 -2.5163 -0.0063
 4395TIP3   OH234675   6.673   6.310  14.233  0.0496 -0.1111 -0.2251
 4395TIP3    H134676   6.631   6.333  14.150  0.7409  3.0790  0.1879
 4395TIP3    H234677   6.604   6.321  14.299 -0.1013 -1.1572 -0.1951
 4396TIP3   OH234678   1.625   3.940   1.358  0.3525 -0.4011 -0.1795
 4396TIP3    H134679   1.578   4.022   1.347 -0.7321 -0.9063  0.5458
 4396TIP3    H234680   1.568   3.886   1.413  1.4739 -1.2875  0.1606
 4397TIP3   OH234681   1.461   2.882   2.426  0.1327  0.6377 -0.1560
 4397TIP3    H134682   1.457   2.807   2.367  0.8802  0.1380  0.3994
 4397TIP3    H234683   1.555   2.894   2.443 -0.0879 -0.3219  2.2404
 4398TIP3   OH234684   5.083   3.863  14.025 -0.2839  0.0123  0.1029
 4398TIP3    H134685   5.159   3.833  14.076 -0.4853 -0.3933  0.1614
 4398TIP3    H234686   5.086   3.959  14.034  0.0329 -0.0187  0.3742
 4399TIP3   OH234687   0.307   4.766   4.268 -0.4760 -0.3383 -0.0713
 4399TIP3    H134688   0.262   4.817   4.335  1.7729  0.1135  1.1876
 4399TIP3    H234689   0.399   4.791   4.276  0.5154 -3.4125 -0.4271
 4400TIP3   OH234690   0.425   0.498   6.638  0.6263  0.5375  0.0810
 4400TIP3    H134691   0.424   0.570   6.701 -1.4424 -0.2135  0.9930
 4400TIP3    H234692   0.369   0.528   6.566 -0.3009 -0.1615  0.4980
 4401TIP3   OH234693   0.291   0.524   5.325 -0.2542 -0.5208  0.0055
 4401TIP3    H134694   0.293   0.591   5.394  0.8752 -1.2649  0.7221
 4401TIP3    H234695   0.336   0.565   5.252 -0.4045 -0.1577  0.1112
 4402TIP3   OH234696   0.516   0.004   0.350 -0.3980  0.5074  0.3471
 4402TIP3    H134697   0.447  -0.009   0.415  1.0736  1.5618  2.2413
 4402TIP3    H234698   0.528   0.099   0.347  0.9082  0.3501  0.0255
 4403TIP3   OH234699   5.146   0.183   4.574 -0.6916 -0.0016  0.1651
 4403TIP3    H134700   5.125   0.153   4.662  0.6047  1.8530  1.1725
 4403TIP3    H234701   5.069   0.159   4.521 -2.4869  0.8241  2.2615
 4404TIP3   OH234702   4.581   4.182   6.798 -0.5325 -0.0375 -0.1904
 4404TIP3    H134703   4.654   4.120   6.797 -0.0148  0.5245 -2.1967
 4404TIP3    H234704   4.621   4.267   6.778 -1.5499  0.5299  0.1036
 4405TIP3   OH234705   4.533   4.675  11.633  0.2591 -0.4322  0.2795
 4405TIP3    H134706   4.559   4.764  11.610  0.9004 -0.5875  0.3701
 4405TIP3    H234707   4.518   4.679  11.728  2.4457 -0.8907  0.7104
 4406TIP3   OH234708   3.831   6.209   0.638  0.7107  0.3754 -0.1008
 4406TIP3    H134709   3.752   6.173   0.679 -0.5136  2.5969 -0.3174
 4406TIP3    H234710   3.852   6.148   0.567  0.3691 -1.2808  1.1686
 4407TIP3   OH234711   0.012   1.403  17.278  0.3067 -0.0745  0.1983
 4407TIP3    H134712   0.088   1.357  17.315  0.8252  2.0901  2.0617
 4407TIP3    H234713   0.007   1.485  17.327 -3.5540 -0.2949  0.5059
 4408TIP3   OH234714   2.128   4.963  17.270  0.2911  0.2253 -0.2522
 4408TIP3    H134715   2.133   5.038  17.210  0.5174 -1.8496 -3.0290
 4408TIP3    H234716   2.036   4.958  17.294  0.1913  1.1068 -0.4058
 4409TIP3   OH234717   4.076   1.345   0.046  0.8914 -0.5715 -0.7324
 4409TIP3    H134718   4.094   1.301   0.129  1.7236 -0.5094 -0.8767
 4409TIP3    H234719   4.144   1.411   0.038 -0.2898  0.6977 -0.5731
 4410TIP3   OH234720   6.485   4.776  15.573 -0.3256  0.3347 -0.0044
 4410TIP3    H134721   6.424   4.743  15.638  0.2346 -2.1631 -0.6409
 4410TIP3    H234722   6.435   4.777  15.491 -0.9061  3.0724  0.2906
 4411TIP3   OH234723   2.423   0.880  11.356  0.0960 -0.4579  0.3569
 4411TIP3    H134724   2.336   0.848  11.378 -0.0642 -0.4729 -0.2684
 4411TIP3    H234725   2.433   0.962  11.405 -1.1371  0.6951 -1.2081
 4412TIP3   OH234726   6.546   4.734   5.221 -0.1834  0.0122 -0.0345
 4412TIP3    H134727   6.634   4.726   5.257 -0.8069 -2.1303  1.1654
 4412TIP3    H234728   6.559   4.745   5.127  1.3662 -0.7996  0.0684
 4413TIP3   OH234729   3.765   3.654   3.197  0.4709 -0.4024  0.0285
 4413TIP3    H134730   3.724   3.701   3.125  0.2368 -0.3283  0.2073
 4413TIP3    H234731   3.720   3.687   3.275  0.2562 -0.9806  0.1523
 4414TIP3   OH234732   1.303   2.000   3.082 -0.2494  0.7565 -0.6412
 4414TIP3    H134733   1.384   1.952   3.066 -0.7606  0.4961 -2.7516
 4414TIP3    H234734   1.237   1.931   3.092 -0.1931  0.9489  1.5447
 4415TIP3   OH234735   5.856   4.518  14.171 -0.1367 -0.5277  0.1582
 4415TIP3    H134736   5.858   4.424  14.152 -2.4486 -0.5961 -0.0392
 4415TIP3    H234737   5.764   4.543  14.160  0.2696  1.6016  1.0382
 4416TIP3   OH234738   2.585   3.421   4.898  0.5135  0.2738  0.8168
 4416TIP3    H134739   2.592   3.362   4.973  0.7654  0.8060  1.2277
 4416TIP3    H234740   2.578   3.508   4.938  0.5446  0.5514  0.2199
 4417TIP3   OH234741   4.489   4.523   5.711 -0.1484 -0.4605  0.5406
 4417TIP3    H134742   4.544   4.596   5.740  1.3163 -0.7385 -1.3527
 4417TIP3    H234743   4.533   4.445   5.745 -0.3289 -0.5860  0.4839
 4418TIP3   OH234744   6.669   6.513  12.781 -0.4975  0.4711 -0.3066
 4418TIP3    H134745   6.656   6.467  12.699  0.8539 -1.4408  0.4897
 4418TIP3    H234746   6.752   6.559  12.771  0.7496 -1.4527  0.6442
 4419TIP3   OH234747   4.603   0.175   4.103  0.3447 -0.5942 -0.0623
 4419TIP3    H134748   4.582   0.091   4.144  0.8082 -0.4611  0.4595
 4419TIP3    H234749   4.575   0.165   4.012  0.4555 -1.3365 -0.0202
 4420TIP3   OH234750   1.968   5.690   0.179  0.1680  0.3495 -0.1745
 4420TIP3    H134751   2.060   5.701   0.203  0.0055  1.2968  0.0618
 4420TIP3    H234752   1.970   5.657   0.090  0.7407 -0.1559  0.0131
 4421TIP3   OH234753   4.313   3.287   4.256 -0.6066  0.1830 -0.0454
 4421TIP3    H134754   4.319   3.380   4.279 -0.7390  0.1113  0.2872
 4421TIP3    H234755   4.387   3.273   4.198 -0.2905  0.3863  0.2980
 4422TIP3   OH234756   4.837   6.179  14.381 -0.2283 -0.0609 -0.2591
 4422TIP3    H134757   4.744   6.155  14.375 -0.0261 -0.5183 -2.8813
 4422TIP3    H234758   4.863   6.194  14.290  1.9267  1.4795  0.5371
 4423TIP3   OH234759   4.923   3.122   2.679  0.6043  0.2138 -0.2503
 4423TIP3    H134760   4.942   3.030   2.661 -0.7257 -0.1252 -0.0527
 4423TIP3    H234761   4.870   3.120   2.759 -3.3034  0.6862 -2.5851
 4424TIP3   OH234762   0.222   0.852  11.368 -0.0406  0.1407 -0.3738
 4424TIP3    H134763   0.187   0.815  11.449 -0.1946 -1.5162 -1.1564
 4424TIP3    H234764   0.317   0.849  11.379 -0.0572 -0.3185 -0.3618
 4425TIP3   OH234765   6.028   0.941   6.084 -0.1820 -0.2257  0.4102
 4425TIP3    H134766   6.081   1.019   6.067 -0.9095 -0.1896 -1.9969
 4425TIP3    H234767   6.034   0.889   6.004 -3.0000 -0.6633  0.3921
 4426TIP3   OH234768   5.024   3.988   2.558  0.3257  0.1215  0.3773
 4426TIP3    H134769   5.115   3.975   2.585  0.2909 -1.6099 -0.2086
 4426TIP3    H234770   4.979   4.016   2.637  1.0177 -0.8046  1.1203
 4427TIP3   OH234771   3.476   1.975   0.333  0.4110 -0.3678 -0.1421
 4427TIP3    H134772   3.568   1.951   0.328  0.1243 -1.2473 -1.8775
 4427TIP3    H234773   3.468   2.054   0.281 -0.1463 -1.5088 -1.8766
 4428TIP3   OH234774   3.531   1.874  12.195  0.1025  0.1545 -0.6917
 4428TIP3    H134775   3.527   1.924  12.114  0.5570  0.7553 -0.3471
 4428TIP3    H234776   3.563   1.935  12.260 -0.1695 -0.3489 -0.0704
 4429TIP3   OH234777   5.340   3.136   3.612  0.4816 -0.6770  0.8411
 4429TIP3    H134778   5.419   3.097   3.575  1.2988 -0.0917  1.8994
 4429TIP3    H234779   5.373   3.201   3.675 -0.8336  0.3635  0.4937
 4430TIP3   OH234780   0.494   5.967  12.468 -0.0971 -0.0039 -0.2971
 4430TIP3    H134781   0.576   5.993  12.427 -0.1166 -0.7573 -0.8483
 4430TIP3    H234782   0.493   5.872  12.462  0.6806 -0.3216  3.0398
 4431TIP3   OH234783   5.370   0.842   2.365  0.2471 -0.1927 -0.0212
 4431TIP3    H134784   5.307   0.788   2.318  0.0961 -2.4565  2.4948
 4431TIP3    H234785   5.455   0.802   2.346  0.0871 -1.7920  2.2450
 4432TIP3   OH234786   2.888   5.286  15.679 -0.2081 -0.9883  0.0028
 4432TIP3    H134787   2.874   5.314  15.588  0.2261  0.3587  0.3304
 4432TIP3    H234788   2.980   5.304  15.696 -0.6994  0.5659  1.2769
 4433TIP3   OH234789   3.521   1.863   4.519  0.5179  0.1006  0.3975
 4433TIP3    H134790   3.514   1.779   4.564  1.6826 -0.3982 -0.3013
 4433TIP3    H234791   3.431   1.897   4.518 -0.3716 -2.0343 -0.9706
 4434TIP3   OH234792   0.141   6.725   0.250 -0.2496  0.3095 -0.4376
 4434TIP3    H134793   0.092   6.746   0.329  0.3870 -1.0634  0.3692
 4434TIP3    H234794   0.094   6.651   0.211  0.3615 -0.0821 -0.4431
 4435TIP3   OH234795   2.385   0.482  15.178 -0.1037 -0.6012 -0.1228
 4435TIP3    H134796   2.305   0.432  15.164  0.5293 -1.9399  0.8823
 4435TIP3    H234797   2.355   0.572  15.192 -1.3590 -0.9353 -0.5597
 4436TIP3   OH234798   4.153   1.999  17.050 -0.0870 -0.1050  0.5965
 4436TIP3    H134799   4.202   2.004  16.968  1.4939  0.5532  1.5424
 4436TIP3    H234800   4.108   1.914  17.046  3.4915 -2.2189  0.8983
 4437TIP3   OH234801   0.986   4.339   2.904  0.1141  0.2497 -0.1727
 4437TIP3    H134802   0.950   4.250   2.904  1.0984 -0.1954 -1.7151
 4437TIP3    H234803   1.056   4.336   2.838  1.1705  1.7761  0.8284
 4438TIP3   OH234804   4.464   1.243  14.062 -0.1225 -0.5279 -0.4209
 4438TIP3    H134805   4.386   1.261  14.009 -0.6688  1.0035  0.7928
 4438TIP3    H234806   4.522   1.317  14.046  0.8165 -1.3335 -0.8137
 4439TIP3   OH234807   4.449   5.166   0.582  0.7549  0.1020  0.5448
 4439TIP3    H134808   4.425   5.225   0.654  4.0856  0.8381  1.2067
 4439TIP3    H234809   4.540   5.142   0.600  0.7756 -2.0609 -1.8977
 4440TIP3   OH234810   2.793   6.592   2.377  0.0415  0.7443  0.6439
 4440TIP3    H134811   2.847   6.652   2.325 -1.9383  2.1284  0.0534
 4440TIP3    H234812   2.740   6.546   2.312  0.7949 -0.9529  1.1781
 4441TIP3   OH234813   3.934   0.579  16.274 -0.2574 -0.2270  0.7580
 4441TIP3    H134814   3.872   0.632  16.224  0.2904  1.5777  1.9266
 4441TIP3    H234815   3.974   0.522  16.209 -0.0330  1.5858 -0.7652
 4442TIP3   OH234816   5.486   6.746  13.805  0.7544 -0.0041 -0.4562
 4442TIP3    H134817   5.461   6.836  13.781 -1.1530 -0.6491 -1.0255
 4442TIP3    H234818   5.416   6.717  13.863  1.7870 -0.8739  0.3930
 4443TIP3   OH234819   6.743   0.057   1.401  0.5407  0.4848 -0.0773
 4443TIP3    H134820   6.824   0.080   1.357  0.8098 -0.1480  0.0795
 4443TIP3    H234821   6.714  -0.024   1.358 -0.4746  1.1675 -0.7369
 4444TIP3   OH234822   1.276   5.733  12.490 -0.6574 -0.0440  0.6448
 4444TIP3    H134823   1.218   5.671  12.446 -0.1941  0.6647 -1.0214
 4444TIP3    H234824   1.301   5.795  12.422 -0.7536  1.7380  2.1691
 4445TIP3   OH234825   3.944   5.471   4.282 -0.0377 -0.0447  0.5692
 4445TIP3    H134826   4.038   5.470   4.262 -0.3953  2.4902 -2.0625
 4445TIP3    H234827   3.933   5.548   4.338 -0.4751 -0.8740  1.6492
 4446TIP3   OH234828   0.615   3.235  16.074 -0.8104  0.0075 -0.3390
 4446TIP3    H134829   0.655   3.150  16.094  0.3216  0.7409  0.6338
 4446TIP3    H234830   0.666   3.268  16.000  0.3753  0.8839  0.8192
 4447TIP3   OH234831   4.699   5.905  12.894  0.1917  0.3829 -0.4285
 4447TIP3    H134832   4.667   5.855  12.969 -1.1061  1.9552  0.1140
 4447TIP3    H234833   4.627   5.901  12.831  0.9455 -0.2196 -1.2808
 4448TIP3   OH234834   3.449   0.651  14.599 -0.0914  0.6739  0.0293
 4448TIP3    H134835   3.515   0.637  14.666  0.6773 -0.4347 -0.9311
 4448TIP3    H234836   3.416   0.739  14.616 -0.0988  0.3377  1.9955
 4449TIP3   OH234837   5.606   3.638   4.824  0.1573  0.7723  0.6821
 4449TIP3    H134838   5.686   3.595   4.795 -1.0348 -0.1638 -1.5628
 4449TIP3    H234839   5.544   3.566   4.838 -0.7066  1.5363  0.9007
 4450TIP3   OH234840   3.804   1.089   2.487  0.1672  0.3961 -0.4326
 4450TIP3    H134841   3.780   1.173   2.449  1.3151  0.6440 -0.6490
 4450TIP3    H234842   3.731   1.066   2.544 -0.2231  1.4565 -0.4956
 4451TIP3   OH234843   4.250   2.758  16.620 -0.0889 -0.3206  0.0406
 4451TIP3    H134844   4.331   2.714  16.645  0.5478  0.4999 -0.5198
 4451TIP3    H234845   4.187   2.688  16.609 -0.0087 -0.8534  2.4114
 4452TIP3   OH234846   2.200   2.337   1.153 -0.1169  0.0896  0.6099
 4452TIP3    H134847   2.261   2.383   1.096 -1.1666  0.5910 -0.1392
 4452TIP3    H234848   2.212   2.244   1.131  2.3755 -0.1378  2.5003
 4453TIP3   OH234849   4.640   6.719  12.391 -0.9017  0.1903 -0.8287
 4453TIP3    H134850   4.594   6.695  12.310 -1.8007  0.1079 -0.3092
 4453TIP3    H234851   4.573   6.713  12.459 -0.5034  1.5906 -0.2750
 4454TIP3   OH234852   5.820   0.386  13.565  0.5128  0.6959  0.2388
 4454TIP3    H134853   5.896   0.338  13.533  0.6694  1.5533 -0.7110
 4454TIP3    H234854   5.795   0.444  13.493  0.6400  2.4043  1.4935
 4455TIP3   OH234855   0.453   1.512  13.303 -0.0030 -0.0503 -0.0082
 4455TIP3    H134856   0.456   1.421  13.332 -1.1784  0.3797  1.6878
 4455TIP3    H234857   0.471   1.563  13.383 -1.5652  1.1978 -0.3813
 4456TIP3   OH234858   4.621   4.508  17.215 -0.3623  0.0432  0.6578
 4456TIP3    H134859   4.638   4.513  17.309  0.5053  1.0826  0.4718
 4456TIP3    H234860   4.675   4.578  17.177 -0.3811 -0.6130 -0.6564
 4457TIP3   OH234861   0.903   6.279  15.088  0.1652  0.3980 -0.1635
 4457TIP3    H134862   0.857   6.195  15.090 -0.5524  0.7899  0.6390
 4457TIP3    H234863   0.845   6.337  15.038  0.0560  0.7467  0.3631
 4458TIP3   OH234864   3.507   5.350  11.009  0.6925  0.0092 -0.6601
 4458TIP3    H134865   3.571   5.342  11.080  0.3810  1.7862 -0.1366
 4458TIP3    H234866   3.556   5.387  10.936  0.9238 -1.4723 -1.2997
 4459TIP3   OH234867   0.771   1.964   4.771 -0.2191 -0.7661 -0.0458
 4459TIP3    H134868   0.705   1.943   4.705 -0.4237 -2.6485  0.7095
 4459TIP3    H234869   0.722   1.981   4.851  0.0410  1.3651 -0.2727
 4460TIP3   OH234870   5.090   0.078   1.992  0.0592 -0.1481  0.1596
 4460TIP3    H134871   5.001   0.111   1.984  1.1123  3.8959  2.2134
 4460TIP3    H234872   5.133   0.102   1.910 -0.3947 -1.0953 -0.3760
 4461TIP3   OH234873   5.231   4.438  11.839  0.2720 -0.1425  0.2665
 4461TIP3    H134874   5.285   4.362  11.861  0.3198 -0.3946 -0.6727
 4461TIP3    H234875   5.283   4.513  11.867 -0.1144 -0.4556  1.9330
 4462TIP3   OH234876   3.457   0.058  16.849  0.0479  0.4064  0.2881
 4462TIP3    H134877   3.384   0.115  16.874 -1.8148 -1.4584 -0.5660
 4462TIP3    H234878   3.476   0.082  16.758 -1.3171 -0.8175 -0.3629
 4463TIP3   OH234879   0.927   0.353   5.381 -0.3569 -0.1149  0.1599
 4463TIP3    H134880   0.848   0.304   5.402 -0.1403 -0.6970 -0.3298
 4463TIP3    H234881   0.900   0.415   5.313 -1.2258  2.2768  2.5294
 4464TIP3   OH234882   4.110   4.315  15.839 -0.4976 -0.2376  0.3629
 4464TIP3    H134883   4.094   4.324  15.745 -2.2520  0.4997  0.6895
 4464TIP3    H234884   4.098   4.403  15.874 -0.7132 -0.6486  1.3786
 4465TIP3   OH234885   5.759   0.013   2.985 -0.3617  0.6678 -0.0297
 4465TIP3    H134886   5.839   0.065   2.979 -0.7207  1.2361  0.0100
 4465TIP3    H234887   5.760  -0.041   2.906  0.4352  0.1140  0.3457
 4466TIP3   OH234888   2.587   4.458  11.308 -0.0590 -0.2051 -0.6521
 4466TIP3    H134889   2.540   4.415  11.237 -0.7771 -0.3822 -0.0772
 4466TIP3    H234890   2.679   4.434  11.295 -0.2487 -0.5972 -1.2600
 4467TIP3   OH234891   0.003   5.655  15.800  0.2390  0.0624  0.4768
 4467TIP3    H134892   0.007   5.658  15.705  1.1709  0.2066  0.5150
 4467TIP3    H234893   0.038   5.569  15.823  0.0205  0.0281  0.6952
 4468TIP3   OH234894   6.502   0.651  15.756  0.2824  0.3474 -0.5929
 4468TIP3    H134895   6.476   0.658  15.847 -1.9066 -4.9926 -0.4592
 4468TIP3    H234896   6.598   0.660  15.757  0.4473 -0.6478  2.4470
 4469TIP3   OH234897   3.008   0.087   1.007  0.1331 -0.4639  0.4401
 4469TIP3    H134898   3.007   0.058   0.916 -0.6184 -1.6751  0.8115
 4469TIP3    H234899   3.069   0.028   1.050 -2.2026 -2.3275  1.4268
 4470TIP3   OH234900   3.227   3.950   1.252  0.4782 -0.4138  0.2076
 4470TIP3    H134901   3.247   3.907   1.169  3.0565  1.3087 -0.1716
 4470TIP3    H234902   3.171   4.024   1.228  2.3375  0.9066 -0.2968
 4471TIP3   OH234903   3.920   0.966  11.360  0.8941 -0.3314 -0.5321
 4471TIP3    H134904   4.002   0.925  11.331  1.0789 -0.5441  0.2483
 4471TIP3    H234905   3.874   0.897  11.407  0.2117 -0.2364 -1.0426
 4472TIP3   OH234906   5.006   2.328  14.843 -0.1145  0.0825 -0.2947
 4472TIP3    H134907   4.948   2.342  14.769  2.4477 -0.4721 -2.5521
 4472TIP3    H234908   5.093   2.349  14.810  1.0982  0.4043  2.7696
 4473TIP3   OH234909   0.063   0.526   2.178  0.1732 -0.1913 -0.3739
 4473TIP3    H134910   0.025   0.585   2.113 -1.5462  0.5163  1.2120
 4473TIP3    H234911   0.065   0.440   2.134 -1.7512  0.0857 -1.0969
 4474TIP3   OH234912   5.951   0.994   1.388 -0.4104  0.4323 -0.8677
 4474TIP3    H134913   5.873   0.967   1.435 -1.0659  1.2759 -1.4545
 4474TIP3    H234914   6.021   0.939   1.425 -0.9347  0.8879  0.9039
 4475TIP3   OH234915   2.107   6.364   1.223  0.0498  0.0342  0.0892
 4475TIP3    H134916   2.067   6.317   1.150  0.2482 -0.0842  0.0560
 4475TIP3    H234917   2.091   6.308   1.299 -0.4889  0.3419  0.1996
 4476TIP3   OH234918   2.211   5.405  14.949 -0.0864  0.0699 -0.1543
 4476TIP3    H134919   2.144   5.380  15.012  0.0510 -2.2658 -0.8608
 4476TIP3    H234920   2.178   5.375  14.865  1.6184 -0.7344 -0.5769
 4477TIP3   OH234921   0.102   4.019  11.509 -0.1487  0.2648 -0.1446
 4477TIP3    H134922   0.128   4.066  11.588  0.1954  0.0993 -0.1578
 4477TIP3    H234923   0.175   3.960  11.491  0.0871  0.7851 -0.9728
 4478TIP3   OH234924   2.569   3.453   6.561  0.2465 -0.2167 -0.1272
 4478TIP3    H134925   2.583   3.547   6.553  1.8616 -0.4235 -0.1363
 4478TIP3    H234926   2.645   3.422   6.611 -1.4357 -1.2068  1.9524
 4479TIP3   OH234927   2.949   6.145  16.304 -0.3959  0.8966 -0.0025
 4479TIP3    H134928   2.869   6.100  16.330  0.6885 -0.0387  1.9030
 4479TIP3    H234929   2.923   6.237  16.292 -2.0813  0.3085 -1.2648
 4480TIP3   OH234930   1.415   6.004   4.479 -0.1744  0.3635  0.2327
 4480TIP3    H134931   1.358   5.970   4.548 -0.2125  2.4328  1.3054
 4480TIP3    H234932   1.359   6.009   4.402 -0.4884 -0.7724  0.3694
 4481TIP3   OH234933   6.199   5.823   6.740  0.4317 -0.3659  0.0798
 4481TIP3    H134934   6.112   5.804   6.706 -0.0412  1.3479  0.2834
 4481TIP3    H234935   6.231   5.738   6.771 -0.7003 -1.2274 -0.9876
 4482TIP3   OH234936   0.852   1.903  15.519 -0.3223  0.5183  0.0978
 4482TIP3    H134937   0.900   1.953  15.453 -2.9013  0.7947 -1.7309
 4482TIP3    H234938   0.842   1.964  15.593 -0.2601  1.4120 -0.6134
 4483TIP3   OH234939   5.991   1.294  16.261  0.1957 -0.0980  0.2127
 4483TIP3    H134940   6.032   1.208  16.267  2.2725  0.5278 -2.6108
 4483TIP3    H234941   6.060   1.356  16.286 -0.9886  0.8214  1.3547
 4484TIP3   OH234942   3.528   2.473  16.528 -0.2482  0.0607  0.8309
 4484TIP3    H134943   3.603   2.414  16.532 -1.0176 -1.1215 -0.8562
 4484TIP3    H234944   3.551   2.537  16.460 -1.0821 -0.8709 -0.3823
 4485TIP3   OH234945   6.270   5.853  15.483  0.1580 -0.5862  0.1462
 4485TIP3    H134946   6.344   5.811  15.528 -0.3446 -2.8821 -1.0268
 4485TIP3    H234947   6.198   5.792  15.494 -1.3662  1.1980  0.4929
 4486TIP3   OH234948   5.432   5.033  13.417  0.5883  0.1801 -0.1101
 4486TIP3    H134949   5.493   4.998  13.482  0.3791 -1.0118 -0.5368
 4486TIP3    H234950   5.485   5.044  13.338  0.9308  1.9736  0.3236
 4487TIP3   OH234951   0.377   5.562  11.780  0.3465 -0.2082 -0.0284
 4487TIP3    H134952   0.358   5.655  11.794 -3.1734 -1.0564  2.0186
 4487TIP3    H234953   0.464   5.550  11.817  0.1751  1.9695  1.2738
 4488TIP3   OH234954   3.340   3.322  12.044  0.1556 -0.8698 -0.5749
 4488TIP3    H134955   3.369   3.409  12.069  1.0170 -0.8502 -1.6123
 4488TIP3    H234956   3.271   3.301  12.108 -0.5154  0.8107 -0.6985
 4489TIP3   OH234957   1.883   3.893   3.978  0.0176  0.2645 -0.1981
 4489TIP3    H134958   1.964   3.940   4.002 -0.4440  0.2586  1.5022
 4489TIP3    H234959   1.813   3.956   3.998 -0.4345  0.2078 -1.5061
 4490TIP3   OH234960   2.309   0.677  12.407  0.6788  0.3761 -0.0372
 4490TIP3    H134961   2.287   0.737  12.336  0.6741  0.2073 -0.1794
 4490TIP3    H234962   2.252   0.704  12.479  0.7438  0.6013 -0.0695
 4491TIP3   OH234963   1.975   3.497   2.207  0.0049  0.3168 -0.3753
 4491TIP3    H134964   1.920   3.475   2.282 -0.5791  0.5359 -0.7354
 4491TIP3    H234965   1.971   3.421   2.150 -0.2313  0.4766 -0.5766
 4492TIP3   OH234966   4.438   1.096  16.909 -0.5988  0.0502  0.1053
 4492TIP3    H134967   4.501   1.033  16.944 -0.0387 -0.7054 -2.0948
 4492TIP3    H234968   4.369   1.100  16.975  2.1443  1.7372  3.1412
 4493TIP3   OH234969   3.056   4.361  14.958 -0.0443 -0.7461 -0.0246
 4493TIP3    H134970   3.108   4.436  14.929  1.2710 -2.0827 -1.2547
 4493TIP3    H234971   2.969   4.378  14.921  0.4635 -0.2321 -1.0354
 4494TIP3   OH234972   2.985   2.467  15.923 -0.1898 -0.0366 -0.2970
 4494TIP3    H134973   2.974   2.372  15.928 -0.4368  0.0002 -0.1650
 4494TIP3    H234974   2.913   2.497  15.868 -0.2957  0.1104 -0.0801
 4495TIP3   OH234975   1.213   3.452   5.316 -0.1959 -0.1883  0.4517
 4495TIP3    H134976   1.294   3.466   5.366  0.9736 -1.2831 -0.9983
 4495TIP3    H234977   1.203   3.531   5.263  0.1480 -0.1907  0.3785
 4496TIP3   OH234978   0.884   0.908  13.681  0.0745  0.3283  0.0905
 4496TIP3    H134979   0.834   0.986  13.658  1.0857  1.4394  1.4474
 4496TIP3    H234980   0.974   0.929  13.655  0.7834  0.6200  2.5491
 4497TIP3   OH234981   2.206   1.717  12.733  0.2547 -0.1997 -0.3141
 4497TIP3    H134982   2.199   1.678  12.821  0.0695 -0.5946 -0.5013
 4497TIP3    H234983   2.191   1.810  12.747 -0.6964 -0.3790 -0.0406
 4498TIP3   OH234984   5.256   3.734   6.147  0.1869  0.0953  0.6427
 4498TIP3    H134985   5.190   3.667   6.129  0.2521  0.3696 -0.7057
 4498TIP3    H234986   5.273   3.726   6.241 -1.7995  0.0654  1.0440
 4499TIP3   OH234987   5.956   0.002   4.686 -0.3553 -0.2261 -0.1755
 4499TIP3    H134988   5.916  -0.075   4.727  0.6550 -0.6207  0.0967
 4499TIP3    H234989   5.919   0.076   4.734 -2.6615 -0.3879 -1.5564
 4500TIP3   OH234990   5.546   6.130   0.830  0.3831 -0.7925 -0.3376
 4500TIP3    H134991   5.498   6.052   0.859  0.6359 -0.3384  1.4426
 4500TIP3    H234992   5.638   6.103   0.835  0.4920 -0.2681  0.7188
 4501TIP3   OH234993   3.527   1.488   1.333 -0.5056 -0.1685  0.1107
 4501TIP3    H134994   3.431   1.483   1.334 -0.4797 -0.9532  0.0003
 4501TIP3    H234995   3.548   1.543   1.258 -0.8619 -0.6876 -0.3844
 4502TIP3   OH234996   3.287   2.360   2.977 -0.3741  0.5146 -0.2849
 4502TIP3    H134997   3.339   2.285   3.005 -0.3549  0.4592 -0.4624
 4502TIP3    H234998   3.208   2.356   3.030  0.5808  1.6702  1.3280
 4503TIP3   OH234999   6.477   5.448   3.515 -0.3353 -0.1598 -0.5472
 4503TIP3    H135000   6.427   5.508   3.460 -1.6770 -1.1326 -0.4336
 4503TIP3    H235001   6.468   5.484   3.604 -0.5477 -0.1453 -0.5738
 4504TIP3   OH235002   0.928   1.038   6.416  0.2052 -0.2063  0.1565
 4504TIP3    H135003   0.838   1.005   6.414  0.9415 -2.4224 -1.9440
 4504TIP3    H235004   0.982   0.959   6.415  2.1686  1.0792  0.1999
 4505TIP3   OH235005   4.026   2.606  14.109  0.5556  0.3570  0.1237
 4505TIP3    H135006   3.948   2.613  14.054  1.4263  1.7827 -1.0174
 4505TIP3    H235007   3.994   2.616  14.198 -0.5104  1.3986 -0.3536
 4506TIP3   OH235008   3.660   4.377  13.183  0.1379  0.3101  0.0536
 4506TIP3    H135009   3.566   4.393  13.192 -0.1591 -1.4685  0.5339
 4506TIP3    H235010   3.673   4.289  13.219  1.3981 -1.0302 -3.3042
 4507TIP3   OH235011   4.696   0.592   3.994  0.2194 -0.0328 -0.0234
 4507TIP3    H135012   4.665   0.565   4.081  1.4362  0.6607  0.6593
 4507TIP3    H235013   4.660   0.527   3.934 -3.8430  1.4791  0.4224
 4508TIP3   OH235014   0.457   2.338   3.660 -0.4218 -0.1722 -0.0132
 4508TIP3    H135015   0.426   2.286   3.734 -0.6810  0.2279  0.1638
 4508TIP3    H235016   0.549   2.316   3.651 -0.3688 -0.1534  0.4864
 4509TIP3   OH235017   1.061   6.329   2.253 -0.0410  0.0414 -0.1204
 4509TIP3    H135018   0.977   6.335   2.299 -0.0136 -0.1486 -0.0456
 4509TIP3    H235019   1.069   6.236   2.229  0.4724 -0.0727  0.4785
 4510TIP3   OH235020   4.499   6.030  13.454 -0.2428 -0.2835 -0.0181
 4510TIP3    H135021   4.482   6.124  13.464 -0.1230 -0.3158  0.5673
 4510TIP3    H235022   4.594   6.023  13.452 -0.2468 -0.4160  0.2215
 4511TIP3   OH235023   1.144   4.608   6.060  0.0051 -0.1871 -0.0658
 4511TIP3    H135024   1.064   4.618   6.009  1.1671  0.9634 -1.7873
 4511TIP3    H235025   1.148   4.687   6.114  0.0637 -0.1321 -0.1489
 4512TIP3   OH235026   6.014   5.880  13.338 -0.0600 -0.4823 -0.6422
 4512TIP3    H135027   6.087   5.941  13.349 -0.5778  0.3446 -1.6214
 4512TIP3    H235028   5.943   5.934  13.305 -0.3901 -1.6963 -2.0021
 4513TIP3   OH235029   1.363   4.338  12.408 -0.3795 -0.2774 -0.0089
 4513TIP3    H135030   1.446   4.289  12.411 -0.1782 -0.2688 -2.7234
 4513TIP3    H235031   1.320   4.317  12.491  0.8885 -2.9129  0.1039
 4514TIP3   OH235032   1.564   2.719  12.009  0.7013  0.0771  0.1743
 4514TIP3    H135033   1.611   2.790  11.967  0.2688  0.0731 -0.3150
 4514TIP3    H235034   1.615   2.641  11.988  0.8404  0.1589  0.2052
 4515TIP3   OH235035   5.111   2.298  13.969  0.2732 -0.5455 -0.4333
 4515TIP3    H135036   5.030   2.344  13.991  1.1705  0.8503  0.0357
 4515TIP3    H235037   5.101   2.212  14.010 -0.3342  0.1523  0.9249
 4516TIP3   OH235038   1.435   2.705   1.432  0.2935  0.0952  0.1713
 4516TIP3    H135039   1.391   2.767   1.374 -1.2536 -1.7223 -0.7344
 4516TIP3    H235040   1.400   2.725   1.519  0.4308  0.9937  0.0286
 4517TIP3   OH235041   3.583   3.815   3.779 -0.2540  0.1922 -0.4485
 4517TIP3    H135042   3.558   3.887   3.721 -2.3712 -0.8185 -0.9005
 4517TIP3    H235043   3.572   3.736   3.727 -1.6356 -0.7008  1.0574
 4518TIP3   OH235044   6.130   0.461   4.930 -0.2168 -0.1173 -0.0145
 4518TIP3    H135045   6.163   0.386   4.882 -0.5436  0.7616 -1.6999
 4518TIP3    H235046   6.201   0.487   4.988  0.7902 -0.2602 -1.1690
 4519TIP3   OH235047   1.004   0.926  11.464  0.2842  0.2747 -0.4112
 4519TIP3    H135048   0.933   0.866  11.441  0.2249  0.5232 -0.9065
 4519TIP3    H235049   1.029   0.965  11.380  1.0038  0.1889 -0.2351
 4520TIP3   OH235050   1.474   6.501   2.637 -1.0165  0.0460 -0.3412
 4520TIP3    H135051   1.480   6.478   2.544 -0.6532 -0.5102 -0.1828
 4520TIP3    H235052   1.509   6.425   2.683 -3.2130 -0.6117  0.3621
 4521TIP3   OH235053   2.634   0.224  12.010  0.3107 -0.6701  0.3556
 4521TIP3    H135054   2.728   0.242  12.013  0.2597 -0.3447  0.0484
 4521TIP3    H235055   2.629   0.128  12.005  0.5583 -0.8303  2.3768
 4522TIP3   OH235056   5.284   5.543   4.080  0.2259 -0.1133  0.3788
 4522TIP3    H135057   5.313   5.601   4.009 -0.7237  0.4752  0.4578
 4522TIP3    H235058   5.364   5.502   4.112  0.9797  1.4589  0.5839
 4523TIP3   OH235059   0.162   6.672   4.971  0.7105  0.0519 -0.6622
 4523TIP3    H135060   0.141   6.620   5.049  1.2557  0.1951 -0.4139
 4523TIP3    H235061   0.102   6.746   4.975  0.2515 -0.3063 -0.7619
 4524TIP3   OH235062   6.015   1.499  16.014 -0.0865 -0.1177 -0.6394
 4524TIP3    H135063   6.089   1.443  16.038 -0.9439 -0.7320  0.6528
 4524TIP3    H235064   5.944   1.438  15.995 -0.7400  0.4993 -0.2143
 4525TIP3   OH235065   0.738   6.660   4.667  0.5753 -0.5112 -0.3336
 4525TIP3    H135066   0.715   6.734   4.610  1.6568 -0.8065 -1.1818
 4525TIP3    H235067   0.778   6.701   4.744  0.3199 -0.1691 -0.3817
 4526TIP3   OH235068   0.245   4.028   2.039 -0.0115 -0.5950 -0.2072
 4526TIP3    H135069   0.175   4.018   2.104  0.3112 -2.5735 -0.1083
 4526TIP3    H235070   0.201   4.066   1.963 -0.8963 -0.4757  0.3499
 4527TIP3   OH235071   0.678   5.724   3.962 -0.9724  0.6182 -0.1161
 4527TIP3    H135072   0.649   5.695   4.049  0.8250  3.7780  1.7413
 4527TIP3    H235073   0.759   5.675   3.947  0.5665  2.4309  1.7009
 4528TIP3   OH235074   2.196   3.009   1.874 -0.3271  0.2549 -0.1268
 4528TIP3    H135075   2.168   2.975   1.959 -2.1408 -1.1496 -1.1775
 4528TIP3    H235076   2.186   2.934   1.815 -0.7175  1.6063 -1.8594
 4529TIP3   OH235077   0.047   5.705   3.024  0.4591 -0.0461  0.1192
 4529TIP3    H135078  -0.020   5.639   3.041  0.7940 -0.5018 -0.3232
 4529TIP3    H235079   0.091   5.675   2.945  1.2866  0.1706  0.4879
 4530TIP3   OH235080   4.723   4.751   1.179 -0.3095  0.0006 -0.6864
 4530TIP3    H135081   4.722   4.808   1.102 -1.5899 -1.2926 -1.6766
 4530TIP3    H235082   4.773   4.674   1.151  0.6656  0.2251  0.3574
 4531TIP3   OH235083   2.998   1.551   6.445  0.3562  0.4415 -0.7676
 4531TIP3    H135084   3.038   1.470   6.475 -1.4854 -0.1719  0.1355
 4531TIP3    H235085   3.073   1.609   6.426  1.6610 -0.4378  1.3523
 4532TIP3   OH235086   6.430   6.024   5.007 -0.2930  0.7463  0.0654
 4532TIP3    H135087   6.336   6.028   5.028  0.0485 -0.0026  1.9158
 4532TIP3    H235088   6.437   5.948   4.949 -0.6070 -0.4473  1.5203
 4533TIP3   OH235089   4.017   0.839  15.985 -0.4646  0.3360 -0.3048
 4533TIP3    H135090   3.988   0.873  15.900 -1.9353 -0.0696  0.0147
 4533TIP3    H235091   4.076   0.907  16.018  0.2740  0.4217 -1.7057
 4534TIP3   OH235092   2.366   4.029  12.199 -0.5264  0.3349 -0.4067
 4534TIP3    H135093   2.316   4.107  12.222 -0.7115  0.5457 -1.4491
 4534TIP3    H235094   2.347   4.015  12.106 -2.5021 -2.3750  0.2660
 4535TIP3   OH235095   6.616   3.461   0.566  0.0198  0.0467 -0.3240
 4535TIP3    H135096   6.576   3.544   0.544 -0.3047 -0.2552 -0.8923
 4535TIP3    H235097   6.601   3.405   0.490  1.0576 -0.2443 -0.3424
 4536TIP3   OH235098   3.008   5.916   0.474 -0.0084  0.2526  0.0477
 4536TIP3    H135099   3.075   5.982   0.459  0.3152 -0.0293  0.2316
 4536TIP3    H235100   2.941   5.961   0.526 -0.0599  0.5923 -0.3123
 4537TIP3   OH235101   4.137   0.049   6.037 -0.0613 -0.2490  0.3990
 4537TIP3    H135102   4.129   0.021   6.128 -0.1048 -1.1985  0.1101
 4537TIP3    H235103   4.049   0.038   6.000 -0.0643  0.2136  0.2612
 4538TIP3   OH235104   2.043   2.480  15.933 -0.0567  0.1697 -0.2317
 4538TIP3    H135105   2.066   2.544  15.866  0.7448  0.8351  0.6506
 4538TIP3    H235106   2.125   2.436  15.954 -0.1616  0.4249  0.7638
 4539TIP3   OH235107   6.384   4.583  13.246 -0.3408  0.1316  0.1924
 4539TIP3    H135108   6.329   4.638  13.301 -0.1741  1.3645 -0.8430
 4539TIP3    H235109   6.407   4.638  13.171  0.5988 -1.0402 -0.4187
 4540TIP3   OH235110   6.725   0.275  14.107 -0.6804  0.2444  0.3582
 4540TIP3    H135111   6.688   0.200  14.155 -1.1880  0.0346 -0.3475
 4540TIP3    H235112   6.820   0.265  14.116 -0.5916 -2.0145 -1.9315
 4541TIP3   OH235113   4.452   5.543   6.897 -0.1952  0.1107 -0.3381
 4541TIP3    H135114   4.530   5.509   6.854 -0.1189 -0.4435  0.2395
 4541TIP3    H235115   4.429   5.621   6.845  0.2976 -0.1467 -0.9598
 4542TIP3   OH235116   3.179   3.453   1.205 -0.3816  0.7703  0.2865
 4542TIP3    H135117   3.125   3.418   1.276  1.0622  0.7349  1.4147
 4542TIP3    H235118   3.155   3.400   1.129 -0.6853 -0.4300  1.1738
 4543TIP3   OH235119   2.756   5.698  15.972 -0.1226  0.8288  0.3513
 4543TIP3    H135120   2.701   5.738  15.905 -1.2323  1.0130  1.3420
 4543TIP3    H235121   2.749   5.758  16.047  1.1664  0.6800  0.6105
 4544TIP3   OH235122   4.140   3.035  11.393  0.3154 -0.7867 -0.2710
 4544TIP3    H135123   4.228   3.006  11.417  0.2675 -1.1123 -0.4827
 4544TIP3    H235124   4.153   3.119  11.350  0.3417  0.1898  1.5773
 4545TIP3   OH235125   1.347   3.461   1.012  0.0732 -0.0172  1.2844
 4545TIP3    H135126   1.328   3.439   1.103 -1.9181 -1.3674  0.6146
 4545TIP3    H235127   1.267   3.505   0.981  0.8353  0.6940  0.2621
 4546TIP3   OH235128   5.371   1.393   4.766  0.2810 -0.3974 -0.5627
 4546TIP3    H135129   5.301   1.436   4.717 -0.2997 -0.7180 -0.0233
 4546TIP3    H235130   5.329   1.359   4.845  0.7815 -1.6479 -0.7990
 4547TIP3   OH235131   1.179   4.326   2.719  0.0880 -0.3211 -0.4227
 4547TIP3    H135132   1.205   4.405   2.673  0.8618  0.7541  1.7006
 4547TIP3    H235133   1.260   4.275   2.727 -0.7082 -2.2591 -3.2677
 4548TIP3   OH235134   4.616   1.304   4.412  0.0070 -0.3851  0.1381
 4548TIP3    H135135   4.599   1.239   4.344  0.2167  0.2780 -0.5586
 4548TIP3    H235136   4.664   1.256   4.479 -1.1864 -1.3318  0.3519
 4549TIP3   OH235137   2.349   4.777  17.209  0.0650 -0.1321  0.3574
 4549TIP3    H135138   2.350   4.690  17.250 -2.7279 -1.2843 -1.6959
 4549TIP3    H235139   2.271   4.819  17.244  0.7581  1.1382  0.4278
 4550TIP3   OH235140   2.456   0.217   0.321 -0.3916 -0.7344  0.1267
 4550TIP3    H135141   2.492   0.143   0.370 -3.2061 -1.7640  0.8402
 4550TIP3    H235142   2.372   0.235   0.364 -0.8711  1.3531 -1.5186
 4551TIP3   OH235143   5.379   3.857   4.385 -0.1142  0.3388  0.6758
 4551TIP3    H135144   5.325   3.787   4.422  1.8604 -1.9314 -0.4359
 4551TIP3    H235145   5.397   3.915   4.459 -2.2445 -0.0155  1.5294
 4552TIP3   OH235146   4.261   2.408  16.917  0.7953  0.0901 -0.2705
 4552TIP3    H135147   4.297   2.466  16.850  1.0464 -1.9792 -2.0451
 4552TIP3    H235148   4.231   2.331  16.868 -0.7485 -0.7236  1.8074
 4553TIP3   OH235149   6.557   4.716   4.361  0.1915 -0.1280 -0.1393
 4553TIP3    H135150   6.624   4.708   4.293  1.9114 -1.7473  1.5979
 4553TIP3    H235151   6.474   4.706   4.315  1.1499  0.9049 -2.2390
 4554TIP3   OH235152   3.049   6.399   4.110  0.7331  0.3077  0.2211
 4554TIP3    H135153   3.103   6.438   4.178  2.7251 -0.8648 -0.6006
 4554TIP3    H235154   3.006   6.325   4.154 -0.0928  1.1316  0.8326
 4555TIP3   OH235155   4.032   3.939  12.852  0.2156 -0.3843  0.2099
 4555TIP3    H135156   3.960   3.882  12.877 -0.7860 -0.4394 -2.3992
 4555TIP3    H235157   3.989   4.015  12.812  1.5904  0.6454  0.6114
 4556TIP3   OH235158   2.003   1.492   2.974  0.3739 -0.6153  0.1441
 4556TIP3    H135159   1.979   1.577   2.936  2.5042  0.0369  0.1305
 4556TIP3    H235160   2.030   1.512   3.063  0.7813 -1.2857  0.1796
 4557TIP3   OH235161   6.088   5.990  14.904 -0.0301  0.4803 -0.3848
 4557TIP3    H135162   6.004   6.035  14.915 -0.6779 -0.6558 -0.5736
 4557TIP3    H235163   6.068   5.898  14.917  1.3567  0.2658  0.4087
 4558TIP3   OH235164   5.746   2.740   6.378  0.1043  0.2611 -0.3194
 4558TIP3    H135165   5.800   2.692   6.440 -1.0474 -0.3103  0.2732
 4558TIP3    H235166   5.668   2.685   6.366  0.1278  0.5242 -1.9968
 4559TIP3   OH235167   5.015   4.432   2.477  0.4121  0.2756  0.0151
 4559TIP3    H135168   4.983   4.487   2.405  1.5869 -0.4327 -1.0836
 4559TIP3    H235169   4.946   4.437   2.543  0.2200  2.6189 -0.2588
 4560TIP3   OH235170   4.462   5.696   3.116  0.9121  0.4539 -0.4161
 4560TIP3    H135171   4.433   5.719   3.204 -1.4231 -0.2941 -0.9317
 4560TIP3    H235172   4.555   5.718   3.115  0.9036  0.8622  2.0920
 4561TIP3   OH235173   3.854   4.842  12.203  0.2685  0.2872  0.2043
 4561TIP3    H135174   3.845   4.793  12.122  0.4079 -0.3298  0.5600
 4561TIP3    H235175   3.786   4.806  12.261  1.8617 -1.1355  1.2833
 4562TIP3   OH235176   5.965   6.160   2.205 -0.0010 -0.5623  0.0143
 4562TIP3    H135177   5.956   6.069   2.233  0.3875 -0.7117 -0.3412
 4562TIP3    H235178   5.897   6.206   2.254 -2.0801 -1.4898 -1.8230
 4563TIP3   OH235179   5.966   0.408  17.029 -0.9579 -0.2898 -0.2535
 4563TIP3    H135180   5.996   0.395  17.119 -1.1499  0.7802 -0.0188
 4563TIP3    H235181   5.871   0.412  17.036 -0.9909 -0.5559 -0.5565
 4564TIP3   OH235182   0.556   2.053   0.003 -0.4769  0.2046  0.7306
 4564TIP3    H135183   0.485   2.110  -0.027 -1.1984 -0.2047  1.5921
 4564TIP3    H235184   0.563   1.986  -0.065 -1.2973 -0.0534  0.8879
 4565TIP3   OH235185   0.943   1.722  16.732 -0.0347  0.3379  0.0716
 4565TIP3    H135186   1.020   1.664  16.727 -0.4428 -0.3615  1.4102
 4565TIP3    H235187   0.869   1.665  16.713 -0.2411  1.0385 -1.3310
 4566TIP3   OH235188   1.877   0.099  13.337  0.4476  0.7027 -0.4572
 4566TIP3    H135189   1.792   0.141  13.325  0.3472  0.6855  0.1822
 4566TIP3    H235190   1.881   0.078  13.430 -1.4871 -4.8432 -1.2640
 4567TIP3   OH235191   2.919   2.896   3.732  0.5110  0.3946 -0.0568
 4567TIP3    H135192   2.896   2.868   3.820 -0.7696 -0.6033 -0.6695
 4567TIP3    H235193   2.848   2.954   3.706 -0.6026 -1.4132 -1.3638
 4568TIP3   OH235194   4.697   2.036   5.021  0.2173  0.5665  0.2617
 4568TIP3    H135195   4.615   1.990   5.004  0.2478  0.5472  0.1641
 4568TIP3    H235196   4.728   2.001   5.104 -1.0681  2.2639  1.5152
 4569TIP3   OH235197   3.588   4.314   4.649 -0.3529 -0.1358 -0.2415
 4569TIP3    H135198   3.529   4.246   4.681 -1.4827  0.7786 -0.3164
 4569TIP3    H235199   3.533   4.371   4.596  0.8836  0.0127 -1.4192
 4570TIP3   OH235200   3.128   4.421   0.926  0.2756 -0.1392  0.4753
 4570TIP3    H135201   3.141   4.393   1.017  0.5048 -1.4622  0.0549
 4570TIP3    H235202   3.048   4.376   0.899  0.0181  0.5229  0.1216
 4571TIP3   OH235203   2.578   6.032   5.548  0.1281 -0.2112 -0.1062
 4571TIP3    H135204   2.573   6.027   5.453  1.4385  3.7411 -0.5584
 4571TIP3    H235205   2.490   6.056   5.576 -0.6098 -2.7021 -0.0739
 4572TIP3   OH235206   0.442   6.314   4.054 -0.3415 -0.3726 -0.6475
 4572TIP3    H135207   0.500   6.282   3.985  0.7424 -1.1644  0.5701
 4572TIP3    H235208   0.361   6.337   4.009  0.7329  0.2833 -2.3350
 4573TIP3   OH235209   4.025   2.833  16.141 -0.3459 -0.2008 -0.7410
 4573TIP3    H135210   3.967   2.830  16.065  0.0327 -2.2152 -1.0047
 4573TIP3    H235211   3.966   2.846  16.215 -0.8268  0.6742 -1.2572
 4574TIP3   OH235212   2.600   2.791  17.278  0.1340  0.1104  0.1334
 4574TIP3    H135213   2.545   2.718  17.250 -1.5941  1.1707  0.6450
 4574TIP3    H235214   2.632   2.830  17.196  0.2047 -0.5637 -0.1642
 4575TIP3   OH235215   0.333   0.671   4.423 -0.4072 -0.0572  0.2108
 4575TIP3    H135216   0.303   0.638   4.338  1.4546  0.9590 -0.9189
 4575TIP3    H235217   0.282   0.751   4.437 -1.8035 -1.0089  0.8448
 4576TIP3   OH235218   1.308   6.433  13.426 -0.1601 -0.3946 -0.7820
 4576TIP3    H135219   1.352   6.516  13.442  0.7402 -0.5980 -2.1053
 4576TIP3    H235220   1.216   6.456  13.416 -0.5943 -0.0444  2.7320
 4577TIP3   OH235221   3.435   0.612  15.531 -0.1031  0.3057 -0.1461
 4577TIP3    H135222   3.387   0.563  15.465  1.3153  1.4031 -2.1025
 4577TIP3    H235223   3.509   0.555  15.554 -0.3229  0.1340  0.1494
 4578TIP3   OH235224   0.607   3.423   3.237  0.1578  0.6060 -0.4973
 4578TIP3    H135225   0.657   3.376   3.304  0.2630 -0.8507 -1.5431
 4578TIP3    H235226   0.662   3.499   3.216  1.6295 -0.5680 -1.0955
 4579TIP3   OH235227   6.520   6.419  11.620  0.0536 -0.1714  0.5336
 4579TIP3    H135228   6.457   6.362  11.665  1.2329 -0.7394  1.5360
 4579TIP3    H235229   6.554   6.364  11.549 -1.6202  0.6393 -0.9740
 4580TIP3   OH235230   3.352   0.826  11.809 -0.2741  0.6002  0.1661
 4580TIP3    H135231   3.333   0.902  11.754 -1.2912  0.2661  0.0298
 4580TIP3    H235232   3.447   0.817  11.806 -0.1168  2.0045  0.3777
 4581TIP3   OH235233   0.795   6.690   1.325  0.1299  0.2231  0.6811
 4581TIP3    H135234   0.890   6.680   1.334  0.1950 -0.3519 -0.4989
 4581TIP3    H235235   0.759   6.644   1.400  0.7885  0.6870  1.2991
 4582TIP3   OH235236   3.717   1.525   3.432  0.1899 -0.3326  0.4807
 4582TIP3    H135237   3.769   1.519   3.352  1.1309 -0.1821  1.0729
 4582TIP3    H235238   3.781   1.520   3.503 -0.5472  0.4572  1.2186
 4583TIP3   OH235239   1.330   1.781   4.101  0.0330  0.3379 -0.1631
 4583TIP3    H135240   1.415   1.743   4.122 -0.2979 -1.6953 -2.1726
 4583TIP3    H235241   1.317   1.764   4.008 -2.4099  0.9026 -0.0093
 4584TIP3   OH235242   3.978   3.576   0.506  0.7433  0.0340  0.4583
 4584TIP3    H135243   3.932   3.543   0.429  0.9902 -1.2606  0.8505
 4584TIP3    H235244   3.925   3.650   0.536  0.3720  0.2283 -0.6491
 4585TIP3   OH235245   6.750   1.753   3.361 -0.1480 -0.2892 -0.2350
 4585TIP3    H135246   6.777   1.663   3.344 -0.5432 -0.2631 -1.0551
 4585TIP3    H235247   6.675   1.745   3.419 -1.2669 -0.5950 -1.6655
 4586TIP3   OH235248   4.156   4.859   0.249 -0.8830  0.5648  0.0011
 4586TIP3    H135249   4.171   4.952   0.230  0.3321  0.3635 -0.1251
 4586TIP3    H235250   4.172   4.814   0.166 -2.5692  0.3234 -0.2222
 4587TIP3   OH235251   5.723   2.817   2.045 -0.3719  0.2061 -0.1439
 4587TIP3    H135252   5.750   2.844   2.133 -1.4342  1.0134 -0.0511
 4587TIP3    H235253   5.629   2.801   2.051 -0.0909 -2.0061 -0.6018
 4588TIP3   OH235254   6.480   1.966  13.972 -0.3454 -0.2892  0.3370
 4588TIP3    H135255   6.553   2.008  13.926 -0.8689 -0.2430 -0.4615
 4588TIP3    H235256   6.522   1.920  14.045  0.5852 -0.9187 -0.5651
 4589TIP3   OH235257   1.061   0.953   0.514  0.6612 -0.3664  0.3894
 4589TIP3    H135258   1.095   1.037   0.485  1.5085 -0.6688  0.4740
 4589TIP3    H235259   0.972   0.948   0.478  0.8882  0.2244 -0.2528
 4590TIP3   OH235260   0.976   6.200  14.054 -0.8505  0.7744  0.3511
 4590TIP3    H135261   0.971   6.203  14.149 -0.9497  1.7858  0.3284
 4590TIP3    H235262   0.885   6.194  14.025 -0.7596 -1.0428  0.3311
 4591TIP3   OH235263   2.053   4.693   0.307  0.0206 -0.1359  0.1256
 4591TIP3    H135264   2.048   4.678   0.213  0.4675  0.6536 -0.0262
 4591TIP3    H235265   2.085   4.610   0.343 -2.8103 -1.4529 -0.0871
 4592TIP3   OH235266   6.524   0.362   3.920  0.3004  0.1973  0.5312
 4592TIP3    H135267   6.569   0.356   3.836 -0.4697 -0.0116  0.1262
 4592TIP3    H235268   6.512   0.271   3.947  0.7870  0.2691  1.0034
 4593TIP3   OH235269   5.338   0.850   0.492  0.0832  0.0852 -0.0615
 4593TIP3    H135270   5.358   0.943   0.481 -0.8938  0.2720 -0.3084
 4593TIP3    H235271   5.376   0.809   0.414 -0.2975  0.4065 -0.4197
 4594TIP3   OH235272   6.187   1.742  15.542  0.3052 -0.3540 -0.4605
 4594TIP3    H135273   6.277   1.716  15.562  0.4363 -0.3014 -0.9656
 4594TIP3    H235274   6.162   1.798  15.615  0.7805 -0.1532 -0.4448
 4595TIP3   OH235275   2.585   4.712   4.831  0.6852 -0.2554  0.7551
 4595TIP3    H135276   2.518   4.644   4.824  0.0450  0.3814  0.5513
 4595TIP3    H235277   2.556   4.767   4.903  0.3165  0.7301 -0.1107
 4596TIP3   OH235278   0.521   0.093   5.760  0.0461 -0.0145  0.1038
 4596TIP3    H135279   0.541   0.021   5.820 -0.7243  0.6059  1.1256
 4596TIP3    H235280   0.592   0.156   5.773 -0.3054  0.2799  0.6428
 4597TIP3   OH235281   5.979   0.525  11.478  0.2513  0.3630 -0.0387
 4597TIP3    H135282   6.051   0.504  11.419  1.1586  0.7443  0.9064
 4597TIP3    H235283   5.932   0.595  11.433  1.2100  0.9767 -0.1164
 4598TIP3   OH235284   5.912   6.738  14.666  0.2598  0.4412  0.3089
 4598TIP3    H135285   5.882   6.778  14.585  1.1025 -2.3248 -1.5144
 4598TIP3    H235286   5.957   6.658  14.638 -1.4216 -1.9005  3.5894
 4599TIP3   OH235287   2.979   5.285   2.630  0.6316  0.1740 -0.4294
 4599TIP3    H135288   2.988   5.380   2.627 -0.4525  0.3190  0.2972
 4599TIP3    H235289   3.043   5.257   2.696  0.3160  0.5007  0.0205
 4600TIP3   OH235290   4.239   4.322   1.700  0.0757 -0.0837  0.1231
 4600TIP3    H135291   4.161   4.329   1.756 -0.7846 -0.3248 -1.0160
 4600TIP3    H235292   4.304   4.279   1.756 -0.6063  0.0949  1.0900
 4601TIP3   OH235293   5.454   1.092  11.843  0.2355  0.1007 -0.4967
 4601TIP3    H135294   5.507   1.152  11.897 -0.9255  0.1700  0.6074
 4601TIP3    H235295   5.404   1.149  11.785  0.5510  0.0852 -0.7907
 4602TIP3   OH235296   6.367   5.114  10.967  0.2989 -0.1749  0.9932
 4602TIP3    H135297   6.344   5.108  10.875 -0.1808 -0.9124  1.1552
 4602TIP3    H235298   6.445   5.059  10.976 -0.8139 -1.7621  1.3907
 4603TIP3   OH235299   5.305   3.357  10.607 -0.1840 -0.2024  0.1284
 4603TIP3    H135300   5.218   3.344  10.645 -0.2276 -0.2027  0.0306
 4603TIP3    H235301   5.314   3.287  10.542 -1.7278  2.0187 -2.7119
 4604TIP3   OH235302   6.277   5.797  16.972  0.0717 -0.1821 -0.2403
 4604TIP3    H135303   6.336   5.835  16.907  1.4009 -0.9352  0.4798
 4604TIP3    H235304   6.231   5.872  17.009  0.2484  0.3824 -1.1273
 4605TIP3   OH235305   4.073   3.833   0.710 -0.4864  0.3453 -0.2266
 4605TIP3    H135306   4.013   3.827   0.635 -2.2146 -0.4896  1.1375
 4605TIP3    H235307   4.159   3.816   0.673 -1.0136  1.8308 -2.3288
 4606TIP3   OH235308   4.564   5.161  11.120 -0.2531 -0.0755  0.6184
 4606TIP3    H135309   4.583   5.114  11.039 -0.0977  1.2398 -0.1480
 4606TIP3    H235310   4.538   5.249  11.091 -0.0244  0.4797  1.9949
 4607TIP3   OH235311   1.521   2.973   6.326  0.1195 -0.0043 -0.7579
 4607TIP3    H135312   1.449   2.927   6.283  0.7724 -0.9983 -0.7936
 4607TIP3    H235313   1.597   2.957   6.271  0.5971  0.1644 -0.1588
 4608TIP3   OH235314   5.104   0.809   5.216  0.3782 -0.1226 -0.2975
 4608TIP3    H135315   5.021   0.762   5.223 -0.4706  1.0270 -1.8390
 4608TIP3    H235316   5.155   0.780   5.292 -0.7750 -2.1092 -0.2006
 4609TIP3   OH235317   4.964   1.530  11.046  0.5049  0.0850 -0.9631
 4609TIP3    H135318   4.946   1.601  11.108  1.4171  0.1110 -0.7208
 4609TIP3    H235319   4.924   1.560  10.964 -0.4223  0.1979 -0.4835
 4610TIP3   OH235320   4.320   5.962  14.692 -0.3070  0.0166  0.5487
 4610TIP3    H135321   4.406   5.997  14.717 -0.2422  0.3399 -0.1161
 4610TIP3    H235322   4.258   6.029  14.723 -0.1118  1.4157 -1.8333
 4611TIP3   OH235323   0.729   5.390  11.340  0.1221 -0.0247 -0.2467
 4611TIP3    H135324   0.770   5.393  11.254  2.7122 -1.3359  0.8416
 4611TIP3    H235325   0.791   5.432  11.398 -1.2569  0.1934  1.1397
 4612TIP3   OH235326   2.783   0.901  12.426 -0.6530  0.3827  0.2278
 4612TIP3    H135327   2.743   0.920  12.511 -1.6994  0.3391 -0.2339
 4612TIP3    H235328   2.708   0.886  12.367  0.0477  0.4478 -0.7070
 4613TIP3   OH235329   0.266   5.557   3.809 -0.2833 -0.4139  0.0114
 4613TIP3    H135330   0.211   5.521   3.879 -1.2635  0.2248 -0.4026
 4613TIP3    H235331   0.214   5.629   3.773  1.0761  0.5757 -0.0391
 4614TIP3   OH235332   3.932   4.211  13.473  0.3805  0.1486  0.8380
 4614TIP3    H135333   3.880   4.234  13.550 -1.9703  0.6324 -0.7993
 4614TIP3    H235334   3.977   4.292  13.449 -1.2564  0.8539  0.0071
 4615TIP3   OH235335   4.289   2.682  14.088  0.4246 -0.0952  0.4058
 4615TIP3    H135336   4.355   2.650  14.150 -0.0230 -0.7839  0.5304
 4615TIP3    H235337   4.210   2.634  14.110  0.2260 -0.2687 -0.6392
 4616TIP3   OH235338   3.076   2.124  11.622  0.0321 -0.0996  0.0337
 4616TIP3    H135339   3.053   2.122  11.715 -1.2409  1.0543 -0.2120
 4616TIP3    H235340   3.080   2.032  11.595  1.3259 -0.4838  1.4120
 4617TIP3   OH235341   0.805   6.241   4.233  0.2290 -0.0128 -0.0824
 4617TIP3    H135342   0.720   6.198   4.220  0.3671 -0.4171  0.2999
 4617TIP3    H235343   0.783   6.325   4.273  0.0022 -0.0976 -0.0246
 4618TIP3   OH235344   0.638   4.755   1.572 -0.2141 -0.4700 -0.2446
 4618TIP3    H135345   0.679   4.672   1.597 -1.4945 -1.3540 -1.0209
 4618TIP3    H235346   0.712   4.815   1.560  0.6341 -0.3988  3.8672
 4619TIP3   OH235347   1.917   0.054   0.145  0.1702  0.0886  0.1872
 4619TIP3    H135348   1.948  -0.026   0.102 -0.7675  0.1596 -0.6628
 4619TIP3    H235349   1.985   0.119   0.125  0.5948 -0.3203  0.2878
 4620TIP3   OH235350   3.746   2.676  14.163 -0.1563 -0.3462 -0.6308
 4620TIP3    H135351   3.651   2.690  14.169 -0.4795 -2.0216 -1.2096
 4620TIP3    H235352   3.759   2.587  14.197  1.3307  0.1487  0.1924
 4621TIP3   OH235353   6.606   5.183  11.180 -0.2722  0.5527  0.6110
 4621TIP3    H135354   6.554   5.248  11.134  0.2313  1.1149  0.8189
 4621TIP3    H235355   6.613   5.109  11.119 -1.0776  0.5806  0.4835
 4622TIP3   OH235356   1.720   3.094  16.516 -0.2519  0.1039 -0.2108
 4622TIP3    H135357   1.816   3.092  16.508 -0.2653 -1.9859 -0.3793
 4622TIP3    H235358   1.690   3.124  16.430  0.2386  2.4554  0.3631
 4623TIP3   OH235359   5.424   2.992  13.261 -0.3613 -0.6846 -0.0385
 4623TIP3    H135360   5.383   3.052  13.198  0.0649 -0.2499  0.0884
 4623TIP3    H235361   5.451   2.917  13.209 -2.0017 -1.3358 -0.0007
 4624TIP3   OH235362   5.978   1.228   3.377 -0.0978 -0.1467 -0.4566
 4624TIP3    H135363   5.979   1.323   3.379  0.9254 -0.1573  0.5107
 4624TIP3    H235364   6.068   1.203   3.357 -0.6475 -0.9233 -2.1476
 4625TIP3   OH235365   2.752   1.572   3.081 -0.3109  0.1079  0.6412
 4625TIP3    H135366   2.694   1.530   3.017 -0.1874  3.0183 -1.5734
 4625TIP3    H235367   2.698   1.640   3.121  1.0514  1.8110 -0.2940
 4626TIP3   OH235368   4.787   1.144  12.795  0.1673  0.4000  0.2538
 4626TIP3    H135369   4.715   1.118  12.738 -1.1832  2.5934  0.8080
 4626TIP3    H235370   4.860   1.087  12.770 -1.2472 -0.7449 -1.5258
 4627TIP3   OH235371   4.134   4.275  17.206  0.0464  0.0416  0.1095
 4627TIP3    H135372   4.066   4.215  17.173 -0.1403  0.0345  0.5084
 4627TIP3    H235373   4.216   4.236  17.178 -0.0524 -0.6530  0.7767
 4628TIP3   OH235374   4.312   4.955   2.911 -0.6369 -0.0940  0.2174
 4628TIP3    H135375   4.286   4.925   2.998 -1.9641 -0.7525 -0.3769
 4628TIP3    H235376   4.260   4.902   2.851 -0.2511  0.8244 -0.9690
 4629TIP3   OH235377   0.377   3.140  17.114  0.4511 -0.0149  0.3415
 4629TIP3    H135378   0.449   3.186  17.072  1.2754 -0.1709  1.5385
 4629TIP3    H235379   0.312   3.209  17.131  0.3418  0.1371 -0.6715
 4630TIP3   OH235380   1.364   0.950  12.135 -0.2879  0.7598 -0.0224
 4630TIP3    H135381   1.384   1.044  12.131  2.3650  0.2899  0.4497
 4630TIP3    H235382   1.440   0.908  12.095 -0.6436 -1.2712  1.3310
 4631TIP3   OH235383   1.497   4.257   4.224  0.0765  0.1014  0.0219
 4631TIP3    H135384   1.575   4.298   4.262 -0.3452 -0.3803  1.4535
 4631TIP3    H235385   1.512   4.261   4.129  2.0579 -0.4009  0.2696
 4632TIP3   OH235386   2.768   5.086  11.651  0.7289  0.2378  0.2389
 4632TIP3    H135387   2.771   5.139  11.572  1.9457  0.1918  0.2345
 4632TIP3    H235388   2.856   5.048  11.658  0.0904 -1.2491  0.5996
 4633TIP3   OH235389   5.953   4.639   4.856 -0.1721  0.4818 -0.2235
 4633TIP3    H135390   5.914   4.682   4.781  0.7854  1.0834 -0.4028
 4633TIP3    H235391   5.898   4.664   4.930 -0.3040  1.0598 -0.5125
 4634TIP3   OH235392   3.904   5.872  13.680 -0.3682 -0.0779  0.3455
 4634TIP3    H135393   3.942   5.846  13.763 -1.1914 -0.9189  0.4710
 4634TIP3    H235394   3.980   5.892  13.624  0.2689 -1.8067  0.5531
 4635TIP3   OH235395   3.458   5.146   1.796 -0.2018  0.9597 -0.9520
 4635TIP3    H135396   3.440   5.209   1.727  0.3579  0.2496 -1.7788
 4635TIP3    H235397   3.539   5.103   1.768 -0.7551 -0.3687 -0.6054
 4636TIP3   OH235398   3.729   6.792   0.624 -0.0862  0.1148  0.2046
 4636TIP3    H135399   3.749   6.707   0.585  0.5425  0.4339 -0.1725
 4636TIP3    H235400   3.754   6.856   0.558 -0.9206  0.5931  0.3336
 4637TIP3   OH235401   0.378   2.853  13.456 -0.0455  0.3760 -0.1466
 4637TIP3    H135402   0.347   2.890  13.538 -1.4934 -2.6956  0.8474
 4637TIP3    H235403   0.473   2.859  13.460  0.0578 -1.5115  2.7858
 4638TIP3   OH235404   1.968   1.457   5.473  0.4573  0.1990  0.7263
 4638TIP3    H135405   2.056   1.471   5.438  0.7260 -2.1909  0.2918
 4638TIP3    H235406   1.983   1.420   5.560 -0.1193 -0.5060  0.5280
 4639TIP3   OH235407   3.063   4.035   2.091  0.1220  0.0794  0.0415
 4639TIP3    H135408   3.128   4.077   2.035  0.4306 -0.2057  0.1897
 4639TIP3    H235409   2.983   4.033   2.038  0.3544  0.0108 -0.3012
 4640TIP3   OH235410   3.207   0.326   3.139 -0.4305  0.4875 -0.2028
 4640TIP3    H135411   3.302   0.323   3.126 -0.5849 -0.2300 -1.2019
 4640TIP3    H235412   3.197   0.357   3.229  0.7545  0.2589  0.0251
 4641TIP3   OH235413   2.699   3.839   3.595  0.2040 -0.3713  0.6078
 4641TIP3    H135414   2.783   3.843   3.641  0.4912 -0.1117  0.0689
 4641TIP3    H235415   2.635   3.867   3.660  0.4432 -1.2027  1.2245
 4642TIP3   OH235416   3.973   1.173  17.163  0.5036  0.0305 -0.5479
 4642TIP3    H135417   4.002   1.104  17.223 -0.1726 -0.1583 -0.4322
 4642TIP3    H235418   3.999   1.254  17.206 -1.0438 -0.0428  0.6195
 4643TIP3   OH235419   0.454   6.010  17.056  0.4671  0.0205 -1.1396
 4643TIP3    H135420   0.424   6.101  17.057  1.6937  0.4428 -1.0684
 4643TIP3    H235421   0.503   6.002  16.974  1.0166 -0.3533 -0.7782
 4644TIP3   OH235422   1.225   5.167  14.993  0.2914  0.1526 -0.4483
 4644TIP3    H135423   1.284   5.129  15.058  0.9532  0.9678 -0.5475
 4644TIP3    H235424   1.201   5.094  14.936 -0.3630 -0.5895  0.7484
 4645TIP3   OH235425   2.553   3.323  15.201  0.1595 -0.2449  0.2140
 4645TIP3    H135426   2.641   3.359  15.215  0.7437  0.1689 -3.4484
 4645TIP3    H235427   2.498   3.369  15.264  2.0368  1.9615  0.3844
 4646TIP3   OH235428   1.227   4.836  17.112  0.7549  0.0693 -0.2892
 4646TIP3    H135429   1.137   4.865  17.099  0.8616 -0.2185 -1.8586
 4646TIP3    H235430   1.220   4.742  17.130  0.6750  0.2944  0.9766
 4647TIP3   OH235431   2.086   1.006  10.503  0.2962 -0.0186  0.2633
 4647TIP3    H135432   1.999   1.044  10.491  0.6916  0.3999 -1.5788
 4647TIP3    H235433   2.092   0.940  10.435  1.1235 -0.6229  0.9111
 4648TIP3   OH235434   4.983   5.232  16.462 -0.1216  0.6517  0.0386
 4648TIP3    H135435   4.891   5.252  16.479 -0.3879  0.8430 -1.5442
 4648TIP3    H235436   5.031   5.291  16.520 -0.9858  0.6054  0.8226
 4649TIP3   OH235437   5.729   0.686  15.209  0.5780 -0.5128 -0.2520
 4649TIP3    H135438   5.784   0.719  15.137  0.9537 -1.0081 -0.2036
 4649TIP3    H235439   5.688   0.607  15.173  0.1877 -0.3477 -0.1654
 4650TIP3   OH235440   0.517   6.519  11.609 -0.4737 -0.2045  0.0300
 4650TIP3    H135441   0.497   6.466  11.686  3.2226  0.8804  1.9775
 4650TIP3    H235442   0.516   6.609  11.641  2.8357  0.1783 -0.5932
 4651TIP3   OH235443   1.259   3.044  16.784  0.1592 -0.4615  0.8983
 4651TIP3    H135444   1.257   2.972  16.721  2.5537  2.2077 -2.6551
 4651TIP3    H235445   1.346   3.038  16.823  0.2906  0.3082  0.7435
 4652TIP3   OH235446   2.402   0.853  16.175  0.2379 -0.4855  0.1508
 4652TIP3    H135447   2.423   0.827  16.085  0.8886 -1.1362  0.4774
 4652TIP3    H235448   2.485   0.845  16.222 -0.2246 -0.7717  0.9478
 4653TIP3   OH235449   0.683   4.279   5.705 -0.5614 -1.0151  0.0168
 4653TIP3    H135450   0.706   4.337   5.777 -0.7892 -2.3711  1.2258
 4653TIP3    H235451   0.594   4.306   5.680 -0.2590 -0.1594 -0.1602
 4654TIP3   OH235452   2.082   3.024   3.939 -0.5558 -0.2905  0.1450
 4654TIP3    H135453   1.990   3.047   3.929 -0.4304 -0.1244 -0.7398
 4654TIP3    H235454   2.082   2.944   3.991 -1.2115 -0.4475 -0.0983
 4655TIP3   OH235455   2.145   2.885   3.089  0.1810 -0.2376  0.3951
 4655TIP3    H135456   2.131   2.907   2.997  0.1743 -3.1298 -0.4079
 4655TIP3    H235457   2.059   2.855   3.120  0.0645  1.1542  1.5314
 4656TIP3   OH235458   2.156   6.074  14.936  0.4192 -0.7609 -0.2268
 4656TIP3    H135459   2.163   6.055  15.030 -1.6942  0.1963  0.1906
 4656TIP3    H235460   2.120   5.994  14.898  0.8741 -1.0055 -0.1416
 4657TIP3   OH235461   6.202   0.323  15.435 -0.0476  0.0871 -0.1523
 4657TIP3    H135462   6.173   0.295  15.348 -0.6665 -1.7863  0.6135
 4657TIP3    H235463   6.207   0.418  15.429 -0.4524  0.0273 -2.1190
 4658TIP3   OH235464   0.838   2.747   4.713  0.2157  0.1768 -0.9296
 4658TIP3    H135465   0.757   2.707   4.681 -0.3150  1.2100 -0.9150
 4658TIP3    H235466   0.809   2.808   4.781  1.1155 -0.2419 -0.1502
 4659TIP3   OH235467   5.304   5.736  16.102 -0.2421 -0.6345 -0.0056
 4659TIP3    H135468   5.389   5.722  16.143  0.3285 -1.2863 -1.3131
 4659TIP3    H235469   5.283   5.651  16.062 -1.0473 -0.2091 -0.5204
 4660TIP3   OH235470   5.730   3.965   6.026  0.2333  0.0898 -0.2222
 4660TIP3    H135471   5.646   3.935   6.060  1.2694 -1.7646  0.8236
 4660TIP3    H235472   5.757   4.035   6.085  0.6194 -1.0863  1.0266
 4661TIP3   OH235473   5.605   2.405   4.317 -0.1276 -0.4386  0.3935
 4661TIP3    H135474   5.529   2.364   4.358 -0.1625  0.4626  1.2804
 4661TIP3    H235475   5.638   2.466   4.383  1.3569 -0.7830  0.0248
 4662TIP3   OH235476   0.560   4.294  10.887  0.3679  0.4115  0.0530
 4662TIP3    H135477   0.577   4.289  10.981  1.1395  0.4737 -0.0827
 4662TIP3    H235478   0.574   4.386  10.865  1.8503  0.0959 -0.4256
 4663TIP3   OH235479   3.057   2.080   1.311 -0.2871  0.0066 -0.4707
 4663TIP3    H135480   3.046   1.992   1.347 -1.0938 -0.1592 -1.0763
 4663TIP3    H235481   2.968   2.116   1.310 -0.2129  0.1973 -1.7867
 4664TIP3   OH235482   6.344   2.827  13.344 -0.6887 -0.3859 -0.2405
 4664TIP3    H135483   6.280   2.758  13.327 -0.8429 -0.6527  1.2571
 4664TIP3    H235484   6.362   2.821  13.438  1.6346 -0.3815 -0.6192
 4665TIP3   OH235485   1.404   0.991  10.898 -0.3012 -0.3639  0.2302
 4665TIP3    H135486   1.407   0.909  10.849  1.0051 -0.1507 -0.0857
 4665TIP3    H235487   1.337   1.043  10.855  0.5460 -0.3372 -1.1100
 4666TIP3   OH235488   4.600   5.322  12.652  0.6392  0.2339  0.2630
 4666TIP3    H135489   4.597   5.387  12.723 -0.4493 -0.2325  0.6667
 4666TIP3    H235490   4.509   5.317  12.621  0.9503 -0.1834 -0.6116
 4667TIP3   OH235491   0.307   2.189   3.871  0.5102  0.5961  0.2285
 4667TIP3    H135492   0.286   2.243   3.947 -0.6356  0.9176 -0.2871
 4667TIP3    H235493   0.224   2.178   3.825  0.3795 -2.7850  1.0062
 4668TIP3   OH235494   1.332   0.788   3.982 -0.7947 -0.2504 -0.2136
 4668TIP3    H135495   1.282   0.778   4.064  1.1289 -1.9189  0.8674
 4668TIP3    H235496   1.288   0.730   3.920 -1.0368 -0.6321  0.3061
 4669TIP3   OH235497   6.783   6.475  14.544  0.2097  0.1462  0.5713
 4669TIP3    H135498   6.800   6.560  14.583 -0.3767  1.1640 -1.2548
 4669TIP3    H235499   6.687   6.468  14.542  0.2469 -0.7138  0.9733
 4670TIP3   OH235500   1.250   3.923   4.938  0.3068 -0.2054  0.2063
 4670TIP3    H135501   1.274   3.962   4.854 -0.0658  2.8640  1.3910
 4670TIP3    H235502   1.177   3.865   4.917 -0.2995  1.1031 -1.5282
 4671TIP3   OH235503   0.026   5.455  14.123  0.4561 -0.5225  0.0140
 4671TIP3    H135504  -0.014   5.439  14.038 -1.2457  1.3935  0.3589
 4671TIP3    H235505   0.075   5.537  14.111 -1.3277  0.8145  1.2519
 4672TIP3   OH235506   1.762   5.593   4.756  0.6428 -0.1303 -0.0508
 4672TIP3    H135507   1.718   5.536   4.693 -2.5576  2.7770 -0.7574
 4672TIP3    H235508   1.729   5.565   4.841 -1.6312  1.0100 -0.4607
 4673TIP3   OH235509   3.502   6.097  15.219  0.2498 -0.3310 -0.6358
 4673TIP3    H135510   3.530   6.052  15.139  0.1842  0.1616 -0.9385
 4673TIP3    H235511   3.503   6.190  15.196  0.5219 -0.1615  0.0250
 4674TIP3   OH235512   4.201   6.381   2.545 -0.3985  0.0490  0.0886
 4674TIP3    H135513   4.246   6.455   2.586 -0.3762 -0.2939  0.6981
 4674TIP3    H235514   4.268   6.314   2.537 -0.9942 -0.8440  1.9633
 4675TIP3   OH235515   5.476   6.344  14.127 -0.5393  0.0454  0.0107
 4675TIP3    H135516   5.423   6.273  14.090 -0.3644  1.2551 -2.8371
 4675TIP3    H235517   5.413   6.409  14.157 -0.6813 -0.2584  0.3727
 4676TIP3   OH235518   2.655   6.760   4.414 -0.7269 -0.3367  0.0210
 4676TIP3    H135519   2.637   6.765   4.320 -1.6737  0.1828  0.2204
 4676TIP3    H235520   2.746   6.729   4.419 -1.0935 -1.6779 -1.0461
 4677TIP3   OH235521   5.497   2.845   1.099  0.0889  0.4483  0.2759
 4677TIP3    H135522   5.496   2.763   1.149 -0.0133 -0.6384 -1.4369
 4677TIP3    H235523   5.413   2.846   1.053  1.2602  0.0249 -1.9970
 4678TIP3   OH235524   4.736   6.492  14.195 -0.2776 -0.8443 -0.0821
 4678TIP3    H135525   4.672   6.462  14.130 -1.7479 -0.5092  1.1509
 4678TIP3    H235526   4.701   6.461  14.279  0.3280  0.7479  0.8044
 4679TIP3   OH235527   1.353   0.394  14.841 -0.0710 -0.3093  0.3124
 4679TIP3    H135528   1.442   0.377  14.871 -0.5149 -2.1014  0.6844
 4679TIP3    H235529   1.361   0.471  14.785  1.7238 -0.5374  0.2185
 4680TIP3   OH235530   2.740   0.081  12.809  0.2740 -0.1766 -0.3768
 4680TIP3    H135531   2.774   0.170  12.801  1.6684 -0.5337  1.1316
 4680TIP3    H235532   2.655   0.092  12.852 -0.2159  0.4921 -1.4633
 4681TIP3   OH235533   0.222   1.604  17.119 -0.0599 -0.4100  0.6238
 4681TIP3    H135534   0.239   1.524  17.169 -0.9572 -1.8672 -1.2834
 4681TIP3    H235535   0.128   1.602  17.102  0.0097  0.7404  0.0234
 4682TIP3   OH235536   0.986   4.414  12.192 -0.1628  0.3408 -0.3367
 4682TIP3    H135537   0.984   4.355  12.266  0.3746 -1.0460 -1.3847
 4682TIP3    H235538   0.906   4.466  12.199 -1.0837 -1.1131  0.1343
 4683TIP3   OH235539   4.522   4.493  13.895  0.1947 -0.2067  0.1422
 4683TIP3    H135540   4.505   4.491  13.989 -0.0687  0.2227  0.1070
 4683TIP3    H235541   4.603   4.544  13.886 -0.8697  1.5564  0.0043
 4684TIP3   OH235542   4.958   0.120  10.950 -0.4647  0.4541 -0.1176
 4684TIP3    H135543   4.875   0.078  10.974  0.1760 -0.5501  0.4509
 4684TIP3    H235544   4.991   0.067  10.878  0.2882  0.0549  0.5114
 4685TIP3   OH235545   1.178   2.227  14.823 -0.0778  0.4404 -0.0082
 4685TIP3    H135546   1.114   2.165  14.787 -0.1647 -1.3639  2.8514
 4685TIP3    H235547   1.127   2.307  14.839 -0.2703  0.9067 -2.6287
 4686TIP3   OH235548   6.763   1.550  16.434 -0.5468  0.1712 -0.6633
 4686TIP3    H135549   6.694   1.507  16.382 -3.1446  0.6688  2.0653
 4686TIP3    H235550   6.774   1.493  16.510 -1.4637  2.3756  1.2652
 4687TIP3   OH235551   2.124   1.421   1.596  0.4799 -0.5159  0.3483
 4687TIP3    H135552   2.053   1.449   1.539 -2.3942 -0.9752  3.3644
 4687TIP3    H235553   2.165   1.502   1.626 -0.0703 -0.1323  0.0691
 4688TIP3   OH235554   5.397   0.581  13.530  0.1610 -0.0659 -0.2948
 4688TIP3    H135555   5.485   0.610  13.554  0.1194 -1.1005  1.2180
 4688TIP3    H235556   5.371   0.521  13.600 -1.4042 -0.4710 -1.1729
 4689TIP3   OH235557   6.345   1.013  11.601 -0.7586  1.2088 -0.3897
 4689TIP3    H135558   6.430   1.030  11.560 -0.2169  1.4799  0.8062
 4689TIP3    H235559   6.315   0.932  11.561  0.6430  0.4448  0.0460
 4690TIP3   OH235560   3.545   3.547  13.859 -0.1827  0.4538  0.7160
 4690TIP3    H135561   3.585   3.487  13.796  1.8589  1.2189  1.2181
 4690TIP3    H235562   3.527   3.493  13.936  2.1200  0.5298  1.3616
 4691TIP3   OH235563   5.848   2.437  14.540 -0.3836  0.0950 -0.2014
 4691TIP3    H135564   5.845   2.344  14.514  1.3504  0.4023 -1.7556
 4691TIP3    H235565   5.884   2.482  14.464  0.7897  1.7485  1.2335
 4692TIP3   OH235566   2.288   3.568  14.097  0.3348  0.0466 -0.0670
 4692TIP3    H135567   2.366   3.602  14.054  0.0243 -0.5724 -1.1630
 4692TIP3    H235568   2.299   3.591  14.189  0.8587  1.7435 -0.5022
 4693TIP3   OH235569   0.372   2.806   5.423  0.5449 -0.1564  0.0414
 4693TIP3    H135570   0.394   2.811   5.516  1.3405 -1.3601 -0.0648
 4693TIP3    H235571   0.277   2.820   5.420  0.6120  0.6433  0.9480
 4694TIP3   OH235572   1.748   5.010  13.968 -0.5875  0.0927  0.2731
 4694TIP3    H135573   1.694   5.076  14.011  1.3446 -0.9234  4.8699
 4694TIP3    H235574   1.697   4.929  13.974 -1.1207  0.2975 -1.2660
 4695TIP3   OH235575   2.635   1.314  10.855 -0.0360 -0.5256  0.9704
 4695TIP3    H135576   2.587   1.274  10.783 -0.8412  0.9068  0.6645
 4695TIP3    H235577   2.721   1.334  10.819  1.0447 -3.5024  1.6444
 4696TIP3   OH235578   4.771   2.471  16.531 -0.1879 -0.0867 -0.5112
 4696TIP3    H135579   4.727   2.405  16.585  0.1693  0.8799  1.0087
 4696TIP3    H235580   4.855   2.431  16.508 -0.3594 -0.5245 -0.3787
 4697TIP3   OH235581   4.744   1.570  11.933  0.1999 -0.1060 -0.1362
 4697TIP3    H135582   4.667   1.595  11.985 -0.3866 -2.6596  0.3596
 4697TIP3    H235583   4.744   1.631  11.859 -1.7815  0.5370  0.3245
 4698TIP3   OH235584   4.070   1.899  11.341  0.2912 -0.3078 -0.5194
 4698TIP3    H135585   4.136   1.838  11.375  1.1707  0.4774 -0.8003
 4698TIP3    H235586   4.097   1.984  11.374 -1.0322 -0.0740  0.0152
 4699TIP3   OH235587   3.068   1.010   4.308  0.2238  0.3631  0.4639
 4699TIP3    H135588   3.088   1.102   4.292  1.3839  0.2526  1.2070
 4699TIP3    H235589   3.086   0.967   4.225  1.4259  0.5417  0.6133
 4700TIP3   OH235590   3.184   4.029   6.098 -0.1777 -0.6200 -0.4478
 4700TIP3    H135591   3.132   3.950   6.114 -1.1867 -0.2771 -1.8136
 4700TIP3    H235592   3.238   4.039   6.177  0.2244 -2.8322 -0.3836
 4701TIP3   OH235593   5.660   1.332  14.440 -0.1055  0.0915  0.2551
 4701TIP3    H135594   5.570   1.351  14.412 -0.3265 -0.3025  0.6747
 4701TIP3    H235595   5.715   1.391  14.388 -0.6527  0.7492  0.4160
 4702TIP3   OH235596   4.789   4.857   6.197 -0.3340  0.2452 -0.2392
 4702TIP3    H135597   4.718   4.898   6.245  0.9898  1.5387  0.7171
 4702TIP3    H235598   4.848   4.824   6.265 -0.3435 -1.4490 -1.0006
 4703TIP3   OH235599   4.264   1.483   3.947 -0.2980  0.1388  0.5222
 4703TIP3    H135600   4.253   1.483   3.852 -2.2568 -1.3400  0.6857
 4703TIP3    H235601   4.336   1.544   3.963  0.8987 -0.4793 -1.9902
 4704TIP3   OH235602   1.413   4.185   0.023 -0.0383  0.4158 -0.0335
 4704TIP3    H135603   1.449   4.237  -0.049 -0.5691 -0.7780 -1.2016
 4704TIP3    H235604   1.405   4.247   0.096  0.6918  1.6103 -0.9322
 4705TIP3   OH235605   4.238   1.307   4.823 -0.4816  0.6132  0.0974
 4705TIP3    H135606   4.304   1.253   4.867 -0.6636  0.7202  0.5078
 4705TIP3    H235607   4.195   1.247   4.763 -0.8697  0.2215  0.7498
 4706TIP3   OH235608   1.578   1.372  12.665 -0.2561 -0.3187  0.3329
 4706TIP3    H135609   1.543   1.294  12.622 -0.5109 -0.6270  1.0632
 4706TIP3    H235610   1.520   1.443  12.637 -1.0587 -0.6987  0.9538
 4707TIP3   OH235611   0.675   6.279  13.031  0.3749  0.1021  0.4642
 4707TIP3    H135612   0.602   6.255  13.089 -0.8544  1.0179 -0.6373
 4707TIP3    H235613   0.727   6.341  13.083 -0.0597  0.0351  1.0011
 4708TIP3   OH235614   5.688   1.499   2.017  0.0174 -0.5915  0.4682
 4708TIP3    H135615   5.701   1.408   1.989  1.7362 -0.7795  1.7401
 4708TIP3    H235616   5.767   1.544   1.989 -1.4183  0.9255 -1.4583
 4709TIP3   OH235617   6.217   0.328   4.280  0.2552  0.5376 -0.0015
 4709TIP3    H135618   6.224   0.294   4.191  0.7977  0.3522  0.1063
 4709TIP3    H235619   6.203   0.422   4.268  1.0568  0.6345 -0.2890
 4710TIP3   OH235620   3.400   4.912  12.901 -0.4776  0.3061  0.8269
 4710TIP3    H135621   3.382   4.832  12.853 -1.3340 -0.7840  2.8455
 4710TIP3    H235622   3.345   4.978  12.859 -0.2637 -0.2973 -0.4473
 4711TIP3   OH235623   0.895   6.027  16.877  0.4068  0.2051 -0.0815
 4711TIP3    H135624   0.956   6.101  16.865  1.3440 -0.5267  0.0107
 4711TIP3    H235625   0.922   5.988  16.960 -0.5451  0.1797  0.2229
 4712TIP3   OH235626   2.151   4.967  13.062 -0.5223  0.7219  0.1166
 4712TIP3    H135627   2.152   5.059  13.037 -0.4121  0.3365 -1.3501
 4712TIP3    H235628   2.239   4.951  13.097  0.0719  0.7356 -1.3254
 4713TIP3   OH235629   1.215   3.935   0.664  0.2789  0.2749 -0.2859
 4713TIP3    H135630   1.122   3.935   0.685  0.8162 -0.1015  2.4887
 4713TIP3    H235631   1.223   3.996   0.591 -2.3921 -1.4841 -2.2279
 4714TIP3   OH235632   4.779   4.747   6.633  0.4470  0.2490 -0.2649
 4714TIP3    H135633   4.766   4.804   6.709  0.7685 -0.3122  0.2207
 4714TIP3    H235634   4.751   4.661   6.663  2.9949 -0.5347  0.0728
 4715TIP3   OH235635   4.422   1.586  16.858 -0.2038  0.1014  0.3275
 4715TIP3    H135636   4.430   1.549  16.770 -1.6410  0.5712 -0.0278
 4715TIP3    H235637   4.502   1.638  16.870  0.6871 -1.1307 -0.1135
 4716TIP3   OH235638   2.394   6.522   4.645  0.3481 -0.1423  0.1460
 4716TIP3    H135639   2.365   6.461   4.577  0.1601 -1.6623  1.5149
 4716TIP3    H235640   2.360   6.607   4.618  0.6624 -0.6148 -1.8658
 4717TIP3   OH235641   6.078   5.737  13.095  0.1463 -0.0644 -0.1318
 4717TIP3    H135642   6.104   5.826  13.072 -0.3378  0.0686 -0.1911
 4717TIP3    H235643   6.059   5.742  13.189 -0.2585 -0.0056 -0.2134
 4718TIP3   OH235644   1.372   3.834   3.711 -0.1971 -0.8798 -0.5689
 4718TIP3    H135645   1.290   3.879   3.688 -0.1189 -0.9862 -1.0653
 4718TIP3    H235646   1.390   3.862   3.800 -0.5893 -0.5741 -0.5818
 4719TIP3   OH235647   3.148   0.676   2.994  0.1929  0.2605 -0.0404
 4719TIP3    H135648   3.188   0.616   2.931 -0.3986  1.5375 -1.7028
 4719TIP3    H235649   3.074   0.714   2.946  0.4926  2.2356  0.9784
 4720TIP3   OH235650   1.193   6.735  13.482 -0.2642  0.1260 -0.0815
 4720TIP3    H135651   1.264   6.724  13.546  0.8657  1.1640 -1.0899
 4720TIP3    H235652   1.170   6.828  13.488 -2.4445 -0.4294  1.0902
 4721TIP3   OH235653   1.594   0.577  13.220 -0.0968 -0.2593  0.3349
 4721TIP3    H135654   1.581   0.649  13.159  1.8539  0.9597  1.2793
 4721TIP3    H235655   1.578   0.498  13.168  3.8759  0.5617 -2.5827
 4722TIP3   OH235656   5.938   2.522   3.338 -0.0625 -0.6092 -0.2600
 4722TIP3    H135657   5.950   2.430   3.362 -1.2717 -0.8543 -0.5557
 4722TIP3    H235658   5.861   2.551   3.387  0.6258  0.4243  0.2648
 4723TIP3   OH235659   2.849   5.708   5.327 -0.4529  0.0518  0.8950
 4723TIP3    H135660   2.842   5.750   5.241  1.6315  1.4604  1.3337
 4723TIP3    H235661   2.938   5.673   5.329 -0.4124  0.1613  2.5141
 4724TIP3   OH235662   0.269   4.410  13.462  0.6943 -0.7766  0.1030
 4724TIP3    H135663   0.293   4.335  13.409  2.8959  0.0106 -0.1483
 4724TIP3    H235664   0.184   4.438  13.429  0.9833 -1.6605 -1.4576
 4725TIP3   OH235665   6.108   4.007  13.639 -0.2811 -0.0677  0.0868
 4725TIP3    H135666   6.182   4.014  13.700 -1.5009  1.0243  1.5328
 4725TIP3    H235667   6.073   4.096  13.633 -2.1638 -0.7323  0.3866
 4726TIP3   OH235668   2.336   1.573  13.825 -0.1697  0.2482  0.0984
 4726TIP3    H135669   2.319   1.606  13.913 -0.7983 -1.2838  0.5853
 4726TIP3    H235670   2.257   1.524  13.802 -0.2761  1.1298 -1.5971
 4727TIP3   OH235671   4.319   6.242  13.665  0.0959  0.0499  0.1854
 4727TIP3    H135672   4.268   6.217  13.588  1.3988  0.7618 -0.9556
 4727TIP3    H235673   4.284   6.327  13.691 -0.3468 -0.1907  0.3696
 4728TIP3   OH235674   0.794   1.897  11.474 -0.0271 -0.3700  0.2061
 4728TIP3    H135675   0.785   1.919  11.381 -0.5117 -0.4783  0.2210
 4728TIP3    H235676   0.762   1.974  11.520 -0.9660 -0.7781  0.2652
 4729TIP3   OH235677   2.830   1.286   4.247 -0.3700 -0.1702 -0.0807
 4729TIP3    H135678   2.907   1.303   4.192  0.8751  0.7433  1.8277
 4729TIP3    H235679   2.798   1.373   4.271 -1.7274 -0.5455 -0.4083
 4730TIP3   OH235680   5.430   4.108   3.147 -0.0622 -0.8729 -0.4605
 4730TIP3    H135681   5.477   4.030   3.119 -1.0906 -1.3440 -0.9399
 4730TIP3    H235682   5.435   4.107   3.242  0.8181 -0.9511 -0.5032
 4731TIP3   OH235683   4.431   1.976   1.380  0.1971 -0.1748  0.2136
 4731TIP3    H135684   4.512   1.982   1.329  0.6364 -1.8949  0.6461
 4731TIP3    H235685   4.391   1.893   1.353 -0.8868  0.1491  0.7655
 4732TIP3   OH235686   6.233   2.353   0.093 -1.0118 -0.6831  0.5746
 4732TIP3    H135687   6.296   2.339   0.164 -1.2474 -2.3394  0.4980
 4732TIP3    H235688   6.170   2.282   0.103 -1.5323 -0.4350 -0.7858
 4733TIP3   OH235689   0.075   1.031   5.460  0.1214  0.6000 -0.0515
 4733TIP3    H135690   0.071   0.937   5.438 -1.9726  0.7482 -0.5411
 4733TIP3    H235691   0.075   1.033   5.556 -2.8528  0.0541  0.0661
 4734TIP3   OH235692   6.056   4.037  16.441 -0.5304  0.8876  0.3282
 4734TIP3    H135693   6.059   3.941  16.442 -0.8465  0.8250 -1.2264
 4734TIP3    H235694   5.964   4.058  16.419 -0.9302  1.6092  2.5056
 4735TIP3   OH235695   6.010   5.074   4.981 -0.0798  0.7275  0.0271
 4735TIP3    H135696   6.053   5.157   5.001  0.4862  0.4075  0.1806
 4735TIP3    H235697   5.926   5.078   5.028 -0.0507  1.2018  0.0406
 4736TIP3   OH235698   4.366   0.532  17.119  0.3264 -0.0182  0.2676
 4736TIP3    H135699   4.453   0.529  17.077  0.5097 -0.8379  0.6933
 4736TIP3    H235700   4.340   0.441  17.127 -1.5267  0.2444 -1.7594
 4737TIP3   OH235701   5.296   1.330  11.697  0.4113 -0.0931 -0.0999
 4737TIP3    H135702   5.300   1.311  11.603 -2.0071  0.7453 -0.4268
 4737TIP3    H235703   5.293   1.426  11.702  0.9337 -0.1128  0.8854
 4738TIP3   OH235704   3.798   1.998  14.756 -0.0087 -0.4015  1.1535
 4738TIP3    H135705   3.813   2.075  14.701  0.4679 -0.6810  0.8900
 4738TIP3    H235706   3.806   1.924  14.696  0.6892 -0.7192  1.6316
 4739TIP3   OH235707   0.134   0.829   5.682  0.2283 -0.1853  0.5933
 4739TIP3    H135708   0.054   0.830   5.735 -0.0473 -1.5272  0.2362
 4739TIP3    H235709   0.195   0.886   5.730 -0.5944  0.0397  1.4105
 4740TIP3   OH235710   6.357   2.067  14.815  0.4326 -0.8137 -0.1293
 4740TIP3    H135711   6.435   2.117  14.838  1.2221 -1.5705 -1.0599
 4740TIP3    H235712   6.388   1.977  14.807 -0.8526 -1.3796  0.9627
 4741TIP3   OH235713   2.904   4.990   2.173  0.0476 -0.4636 -0.1414
 4741TIP3    H135714   2.811   4.996   2.196  0.0565 -0.5046 -0.0954
 4741TIP3    H235715   2.950   5.022   2.250  0.0816 -0.7193 -0.0569
 4742TIP3   OH235716   3.258   5.771  16.872 -0.0403 -0.8423  0.0878
 4742TIP3    H135717   3.166   5.766  16.899 -0.3224  1.4964 -0.2597
 4742TIP3    H235718   3.307   5.760  16.953 -0.7373  0.4685  0.7247
 4743TIP3   OH235719   0.949   1.643  16.286  0.3453 -0.1233 -0.1386
 4743TIP3    H135720   1.044   1.639  16.291  0.4099 -1.4873 -1.4878
 4743TIP3    H235721   0.928   1.606  16.200 -1.4262 -0.3272  0.3281
 4744TIP3   OH235722   4.065   1.729   3.198 -0.1288  0.7075 -0.1998
 4744TIP3    H135723   4.023   1.657   3.151  3.2278 -0.4117 -1.8296
 4744TIP3    H235724   3.995   1.793   3.212 -2.4380 -1.2100 -2.0888
 4745TIP3   OH235725   4.766   3.538  14.733  0.2110 -0.0225 -0.2491
 4745TIP3    H135726   4.816   3.460  14.757 -0.1747  0.2321  1.4931
 4745TIP3    H235727   4.675   3.515  14.750 -0.1594  0.0367 -1.9680
 4746TIP3   OH235728   4.628   2.618  16.059 -0.2845  0.8840 -0.1102
 4746TIP3    H135729   4.592   2.706  16.049  1.2309  1.4249 -1.0025
 4746TIP3    H235730   4.720   2.626  16.034  0.0774 -0.7931  0.5643
 4747TIP3   OH235731   0.158   1.760   0.948  0.5863  0.5779 -0.4298
 4747TIP3    H135732   0.159   1.833   0.885 -3.6941  1.3809  0.1684
 4747TIP3    H235733   0.143   1.802   1.033  0.1497 -0.8838  0.2418
 4748TIP3   OH235734   2.871   6.799   3.245  0.0823  0.6076  0.5218
 4748TIP3    H135735   2.966   6.794   3.260 -0.1127 -0.8798  1.3655
 4748TIP3    H235736   2.851   6.721   3.194 -1.1815 -1.0280  3.2942
 4749TIP3   OH235737   0.761   6.003  11.401  0.0648  0.2401 -0.0103
 4749TIP3    H135738   0.715   5.939  11.346 -0.1623  0.3938 -0.0012
 4749TIP3    H235739   0.732   6.088  11.368 -0.7127  0.3319  0.8720
 4750TIP3   OH235740   6.185   1.475  16.388 -0.1566 -0.5364  0.0034
 4750TIP3    H135741   6.226   1.560  16.373 -1.9997  0.3667 -0.2089
 4750TIP3    H235742   6.151   1.480  16.477 -0.8035 -0.8007 -0.2199
 4751TIP3   OH235743   5.696   2.556   3.466  0.6838 -0.0373 -1.0799
 4751TIP3    H135744   5.610   2.593   3.487  1.8505  1.7660  0.9723
 4751TIP3    H235745   5.696   2.470   3.508  0.0622  0.1640 -0.6486
 4752TIP3   OH235746   1.848   0.113  16.718 -0.5467 -0.3751 -0.0034
 4752TIP3    H135747   1.842   0.161  16.800  1.7469  0.3568 -0.2032
 4752TIP3    H235748   1.774   0.052  16.721 -1.3226  0.5683  1.9597
 4753TIP3   OH235749   3.381   6.059  12.304  0.1100  0.2053  0.2187
 4753TIP3    H135750   3.401   5.998  12.233 -0.6617  0.8348 -0.5589
 4753TIP3    H235751   3.449   6.125  12.300  1.4227 -0.9991  1.5792
 4754TIP3   OH235752   4.329   5.426  12.522 -0.0206  0.7651 -0.6874
 4754TIP3    H135753   4.297   5.348  12.567  3.8425 -0.3625  0.5265
 4754TIP3    H235754   4.308   5.499  12.581  0.0527  0.0447  0.2522
 4755TIP3   OH235755   0.589   5.430   3.410  0.0622  0.0778 -0.5667
 4755TIP3    H135756   0.500   5.451   3.381  0.9239  1.8609 -2.1973
 4755TIP3    H235757   0.585   5.434   3.506 -1.8566 -1.1985 -0.5328
 4756TIP3   OH235758   0.045   1.014   1.322  0.4034 -0.2115  0.2471
 4756TIP3    H135759   0.131   0.972   1.327 -0.0126 -0.9469  1.6827
 4756TIP3    H235760   0.065   1.107   1.312  1.3775 -0.3531  0.7569
 4757TIP3   OH235761   5.577   3.171  14.276  0.2916  0.2358  0.6625
 4757TIP3    H135762   5.565   3.204  14.188  1.4283 -0.5038  0.2078
 4757TIP3    H235763   5.657   3.117  14.271 -0.6475 -1.3299  1.6919
 4758TIP3   OH235764   4.132   1.551   1.224 -0.1571 -0.1426 -0.0277
 4758TIP3    H135765   4.067   1.481   1.235 -1.5744  0.9331 -1.1458
 4758TIP3    H235766   4.203   1.510   1.175 -0.2842 -1.1652  0.6046
 4759TIP3   OH235767   5.195   5.637  13.223  0.3928  0.2170 -0.2314
 4759TIP3    H135768   5.102   5.643  13.202  0.0658 -3.5467 -0.5873
 4759TIP3    H235769   5.200   5.649  13.317 -0.5484  0.0343 -0.1559
 4760TIP3   OH235770   0.101   2.849  12.756  0.1771  0.7099 -0.4632
 4760TIP3    H135771   0.173   2.795  12.790  0.2531  0.6989 -0.6437
 4760TIP3    H235772   0.134   2.939  12.763  0.0901  0.7268 -0.2591
 4761TIP3   OH235773   5.562   4.565   1.684  0.1408 -0.2039  0.2219
 4761TIP3    H135774   5.473   4.578   1.716 -0.6910 -1.6812 -1.3061
 4761TIP3    H235775   5.585   4.649   1.644 -0.2504  0.4356  1.2934
 4762TIP3   OH235776   2.522   0.884   4.488  0.4520  0.7553  0.0400
 4762TIP3    H135777   2.448   0.895   4.428  0.4436 -1.5533 -0.4681
 4762TIP3    H235778   2.534   0.971   4.527 -2.1021  1.3663 -0.3327
 4763TIP3   OH235779   5.418   0.594  13.955  0.2853 -0.4786  0.1552
 4763TIP3    H135780   5.386   0.612  14.044 -0.7360 -1.3688 -0.0158
 4763TIP3    H235781   5.351   0.631  13.898 -0.3731 -2.1555 -0.2108
 4764TIP3   OH235782   5.411   4.084   5.030  0.3727  0.0087 -0.3145
 4764TIP3    H135783   5.372   4.119   4.950  1.5547 -0.2093 -1.0265
 4764TIP3    H235784   5.488   4.035   4.999 -1.0162 -3.0226  0.6224
 4765TIP3   OH235785   0.274   2.944  13.686  0.0461 -0.1195  0.6034
 4765TIP3    H135786   0.214   2.899  13.744 -0.8441  0.7599  0.3984
 4765TIP3    H235787   0.312   3.014  13.740 -1.4897  1.3033 -0.0558
 4766TIP3   OH235788   1.929   3.809  12.215  1.0285 -0.1152 -0.0968
 4766TIP3    H135789   1.902   3.797  12.306 -0.3896  0.3966 -0.4230
 4766TIP3    H235790   2.023   3.826  12.220  0.7089  1.5791  1.4452
 4767TIP3   OH235791   3.947   5.739   0.780 -0.3469  0.0992 -0.2541
 4767TIP3    H135792   3.865   5.692   0.796 -0.3384  0.0468 -0.3671
 4767TIP3    H235793   4.012   5.693   0.834 -0.3956  0.1516 -0.1507
 4768TIP3   OH235794   2.122   3.899   4.702 -0.0386 -0.1286 -0.8797
 4768TIP3    H135795   2.199   3.921   4.649  1.2143  0.0144  0.9035
 4768TIP3    H235796   2.135   3.807   4.725  1.2502  0.6433  1.8865
 4769TIP3   OH235797   5.904   4.637  14.917  0.4801  0.0359  0.4260
 4769TIP3    H135798   5.932   4.726  14.896 -1.2706  0.6449  0.4366
 4769TIP3    H235799   5.935   4.622  15.006  0.9509  0.5745  0.3555
 4770TIP3   OH235800   2.505   3.385   0.639  0.1240 -0.4057  0.1439
 4770TIP3    H135801   2.488   3.376   0.732 -2.0032  0.7511 -0.0667
 4770TIP3    H235802   2.600   3.384   0.631  0.4141 -4.1545  1.8749
 4771TIP3   OH235803   0.988   2.641  16.461  0.1183  0.3946  0.0953
 4771TIP3    H135804   0.956   2.556  16.433  1.0099  0.5974 -1.6857
 4771TIP3    H235805   1.060   2.622  16.521 -1.1781 -0.0557  1.5825
 4772TIP3   OH235806   3.201   6.754  12.739  0.0490  0.1358  0.5581
 4772TIP3    H135807   3.134   6.812  12.776  1.1977  1.2260  1.0095
 4772TIP3    H235808   3.195   6.674  12.791  0.2197  0.8572  1.7351
 4773TIP3   OH235809   4.712   0.845  11.950  0.3983 -0.0054  0.6456
 4773TIP3    H135810   4.660   0.770  11.979 -0.1866  0.0391 -0.2487
 4773TIP3    H235811   4.740   0.821  11.861 -2.5332  2.1424 -1.0147
 4774TIP3   OH235812   4.914   2.073  14.605 -0.0357  0.2699  0.3182
 4774TIP3    H135813   4.860   1.994  14.610  1.8088 -0.9938  1.7576
 4774TIP3    H235814   4.853   2.145  14.617 -1.6899 -0.9548 -0.3707
 4775TIP3   OH235815   6.238   5.066   0.718  0.1562  0.4804  0.2929
 4775TIP3    H135816   6.324   5.032   0.694  0.3034  0.9594  0.1168
 4775TIP3    H235817   6.219   5.133   0.652 -0.6219 -0.0307 -0.0256
 4776TIP3   OH235818   0.065   4.302   4.953  0.3150 -0.0458 -0.0284
 4776TIP3    H135819  -0.023   4.301   4.916  0.8012 -0.3281 -1.2251
 4776TIP3    H235820   0.119   4.342   4.885  1.1785 -0.2420  0.5282
 4777TIP3   OH235821   5.812   4.106  13.441 -0.1728 -0.5185  0.6279
 4777TIP3    H135822   5.852   4.134  13.359  1.7332 -0.8769  1.3753
 4777TIP3    H235823   5.852   4.162  13.508  0.1288 -1.8097  1.5712
 4778TIP3   OH235824   3.285   6.587   0.672  0.1524  0.5137 -0.1687
 4778TIP3    H135825   3.264   6.528   0.745  0.8336  0.7206  0.2028
 4778TIP3    H235826   3.202   6.633   0.655 -0.0211  0.4531  0.4671
 4779TIP3   OH235827   3.824   1.544   4.116 -0.4471 -0.6251  0.3793
 4779TIP3    H135828   3.743   1.495   4.101 -0.6556  0.3278 -1.9863
 4779TIP3    H235829   3.796   1.622   4.163 -1.1354  0.2200 -1.3434
 4780TIP3   OH235830   4.953   0.190  16.871 -0.4084  0.0566  0.2541
 4780TIP3    H135831   5.036   0.218  16.832 -0.6864  0.1932 -0.2543
 4780TIP3    H235832   4.949   0.235  16.955 -0.4116  0.8131 -0.1391
 4781TIP3   OH235833   3.171   2.567  15.731 -0.2102 -0.1755 -0.2279
 4781TIP3    H135834   3.111   2.518  15.788 -0.1573 -1.0810 -0.9350
 4781TIP3    H235835   3.158   2.658  15.757 -0.9227 -0.4757  0.5454
 4782TIP3   OH235836   4.150   1.384   2.662 -0.1414 -0.0673 -0.4941
 4782TIP3    H135837   4.072   1.338   2.692 -0.7720  0.1751 -1.6994
 4782TIP3    H235838   4.194   1.322   2.604  1.2755 -0.6835  1.1738
 4783TIP3   OH235839   3.289   1.634   2.428 -0.1725 -0.5500  0.1784
 4783TIP3    H135840   3.362   1.687   2.459  2.0348 -2.8886 -0.6471
 4783TIP3    H235841   3.272   1.666   2.339  0.5882 -0.6745 -0.0156
 4784TIP3   OH235842   3.172   4.453   3.890  0.3759  0.3246  0.5127
 4784TIP3    H135843   3.229   4.448   3.813  0.2224  1.5682  0.3011
 4784TIP3    H235844   3.210   4.523   3.942 -1.1469  1.3941  0.2151
 4785TIP3   OH235845   2.899   2.624  11.582  0.0491  0.3545 -0.3494
 4785TIP3    H135846   2.873   2.659  11.667 -0.3278 -0.5713 -0.0781
 4785TIP3    H235847   2.894   2.529  11.592 -0.3292  0.2367 -1.5001
 4786TIP3   OH235848   4.854   6.634  12.898 -0.6805 -0.0171  0.5364
 4786TIP3    H135849   4.764   6.650  12.926 -0.1315  1.9164  1.3610
 4786TIP3    H235850   4.858   6.539  12.883 -2.9637 -0.0848 -0.0143
 4787TIP3   OH235851   6.416   0.359  12.515  0.1816 -0.8564 -0.0897
 4787TIP3    H135852   6.387   0.450  12.524  0.3409 -0.6904 -1.1897
 4787TIP3    H235853   6.499   0.364  12.468  0.0684 -1.5865 -0.3802
 4788TIP3   OH235854   5.354   3.779  16.334  0.4017  0.6957  0.1038
 4788TIP3    H135855   5.284   3.818  16.282  0.4122  1.1090  0.3909
 4788TIP3    H235856   5.312   3.756  16.417  0.3095 -0.2644 -0.2026
 4789TIP3   OH235857   0.301   0.980  14.488 -0.1469  0.6009 -0.1300
 4789TIP3    H135858   0.331   0.891  14.467  0.1150  0.4023  0.9961
 4789TIP3    H235859   0.375   1.037  14.465  0.4960  0.2908  1.0278
 4790TIP3   OH235860   4.812   5.963   3.271 -0.1288 -0.1573 -0.0966
 4790TIP3    H135861   4.859   6.004   3.198  1.3054  1.3565  1.5759
 4790TIP3    H235862   4.723   5.950   3.238  0.3630  0.8769 -1.9590
 4791TIP3   OH235863   2.915   1.077   1.069 -0.2775  0.4200 -0.0702
 4791TIP3    H135864   2.923   0.982   1.076 -0.1362  0.3522 -0.9690
 4791TIP3    H235865   2.880   1.105   1.153  1.0118 -0.2747  0.7389
 4792TIP3   OH235866   5.447   4.839  14.794  0.6076 -0.5141  0.1956
 4792TIP3    H135867   5.479   4.777  14.859 -0.4960 -1.7887 -0.4230
 4792TIP3    H235868   5.410   4.911  14.845  1.2175 -0.7181  0.9388
 4793TIP3   OH235869   2.953   1.044  10.052 -0.0320 -0.0999  0.4708
 4793TIP3    H135870   3.045   1.059  10.072  0.1114  0.0256 -0.2339
 4793TIP3    H235871   2.954   0.972   9.989 -0.5295 -1.1780  1.6520
 4794TIP3   OH235872   1.674   0.353   0.222  0.1069  0.2721  0.1130
 4794TIP3    H135873   1.599   0.398   0.262 -0.3088 -0.8456  0.6186
 4794TIP3    H235874   1.637   0.275   0.182  0.9626 -0.1273  0.0764
 4795TIP3   OH235875   1.808   1.102   0.688  0.0019 -0.1413  0.2389
 4795TIP3    H135876   1.763   1.018   0.690 -2.1463  0.8490 -1.4177
 4795TIP3    H235877   1.737   1.167   0.688  1.5667  1.8290  3.4074
 4796TIP3   OH235878   0.044   0.114  15.225 -0.4218 -0.0719  0.5398
 4796TIP3    H135879   0.088   0.147  15.147  0.8615  0.5202  1.4757
 4796TIP3    H235880   0.046   0.188  15.286  0.5253 -1.1668  1.8990
 4797TIP3   OH235881   4.778   6.302   6.045  0.9602 -0.2242  0.5473
 4797TIP3    H135882   4.800   6.243   6.116  1.6180 -0.7632 -0.0907
 4797TIP3    H235883   4.696   6.268   6.009  0.3829  0.3158  1.3222
 4798TIP3   OH235884   3.978   1.187  11.557 -0.0079  1.0184 -0.2162
 4798TIP3    H135885   3.990   1.196  11.652 -0.5556 -1.4084  0.1347
 4798TIP3    H235886   3.898   1.136  11.548  0.8547 -0.1071 -1.9466
 4799TIP3   OH235887   1.745   0.065   2.327  0.5044 -0.1568  0.0634
 4799TIP3    H135888   1.766   0.013   2.404 -1.3838 -0.0240  0.7198
 4799TIP3    H235889   1.790   0.149   2.341 -1.7724  0.8116  2.3245
 4800TIP3   OH235890   0.826   6.260   2.395 -0.1467  0.0298 -0.4523
 4800TIP3    H135891   0.873   6.201   2.336 -0.4260 -0.5536 -0.1019
 4800TIP3    H235892   0.829   6.215   2.480 -0.0668  0.6858 -0.1069
 4801TIP3   OH235893   4.743   6.074   2.733 -0.3936  0.8880 -0.4297
 4801TIP3    H135894   4.801   6.141   2.698  0.2607  0.3903 -0.3206
 4801TIP3    H235895   4.733   6.011   2.661  0.5724  0.1082  0.0862
 4802TIP3   OH235896   3.664   2.423  15.286  0.2702 -0.1688  0.3474
 4802TIP3    H135897   3.625   2.336  15.286 -3.7063  1.3791  0.2101
 4802TIP3    H235898   3.653   2.454  15.196 -2.1064  1.7733  1.1743
 4803TIP3   OH235899   2.604   5.874  12.327 -0.0756  0.2157  0.2122
 4803TIP3    H135900   2.637   5.825  12.252 -1.0345  1.2439 -0.9271
 4803TIP3    H235901   2.642   5.830  12.403  1.1812 -0.6703 -0.8771
 4804TIP3   OH235902   6.143   2.664   6.141  0.4438  0.0857  0.2584
 4804TIP3    H135903   6.109   2.598   6.081  0.3163  0.5066 -0.1458
 4804TIP3    H235904   6.176   2.615   6.216 -3.4783 -0.3138  1.9996
 4805TIP3   OH235905   4.966   1.105  16.468 -0.1467 -0.4055  0.2930
 4805TIP3    H135906   4.870   1.112  16.466 -0.0451  1.9573 -1.4846
 4805TIP3    H235907   4.984   1.018  16.433 -1.6528 -0.2881 -0.9143
 4806TIP3   OH235908   1.618   5.639  11.220 -0.2661 -0.7676  0.5128
 4806TIP3    H135909   1.523   5.623  11.214 -0.5309  0.7370  0.3673
 4806TIP3    H235910   1.648   5.636  11.129 -0.3758 -0.1223  0.4532
 4807TIP3   OH235911   4.930   2.131   0.374 -0.6369  0.1623  0.5972
 4807TIP3    H135912   4.950   2.092   0.289 -3.0458 -1.0159  0.5065
 4807TIP3    H235913   4.910   2.222   0.355  0.9223  0.4566  0.2347
 4808TIP3   OH235914   5.927   0.116  11.535  0.0708  0.2203 -0.5577
 4808TIP3    H135915   5.897   0.043  11.481 -0.1167  0.3093 -0.5741
 4808TIP3    H235916   6.003   0.150  11.489  0.3296 -0.1403 -0.4045
 4809TIP3   OH235917   5.796   0.297  12.192 -0.0085 -0.1270 -0.5168
 4809TIP3    H135918   5.849   0.264  12.264  0.3067  1.0408 -0.1877
 4809TIP3    H235919   5.715   0.246  12.196 -0.4648  0.6574  1.3913
 4810TIP3   OH235920   0.802   2.964  13.755  0.4924 -0.5141  0.2142
 4810TIP3    H135921   0.774   2.930  13.670  2.3451  0.5994 -0.9127
 4810TIP3    H235922   0.795   3.059  13.746  2.0990 -0.3138  0.7561
 4811TIP3   OH235923   3.965   3.774   2.863 -0.0361 -0.2853  0.4638
 4811TIP3    H135924   3.917   3.854   2.884 -1.1228 -0.6046 -0.7008
 4811TIP3    H235925   4.005   3.748   2.946  0.2383  1.3739  0.9053
 4812TIP3   OH235926   5.166   4.983  16.366  0.2007  0.6542  0.2237
 4812TIP3    H135927   5.087   5.018  16.406 -0.6915 -0.8569 -0.1368
 4812TIP3    H235928   5.201   4.922  16.430  0.1992  0.1554 -0.2413
 4813TIP3   OH235929   6.643   5.987  11.626 -0.1711 -0.4926  0.4220
 4813TIP3    H135930   6.719   5.939  11.660 -0.1100 -0.4470  0.3499
 4813TIP3    H235931   6.659   6.078  11.653 -0.4671 -0.5733  0.8818
 4814TIP3   OH235932   5.903   5.664  11.547 -0.6752 -0.2484  0.4453
 4814TIP3    H135933   5.830   5.665  11.608 -0.5545 -1.3145  0.6226
 4814TIP3    H235934   5.862   5.657  11.461 -0.8481  1.3515  0.3559
 4815TIP3   OH235935   2.183   2.720  17.175  0.2914  0.3500 -0.4867
 4815TIP3    H135936   2.241   2.681  17.241 -0.3831 -0.9759 -0.6577
 4815TIP3    H235937   2.195   2.665  17.097  0.2935  1.2755 -1.1579
 4816TIP3   OH235938   3.321   2.073   3.383 -0.1688  0.1138 -0.2967
 4816TIP3    H135939   3.228   2.086   3.401  0.1155  1.6097  0.1808
 4816TIP3    H235940   3.346   2.148   3.330  0.1411 -1.7103 -2.9490
 4817TIP3   OH235941   4.609   0.185  13.806 -0.2475  0.4061 -0.4592
 4817TIP3    H135942   4.699   0.152  13.807  0.1650  1.4821 -0.5322
 4817TIP3    H235943   4.563   0.125  13.747  0.3568 -0.3144 -0.2130
 4818TIP3   OH235944   3.417   4.035   5.916  1.0946 -0.2637  0.4457
 4818TIP3    H135945   3.458   3.974   5.977  1.4601  1.2345  1.7707
 4818TIP3    H235946   3.335   4.060   5.958  0.6894 -0.2638 -0.3349
 4819TIP3   OH235947   5.611   2.157  13.705 -0.4928  0.9092 -0.7993
 4819TIP3    H135948   5.625   2.112  13.788  3.8194  2.1412 -0.6380
 4819TIP3    H235949   5.515   2.162  13.696 -1.1354 -0.6068  3.2773
 4820TIP3   OH235950   3.060   3.173  14.183 -0.5931 -0.1811  0.0714
 4820TIP3    H135951   3.071   3.090  14.137 -2.1999 -0.6475  0.4706
 4820TIP3    H235952   3.017   3.149  14.265 -1.3190  1.0567  0.0805
 4821TIP3   OH235953   3.964   2.697  14.455 -0.2877 -0.1692  0.1099
 4821TIP3    H135954   3.934   2.712  14.545 -0.7757 -1.4666  0.1842
 4821TIP3    H235955   3.912   2.758  14.402 -1.9939 -1.2754  0.4212
 4822TIP3   OH235956   4.848   0.926  14.952  0.0441  0.2174  0.5384
 4822TIP3    H135957   4.806   0.918  15.038 -0.8759 -0.0971  0.0708
 4822TIP3    H235958   4.932   0.882  14.962 -0.4968 -0.7512  0.9841
 4823TIP3   OH235959   0.730   2.581  14.044 -0.1455  0.6840  0.4172
 4823TIP3    H135960   0.686   2.643  13.985 -2.9212 -0.3411  1.2320
 4823TIP3    H235961   0.732   2.499  13.994  2.8989  1.1586 -0.3986
 4824TIP3   OH235962   3.000   0.059   5.072  0.3374  0.4443  0.3278
 4824TIP3    H135963   3.093   0.077   5.091  0.6845  0.7062 -1.4731
 4824TIP3    H235964   2.997  -0.036   5.058  0.4879  0.5307 -0.3268
 4825TIP3   OH235965   2.838   3.086   5.155 -0.1825  0.2484  0.2539
 4825TIP3    H135966   2.786   3.028   5.100  1.3239 -0.1837 -0.7752
 4825TIP3    H235967   2.841   3.041   5.240 -0.7838 -0.1211  0.0860
 4826TIP3   OH235968   0.416   4.458   2.354 -0.2407  0.0108 -0.0338
 4826TIP3    H135969   0.375   4.382   2.313  0.2037  0.0824 -0.6196
 4826TIP3    H235970   0.462   4.502   2.282  3.7091 -1.8681  1.0553
 4827TIP3   OH235971   2.163   0.248   4.077 -0.5095 -0.5943  0.0940
 4827TIP3    H135972   2.105   0.246   4.001 -0.5864 -1.6001  0.1636
 4827TIP3    H235973   2.187   0.340   4.087 -0.7541 -0.4061 -0.9546
 4828TIP3   OH235974   0.470   3.767  12.838  0.6467 -0.2925  0.1883
 4828TIP3    H135975   0.434   3.708  12.904 -2.4394 -0.0335 -1.0706
 4828TIP3    H235976   0.402   3.834  12.828  1.1590 -0.1302 -2.9370
 4829TIP3   OH235977   1.903   1.540   3.747  0.3806 -0.4307  0.3636
 4829TIP3    H135978   1.938   1.527   3.659 -1.7117  0.7622 -0.7134
 4829TIP3    H235979   1.857   1.624   3.743  0.5356 -0.1506  2.7162
 4830TIP3   OH235980   2.940   5.637   4.163 -0.2340  0.0373 -0.0541
 4830TIP3    H135981   2.861   5.630   4.109  0.8279 -1.4120 -1.5360
 4830TIP3    H235982   2.937   5.561   4.220 -0.3676  0.4955  0.5578
 4831TIP3   OH235983   2.116   3.567  10.634 -0.3148 -0.8020 -0.1618
 4831TIP3    H135984   2.208   3.541  10.633  0.4400  1.5590 -2.3143
 4831TIP3    H235985   2.102   3.602  10.723  1.6290  1.0038 -0.4808
 4832TIP3   OH235986   3.474   2.722  14.182 -0.5807 -0.4720  0.0595
 4832TIP3    H135987   3.426   2.680  14.253 -1.1538  0.9953  0.5876
 4832TIP3    H235988   3.408   2.776  14.138  0.5234  1.5359  0.7622
 4833TIP3   OH235989   3.822   4.842   1.622 -0.7260  0.1061 -0.0116
 4833TIP3    H135990   3.772   4.766   1.652 -1.3385  0.5894  0.2098
 4833TIP3    H235991   3.780   4.868   1.540  0.8363 -1.1050 -1.2633
 4834TIP3   OH235992   0.835   2.599  11.110 -0.2104 -0.7995  0.1747
 4834TIP3    H135993   0.843   2.605  11.205  0.5061  0.0634  0.0755
 4834TIP3    H235994   0.889   2.522  11.087 -0.6465 -1.2045  0.4865
 4835TIP3   OH235995   2.035   1.435  14.196  0.0221 -0.5881  0.6236
 4835TIP3    H135996   2.010   1.474  14.280  0.4731 -0.1307  0.5534
 4835TIP3    H235997   2.101   1.495  14.161 -0.6055 -0.4398 -0.3509
 4836TIP3   OH235998   3.208   6.596  14.178  0.0772 -0.5860 -0.2023
 4836TIP3    H135999   3.232   6.579  14.087  0.6685 -0.4054 -0.0837
 4836TIP3    H236000   3.189   6.689  14.181 -0.4818 -0.6952 -0.2571
 4837TIP3   OH236001   3.758   3.320   1.851 -0.0622 -0.2075 -0.1593
 4837TIP3    H136002   3.791   3.409   1.842  1.7664 -0.8340 -0.0893
 4837TIP3    H236003   3.800   3.271   1.781  0.8554 -1.4994  1.2470
 4838TIP3   OH236004   3.834   5.501   2.386  0.1374 -0.8263 -0.2865
 4838TIP3    H136005   3.886   5.508   2.466 -0.3103 -1.4730  0.0722
 4838TIP3    H236006   3.896   5.470   2.320  0.6355  0.2369 -0.3356
 4839TIP3   OH236007   4.854   4.915   2.856 -0.3442  0.4592  0.4110
 4839TIP3    H136008   4.786   4.888   2.918 -0.3424  1.1242  0.7183
 4839TIP3    H236009   4.835   5.008   2.840 -0.6036  0.1820 -0.9238
 4840TIP3   OH236010   0.954   2.056  16.323  0.1085 -0.2542  0.1752
 4840TIP3    H136011   1.046   2.081  16.319 -0.3917  1.9707  1.3695
 4840TIP3    H236012   0.944   2.015  16.409 -0.0425 -0.4167  0.0815
 4841TIP3   OH236013   4.713   3.897  10.989 -0.0989 -0.4507  0.8132
 4841TIP3    H136014   4.785   3.841  10.961 -0.3495  0.3380 -1.6336
 4841TIP3    H236015   4.634   3.851  10.961 -0.3744  0.3619  0.2179
 4842TIP3   OH236016   5.149   3.239  17.270 -0.2042 -0.9127 -0.6048
 4842TIP3    H136017   5.189   3.196  17.195  0.0163 -2.9198  0.5728
 4842TIP3    H236018   5.132   3.168  17.332 -1.5657  0.4839  0.7251
 4843TIP3   OH236019   0.780   4.189  16.579  0.3274  0.2958  0.3537
 4843TIP3    H136020   0.825   4.141  16.649  0.2437 -1.3503 -0.6623
 4843TIP3    H236021   0.718   4.126  16.543 -0.1424  1.3416 -0.7183
 4844TIP3   OH236022   0.890   4.933   6.069  0.7495  0.6863 -0.2299
 4844TIP3    H136023   0.806   4.918   6.113  1.7508  0.3711  1.6941
 4844TIP3    H236024   0.907   4.852   6.022  0.7552  0.0605  0.8052
 4845TIP3   OH236025   6.181   5.565   4.951  0.3367  0.3042  0.2941
 4845TIP3    H136026   6.176   5.606   4.865 -0.1650  2.7408  1.3762
 4845TIP3    H236027   6.089   5.556   4.978  0.5128  1.0812  1.2010
 4846TIP3   OH236028   4.394   0.006  16.489  0.5771 -0.1358 -0.3890
 4846TIP3    H136029   4.350   0.048  16.415  0.6024  0.2396 -0.1906
 4846TIP3    H236030   4.369   0.059  16.565  0.9454 -0.2368 -0.1997
 4847TIP3   OH236031   5.249   6.171  16.342  0.0172 -0.3581  0.2828
 4847TIP3    H136032   5.177   6.225  16.310  0.7196  0.2325 -0.3443
 4847TIP3    H236033   5.328   6.213  16.308  0.6892 -0.7802  1.2608
 4848TIP3   OH236034   4.263   5.553  17.140  0.2206  0.1222  0.2505
 4848TIP3    H136035   4.338   5.608  17.116 -0.1883  1.4734  1.8383
 4848TIP3    H236036   4.251   5.570  17.233 -0.7962 -1.6669  0.4797
 4849TIP3   OH236037   6.337   5.701  16.327 -0.3379 -0.4224  0.3157
 4849TIP3    H136038   6.270   5.633  16.318 -1.7190  0.8541  0.5367
 4849TIP3    H236039   6.329   5.730  16.418  0.7046 -0.4304  0.4182
 4850TIP3   OH236040   0.425   2.274   3.356  0.1128  0.2472  0.2189
 4850TIP3    H136041   0.433   2.244   3.447  1.0450 -0.4392 -0.0743
 4850TIP3    H236042   0.495   2.338   3.346 -1.3000  1.9103  0.5708
 4851TIP3   OH236043   5.419   1.059   5.665 -0.8252  0.1993 -0.1519
 4851TIP3    H136044   5.480   1.126   5.634 -2.7292  1.2811 -1.7835
 4851TIP3    H236045   5.472   1.003   5.723  2.4704 -0.6421 -3.5706
 4852TIP3   OH236046   1.575   5.850   3.725 -0.1908 -0.4340 -0.2395
 4852TIP3    H136047   1.521   5.771   3.726 -0.5005 -0.2155  0.8384
 4852TIP3    H236048   1.523   5.916   3.770  0.2350  0.2827 -0.7840
 4853TIP3   OH236049   2.911   6.634  12.667  0.4025  0.1504 -0.4050
 4853TIP3    H136050   2.940   6.546  12.691  3.0811  0.2434 -2.7796
 4853TIP3    H236051   2.949   6.691  12.734  0.1436 -0.3195  0.1530
 4854TIP3   OH236052   0.318   3.159  14.834  0.6218  0.1453 -0.5314
 4854TIP3    H136053   0.328   3.241  14.881  0.5186 -0.1158 -0.0445
 4854TIP3    H236054   0.291   3.184  14.746 -0.6686  0.5764 -0.0314
 4855TIP3   OH236055   0.068   6.725  12.731  0.0263 -0.2850 -0.3899
 4855TIP3    H136056   0.143   6.688  12.777  1.3280  1.3171 -1.1038
 4855TIP3    H236057   0.072   6.819  12.750 -1.4225 -0.0722 -0.9890
 4856TIP3   OH236058   2.181   5.043  15.129  0.0261 -0.3273 -0.4942
 4856TIP3    H136059   2.260   4.990  15.119 -0.8193 -1.8134  0.3772
 4856TIP3    H236060   2.136   5.035  15.045 -1.2680 -3.0573  0.3515
 4857TIP3   OH236061   3.481   2.701   2.638  0.2045 -0.8291  0.5488
 4857TIP3    H136062   3.553   2.704   2.701  0.1294  0.8635  0.6199
 4857TIP3    H236063   3.405   2.734   2.688 -0.3260 -1.3673  0.1152
 4858TIP3   OH236064   5.297   0.939  14.066 -0.1739 -0.0700 -0.4025
 4858TIP3    H136065   5.254   1.023  14.082  0.1954 -0.1284  0.9712
 4858TIP3    H236066   5.388   0.962  14.047 -0.1606 -0.1339 -0.4156
 4859TIP3   OH236067   0.004   6.684  12.449 -0.2951  0.1762 -0.4020
 4859TIP3    H136068   0.017   6.703  12.542  1.8645 -0.4610 -0.5164
 4859TIP3    H236069   0.067   6.740  12.405 -0.7450 -0.1185 -1.4411
 4860TIP3   OH236070   3.306   3.991   0.902 -0.4163  0.4092  0.0783
 4860TIP3    H136071   3.335   3.903   0.878 -0.4735 -0.3211  2.4758
 4860TIP3    H236072   3.386   4.036   0.929 -0.6994  0.2714  1.1848
 4861TIP3   OH236073   3.304   5.473   2.663 -0.1021  0.3691 -0.4374
 4861TIP3    H136074   3.326   5.535   2.594 -1.0776  1.9261  0.5782
 4861TIP3    H236075   3.210   5.484   2.677 -0.1444 -0.7485  0.3512
 4862TIP3   OH236076   5.044   5.916   0.576  0.9416  0.3120 -0.1660
 4862TIP3    H136077   5.033   6.009   0.557  2.3787  0.4463 -0.4587
 4862TIP3    H236078   5.104   5.914   0.650 -0.8508 -0.3486  1.3459
 4863TIP3   OH236079   4.597   5.680  15.294 -0.4683  0.3018  0.0121
 4863TIP3    H136080   4.617   5.712  15.381  1.5493  1.0115 -0.6630
 4863TIP3    H236081   4.534   5.743  15.258 -0.8287  0.3436  0.7006
 4864TIP3   OH236082   4.695   0.441   1.841  0.0020 -0.1505 -0.0306
 4864TIP3    H136083   4.709   0.525   1.798 -0.9409  1.1949  2.1474
 4864TIP3    H236084   4.616   0.406   1.800 -0.1798  0.5066 -0.2537
 4865TIP3   OH236085   4.331   1.143   2.712 -0.0850 -0.2684  0.8197
 4865TIP3    H136086   4.311   1.170   2.622 -0.6852  1.9692  1.5486
 4865TIP3    H236087   4.245   1.123   2.750  0.0657 -0.2842  1.1496
 4866TIP3   OH236088   1.256   4.493  15.023 -0.2792 -0.0197 -0.8695
 4866TIP3    H136089   1.183   4.443  15.060  0.4983 -0.0804  0.6848
 4866TIP3    H236090   1.217   4.576  14.996 -0.6227  0.8681  2.0057
 4867TIP3   OH236091   2.120   2.189  15.076  0.2314 -0.2282 -0.0136
 4867TIP3    H136092   2.057   2.238  15.130 -1.7866 -0.0563 -2.3466
 4867TIP3    H236093   2.085   2.100  15.072 -0.6032  0.1443 -2.2870
 4868TIP3   OH236094   1.240   2.082  15.717  0.7608 -0.2122  0.2693
 4868TIP3    H136095   1.267   2.064  15.626 -2.6659  1.3196 -1.2486
 4868TIP3    H236096   1.219   1.996  15.753  1.1453 -0.7744 -0.7951
 4869TIP3   OH236097   3.809   2.098  11.367  0.6203 -0.0558  0.1539
 4869TIP3    H136098   3.723   2.058  11.382 -0.1403  1.7784  1.0580
 4869TIP3    H236099   3.868   2.051  11.426  0.1643 -1.0620 -0.1647
 4870TIP3   OH236100   4.575   0.133   0.174 -0.1003 -0.9344 -0.3058
 4870TIP3    H136101   4.524   0.203   0.214 -0.4015 -1.8090  0.8900
 4870TIP3    H236102   4.548   0.054   0.220 -2.0850 -2.4008 -3.6668
 4871TIP3   OH236103   4.344   1.332  15.014  0.8955  0.7868  0.6780
 4871TIP3    H136104   4.375   1.261  15.070 -0.4623 -0.2576  0.1369
 4871TIP3    H236105   4.418   1.349  14.954  0.6718 -1.3602 -0.3032
 4872TIP3   OH236106   5.658   6.185  17.146  0.4286  0.1154 -0.7588
 4872TIP3    H136107   5.577   6.229  17.118 -0.5116 -1.9443 -1.4177
 4872TIP3    H236108   5.655   6.190  17.242 -1.0012 -0.7707 -0.7260
 4873TIP3   OH236109   6.749   2.552  16.938 -0.1100 -0.2510  0.3968
 4873TIP3    H136110   6.791   2.494  16.875 -2.7341 -3.2695  1.1479
 4873TIP3    H236111   6.678   2.594  16.888  1.1488  1.7256  0.1202
 4874TIP3   OH236112   4.245   3.845   5.588  0.6636 -0.3966 -0.1142
 4874TIP3    H136113   4.337   3.869   5.585  0.5720 -0.1466 -1.8886
 4874TIP3    H236114   4.231   3.791   5.511 -1.2791  1.9696 -1.5934
 4875TIP3   OH236115   5.902   5.286   2.606 -0.1910  0.4753  0.3215
 4875TIP3    H136116   5.973   5.342   2.638 -0.8026  2.2655 -1.2302
 4875TIP3    H236117   5.822   5.326   2.640 -0.5525 -0.8806  1.1422
 4876TIP3   OH236118   5.278   1.462   5.742  0.1961 -0.4370  0.6821
 4876TIP3    H136119   5.340   1.447   5.814  1.3223  2.7917  0.5360
 4876TIP3    H236120   5.208   1.400   5.758  1.4165 -1.2634  3.3871
 4877TIP3   OH236121   3.809   3.050   3.891 -0.1211 -0.0630 -0.4487
 4877TIP3    H136122   3.765   3.082   3.812 -2.3882 -1.4187  0.1616
 4877TIP3    H236123   3.753   3.080   3.963  0.6581 -0.7814  0.4763
 4878TIP3   OH236124   4.788   3.065   0.129 -0.1097  0.1165  0.1658
 4878TIP3    H136125   4.756   2.985   0.086 -1.6461 -0.2771  1.9624
 4878TIP3    H236126   4.873   3.039   0.165  0.5638  0.0589 -1.3557
 4879TIP3   OH236127   0.303   2.239  13.881  0.0991 -0.0279  0.6667
 4879TIP3    H136128   0.261   2.209  13.961 -0.6167  0.6149  0.5435
 4879TIP3    H236129   0.360   2.167  13.855 -0.7514 -0.8230  0.9640
 4880TIP3   OH236130   0.581   3.193   2.464  0.0325 -0.0072  0.3191
 4880TIP3    H136131   0.667   3.181   2.504 -0.4607 -1.5175  0.9893
 4880TIP3    H236132   0.519   3.179   2.535 -0.8098 -0.5720 -0.5042
 4881TIP3   OH236133   5.217   4.970   1.644 -0.0320 -0.1659 -0.0091
 4881TIP3    H136134   5.236   4.927   1.561  2.3975  0.8657 -0.0646
 4881TIP3    H236135   5.223   4.901   1.710 -0.3732 -0.6750 -0.5093
 4882TIP3   OH236136   4.523   6.582   5.299 -0.1978 -0.1695  0.5335
 4882TIP3    H136137   4.556   6.545   5.217 -1.6231 -0.0721 -0.1174
 4882TIP3    H236138   4.525   6.509   5.361  2.8313  0.2440  1.0636
 4883TIP3   OH236139   6.011   6.600  17.184  0.0021  0.3328  0.9053
 4883TIP3    H136140   5.966   6.636  17.107  1.7119  0.1243 -0.2617
 4883TIP3    H236141   5.945   6.547  17.228 -0.7404 -0.5943 -1.1680
 4884TIP3   OH236142   5.771   5.487  13.780  0.3814  0.8383  0.2710
 4884TIP3    H136143   5.780   5.502  13.686 -1.6996 -1.1734 -0.3298
 4884TIP3    H236144   5.821   5.406  13.796 -2.0098 -0.7499  0.1595
 4885TIP3   OH236145   2.562   3.928  13.422  0.0718  0.0955  0.0023
 4885TIP3    H136146   2.483   3.982  13.421  0.9375  1.4140 -0.0283
 4885TIP3    H236147   2.530   3.838  13.419 -1.4338  0.5856  0.5456
 4886TIP3   OH236148   6.204   5.579   3.081 -0.1825  0.0202  0.0081
 4886TIP3    H136149   6.158   5.511   3.131  0.9425 -0.5375  0.3067
 4886TIP3    H236150   6.138   5.613   3.020 -0.7973 -1.2389 -0.0484
 4887TIP3   OH236151   0.480   2.500   3.098 -0.0266 -0.7102  0.2671
 4887TIP3    H136152   0.542   2.468   3.165 -0.3504 -0.3752  0.7315
 4887TIP3    H236153   0.514   2.585   3.072  1.3860 -1.7886 -1.6855
 4888TIP3   OH236154   2.278   3.989  11.935  0.5531  0.0029  0.0843
 4888TIP3    H136155   2.188   3.969  11.958 -0.0590  0.1635 -2.0278
 4888TIP3    H236156   2.273   4.059  11.871  2.2287  0.4605  0.3800
 4889TIP3   OH236157   1.781   1.787  14.262 -0.0604 -0.0827  0.1114
 4889TIP3    H136158   1.732   1.789  14.344 -1.6812  0.7342 -0.8202
 4889TIP3    H236159   1.866   1.749  14.286 -0.8368 -0.8165  1.9539
 4890TIP3   OH236160   1.470   5.547   2.645 -0.3388  0.0170 -0.1810
 4890TIP3    H136161   1.531   5.594   2.588  0.4659  1.5637  1.8174
 4890TIP3    H236162   1.513   5.462   2.659  2.3830  1.6294  2.4714
 4891TIP3   OH236163   1.762   1.941  12.221 -0.0671  0.2858  0.0684
 4891TIP3    H136164   1.803   1.855  12.226  1.7721  1.1538  0.8151
 4891TIP3    H236165   1.778   1.981  12.307 -2.3709  0.7787  0.3534
 4892TIP3   OH236166   4.177   6.708   5.781 -0.2041 -0.0645 -0.1080
 4892TIP3    H136167   4.246   6.747   5.727 -2.2242  1.6358 -1.6556
 4892TIP3    H236168   4.154   6.777   5.843  0.3427 -1.1008  1.2930
 4893TIP3   OH236169   5.131   6.474  13.169 -0.5738 -0.0315 -0.7016
 4893TIP3    H136170   5.117   6.564  13.139 -0.0215  0.1623 -0.3801
 4893TIP3    H236171   5.089   6.420  13.102 -1.6494  0.4856 -0.4704
 4894TIP3   OH236172   2.664   5.523  15.357  0.3136  0.3447 -0.0259
 4894TIP3    H136173   2.752   5.560  15.350 -0.3039  2.2034  1.1266
 4894TIP3    H236174   2.621   5.549  15.275  0.7317 -0.3003 -0.4567
 4895TIP3   OH236175   2.633   1.422   5.550  0.1160  0.2565 -0.3898
 4895TIP3    H136176   2.567   1.456   5.610 -2.3072 -1.1944 -2.0978
 4895TIP3    H236177   2.661   1.339   5.590 -0.8788 -0.2950 -0.8086
 4896TIP3   OH236178   2.624   3.306  13.677 -1.0936 -0.1557  0.0308
 4896TIP3    H136179   2.623   3.230  13.735 -2.7228 -1.5061 -1.6206
 4896TIP3    H236180   2.621   3.382  13.736  0.6219 -1.3187  1.7357
 4897TIP3   OH236181   6.543   2.658  14.348 -0.5827 -0.1752  0.1574
 4897TIP3    H136182   6.509   2.653  14.258 -2.5098 -0.5315  0.8614
 4897TIP3    H236183   6.560   2.751  14.362 -0.6383 -0.0669 -0.4511
 4898TIP3   OH236184   4.827   1.486  15.811  0.3273  0.1197  0.1810
 4898TIP3    H136185   4.786   1.503  15.896  0.5034 -0.2343  0.3372
 4898TIP3    H236186   4.902   1.432  15.831  1.0622  1.0207 -0.0707
 4899TIP3   OH236187   0.447   3.638  14.414  0.2178 -0.5894  0.0434
 4899TIP3    H136188   0.377   3.586  14.454  0.4470 -1.7476 -0.9967
 4899TIP3    H236189   0.454   3.715  14.470 -0.6669 -1.3011  1.1968
 4900TIP3   OH236190   2.898   5.912  13.466  0.2400  0.5856  0.5688
 4900TIP3    H136191   2.951   5.951  13.536  2.1216 -2.0972  0.8121
 4900TIP3    H236192   2.940   5.943  13.385 -1.0714  2.5616  0.5935
 4901TIP3   OH236193   0.513   4.003  13.106  0.1735  0.6309  0.3077
 4901TIP3    H136194   0.558   3.972  13.185 -2.4663 -0.2128  1.5841
 4901TIP3    H236195   0.583   4.037  13.050  2.6305 -2.4935  1.2281
 4902TIP3   OH236196   1.749   4.364   1.075  0.3578 -0.3167  0.2934
 4902TIP3    H136197   1.833   4.409   1.075 -0.3222  0.9963 -0.4707
 4902TIP3    H236198   1.770   4.272   1.057  1.6223 -0.0367  0.3042
 4903TIP3   OH236199   1.408   2.984  14.091 -0.0314 -0.2978 -0.6369
 4903TIP3    H136200   1.495   3.022  14.081 -0.0608 -0.1255 -0.2505
 4903TIP3    H236201   1.414   2.930  14.170 -0.7673  1.1704  0.4751
 4904TIP3   OH236202   2.513   3.032   3.951  0.0716  0.4621 -0.9438
 4904TIP3    H136203   2.546   3.071   3.870 -1.0595 -0.1455 -1.7216
 4904TIP3    H236204   2.427   3.072   3.963 -0.3263 -0.4388 -0.7652
 4905TIP3   OH236205   5.780   0.895  14.075 -0.0427  0.5137 -0.2769
 4905TIP3    H136206   5.833   0.950  14.018  1.4244 -0.4908  0.0545
 4905TIP3    H236207   5.759   0.818  14.022  0.2895  0.1402  0.1165
 4906TIP3   OH236208   2.422   6.061   1.369  0.0545  0.6808  0.3237
 4906TIP3    H136209   2.423   6.002   1.444  0.8287  1.0298  0.5976
 4906TIP3    H236210   2.397   6.146   1.405 -0.3671  0.6824  0.0443
 4907TIP3   OH236211   3.337   5.529  14.235  0.5239 -0.2990  0.1954
 4907TIP3    H136212   3.290   5.613  14.239  1.4456  0.2238  0.4803
 4907TIP3    H236213   3.310   5.483  14.314  1.6233  0.6365  1.1578
 4908TIP3   OH236214   3.479   5.926   2.427 -0.4144 -0.3881  0.1626
 4908TIP3    H136215   3.402   5.980   2.411 -0.1101 -0.0620 -0.2381
 4908TIP3    H236216   3.544   5.988   2.463  0.4226 -0.1438 -1.6212
 4909TIP3   OH236217   3.787   5.729   5.432 -0.4118  0.4968 -0.6087
 4909TIP3    H136218   3.701   5.708   5.469  0.1367  0.9646  1.0619
 4909TIP3    H236219   3.836   5.647   5.436  0.7930  1.1633  3.2252
 4910TIP3   OH236220   3.367   4.246  16.998  0.0737 -0.2196 -0.0111
 4910TIP3    H136221   3.396   4.254  16.907  1.5936  0.7454  0.5173
 4910TIP3    H236222   3.273   4.232  16.992  0.1863 -0.4757 -1.7415
 4911TIP3   OH236223   4.105   2.876  14.771 -0.0966 -0.2901  0.3028
 4911TIP3    H136224   4.138   2.791  14.801  0.8694  0.4663  1.4851
 4911TIP3    H236225   4.080   2.922  14.851 -0.7277  0.4975 -0.3270
 4912TIP3   OH236226   1.297   3.660  13.338 -0.3122  0.1943 -0.0463
 4912TIP3    H136227   1.380   3.705  13.322 -0.4182  0.1503 -0.7602
 4912TIP3    H236228   1.315   3.601  13.412 -0.6355  2.5916  2.0828
 4913TIP3   OH236229   4.490   4.653   5.443  0.9216 -0.0348  0.3122
 4913TIP3    H136230   4.574   4.624   5.406  0.8518 -0.3705  0.4210
 4913TIP3    H236231   4.484   4.610   5.528  0.9731  0.5632  0.6180
 4914TIP3   OH236232   3.969   3.132   0.314  0.1853 -0.3831  0.2844
 4914TIP3    H136233   3.998   3.210   0.267  0.1160 -0.2591  0.4461
 4914TIP3    H236234   3.875   3.143   0.323  0.4288  0.5383  2.1434
 4915TIP3   OH236235   5.619   6.716   1.150 -0.4257  0.0181  0.2539
 4915TIP3    H136236   5.638   6.640   1.094 -1.6602 -0.4569  0.4516
 4915TIP3    H236237   5.700   6.767   1.149  0.1844 -0.9257 -0.4772
 4916TIP3   OH236238   5.516   6.107  13.140  0.2269  0.2922  0.0219
 4916TIP3    H136239   5.600   6.074  13.174 -0.0131  0.7604  1.0953
 4916TIP3    H236240   5.496   6.183  13.195 -1.6947 -0.7559  0.8412
 4917TIP3   OH236241   1.980   3.081  13.556  0.2173  0.2690 -0.0086
 4917TIP3    H136242   1.906   3.137  13.533  0.1189  0.1897  0.1126
 4917TIP3    H236243   2.040   3.088  13.482 -0.1362 -0.0576 -0.3275
 4918TIP3   OH236244   2.145   6.389  11.885 -0.1403  0.0332 -0.0524
 4918TIP3    H136245   2.054   6.383  11.914 -0.6742  2.0825 -1.1506
 4918TIP3    H236246   2.154   6.319  11.820 -1.2663  0.4918 -0.7316
 4919TIP3   OH236247   6.328   1.704  16.244  0.3270  0.2974 -0.2918
 4919TIP3    H136248   6.366   1.707  16.156  0.3723  0.3414 -0.2712
 4919TIP3    H236249   6.404   1.702  16.303  0.2972  0.2446 -0.2555
 4920TIP3   OH236250   3.235   3.421   4.427 -0.4325  0.1513  0.1204
 4920TIP3    H136251   3.141   3.407   4.437 -0.2029 -0.9608  0.8766
 4920TIP3    H236252   3.263   3.456   4.512 -0.3686  1.7535 -0.5342
 4921TIP3   OH236253   2.293   1.730   3.126 -0.0629  0.4234  0.0066
 4921TIP3    H136254   2.374   1.682   3.111  0.0259  0.4239  0.4717
 4921TIP3    H236255   2.264   1.756   3.039 -0.1071 -0.4628 -0.2483
 4922TIP3   OH236256   4.921   0.112   3.184 -0.6283 -0.2979  0.2551
 4922TIP3    H136257   4.959   0.094   3.270  0.3993 -1.8548 -0.4656
 4922TIP3    H236258   4.827   0.114   3.199 -0.3999  1.5547  1.7457
 4923TIP3   OH236259   2.364   6.589  13.046  0.0259  0.0159  0.0665
 4923TIP3    H136260   2.355   6.566  12.953  1.0878  0.0791 -0.0674
 4923TIP3    H236261   2.337   6.511  13.093  0.8902 -0.5327 -0.3341
 4924TIP3   OH236262   6.129   2.359   3.672  0.9133 -0.0112  0.2654
 4924TIP3    H136263   6.094   2.286   3.723  1.1777 -1.3031 -1.3221
 4924TIP3    H236264   6.177   2.412   3.735  0.0372 -0.7640  1.6072
 4925TIP3   OH236265   4.014   0.401   4.315 -0.5620 -0.6960 -0.3527
 4925TIP3    H136266   3.971   0.346   4.249 -1.6858  3.0599 -3.0981
 4925TIP3    H236267   4.105   0.370   4.316 -0.6403 -1.3174 -3.3350
 4926TIP3   OH236268   6.665   0.177   1.640  0.7739 -0.2352 -0.0491
 4926TIP3    H136269   6.688   0.116   1.569  0.0647  1.0064 -1.4016
 4926TIP3    H236270   6.708   0.259   1.616  1.1515  0.0041  1.3841
 4927TIP3   OH236271   2.911   1.533   5.684 -0.1966 -0.4534  0.4749
 4927TIP3    H136272   2.919   1.446   5.723  1.6600  0.2152  1.7098
 4927TIP3    H236273   3.001   1.559   5.665 -0.2662  2.5246  3.2789
 4928TIP3   OH236274   1.394   0.755  15.328 -0.0141  0.4687  0.1845
 4928TIP3    H136275   1.489   0.762  15.330  0.1546 -1.1701 -0.4667
 4928TIP3    H236276   1.365   0.833  15.280  1.0313  0.7502 -0.0025
 4929TIP3   OH236277   4.118   3.652  14.579 -0.4667  0.1935  0.6614
 4929TIP3    H136278   4.124   3.729  14.523  1.2088 -0.1526  0.3103
 4929TIP3    H236279   4.204   3.611  14.573 -0.8486 -0.8970  2.0124
 4930TIP3   OH236280   6.386   3.248  14.132  0.3303  0.2136  0.6533
 4930TIP3    H136281   6.333   3.283  14.203  0.3048  0.2851  0.5988
 4930TIP3    H236282   6.464   3.304  14.130  0.3611  0.1714  0.6674
 4931TIP3   OH236283   5.702   4.768  16.269  0.1604 -0.6862  0.3182
 4931TIP3    H136284   5.651   4.695  16.233  1.1161 -1.3587  0.2948
 4931TIP3    H236285   5.636   4.826  16.307 -0.6782 -1.1897 -0.3109
 4932TIP3   OH236286   5.017   1.628  13.058  0.2107  0.6290  0.0978
 4932TIP3    H136287   4.938   1.659  13.013 -0.6757 -0.4341  0.8680
 4932TIP3    H236288   5.080   1.613  12.987 -0.8150 -0.0548 -0.7102
 4933TIP3   OH236289   5.859   0.608  11.718  0.0226 -0.4091  0.2157
 4933TIP3    H136290   5.913   0.587  11.642  1.9155  1.7597  0.8321
 4933TIP3    H236291   5.905   0.568  11.792 -1.4742 -1.9883  0.3434
 4934TIP3   OH236292   5.188   0.753  17.073  0.2573  0.0425 -0.1993
 4934TIP3    H136293   5.236   0.836  17.078  1.2278 -0.5796  2.2902
 4934TIP3    H236294   5.252   0.690  17.041 -0.0003 -0.0866 -0.4640
 4935TIP3   OH236295   1.678   0.256  11.635 -0.0526 -0.2653 -0.5385
 4935TIP3    H136296   1.733   0.203  11.579 -2.3871 -0.9881 -2.3172
 4935TIP3    H236297   1.739   0.311  11.685  2.2224 -1.4374 -1.8939
 4936TIP3   OH236298   6.419   4.408  12.066 -0.1029 -0.0097 -0.5506
 4936TIP3    H136299   6.364   4.384  11.992 -1.4105 -0.7455  0.6027
 4936TIP3    H236300   6.390   4.351  12.137  0.6189  1.1476  0.7299
 4937TIP3   OH236301   5.544   5.962   5.023  0.3826 -1.0262  0.1913
 4937TIP3    H136302   5.480   5.893   5.006 -0.3355 -0.5838  0.9858
 4937TIP3    H236303   5.553   6.008   4.940  0.8962 -2.0862 -0.3581
 4938TIP3   OH236304   0.075   4.235   1.160 -0.4064  0.0477  0.3104
 4938TIP3    H136305   0.150   4.238   1.101 -0.2648 -0.2716  0.4684
 4938TIP3    H236306   0.057   4.327   1.181  1.2049  0.0822  1.8346
 4939TIP3   OH236307   3.953   4.235  12.307 -0.5040  0.3370  0.1428
 4939TIP3    H136308   4.041   4.239  12.343 -0.1344  0.9752 -0.8032
 4939TIP3    H236309   3.921   4.325  12.309 -1.0975  0.1271  0.3809
 4940TIP3   OH236310   6.515   0.001   2.875  0.2517  0.6123 -0.4677
 4940TIP3    H136311   6.456   0.036   2.941  1.2583  0.6885  0.4187
 4940TIP3    H236312   6.559   0.079   2.839 -1.0782  0.6976 -2.0695
 4941TIP3   OH236313   6.757   4.687   4.147 -0.2194  0.3381  0.0449
 4941TIP3    H136314   6.773   4.781   4.141 -0.9544  0.4609 -0.0487
 4941TIP3    H236315   6.824   4.648   4.091 -1.4941  0.9635 -2.0447
 4942TIP3   OH236316   1.874   0.447   2.990 -0.4615 -0.0073  0.1203
 4942TIP3    H136317   1.886   0.411   3.078 -0.1221 -1.5340 -0.5158
 4942TIP3    H236318   1.859   0.540   3.004 -0.6888 -0.2666  1.8109
 4943TIP3   OH236319   2.607   5.128   1.802 -0.0901 -0.8509 -0.0723
 4943TIP3    H136320   2.677   5.190   1.825 -0.9314 -0.0552  0.4413
 4943TIP3    H236321   2.636   5.044   1.837 -0.0379 -0.2396  1.4290
 4944TIP3   OH236322   1.749   6.667   4.282 -0.1969  0.1087  0.1389
 4944TIP3    H136323   1.750   6.760   4.258 -1.2977  0.2092  0.4483
 4944TIP3    H236324   1.715   6.665   4.371 -0.7403 -0.6217 -0.0693
 4945TIP3   OH236325   5.552   5.428  16.990  0.1589  0.0751  0.1086
 4945TIP3    H136326   5.532   5.503  16.933 -1.5538  0.4794  1.1583
 4945TIP3    H236327   5.569   5.467  17.075  2.1831 -0.5678  0.0574
 4946TIP3   OH236328   1.268   5.832   0.430 -0.3307  0.7295  0.3579
 4946TIP3    H136329   1.215   5.894   0.380  0.5180  0.6646 -0.6665
 4946TIP3    H236330   1.354   5.835   0.388 -0.3466 -1.3563  0.1010
 4947TIP3   OH236331   6.515   0.235   2.477  0.5369 -0.2398 -0.1423
 4947TIP3    H136332   6.526   0.316   2.526 -0.4494  0.2157 -0.6411
 4947TIP3    H236333   6.484   0.172   2.542 -1.5938  0.5822 -0.2896
 4948TIP3   OH236334   3.709   5.703  14.010  0.1238 -0.2194  0.1272
 4948TIP3    H136335   3.764   5.748  13.946 -0.2209  0.8393  0.5544
 4948TIP3    H236336   3.619   5.722  13.982 -0.0655 -1.9533 -0.5837
 4949TIP3   OH236337   0.983   5.501   4.814 -0.2597  0.7913 -0.3511
 4949TIP3    H136338   0.923   5.467   4.880 -0.0370 -1.4203 -1.2183
 4949TIP3    H236339   1.060   5.528   4.864 -1.1896  1.8784  0.5650
 4950TIP3   OH236340   5.360   1.752  15.313  0.3456 -0.0864  0.9691
 4950TIP3    H136341   5.299   1.736  15.386 -0.4764 -0.4140  0.2339
 4950TIP3    H236342   5.336   1.839  15.281 -2.3194 -1.5884 -1.6433
 4951TIP3   OH236343   0.441   5.522   5.057 -0.0158  0.0368 -0.1428
 4951TIP3    H136344   0.533   5.550   5.054 -0.1895  0.5983 -0.3794
 4951TIP3    H236345   0.429   5.487   5.145  0.5517 -0.4849 -0.2628
 4952TIP3   OH236346   5.445   5.443  11.480  0.3149  0.0099  0.0376
 4952TIP3    H136347   5.409   5.425  11.567 -0.9254  2.2663  0.0774
 4952TIP3    H236348   5.530   5.400  11.480 -0.5848 -1.9143  1.5453
 4953TIP3   OH236349   6.810   4.905  13.359  0.0811  0.2403  0.2323
 4953TIP3    H136350   6.844   4.984  13.317  0.7985 -0.8257 -1.2805
 4953TIP3    H236351   6.852   4.833  13.313 -0.7473 -1.0558  1.4030
 4954TIP3   OH236352   4.500   3.418   1.145  0.1380  0.2931  0.5864
 4954TIP3    H136353   4.420   3.370   1.122  0.9292  0.0235 -1.9001
 4954TIP3    H236354   4.527   3.381   1.229 -1.3764 -0.8834  0.6012
 4955TIP3   OH236355   0.256   6.026   0.167  0.0064 -0.7999 -0.4162
 4955TIP3    H136356   0.333   6.082   0.170 -0.0201 -0.7714 -0.2598
 4955TIP3    H236357   0.183   6.087   0.157  0.0888 -0.8867 -1.6850
 4956TIP3   OH236358   4.558   0.383  15.631  0.3990 -0.0796 -0.0366
 4956TIP3    H136359   4.500   0.331  15.576 -1.1297 -0.2725  1.6686
 4956TIP3    H236360   4.631   0.407  15.573 -0.5777 -1.1666 -1.8053
 4957TIP3   OH236361   3.162   2.611  11.097  0.0192  0.5010  0.0223
 4957TIP3    H136362   3.133   2.615  11.188 -0.7539  0.8284 -0.2368
 4957TIP3    H236363   3.158   2.701  11.066 -2.5061  0.0652 -1.1870
 4958TIP3   OH236364   1.008   1.714  11.864 -0.5193 -0.2058 -0.0282
 4958TIP3    H136365   1.038   1.804  11.877 -1.4807  0.7209 -3.1577
 4958TIP3    H236366   0.915   1.723  11.844 -0.6711 -1.9118 -0.1852
 4959TIP3   OH236367   5.007   1.041   5.104 -0.3082  0.5638 -0.0219
 4959TIP3    H136368   5.050   1.106   5.159  1.7348 -0.3266 -0.4936
 4959TIP3    H236369   5.040   0.957   5.137 -0.1439 -0.0515 -1.6867
 4960TIP3   OH236370   4.724   3.340  12.686 -1.0294 -0.1593 -0.2547
 4960TIP3    H136371   4.811   3.377  12.702 -0.9750  0.4247 -1.7523
 4960TIP3    H236372   4.671   3.373  12.759 -0.4762  1.1876 -0.4293
 4961TIP3   OH236373   1.396   6.181  15.955 -0.4785  0.2111 -0.2532
 4961TIP3    H136374   1.344   6.256  15.927  0.2389  0.2540 -1.5013
 4961TIP3    H236375   1.487   6.207  15.941 -0.2003 -0.7029 -0.2240
 4962TIP3   OH236376   1.076   3.974  14.777  0.3373 -0.8605  0.0364
 4962TIP3    H136377   1.136   3.907  14.745 -2.5801 -3.0275 -1.3773
 4962TIP3    H236378   1.100   3.987  14.868  2.3533 -2.2461 -0.2505
 4963TIP3   OH236379   3.621   0.786   2.903  0.9976  0.0893 -0.4582
 4963TIP3    H136380   3.646   0.775   2.812  1.9939  0.6991 -0.2796
 4963TIP3    H236381   3.608   0.881   2.913 -2.0431 -0.2148 -0.6747
 4964TIP3   OH236382   3.418   3.940  16.867 -0.0339 -0.0154  0.1347
 4964TIP3    H136383   3.464   4.017  16.833 -0.2403  0.1151  0.1504
 4964TIP3    H236384   3.428   3.947  16.962 -1.7415  1.0772  0.2808
 4965TIP3   OH236385   4.018   3.111   2.954  0.0692  0.3564 -0.0349
 4965TIP3    H136386   4.070   3.141   2.880  0.3215  1.0794  0.4143
 4965TIP3    H236387   3.975   3.032   2.924  2.4376 -1.0213 -0.0258
 4966TIP3   OH236388   0.967   5.628   3.115  0.1709 -0.1636  0.6652
 4966TIP3    H136389   0.895   5.607   3.175 -0.4817 -1.0201 -0.3791
 4966TIP3    H236390   0.929   5.693   3.055 -0.2755 -1.7080 -0.8251
 4967TIP3   OH236391   6.385   3.309   2.583  0.0634 -0.4076  0.1428
 4967TIP3    H136392   6.421   3.315   2.494  1.8213 -0.7661  0.7768
 4967TIP3    H236393   6.298   3.349   2.577  1.0505  1.7598 -1.2580
 4968TIP3   OH236394   6.191   0.118  16.250 -0.4461  0.0857 -0.0621
 4968TIP3    H136395   6.197   0.048  16.316 -0.8624 -0.4302 -0.5631
 4968TIP3    H236396   6.272   0.167  16.261  0.5494 -1.3394 -0.6490
 4969TIP3   OH236397   4.879   2.037   4.176 -0.0063  0.0834  0.5860
 4969TIP3    H136398   4.834   1.953   4.163  1.8960 -1.1038  1.2369
 4969TIP3    H236399   4.824   2.084   4.238 -0.5616 -1.1657  1.0902
 4970TIP3   OH236400   0.630   4.060  12.254  0.2094  0.5033  0.8908
 4970TIP3    H136401   0.689   4.109  12.197 -0.2676  0.6283  0.4884
 4970TIP3    H236402   0.646   4.094  12.342 -0.6636  1.9536  0.5236
 4971TIP3   OH236403   1.821   2.388  13.455  0.1656 -0.5751 -0.3869
 4971TIP3    H136404   1.786   2.336  13.527  0.0539  1.3645  1.0318
 4971TIP3    H236405   1.744   2.419  13.408 -0.1647  2.6854  2.0132
 4972TIP3   OH236406   4.927   1.674  15.215 -0.1610 -0.1714 -0.6880
 4972TIP3    H136407   4.905   1.766  15.226 -0.2480 -0.3643  0.9712
 4972TIP3    H236408   4.848   1.635  15.177 -0.0309  0.4698 -1.6427
 4973TIP3   OH236409   4.930   5.603  15.838  0.1193  0.0499  0.3239
 4973TIP3    H136410   4.994   5.667  15.868  1.3652 -1.5150  1.1923
 4973TIP3    H236411   4.956   5.521  15.881 -1.1029 -1.1571 -1.1054
 4974TIP3   OH236412   5.234   4.657   4.690  0.1821  0.1352  0.7714
 4974TIP3    H136413   5.184   4.714   4.631 -0.7055 -0.7186  0.6745
 4974TIP3    H236414   5.316   4.642   4.644 -0.5067 -0.5490 -0.2856
 4975TIP3   OH236415   1.813   4.482  13.708 -0.4353  0.5180  0.1312
 4975TIP3    H136416   1.850   4.521  13.787 -2.1649 -1.5295  2.1147
 4975TIP3    H236417   1.733   4.532  13.692 -1.0178 -0.1705  0.8004
 4976TIP3   OH236418   4.008   5.741  17.068 -0.3645 -0.1812 -0.1128
 4976TIP3    H136419   4.037   5.712  17.154 -0.7909 -1.5140 -0.3985
 4976TIP3    H236420   4.037   5.673  17.008 -0.8403  0.2976 -0.9096
 4977TIP3   OH236421   4.237   2.334   5.492 -0.4045 -0.5805 -0.4445
 4977TIP3    H136422   4.209   2.273   5.560 -0.9555 -1.4350 -1.4004
 4977TIP3    H236423   4.217   2.420   5.528  0.2152 -0.9506  0.8608
 4978TIP3   OH236424   4.062   5.951   2.556 -0.2423 -0.0701  0.0802
 4978TIP3    H136425   3.985   5.998   2.525  0.6630  0.8016 -0.9054
 4978TIP3    H236426   4.073   5.980   2.647 -0.6909  0.2913  0.0231
 4979TIP3   OH236427   3.700   2.336  12.993  0.3379 -0.3404  0.7379
 4979TIP3    H136428   3.792   2.360  13.003  0.7846 -0.2246 -2.5054
 4979TIP3    H236429   3.702   2.253  12.946 -1.1891 -0.2582  0.4707
 4980TIP3   OH236430   1.890   3.034   2.240  0.7550  0.0177  0.1652
 4980TIP3    H136431   1.850   3.112   2.203  0.5377 -1.3314 -2.6665
 4980TIP3    H236432   1.976   3.029   2.197  0.9618 -1.0314  0.6778
 4981TIP3   OH236433   1.649   3.569  15.558 -0.5094 -0.1453 -0.3182
 4981TIP3    H136434   1.660   3.569  15.653 -1.9281  0.2848 -0.1283
 4981TIP3    H236435   1.733   3.599  15.523  0.2375 -0.9405  0.7607
 4982TIP3   OH236436   1.362   4.725  13.227 -0.3123  0.3039  0.2043
 4982TIP3    H136437   1.412   4.795  13.186 -0.0034  0.8525  1.4698
 4982TIP3    H236438   1.396   4.644  13.187  1.0411  0.7190  0.4766
 4983TIP3   OH236439   2.380   3.790  17.257  0.0774 -0.3533 -0.0369
 4983TIP3    H136440   2.288   3.802  17.281  0.3238 -0.2361  0.9073
 4983TIP3    H236441   2.390   3.695  17.250  0.4332 -0.5668  2.3430
 4984TIP3   OH236442   4.676   6.547   3.989  0.4552 -0.1711  0.0504
 4984TIP3    H136443   4.650   6.455   3.985  1.2533 -0.4066  0.0854
 4984TIP3    H236444   4.741   6.551   4.060  0.1932  0.4782  0.2610
 4985TIP3   OH236445   3.132   3.851  12.853  0.4735 -0.0376  0.0421
 4985TIP3    H136446   3.084   3.799  12.916  1.9583 -0.3284  0.9889
 4985TIP3    H236447   3.174   3.787  12.795  2.1671  0.0464  1.1074
 4986TIP3   OH236448   6.801   4.944   4.121 -0.0506 -0.1368 -0.4568
 4986TIP3    H136449   6.839   4.993   4.048 -2.0144  1.2404 -0.6521
 4986TIP3    H236450   6.829   4.992   4.199  0.4557 -0.4687 -0.4300
 4987TIP3   OH236451   1.437   2.288  17.117 -0.5284 -0.1996  0.0849
 4987TIP3    H136452   1.522   2.309  17.079  1.8453 -3.1833  3.0361
 4987TIP3    H236453   1.392   2.372  17.124  3.4393  2.1042  1.0745
 4988TIP3   OH236454   1.507   6.444  11.169  0.4076  0.4087  0.7486
 4988TIP3    H136455   1.467   6.420  11.085  1.9303 -1.5015  0.4851
 4988TIP3    H236456   1.502   6.539  11.172 -0.7704  0.4479 -0.9366
 4989TIP3   OH236457   3.020   0.852  14.924  0.4172  0.1229  0.3058
 4989TIP3    H136458   2.942   0.837  14.872 -0.2893  2.3130  0.6405
 4989TIP3    H236459   3.093   0.842  14.863 -0.1731 -0.7241 -0.2797
 4990TIP3   OH236460   2.726   2.509  15.790  0.0158 -0.2035 -0.1871
 4990TIP3    H136461   2.685   2.434  15.833  1.1119 -1.5140 -1.3154
 4990TIP3    H236462   2.656   2.551  15.741 -0.5538 -0.6875  0.2089
 4991TIP3   OH236463   5.469   2.725  15.721 -0.1592  0.4066  0.7589
 4991TIP3    H136464   5.411   2.798  15.742 -1.2768 -0.9159  2.5114
 4991TIP3    H236465   5.418   2.672  15.659 -0.8843 -0.7290  2.2596
 4992TIP3   OH236466   2.727   1.758  12.120 -0.0769 -0.1530 -0.2148
 4992TIP3    H136467   2.789   1.821  12.083 -1.5996  1.7355  0.2437
 4992TIP3    H236468   2.708   1.792  12.208 -2.5843  0.0464 -0.7426
 4993TIP3   OH236469   3.157   3.937  13.765 -0.5752 -0.1241 -0.5165
 4993TIP3    H136470   3.161   3.844  13.787 -2.1682 -0.4386 -1.4114
 4993TIP3    H236471   3.248   3.962  13.749 -0.2141 -1.8055 -1.3483
 4994TIP3   OH236472   0.939   1.724  15.818 -0.0249 -0.6159 -0.0860
 4994TIP3    H136473   0.910   1.811  15.845 -0.5245 -0.2423 -1.6929
 4994TIP3    H236474   0.898   1.710  15.732  2.1793 -1.3009 -1.1115
 4995TIP3   OH236475   6.220   0.939   3.495  0.1118 -0.1660 -0.3935
 4995TIP3    H136476   6.144   0.893   3.530  0.8451  0.4421  2.2269
 4995TIP3    H236477   6.295   0.893   3.533  0.9677  0.9002 -0.7355
 4996TIP3   OH236478   5.237   6.282  12.955  0.2644 -0.2025 -0.0858
 4996TIP3    H136479   5.293   6.331  13.015 -0.0432  0.2998 -0.2062
 4996TIP3    H236480   5.289   6.275  12.875 -0.1513  0.9539 -0.4658
 4997TIP3   OH236481   2.953   0.137  12.020 -0.9287  0.4229 -0.1843
 4997TIP3    H136482   3.038   0.099  11.997 -1.2320  0.8520 -2.1531
 4997TIP3    H236483   2.914   0.074  12.081 -0.6697 -1.6022 -2.0051
 4998TIP3   OH236484   1.464   5.853  11.340  0.3405  0.3609  0.6023
 4998TIP3    H136485   1.487   5.939  11.376  0.5285  0.7370 -0.3824
 4998TIP3    H236486   1.498   5.790  11.404  1.0658  0.9968  0.8627
 4999TIP3   OH236487   6.300   3.863  13.999  0.0341 -0.2876 -0.1949
 4999TIP3    H136488   6.297   3.773  13.966  0.8871 -0.5363  0.3633
 4999TIP3    H236489   6.296   3.854  14.094 -1.9275  0.3936 -0.1621
 5000TIP3   OH236490   6.520   4.077  13.551  0.0812 -0.0648 -0.3220
 5000TIP3    H136491   6.464   4.154  13.541  0.8102  0.2342 -2.5544
 5000TIP3    H236492   6.600   4.110  13.591 -0.3387 -0.0388  0.5194
 5001TIP3   OH236493   5.808   3.961   5.250  0.0256 -0.4625  0.2186
 5001TIP3    H136494   5.855   4.008   5.319 -0.4488 -0.4041  0.4995
 5001TIP3    H236495   5.850   3.875   5.247 -0.9241 -1.0080  1.6149
 5002TIP3   OH236496   5.568   1.725   6.248 -1.1076  0.9865  0.1321
 5002TIP3    H136497   5.518   1.790   6.199 -0.3505  0.5224 -1.3121
 5002TIP3    H236498   5.505   1.655   6.266 -1.6730  1.6589  0.8328
 5003TIP3   OH236499   4.335   1.409   4.379 -0.0113 -0.8179 -0.5142
 5003TIP3    H136500   4.425   1.431   4.401 -0.4958  2.1034 -0.9294
 5003TIP3    H236501   4.294   1.388   4.463  0.6190 -0.1838 -0.0315
 5004TIP3   OH236502   1.455   0.383  13.400 -0.2776  0.6265  0.8937
 5004TIP3    H136503   1.363   0.408  13.391 -0.5422  1.6335  4.7553
 5004TIP3    H236504   1.503   0.452  13.355 -1.2828 -0.0790 -1.4630
 5005TIP3   OH236505   2.561   3.986   3.397 -0.1180 -0.2729  0.2247
 5005TIP3    H136506   2.630   3.934   3.439  1.2224  0.5111 -0.8965
 5005TIP3    H236507   2.479   3.943   3.422  0.4679  0.4927  4.1514
 5006TIP3   OH236508   5.018   1.355  15.971 -0.2482  0.3775  0.2604
 5006TIP3    H136509   5.023   1.393  16.058 -0.2507  0.6867  0.1254
 5006TIP3    H236510   5.102   1.312  15.959  0.4056  1.7473 -0.2372
 5007TIP3   OH236511   4.245   4.446  11.368 -0.5509  0.1128  0.5737
 5007TIP3    H136512   4.253   4.437  11.273 -2.1806  0.8439  0.3273
 5007TIP3    H236513   4.318   4.502  11.393  0.2769 -0.6191 -0.1353
 5008TIP3   OH236514   5.665   1.880  13.329 -0.1675 -0.1985  0.2463
 5008TIP3    H136515   5.576   1.847  13.315  0.0126  0.2577 -2.5314
 5008TIP3    H236516   5.722   1.816  13.286  0.6127  0.8577 -0.3515
 5009TIP3   OH236517   5.604   6.677  12.217 -0.6953 -0.4901 -0.5970
 5009TIP3    H136518   5.689   6.663  12.259 -1.1865 -0.9272  0.2632
 5009TIP3    H236519   5.540   6.662  12.286 -1.4991 -0.6471 -1.3617
 5010TIP3   OH236520   6.407   1.764   4.989  0.6756  0.2868 -0.1142
 5010TIP3    H136521   6.499   1.782   5.008  0.8932 -1.9603  1.3804
 5010TIP3    H236522   6.361   1.796   5.067  0.3161  0.4771 -0.4057
 5011TIP3   OH236523   4.997   1.025  14.523 -0.5484 -0.3782  0.1380
 5011TIP3    H136524   5.052   1.025  14.445 -0.9846 -0.6096 -0.1756
 5011TIP3    H236525   5.002   0.935  14.555 -0.1132 -0.2044  0.5631
 5012TIP3   OH236526   3.475   3.823   4.307  0.5307  0.0277  0.7534
 5012TIP3    H136527   3.450   3.903   4.354 -0.6289  0.3368 -0.3177
 5012TIP3    H236528   3.449   3.840   4.217  0.8800 -1.3156  0.3844
 5013TIP3   OH236529   5.872   4.619  15.716 -0.0964 -0.3031 -0.5509
 5013TIP3    H136530   5.830   4.545  15.671  0.5225 -1.4057  0.6168
 5013TIP3    H236531   5.966   4.605  15.702  0.1242 -0.7620  1.1477
 5014TIP3   OH236532   1.670   4.226  15.727 -0.1101  0.2409  0.1703
 5014TIP3    H136533   1.703   4.138  15.747  0.0960  0.6067  1.5368
 5014TIP3    H236534   1.577   4.214  15.711  0.4475 -0.7183 -3.1618
 5015TIP3   OH236535   3.197   6.096  15.211 -0.0596  0.0350  0.2173
 5015TIP3    H136536   3.152   6.048  15.281  2.4115 -0.0976  1.8624
 5015TIP3    H236537   3.287   6.062  15.214  0.3198  0.6370 -2.5300
 5016TIP3   OH236538   5.988   4.720  12.331 -0.0816 -0.0373 -0.5621
 5016TIP3    H136539   5.999   4.807  12.369  1.4247 -0.2514 -0.4416
 5016TIP3    H236540   5.966   4.663  12.405  0.9542 -0.1078 -0.2921
 5017TIP3   OH236541   0.092   5.635  14.708 -0.5587 -0.3340 -0.8087
 5017TIP3    H136542   0.004   5.613  14.739 -1.4900 -0.1697 -3.1372
 5017TIP3    H236543   0.086   5.728  14.686  0.4463 -0.1379 -0.3048
 5018TIP3   OH236544   0.366   4.031  14.682 -0.1944  0.5945  0.4696
 5018TIP3    H136545   0.288   4.031  14.737 -0.4462  3.0586  0.2457
 5018TIP3    H236546   0.383   4.124  14.666  2.9006  0.1685  0.6701
 5019TIP3   OH236547   0.310   3.253  11.196  0.3670 -0.0673 -0.2090
 5019TIP3    H136548   0.357   3.303  11.129 -1.5999  1.6889 -0.3725
 5019TIP3    H236549   0.234   3.216  11.150  0.8953 -1.8722  0.2956
 5020TIP3   OH236550   5.396   5.483   0.032  0.2045 -0.2788  0.0417
 5020TIP3    H136551   5.466   5.496   0.096  0.7279 -0.3880 -0.4910
 5020TIP3    H236552   5.326   5.439   0.081  1.0739 -1.4832  0.2607
 5021TIP3   OH236553   6.631   4.978  10.963 -0.0665 -0.4054 -0.6283
 5021TIP3    H136554   6.722   4.995  10.939 -0.0675  0.1912 -0.2329
 5021TIP3    H236555   6.599   4.920  10.894  0.7713 -1.0979 -0.4604
 5022TIP3   OH236556   4.985   1.931  15.315 -0.0254  0.3724  0.0858
 5022TIP3    H136557   4.960   2.009  15.364  2.4877  1.8635 -0.8518
 5022TIP3    H236558   5.041   1.882  15.374  1.1761  1.0417 -0.4678
 5023TIP3   OH236559   3.362   2.984   3.486  0.7154 -0.2883  0.0414
 5023TIP3    H136560   3.400   3.070   3.467 -1.1381  0.6138  0.2573
 5023TIP3    H236561   3.300   3.001   3.557 -0.0219 -1.7179 -0.2410
 5024TIP3   OH236562   4.358   3.616  13.851  0.1195 -0.1938  0.0076
 5024TIP3    H136563   4.302   3.543  13.826  1.0109 -1.1386  0.7268
 5024TIP3    H236564   4.401   3.643  13.770 -1.2164  0.4558 -0.5348
 5025TIP3   OH236565   2.009   4.985  14.904  0.1073  0.3099  0.3707
 5025TIP3    H136566   1.992   4.898  14.939  0.3242  0.7070  1.4751
 5025TIP3    H236567   2.047   4.969  14.818 -0.5530 -0.6671  0.2461
 5026TIP3   OH236568   3.406   3.868  16.542  0.0094  0.5497 -0.0844
 5026TIP3    H136569   3.415   3.789  16.489  1.1583  1.9328 -2.0774
 5026TIP3    H236570   3.399   3.836  16.632 -0.6347 -1.8357 -0.9187
 5027TIP3   OH236571   1.425   5.085   6.403 -0.2005  0.4409 -0.3263
 5027TIP3    H136572   1.486   5.070   6.330 -0.5999  2.5025 -1.1580
 5027TIP3    H236573   1.460   5.163   6.447 -2.1778  1.6924 -0.8446
 5028TIP3   OH236574   1.157   0.894   5.815 -0.0318 -0.3632 -0.2354
 5028TIP3    H136575   1.226   0.944   5.771 -0.1652 -1.8298 -2.2556
 5028TIP3    H236576   1.196   0.867   5.898  0.8598  1.0539 -0.1682
 5029TIP3   OH236577   6.224   2.151  15.150  0.5075  0.1332 -0.5406
 5029TIP3    H136578   6.198   2.197  15.070 -2.1059  0.6709  0.5158
 5029TIP3    H236579   6.276   2.215  15.198  0.1252  0.6453 -0.7933
 5030TIP3   OH236580   6.388   4.837   6.398 -0.0330 -0.2579 -0.7418
 5030TIP3    H136581   6.405   4.915   6.451  1.6985 -0.4209 -1.0099
 5030TIP3    H236582   6.314   4.862   6.342  0.0943  0.9772 -0.3884
 5031TIP3   OH236583   0.207   2.816   6.249 -0.9490  0.2023  0.3275
 5031TIP3    H136584   0.143   2.877   6.213 -0.0626  0.8301 -0.2090
 5031TIP3    H236585   0.235   2.856   6.331  1.5962  1.9393 -1.2614
 5032TIP3   OH236586   4.449   3.133  14.266 -0.3035  0.4572  0.2248
 5032TIP3    H136587   4.523   3.090  14.221 -1.6172 -1.3262 -0.3363
 5032TIP3    H236588   4.491   3.196  14.324  1.5833  1.2580 -1.8336
 5033TIP3   OH236589   2.672   5.030  16.865  0.0362 -0.4048  0.5357
 5033TIP3    H136590   2.583   4.999  16.849  0.1950 -0.2339 -0.7677
 5033TIP3    H236591   2.705   5.054  16.779  1.2278 -0.1344  1.0475
 5034TIP3   OH236592   1.371   5.598   6.229 -0.1166 -0.5531 -0.1274
 5034TIP3    H136593   1.279   5.571   6.224 -0.1732 -0.3110 -0.3713
 5034TIP3    H236594   1.368   5.691   6.251  0.0493 -0.3455 -0.9271
 5035TIP3   OH236595   0.465   5.081   5.710  0.0948  0.6825  0.4817
 5035TIP3    H136596   0.508   5.111   5.631  0.2857 -0.6993  0.0353
 5035TIP3    H236597   0.434   5.161   5.753  2.4812  1.6760  0.4902
 5036TIP3   OH236598   4.862   0.692   1.654  0.0683 -0.0515 -0.1291
 5036TIP3    H136599   4.810   0.715   1.578  0.8332 -1.7452 -1.2365
 5036TIP3    H236600   4.916   0.769   1.671  0.5725  0.0235 -1.9169
 5037TIP3   OH236601   3.986   5.404  12.052 -0.1149 -0.3645 -0.3032
 5037TIP3    H136602   4.063   5.406  12.108 -0.7785 -0.9034  0.6514
 5037TIP3    H236603   3.912   5.412  12.112 -0.8097  0.5472 -1.2305
 5038TIP3   OH236604   0.921   3.279  16.184 -0.2031 -0.8098  1.1509
 5038TIP3    H136605   0.939   3.373  16.183  0.4716 -0.9269 -0.1737
 5038TIP3    H236606   0.827   3.272  16.203 -1.0512  0.3274 -1.9895
 5039TIP3   OH236607   3.881   4.731  11.755  0.2081  0.0405 -0.1098
 5039TIP3    H136608   3.900   4.792  11.826  0.0988 -2.0024  1.7659
 5039TIP3    H236609   3.927   4.651  11.779 -1.9942 -1.5729 -0.9376
 5040TIP3   OH236610   2.043   2.623   6.017  0.1963  0.1984 -0.4804
 5040TIP3    H136611   2.125   2.576   6.036 -0.2191 -0.7830 -1.0456
 5040TIP3    H236612   2.046   2.699   6.074  0.5383 -0.9222  1.0694
 5041TIP3   OH236613   4.235   1.865  15.348  0.7007  0.2840 -0.0472
 5041TIP3    H136614   4.148   1.880  15.384  0.6568 -1.1387  0.5282
 5041TIP3    H236615   4.294   1.879  15.421  0.9525  1.1747 -0.4187
 5042TIP3   OH236616   1.427   6.169  13.520 -0.0950  0.3436 -0.0340
 5042TIP3    H136617   1.393   6.255  13.494 -0.9400  0.3495  1.0643
 5042TIP3    H236618   1.478   6.140  13.444  1.3115  2.3911  0.0346
 5043TIP3   OH236619   4.386   4.667   1.432 -0.1212  0.1026  0.5321
 5043TIP3    H136620   4.388   4.716   1.350 -0.3335 -1.9336 -0.7425
 5043TIP3    H236621   4.299   4.628   1.435 -0.2644  0.4730  1.9567
 5044TIP3   OH236622   5.690   0.258  16.156 -0.0009  0.0357  0.1007
 5044TIP3    H136623   5.770   0.288  16.200 -2.3325  3.5119  2.4613
 5044TIP3    H236624   5.643   0.338  16.134 -2.3829 -1.8336 -2.2663
 5045TIP3   OH236625   5.739   2.594  10.935  0.5428  0.6541 -0.3015
 5045TIP3    H136626   5.764   2.507  10.966  1.9422  1.2034  0.1764
 5045TIP3    H236627   5.714   2.641  11.015  0.0148  0.7648 -0.5294
 5046TIP3   OH236628   2.033   6.518  12.827  0.1769  0.0377 -0.2340
 5046TIP3    H136629   2.013   6.585  12.893 -0.9966  0.5211 -1.0497
 5046TIP3    H236630   2.114   6.549  12.786  2.4522 -1.5855  2.6435
 5047TIP3   OH236631   2.997   4.495  11.889 -0.4461 -0.3422 -0.6813
 5047TIP3    H136632   3.014   4.477  11.981  0.9881  0.1701 -0.8220
 5047TIP3    H236633   2.903   4.514  11.885 -0.5821 -0.6535  0.6154
 5048TIP3   OH236634   0.013   1.060   4.416  0.0057 -0.3023 -0.8446
 5048TIP3    H136635  -0.038   1.131   4.455 -0.7885 -0.8490 -0.8579
 5048TIP3    H236636  -0.052   1.005   4.372  0.7541 -0.3211 -1.9774
 5049TIP3   OH236637   6.608   1.234  12.856  0.2432  0.5618  0.1823
 5049TIP3    H136638   6.688   1.233  12.909  0.4975  1.5107 -0.1658
 5049TIP3    H236639   6.558   1.158  12.887  1.1062  0.1702  0.6577
 5050TIP3   OH236640   4.075   4.128  13.214  0.0229 -0.1735 -0.2242
 5050TIP3    H136641   4.091   4.034  13.207 -0.3046 -0.3866  1.5750
 5050TIP3    H236642   4.163   4.166  13.218  0.1514 -0.4298 -0.5348
 5051TIP3   OH236643   2.672   1.153  16.314 -0.2720  0.1540  0.2295
 5051TIP3    H136644   2.678   1.058  16.320 -3.0180 -0.0506  1.0259
 5051TIP3    H236645   2.696   1.173  16.223  1.8526 -1.0823  0.4586
 5052TIP3   OH236646   2.369   0.236   4.604 -0.1807 -0.0452 -0.3462
 5052TIP3    H136647   2.396   0.300   4.538 -1.2029  0.3443 -0.4170
 5052TIP3    H236648   2.277   0.257   4.620 -0.9851 -2.4283 -1.4494
 5053TIP3   OH236649   1.008   5.349   3.336  0.0613 -0.3731 -0.3821
 5053TIP3    H136650   0.942   5.320   3.273 -0.0565 -0.5639 -0.1723
 5053TIP3    H236651   0.984   5.306   3.418  0.3921 -0.3678 -0.2807
 5054TIP3   OH236652   6.531   2.246  13.880  0.0875  0.4484 -0.2093
 5054TIP3    H136653   6.459   2.206  13.928 -0.7848 -0.2425 -1.9758
 5054TIP3    H236654   6.564   2.315  13.937 -0.5600 -0.6245  1.5338
 5055TIP3   OH236655   4.756   3.957  15.787  0.1928  0.4572  0.0653
 5055TIP3    H136656   4.683   3.985  15.731  0.6867 -0.9793 -1.3866
 5055TIP3    H236657   4.739   3.864  15.803  1.5059  0.1831 -0.0245
 5056TIP3   OH236658   3.390   6.483   4.674 -0.1933  0.3622  0.4210
 5056TIP3    H136659   3.308   6.437   4.694 -0.0951 -0.0888 -0.1915
 5056TIP3    H236660   3.366   6.549   4.610 -0.5825  2.0761  2.2396
 5057TIP3   OH236661   6.445   3.524   1.407  0.0452  0.0593 -0.1190
 5057TIP3    H136662   6.535   3.514   1.437  0.5020  0.5082 -1.2442
 5057TIP3    H236663   6.454   3.570   1.323 -1.1425 -1.0833 -0.9089
 5058TIP3   OH236664   3.743   6.639   2.026 -0.2973 -0.2431  0.2376
 5058TIP3    H136665   3.814   6.574   2.018  0.9771  1.1473 -0.2631
 5058TIP3    H236666   3.780   6.709   2.079 -1.3239  0.4902  0.0232
 5059TIP3   OH236667   2.126   5.416   0.079  0.2539  0.5080  0.4044
 5059TIP3    H136668   2.131   5.501   0.035  1.9553 -0.3368 -1.1738
 5059TIP3    H236669   2.069   5.364   0.023  1.8566 -0.3560 -0.4937
 5060TIP3   OH236670   5.561   0.497  16.122  0.3387 -0.0864  0.2403
 5060TIP3    H136671   5.654   0.516  16.109  0.6055 -1.7399 -0.4168
 5060TIP3    H236672   5.521   0.510  16.036  0.0109  0.2824  0.4421
 5061TIP3   OH236673   4.744   0.731  11.336  0.6096 -0.3427  0.2537
 5061TIP3    H136674   4.660   0.775  11.349  1.0115 -0.0771  2.2148
 5061TIP3    H236675   4.730   0.641  11.366  0.7043 -0.6483 -0.5879
 5062TIP3   OH236676   0.504   5.488   1.357 -0.2045 -0.5713  0.0459
 5062TIP3    H136677   0.543   5.574   1.342  0.6939 -1.0064 -0.2129
 5062TIP3    H236678   0.565   5.427   1.314 -0.2828 -1.4217  1.0979
 5063TIP3   OH236679   5.865   5.736  10.716  0.0503 -0.0164  0.0753
 5063TIP3    H136680   5.943   5.779  10.682 -0.0613 -0.8126 -1.2686
 5063TIP3    H236681   5.889   5.709  10.805  1.8210 -1.5245 -0.8056
 5064TIP3   OH236682   4.532   0.229  11.576  0.1135 -0.6494 -0.3258
 5064TIP3    H136683   4.624   0.207  11.560  0.6293  0.6242  0.6568
 5064TIP3    H236684   4.504   0.169  11.644 -0.5432 -2.6366 -2.2431
 5065TIP3   OH236685   2.468   4.094   4.831 -0.0517  0.0847  0.0350
 5065TIP3    H136686   2.519   4.063   4.906 -0.0878  0.2435  0.1260
 5065TIP3    H236687   2.396   4.143   4.870 -1.8012 -2.3121  0.0314
 5066TIP3   OH236688   4.150   3.643  15.886  0.2363 -0.4783  0.0337
 5066TIP3    H136689   4.124   3.552  15.899  0.8497 -0.6224  0.2522
 5066TIP3    H236690   4.238   3.638  15.849  0.6845  0.0421  0.9919
 5067TIP3   OH236691   0.798   5.384  13.308 -0.1907  0.6712 -0.0398
 5067TIP3    H136692   0.724   5.330  13.335 -0.7622  0.9929 -0.9124
 5067TIP3    H236693   0.860   5.377  13.380 -1.1177  0.4852  0.7665
 5068TIP3   OH236694   1.547   0.325   4.699 -0.0593 -0.2414  0.0426
 5068TIP3    H136695   1.467   0.318   4.751 -1.2925 -2.3932 -1.9493
 5068TIP3    H236696   1.577   0.235   4.688  1.3784  0.3410 -1.1513
 5069TIP3   OH236697   5.429   3.463  15.112  0.0674  0.2510 -0.4605
 5069TIP3    H136698   5.354   3.508  15.071  0.7772  1.4427 -0.5127
 5069TIP3    H236699   5.409   3.370  15.104 -1.7017  0.5373  0.0612
 5070TIP3   OH236700   5.163   2.214   2.884 -0.5127  0.5015 -0.7555
 5070TIP3    H136701   5.111   2.294   2.895 -0.3993  0.5715 -0.7213
 5070TIP3    H236702   5.153   2.168   2.968 -0.7962  0.3473 -0.8711
 5071TIP3   OH236703   0.744   1.163   0.711 -0.5136  0.0184  0.3096
 5071TIP3    H136704   0.810   1.218   0.753 -2.1766  0.9965  1.8007
 5071TIP3    H236705   0.661   1.207   0.729 -1.6059 -1.1471 -1.5094
 5072TIP3   OH236706   2.924   1.586  12.693 -0.3691  0.3308  0.4780
 5072TIP3    H136707   2.954   1.516  12.751 -1.1894 -1.1643 -0.7936
 5072TIP3    H236708   2.988   1.656  12.704  1.0075 -0.9749  1.1555
 5073TIP3   OH236709   4.051   0.065   6.317 -0.2138  0.2161  0.0271
 5073TIP3    H136710   4.114   0.053   6.388 -0.3573 -0.2728  0.0722
 5073TIP3    H236711   3.966   0.047   6.357 -0.5618  2.2893  0.3493
 5074TIP3   OH236712   0.619   1.921  16.708  0.3368 -0.3060 -0.0260
 5074TIP3    H136713   0.601   1.829  16.728 -1.3280  0.3172  1.5289
 5074TIP3    H236714   0.606   1.928  16.613  2.3703 -2.0211 -0.5261
 5075TIP3   OH236715   1.428   6.283   4.833 -0.5772  0.0779  0.1085
 5075TIP3    H136716   1.341   6.323   4.825 -0.8583 -0.8351 -2.0956
 5075TIP3    H236717   1.474   6.310   4.753  0.2755 -1.4752  0.0432
 5076TIP3   OH236718   4.495   3.402  14.974  1.2584  0.4965 -0.0885
 5076TIP3    H136719   4.562   3.460  15.010  0.0056  1.7295  0.3506
 5076TIP3    H236720   4.491   3.330  15.036  2.5763  0.0770 -0.4442
 5077TIP3   OH236721   3.944   2.448  16.867  0.0064  0.1151 -0.2619
 5077TIP3    H136722   3.873   2.479  16.924  0.1160  0.9171 -0.5537
 5077TIP3    H236723   3.982   2.375  16.914 -0.4932  0.1952  0.2755
 5078TIP3   OH236724   1.400   5.385   4.177  0.7134  0.0128 -0.4232
 5078TIP3    H136725   1.394   5.325   4.251  0.5042  0.5417 -0.0024
 5078TIP3    H236726   1.401   5.472   4.217  0.8257  0.2964 -1.0313
 5079TIP3   OH236727   6.705   4.480  16.930 -0.7206 -0.4456 -0.2327
 5079TIP3    H136728   6.734   4.571  16.932 -0.6169 -0.4895  1.2431
 5079TIP3    H236729   6.719   4.447  17.019  1.2902 -2.5776 -1.2253
 5080TIP3   OH236730   5.441   3.224  11.131 -0.5279  0.2427 -0.1277
 5080TIP3    H136731   5.420   3.134  11.154 -0.3734 -0.4131 -2.3155
 5080TIP3    H236732   5.536   3.226  11.125 -0.4829  0.7653  0.6694
 5081TIP3   OH236733   6.095   0.260  15.726  0.0024  0.0489 -0.8507
 5081TIP3    H136734   6.160   0.239  15.794 -1.5630 -0.6350  0.4831
 5081TIP3    H236735   6.135   0.227  15.645  0.4735 -2.2989  0.2316
 5082TIP3   OH236736   2.512   0.824  11.629  0.1266 -0.1457  0.5764
 5082TIP3    H136737   2.463   0.743  11.645 -1.3107  0.9151  1.9875
 5082TIP3    H236738   2.513   0.833  11.534 -1.7732 -0.6598  0.4520
 5083TIP3   OH236739   4.780   2.351   3.723  0.4793  0.1112  0.3092
 5083TIP3    H136740   4.736   2.348   3.808  0.1644 -0.5013  0.1293
 5083TIP3    H236741   4.761   2.266   3.683  1.5777 -0.0562  0.1025
 5084TIP3   OH236742   4.466   2.285   5.872 -0.3989 -0.4329  0.2914
 5084TIP3    H136743   4.461   2.275   5.777  4.3310 -0.1371 -0.2339
 5084TIP3    H236744   4.509   2.205   5.902  1.4347  0.9518  1.5825
 5085TIP3   OH236745   0.413   3.309   3.771 -0.0227 -0.5220  0.3378
 5085TIP3    H136746   0.391   3.268   3.855 -0.9246  0.7995  0.7968
 5085TIP3    H236747   0.328   3.321   3.728  0.4461 -1.2686 -0.8187
 5086TIP3   OH236748   5.258   4.284   2.557 -0.4209  0.2503 -0.0645
 5086TIP3    H136749   5.173   4.319   2.530 -0.7523 -0.6171 -0.1537
 5086TIP3    H236750   5.257   4.193   2.529  0.1715 -0.0269  0.7784
 5087TIP3   OH236751   0.784   2.135  16.661  0.3960  0.2428 -0.5313
 5087TIP3    H136752   0.721   2.079  16.706  0.6899  0.6222  0.3862
 5087TIP3    H236753   0.853   2.075  16.632 -0.2358 -0.1279 -1.2757
 5088TIP3   OH236754   4.722   2.852  17.264 -0.1670 -0.0259  0.2317
 5088TIP3    H136755   4.777   2.778  17.289  0.4168  0.9168  1.9169
 5088TIP3    H236756   4.641   2.839  17.312 -0.3744 -0.0026 -0.1106
 5089TIP3   OH236757   6.494   3.261   6.676 -0.2589 -0.1929  0.2844
 5089TIP3    H136758   6.491   3.218   6.590  0.4619 -1.3977  0.8419
 5089TIP3    H236759   6.579   3.304   6.678 -0.2695 -0.1787  0.4095
 5090TIP3   OH236760   0.280   2.627  16.647  0.2685  0.6691  0.2459
 5090TIP3    H136761   0.258   2.719  16.631 -2.1114  0.1801  0.4189
 5090TIP3    H236762   0.296   2.623  16.741 -0.5723  0.7515  0.4021
 5091TIP3   OH236763   2.070   2.502  12.955  0.2549 -0.8121  0.3867
 5091TIP3    H136764   2.062   2.435  12.887  1.5548 -0.0832 -0.5423
 5091TIP3    H236765   2.162   2.497  12.983  0.6637  1.2047 -0.4170
 5092TIP3   OH236766   0.827   4.728   0.158 -0.3021  0.2629 -0.1465
 5092TIP3    H136767   0.882   4.658   0.193  0.7625 -0.5851 -3.1741
 5092TIP3    H236768   0.879   4.807   0.167  0.2052 -0.0458 -0.3557
 5093TIP3   OH236769   2.610   3.011   1.739  0.4606  0.0836  0.3245
 5093TIP3    H136770   2.540   3.075   1.756 -1.5619 -1.8637 -0.1427
 5093TIP3    H236771   2.653   2.999   1.824  0.2342  1.2950  0.6339
 5094TIP3   OH236772   2.842   5.557  14.481  0.2826  0.4214 -0.2784
 5094TIP3    H136773   2.876   5.646  14.467 -0.4133  0.8266  0.4877
 5094TIP3    H236774   2.830   5.552  14.576  1.3485 -0.8933 -0.1828
 5095TIP3   OH236775   5.574   1.669  16.861 -0.5985  0.0942 -0.0124
 5095TIP3    H136776   5.559   1.584  16.904  0.3694  0.2404  0.6682
 5095TIP3    H236777   5.509   1.728  16.899  0.2159  0.2102  1.2711
 5096TIP3   OH236778   4.280   1.084   3.791  0.0652 -0.1504 -0.2185
 5096TIP3    H136779   4.286   0.991   3.768 -1.4629 -0.8341  1.8669
 5096TIP3    H236780   4.190   1.095   3.820 -0.1442  2.3212 -1.5774
 5097TIP3   OH236781   4.014   5.275  13.627  0.1140 -0.6857  0.5704
 5097TIP3    H136782   3.964   5.268  13.708  0.4656 -2.5884  0.6644
 5097TIP3    H236783   3.964   5.336  13.573 -1.3314 -1.1115  1.3704
 5098TIP3   OH236784   0.084   1.951  12.092  0.5242  0.0741  0.3999
 5098TIP3    H136785   0.112   2.011  12.023 -0.7160  1.1500  0.7879
 5098TIP3    H236786  -0.009   1.938  12.076  0.3551 -0.1642  1.5006
 5099TIP3   OH236787   1.809   4.838   3.303  0.0163  0.3652 -0.1848
 5099TIP3    H136788   1.829   4.827   3.396  0.7911  1.1371 -0.2524
 5099TIP3    H236789   1.841   4.758   3.262 -0.4571 -0.0438  0.2219
 5100TIP3   OH236790   1.738   2.328   4.144  0.6137 -0.0896 -0.4318
 5100TIP3    H136791   1.738   2.387   4.220  3.5717 -1.5508  0.8980
 5100TIP3    H236792   1.759   2.242   4.181  1.5841 -0.9635 -2.8415
 5101TIP3   OH236793   3.303   2.727  10.835 -0.3444 -0.9460 -0.2962
 5101TIP3    H136794   3.341   2.806  10.797 -2.1160  0.5518  0.8536
 5101TIP3    H236795   3.222   2.757  10.877 -0.9576 -3.3406  0.4075
 5102TIP3   OH236796   4.071   1.832  12.618 -0.4234 -0.1239 -0.1854
 5102TIP3    H136797   4.127   1.764  12.581 -0.2367 -1.6510  2.5782
 5102TIP3    H236798   3.997   1.840  12.557  1.7290  0.5487 -2.9046
 5103TIP3   OH236799   6.208   3.199  12.870  0.5344 -0.1029  0.6653
 5103TIP3    H136800   6.133   3.210  12.928  0.7525 -0.2354  0.9774
 5103TIP3    H236801   6.255   3.123  12.906 -1.7353 -3.1607 -2.2652
 5104TIP3   OH236802   4.004   0.599   4.492 -0.1792 -0.0586 -0.1992
 5104TIP3    H136803   3.918   0.638   4.477 -0.4191 -1.4616 -3.2619
 5104TIP3    H236804   4.016   0.538   4.419  4.2082  1.3924 -1.0274
 5105TIP3   OH236805   6.416   3.948  16.489  0.3717 -0.3903  0.1917
 5105TIP3    H136806   6.370   3.939  16.572 -0.1365 -0.8210 -0.1302
 5105TIP3    H236807   6.503   3.913  16.506  0.2753 -0.4601  0.5494
 5106TIP3   OH236808   2.457   4.427  12.482 -0.0671  0.3298 -0.0890
 5106TIP3    H136809   2.510   4.506  12.494  0.0682  0.5408 -1.8910
 5106TIP3    H236810   2.377   4.444  12.532  0.3094  1.2497  0.2271
 5107TIP3   OH236811   2.761   4.747  13.181  0.2409 -0.1410  0.5620
 5107TIP3    H136812   2.795   4.728  13.269  0.6359  0.4989  0.5550
 5107TIP3    H236813   2.809   4.825  13.153  0.2935 -0.4845 -0.3272
 5108TIP3   OH236814   2.251   4.371  10.969  0.2224 -0.2944  0.0798
 5108TIP3    H136815   2.231   4.367  10.876 -1.1328  1.6859  0.1959
 5108TIP3    H236816   2.169   4.399  11.010  1.1328  0.1973  1.6957
 5109TIP3   OH236817   4.197   0.928  14.096  0.1311  0.1896  0.4467
 5109TIP3    H136818   4.234   0.932  14.008  0.5995 -0.2832  0.6177
 5109TIP3    H236819   4.235   0.849  14.135 -0.6956 -0.0457  0.7918
 5110TIP3   OH236820   3.132   2.492   3.225  0.0937  0.0858 -0.5469
 5110TIP3    H136821   3.042   2.508   3.197 -0.5112  0.1774  1.3365
 5110TIP3    H236822   3.176   2.577   3.217 -0.4633  0.4448  0.1788
 5111TIP3   OH236823   4.468   2.813   3.800 -0.1963 -0.6297 -0.3062
 5111TIP3    H136824   4.458   2.845   3.889 -0.6820 -0.7643 -0.3075
 5111TIP3    H236825   4.389   2.762   3.784 -1.3987  1.5173 -1.7248
 5112TIP3   OH236826   4.774   2.334  14.681  0.2867  0.3306 -0.0157
 5112TIP3    H136827   4.752   2.322  14.773  1.8581  0.3967  0.4037
 5112TIP3    H236828   4.704   2.389  14.646 -0.9388 -0.6385  0.8386
 5113TIP3   OH236829   4.708   1.334   3.700 -0.2908 -0.0839 -0.2734
 5113TIP3    H136830   4.681   1.269   3.635 -2.5198  0.2745  0.2136
 5113TIP3    H236831   4.674   1.300   3.783  0.5172  0.5998  0.3546
 5114TIP3   OH236832   5.269   5.290  13.929  0.2996  0.0236  0.3489
 5114TIP3    H136833   5.247   5.383  13.926  0.1247 -0.0224 -1.6973
 5114TIP3    H236834   5.362   5.287  13.952  0.3892  0.7413  0.1008
 5115TIP3   OH236835   0.543   3.314  16.766  0.2628  0.3803  0.1878
 5115TIP3    H136836   0.513   3.378  16.831 -1.1415 -0.7301  0.6653
 5115TIP3    H236837   0.638   3.315  16.775  0.3052  2.5635  0.0099
 5116TIP3   OH236838   6.775   0.829   5.894 -0.4525  0.3146  0.1814
 5116TIP3    H136839   6.757   0.817   5.988  0.9428  0.3421  0.4721
 5116TIP3    H236840   6.693   0.804   5.851 -0.6662 -1.1251  1.3236
 5117TIP3   OH236841   3.033   1.311   3.336  0.3207 -0.9625 -0.0261
 5117TIP3    H136842   2.948   1.353   3.320  1.1510  0.4686 -0.9476
 5117TIP3    H236843   3.078   1.316   3.252  1.4788 -1.3331  0.5541
 5118TIP3   OH236844   3.064   5.367  14.414  0.2762 -0.0061  0.1628
 5118TIP3    H136845   2.986   5.352  14.469 -0.4944 -1.9787 -1.3563
 5118TIP3    H236846   3.030   5.406  14.334  1.1100  0.7558  0.1612
 5119TIP3   OH236847   1.514   2.637   0.822 -0.2928  0.6404 -0.6961
 5119TIP3    H136848   1.518   2.732   0.825 -0.1252  0.6138  0.7079
 5119TIP3    H236849   1.451   2.613   0.891  1.7484 -0.3313  0.9587
 5120TIP3   OH236850   3.056   6.304   2.280 -0.4550 -0.1765 -0.1655
 5120TIP3    H136851   3.086   6.382   2.234 -1.7992 -0.6427 -1.9680
 5120TIP3    H236852   3.001   6.337   2.351 -0.2033  0.5394 -0.2978
 5121TIP3   OH236853   6.547   3.043   1.182  0.1856  0.1680  0.2857
 5121TIP3    H136854   6.622   3.004   1.138  0.5796  1.9286 -0.6883
 5121TIP3    H236855   6.541   3.132   1.146 -1.8378  0.3666  0.9840
 5122TIP3   OH236856   6.400   2.472   5.472  0.0658  0.3293 -0.1564
 5122TIP3    H136857   6.458   2.401   5.499 -0.7746 -0.2205  0.2509
 5122TIP3    H236858   6.369   2.510   5.554 -0.3755  0.4219 -0.3601
 5123TIP3   OH236859   1.329   1.300   4.736 -0.6409 -0.2121  0.0829
 5123TIP3    H136860   1.342   1.387   4.699  1.7679 -0.6636 -0.2524
 5123TIP3    H236861   1.266   1.259   4.678 -0.5339  0.7315 -0.7289
 5124TIP3   OH236862   3.388   4.068   4.697  0.3045  0.7816  0.7498
 5124TIP3    H136863   3.299   4.038   4.714  0.5198 -0.1150  0.3180
 5124TIP3    H236864   3.443   4.015   4.755  0.6370  0.7742  0.4307
 5125TIP3   OH236865   1.157   6.633   0.306 -0.0265  0.6330 -0.0001
 5125TIP3    H136866   1.189   6.543   0.316 -1.1886  0.3788  1.6893
 5125TIP3    H236867   1.237   6.685   0.295  0.7277 -0.4523  0.1366
 5126TIP3   OH236868   2.893   3.354  16.866  0.3669 -0.5087  0.2036
 5126TIP3    H136869   2.953   3.279  16.869 -0.6422 -1.3696 -0.4241
 5126TIP3    H236870   2.844   3.342  16.785 -2.0950 -1.0061  1.6823
 5127TIP3   OH236871   0.504   3.706   1.106  0.4487 -0.3938  0.2560
 5127TIP3    H136872   0.451   3.630   1.131  0.5098 -0.2782  0.7538
 5127TIP3    H236873   0.473   3.729   1.018 -1.0734  0.3351  0.9500
 5128TIP3   OH236874   0.406   0.646  17.180 -0.2531 -0.2061 -0.1537
 5128TIP3    H136875   0.367   0.568  17.140  0.8295 -0.5860 -0.4957
 5128TIP3    H236876   0.466   0.611  17.246  0.3975  0.3344 -0.4526
 5129TIP3   OH236877   1.721   4.214  15.360  0.8452 -0.9398  0.2981
 5129TIP3    H136878   1.783   4.196  15.289  1.3072 -1.8509  0.9140
 5129TIP3    H236879   1.734   4.143  15.422  0.0050 -0.4965  1.0084
 5130TIP3   OH236880   0.969   6.030   2.465 -0.5271  0.1382 -0.2198
 5130TIP3    H136881   0.920   5.958   2.505 -0.9549  0.6297  0.1555
 5130TIP3    H236882   0.990   5.999   2.377 -0.0387 -0.7459  0.1903
 5131TIP3   OH236883   0.778   5.023   3.430  0.0048 -0.1565  0.1571
 5131TIP3    H136884   0.716   4.973   3.483  1.4008 -0.8327  1.2173
 5131TIP3    H236885   0.822   4.958   3.377  0.7381  0.1293  0.3975
 5132TIP3   OH236886   0.811   6.276  17.102 -0.4916  0.2743  0.0626
 5132TIP3    H136887   0.721   6.300  17.082  0.1056  2.2950 -0.4681
 5132TIP3    H236888   0.843   6.232  17.023  0.0838  2.9761 -1.3049
 5133TIP3   OH236889   6.055   1.350   1.870  0.3384 -0.2363 -0.5797
 5133TIP3    H136890   6.041   1.282   1.935  1.4530  0.7916  0.8047
 5133TIP3    H236891   5.967   1.373   1.840 -0.0668 -2.0534 -0.8753
 5134TIP3   OH236892   5.357   3.354   6.952 -0.0857  0.1647 -0.1526
 5134TIP3    H136893   5.270   3.391   6.967 -0.1371 -0.6574  1.7680
 5134TIP3    H236894   5.356   3.328   6.860 -3.4827 -3.7942  0.7143
 5135TIP3   OH236895   2.145   3.886  13.150  0.1016 -0.4154 -0.5152
 5135TIP3    H136896   2.228   3.854  13.115 -0.2589 -1.8288 -0.1065
 5135TIP3    H236897   2.078   3.852  13.090 -0.1978  0.9894 -1.0366
 5136TIP3   OH236898   1.172   0.290  11.226 -0.2428  0.0766 -0.1146
 5136TIP3    H136899   1.243   0.226  11.219  0.3687  0.7836 -0.6075
 5136TIP3    H236900   1.133   0.292  11.139  0.2710  0.9457 -0.3422
 5137TIP3   OH236901   1.150   6.753  16.796 -0.4184 -0.1084 -0.1569
 5137TIP3    H136902   1.142   6.658  16.787  0.6273 -0.2274 -0.0475
 5137TIP3    H236903   1.241   6.771  16.770 -0.2575  0.7207  0.9318
 5138TIP3   OH236904   4.171   5.501  13.872  0.0359 -0.2577 -0.2253
 5138TIP3    H136905   4.209   5.415  13.853  3.1574  0.7162  0.8371
 5138TIP3    H236906   4.193   5.516  13.964 -0.8450  1.4839 -0.2658
 5139TIP3   OH236907   3.043   4.639   1.196 -0.1091 -0.5159  0.7133
 5139TIP3    H136908   3.083   4.581   1.261 -0.9457 -1.9337 -0.0052
 5139TIP3    H236909   2.955   4.655   1.229 -0.0599 -0.0626  0.6369
 5140TIP3   OH236910   2.644   0.277   1.971  0.5558 -0.2698  0.2568
 5140TIP3    H136911   2.554   0.262   1.944  1.1430 -0.6541 -1.6767
 5140TIP3    H236912   2.638   0.304   2.063 -1.5207 -0.0096  0.0883
 5141TIP3   OH236913   4.383   6.056   0.477 -0.3980  0.0255  0.0986
 5141TIP3    H136914   4.425   6.067   0.562  0.0864 -1.1776  0.0299
 5141TIP3    H236915   4.295   6.025   0.498 -0.2267 -0.4219  0.1586
 5142TIP3   OH236916   2.133   1.971   2.459  0.1240  0.2801 -0.2573
 5142TIP3    H136917   2.228   1.957   2.466 -0.2711 -3.6901 -0.1939
 5142TIP3    H236918   2.115   1.961   2.365 -0.3466 -0.8113 -0.0740
 5143TIP3   OH236919   2.796   1.508  13.308 -0.1297  0.7804  0.1107
 5143TIP3    H136920   2.799   1.442  13.238  1.5991 -0.4142  1.2676
 5143TIP3    H236921   2.850   1.580  13.275 -0.7288  0.9730 -0.4835
 5144TIP3   OH236922   5.229   3.179   1.251  0.1850 -0.3348 -0.1329
 5144TIP3    H136923   5.179   3.099   1.242 -1.0888  0.3016  0.9545
 5144TIP3    H236924   5.256   3.201   1.162 -0.0258 -1.5892 -0.5208
 5145TIP3   OH236925   5.546   5.936  11.638 -0.1846 -0.1421 -0.1684
 5145TIP3    H136926   5.508   5.863  11.588 -1.6772 -0.2743  1.0557
 5145TIP3    H236927   5.507   6.014  11.599 -2.0113 -0.2892  1.2233
 5146TIP3   OH236928   1.881   3.286  14.281 -0.4457  0.6257 -0.0201
 5146TIP3    H136929   1.881   3.380  14.297  1.0776  0.3533  2.1520
 5146TIP3    H236930   1.969   3.257  14.307 -1.3703 -1.5901  1.0041
 5147TIP3   OH236931   5.388   3.158   2.472  0.7793 -0.1253  0.3345
 5147TIP3    H136932   5.425   3.143   2.559  0.3709 -0.2137  0.4955
 5147TIP3    H236933   5.295   3.174   2.488  0.0932 -2.9608 -0.2760
 5148TIP3   OH236934   2.403   6.027   1.730  0.2994 -0.4434  0.2897
 5148TIP3    H136935   2.401   6.120   1.754  0.3179 -0.3335 -0.1185
 5148TIP3    H236936   2.383   5.981   1.811 -1.4490 -0.0110  0.1618
 5149TIP3   OH236937   5.352   2.001  16.148  0.6205  0.2715  0.0478
 5149TIP3    H136938   5.422   1.952  16.106  0.0531 -0.3774 -0.1591
 5149TIP3    H236939   5.300   1.935  16.194 -1.6896  0.2330 -2.3683
 5150TIP3   OH236940   2.456   0.141  12.880 -0.1863 -0.4207  0.0626
 5150TIP3    H136941   2.404   0.218  12.859  0.1510  0.1213  1.1641
 5150TIP3    H236942   2.418   0.107  12.961 -0.0192 -1.1285 -0.1485
 5151TIP3   OH236943   6.487   5.179  13.019 -0.1272  0.8880 -0.1690
 5151TIP3    H136944   6.411   5.122  13.015 -0.3751  1.2281 -0.3896
 5151TIP3    H236945   6.527   5.160  13.104  0.1815 -0.0949 -0.5236
 5152TIP3   OH236946   0.329   4.619   0.394  0.0846  0.1713 -0.1938
 5152TIP3    H136947   0.355   4.554   0.329 -1.4303 -0.9473  0.2507
 5152TIP3    H236948   0.340   4.703   0.350 -0.7338 -0.5439 -1.8596
 5153TIP3   OH236949   4.427   4.776  12.256 -0.0081  0.1998 -0.0360
 5153TIP3    H136950   4.344   4.735  12.282  0.7356 -0.8393  0.7578
 5153TIP3    H236951   4.414   4.800  12.165 -1.7827  1.5937  0.5215
 5154TIP3   OH236952   1.612   2.448  12.260  0.3573 -0.1339  0.6225
 5154TIP3    H136953   1.550   2.513  12.293  1.3083  1.6337 -0.8751
 5154TIP3    H236954   1.619   2.384  12.331 -3.2499 -0.5358  0.8084
 5155TIP3   OH236955   1.780   5.125  13.050 -0.0295  0.1156  0.1321
 5155TIP3    H136956   1.708   5.062  13.046 -0.0951  0.1205  0.9722
 5155TIP3    H236957   1.749   5.193  13.111  0.7110  0.0654  0.5788
 5156TIP3   OH236958   3.322   1.184  16.409 -0.3506 -0.5474  0.2557
 5156TIP3    H136959   3.257   1.154  16.344 -0.0728  0.0958 -0.3362
 5156TIP3    H236960   3.404   1.190  16.360  0.2896 -1.8536  1.1214
 5157TIP3   OH236961   0.824   1.427  13.670  0.0101  0.1491 -0.6141
 5157TIP3    H136962   0.872   1.484  13.730 -1.1690  1.2413 -0.6727
 5157TIP3    H236963   0.863   1.340  13.684  1.7748  0.9159 -0.4539
 5158TIP3   OH236964   6.548   1.886   4.144  0.0579 -0.0049  0.3995
 5158TIP3    H136965   6.478   1.928   4.094 -0.4381 -0.6321  0.5597
 5158TIP3    H236966   6.582   1.956   4.200 -0.8151  0.1744  0.7239
 5159TIP3   OH236967   2.212   1.823   2.880  0.1164 -0.4078  0.4741
 5159TIP3    H136968   2.191   1.915   2.868 -1.1798 -0.7610 -0.1863
 5159TIP3    H236969   2.285   1.807   2.821  2.1528  0.7573  2.5078
 5160TIP3   OH236970   6.262   3.494   2.062 -0.0659  0.3337 -0.2755
 5160TIP3    H136971   6.199   3.457   2.000 -2.7891  1.6242  1.4750
 5160TIP3    H236972   6.255   3.589   2.048  2.2392  0.5017 -0.6060
 5161TIP3   OH236973   4.065   4.244  11.502  0.7393 -0.9485 -0.0829
 5161TIP3    H136974   4.076   4.223  11.595  0.2242  0.4272  0.3142
 5161TIP3    H236975   4.135   4.307  11.484  0.6636 -0.9985 -0.5682
 5162TIP3   OH236976   2.058   3.863   5.760  0.6778 -0.1620  0.4826
 5162TIP3    H136977   1.993   3.933   5.760  0.4980 -0.3200  1.1736
 5162TIP3    H236978   2.023   3.798   5.820  0.3830 -1.2940 -0.8639
 5163TIP3   OH236979   0.732   1.460  17.155  0.1283  0.1075  0.4417
 5163TIP3    H136980   0.772   1.473  17.241  0.6145  0.9367  0.1030
 5163TIP3    H236981   0.739   1.366  17.140  0.1076 -0.0363  1.2744
 5164TIP3   OH236982   0.622   0.384   4.457 -0.3803  0.4458  0.2756
 5164TIP3    H136983   0.655   0.387   4.547  1.3852  0.5150 -0.3506
 5164TIP3    H236984   0.682   0.439   4.407 -1.5275  0.6732 -0.9188
 5165TIP3   OH236985   1.485   2.977  15.130  0.2997  1.1258 -0.0219
 5165TIP3    H136986   1.502   2.979  15.035 -1.2048  0.5097 -0.3217
 5165TIP3    H236987   1.438   3.058  15.147 -0.3964  0.7184  0.0000
 5166TIP3   OH236988   5.370   0.379   1.800  0.2200 -0.2204 -0.0970
 5166TIP3    H136989   5.399   0.297   1.838  2.6178 -0.0295 -1.3302
 5166TIP3    H236990   5.412   0.447   1.853  1.2111  0.0930 -1.2213
 5167TIP3   OH236991   2.288   3.204   4.025 -0.2689 -0.2210 -0.2803
 5167TIP3    H136992   2.284   3.272   3.957 -2.8576 -0.1695 -0.1854
 5167TIP3    H236993   2.216   3.145   4.004 -0.3637 -0.8945  1.7042
 5168TIP3   OH236994   2.907   5.740  17.212 -0.3427  0.6554  0.1232
 5168TIP3    H136995   3.000   5.721  17.222 -0.4045  0.5273  0.4865
 5168TIP3    H236996   2.866   5.699  17.288 -0.8102 -0.0711 -0.5086
 5169TIP3   OH236997   2.664   0.137   3.136  0.5960  0.4773 -0.3092
 5169TIP3    H136998   2.714   0.074   3.188  1.4724 -0.6243 -2.3743
 5169TIP3    H236999   2.573   0.125   3.165  1.3009  1.7431  2.7224
 5170TIP3   OH237000   1.797   4.012  12.689  0.1041  0.5204 -0.0298
 5170TIP3    H137001   1.704   4.032  12.673  0.3026  0.9365 -0.7287
 5170TIP3    H237002   1.798   3.967  12.774 -0.7515  0.3811 -0.0833
 5171TIP3   OH237003   5.778   0.106   4.116  0.7350  0.0898  0.4323
 5171TIP3    H137004   5.709   0.142   4.172 -0.0920 -0.1957 -0.3922
 5171TIP3    H237005   5.857   0.108   4.171 -0.0602 -0.1828  1.6150
 5172TIP3   OH237006   3.488   0.381  14.236  0.0312  0.4819 -0.0695
 5172TIP3    H137007   3.509   0.325  14.161  1.2783  1.2537 -0.3179
 5172TIP3    H237008   3.414   0.434  14.206  1.1690  1.5224 -1.1887
 5173TIP3   OH237009   0.918   5.705   0.221  0.0897  0.5541  0.0358
 5173TIP3    H137010   0.876   5.780   0.263 -0.0245 -0.1592  1.2581
 5173TIP3    H237011   0.995   5.741   0.178 -0.4333  1.5007 -0.1254
 5174TIP3   OH237012   2.645   2.133  11.839  0.2186  0.2809  0.1558
 5174TIP3    H137013   2.611   2.175  11.760  1.0645  0.3350 -0.1855
 5174TIP3    H237014   2.712   2.073  11.807  1.4696  1.2228  0.9281
 5175TIP3   OH237015   1.547   2.427  14.689 -0.5500  0.1045  0.3091
 5175TIP3    H137016   1.565   2.418  14.596 -1.2823  3.6225 -0.3311
 5175TIP3    H237017   1.632   2.415  14.731  0.2406  0.6586 -1.0554
 5176TIP3   OH237018   6.777   2.164   1.273  0.1192 -0.5577 -0.4129
 5176TIP3    H137019   6.712   2.139   1.339  0.6036  1.1780  0.7688
 5176TIP3    H237020   6.745   2.124   1.192 -2.4069  0.2226  0.1367
 5177TIP3   OH237021   5.054   3.614   2.080  0.3548 -0.5071  0.7576
 5177TIP3    H137022   5.032   3.662   2.160  0.1858  2.4705 -0.9176
 5177TIP3    H237023   5.148   3.626   2.070  0.5699 -1.8138  1.0287
 5178TIP3   OH237024   1.937   1.049   2.913 -0.4008 -0.8867 -0.5962
 5178TIP3    H137025   1.865   1.033   2.853 -0.5667 -0.8623 -0.4069
 5178TIP3    H237026   1.989   1.118   2.871 -1.9442  1.0451  0.4451
 5179TIP3   OH237027   4.693   2.000   1.256  0.3452 -0.6871  0.1855
 5179TIP3    H137028   4.765   2.063   1.259  1.7654 -2.0643 -1.5300
 5179TIP3    H237029   4.688   1.975   1.163 -0.7571 -2.3755  0.6473
 5180TIP3   OH237030   5.629   4.593   0.702  0.9153 -0.2088  0.6965
 5180TIP3    H137031   5.657   4.676   0.665  0.5949 -0.3259  0.1887
 5180TIP3    H237032   5.603   4.615   0.792 -0.0399  0.4279  0.2894
 5181TIP3   OH237033   3.730   5.859  13.476 -0.1621  0.1385  0.1811
 5181TIP3    H137034   3.794   5.846  13.545 -0.1611 -0.7569  0.0255
 5181TIP3    H237035   3.679   5.934  13.504  0.9473  0.8623  0.3140
 5182TIP3   OH237036   1.547   0.146   0.682 -0.3120  0.3904 -0.2400
 5182TIP3    H137037   1.603   0.224   0.684 -0.7465  0.7342 -1.0712
 5182TIP3    H237038   1.495   0.152   0.762 -1.3308  1.7041 -0.9599
 5183TIP3   OH237039   3.436   0.939  16.544  0.7086  0.3319  1.1843
 5183TIP3    H137040   3.531   0.933  16.539  0.5865 -0.8390 -0.5676
 5183TIP3    H237041   3.415   1.024  16.504  0.9982  0.4713  1.3307
 5184TIP3   OH237042   4.038   5.273   1.200  0.2274 -0.1667 -0.8939
 5184TIP3    H137043   4.030   5.362   1.235  1.6573 -0.6322  0.7761
 5184TIP3    H237044   3.980   5.220   1.255  1.5921 -0.7110  0.0901
 5185TIP3   OH237045   3.781   2.379   0.837 -0.0380 -0.1279  0.6342
 5185TIP3    H137046   3.723   2.311   0.804  0.9052 -1.4205  1.5724
 5185TIP3    H237047   3.729   2.425   0.903 -0.2500 -0.8068  0.9471
 5186TIP3   OH237048   3.304   1.630  12.525 -0.3866  0.1333  0.3240
 5186TIP3    H137049   3.224   1.579  12.512  0.0886 -0.2699 -1.2134
 5186TIP3    H237050   3.336   1.603  12.611 -1.3094 -0.5352  0.4681
 5187TIP3   OH237051   3.826   4.460  11.017  0.1231  0.4172  0.3951
 5187TIP3    H137052   3.804   4.498  11.103 -0.9548  2.3409 -0.6582
 5187TIP3    H237053   3.915   4.427  11.027  1.0245  2.9377  1.5549
 5188TIP3   OH237054   2.032   2.869  15.683  0.5521  0.1324  0.0245
 5188TIP3    H137055   2.120   2.862  15.721 -0.8437 -2.8294  3.2987
 5188TIP3    H237056   1.980   2.910  15.752 -0.7527  1.8818 -1.8742
 5189TIP3   OH237057   3.039   0.516   3.615  0.2305  0.1473  0.2302
 5189TIP3    H137058   3.113   0.550   3.565  0.3836  1.4466  1.3064
 5189TIP3    H237059   3.063   0.530   3.707 -1.3074  0.5695  0.5960
 5190TIP3   OH237060   5.266   2.513   0.551 -0.2467  0.4791  0.2088
 5190TIP3    H137061   5.221   2.429   0.556  0.6712 -0.0601 -0.3055
 5190TIP3    H237062   5.197   2.577   0.533 -0.5011 -0.7741 -4.6154
 5191TIP3   OH237063   2.869   4.468   3.521  0.1423  0.2251 -0.6983
 5191TIP3    H137064   2.888   4.503   3.608 -2.8885 -1.2489  0.7214
 5191TIP3    H237065   2.923   4.389   3.515  0.7928  0.6447 -0.3847
 5192TIP3   OH237066   0.890   2.400   6.333  0.0497  0.4222 -0.6069
 5192TIP3    H137067   0.828   2.462   6.370 -0.1455  1.2885 -2.3065
 5192TIP3    H237068   0.976   2.441   6.345  0.4737 -1.0241  2.2566
 5193TIP3   OH237069   2.644   5.894   1.552  0.2007  0.4962  0.4088
 5193TIP3    H137070   2.561   5.853   1.527  0.2493  1.1353 -0.8936
 5193TIP3    H237071   2.711   5.843   1.505  0.4369  0.7407  0.4771
 5194TIP3   OH237072   5.090   5.223   1.124  0.5360 -0.1039 -0.0403
 5194TIP3    H137073   5.059   5.144   1.169  0.5620  0.1518  0.4350
 5194TIP3    H237074   5.151   5.263   1.185  3.6004 -1.7417 -1.8106
 5195TIP3   OH237075   5.797   1.540   1.101 -0.3247 -0.3378 -0.2714
 5195TIP3    H137076   5.769   1.531   1.192 -0.8912  1.3457 -0.2579
 5195TIP3    H237077   5.868   1.475   1.092 -0.7708 -1.0618  1.1295
 5196TIP3   OH237078   1.159   4.966  14.811  0.0868 -0.2494  0.1434
 5196TIP3    H137079   1.075   4.978  14.768 -0.1920 -1.2240  0.3976
 5196TIP3    H237080   1.224   4.986  14.743 -0.3499 -1.3862 -0.6462
 5197TIP3   OH237081   3.321   0.680   2.267  0.6641  0.4502  0.0358
 5197TIP3    H137082   3.379   0.647   2.198  0.6453 -0.7890  0.5778
 5197TIP3    H237083   3.276   0.601   2.299 -0.5830  1.2409  0.3131
 5198TIP3   OH237084   6.539   3.544  12.563 -0.5301 -0.5052 -0.4962
 5198TIP3    H137085   6.524   3.452  12.588 -0.2599 -0.5339 -0.4405
 5198TIP3    H237086   6.466   3.591  12.603 -0.0400 -0.5358  0.4477
 5199TIP3   OH237087   5.927   4.488  17.280  0.1242 -0.0237 -0.6507
 5199TIP3    H137088   5.834   4.477  17.262 -0.1658  1.2688 -0.0571
 5199TIP3    H237089   5.953   4.407  17.325 -1.1613  0.3457  0.8535
 5200TIP3   OH237090   2.598   5.084   5.744  0.3587 -0.6871 -0.3600
 5200TIP3    H137091   2.584   5.103   5.837  0.3923 -0.2088 -0.4506
 5200TIP3    H237092   2.624   5.168   5.706 -1.3671 -0.4795 -1.1402
 5201TIP3   OH237093   3.071   3.422  10.498 -0.1201 -0.1188 -0.1209
 5201TIP3    H137094   3.038   3.496  10.550 -1.4479 -0.0492 -1.0205
 5201TIP3    H237095   3.010   3.351  10.517 -1.9553  0.4908 -3.1320
 5202TIP3   OH237096   4.039   3.975  13.533 -0.6156 -0.2275  0.5571
 5202TIP3    H137097   3.992   4.042  13.485 -0.8624 -0.6267  0.2306
 5202TIP3    H237098   4.119   3.960  13.482 -1.1263 -1.0280 -0.0367
 5203TIP3   OH237099   3.652   4.336  15.267  0.7422 -0.6598 -0.3438
 5203TIP3    H137100   3.661   4.431  15.265 -0.4915 -0.5318 -0.6639
 5203TIP3    H237101   3.709   4.308  15.338 -0.4326  0.5205  1.1244
 5204TIP3   OH237102   4.809   2.881   4.610 -0.6424 -0.1777  0.2607
 5204TIP3    H137103   4.767   2.800   4.580 -0.5902  0.7050 -2.5071
 5204TIP3    H237104   4.863   2.854   4.684 -0.8583 -2.6363 -0.3833
 5205TIP3   OH237105   5.238   4.737   2.720 -0.6993 -0.0860 -0.6277
 5205TIP3    H137106   5.208   4.655   2.761  1.3998 -0.6202 -0.0110
 5205TIP3    H237107   5.186   4.805   2.762 -0.5472 -0.8770  0.9292
 5206TIP3   OH237108   2.079   2.067   4.341 -0.3908  0.5116 -0.4898
 5206TIP3    H137109   1.983   2.065   4.346 -0.4591 -0.0376 -1.6013
 5206TIP3    H237110   2.107   2.091   4.429 -1.5414  0.2344 -0.0255
 5207TIP3   OH237111   3.371   4.272   1.321  0.1522 -0.1824 -0.1200
 5207TIP3    H137112   3.454   4.280   1.368  0.1610 -0.5410 -0.0655
 5207TIP3    H237113   3.316   4.221   1.381 -0.1266  0.1075 -0.1303
 5208TIP3   OH237114   0.857   1.669   3.123  0.1514 -0.5622  0.1290
 5208TIP3    H137115   0.779   1.720   3.102  0.7844  1.0526  1.4427
 5208TIP3    H237116   0.897   1.650   3.038 -0.1122  1.1852 -0.4262
 5209TIP3   OH237117   3.685   3.721  14.428  0.2204  0.7441 -0.6027
 5209TIP3    H137118   3.711   3.726  14.336 -0.6212  1.3059 -0.8234
 5209TIP3    H237119   3.605   3.670  14.428 -0.5552  1.9177 -0.3642
 5210TIP3   OH237120   6.424   2.958   4.919 -0.1286  0.1917  0.1543
 5210TIP3    H137121   6.437   2.868   4.947  0.5797  0.3494  0.3581
 5210TIP3    H237122   6.504   2.980   4.869  0.6546  1.3421  1.8146
 5211TIP3   OH237123   2.515   1.990  13.717  0.0324  0.0151  0.0896
 5211TIP3    H137124   2.516   1.907  13.765  1.7144  1.0605  2.0464
 5211TIP3    H237125   2.491   2.055  13.782 -1.0968  1.1203 -1.3692
 5212TIP3   OH237126   2.455   3.296   0.343 -0.9460 -0.1328  0.8580
 5212TIP3    H137127   2.536   3.284   0.293 -1.3695 -1.4550  0.4644
 5212TIP3    H237128   2.434   3.209   0.376 -2.1682  0.2191  1.0365
 5213TIP3   OH237129   5.509   4.748   5.494  0.0407 -0.8966 -0.1691
 5213TIP3    H137130   5.452   4.748   5.571 -0.5832  1.1052 -0.5551
 5213TIP3    H237131   5.469   4.812   5.435  2.4203  0.2512 -0.6617
 5214TIP3   OH237132   2.051   6.549   4.453 -0.6142 -0.3170  0.5775
 5214TIP3    H137133   2.123   6.489   4.467  0.2966  0.9784  1.7140
 5214TIP3    H237134   1.979   6.512   4.504 -0.4724 -1.0944  0.2335
 5215TIP3   OH237135   6.669   6.313  14.878 -0.6764  0.7066 -0.7151
 5215TIP3    H137136   6.666   6.226  14.838  2.5458  0.4965 -0.7971
 5215TIP3    H237137   6.638   6.301  14.967 -0.0747 -0.6166 -0.6685
 5216TIP3   OH237138   4.762   2.043  15.073  0.3192  0.1639 -0.1235
 5216TIP3    H137139   4.679   1.997  15.080  0.8726 -0.8457 -0.0100
 5216TIP3    H237140   4.820   1.997  15.134  1.4115 -0.1770 -1.3840
 5217TIP3   OH237141   1.809   5.900   5.013 -0.4832 -0.4085 -0.0009
 5217TIP3    H137142   1.899   5.873   4.994 -0.5608 -1.4850  1.0003
 5217TIP3    H237143   1.818   5.970   5.078 -0.3648 -1.8790  1.6524
 5218TIP3   OH237144   3.366   1.139   4.243  0.7687  0.3185  0.1974
 5218TIP3    H137145   3.314   1.174   4.315  3.1641  1.1923  1.6400
 5218TIP3    H237146   3.375   1.213   4.182  0.8090  0.3461  0.2369
 5219TIP3   OH237147   3.429   4.729   4.592 -0.4602  0.2228 -0.0569
 5219TIP3    H137148   3.460   4.640   4.572 -1.2318 -0.5083  1.7800
 5219TIP3    H237149   3.334   4.724   4.586 -0.4585  1.3794 -1.5425
 5220TIP3   OH237150   5.328   2.655  11.580 -0.0713  0.0755  0.2773
 5220TIP3    H137151   5.341   2.567  11.544  0.7590 -0.4418  1.7293
 5220TIP3    H237152   5.355   2.714  11.510 -1.9626 -0.7595 -1.2501
 5221TIP3   OH237153   5.508   5.122   0.791  0.4349 -0.1981 -0.0458
 5221TIP3    H137154   5.420   5.126   0.830  0.5656  0.1077  0.2161
 5221TIP3    H237155   5.511   5.035   0.750  0.4200 -0.6708  0.9292
 5222TIP3   OH237156   2.015   3.523  13.191  0.2567 -0.2958  0.0174
 5222TIP3    H137157   2.024   3.443  13.139 -0.0648 -0.2852 -0.0597
 5222TIP3    H237158   1.942   3.570  13.150 -0.8265 -0.8659  1.2120
 5223TIP3   OH237159   5.832   0.553  16.167  0.7462 -0.3319 -0.3131
 5223TIP3    H137160   5.863   0.533  16.078  1.0852 -0.5571 -0.1438
 5223TIP3    H237161   5.911   0.560  16.219  0.6354  1.2563 -0.3106
 5224TIP3   OH237162   6.498   1.748   6.180 -0.0274 -0.5293 -0.6450
 5224TIP3    H137163   6.563   1.778   6.244  0.8937 -1.9243 -0.9070
 5224TIP3    H237164   6.515   1.655   6.170 -2.6085 -1.1463 -0.0937
 5225TIP3   OH237165   4.159   3.347  15.158  0.1366 -0.1052  0.2509
 5225TIP3    H137166   4.174   3.439  15.179 -1.6257  0.3624 -0.3275
 5225TIP3    H237167   4.065   3.343  15.137  0.3551 -1.8704 -0.5251
 5226TIP3   OH237168   4.133   5.471   5.940  0.3866 -0.5386  0.3640
 5226TIP3    H137169   4.198   5.401   5.934  1.1096  0.0165  1.3379
 5226TIP3    H237170   4.177   5.548   5.904  0.2267 -0.1940  0.8891
 5227TIP3   OH237171   5.840   2.311   4.215 -0.1963 -0.1708  0.3428
 5227TIP3    H137172   5.806   2.229   4.179  0.1036 -0.5304  0.8743
 5227TIP3    H237173   5.770   2.343   4.272 -0.7630  0.5114 -0.7001
 5228TIP3   OH237174   1.937   5.415   6.497 -0.7078  0.2296 -0.2792
 5228TIP3    H137175   1.943   5.339   6.555 -0.7706  1.3243  1.2231
 5228TIP3    H237176   2.012   5.470   6.521 -0.7949  0.7632 -1.1711
 5229TIP3   OH237177   3.308   5.947  12.898  0.1784  0.2125 -0.2096
 5229TIP3    H137178   3.284   5.898  12.819  3.2991  1.0742 -1.8388
 5229TIP3    H237179   3.361   5.886  12.949 -0.5104  0.1802  0.4841
 5230TIP3   OH237180   6.600   5.316  16.780 -0.5003  0.4396 -0.6234
 5230TIP3    H137181   6.636   5.385  16.725  1.0571  0.6955  0.6772
 5230TIP3    H237182   6.629   5.235  16.738  1.4147  0.6394  0.2302
 5231TIP3   OH237183   4.936   3.769   3.492 -0.5875  0.4759 -0.1695
 5231TIP3    H137184   4.971   3.700   3.436  0.8994  1.2072 -0.1910
 5231TIP3    H237185   4.963   3.744   3.581 -2.4068 -0.3604  0.1848
 5232TIP3   OH237186   6.019   3.385  12.124 -0.3356 -0.1401 -0.0426
 5232TIP3    H137187   6.010   3.470  12.168  1.2034 -0.3071  0.6612
 5232TIP3    H237188   5.936   3.340  12.142 -0.0645  0.1108  2.0646
 5233TIP3   OH237189   1.886   2.669   0.458 -0.2350 -0.0948  0.6976
 5233TIP3    H137190   1.908   2.680   0.366 -0.7820 -2.4137  0.2377
 5233TIP3    H237191   1.870   2.758   0.489 -3.4569  0.6205 -2.3435
 5234TIP3   OH237192   4.691   5.695   5.629  0.1941  0.2746 -0.1748
 5234TIP3    H137193   4.707   5.608   5.592 -1.7695 -0.0833 -0.2780
 5234TIP3    H237194   4.690   5.681   5.723 -1.1826 -0.0620 -0.2132
 5235TIP3   OH237195   5.486   5.251   2.407  0.0863  0.0796  0.2274
 5235TIP3    H137196   5.416   5.262   2.342  0.8887 -2.2961 -1.1574
 5235TIP3    H237197   5.537   5.332   2.401 -0.4448  0.3411 -1.3765
 5236TIP3   OH237198   0.613   1.933   2.608 -0.5993  0.1171 -0.1813
 5236TIP3    H137199   0.584   2.021   2.631  0.9078  0.6654 -0.2855
 5236TIP3    H237200   0.624   1.888   2.691 -0.5306  0.3127 -0.0842
 5237TIP3   OH237201   4.950   0.742  16.087  0.3605  0.2941 -0.1583
 5237TIP3    H137202   4.912   0.659  16.059 -0.7759  0.9034 -0.5040
 5237TIP3    H237203   4.969   0.789  16.005  2.3480 -0.1681 -0.0201
 5238TIP3   OH237204   1.774   3.063   3.248  0.0958 -0.2645  0.1811
 5238TIP3    H137205   1.785   3.081   3.155 -0.8364 -2.3397 -0.3926
 5238TIP3    H237206   1.858   3.029   3.277  0.5047  0.7445  0.2131
 5239TIP3   OH237207   3.095   4.274   1.891 -0.1479  0.7164  0.4718
 5239TIP3    H137208   3.048   4.322   1.959 -0.8537  1.5455 -0.5542
 5239TIP3    H237209   3.182   4.260   1.926 -0.1836  2.0324  1.1370
 5240TIP3   OH237210   4.554   2.365   1.491  0.4718 -0.0683  0.5854
 5240TIP3    H137211   4.473   2.325   1.522  0.4677  1.9018  3.5737
 5240TIP3    H237212   4.532   2.400   1.405 -1.6413 -0.2333  0.9980
 5241TIP3   OH237213   2.205   3.421  11.943 -0.7131 -0.1531  0.3078
 5241TIP3    H137214   2.131   3.410  12.003 -2.1014  0.1371 -1.2805
 5241TIP3    H237215   2.216   3.334  11.904 -0.8403  0.0240 -0.1295
 5242TIP3   OH237216   1.349   5.641  14.196  0.6866 -0.0211  0.1650
 5242TIP3    H137217   1.441   5.642  14.220  0.5739  0.6951  0.6238
 5242TIP3    H237218   1.310   5.709  14.251  0.0690  0.3687 -0.7275
 5243TIP3   OH237219   0.047   0.706   4.574  0.0089 -0.2537  0.6635
 5243TIP3    H137220   0.084   0.793   4.562  0.8659 -0.3674  2.2062
 5243TIP3    H237221  -0.037   0.708   4.528 -0.0331  1.4129  0.7690
 5244TIP3   OH237222   6.245   3.566   5.909  0.0805  0.2815 -0.0558
 5244TIP3    H137223   6.240   3.530   5.998 -0.3074  1.2574  0.3293
 5244TIP3    H237224   6.206   3.653   5.916 -0.7824  0.0338 -1.3699
 5245TIP3   OH237225   5.588   2.212  13.422  0.2159  0.4762  0.0604
 5245TIP3    H137226   5.642   2.284  13.454  0.7857  0.0853 -0.0028
 5245TIP3    H237227   5.588   2.223  13.327 -1.0122  1.3093  0.1296
 5246TIP3   OH237228   5.520   1.059   4.010  0.1128  0.2699  0.1305
 5246TIP3    H137229   5.458   1.128   4.032 -0.2757  0.4408 -1.4368
 5246TIP3    H237230   5.489   1.023   3.927  1.3597 -0.5342 -0.0184
 5247TIP3   OH237231   1.472   3.309  10.908  0.2747 -0.6393  0.6330
 5247TIP3    H137232   1.437   3.259  10.835  0.8280 -0.0111 -0.0779
 5247TIP3    H237233   1.432   3.396  10.900  0.2679 -0.5904  1.1284
 5248TIP3   OH237234   0.200   2.401   3.641 -0.1098 -0.2138 -0.2734
 5248TIP3    H137235   0.296   2.406   3.650 -0.2494 -0.4428  1.9296
 5248TIP3    H237236   0.185   2.400   3.547  2.2383 -3.8152 -0.7882
 5249TIP3   OH237237   6.738   3.828  11.717 -0.4468  0.2723 -0.5940
 5249TIP3    H137238   6.684   3.905  11.704 -2.5572 -0.8295  1.0959
 5249TIP3    H237239   6.716   3.770  11.645 -0.2251  0.5013 -0.8483
 5250TIP3   OH237240   0.401   6.268   1.425  0.3668 -0.4161  0.5758
 5250TIP3    H137241   0.350   6.347   1.445 -0.4412 -0.9151  0.5347
 5250TIP3    H237242   0.409   6.267   1.330  0.4933 -0.3174  0.5848
 5251TIP3   OH237243   0.234   5.661   0.376 -0.2717  0.9548  0.0380
 5251TIP3    H137244   0.236   5.750   0.412 -0.9126  1.1847 -0.4698
 5251TIP3    H237245   0.153   5.623   0.408 -0.2998  0.7674 -0.2480
 5252TIP3   OH237246   3.432   2.337   4.891  0.1926  0.0638  0.0817
 5252TIP3    H137247   3.378   2.261   4.867 -0.8103  0.3886  1.2399
 5252TIP3    H237248   3.520   2.301   4.901 -0.1674 -0.8555  0.0753
 5253TIP3   OH237249   6.789   1.131   2.404  0.3773 -0.3428  0.0099
 5253TIP3    H137250   6.806   1.222   2.380  0.3859 -0.4573 -0.4234
 5253TIP3    H237251   6.712   1.135   2.461  0.9545  0.0310  0.7770
 5254TIP3   OH237252   6.306   6.630   4.184 -0.3299  0.6878 -0.0723
 5254TIP3    H137253   6.383   6.686   4.195  0.4695  0.0829 -2.2521
 5254TIP3    H237254   6.323   6.554   4.240  0.8785  0.3682 -0.8375
 5255TIP3   OH237255   3.696   3.222   0.216 -0.2124  0.0198  0.1785
 5255TIP3    H137256   3.729   3.262   0.136 -0.1315  0.4178  0.4094
 5255TIP3    H237257   3.605   3.253   0.223  0.1876  1.0856  0.9468
 5256TIP3   OH237258   1.649   1.348   0.163 -0.0048 -0.6282 -0.1452
 5256TIP3    H137259   1.713   1.368   0.231 -1.1531  0.8118  0.5720
 5256TIP3    H237260   1.697   1.294   0.100  2.6432  2.1828 -0.7967
 5257TIP3   OH237261   6.718   2.641   3.458  0.5636  0.1345 -0.3486
 5257TIP3    H137262   6.727   2.637   3.553  0.0331  1.7264 -0.2137
 5257TIP3    H237263   6.650   2.576   3.438 -1.8731  2.2044  0.7755
 5258TIP3   OH237264   4.527   1.802  14.022  0.0488  0.4035  0.1327
 5258TIP3    H137265   4.590   1.833  13.957  1.2990 -0.8204  0.7076
 5258TIP3    H237266   4.556   1.841  14.104  0.4851 -0.7250  0.5233
 5259TIP3   OH237267   5.465   1.952   5.004  0.3488 -0.4818  0.3339
 5259TIP3    H137268   5.443   1.860   4.988 -0.8313 -0.3815  1.2492
 5259TIP3    H237269   5.519   1.951   5.082  0.2517 -0.3906  0.4024
 5260TIP3   OH237270   6.307   2.663  12.395 -0.3154  0.4747 -0.0255
 5260TIP3    H137271   6.307   2.576  12.354  1.0788  0.4748 -0.0771
 5260TIP3    H237272   6.333   2.722  12.325 -3.0038  1.2279 -0.4708
 5261TIP3   OH237273   4.760   6.031  13.560 -0.5374 -0.4028  0.4443
 5261TIP3    H137274   4.838   5.981  13.582  1.7412  1.5391 -2.5206
 5261TIP3    H237275   4.778   6.119  13.593 -1.6293  0.0092 -0.0010
 5262TIP3   OH237276   5.015   3.191  11.046 -0.3347  0.0043  0.4733
 5262TIP3    H137277   4.922   3.168  11.054 -0.0806 -1.4382 -0.5057
 5262TIP3    H237278   5.047   3.140  10.972  2.0171 -2.0779  2.7014
 5263TIP3   OH237279   1.041   1.907  12.772  0.1478 -0.1763  0.0840
 5263TIP3    H137280   1.127   1.949  12.774  0.6552 -1.1651 -0.2970
 5263TIP3    H237281   0.979   1.979  12.784  1.0446  0.4571  1.1104
 5264TIP3   OH237282   1.703   0.033   2.918  0.7685 -0.2193  0.4696
 5264TIP3    H137283   1.765   0.098   2.885 -0.8811  1.2663  0.1380
 5264TIP3    H237284   1.632   0.085   2.956 -0.9098 -1.8101 -0.3530
 5265TIP3   OH237285   3.074   3.308  12.957 -0.3360 -0.2980 -0.2188
 5265TIP3    H137286   3.033   3.343  13.036 -0.6019 -0.9648 -0.0447
 5265TIP3    H237287   3.048   3.368  12.887 -0.4958  0.0297  0.1194
 5266TIP3   OH237288   0.090   3.373  13.614 -0.2365 -0.3842  0.3888
 5266TIP3    H137289   0.106   3.279  13.618  0.7516 -0.1901  3.0912
 5266TIP3    H237290   0.158   3.412  13.670 -1.2989  1.8387  0.2614
 5267TIP3   OH237291   1.465   6.620   4.044 -0.2826  0.7183 -0.0042
 5267TIP3    H137292   1.521   6.554   4.086 -2.4528 -0.8646  0.5795
 5267TIP3    H237293   1.429   6.670   4.117 -0.2036  1.2326 -0.3170
 5268TIP3   OH237294   0.576   4.926  12.082  0.1219 -0.0168 -0.2010
 5268TIP3    H137295   0.571   4.948  12.175 -1.2608 -1.9476  0.2583
 5268TIP3    H237296   0.500   4.870  12.067  0.7287 -0.3583 -2.3319
 5269TIP3   OH237297   2.581   6.688  16.298  0.2214  0.0316  0.0163
 5269TIP3    H137298   2.619   6.607  16.267 -2.5108 -0.6397 -1.9618
 5269TIP3    H237299   2.509   6.661  16.356  0.2030  1.0799  0.5167
 5270TIP3   OH237300   0.757   5.521   6.206 -0.0028  0.0605 -0.2092
 5270TIP3    H137301   0.825   5.556   6.149  0.9538  1.0068  1.4350
 5270TIP3    H237302   0.785   5.546   6.294 -1.7660 -0.7705  0.6253
 5271TIP3   OH237303   1.068   5.553   5.760  0.2396  0.0551 -0.1665
 5271TIP3    H137304   1.007   5.533   5.688 -0.5090 -0.7252  0.6585
 5271TIP3    H237305   1.152   5.519   5.731 -0.4998 -2.2311  0.1902
 5272TIP3   OH237306   4.034   3.019  14.545 -0.1502 -0.5377  0.4017
 5272TIP3    H137307   4.049   2.951  14.611 -0.9976 -0.0727  1.0879
 5272TIP3    H237308   4.102   3.003  14.479  0.8067 -0.9324  1.4377
 5273TIP3   OH237309   4.071   0.280  11.734  0.2430 -0.2663 -0.3112
 5273TIP3    H137310   4.064   0.318  11.821  1.8264 -0.8710  0.1150
 5273TIP3    H237311   3.984   0.290  11.696 -0.6773 -0.6255  1.5979
 5274TIP3   OH237312   5.882   2.039  13.521 -0.0448 -0.3991  0.0827
 5274TIP3    H137313   5.942   2.071  13.589 -0.4997  0.4193  0.1129
 5274TIP3    H237314   5.907   2.087  13.442 -0.7928  0.1092  0.1483
 5275TIP3   OH237315   1.111   1.048   4.827 -0.1644 -0.8102 -0.1231
 5275TIP3    H137316   1.108   1.087   4.914 -0.1984 -0.2737 -0.3604
 5275TIP3    H237317   1.161   0.967   4.838  2.9514  0.9232 -0.2223
 5276TIP3   OH237318   3.567   0.172  14.031  0.5480  0.1617  0.2247
 5276TIP3    H137319   3.562   0.126  13.948 -1.3268 -1.0164  0.9187
 5276TIP3    H237320   3.650   0.219  14.028  1.5222 -1.5403 -1.4195
 5277TIP3   OH237321   3.585   5.898  11.250 -0.3399 -0.1646  0.4425
 5277TIP3    H137322   3.653   5.846  11.291  0.3975 -0.2639 -0.8432
 5277TIP3    H237323   3.630   5.946  11.180 -0.9923  2.1456  1.4887
 5278TIP3   OH237324   0.575   1.537  15.448  0.2468 -0.5387  0.0711
 5278TIP3    H137325   0.646   1.591  15.413  0.7001 -0.9419  0.3710
 5278TIP3    H237326   0.499   1.562  15.395  0.9137 -1.1558 -1.2374
 5279TIP3   OH237327   0.058   3.157  11.143  0.1804 -0.3931  0.1197
 5279TIP3    H137328  -0.014   3.178  11.083  0.7630 -1.0109 -0.8109
 5279TIP3    H237329   0.046   3.218  11.216  0.4815  1.6571 -1.4256
 5280TIP3   OH237330   5.782   2.776   1.273 -0.0207  0.3132  0.4111
 5280TIP3    H137331   5.844   2.746   1.206 -0.4179 -0.1118  0.2224
 5280TIP3    H237332   5.749   2.859   1.240 -0.1809  0.1263  0.0978
 5281TIP3   OH237333   5.669   5.920  11.246 -0.0068 -0.4518  0.9745
 5281TIP3    H137334   5.618   5.887  11.320 -0.7207  0.5896  0.9646
 5281TIP3    H237335   5.645   5.864  11.173 -1.7652  0.4922  0.7808
 5282TIP3   OH237336   0.682   1.607   1.600 -0.0127  0.2623  0.4530
 5282TIP3    H137337   0.722   1.668   1.538 -2.3654  0.0492 -1.4007
 5282TIP3    H237338   0.687   1.652   1.685  0.6614  1.8464 -0.3827
 5283TIP3   OH237339   6.692   4.944   5.460 -0.0381 -0.3529  0.1687
 5283TIP3    H137340   6.640   4.878   5.505  0.0308 -0.1294  0.5802
 5283TIP3    H237341   6.765   4.896   5.423 -1.2238 -0.9026 -1.5735
 5284TIP3   OH237342   4.842   5.699  13.863 -0.1273  0.5740  0.3606
 5284TIP3    H137343   4.752   5.667  13.869  0.0628 -0.3142 -1.0039
 5284TIP3    H237344   4.867   5.718  13.953 -1.4303  0.1397  0.8359
 5285TIP3   OH237345   1.380   0.893  17.056  0.4203  0.1327  0.1084
 5285TIP3    H137346   1.432   0.836  17.113  1.3612 -0.1018 -0.9512
 5285TIP3    H237347   1.293   0.853  17.056 -0.1224  1.1229  2.7386
 5286TIP3   OH237348   5.572   1.676   2.215  0.1778 -0.0263 -0.4999
 5286TIP3    H137349   5.558   1.753   2.160 -2.8160 -1.0795 -1.3947
 5286TIP3    H237350   5.596   1.606   2.153  2.2996 -0.0293  0.2378
 5287TIP3   OH237351   2.496   2.888  15.698  0.6609 -0.6924  0.2458
 5287TIP3    H137352   2.552   2.959  15.731 -1.5297  0.6784  1.2050
 5287TIP3    H237353   2.483   2.909  15.606 -1.4254  1.2978  0.8940
 5288TIP3   OH237354   4.949   4.202  14.994  0.0847 -0.4713  0.4157
 5288TIP3    H137355   4.906   4.126  14.955  0.3110 -0.4580  0.1365
 5288TIP3    H237356   4.892   4.227  15.067 -0.1324 -0.7413  0.3411
 5289TIP3   OH237357   1.165   3.630  13.071  0.7252  0.4437 -0.1355
 5289TIP3    H137358   1.134   3.568  13.005  1.6993 -0.1262 -0.0707
 5289TIP3    H237359   1.100   3.701  13.069 -1.2290 -1.2375  0.8122
 5290TIP3   OH237360   0.246   1.567  14.132 -0.1164  0.2468  0.1106
 5290TIP3    H137361   0.175   1.508  14.106 -0.2916  0.5655 -0.1439
 5290TIP3    H237362   0.315   1.551  14.067 -0.4377  0.8251 -0.3895
 5291TIP3   OH237363   4.661   3.596  15.046  0.4889  0.5438 -0.4278
 5291TIP3    H137364   4.753   3.573  15.063  0.8033  1.1540 -1.2470
 5291TIP3    H237365   4.652   3.685  15.079 -0.2974 -0.1158  1.2506
 5292TIP3   OH237366   6.639   6.602   5.606 -0.0673 -0.1058  0.5868
 5292TIP3    H137367   6.681   6.617   5.691 -1.6012  1.6236  1.0988
 5292TIP3    H237368   6.545   6.602   5.625 -0.4684  0.9018 -1.1618
 5293TIP3   OH237369   0.139   6.160   4.062  0.3944  0.5122  0.1006
 5293TIP3    H137370   0.163   6.219   3.990  0.3494 -0.5013 -0.7700
 5293TIP3    H237371   0.081   6.096   4.021  0.0738  0.1260  1.1353
 5294TIP3   OH237372   3.474   0.254   3.035 -0.3822  0.0396 -0.2681
 5294TIP3    H137373   3.479   0.268   2.940 -0.9215  1.1311 -0.1441
 5294TIP3    H237374   3.558   0.213   3.057 -1.1457 -2.4394 -1.5608
 5295TIP3   OH237375   6.541   2.707   4.974 -0.9564 -0.1279 -0.6854
 5295TIP3    H137376   6.623   2.662   4.993 -1.1157  0.3068  1.2721
 5295TIP3    H237377   6.517   2.678   4.886  0.2662 -1.8308 -0.5097
 5296TIP3   OH237378   6.632   0.332   4.163  0.3771  0.0822 -0.6516
 5296TIP3    H137379   6.589   0.359   4.081 -0.4593  2.5391  0.5035
 5296TIP3    H237380   6.564   0.284   4.211 -0.5178  2.1566  0.2730
 5297TIP3   OH237381   5.031   2.841   5.876  0.7439  0.6812 -0.5151
 5297TIP3    H137382   5.118   2.863   5.842 -0.4615  0.3861 -4.1782
 5297TIP3    H237383   4.971   2.894   5.824 -1.3768  0.0035  1.1211
 5298TIP3   OH237384   3.679   1.099  13.624  0.4462 -0.1394 -0.0628
 5298TIP3    H137385   3.729   1.039  13.569 -0.4062 -0.4093 -0.5626
 5298TIP3    H237386   3.617   1.044  13.670 -1.3770  0.4552 -1.6453
 5299TIP3   OH237387   1.844   6.242  13.890  0.5395 -0.2269  0.0694
 5299TIP3    H137388   1.864   6.159  13.932  0.2213 -0.0261  0.6181
 5299TIP3    H237389   1.788   6.218  13.816  0.8350 -0.5437 -0.0556
 5300TIP3   OH237390   4.114   5.089  16.739 -0.0772 -0.0427 -0.7290
 5300TIP3    H137391   4.160   5.116  16.818 -0.5331  3.4817 -1.5173
 5300TIP3    H237392   4.031   5.054  16.769  0.7885 -1.2293  0.4069
 5301TIP3   OH237393   1.594   0.151  13.318 -0.2814 -0.2796  0.2152
 5301TIP3    H137394   1.606   0.159  13.224 -1.1395  0.0799  0.1315
 5301TIP3    H237395   1.539   0.225  13.342  2.1862  1.2759  1.4611
 5302TIP3   OH237396   4.121   6.532  16.285  0.8524  0.1491 -0.1847
 5302TIP3    H137397   4.160   6.529  16.198  0.5706  0.5654 -0.3316
 5302TIP3    H237398   4.067   6.454  16.290 -0.3877  0.9197 -1.0012
 5303TIP3   OH237399   3.589   2.913  14.428  0.1520 -0.1778 -0.1300
 5303TIP3    H137400   3.669   2.934  14.379  0.9559 -0.1012  1.1507
 5303TIP3    H237401   3.570   2.993  14.478 -0.0789 -0.5620  0.4146
 5304TIP3   OH237402   1.294   5.892  11.127  0.3704 -0.0292  0.2356
 5304TIP3    H137403   1.361   5.883  11.194 -0.3936 -1.4642  0.8241
 5304TIP3    H237404   1.298   5.811  11.076 -2.7252 -1.4762  2.0064
 5305TIP3   OH237405   6.099   4.223  15.022 -0.4488  0.2312 -0.0199
 5305TIP3    H137406   6.171   4.287  15.020  0.3810 -0.6781  0.1761
 5305TIP3    H237407   6.067   4.225  15.112  1.2044 -1.3756  0.6459
 5306TIP3   OH237408   2.240   5.747   0.148  0.1029  0.5834 -0.3905
 5306TIP3    H137409   2.268   5.736   0.239 -1.2631 -0.0354 -0.0115
 5306TIP3    H237410   2.316   5.782   0.103  0.7093  1.2160  1.0678
 5307TIP3   OH237411   6.751   5.865  16.895 -0.3490 -0.4926  0.2499
 5307TIP3    H137412   6.744   5.800  16.965  0.6964 -0.4637  0.4016
 5307TIP3    H237413   6.821   5.923  16.923  1.6526 -1.7515 -1.7779
 5308TIP3   OH237414   3.238   5.893  17.268 -0.0139  0.8734  0.2636
 5308TIP3    H137415   3.187   5.831  17.319  0.5345  0.5343  0.4024
 5308TIP3    H237416   3.298   5.839  17.217 -0.0381  1.2485 -0.1710
 5309TIP3   OH237417   5.428   2.175   5.814  0.2416 -0.0862 -0.1055
 5309TIP3    H137418   5.454   2.087   5.787  0.8388 -0.1357  0.5901
 5309TIP3    H237419   5.361   2.161   5.881  1.7423 -0.0913  1.4606
 5310TIP3   OH237420   2.686   3.196  12.459  0.2598  0.0678 -0.2023
 5310TIP3    H137421   2.656   3.262  12.397  1.2291  1.1347  0.4369
 5310TIP3    H237422   2.778   3.183  12.439  0.0881 -1.1118 -0.3128
 5311TIP3   OH237423   0.703   4.166   3.728  0.3400  0.1998  0.6476
 5311TIP3    H137424   0.630   4.208   3.683  0.1143 -0.9292 -0.0857
 5311TIP3    H237425   0.671   4.152   3.817  0.2755  1.1775  0.7915
 5312TIP3   OH237426   4.590   3.833  12.209 -0.0739 -0.5415  0.1751
 5312TIP3    H137427   4.531   3.908  12.203 -0.2950 -0.8121 -1.7228
 5312TIP3    H237428   4.533   3.757  12.212  0.1273 -0.7538 -0.8011
 5313TIP3   OH237429   3.818   2.942   2.853  0.6520  0.7799  0.5114
 5313TIP3    H137430   3.847   2.968   2.765  2.6396 -1.4128  0.4268
 5313TIP3    H237431   3.736   2.895   2.838  1.5696 -0.6056 -0.3687
 5314TIP3   OH237432   1.319   0.836  15.942  0.0040  1.0540 -0.1661
 5314TIP3    H137433   1.230   0.809  15.920  0.4770 -0.8003  0.0784
 5314TIP3    H237434   1.363   0.756  15.969  1.9186  1.8326 -0.7774
 5315TIP3   OH237435   0.394   0.298   1.163  0.3099 -0.1962  1.0478
 5315TIP3    H137436   0.487   0.292   1.184  0.6996 -0.4721 -0.6092
 5315TIP3    H237437   0.390   0.354   1.085 -1.0914  1.1986  2.0457
 5316TIP3   OH237438   2.059   5.069   2.811 -0.6070 -0.2814  0.6250
 5316TIP3    H137439   2.104   5.097   2.890 -0.8412 -1.1551  1.0837
 5316TIP3    H237440   1.984   5.129   2.803  0.5043  1.0823 -0.0645
 5317TIP3   OH237441   5.385   4.755   5.191  0.1543  0.3666 -0.1743
 5317TIP3    H137442   5.479   4.758   5.209 -0.0398 -0.0847  1.0298
 5317TIP3    H237443   5.378   4.732   5.099  1.2727  4.9480 -1.6688
 5318TIP3   OH237444   4.955   3.697   3.761  0.8083  0.0135 -0.0041
 5318TIP3    H137445   4.860   3.701   3.773  0.5729  2.0333 -1.9119
 5318TIP3    H237446   4.990   3.741   3.839 -0.2122  4.4789 -1.7352
 5319TIP3   OH237447   5.928   1.643   3.928  0.2543 -0.4046  0.1480
 5319TIP3    H137448   5.899   1.690   4.006 -1.6213 -0.4472 -0.4772
 5319TIP3    H237449   5.855   1.586   3.905  0.5687 -0.0862 -1.8845
 5320TIP3   OH237450   0.669   0.193  13.971  0.0837  0.0843 -0.0182
 5320TIP3    H137451   0.717   0.276  13.974  0.1552  0.1653 -2.1129
 5320TIP3    H237452   0.718   0.134  14.028  0.0865  1.4167  1.4285
 5321TIP3   OH237453   0.054   0.271   6.563  0.8185  0.2462 -0.2574
 5321TIP3    H137454   0.061   0.274   6.659 -3.1975 -1.5378  0.2842
 5321TIP3    H237455  -0.039   0.282   6.545  0.7650 -3.5603 -3.6559
 5322TIP3   OH237456   6.793   6.632   4.202  0.3097 -0.1715 -0.1790
 5322TIP3    H137457   6.729   6.561   4.196  0.0637  0.0873 -0.7513
 5322TIP3    H237458   6.857   6.613   4.133  3.3098 -2.7479  2.9729
 5323TIP3   OH237459   1.009   0.086  16.998  0.8895  0.7724  0.2638
 5323TIP3    H137460   0.955   0.023  17.046  1.8663  0.5956  1.1608
 5323TIP3    H237461   1.062   0.031  16.939  0.1090  0.9473 -0.6321
 5324TIP3   OH237462   6.695   4.191   2.102 -0.7530 -0.5975  0.0605
 5324TIP3    H137463   6.779   4.156   2.132 -0.9470  0.2092  1.6850
 5324TIP3    H237464   6.710   4.215   2.010  0.8443 -0.3352  0.3559
 5325TIP3   OH237465   2.921   3.071   6.013  0.2327 -0.4501 -0.5763
 5325TIP3    H137466   2.852   3.011   5.988  1.2859 -1.4224 -1.2174
 5325TIP3    H237467   2.875   3.150   6.043 -1.1366 -1.2068 -0.6393
 5326TIP3   OH237468   4.905   2.342  11.129  0.6810  0.0056  0.1053
 5326TIP3    H137469   4.845   2.381  11.192 -0.7487 -1.8528 -0.0115
 5326TIP3    H237470   4.932   2.260  11.170  2.2101  0.2292 -0.3888
 5327TIP3   OH237471   5.715   1.466   1.639  0.2729 -0.3152  0.3120
 5327TIP3    H137472   5.677   1.451   1.726 -0.4024  1.6314  0.3921
 5327TIP3    H237473   5.661   1.534   1.600  1.3460 -0.2464 -1.1530
 5328TIP3   OH237474   2.823   5.290   2.314 -0.0844 -0.6684  0.4716
 5328TIP3    H137475   2.864   5.376   2.315 -1.3927 -0.0159  0.1661
 5328TIP3    H237476   2.889   5.231   2.350  1.2857  0.2477 -0.4787
 5329TIP3   OH237477   5.257   4.862  13.722  0.4437 -0.2300 -0.8190
 5329TIP3    H137478   5.344   4.857  13.762  0.1610 -2.4610 -0.3790
 5329TIP3    H237479   5.217   4.939  13.762  1.0486 -1.0131  1.4862
 5330TIP3   OH237480   2.357   4.774   3.160  0.0449  0.4767  0.1753
 5330TIP3    H137481   2.346   4.679   3.152 -0.0002  0.5538 -0.8445
 5330TIP3    H237482   2.278   4.804   3.204 -0.3638  0.1361 -0.3084
 5331TIP3   OH237483   3.686   6.404  15.989 -0.9407 -0.3207  0.3833
 5331TIP3    H137484   3.760   6.345  15.974 -0.3956 -0.1691  2.1675
 5331TIP3    H237485   3.614   6.366  15.939  0.3792 -0.3382 -1.5982
 5332TIP3   OH237486   2.867   1.974  14.029  0.6023 -0.0757  0.0728
 5332TIP3    H137487   2.838   1.885  14.007  0.5729 -0.1592  0.4455
 5332TIP3    H237488   2.894   1.968  14.120  1.3964  0.1021 -0.1431
 5333TIP3   OH237489   1.664   4.371   2.180  0.0825 -0.2494  0.1379
 5333TIP3    H137490   1.646   4.453   2.136  0.1527 -1.2944 -1.9569
 5333TIP3    H237491   1.579   4.328   2.188  0.2956 -0.8265 -0.6012
 5334TIP3   OH237492   2.287   1.420   6.555  0.0658  0.2053  0.2123
 5334TIP3    H137493   2.307   1.333   6.521  0.6084  0.1947  0.5486
 5334TIP3    H237494   2.372   1.462   6.567  0.0839 -0.5542  3.5685
 5335TIP3   OH237495   2.425   2.284   2.974  0.1156  0.4801  0.2691
 5335TIP3    H137496   2.464   2.279   2.886 -0.1452  2.1756  0.0148
 5335TIP3    H237497   2.332   2.267   2.960  0.2590 -0.4290  0.4013
 5336TIP3   OH237498   6.171   4.208  12.909  0.0354 -0.2134  0.4103
 5336TIP3    H137499   6.208   4.194  12.996 -1.4881 -0.6832  1.0181
 5336TIP3    H237500   6.084   4.169  12.913 -0.7288  1.2496 -0.8008
 5337TIP3   OH237501   6.211   1.687  12.892  0.5752 -0.0811  0.2128
 5337TIP3    H137502   6.249   1.631  12.824 -3.0408 -2.3950 -0.1711
 5337TIP3    H237503   6.144   1.738  12.847 -1.2690 -0.9834  1.7570
 5338TIP3   OH237504   6.069   5.914   1.641  0.1240  0.4540  0.0869
 5338TIP3    H137505   6.002   5.891   1.706  0.3682  0.4486  0.3376
 5338TIP3    H237506   6.061   6.009   1.631  0.1226  0.4623  0.1676
 5339TIP3   OH237507   6.042   5.808   1.171  0.7098 -0.1093  0.1337
 5339TIP3    H137508   6.036   5.898   1.204  2.2294 -0.0832  0.4297
 5339TIP3    H237509   5.986   5.758   1.230 -2.6429  1.0145 -1.8269
 5340TIP3   OH237510   2.089   3.364  11.115 -0.0266  0.3578  0.4838
 5340TIP3    H137511   2.044   3.433  11.164  0.3047  1.1377 -0.2682
 5340TIP3    H237512   2.161   3.336  11.172 -1.3244 -0.7848  1.6269
 5341TIP3   OH237513   0.298   5.719  14.959  0.1342  0.1462  0.3951
 5341TIP3    H137514   0.204   5.715  14.977  0.6043 -2.0801  3.1624
 5341TIP3    H237515   0.325   5.806  14.988 -1.1668  1.2514 -1.4942
 5342TIP3   OH237516   1.607   5.221  12.206  0.9123 -0.5700  0.5013
 5342TIP3    H137517   1.672   5.230  12.275  3.2096 -1.3827 -1.4176
 5342TIP3    H237518   1.631   5.289  12.142 -2.7764  2.0044  1.5500
 5343TIP3   OH237519   4.936   2.348   6.744  0.2217  0.4928  0.4275
 5343TIP3    H137520   4.880   2.425   6.729  2.3742  1.8332 -1.3354
 5343TIP3    H237521   5.005   2.381   6.801  0.5247 -0.4916  0.6347
 5344TIP3   OH237522   3.723   1.470  14.099 -0.2854 -0.0245  0.7669
 5344TIP3    H137523   3.726   1.557  14.138  1.8218 -0.1734  1.0194
 5344TIP3    H237524   3.814   1.440  14.098 -0.6843 -1.4001 -1.1863
 5345TIP3   OH237525   2.329   6.273   5.637 -0.3010  0.3896 -0.0332
 5345TIP3    H137526   2.378   6.324   5.701 -0.6286  0.6389  0.0227
 5345TIP3    H237527   2.252   6.243   5.684 -0.4582  0.4285 -0.2610
 5346TIP3   OH237528   4.251   6.783   0.694  0.2560 -0.1244  0.1112
 5346TIP3    H137529   4.216   6.759   0.780  0.9011 -0.6640  0.2360
 5346TIP3    H237530   4.246   6.878   0.692 -1.2652 -0.1806  0.0918
 5347TIP3   OH237531   2.730   1.009   4.963  0.6176  0.2291  0.3876
 5347TIP3    H137532   2.804   1.066   4.986 -0.3418  1.2820  1.0065
 5347TIP3    H237533   2.760   0.921   4.983  2.7565  0.2840 -2.1488
 5348TIP3   OH237534   0.516   5.440  14.493  0.1332  0.1650  0.5506
 5348TIP3    H137535   0.572   5.516  14.474 -0.4560  0.1448 -1.4662
 5348TIP3    H237536   0.445   5.475  14.547  0.7847  0.6776  1.0926
 5349TIP3   OH237537   0.104   5.970   2.038 -0.0662 -0.6504 -0.8637
 5349TIP3    H137538   0.044   5.929   2.100  0.6661 -1.5318 -0.7241
 5349TIP3    H237539   0.137   5.898   1.985 -0.9853  0.1402 -2.5710
 5350TIP3   OH237540   2.085   5.755  14.153  0.1181 -0.5389 -0.2533
 5350TIP3    H137541   2.004   5.782  14.197  1.4196  2.6014  0.5142
 5350TIP3    H237542   2.064   5.760  14.060 -0.7855 -0.5811 -0.0623
 5351TIP3   OH237543   5.013   1.948  13.259  0.5739  0.1022  0.8745
 5351TIP3    H137544   4.996   2.034  13.220 -0.0433 -0.1554  0.5637
 5351TIP3    H237545   4.953   1.942  13.333 -2.1470 -1.5238 -1.2598
 5352TIP3   OH237546   2.525   6.173  12.271 -0.0877 -0.2336 -0.2709
 5352TIP3    H137547   2.557   6.089  12.303 -1.8726 -0.3513  1.4207
 5352TIP3    H237548   2.460   6.200  12.336 -0.6069  1.7676 -1.5311
 5353TIP3   OH237549   1.964   5.385  13.827  0.0340 -0.0730 -0.2533
 5353TIP3    H137550   1.991   5.410  13.739 -0.6085  1.0074 -0.1499
 5353TIP3    H237551   1.918   5.461  13.862  0.2314 -0.4925  1.0055
 5354TIP3   OH237552   4.903   3.748   6.984  0.0447 -0.0999  0.6525
 5354TIP3    H137553   4.941   3.717   6.902 -1.1630  1.0084 -0.3666
 5354TIP3    H237554   4.974   3.796   7.027  0.7873 -0.9850  0.4486
 5355TIP3   OH237555   2.649   4.907   2.021  0.3353  0.3138  0.2919
 5355TIP3    H137556   2.584   4.923   2.090  0.8434  0.4242  0.7509
 5355TIP3    H237557   2.629   4.819   1.990  0.8112 -0.2023  1.3808
 5356TIP3   OH237558   5.086   4.820  12.446 -0.2175 -0.0683  0.0164
 5356TIP3    H137559   5.121   4.907  12.466 -1.5107  0.7382 -1.0609
 5356TIP3    H237560   5.027   4.801  12.520  0.9956 -0.6118  0.8825
 5357TIP3   OH237561   3.048   2.274  10.798 -0.0722 -0.4946  0.0681
 5357TIP3    H137562   2.997   2.276  10.717 -1.7235 -0.7832  1.0549
 5357TIP3    H237563   3.108   2.349  10.791 -2.7218  1.7838  0.1236
 5358TIP3   OH237564   3.488   0.749   5.999 -0.0143 -0.1706 -0.6699
 5358TIP3    H137565   3.478   0.663   6.040  0.6499  0.1477  0.1872
 5358TIP3    H237566   3.555   0.736   5.932 -1.7481 -0.9090 -2.3510
 5359TIP3   OH237567   0.238   0.916   4.525  0.0686  0.0341 -0.0156
 5359TIP3    H137568   0.309   0.962   4.479  0.0380 -1.2869 -1.4703
 5359TIP3    H237569   0.158   0.948   4.483 -0.0136 -0.4987 -0.2750
 5360TIP3   OH237570   3.887   1.580  10.911  0.3180  0.0239  0.3778
 5360TIP3    H137571   3.932   1.662  10.892 -0.2955  0.0961 -0.8509
 5360TIP3    H237572   3.836   1.598  10.990  1.7367  0.1993  1.2834
 5361TIP3   OH237573   2.263   4.783  15.416 -0.4374  0.1031  0.3075
 5361TIP3    H137574   2.252   4.729  15.494 -0.3015  0.8647  0.8644
 5361TIP3    H237575   2.326   4.851  15.441  1.1827 -0.7996 -1.0848
 5362TIP3   OH237576   0.681   1.188  11.751 -0.3280 -0.1866 -0.2515
 5362TIP3    H137577   0.662   1.119  11.815  0.0080 -0.0876 -0.0414
 5362TIP3    H237578   0.752   1.151  11.697  1.2721  0.7573  1.1298
 5363TIP3   OH237579   2.534   2.174  10.913  0.0726 -0.7592 -0.2504
 5363TIP3    H137580   2.621   2.142  10.889 -0.3271 -2.4882  0.4491
 5363TIP3    H237581   2.475   2.125  10.857 -0.6269 -1.9577  1.4568
 5364TIP3   OH237582   2.491   2.211   3.391  0.0351  0.0867 -0.1844
 5364TIP3    H137583   2.420   2.178   3.446 -1.6137  1.6561 -1.2661
 5364TIP3    H237584   2.483   2.161   3.309  1.7116 -1.3814  0.4851
 5365TIP3   OH237585   4.726   6.180   4.910  0.1856 -0.0409 -0.5351
 5365TIP3    H137586   4.734   6.105   4.851  0.9391  0.3502 -0.9391
 5365TIP3    H237587   4.797   6.238   4.885  1.0962 -0.2682  1.3418
 5366TIP3   OH237588   5.113   0.846   4.494 -0.0628  0.2787 -0.2689
 5366TIP3    H137589   5.037   0.838   4.552  0.5041 -1.2710  0.3118
 5366TIP3    H237590   5.181   0.886   4.548  0.2875 -0.6405 -0.0058
 5367TIP3   OH237591   3.719   0.365   2.296 -0.0071  0.1653  0.2518
 5367TIP3    H137592   3.679   0.284   2.327  0.7025  0.3759  1.7977
 5367TIP3    H237593   3.797   0.337   2.249 -0.8476 -0.1353 -0.9996
 5368TIP3   OH237594   4.560   6.260  11.057 -0.4062 -0.2249  0.1319
 5368TIP3    H137595   4.651   6.255  11.087 -0.8830 -0.4015  1.6504
 5368TIP3    H237596   4.549   6.349  11.025  0.5101 -0.4398 -0.8046
 5369TIP3   OH237597   3.581   5.734   1.233 -0.4668 -0.4849  0.3056
 5369TIP3    H137598   3.649   5.772   1.288  0.7898  3.1606 -3.3029
 5369TIP3    H237599   3.505   5.792   1.245 -0.3054  0.1188 -1.3291
 5370TIP3   OH237600   0.390   1.346   3.694  0.0262 -0.3396  0.4717
 5370TIP3    H137601   0.475   1.335   3.649 -0.9784  1.1342 -1.9858
 5370TIP3    H237602   0.410   1.402   3.769  1.2835 -0.3343  0.1675
 5371TIP3   OH237603   6.494   6.099  14.428  0.3408  0.5936 -0.3670
 5371TIP3    H137604   6.431   6.171  14.433  0.4880  0.6868  0.1822
 5371TIP3    H237605   6.440   6.021  14.422  0.1785  0.7273 -0.6842
 5372TIP3   OH237606   1.238   0.840   0.272 -0.1906  0.2997  0.0985
 5372TIP3    H137607   1.161   0.784   0.276 -0.8063  0.8561 -2.1884
 5372TIP3    H237608   1.276   0.823   0.186  0.9141  1.7091  0.2595
 5373TIP3   OH237609   5.806   6.562   4.495  0.2491 -0.3945 -0.0685
 5373TIP3    H137610   5.760   6.637   4.456  0.7102 -0.9391 -1.7054
 5373TIP3    H237611   5.736   6.499   4.515 -0.1459  0.4390  1.3417
 5374TIP3   OH237612   2.179   0.278   0.099 -0.4265  0.2496  0.5311
 5374TIP3    H137613   2.265   0.260   0.138 -0.5014  1.4138  1.2740
 5374TIP3    H237614   2.161   0.369   0.121  0.5506  1.8804 -4.1400
 5375TIP3   OH237615   2.829   2.351  11.322  0.4877  0.0188 -0.0912
 5375TIP3    H137616   2.769   2.383  11.389 -0.7051  0.4308 -1.3025
 5375TIP3    H237617   2.829   2.256  11.333 -0.3125  0.0226  0.0153
 5376TIP3   OH237618   1.553   3.073  11.645 -0.4803 -0.1487 -0.1985
 5376TIP3    H137619   1.606   3.140  11.603 -0.4932 -0.6057 -0.9709
 5376TIP3    H237620   1.492   3.044  11.577 -0.5289 -0.8829  0.1449
 5377TIP3   OH237621   4.220   0.781  14.700  0.2087  0.1059  0.4531
 5377TIP3    H137622   4.296   0.839  14.702  0.9783 -0.9050  0.9241
 5377TIP3    H237623   4.254   0.697  14.671 -0.5596 -0.5959  1.5079
 5378TIP3   OH237624   4.391   3.597  14.575  0.6577  0.3995  0.4632
 5378TIP3    H137625   4.433   3.511  14.569  0.5573  0.3655  0.2236
 5378TIP3    H237626   4.463   3.660  14.568  0.6408  0.3471 -0.2864
 5379TIP3   OH237627   3.926   2.593  16.470  0.2037  0.5594  0.4637
 5379TIP3    H137628   3.898   2.675  16.428 -0.2445 -0.2963 -1.0040
 5379TIP3    H237629   3.903   2.525  16.406  0.1048 -0.7646  1.8600
 5380TIP3   OH237630   3.324   2.217  15.462 -0.1840 -0.0249 -0.1912
 5380TIP3    H137631   3.263   2.245  15.393 -0.4559  0.1858  0.1320
 5380TIP3    H237632   3.282   2.244  15.544 -0.6026 -1.6267  0.1612
 5381TIP3   OH237633   5.812   4.352   2.481  0.3112  0.1125 -0.1726
 5381TIP3    H137634   5.827   4.388   2.394  0.0231  2.4213  0.6775
 5381TIP3    H237635   5.898   4.352   2.523  0.0278  1.5348  0.4358
 5382TIP3   OH237636   4.254   5.349   3.572 -0.3507  0.3095 -0.0062
 5382TIP3    H137637   4.257   5.278   3.636  1.6169  0.1986 -0.1540
 5382TIP3    H237638   4.259   5.428   3.625  0.5462  0.2360  0.0369
 5383TIP3   OH237639   4.915   5.924   4.046  0.5874 -0.5297 -0.6271
 5383TIP3    H137640   4.870   6.007   4.032  0.4503 -0.6705 -1.0349
 5383TIP3    H237641   4.892   5.898   4.135 -1.0423 -1.1412 -1.1970
 5384TIP3   OH237642   4.858   2.926  11.957 -0.0722  0.0189  0.3405
 5384TIP3    H137643   4.849   3.009  11.909  1.8059  0.7434  1.1375
 5384TIP3    H237644   4.858   2.953  12.049  0.7524 -0.8494  0.5980
 5385TIP3   OH237645   3.539   5.392  11.910 -0.4611  0.3517 -0.0216
 5385TIP3    H137646   3.552   5.299  11.893 -0.6312 -0.0014  1.5561
 5385TIP3    H237647   3.444   5.402  11.915 -0.4729  0.7715 -0.9246
 5386TIP3   OH237648   5.873   3.317   3.853 -0.0842 -0.1417  0.0440
 5386TIP3    H137649   5.893   3.398   3.900 -0.7932  0.0321  0.0529
 5386TIP3    H237650   5.801   3.277   3.902  1.1696 -1.4949  0.8490
 5387TIP3   OH237651   2.440   0.452  16.057  0.6562  0.5501  0.1825
 5387TIP3    H137652   2.398   0.479  15.975  1.8988 -0.5056 -0.8460
 5387TIP3    H237653   2.534   0.457  16.038  1.0338 -3.6695  0.1198
 5388TIP3   OH237654   4.360   5.553  16.349 -0.3285  0.1961 -0.4139
 5388TIP3    H137655   4.359   5.514  16.262 -0.8290  0.9153 -0.7491
 5388TIP3    H237656   4.280   5.520  16.391 -1.2815  1.5653 -1.0526
 5389TIP3   OH237657   4.048   6.219   3.252 -0.7645 -0.3893  0.0386
 5389TIP3    H137658   4.086   6.268   3.325 -1.9142  0.3519  0.1635
 5389TIP3    H237659   4.044   6.282   3.180 -2.1450 -0.2958  0.1650
 5390TIP3   OH237660   2.698   2.841   2.534  0.0175 -0.1267  0.1893
 5390TIP3    H137661   2.617   2.883   2.505  1.0926  1.7750 -0.2124
 5390TIP3    H237662   2.706   2.864   2.626 -0.1137 -0.7132  0.3544
 5391TIP3   OH237663   0.561   4.369  16.004  0.2795  0.0278  0.4375
 5391TIP3    H137664   0.499   4.332  15.942  1.1543 -0.3741 -0.2266
 5391TIP3    H237665   0.643   4.322  15.986  0.9801  1.1157  0.7216
 5392TIP3   OH237666   6.009   3.005   1.406 -0.2843  0.6882  0.7896
 5392TIP3    H137667   6.019   2.919   1.367  0.4022  0.7421  0.8382
 5392TIP3    H237668   5.938   2.995   1.469  1.4519 -0.5110  2.6740
 5393TIP3   OH237669   2.836   3.450   5.982 -0.1617 -0.1797 -0.1604
 5393TIP3    H137670   2.840   3.531   6.033  0.5518 -0.1850 -0.1887
 5393TIP3    H237671   2.887   3.387   6.033 -0.7674 -0.6325 -0.1071
 5394TIP3   OH237672   6.348   5.781   6.142 -0.1256 -1.0439  0.0207
 5394TIP3    H137673   6.386   5.869   6.149  2.1554 -1.9815  0.5172
 5394TIP3    H237674   6.329   5.756   6.233 -0.6106 -1.1250 -0.1038
 5395TIP3   OH237675   3.474   0.229  16.639 -0.7243  0.5082 -0.0379
 5395TIP3    H137676   3.431   0.284  16.704 -0.2730  0.2575  0.4796
 5395TIP3    H237677   3.543   0.283  16.603  0.1962  0.0536  0.9985
 5396TIP3   OH237678   3.717   4.955  15.323 -0.1600  0.2373  0.2438
 5396TIP3    H137679   3.662   4.939  15.399 -0.9352 -3.6117 -0.9060
 5396TIP3    H237680   3.659   5.000  15.261  0.3789  3.0794  1.6316
 5397TIP3   OH237681   4.852   2.228  15.736  0.2245 -0.5354 -0.4829
 5397TIP3    H137682   4.929   2.239  15.793 -1.7091 -0.2177  2.2844
 5397TIP3    H237683   4.810   2.314  15.737 -0.9091 -1.0748 -0.7979
 5398TIP3   OH237684   2.823   2.421   3.684  0.1322  0.1504  0.2911
 5398TIP3    H137685   2.908   2.448   3.651 -0.4386  0.4469 -0.9698
 5398TIP3    H237686   2.789   2.360   3.618  0.1276 -1.3881  1.6518
 5399TIP3   OH237687   4.888   4.321  15.727 -0.3792  0.1108  0.0510
 5399TIP3    H137688   4.855   4.407  15.753  1.5185  0.3129  2.0201
 5399TIP3    H237689   4.889   4.270  15.809  0.5432 -1.0933 -0.6763
 5400TIP3   OH237690   4.359   2.417   3.893 -0.8787 -0.0708 -0.4003
 5400TIP3    H137691   4.294   2.349   3.912 -1.3025  0.1878 -0.9101
 5400TIP3    H237692   4.327   2.494   3.940 -0.7300 -0.0547 -0.3269
 5401TIP3   OH237693   5.851   1.990  16.634 -0.7132 -0.4977 -0.3179
 5401TIP3    H137694   5.812   1.955  16.554 -0.1055  0.1509 -0.9198
 5401TIP3    H237695   5.872   1.913  16.686  0.5320 -1.0504 -1.5738
 5402TIP3   OH237696   2.363   4.707   5.566 -0.2909  0.2813 -0.3944
 5402TIP3    H137697   2.450   4.723   5.531  0.3332 -1.8728  0.0616
 5402TIP3    H237698   2.362   4.752   5.651  0.0357  1.0687 -0.8037
 5403TIP3   OH237699   5.008   4.285   5.850  0.0014 -0.0988  0.0720
 5403TIP3    H137700   5.068   4.235   5.794 -1.4870  0.6193 -2.3146
 5403TIP3    H237701   5.048   4.372   5.854  0.1083 -0.1492  0.1087
 5404TIP3   OH237702   2.655   5.700  13.545  0.6485 -0.0801  0.2543
 5404TIP3    H137703   2.641   5.772  13.607  1.9381 -0.9680  1.6552
 5404TIP3    H237704   2.661   5.743  13.460 -1.2653  1.1761  0.6973
 5405TIP3   OH237705   0.614   5.720   1.263 -0.1749 -0.6660  0.4830
 5405TIP3    H137706   0.545   5.723   1.197 -0.3427 -0.9539  0.6409
 5405TIP3    H237707   0.628   5.811   1.288  1.0334 -0.3662 -1.1265
 5406TIP3   OH237708   1.755   6.795   4.554  0.5277 -0.1629  0.0278
 5406TIP3    H137709   1.850   6.806   4.557  0.4934  0.3455 -0.6256
 5406TIP3    H237710   1.727   6.804   4.645  1.2792 -2.0005  0.4860
 5407TIP3   OH237711   2.720   0.491   2.891  0.2210  0.2577 -0.3344
 5407TIP3    H137712   2.812   0.515   2.887  0.1966  0.2895 -0.7872
 5407TIP3    H237713   2.711   0.442   2.973  0.7474 -0.1812 -0.5322
 5408TIP3   OH237714   2.151   5.602  16.533  0.3761  0.1842 -0.0211
 5408TIP3    H137715   2.190   5.682  16.570  0.3150 -0.2295  0.9768
 5408TIP3    H237716   2.063   5.599  16.569  0.3693 -0.3133 -0.0710
 5409TIP3   OH237717   4.384   5.196  13.637  0.1666  0.3965  0.1253
 5409TIP3    H137718   4.374   5.180  13.731  3.7078 -1.5884  0.3444
 5409TIP3    H237719   4.432   5.279  13.632 -1.2902  1.2763 -0.1058
 5410TIP3   OH237720   1.689   6.580   0.840  0.2485  0.0202  0.0175
 5410TIP3    H137721   1.713   6.584   0.748 -0.7389  1.2716 -0.2196
 5410TIP3    H237722   1.772   6.594   0.887  0.5669  0.6306 -0.7016
 5411TIP3   OH237723   3.135   4.880  13.574 -0.0209 -0.2551  0.0451
 5411TIP3    H137724   3.186   4.945  13.623 -1.7673  0.9697  0.3182
 5411TIP3    H237725   3.152   4.900  13.482  0.8588 -0.6014  0.1171
 5412TIP3   OH237726   5.954   0.422   2.360  0.1474  0.3839 -0.3514
 5412TIP3    H137727   6.006   0.439   2.438 -0.2048 -0.1368  0.0081
 5412TIP3    H237728   5.879   0.372   2.392  0.6945 -1.0501 -1.2126
 5413TIP3   OH237729   1.275   0.964   2.676 -0.6237  1.2950  0.5283
 5413TIP3    H137730   1.242   1.027   2.611 -1.6152  2.5209  2.1328
 5413TIP3    H237731   1.213   0.891   2.673 -0.1004  0.8725 -0.5629
 5414TIP3   OH237732   6.666   2.557   2.919 -0.5762 -0.7941  0.4338
 5414TIP3    H137733   6.631   2.478   2.961 -1.1420 -0.2188  1.0534
 5414TIP3    H237734   6.626   2.557   2.832 -0.0520 -1.5378  0.1789
 5415TIP3   OH237735   2.069   5.289   0.941  0.3335 -0.2516  0.0622
 5415TIP3    H137736   2.044   5.344   0.867 -3.3553  0.0205  1.3017
 5415TIP3    H237737   2.023   5.327   1.016  1.3225 -2.3903  1.8728
 5416TIP3   OH237738   0.181   1.700  16.638 -0.0162 -0.0999  0.4171
 5416TIP3    H137739   0.199   1.618  16.683  0.0443 -0.2457  0.1336
 5416TIP3    H237740   0.087   1.698  16.619 -0.2933  0.5406  1.6568
 5417TIP3   OH237741   4.739   6.143  16.277  0.0908  0.6443  0.1176
 5417TIP3    H137742   4.668   6.096  16.233 -1.1148  1.3297  1.2697
 5417TIP3    H237743   4.773   6.203  16.210  0.9797 -1.1054 -1.0559
 5418TIP3   OH237744   0.782   5.346   2.938 -0.1435  0.2428 -0.2521
 5418TIP3    H137745   0.736   5.421   2.899 -1.9992  0.1347  1.5671
 5418TIP3    H237746   0.729   5.322   3.014  1.3864 -1.8039  0.2588
 5419TIP3   OH237747   0.084   2.353   4.173 -0.1558 -0.7465 -0.1639
 5419TIP3    H137748   0.153   2.325   4.233 -0.8862 -1.4142  0.3927
 5419TIP3    H237749   0.130   2.395   4.101  0.7034  1.6618  1.6458
 5420TIP3   OH237750   0.108   6.723   2.810 -0.3306 -0.2399 -0.2422
 5420TIP3    H137751   0.109   6.644   2.757  1.9285 -1.8473  1.9606
 5420TIP3    H237752   0.053   6.702   2.886  0.9550 -0.0668  0.7810
 5421TIP3   OH237753   3.846   2.869  16.350 -0.1347  0.5544 -0.1567
 5421TIP3    H137754   3.889   2.936  16.403 -1.4015 -0.2883  2.0313
 5421TIP3    H237755   3.800   2.919  16.282  1.0507  1.6935 -0.1736
 5422TIP3   OH237756   5.851   0.647   2.774 -0.0238  0.4885  0.4390
 5422TIP3    H137757   5.932   0.698   2.787 -0.3397  1.5999 -1.5443
 5422TIP3    H237758   5.782   0.714   2.767 -0.9610 -0.3958  0.9745
 5423TIP3   OH237759   5.533   4.230  16.879 -0.0245  0.4126 -0.3547
 5423TIP3    H137760   5.578   4.314  16.870  1.2055  0.0270  1.6979
 5423TIP3    H237761   5.603   4.165  16.879 -0.6401 -0.3200  1.4286
 5424TIP3   OH237762   4.532   1.147   1.725  0.0425 -0.4894  0.2134
 5424TIP3    H137763   4.524   1.236   1.759 -0.7480 -1.4482  2.7337
 5424TIP3    H237764   4.499   1.153   1.635  1.3299  1.9903 -0.2106
 5425TIP3   OH237765   3.178   5.752   6.383  0.4199  0.1859  0.2989
 5425TIP3    H137766   3.184   5.692   6.457 -1.8351  0.5666  0.8423
 5425TIP3    H237767   3.257   5.806   6.390  0.1017  0.4461  2.6311
 5426TIP3   OH237768   0.141   6.212   5.631 -0.4590 -0.2804 -0.3939
 5426TIP3    H137769   0.235   6.231   5.621 -0.8767  1.7523 -0.8267
 5426TIP3    H237770   0.139   6.139   5.693  1.3899  0.2388  0.3762
 5427TIP3   OH237771   1.052   4.264  15.543 -0.5314  0.5234 -0.5597
 5427TIP3    H137772   1.094   4.224  15.467  0.0492  0.5959 -0.2883
 5427TIP3    H237773   1.041   4.192  15.605  0.2693  0.7121 -0.1763
 5428TIP3   OH237774   5.962   2.874  14.002  1.0641  0.0409  0.5926
 5428TIP3    H137775   6.033   2.915  13.954  0.9013 -1.2091 -0.7765
 5428TIP3    H237776   5.934   2.800  13.947 -2.8248  1.7741 -0.1395
 5429TIP3   OH237777   5.938   2.148  14.021  0.0672 -0.5191  0.9821
 5429TIP3    H137778   5.979   2.134  13.936 -0.0497 -0.5792  0.9341
 5429TIP3    H237779   6.011   2.160  14.082  0.2246 -2.1045  1.1624
 5430TIP3   OH237780   3.102   6.176  13.910 -0.4457  0.1695 -0.2783
 5430TIP3    H137781   3.022   6.153  13.862 -0.9002  1.1052  0.0069
 5430TIP3    H237782   3.082   6.261  13.950  0.9303  0.7524 -0.7613
 5431TIP3   OH237783   2.511   2.004   1.827 -0.1893 -0.7822  0.3409
 5431TIP3    H137784   2.597   2.041   1.845 -0.3094 -1.1610  1.8019
 5431TIP3    H237785   2.469   2.067   1.768  1.2873 -0.9017 -0.8934
 5432TIP3   OH237786   4.255   0.389   3.975 -0.0898 -0.1887  0.1468
 5432TIP3    H137787   4.295   0.437   3.903 -1.6190  2.0407  0.6986
 5432TIP3    H237788   4.161   0.398   3.961 -0.5454 -3.7333 -0.1159
 5433TIP3   OH237789   1.453   2.674  12.264 -0.4005 -0.1639 -0.4149
 5433TIP3    H137790   1.475   2.756  12.308 -0.8149  0.2807 -1.0100
 5433TIP3    H237791   1.491   2.684  12.176 -0.6376 -0.5141 -0.5578
 5434TIP3   OH237792   4.086   2.070  15.084 -0.2763  0.3906  1.0079
 5434TIP3    H137793   4.127   1.997  15.038  1.0685 -0.2760  3.0862
 5434TIP3    H237794   4.146   2.143  15.073 -0.2106  0.3773  1.2772
 5435TIP3   OH237795   5.335   0.430   6.153  0.1024 -0.8084  0.0300
 5435TIP3    H137796   5.411   0.465   6.106  1.2317  0.0451  2.3311
 5435TIP3    H237797   5.283   0.507   6.176 -0.3277 -1.1744  0.3083
 5436TIP3   OH237798   6.293   0.895   5.745 -0.2997 -0.4447  0.2920
 5436TIP3    H137799   6.311   0.853   5.662  0.9661 -1.3671  1.0024
 5436TIP3    H237800   6.220   0.845   5.782 -1.2151  0.2928 -0.4642
 5437TIP3   OH237801   3.142   1.960  16.635  0.0549 -0.2314 -0.3681
 5437TIP3    H137802   3.129   1.966  16.541  0.6806  0.8334 -0.3970
 5437TIP3    H237803   3.079   2.021  16.673  0.8978  0.5655 -0.2020
 5438TIP3   OH237804   2.449   1.275   2.334  0.2085  0.8431  0.3181
 5438TIP3    H137805   2.396   1.340   2.287 -0.1565 -0.9620 -1.9136
 5438TIP3    H237806   2.523   1.258   2.276 -0.3751 -1.6593  0.2272
 5439TIP3   OH237807   4.359   4.439  16.321 -0.1771 -0.2111 -0.5179
 5439TIP3    H137808   4.286   4.498  16.337  1.2270  0.9843  2.0718
 5439TIP3    H237809   4.326   4.352  16.343 -0.7375  0.3651  1.0127
 5440TIP3   OH237810   2.342   5.156   1.294  0.7746 -0.3785  0.7236
 5440TIP3    H137811   2.254   5.150   1.331 -0.0776 -2.2416 -1.3848
 5440TIP3    H237812   2.395   5.196   1.363 -1.9241  1.9124  1.6349
 5441TIP3   OH237813   3.475   4.686   0.476  0.3784 -0.1492  0.5032
 5441TIP3    H137814   3.544   4.636   0.518  1.4380  0.2892 -0.6392
 5441TIP3    H237815   3.482   4.663   0.383  0.5657  1.6922  0.0201
 5442TIP3   OH237816   1.756   2.306   4.878 -0.1761  0.2069 -0.4960
 5442TIP3    H137817   1.686   2.271   4.934 -0.4360  0.9196 -0.3556
 5442TIP3    H237818   1.726   2.291   4.789 -0.9388  1.2885 -0.4431
 5443TIP3   OH237819   3.595   6.519  12.633  1.1278  0.7341 -0.4238
 5443TIP3    H137820   3.687   6.495  12.624  0.5598 -1.3048 -1.2416
 5443TIP3    H237821   3.553   6.441  12.669 -0.5661  1.0542 -1.6016
 5444TIP3   OH237822   1.407   0.337  11.718  0.4032  0.1345 -0.6143
 5444TIP3    H137823   1.439   0.394  11.788  1.8932  1.0809 -2.0147
 5444TIP3    H237824   1.486   0.297  11.680 -0.3529 -0.2689 -1.8363
 5445TIP3   OH237825   5.005   5.171   4.520 -0.3855  0.7555 -0.1787
 5445TIP3    H137826   5.099   5.171   4.537 -0.4348  2.4741  0.2021
 5445TIP3    H237827   4.989   5.252   4.472 -1.5842  0.1654 -0.8173
 5446TIP3   OH237828   5.975   4.523  12.043 -0.1668  0.1826  0.4459
 5446TIP3    H137829   5.917   4.518  12.119 -0.2466  0.7333  0.4230
 5446TIP3    H237830   5.962   4.439  11.998 -0.9048  0.2772  0.4649
 5447TIP3   OH237831   3.548   6.514  11.186 -0.2175  0.1173  0.0860
 5447TIP3    H137832   3.616   6.456  11.220 -0.5218  0.0212  0.5390
 5447TIP3    H237833   3.467   6.484  11.228  0.0603  2.8784  2.9276
 5448TIP3   OH237834   4.502   1.409   2.648 -0.6654  0.7045  0.7125
 5448TIP3    H137835   4.474   1.334   2.596 -0.1667  0.5840  0.6111
 5448TIP3    H237836   4.481   1.485   2.595 -1.5324  0.6620  0.9825
 5449TIP3   OH237837   1.241   4.642   2.270  0.3927 -0.0284  0.1585
 5449TIP3    H137838   1.312   4.684   2.222 -0.3655  0.6097 -0.4285
 5449TIP3    H237839   1.224   4.699   2.344 -0.0199  0.2251 -0.1287
 5450TIP3   OH237840   3.332   3.711  12.697 -0.6965  0.3896  0.0362
 5450TIP3    H137841   3.421   3.742  12.711 -0.9743  1.2906 -0.1040
 5450TIP3    H237842   3.337   3.616  12.708  0.2252  0.4597  0.2770
 5451TIP3   OH237843   2.934   0.534  13.733 -0.1890  0.4586 -0.3734
 5451TIP3    H137844   2.906   0.540  13.824 -0.2592  1.9762 -0.4724
 5451TIP3    H237845   2.940   0.625  13.703  3.5415  0.2532 -0.7748
 5452TIP3   OH237846   2.818   0.333  16.353  0.1458 -0.3210 -0.3325
 5452TIP3    H137847   2.858   0.323  16.267 -1.5734  0.8286 -1.3105
 5452TIP3    H237848   2.753   0.263  16.358 -1.0843  0.7594 -0.7856
 5453TIP3   OH237849   5.254   1.750   2.245  0.0435 -0.4347 -0.4061
 5453TIP3    H137850   5.316   1.796   2.301  0.4863 -1.7199  0.2157
 5453TIP3    H237851   5.202   1.696   2.306 -0.3741 -0.8357 -1.1002
 5454TIP3   OH237852   5.201   3.661  16.969  0.3319  0.4848  0.6065
 5454TIP3    H137853   5.152   3.671  16.888  0.2678 -2.1783  0.2284
 5454TIP3    H237854   5.136   3.674  17.038  0.0984  1.4372  0.2182
 5455TIP3   OH237855   3.857   2.873   4.768  0.2124 -0.8179 -0.3697
 5455TIP3    H137856   3.774   2.830   4.748  0.5929 -1.4579 -0.5795
 5455TIP3    H237857   3.858   2.950   4.710 -0.4464 -0.5383 -0.0207
 5456TIP3   OH237858   3.187   1.293  14.685 -0.4224  0.6968 -0.1978
 5456TIP3    H137859   3.121   1.227  14.665  0.5387 -0.0509 -1.0569
 5456TIP3    H237860   3.256   1.278  14.620  0.2473  1.9463  0.1838
 5457TIP3   OH237861   6.656   3.334  15.286  0.0740 -0.7053 -0.2924
 5457TIP3    H137862   6.750   3.347  15.269  0.1317 -0.7380  0.0069
 5457TIP3    H237863   6.615   3.349  15.201  0.3744 -0.9434 -0.4829
 5458TIP3   OH237864   5.105   1.659  13.323 -0.3127 -0.1612  0.1360
 5458TIP3    H137865   5.092   1.615  13.239  1.2915  1.5685 -1.0975
 5458TIP3    H237866   5.067   1.746  13.311 -1.7773 -0.5009  1.8963
 5459TIP3   OH237867   3.197   0.056  11.135  1.0949 -0.3568 -0.1904
 5459TIP3    H137868   3.177   0.117  11.206  0.8623 -0.6908  0.0319
 5459TIP3    H237869   3.162   0.099  11.057  3.7771  1.3466 -0.6031
 5460TIP3   OH237870   4.282   3.097  15.110 -0.2231 -0.6214  0.2518
 5460TIP3    H137871   4.378   3.097  15.116 -0.1709  0.1762 -0.4485
 5460TIP3    H237872   4.256   3.182  15.146 -0.7288 -1.1262  1.1183
 5461TIP3   OH237873   5.831   5.593  16.942  0.8856  0.5387 -0.3194
 5461TIP3    H137874   5.759   5.613  16.881  0.8855 -0.0085 -0.4976
 5461TIP3    H237875   5.887   5.532  16.895  0.8800  0.1024  0.2356
 5462TIP3   OH237876   3.975   4.247   1.003  0.8511 -0.2137 -0.0172
 5462TIP3    H137877   3.980   4.237   1.098  1.3158  1.1935  0.1384
 5462TIP3    H237878   4.028   4.176   0.968  1.5887 -0.0930  0.8313
 5463TIP3   OH237879   2.232   5.772   3.768  0.3874 -0.2651 -0.0171
 5463TIP3    H137880   2.261   5.748   3.856  0.7848  2.9006  0.8412
 5463TIP3    H237881   2.140   5.795   3.779  0.0533 -1.1706 -0.7669
 5464TIP3   OH237882   4.442   4.368   3.789 -0.0885  0.2629  0.2042
 5464TIP3    H137883   4.520   4.348   3.737 -0.3416 -0.5883  0.1358
 5464TIP3    H237884   4.386   4.419   3.730 -0.1480 -0.2488 -0.1903
 5465TIP3   OH237885   0.240   5.471  12.166 -0.2910  0.4271 -0.6004
 5465TIP3    H137886   0.211   5.556  12.199  0.2131 -0.0707  1.2216
 5465TIP3    H237887   0.335   5.479  12.159 -0.3066  0.2210 -1.0758
 5466TIP3   OH237888   6.136   2.936  12.085  0.0519 -0.1311  0.1889
 5466TIP3    H137889   6.209   2.922  12.144 -0.3701  0.1643  0.7896
 5466TIP3    H237890   6.061   2.951  12.142 -0.4476 -0.2559 -0.4173
 5467TIP3   OH237891   3.218   4.782   0.466 -0.1444 -0.5548 -0.3911
 5467TIP3    H137892   3.297   4.739   0.499 -0.1872  0.1589  0.6809
 5467TIP3    H237893   3.151   4.714   0.466  0.1491 -0.8443 -0.0635
 5468TIP3   OH237894   3.078   6.153   1.016 -0.3925 -0.1471 -0.1077
 5468TIP3    H137895   3.035   6.214   1.076 -0.1412  1.3382 -1.3816
 5468TIP3    H237896   3.099   6.206   0.939  0.3236 -1.7322 -1.0441
 5469TIP3   OH237897   0.586   4.278   0.725  0.3328  0.2413  0.1757
 5469TIP3    H137898   0.572   4.343   0.656 -0.9667 -0.4031 -0.1943
 5469TIP3    H237899   0.564   4.194   0.685  1.9900 -0.4655  0.6476
 5470TIP3   OH237900   4.905   1.622   4.603 -0.0564 -0.0973 -0.3394
 5470TIP3    H137901   4.827   1.630   4.548  0.0714  0.2252 -0.4765
 5470TIP3    H237902   4.881   1.557   4.669 -0.9797  1.0610  0.5274
 5471TIP3   OH237903   1.330   0.977  15.204  0.3635  0.0314  0.5929
 5471TIP3    H137904   1.282   1.020  15.134  1.6241  0.2839 -0.1482
 5471TIP3    H237905   1.351   1.046  15.266  0.2583  0.0262  0.6338
 5472TIP3   OH237906   3.297   2.750   4.417 -0.1214 -0.1648  0.0816
 5472TIP3    H137907   3.263   2.803   4.490  2.9662  3.6968 -0.9331
 5472TIP3    H237908   3.363   2.693   4.458  0.0133  0.3470  0.5914
 5473TIP3   OH237909   1.665   5.339   4.076 -0.0285  0.2694 -0.2640
 5473TIP3    H137910   1.582   5.354   4.122  0.9747  0.7284  1.5122
 5473TIP3    H237911   1.717   5.288   4.138  1.6292  1.4776 -0.5990
 5474TIP3   OH237912   4.864   4.599   3.411  0.2828  0.0544  0.6476
 5474TIP3    H137913   4.810   4.618   3.334  2.4183  1.6727 -0.5375
 5474TIP3    H237914   4.867   4.503   3.414 -0.2401 -0.0576 -1.0127
 5475TIP3   OH237915   1.891   1.881  15.984 -0.1755 -0.3666 -0.1049
 5475TIP3    H137916   1.981   1.901  16.008 -0.1936  0.9890 -1.0593
 5475TIP3    H237917   1.879   1.789  16.008  0.7725  0.0067  2.0224
 5476TIP3   OH237918   5.355   1.907  14.732 -0.7501  0.0039  0.0120
 5476TIP3    H137919   5.430   1.896  14.673  0.3031 -0.6836  1.4247
 5476TIP3    H237920   5.393   1.937  14.814 -1.8887 -1.3973  1.0994
 5477TIP3   OH237921   1.163   3.843  15.297 -0.6382 -0.2517  0.0084
 5477TIP3    H137922   1.251   3.808  15.314 -0.8319 -0.2609  1.0615
 5477TIP3    H237923   1.111   3.766  15.274 -0.6140 -0.4016  0.4386
 5478TIP3   OH237924   4.544   6.262   0.386 -0.3346 -0.0909  0.2681
 5478TIP3    H137925   4.496   6.180   0.395 -1.2372  0.5006  1.1481
 5478TIP3    H237926   4.500   6.322   0.447  1.2041  0.6283  0.7212
 5479TIP3   OH237927   3.485   6.308  13.821 -0.0100 -0.0005 -0.3752
 5479TIP3    H137928   3.514   6.296  13.731 -0.1955  1.1874 -0.6235
 5479TIP3    H237929   3.564   6.330  13.869 -0.0490  0.3793 -0.4734
 5480TIP3   OH237930   0.012   6.289   1.703 -0.5959  0.4821 -0.2227
 5480TIP3    H137931  -0.004   6.375   1.664 -1.7087  0.2863 -0.2546
 5480TIP3    H237932  -0.037   6.228   1.647  0.2582 -0.1921 -0.2632
 5481TIP3   OH237933   3.178   5.418  16.023 -0.8070 -0.0240 -0.5267
 5481TIP3    H137934   3.102   5.475  16.026 -0.1412  1.1430 -3.0866
 5481TIP3    H237935   3.249   5.469  16.061 -0.7642 -0.1437 -0.4439
 5482TIP3   OH237936   6.439   3.504  15.860 -0.4564  0.3778 -0.5323
 5482TIP3    H137937   6.365   3.528  15.916 -0.5481  0.7579 -0.8078
 5482TIP3    H237938   6.509   3.564  15.885  0.1580 -0.7412  0.5440
 5483TIP3   OH237939   6.379   6.583  14.333 -0.0465 -0.2547  0.1234
 5483TIP3    H137940   6.318   6.526  14.285 -1.4916 -0.3653  1.9774
 5483TIP3    H237941   6.398   6.654  14.273 -1.7067 -0.4405 -0.6761
 5484TIP3   OH237942   5.287   5.105  15.382 -0.0064 -0.4113 -0.9169
 5484TIP3    H137943   5.346   5.061  15.443  0.9383  0.9367 -0.8194
 5484TIP3    H237944   5.202   5.063  15.397  0.3078 -0.4749  0.9577
 5485TIP3   OH237945   4.900   3.172   3.102 -0.0306  0.5154  0.0539
 5485TIP3    H137946   4.964   3.162   3.172  2.1144  0.2629 -1.8250
 5485TIP3    H237947   4.875   3.264   3.105  0.6044  0.6791  0.6673
 5486TIP3   OH237948   5.112   4.859   6.639 -0.3180 -0.3241  0.4144
 5486TIP3    H137949   5.066   4.833   6.559  2.0769 -0.8305 -0.8619
 5486TIP3    H237950   5.204   4.857   6.616  0.6758 -2.8530  3.8292
 5487TIP3   OH237951   4.384   0.127   1.499 -0.8837  0.3799 -1.0292
 5487TIP3    H137952   4.386   0.222   1.490 -0.9725  0.7649  2.1345
 5487TIP3    H237953   4.291   0.105   1.503 -0.8683  0.4560  0.2516
 5488TIP3   OH237954   2.000   0.172  15.481  0.4652 -0.0384 -0.2275
 5488TIP3    H137955   1.973   0.080  15.474 -1.1758  0.3316  0.4886
 5488TIP3    H237956   2.062   0.185  15.410  1.3826 -1.9142  0.1724
 5489TIP3   OH237957   4.877   0.590  12.026 -0.2098 -0.2498  0.0052
 5489TIP3    H137958   4.951   0.602  11.967  0.9843  0.1413  1.5290
 5489TIP3    H237959   4.821   0.526  11.982  0.7507 -0.1390 -1.4285
 5490TIP3   OH237960   2.588   3.653   6.091  0.2817  0.3507  0.0772
 5490TIP3    H137961   2.563   3.736   6.130 -0.3328 -1.0363  2.8989
 5490TIP3    H237962   2.684   3.655   6.088  0.2924  0.8882  0.7859
 5491TIP3   OH237963   6.530   5.330  15.228  0.1026  0.3912  0.9325
 5491TIP3    H137964   6.593   5.313  15.158  1.5881  0.9537  2.0831
 5491TIP3    H237965   6.473   5.398  15.192  1.1321  1.0130  0.4088
 5492TIP3   OH237966   1.705   4.459  15.268 -0.6236  0.4329  0.0011
 5492TIP3    H137967   1.713   4.370  15.301 -0.8734  0.8266  1.1687
 5492TIP3    H237968   1.632   4.456  15.206 -0.5246 -0.1966 -0.0907
 5493TIP3   OH237969   5.028   3.525   3.346  0.0162 -0.6771 -0.2290
 5493TIP3    H137970   5.031   3.557   3.256  0.1682  0.7306  0.2420
 5493TIP3    H237971   5.119   3.533   3.377 -0.2816  0.2118  0.4685
 5494TIP3   OH237972   6.364   5.485  12.113  0.0988 -0.4105 -0.1527
 5494TIP3    H137973   6.370   5.413  12.177 -1.3261 -2.0893 -1.8007
 5494TIP3    H237974   6.365   5.442  12.028  0.1465  1.6295 -1.2447
 5495TIP3   OH237975   0.009   1.227  11.864  0.5150  0.0936  0.1320
 5495TIP3    H137976   0.069   1.299  11.881  1.8998 -0.7125 -1.1517
 5495TIP3    H237977   0.040   1.188  11.783  0.1380 -2.2945  1.0513
 5496TIP3   OH237978   0.232   4.511   4.849 -0.0878 -0.3424  0.2687
 5496TIP3    H137979   0.190   4.568   4.913  0.3411 -0.5285  0.7159
 5496TIP3    H237980   0.197   4.541   4.764 -1.7051 -0.9844  0.6724
 5497TIP3   OH237981   3.298   1.497   0.846  0.1955  0.4816  0.3823
 5497TIP3    H137982   3.318   1.433   0.777 -1.1669 -1.4396  1.6547
 5497TIP3    H237983   3.203   1.491   0.856  0.5718 -1.4791  4.3592
 5498TIP3   OH237984   4.286   0.443  14.609  0.0997 -0.1117 -0.1859
 5498TIP3    H137985   4.307   0.507  14.541 -0.4452 -0.1909 -0.4335
 5498TIP3    H237986   4.313   0.359  14.572  1.8161  0.0766  0.5658
 5499TIP3   OH237987   1.042   0.179   5.754 -0.0483  0.0470  0.5260
 5499TIP3    H137988   1.100   0.106   5.778  2.0556  1.7662  1.0695
 5499TIP3    H237989   1.012   0.213   5.838  0.1507  0.6516  0.3589
 5500TIP3   OH237990   0.915   4.917  14.690  0.3350 -0.2726 -1.2079
 5500TIP3    H137991   0.880   4.835  14.724 -1.6563  0.5235 -1.2429
 5500TIP3    H237992   0.851   4.946  14.625  1.2282  1.0853 -1.5195
 5501TIP3   OH237993   4.663   4.989  14.344 -0.0275 -0.5775 -0.3597
 5501TIP3    H137994   4.649   4.904  14.302 -2.8396 -0.1769 -0.4651
 5501TIP3    H237995   4.693   4.968  14.433 -0.3235 -1.6716 -0.5110
 5502TIP3   OH237996   0.745   3.144   0.752 -0.3529  0.4280  0.9449
 5502TIP3    H137997   0.797   3.109   0.824  2.3919 -1.2228 -1.5796
 5502TIP3    H237998   0.663   3.172   0.792  0.9531 -0.4564  4.6165
 5503TIP3   OH237999   3.397   1.343  11.843  0.0655 -0.1269  0.9514
 5503TIP3    H138000   3.345   1.263  11.830  0.3241 -0.2358  0.5912
 5503TIP3    H238001   3.429   1.365  11.756  0.0884  0.3080  1.0703
 5504TIP3   OH238002   6.617   3.624  11.547 -0.8108 -0.2891 -0.4269
 5504TIP3    H138003   6.560   3.697  11.522 -1.0599 -0.6136 -0.8174
 5504TIP3    H238004   6.572   3.582  11.620 -1.0987 -0.5719 -0.7633
 5505TIP3   OH238005   5.488   4.341  13.786 -0.4574  0.6436 -0.4303
 5505TIP3    H138006   5.403   4.386  13.787  0.2809  2.0932 -1.2631
 5505TIP3    H238007   5.543   4.393  13.728  1.7699  1.1250  1.9181
 5506TIP3   OH238008   0.651   4.570  11.619  0.3132  0.3509  0.0472
 5506TIP3    H138009   0.564   4.604  11.638  0.6184  0.1112  2.0838
 5506TIP3    H238010   0.643   4.532  11.532 -1.1960  1.6684 -0.4442
 5507TIP3   OH238011   2.641   5.075   2.300  0.2265  0.6023  0.1975
 5507TIP3    H138012   2.666   5.162   2.329  1.0487  0.4065  0.1055
 5507TIP3    H238013   2.546   5.079   2.290  0.4101  1.9434 -1.3031
 5508TIP3   OH238014   2.887   3.231   3.962 -0.1458 -0.2311 -0.3540
 5508TIP3    H138015   2.856   3.173   3.892 -1.6444 -1.6065  1.3632
 5508TIP3    H238016   2.921   3.172   4.029  0.7806  1.0235  0.3069
 5509TIP3   OH238017   6.215   5.701  14.977  0.1249  0.5496 -0.7771
 5509TIP3    H138018   6.261   5.741  14.903  0.8530  0.3499 -0.4369
 5509TIP3    H238019   6.251   5.745  15.054 -1.8859  2.0448 -0.5954
 5510TIP3   OH238020   1.989   1.766   1.537  0.2682 -0.2746  0.5676
 5510TIP3    H138021   2.068   1.780   1.588 -0.0848  0.6729  0.8615
 5510TIP3    H238022   2.012   1.696   1.476  1.5954  0.5604  0.0780
 5511TIP3   OH238023   3.673   5.240  16.405  0.2989  0.2750 -0.0761
 5511TIP3    H138024   3.674   5.267  16.497  0.3522  0.4065 -0.1143
 5511TIP3    H238025   3.724   5.308  16.360  0.0117  0.3808 -0.2484
 5512TIP3   OH238026   5.614   0.246   4.871 -0.4942 -1.4614 -0.2601
 5512TIP3    H138027   5.707   0.222   4.873 -0.2079 -0.4138 -0.2789
 5512TIP3    H238028   5.614   0.342   4.869 -1.5786 -1.4488 -0.3608
 5513TIP3   OH238029   6.687   5.100  16.640 -0.5353  0.2172 -0.1955
 5513TIP3    H138030   6.670   5.033  16.574  1.1814 -0.1183 -0.3596
 5513TIP3    H238031   6.753   5.060  16.697 -0.4634  1.2800  0.4810
 5514TIP3   OH238032   1.681   4.253  11.339 -0.3656 -0.0450  0.0265
 5514TIP3    H138033   1.750   4.188  11.352 -2.4514 -1.9534  2.8179
 5514TIP3    H238034   1.600   4.203  11.347 -2.1172  2.4775 -0.7652
 5515TIP3   OH238035   4.641   2.620  17.096  0.1398  0.2086  0.1734
 5515TIP3    H138036   4.661   2.706  17.134 -2.2014  1.1726 -0.5852
 5515TIP3    H238037   4.549   2.605  17.119  0.0999 -1.4490 -0.9244
 5516TIP3   OH238038   5.522   2.431   1.609  0.2926 -0.0553  0.1086
 5516TIP3    H138039   5.500   2.372   1.537  1.5534 -0.5621  0.1289
 5516TIP3    H238040   5.611   2.460   1.591 -0.3086  1.9576  0.0299
 5517TIP3   OH238041   5.573   4.246  11.713  0.3147 -0.8411 -0.3721
 5517TIP3    H138042   5.490   4.225  11.758 -0.5367 -0.6782 -1.7977
 5517TIP3    H238043   5.552   4.321  11.659  1.5108 -0.5924 -0.5005
 5518TIP3   OH238044   0.760   6.767   3.293 -0.1559 -0.1176 -0.1585
 5518TIP3    H138045   0.804   6.843   3.256  0.0637 -0.2912 -0.2543
 5518TIP3    H238046   0.816   6.740   3.366 -0.5001  0.1241  0.2072
 5519TIP3   OH238047   1.398   1.658   3.225 -0.4069  0.1895 -0.3824
 5519TIP3    H138048   1.396   1.594   3.295  0.0604  1.3202  0.6981
 5519TIP3    H238049   1.450   1.731   3.259  1.2932  0.0951 -2.5194
 5520TIP3   OH238050   4.309   5.532   1.559 -0.4986  0.0750 -0.4421
 5520TIP3    H138051   4.369   5.528   1.484  0.0125 -0.4957 -0.0090
 5520TIP3    H238052   4.326   5.617   1.599 -0.1414  0.0100 -0.4548
 5521TIP3   OH238053   0.822   4.097   1.155  0.0149  0.0134  0.1352
 5521TIP3    H138054   0.757   4.163   1.180 -0.6157 -0.4936 -0.1191
 5521TIP3    H238055   0.775   4.042   1.092  1.2259  0.6663 -1.3929
 5522TIP3   OH238056   3.963   2.753   4.441  0.4068 -0.1889 -0.5630
 5522TIP3    H138057   3.985   2.846   4.430  0.3329  0.4590  3.2887
 5522TIP3    H238058   3.873   2.746   4.409 -0.7963  1.9505  1.9308
 5523TIP3   OH238059   5.891   5.313   3.040  0.4687  0.0436 -0.3676
 5523TIP3    H138060   5.952   5.377   3.077  1.3501  0.0260 -1.7283
 5523TIP3    H238061   5.813   5.320   3.094  1.2796  0.8554  0.7330
 5524TIP3   OH238062   5.075   2.690  17.192 -0.2414  0.0133 -0.4997
 5524TIP3    H138063   5.003   2.682  17.130 -0.4677  0.6443 -0.3300
 5524TIP3    H238064   5.154   2.676  17.140 -0.4376  0.3244 -0.8828
 5525TIP3   OH238065   2.089   3.616   3.383  0.2675 -0.6199 -0.4168
 5525TIP3    H138066   2.052   3.536   3.422 -0.3380  0.3687  1.1451
 5525TIP3    H238067   2.023   3.683   3.399  0.7525  0.2056 -1.7304
 5526TIP3   OH238068   0.684   3.884  14.406  0.0018  0.9809 -0.3891
 5526TIP3    H138069   0.640   3.866  14.489  0.2245 -0.0433 -0.4815
 5526TIP3    H238070   0.616   3.917  14.349 -0.3821  0.6371 -0.1352
 5527TIP3   OH238071   3.922   1.067  15.808  0.7009 -0.2200 -0.0607
 5527TIP3    H138072   3.974   1.109  15.739  1.0476  0.2323  0.4634
 5527TIP3    H238073   3.864   1.136  15.839  0.0369 -0.6229 -0.3866
 5528TIP3   OH238074   5.498   2.610  17.059  0.0252  0.5186  0.0496
 5528TIP3    H138075   5.566   2.558  17.016  0.0401 -0.1392  0.8400
 5528TIP3    H238076   5.423   2.606  16.999  0.3768  0.4709 -0.3911
 5529TIP3   OH238077   2.846   5.655  11.683 -0.3981  0.1583 -0.7087
 5529TIP3    H138078   2.912   5.614  11.627  0.9496 -0.6107  1.3126
 5529TIP3    H238079   2.781   5.587  11.698  0.8063 -0.6779  1.0260
 5530TIP3   OH238080   4.856   2.605   0.346  0.2094 -0.1958  0.1110
 5530TIP3    H138081   4.806   2.525   0.362  0.1295 -0.3638 -0.9046
 5530TIP3    H238082   4.859   2.613   0.251  3.0457 -0.7687  0.0694
 5531TIP3   OH238083   6.658   1.176  10.812 -0.6119  0.6649 -0.0952
 5531TIP3    H138084   6.651   1.225  10.730 -0.6771  0.4925 -0.1914
 5531TIP3    H238085   6.701   1.094  10.788  3.1877  2.1826  0.6327
 5532TIP3   OH238086   5.535   6.688   0.050 -0.3596  0.3749  0.7059
 5532TIP3    H138087   5.607   6.679   0.113 -0.1233 -0.4231  0.3368
 5532TIP3    H238088   5.553   6.622  -0.016 -0.2229  1.6719 -0.6020
 5533TIP3   OH238089   6.134   1.576  12.589  0.1452  0.1774  0.2784
 5533TIP3    H138090   6.223   1.609  12.576 -0.0214  0.1115 -1.2685
 5533TIP3    H238091   6.101   1.560  12.500 -0.8162 -1.3813  0.8586
 5534TIP3   OH238092   2.239   4.208  11.378 -0.2041  0.3721 -0.0849
 5534TIP3    H138093   2.289   4.273  11.429 -0.0036  1.6582 -1.8328
 5534TIP3    H238094   2.157   4.251  11.358 -0.4846 -0.3129 -0.4319
 5535TIP3   OH238095   3.977   1.911  11.067 -0.1585  0.0967  0.0937
 5535TIP3    H138096   3.890   1.942  11.043  0.2049  1.3475  0.3138
 5535TIP3    H238097   3.989   1.940  11.158  1.5379  2.4891 -0.7880
 5536TIP3   OH238098   4.445   4.883  13.717 -0.2169  0.5631  0.2146
 5536TIP3    H138099   4.505   4.935  13.663 -0.9060  0.7918 -0.3512
 5536TIP3    H238100   4.408   4.946  13.780 -0.0042  0.4614  0.4432
 5537TIP3   OH238101   6.044   6.748   1.318 -0.3371 -0.2626 -0.2522
 5537TIP3    H138102   6.112   6.769   1.382 -0.0084 -0.6343 -0.4751
 5537TIP3    H238103   5.966   6.733   1.370 -0.8445  2.4120 -0.1101
 5538TIP3   OH238104   0.776   2.216  15.601 -0.2309 -0.1013  0.6665
 5538TIP3    H138105   0.700   2.233  15.657  0.1854  0.6837  1.0147
 5538TIP3    H238106   0.843   2.275  15.634  1.1409 -2.0420  1.5598
 5539TIP3   OH238107   5.953   5.687  12.784  0.0031  0.4113 -0.3017
 5539TIP3    H138108   6.037   5.709  12.823  0.4072  0.9878 -1.4352
 5539TIP3    H238109   5.893   5.680  12.858  0.8432  0.9504  0.4484
 5540TIP3   OH238110   6.624   0.918   5.563 -0.0976  0.3069 -0.1829
 5540TIP3    H138111   6.703   0.866   5.576 -0.5816 -0.2005  0.8974
 5540TIP3    H238112   6.552   0.857   5.580 -0.7146  0.8778 -0.6853
 5541TIP3   OH238113   2.982   1.591   5.095 -0.0159 -0.2041  0.4399
 5541TIP3    H138114   3.017   1.519   5.147 -0.0261 -0.6578 -0.1755
 5541TIP3    H238115   2.947   1.550   5.016 -1.0697  0.3425  0.6033
 5542TIP3   OH238116   3.045   5.213   5.963 -0.3268 -0.6043 -0.5904
 5542TIP3    H138117   3.055   5.205   6.058  1.5353 -1.9663 -0.8580
 5542TIP3    H238118   2.991   5.138   5.938 -0.2734 -0.6150 -0.6751
 5543TIP3   OH238119   1.468   5.915  17.035  0.2991 -0.0784 -0.2764
 5543TIP3    H138120   1.455   5.981  17.103 -2.8084  0.3446 -1.1128
 5543TIP3    H238121   1.380   5.883  17.016  1.2883 -1.6724 -2.6798
 5544TIP3   OH238122   4.660   3.450  15.413 -0.5807 -0.1163 -0.8455
 5544TIP3    H138123   4.614   3.531  15.392 -0.7681 -0.0151 -0.0802
 5544TIP3    H238124   4.592   3.382  15.411 -0.6464 -0.0685 -0.3532
 5545TIP3   OH238125   3.808   3.579   3.631 -0.3460 -0.0554 -0.2468
 5545TIP3    H138126   3.714   3.588   3.643 -0.3571 -0.8478  0.3663
 5545TIP3    H238127   3.819   3.490   3.597  0.2421 -0.3348  0.6343
 5546TIP3   OH238128   5.128   0.931   3.882  0.2418 -1.1043 -0.7126
 5546TIP3    H138129   5.163   1.017   3.908 -0.6060 -0.9590  0.0198
 5546TIP3    H238130   5.205   0.877   3.869  0.7795 -0.7715  0.7841
 5547TIP3   OH238131   3.420   2.805  13.008  0.2738  0.1226 -0.2148
 5547TIP3    H138132   3.421   2.717  13.044  1.2308  0.2349  0.0435
 5547TIP3    H238133   3.508   2.819  12.974  0.3672  1.2514  0.4312
 5548TIP3   OH238134   0.258   4.631   3.048 -0.1010  0.2578  0.5363
 5548TIP3    H138135   0.308   4.561   3.090 -0.1580  0.2703  0.6238
 5548TIP3    H238136   0.202   4.666   3.117 -0.9734 -0.4305  0.2052
 5549TIP3   OH238137   4.594   5.611   0.081  0.2933  0.6402 -0.2947
 5549TIP3    H138138   4.648   5.672   0.132  0.5170  0.9675 -0.9068
 5549TIP3    H238139   4.657   5.551   0.041  0.4114  1.9964 -2.3228
 5550TIP3   OH238140   0.518   1.010   0.968 -0.2873  0.2431 -0.0774
 5550TIP3    H138141   0.509   0.969   0.882 -1.9914 -1.3058  0.7640
 5550TIP3    H238142   0.591   1.071   0.958 -0.0847 -0.2855 -2.4543
 5551TIP3   OH238143   6.684   1.568   3.097 -0.3757 -0.2550 -0.6730
 5551TIP3    H138144   6.620   1.545   3.030 -0.4490 -0.3581 -0.5672
 5551TIP3    H238145   6.763   1.592   3.047 -1.3017  2.5485 -0.9415
 5552TIP3   OH238146   2.374   0.939   1.138  0.7702  0.3063  0.0248
 5552TIP3    H138147   2.336   0.987   1.211  0.4007  0.5600 -0.3288
 5552TIP3    H238148   2.299   0.913   1.084  0.9456 -0.8035  0.2825
 5553TIP3   OH238149   3.018   4.780  10.897 -0.0534  0.0114 -0.2513
 5553TIP3    H138150   2.970   4.785  10.815  1.6070  2.9107 -1.1848
 5553TIP3    H238151   3.026   4.871  10.927  3.2122 -0.4504  0.7369
 5554TIP3   OH238152   4.315   3.274   1.020  0.3437  0.3033 -0.2220
 5554TIP3    H138153   4.266   3.196   0.995  1.8872 -0.4079 -1.1656
 5554TIP3    H238154   4.282   3.342   0.962 -1.0350  0.3982  0.6264
 5555TIP3   OH238155   1.687   6.209   1.624 -0.4858 -0.2210  0.2864
 5555TIP3    H138156   1.639   6.127   1.623  0.7972 -1.0628 -2.4343
 5555TIP3    H238157   1.641   6.265   1.562  0.4907 -0.0766 -0.3227
 5556TIP3   OH238158   2.709   1.262  14.634 -0.4096 -0.4305  0.9012
 5556TIP3    H138159   2.799   1.230  14.634 -0.3220 -0.1921  0.4698
 5556TIP3    H238160   2.667   1.217  14.561 -0.6025 -0.4393  1.0165
 5557TIP3   OH238161   5.312   4.532   2.418  0.0731  0.5843  0.4903
 5557TIP3    H138162   5.232   4.582   2.409  0.8355  1.6383 -0.7474
 5557TIP3    H238163   5.283   4.442   2.431 -1.2972  1.0547  0.8145
 5558TIP3   OH238164   1.864   5.021   3.776  0.5325  0.0673 -0.3025
 5558TIP3    H138165   1.882   4.951   3.713  1.3872  1.0132 -1.1414
 5558TIP3    H238166   1.773   5.045   3.760  0.2180 -0.8481  0.0174
 5559TIP3   OH238167   2.521   2.195   2.708 -0.1787 -0.7340  0.1575
 5559TIP3    H138168   2.598   2.161   2.754 -1.9490 -2.6214  1.8860
 5559TIP3    H238169   2.556   2.264   2.651  2.5132 -0.2135  2.2420
 5560TIP3   OH238170   1.464   3.444   4.548 -0.1259 -0.0869  0.3415
 5560TIP3    H138171   1.509   3.382   4.606 -0.6286  0.0812  0.9283
 5560TIP3    H238172   1.386   3.470   4.597 -2.1908 -2.1695 -1.5742
 5561TIP3   OH238173   4.367   6.563  11.303 -0.3396 -0.1939  0.1090
 5561TIP3    H138174   4.280   6.555  11.342 -1.1376  3.4959 -0.5968
 5561TIP3    H238175   4.416   6.617  11.365  1.2006 -1.4414  0.0351
 5562TIP3   OH238176   2.180   2.931   2.159  0.0546 -0.1442  0.3089
 5562TIP3    H138177   2.186   2.836   2.170  0.3813 -0.2826 -0.9092
 5562TIP3    H238178   2.271   2.962   2.167 -0.1581  0.1912  1.6211
 5563TIP3   OH238179   2.085   1.189  13.702 -0.0725  0.1657 -0.1839
 5563TIP3    H138180   2.014   1.168  13.763  1.0509 -1.9381  0.5159
 5563TIP3    H238181   2.108   1.105  13.662  1.4633  0.9264 -1.0142
 5564TIP3   OH238182   4.247   1.705  16.616 -0.7166  0.0078 -0.1517
 5564TIP3    H138183   4.257   1.654  16.697 -0.7811  0.7565  0.3402
 5564TIP3    H238184   4.247   1.640  16.546 -0.7127 -0.6570  0.4582
 5565TIP3   OH238185   4.822   0.852  15.204  0.1606 -0.5937 -0.0874
 5565TIP3    H138186   4.734   0.872  15.237 -0.5009 -0.7447 -1.6500
 5565TIP3    H238187   4.875   0.838  15.283  0.0664  4.3472  1.1761
 5566TIP3   OH238188   5.537   5.517   4.545  0.8207 -0.4382  0.2827
 5566TIP3    H138189   5.503   5.463   4.617 -0.4661  0.3687  0.3060
 5566TIP3    H238190   5.555   5.454   4.475 -2.1826 -0.8432 -0.2897
 5567TIP3   OH238191   2.402   1.627   1.435 -0.2500  0.8053 -0.0088
 5567TIP3    H138192   2.466   1.556   1.437 -0.1458  0.9050  1.2723
 5567TIP3    H238193   2.361   1.624   1.521 -2.7782  0.0625 -1.1636
 5568TIP3   OH238194   3.541   3.885   4.797 -0.1716 -0.0079 -0.5666
 5568TIP3    H138195   3.629   3.910   4.825  0.4012 -0.4027 -1.9327
 5568TIP3    H238196   3.512   3.822   4.862  0.5552  0.1300 -0.0984
 5569TIP3   OH238197   4.114   1.438  14.640 -1.0430 -0.1608 -0.1688
 5569TIP3    H138198   4.067   1.427  14.557  0.6381  0.7315 -1.3014
 5569TIP3    H238199   4.189   1.492  14.618 -0.0541 -0.6401  1.7827
 5570TIP3   OH238200   2.906   1.208   5.258  0.4064  0.1265  0.6163
 5570TIP3    H138201   2.998   1.181   5.258 -0.0433 -1.4950  1.4542
 5570TIP3    H238202   2.880   1.204   5.166  0.8709 -0.5594  0.5060
 5571TIP3   OH238203   6.748   2.122   2.020 -0.1921 -0.5082  0.2890
 5571TIP3    H138204   6.709   2.151   2.102  1.5817  0.6674  0.7638
 5571TIP3    H238205   6.734   2.194   1.960  0.6954 -0.3216  0.2950
 5572TIP3   OH238206   4.365   0.169   0.999  0.3751 -0.5341  0.3188
 5572TIP3    H138207   4.436   0.162   0.935 -0.0257  0.7953 -0.3102
 5572TIP3    H238208   4.406   0.148   1.083  1.8680  1.4898  0.1762
 5573TIP3   OH238209   3.244   5.293   4.104  0.0394 -0.0024  0.0872
 5573TIP3    H138210   3.276   5.375   4.143  1.0542  0.0938 -0.8858
 5573TIP3    H238211   3.306   5.227   4.135 -0.6826 -0.3899  0.7340
 5574TIP3   OH238212   0.480   0.332  11.407  0.6121 -0.1411 -0.2760
 5574TIP3    H138213   0.515   0.421  11.408  1.3652 -0.4152 -1.0664
 5574TIP3    H238214   0.558   0.276  11.399  0.2640 -0.9431  1.4380
 5575TIP3   OH238215   1.770   4.575  14.260  0.1504 -0.5199 -0.5816
 5575TIP3    H138216   1.830   4.649  14.268 -0.1476  0.0065 -2.5723
 5575TIP3    H238217   1.690   4.605  14.303  0.0536  0.3210 -1.3094
 5576TIP3   OH238218   4.707   0.496  11.520 -0.0982  0.2481 -0.0375
 5576TIP3    H138219   4.739   0.466  11.605  2.1178 -1.6305 -1.4132
 5576TIP3    H238220   4.715   0.419  11.463  0.2773  1.9197 -2.3860
 5577TIP3   OH238221   3.107   3.794   1.688 -0.3236  0.3404  0.6710
 5577TIP3    H138222   3.119   3.748   1.605  0.0359  0.1980  0.8029
 5577TIP3    H238223   3.188   3.843   1.701 -1.3810  2.5472 -0.4052
 5578TIP3   OH238224   6.246   0.612  13.139  0.3090 -0.2388 -0.2261
 5578TIP3    H138225   6.328   0.652  13.169  1.0222 -1.9078  0.1386
 5578TIP3    H238226   6.273   0.540  13.083 -0.8668 -1.2596  0.4541
 5579TIP3   OH238227   1.460   3.528  12.869 -0.1889  0.1179 -0.7731
 5579TIP3    H138228   1.373   3.556  12.901  0.6614  0.4262  1.4487
 5579TIP3    H238229   1.480   3.450  12.921  1.2597  0.6110 -0.5646
 5580TIP3   OH238230   6.385   5.643  15.824  0.0807 -0.0282 -0.0165
 5580TIP3    H138231   6.416   5.595  15.748  1.2502 -0.8913  0.9595
 5580TIP3    H238232   6.452   5.629  15.891 -1.5071 -0.4142  1.6037
 5581TIP3   OH238233   4.748   2.970  16.661 -0.2457 -0.2983 -0.2228
 5581TIP3    H138234   4.656   2.958  16.637  0.2716 -0.2789 -2.4790
 5581TIP3    H238235   4.794   2.902  16.611  0.9723 -0.2355  0.7911
 5582TIP3   OH238236   2.614   3.591   3.802  0.1256 -0.1453  0.1589
 5582TIP3    H138237   2.586   3.629   3.885 -2.0296 -2.3881  0.5673
 5582TIP3    H238238   2.551   3.623   3.738  1.3144  0.9453 -0.5099
 5583TIP3   OH238239   4.449   1.110   1.454 -0.2584 -0.5064  0.2919
 5583TIP3    H138240   4.439   1.051   1.380 -0.7111  0.7003 -0.6522
 5583TIP3    H238241   4.369   1.163   1.454  1.3037  2.0772 -0.7415
 5584TIP3   OH238242   1.684   0.007   5.074 -0.0560 -0.1281  0.0244
 5584TIP3    H138243   1.716   0.001   5.163 -3.0156 -1.8014  1.1314
 5584TIP3    H238244   1.627   0.084   5.074  0.5320  0.3219 -0.6710
 5585TIP3   OH238245   1.644   2.141  14.848 -0.2030  0.0830 -0.3998
 5585TIP3    H138246   1.644   2.140  14.752  0.8854 -0.6741 -0.4049
 5585TIP3    H238247   1.705   2.072  14.873  0.2259  0.8724  0.8324
 5586TIP3   OH238248   2.097   4.295   1.567 -0.0516  0.0086 -0.2438
 5586TIP3    H138249   2.122   4.338   1.649  1.4738 -1.4726  0.1218
 5586TIP3    H238250   2.014   4.335   1.543  0.8771  2.5627  0.4860
 5587TIP3   OH238251   2.533   5.693   6.078 -0.3956  0.7719  0.6727
 5587TIP3    H138252   2.597   5.761   6.059  0.2342  0.1105  0.4038
 5587TIP3    H238253   2.550   5.669   6.169 -0.5095  0.8547  0.7165
 5588TIP3   OH238254   6.674   3.923   0.251 -0.3860 -0.0194 -0.4175
 5588TIP3    H138255   6.600   3.965   0.207  0.3146 -0.4542 -2.0564
 5588TIP3    H238256   6.743   3.989   0.251 -0.6608  0.2965  0.8830
 5589TIP3   OH238257   4.525   2.980   4.866  0.3802 -0.4398  0.0193
 5589TIP3    H138258   4.617   2.953   4.879 -0.1751 -1.4109  2.4034
 5589TIP3    H238259   4.475   2.899   4.880 -0.8744  0.1187 -1.0907
 5590TIP3   OH238260   2.540   4.010   5.329  0.1810  0.3551  0.0251
 5590TIP3    H138261   2.576   4.000   5.417 -0.8332 -0.1326  0.4019
 5590TIP3    H238262   2.463   3.953   5.328 -1.3152  2.3115 -0.3380
 5591TIP3   OH238263   6.607   4.257   3.473 -0.0201  0.2628  0.1477
 5591TIP3    H138264   6.662   4.322   3.430  1.8114 -0.6306  1.0230
 5591TIP3    H238265   6.667   4.209   3.530 -1.6251 -1.1365  0.7378
 5592TIP3   OH238266   2.032   1.300  16.170 -0.1256 -0.1811  0.3073
 5592TIP3    H138267   2.038   1.343  16.255 -1.8667  1.1481 -0.1806
 5592TIP3    H238268   2.091   1.349  16.113 -0.4234  0.1582  0.2901
 5593TIP3   OH238269   1.189   5.937   4.276  0.2324 -0.1654 -0.1633
 5593TIP3    H138270   1.170   5.848   4.307 -0.2709 -0.8442 -2.2409
 5593TIP3    H238271   1.103   5.979   4.268  0.3829  0.1453 -0.1610
 5594TIP3   OH238272   1.802   1.165   1.311  0.0410  0.3527  0.0308
 5594TIP3    H138273   1.787   1.164   1.216 -1.4680  0.8232  0.2525
 5594TIP3    H238274   1.886   1.209   1.321 -0.1701  1.0394 -1.0447
 5595TIP3   OH238275   5.391   3.857  10.955  0.0216  0.8132  0.2207
 5595TIP3    H138276   5.409   3.764  10.963 -0.3683  0.9097  3.5986
 5595TIP3    H238277   5.469   3.893  10.913  1.0176 -0.7789  0.6316
 5596TIP3   OH238278   5.650   2.451  14.747 -0.1185  0.1888 -0.4046
 5596TIP3    H138279   5.703   2.450  14.667  0.9513 -0.4895  0.2929
 5596TIP3    H238280   5.570   2.404  14.722  0.5506 -0.7379 -0.8633
 5597TIP3   OH238281   3.244   5.966   0.725 -1.0576 -0.2244  0.0836
 5597TIP3    H138282   3.334   5.935   0.721 -1.6664 -2.3877  1.1858
 5597TIP3    H238283   3.191   5.892   0.695 -2.4792  1.1132 -0.8955
 5598TIP3   OH238284   0.792   1.015   2.859 -0.6719 -0.0353 -0.1188
 5598TIP3    H138285   0.704   0.976   2.864 -0.7561  0.0813 -0.6448
 5598TIP3    H238286   0.835   0.987   2.939 -0.3296 -2.2332 -0.9936
 5599TIP3   OH238287   3.896   4.342  15.087  0.3052 -0.0215 -0.2465
 5599TIP3    H138288   3.866   4.376  15.003  0.4037 -0.1833 -0.3474
 5599TIP3    H238289   3.817   4.308  15.129 -0.1249  1.8884  0.6097
 5600TIP3   OH238290   5.729   0.564  12.461 -0.7844 -0.2000  0.2549
 5600TIP3    H138291   5.750   0.505  12.389 -1.6206 -0.8161  0.4938
 5600TIP3    H238292   5.794   0.634  12.455 -1.6073  0.4963 -1.9238
 5601TIP3   OH238293   2.620   4.043  15.262  0.5769  0.0646 -0.3118
 5601TIP3    H138294   2.613   4.136  15.282  1.6200  0.4209 -1.5199
 5601TIP3    H238295   2.698   4.036  15.208  1.3412 -1.7122  0.9304
 5602TIP3   OH238296   0.606   3.460   0.505 -0.1418  0.2795 -0.4162
 5602TIP3    H138297   0.621   3.372   0.472 -0.8919 -0.0599  0.1032
 5602TIP3    H238298   0.561   3.505   0.433  0.6861  0.4004 -0.8676
 5603TIP3   OH238299   0.253   2.410  11.783 -0.2354  0.0374  0.1726
 5603TIP3    H138300   0.274   2.485  11.840 -0.3420  1.0585 -1.0923
 5603TIP3    H238301   0.337   2.368  11.766  0.2640  1.5690 -1.3958
 5604TIP3   OH238302   3.347   6.559   6.456 -0.1131 -0.3419 -0.4122
 5604TIP3    H138303   3.340   6.479   6.404  1.4107 -1.7354  1.4151
 5604TIP3    H238304   3.438   6.562   6.484  0.0202  2.3724 -0.8527
 5605TIP3   OH238305   6.185   5.913   0.833  0.7735  0.7183 -0.1301
 5605TIP3    H138306   6.243   5.904   0.757  0.9716 -0.2685  0.1311
 5605TIP3    H238307   6.240   5.892   0.908 -0.1007 -1.0337  0.0603
 5606TIP3   OH238308   2.214   3.838  13.405  1.1349 -0.0844  0.3457
 5606TIP3    H138309   2.221   3.919  13.456  3.1304 -0.2423  0.3815
 5606TIP3    H238310   2.204   3.867  13.314  1.6698  0.2066  0.3798
 5607TIP3   OH238311   2.871   5.160  13.257 -0.1883 -0.4228  0.1030
 5607TIP3    H138312   2.813   5.161  13.333  0.5115 -0.7311  0.6436
 5607TIP3    H238313   2.825   5.105  13.193 -0.9048  0.0573  0.1897
 5608TIP3   OH238314   0.222   0.565   4.196 -0.1589 -0.0466 -0.2433
 5608TIP3    H138315   0.191   0.477   4.176 -1.1607  0.1942  0.2101
 5608TIP3    H238316   0.175   0.622   4.135  0.3918  0.1969 -0.4516
 5609TIP3   OH238317   5.169   4.865  11.626  0.4079  0.0391 -0.2727
 5609TIP3    H138318   5.078   4.874  11.597  0.4998 -0.0301 -0.5840
 5609TIP3    H238319   5.175   4.776  11.659  0.3036  0.1181 -0.0376
 5610TIP3   OH238320   5.276   0.338  11.416 -0.3750  0.1895  0.0620
 5610TIP3    H138321   5.275   0.290  11.498 -0.3523  0.3844  0.1763
 5610TIP3    H238322   5.216   0.412  11.430  0.0175  0.5067  0.0773
 5611TIP3   OH238323   5.261   6.260   0.392  0.5410  0.0370  0.0166
 5611TIP3    H138324   5.235   6.285   0.480  0.6550  2.0319 -0.4767
 5611TIP3    H238325   5.182   6.219   0.354 -0.6917  2.3947 -0.1224
 5612TIP3   OH238326   0.447   2.171   5.622 -0.3920  0.1768  1.2871
 5612TIP3    H138327   0.378   2.206   5.679  0.1605  3.3306  0.2258
 5612TIP3    H238328   0.518   2.234   5.631  0.7382 -0.7278 -0.8279
 5613TIP3   OH238329   5.929   0.646  10.993  0.3425 -0.1742 -0.2692
 5613TIP3    H138330   6.004   0.685  11.037  1.9773 -1.1074 -2.0919
 5613TIP3    H238331   5.876   0.721  10.965  1.1478  0.5436  0.0961
 5614TIP3   OH238332   1.181   1.825  11.624 -0.3830 -0.0823  0.4879
 5614TIP3    H138333   1.145   1.760  11.685 -1.3754  0.5910  0.6617
 5614TIP3    H238334   1.189   1.905  11.677 -0.4010  0.2721 -0.0409
 5615TIP3   OH238335   1.485   4.130   5.578  0.5736 -1.0195  0.1010
 5615TIP3    H138336   1.483   4.151   5.485  1.6776 -0.3936  0.2045
 5615TIP3    H238337   1.541   4.197   5.617 -0.9162 -0.4807  1.4378
 5616TIP3   OH238338   5.983   4.087  12.678  0.5116 -0.2199  0.2070
 5616TIP3    H138339   5.903   4.130  12.647  0.7747  0.1765  0.0601
 5616TIP3    H238340   5.955   4.000  12.706 -0.1717  0.3323  1.2750
 5617TIP3   OH238341   2.958   2.745   3.049  0.1269 -0.2540  0.0134
 5617TIP3    H138342   2.951   2.707   2.961  0.1249 -1.5000  0.5234
 5617TIP3    H238343   2.972   2.838   3.034  0.2252 -0.4578 -1.3120
 5618TIP3   OH238344   5.504   1.954  16.622 -0.0103 -0.5132 -0.0096
 5618TIP3    H138345   5.466   1.926  16.706  2.2387 -1.3124  0.8132
 5618TIP3    H238346   5.562   1.883  16.597 -1.3980 -0.7554 -2.8416
 5619TIP3   OH238347   2.975   1.567  17.275  0.4099  0.4707 -0.5950
 5619TIP3    H138348   2.919   1.556  17.199 -0.6945  1.5839  0.0142
 5619TIP3    H238349   2.984   1.662  17.284  1.8484  0.3195 -0.2781
 5620TIP3   OH238350   0.663   1.681  17.027  0.0802 -0.6868 -0.3636
 5620TIP3    H138351   0.633   1.727  17.106  0.6827  0.1442 -0.6023
 5620TIP3    H238352   0.699   1.599  17.059  0.3888 -0.3220  0.2437
 5621TIP3   OH238353   1.987   0.881   2.120 -0.6599 -0.4918 -0.4343
 5621TIP3    H138354   1.919   0.912   2.181  0.2844 -1.8624  1.4017
 5621TIP3    H238355   2.017   0.960   2.076  0.7497  1.1671  3.1180
 5622TIP3   OH238356   2.950   3.284   5.295 -0.1197 -0.0270 -0.3217
 5622TIP3    H138357   2.923   3.208   5.244 -0.1209 -0.1191 -0.1865
 5622TIP3    H238358   3.036   3.260   5.330  1.0265  0.9947 -2.2788
 5623TIP3   OH238359   0.738   3.414  11.453 -0.1570 -0.1034 -0.1215
 5623TIP3    H138360   0.685   3.338  11.430 -2.9881  1.2334  1.5049
 5623TIP3    H238361   0.770   3.447  11.370 -2.6555 -0.4979 -1.3270
 5624TIP3   OH238362   4.872   5.036  16.254 -0.2275  0.0901 -0.5787
 5624TIP3    H138363   4.831   5.063  16.172 -0.5802  0.6205 -0.2370
 5624TIP3    H238364   4.801   4.995  16.303 -0.8367  2.4607  0.6967
 5625TIP3   OH238365   4.293   5.899   5.297  0.1472 -0.1621 -0.3135
 5625TIP3    H138366   4.265   5.810   5.277  1.4118 -0.0970 -2.8113
 5625TIP3    H238367   4.304   5.900   5.392  1.6617 -3.1776 -0.3405
 5626TIP3   OH238368   0.831   1.100   0.411 -0.0596 -0.3799  0.4389
 5626TIP3    H138369   0.771   1.091   0.485 -1.3388 -1.7046 -0.6988
 5626TIP3    H238370   0.873   1.184   0.425 -0.3289 -0.5400  2.6147
 5627TIP3   OH238371   5.167   3.078  13.740 -0.0228  0.0506  0.3747
 5627TIP3    H138372   5.250   3.032  13.741  0.3083  0.6361  0.0884
 5627TIP3    H238373   5.170   3.135  13.817  0.1357  0.5762 -0.0130
 5628TIP3   OH238374   3.516   5.739   4.234 -0.4410  0.0592  0.4588
 5628TIP3    H138375   3.578   5.741   4.162  0.8078 -0.0693  1.5053
 5628TIP3    H238376   3.557   5.684   4.301 -1.7486 -0.1674  1.1169
 5629TIP3   OH238377   0.704   6.306   2.109 -0.0186 -0.0592 -0.4028
 5629TIP3    H138378   0.662   6.387   2.081 -0.0046  0.7288  1.6589
 5629TIP3    H238379   0.798   6.323   2.103  0.0034  0.6369  1.3523
 5630TIP3   OH238380   3.986   5.965  13.199 -0.5795 -0.1579  0.6445
 5630TIP3    H138381   3.893   5.970  13.218 -0.5249  0.9871  0.6942
 5630TIP3    H238382   4.001   5.874  13.174 -1.7796 -0.2624  0.2515
 5631TIP3   OH238383   0.861   1.119  12.021  0.4252  0.4756 -0.7060
 5631TIP3    H138384   0.776   1.077  12.010 -0.3601  1.7875  0.0528
 5631TIP3    H238385   0.841   1.212  12.029  1.8236  0.7168  0.5562
 5632TIP3   OH238386   0.775   4.224  15.944 -0.4109  0.3484 -0.0572
 5632TIP3    H138387   0.792   4.131  15.958 -1.3672 -0.0912 -1.5473
 5632TIP3    H238388   0.857   4.268  15.965 -0.0166 -0.8063  0.8788
 5633TIP3   OH238389   2.629   3.845   5.828 -1.0725  0.0047 -0.0614
 5633TIP3    H138390   2.655   3.753   5.822 -0.5118  0.1572 -0.0432
 5633TIP3    H238391   2.550   3.844   5.881  0.1856 -0.2581  1.9188
 5634TIP3   OH238392   5.808   0.015  16.301 -0.1862  0.2017 -0.5122
 5634TIP3    H138393   5.796  -0.052  16.368 -0.9469  0.3193 -0.5180
 5634TIP3    H238394   5.809   0.098  16.349  0.0800  0.2322 -0.5689
 5635TIP3   OH238395   2.508   4.080  11.255 -0.3416 -0.2806 -0.7741
 5635TIP3    H138396   2.469   4.166  11.239 -1.2685 -0.4298  0.5391
 5635TIP3    H238397   2.596   4.100  11.286  0.2905  0.0946 -2.6776
 5636TIP3   OH238398   3.948   6.567   5.172  0.1608 -0.0991  0.0584
 5636TIP3    H138399   3.898   6.591   5.094 -0.2184  0.2156  0.3900
 5636TIP3    H238400   3.956   6.472   5.167 -0.3366 -0.1381 -0.0865
 5637TIP3   OH238401   6.345   3.986   1.356  0.4787 -0.0243 -0.1257
 5637TIP3    H138402   6.438   3.974   1.375  0.4011 -3.0513 -1.0715
 5637TIP3    H238403   6.300   3.940   1.427 -0.2101 -0.2456 -0.6911
 5638TIP3   OH238404   3.470   1.360   0.612 -0.3528  0.3573  0.2835
 5638TIP3    H138405   3.388   1.366   0.563 -0.4028 -0.5587  0.2335
 5638TIP3    H238406   3.538   1.359   0.545 -0.4781 -2.2055  0.0824
 5639TIP3   OH238407   3.732   4.148   4.432  0.2368  1.1564  0.1972
 5639TIP3    H138408   3.674   4.196   4.491 -0.0827  0.9340  0.0672
 5639TIP3    H238409   3.806   4.207   4.419  1.0771  0.5866  2.0509
 5640TIP3   OH238410   0.407   2.837  13.998 -0.0559 -0.2961 -0.8116
 5640TIP3    H138411   0.463   2.830  14.075  2.4975  0.0147 -2.5437
 5640TIP3    H238412   0.395   2.931  13.985 -2.1182 -0.3410  0.2180
 5641TIP3   OH238413   5.099   2.182  15.860  0.1317 -0.0207 -0.3562
 5641TIP3    H138414   5.174   2.216  15.909  0.1983  0.1841 -0.5940
 5641TIP3    H238415   5.121   2.090  15.843  0.0909 -0.1007  0.0266
 5642TIP3   OH238416   6.298   5.025  16.172  0.2650  0.0377  0.3305
 5642TIP3    H138417   6.314   5.028  16.267  2.3466  0.6039  0.0121
 5642TIP3    H238418   6.226   4.962  16.162  0.7001 -0.8339  2.2053
 5643TIP3   OH238419   3.944   2.609   3.963 -0.0263 -0.8688  0.1112
 5643TIP3    H138420   3.892   2.533   3.937  0.7455 -1.3290 -0.1218
 5643TIP3    H238421   3.939   2.669   3.889 -0.9785 -0.4971  0.4596
 5644TIP3   OH238422   6.021   2.636  12.132 -0.3747 -0.7326 -0.7594
 5644TIP3    H138423   6.014   2.596  12.219 -0.7884 -0.4193 -0.6452
 5644TIP3    H238424   6.070   2.717  12.148  1.2920 -1.6098 -1.1330
 5645TIP3   OH238425   6.594   5.069  13.979 -0.0546  0.2630  0.4628
 5645TIP3    H138426   6.547   5.082  13.897  0.1102  0.7726  0.4451
 5645TIP3    H238427   6.668   5.013  13.955  0.0197  0.4501  0.2536
 5646TIP3   OH238428   5.216   1.621  12.854 -0.5628 -0.2156 -0.9290
 5646TIP3    H138429   5.285   1.650  12.795 -0.0845 -0.6704 -0.6067
 5646TIP3    H238430   5.184   1.539  12.815  0.4779 -1.0900 -0.0394
 5647TIP3   OH238431   3.994   3.505  16.577 -0.3600 -0.0615 -0.3985
 5647TIP3    H138432   3.903   3.493  16.552 -0.8698  1.5147  0.5452
 5647TIP3    H238433   4.001   3.598  16.598  1.3683 -0.2340 -0.0542
 5648TIP3   OH238434   5.145   4.379   4.643  0.6151  0.1754  0.1424
 5648TIP3    H138435   5.055   4.387   4.613  0.8614  1.1065 -0.3921
 5648TIP3    H238436   5.150   4.436   4.720  1.1286  1.3632 -0.7469
 5649TIP3   OH238437   2.538   3.760  14.838  0.3851  0.3238  0.4740
 5649TIP3    H138438   2.454   3.803  14.853 -0.3154 -0.6016 -0.6499
 5649TIP3    H238439   2.526   3.671  14.874 -0.2870 -0.9041 -2.4940
 5650TIP3   OH238440   1.290   4.979  10.733  0.1165  0.5314  0.2975
 5650TIP3    H138441   1.356   5.022  10.788  1.1412  0.3948 -0.7846
 5650TIP3    H238442   1.339   4.947  10.658 -1.3697  1.4498 -1.1272
 5651TIP3   OH238443   0.922   4.753   5.874 -0.1601  0.4655  0.1467
 5651TIP3    H138444   0.885   4.834   5.840 -0.8043 -0.2285 -0.8872
 5651TIP3    H238445   0.959   4.710   5.797  0.3630 -0.1204  0.7145
 5652TIP3   OH238446   5.391   2.793  14.348 -0.6080  0.0589 -0.0184
 5652TIP3    H138447   5.484   2.776  14.366 -0.3474  0.6603 -0.7429
 5652TIP3    H238448   5.385   2.791  14.252 -1.1026  1.2162 -0.0238
 5653TIP3   OH238449   1.920   5.949   4.374 -0.0423  0.1065 -0.6117
 5653TIP3    H138450   1.926   5.868   4.325 -0.9026 -1.7759  2.1799
 5653TIP3    H238451   1.839   5.941   4.426  1.6116  1.0708  2.3997
 5654TIP3   OH238452   0.593   3.422   2.141 -0.0771  0.7195 -0.0576
 5654TIP3    H138453   0.600   3.339   2.093 -0.9704 -0.4706  1.7401
 5654TIP3    H238454   0.682   3.457   2.142  0.3070 -0.1800 -0.8960
 5655TIP3   OH238455   3.357   1.618  12.892 -0.3169  0.3804 -0.0556
 5655TIP3    H138456   3.410   1.652  12.965 -0.7435 -0.9409  0.9108
 5655TIP3    H238457   3.282   1.677  12.888  0.5852  1.5318 -0.6234
 5656TIP3   OH238458   0.168   0.961   2.505  0.5560 -0.0892  0.5712
 5656TIP3    H138459   0.256   0.982   2.474 -0.4149  0.8237 -1.8376
 5656TIP3    H238460   0.117   1.040   2.488 -0.9804 -0.9805  0.8692
 5657TIP3   OH238461   6.056   2.272   0.923 -1.0999 -0.4494 -0.5596
 5657TIP3    H138462   6.021   2.310   0.843 -0.6326  0.2921 -0.4187
 5657TIP3    H238463   6.056   2.177   0.907 -0.6600 -0.2857 -1.5799
 5658TIP3   OH238464   5.858   1.001   3.573  0.0423  0.1508  0.0157
 5658TIP3    H138465   5.911   1.047   3.509 -0.5324  1.4883  0.4724
 5658TIP3    H238466   5.907   1.009   3.655  0.1654 -0.4731  0.0098
 5659TIP3   OH238467   5.572   3.719  15.215 -0.0319  0.1399 -0.2312
 5659TIP3    H138468   5.618   3.698  15.297 -0.2284  0.9709  0.0983
 5659TIP3    H238469   5.539   3.635  15.184 -1.1699 -0.0091  1.2780
 5660TIP3   OH238470   6.089   6.283  17.102 -0.2497  0.0374 -0.5716
 5660TIP3    H138471   6.133   6.318  17.180 -2.9273  0.0385  1.1082
 5660TIP3    H238472   6.039   6.357  17.068 -1.7212 -0.7692 -0.2417
 5661TIP3   OH238473   2.334   3.443  16.670  0.0884 -0.3035 -0.5977
 5661TIP3    H138474   2.287   3.503  16.611 -0.0608  1.0872  0.8574
 5661TIP3    H238475   2.402   3.405  16.615  0.9381  2.1063 -1.3544
 5662TIP3   OH238476   6.811   4.729  16.955  0.2110  0.7797  0.7227
 5662TIP3    H138477   6.882   4.751  16.894  0.4917 -1.4372  0.1559
 5662TIP3    H238478   6.854   4.724  17.041  0.4323  0.9892  0.6258
 5663TIP3   OH238479   3.292   2.546   3.812 -0.6899  0.3277 -0.4783
 5663TIP3    H138480   3.346   2.622   3.835  0.3089 -0.0544 -1.4448
 5663TIP3    H238481   3.272   2.504   3.895  1.0002  0.1673 -0.1232
 5664TIP3   OH238482   3.978   6.499   0.617 -0.7336  0.3899  0.7635
 5664TIP3    H138483   3.963   6.481   0.710  1.5541  0.3268  1.1894
 5664TIP3    H238484   3.900   6.466   0.573 -1.4648 -0.4416  2.5814
 5665TIP3   OH238485   4.543   1.302  15.917  0.0475 -0.4707  0.1046
 5665TIP3    H138486   4.549   1.336  15.828 -0.0427 -0.1526  0.2192
 5665TIP3    H238487   4.600   1.359  15.968  2.5491 -2.4682 -0.2673
 5666TIP3   OH238488   6.423   3.269   5.518 -0.4102 -0.0982  0.1349
 5666TIP3    H138489   6.337   3.236   5.543 -1.1490  0.7077 -1.2545
 5666TIP3    H238490   6.435   3.240   5.427  0.0737  1.1791 -0.2218
 5667TIP3   OH238491   5.807   1.273  16.518 -0.0168 -0.0061  0.1257
 5667TIP3    H138492   5.847   1.186  16.526  0.0704  0.0969  0.8675
 5667TIP3    H238493   5.860   1.317  16.452 -0.0635 -0.5164 -0.2614
 5668TIP3   OH238494   6.346   1.291  11.569 -0.4939  0.0299  0.6030
 5668TIP3    H138495   6.331   1.197  11.563  0.2290 -0.0214 -1.3865
 5668TIP3    H238496   6.417   1.301  11.631  1.0788 -0.9996 -0.9322
 5669TIP3   OH238497   1.679   4.072   2.051 -0.2201  0.5479 -0.1571
 5669TIP3    H138498   1.774   4.076   2.052  0.1130 -3.0269 -1.8303
 5669TIP3    H238499   1.652   4.158   2.018  2.6017  0.7693 -2.2502
 5670TIP3   OH238500   3.838   4.477   3.861  0.0164 -0.1220  0.2454
 5670TIP3    H138501   3.762   4.419   3.850  0.1716 -0.4080  0.6610
 5670TIP3    H238502   3.878   4.448   3.943 -0.1454  0.8535  0.6753
 5671TIP3   OH238503   5.387   1.814  14.299 -0.3626  0.2134 -0.3217
 5671TIP3    H138504   5.309   1.802  14.244  0.5915 -0.5154 -1.5760
 5671TIP3    H238505   5.371   1.760  14.376 -0.9051 -0.2778 -0.7737
 5672TIP3   OH238506   6.547   5.970   2.477  0.4381  0.9528  0.6925
 5672TIP3    H138507   6.571   5.884   2.511 -0.4905  0.4580  0.1364
 5672TIP3    H238508   6.464   5.991   2.519  0.7980  1.7230  1.0489
 5673TIP3   OH238509   3.092   0.745  14.239 -0.4029 -0.0037 -0.5310
 5673TIP3    H138510   3.040   0.807  14.290  0.1805  0.3954 -0.4141
 5673TIP3    H238511   3.126   0.796  14.166  1.2630  0.1980  0.3413
 5674TIP3   OH238512   0.921   3.913  16.304  0.1638 -0.1003  0.1242
 5674TIP3    H138513   0.867   3.865  16.367  1.6042 -1.4796  0.3687
 5674TIP3    H238514   1.004   3.928  16.350  1.1578 -0.9210 -1.3274
 5675TIP3   OH238515   1.147   1.780   5.235 -0.3242  0.0027  0.2637
 5675TIP3    H138516   1.187   1.768   5.148  0.1933  0.9597  0.3484
 5675TIP3    H238517   1.145   1.875   5.247  1.5203 -0.1244  2.1477
 5676TIP3   OH238518   4.714   1.439  16.073  0.1299 -0.2586 -0.3872
 5676TIP3    H138519   4.753   1.522  16.101 -0.0602 -0.4038  0.3265
 5676TIP3    H238520   4.743   1.376  16.139  0.2104 -0.7444 -0.8848
 5677TIP3   OH238521   3.182   3.420  15.387 -0.1773  0.2155 -0.3181
 5677TIP3    H138522   3.124   3.379  15.322 -0.3973  0.2275 -0.1326
 5677TIP3    H238523   3.131   3.495  15.420 -0.2692 -0.0833  0.2288
 5678TIP3   OH238524   2.116   1.333   0.938  0.3596 -0.3936  0.0837
 5678TIP3    H138525   2.175   1.376   0.876  1.0720 -0.8216  0.4416
 5678TIP3    H238526   2.028   1.357   0.909  0.7112  0.3270 -0.4195
 5679TIP3   OH238527   1.689   2.355  16.971  0.3745 -0.2738 -0.4653
 5679TIP3    H138528   1.671   2.410  16.894  2.2862 -1.2001 -1.6478
 5679TIP3    H238529   1.757   2.402  17.019 -0.8230  0.3065  0.7261
 5680TIP3   OH238530   1.988   4.907  14.096 -0.0294 -0.2047  0.2385
 5680TIP3    H138531   2.013   4.877  14.008  1.8696 -0.1691  0.7293
 5680TIP3    H238532   1.932   4.983  14.080 -2.0917 -1.8313 -0.9536
 5681TIP3   OH238533   4.492   1.415   4.732  0.6981  0.2436  0.8893
 5681TIP3    H138534   4.456   1.484   4.788 -1.8074  0.7880 -1.1833
 5681TIP3    H238535   4.463   1.333   4.771 -1.3444  0.6304  0.3039
 5682TIP3   OH238536   6.497   4.615   1.387  0.5140  1.2082  0.1680
 5682TIP3    H138537   6.431   4.684   1.381 -0.6434  0.0622 -1.4253
 5682TIP3    H238538   6.505   4.583   1.297 -0.3134 -1.8729  1.0527
 5683TIP3   OH238539   3.252   5.757   4.197  0.5700 -0.0531 -0.0921
 5683TIP3    H138540   3.238   5.838   4.246  0.2445  0.0617 -0.3644
 5683TIP3    H238541   3.347   5.745   4.197  0.5708 -0.0796  0.5932
 5684TIP3   OH238542   4.583   1.576   3.353 -0.4556  0.1439 -0.6673
 5684TIP3    H138543   4.662   1.522   3.343  0.8794  0.6909  4.2004
 5684TIP3    H238544   4.512   1.513   3.364  0.4205 -0.6271  0.9904
 5685TIP3   OH238545   2.779   6.117   5.282 -0.1549 -0.8374  0.1325
 5685TIP3    H138546   2.704   6.115   5.222 -0.8214 -1.7399  0.9684
 5685TIP3    H238547   2.828   6.195   5.255 -3.3546  2.0984  1.9309
 5686TIP3   OH238548   4.162   4.069   6.227  0.1944 -0.7249  0.1329
 5686TIP3    H138549   4.152   4.122   6.306 -0.2158 -0.9092  0.2055
 5686TIP3    H238550   4.253   4.040   6.230  0.5719  0.3730 -0.1635
 5687TIP3   OH238551   4.654   2.664   3.185  0.1337  0.4754  0.6212
 5687TIP3    H138552   4.686   2.682   3.096 -2.2964  0.9195 -0.2303
 5687TIP3    H238553   4.729   2.625   3.230  1.0965 -0.9041 -1.9776
 5688TIP3   OH238554   5.674   5.911  14.816 -0.6683  0.6223  0.0021
 5688TIP3    H138555   5.640   5.889  14.729  1.0103 -1.9960 -0.1141
 5688TIP3    H238556   5.647   5.838  14.871  1.3562  0.4043  0.7930
 5689TIP3   OH238557   0.005   5.383  13.558  0.2029  0.0694  0.2052
 5689TIP3    H138558   0.073   5.380  13.490 -0.0857 -0.1181 -0.0810
 5689TIP3    H238559  -0.074   5.411  13.511 -0.6391 -2.5622 -0.1155
 5690TIP3   OH238560   0.116   0.621   0.042  0.2874  0.1524 -0.5008
 5690TIP3    H138561   0.039   0.563   0.039 -0.8925  1.6900 -1.0938
 5690TIP3    H238562   0.131   0.645  -0.049  1.3051  0.1220 -0.3503
 5691TIP3   OH238563   3.360   0.098   0.496  0.2036  0.2480  0.0795
 5691TIP3    H138564   3.319   0.032   0.440  0.0411  1.1674 -0.9048
 5691TIP3    H238565   3.447   0.110   0.457  0.0080  1.0521 -0.1110
 5692TIP3   OH238566   3.554   6.407   5.088 -0.5756 -0.5670 -0.1193
 5692TIP3    H138567   3.602   6.490   5.087 -0.9201 -0.3418  0.8567
 5692TIP3    H238568   3.550   6.383   5.181  0.6688 -2.3596 -0.4724
 5693TIP3   OH238569   1.637   6.502  13.474 -0.4275  0.4211 -0.5233
 5693TIP3    H138570   1.604   6.592  13.466  1.7335  1.4404  0.8760
 5693TIP3    H238571   1.681   6.501  13.559 -1.5995 -2.4170  0.1285
 5694TIP3   OH238572   2.914   1.879  15.367  0.2866 -0.6426 -0.6109
 5694TIP3    H138573   2.981   1.816  15.392  0.2521 -0.4549 -0.0117
 5694TIP3    H238574   2.843   1.865  15.431 -0.4030 -1.0865 -1.4494
 5695TIP3   OH238575   4.184   6.023  15.801 -0.4577 -0.4700 -0.5855
 5695TIP3    H138576   4.123   6.080  15.753  1.9922  0.7548 -2.4729
 5695TIP3    H238577   4.173   5.937  15.761 -0.0794  0.0304 -1.7980
 5696TIP3   OH238578   0.972   3.565   5.662 -0.4630 -0.6237 -0.4590
 5696TIP3    H138579   1.001   3.656   5.657  0.0177 -0.6553  1.0498
 5696TIP3    H238580   0.898   3.560   5.602 -1.7656  1.3073  0.8473
 5697TIP3   OH238581   5.928   5.021   0.751  0.2529 -0.0824  0.1596
 5697TIP3    H138582   6.016   5.058   0.743 -0.0780  1.1946  1.8870
 5697TIP3    H238583   5.879   5.087   0.799 -2.4364  0.5154 -3.0318
 5698TIP3   OH238584   0.952   2.712   1.074 -0.5841  0.1123 -0.2881
 5698TIP3    H138585   1.033   2.687   1.029  0.3070  0.1750  1.2332
 5698TIP3    H238586   0.975   2.714   1.167 -1.8795  1.8897  0.0471
 5699TIP3   OH238587   0.702   6.273  12.763  0.3352  0.1569 -0.0030
 5699TIP3    H138588   0.706   6.277  12.859  2.1473  1.2846 -0.0768
 5699TIP3    H238589   0.786   6.233  12.738  0.8036  1.7836 -1.1657
 5700TIP3   OH238590   0.469   4.307  12.138 -0.3835 -0.1279 -0.3052
 5700TIP3    H138591   0.446   4.386  12.089  0.0967 -0.1394 -0.5510
 5700TIP3    H238592   0.549   4.331  12.185 -0.7363 -0.1779  0.3318
 5701TIP3   OH238593   5.651   0.234   1.631 -0.5371  0.2257 -0.7631
 5701TIP3    H138594   5.577   0.278   1.589 -1.2348 -0.0075  0.1832
 5701TIP3    H238595   5.613   0.192   1.709  0.2031 -1.5574 -1.3053
 5702TIP3   OH238596   3.372   0.615   0.732 -0.3150 -0.5193 -0.3748
 5702TIP3    H138597   3.429   0.680   0.774 -0.5965  1.1298 -2.3567
 5702TIP3    H238598   3.287   0.626   0.774 -0.0619 -0.4507  0.1251
 5703TIP3   OH238599   6.057   5.574  13.504 -0.0715 -0.5478  0.3987
 5703TIP3    H138600   6.108   5.572  13.423 -0.3525  0.7148  0.1690
 5703TIP3    H238601   6.117   5.543  13.571  0.5473 -0.4423 -0.0969
 5704TIP3   OH238602   0.723   5.168  14.232 -0.1813  0.0010  0.3936
 5704TIP3    H138603   0.792   5.212  14.281  0.2986 -0.3166  0.0025
 5704TIP3    H238604   0.748   5.076  14.231  0.0798  0.0678 -0.8735
 5705TIP3   OH238605   0.029   1.426  13.991 -0.1398 -0.1481 -0.3694
 5705TIP3    H138606  -0.061   1.396  13.998  0.1786 -0.8762  0.7495
 5705TIP3    H238607   0.063   1.382  13.912 -0.8112  0.2904 -0.9074
 5706TIP3   OH238608   0.606   4.585  16.277 -0.2421 -0.3216 -0.2677
 5706TIP3    H138609   0.640   4.521  16.340 -1.4363 -2.0653 -1.3072
 5706TIP3    H238610   0.512   4.570  16.276 -0.4768  1.0431 -1.0305
 5707TIP3   OH238611   2.026   0.657   3.308 -0.2059 -0.2214  0.4072
 5707TIP3    H138612   2.112   0.632   3.341 -0.1356  0.0666  0.4461
 5707TIP3    H238613   2.042   0.738   3.258 -0.1810 -1.0326 -0.9595
 5708TIP3   OH238614   4.892   4.635  15.568  0.0121 -0.9775  0.0566
 5708TIP3    H138615   4.897   4.636  15.664  1.5724 -3.3613  0.0867
 5708TIP3    H238616   4.842   4.714  15.546  0.0386 -0.0776  2.7854
 5709TIP3   OH238617   6.335   0.870  15.774 -0.2758  0.2859 -0.1385
 5709TIP3    H138618   6.385   0.804  15.725  0.5424  2.0259 -1.7597
 5709TIP3    H238619   6.286   0.918  15.707 -1.5632  0.7887  1.0936
 5710TIP3   OH238620   2.481   6.051   5.270  0.6445  0.0792  0.1710
 5710TIP3    H138621   2.426   6.126   5.295  2.9021  1.5390  1.0851
 5710TIP3    H238622   2.494   6.062   5.176 -0.5620 -0.2901 -0.0636
 5711TIP3   OH238623   2.046   6.453   5.382  0.0079  0.0094 -0.2976
 5711TIP3    H138624   2.024   6.368   5.420 -0.5146 -0.0010 -0.6127
 5711TIP3    H238625   1.981   6.466   5.313  0.8684  0.0929 -1.1016
 5712TIP3   OH238626   5.931   4.060   2.906  0.3116 -0.1058 -0.2095
 5712TIP3    H138627   5.973   4.093   2.985  0.9460  0.5338 -0.7992
 5712TIP3    H238628   5.932   3.964   2.917  1.2651 -0.0730  0.1251
 5713TIP3   OH238629   1.065   0.614   4.156  0.2482  0.3868 -1.0352
 5713TIP3    H138630   1.135   0.560   4.193  1.6658  1.3880 -2.1274
 5713TIP3    H238631   0.991   0.554   4.146 -0.5059  0.1210  3.7755
 5714TIP3   OH238632   2.243   1.307  11.333  0.5588  0.0942 -0.6675
 5714TIP3    H138633   2.288   1.392  11.331  1.4960 -0.4009 -1.2734
 5714TIP3    H238634   2.223   1.288  11.242 -0.2023 -0.0590 -0.4714
 5715TIP3   OH238635   2.247   4.281   4.972 -0.0747 -0.2678 -0.2852
 5715TIP3    H138636   2.257   4.291   5.066  0.0570  0.4794 -0.3720
 5715TIP3    H238637   2.193   4.204   4.961 -0.3979 -0.1410  0.4145
 5716TIP3   OH238638   4.446   4.859  13.334 -0.3953  0.1859 -0.3472
 5716TIP3    H138639   4.382   4.914  13.379  0.6546 -0.0628  1.5315
 5716TIP3    H238640   4.422   4.769  13.358 -0.3446 -0.0214 -1.0358
 5717TIP3   OH238641   5.131   1.559   5.205  0.3124  0.2929  0.0535
 5717TIP3    H138642   5.187   1.634   5.227  0.7889  0.1130 -0.5036
 5717TIP3    H238643   5.114   1.516   5.288  0.7502  0.5336  0.2714
 5718TIP3   OH238644   3.909   3.440   6.740  0.0436  0.2638  0.0676
 5718TIP3    H138645   3.900   3.437   6.835 -1.4087  1.5115  0.0028
 5718TIP3    H238646   3.987   3.388   6.722  1.7768  1.9781  2.1208
 5719TIP3   OH238647   5.798   5.443  11.799 -0.8036  0.3518 -0.3555
 5719TIP3    H138648   5.873   5.471  11.853  0.1597 -0.5857 -1.1567
 5719TIP3    H238649   5.730   5.422  11.862 -0.2310  0.7849  0.4263
 5720TIP3   OH238650   0.460   4.508   0.161 -0.0252  0.1236 -0.0279
 5720TIP3    H138651   0.533   4.530   0.104 -0.7464  0.2247 -0.9465
 5720TIP3    H238652   0.389   4.566   0.133 -0.1349  0.8555  1.6181
 5721TIP3   OH238653   4.437   5.841   3.966  0.2913 -0.1098  0.0307
 5721TIP3    H138654   4.365   5.899   3.942 -0.5366 -0.6012  1.2252
 5721TIP3    H238655   4.399   5.783   4.033  2.2479  0.7612  2.0194
 5722TIP3   OH238656   0.133   2.192   0.982 -0.1241  0.2863  0.1008
 5722TIP3    H138657   0.154   2.136   0.907 -2.0024 -1.9176  1.0919
 5722TIP3    H238658   0.075   2.259   0.946  0.3128  0.2522 -0.7005
 5723TIP3   OH238659   5.089   2.933   1.276  0.0923  0.0575 -0.1221
 5723TIP3    H138660   5.010   2.907   1.324  0.3947 -0.1836  0.2448
 5723TIP3    H238661   5.153   2.866   1.296  0.5476  0.5160 -0.0269
 5724TIP3   OH238662   1.028   2.989  15.494  0.6106 -0.0262 -0.5971
 5724TIP3    H138663   1.030   3.054  15.424  0.7471 -1.0410 -1.5837
 5724TIP3    H238664   0.945   2.943  15.481  0.0712  0.5665  0.6790
 5725TIP3   OH238665   4.013   5.686  16.109 -0.4046 -0.6081 -0.1020
 5725TIP3    H138666   3.973   5.699  16.195  1.0647  2.2229  0.2615
 5725TIP3    H238667   4.078   5.618  16.123  1.1416  1.0943  1.6038
 5726TIP3   OH238668   1.107   5.311  11.528 -0.0349 -0.5253  0.1415
 5726TIP3    H138669   1.161   5.383  11.494 -0.7002  0.1983  0.5732
 5726TIP3    H238670   1.170   5.241  11.548  0.5056 -0.4915 -1.3377
 5727TIP3   OH238671   0.334   2.832   2.888  0.0250 -0.7279  0.7978
 5727TIP3    H138672   0.262   2.783   2.928 -0.1040 -0.8356  0.4430
 5727TIP3    H238673   0.333   2.916   2.933 -1.0949 -0.2795 -0.0086
 5728TIP3   OH238674   0.509   0.501  14.088  0.1299 -0.2421  0.3572
 5728TIP3    H138675   0.444   0.567  14.066 -0.7503 -0.6864  1.5193
 5728TIP3    H238676   0.549   0.477  14.004 -0.6068  0.6471 -0.2617
 5729TIP3   OH238677   4.490   3.807   1.443  0.0734 -0.8614 -0.1053
 5729TIP3    H138678   4.540   3.888   1.456  0.1126 -0.7420 -0.9037
 5729TIP3    H238679   4.502   3.787   1.350  0.3133 -1.9559  0.1418
 5730TIP3   OH238680   2.187   0.745  11.720 -0.2745  0.3650  0.0508
 5730TIP3    H138681   2.171   0.801  11.644 -2.1087 -1.1041 -0.7313
 5730TIP3    H238682   2.232   0.668  11.685 -1.9239 -0.7357  0.2152
 5731TIP3   OH238683   5.849   0.775  14.571 -0.2739 -0.0888 -0.2890
 5731TIP3    H138684   5.788   0.711  14.608 -1.0032  0.4285 -0.5772
 5731TIP3    H238685   5.801   0.816  14.500  1.2071 -1.2588 -2.0401
 5732TIP3   OH238686   0.457   6.245   1.896  0.2630 -0.7092 -0.3135
 5732TIP3    H138687   0.451   6.332   1.858 -1.4241 -0.5694  0.2037
 5732TIP3    H238688   0.367   6.222   1.917  1.0117 -1.0532  2.9511
 5733TIP3   OH238689   2.955   4.038   3.266 -0.1372 -0.0331 -0.4373
 5733TIP3    H138690   3.009   4.035   3.187 -2.1559 -1.1729 -1.8504
 5733TIP3    H238691   2.910   3.954   3.268 -0.9823  0.4154  1.3459
 5734TIP3   OH238692   0.803   2.367   4.571 -0.0130  0.5407 -0.2803
 5734TIP3    H138693   0.730   2.428   4.558  0.2978  1.2627  1.1225
 5734TIP3    H238694   0.829   2.380   4.663  1.4118 -0.2158 -0.5475
 5735TIP3   OH238695   0.548   3.934   1.565  0.0829  0.3772  0.5545
 5735TIP3    H138696   0.542   3.838   1.559  0.7336  0.3400  0.3560
 5735TIP3    H238697   0.496   3.966   1.492 -0.8556  0.2019  1.1319
 5736TIP3   OH238698   5.276   1.806   3.259 -0.1072 -0.1480  0.6277
 5736TIP3    H138699   5.210   1.764   3.204  0.2082  1.9914 -1.5175
 5736TIP3    H238700   5.358   1.765   3.233  0.1412  1.3668 -1.1312
 5737TIP3   OH238701   4.171   1.561  15.910  0.2907 -0.0880 -0.0259
 5737TIP3    H138702   4.260   1.594  15.923  0.4032 -1.0555  2.2196
 5737TIP3    H238703   4.181   1.486  15.850  1.0187 -0.2806  0.3298
 5738TIP3   OH238704   5.802   1.654  13.197 -0.1427  0.2910 -0.4934
 5738TIP3    H138705   5.814   1.634  13.290 -2.6097  2.2815  0.3997
 5738TIP3    H238706   5.739   1.589  13.166  0.0868  0.1018 -0.5640
 5739TIP3   OH238707   0.922   5.112   1.208 -0.0114 -0.0475  0.1498
 5739TIP3    H138708   0.861   5.185   1.201  1.0335  0.9979  1.5225
 5739TIP3    H238709   0.987   5.129   1.140  1.4918  1.6091  1.8935
 5740TIP3   OH238710   5.275   1.058   4.629 -0.2000 -0.2023 -0.0021
 5740TIP3    H138711   5.218   1.135   4.630 -0.8721 -0.6236 -1.7890
 5740TIP3    H238712   5.304   1.048   4.720 -2.3309  0.5108  0.8252
 5741TIP3   OH238713   4.460   1.417  13.345  0.2183 -0.1665  0.3786
 5741TIP3    H138714   4.436   1.325  13.334  0.5337 -0.3437  1.1043
 5741TIP3    H238715   4.467   1.452  13.256 -2.4883 -0.1624  0.0770
 5742TIP3   OH238716   2.334   4.885  16.517 -0.2163  0.0921 -0.6768
 5742TIP3    H138717   2.271   4.864  16.448 -1.6188  1.2400  0.1951
 5742TIP3    H238718   2.368   4.972  16.494 -0.0732  0.1242 -0.3536
 5743TIP3   OH238719   1.215   6.393  15.556  0.6413 -0.3090  0.2875
 5743TIP3    H138720   1.133   6.347  15.536  0.0854  0.4780  0.6946
 5743TIP3    H238721   1.284   6.334  15.524 -0.0249 -1.5606  1.0600
 5744TIP3   OH238722   0.431   3.510  16.907 -0.0846 -0.2847  0.1123
 5744TIP3    H138723   0.461   3.557  16.984 -2.3099  0.0482  0.8353
 5744TIP3    H238724   0.386   3.576  16.854  0.1840 -0.8048 -0.7849
 5745TIP3   OH238725   4.903   0.543  13.233 -0.4418  0.6533 -1.0015
 5745TIP3    H138726   4.926   0.515  13.321 -1.0768 -0.4395 -1.1591
 5745TIP3    H238727   4.848   0.620  13.245 -0.8797  0.2507 -0.4254
 5746TIP3   OH238728   5.438   2.084   2.747  0.4806  0.1953  0.9253
 5746TIP3    H138729   5.462   2.062   2.838 -1.1931  0.0059  1.3476
 5746TIP3    H238730   5.347   2.056   2.739  1.1662 -1.6770 -1.4645
 5747TIP3   OH238731   0.681   2.984   4.467 -0.2106  0.5992  0.1961
 5747TIP3    H138732   0.646   3.050   4.407 -2.9232 -0.3229  0.6042
 5747TIP3    H238733   0.615   2.914   4.465  0.3441 -0.1138  3.1243
 5748TIP3   OH238734   2.128   6.260   6.642 -0.7113 -0.1778 -0.2039
 5748TIP3    H138735   2.210   6.216   6.662 -0.3244  0.6074 -0.0231
 5748TIP3    H238736   2.060   6.203   6.678 -0.2041 -0.4617  0.2997
 5749TIP3   OH238737   3.163   3.950  13.460  0.4861 -0.2568  0.0695
 5749TIP3    H138738   3.178   3.939  13.553  2.9056  1.7113  0.0216
 5749TIP3    H238739   3.246   3.928  13.418  0.1637  1.0290 -1.3777
 5750TIP3   OH238740   2.401   6.025  14.718  0.1028 -0.6898  0.0386
 5750TIP3    H138741   2.329   6.073  14.759 -1.4516 -0.1162 -3.0478
 5750TIP3    H238742   2.457   6.000  14.791 -0.7959  2.8241  2.2081
 5751TIP3   OH238743   3.285   2.429   2.704 -0.2147  0.5606  0.2371
 5751TIP3    H138744   3.268   2.522   2.693 -0.1466  0.5204 -0.2172
 5751TIP3    H238745   3.244   2.407   2.788 -2.6455  0.4078 -0.8942
 5752TIP3   OH238746   2.916   0.047  13.227  0.4993 -0.4075  0.0174
 5752TIP3    H138747   2.969   0.068  13.304 -0.5301 -1.8835  1.1902
 5752TIP3    H238748   2.894  -0.046  13.238 -0.8861 -0.2775 -1.3334
 5753TIP3   OH238749   4.712   5.993   4.702  0.5603  0.6722 -0.3299
 5753TIP3    H138750   4.623   5.971   4.727  0.0496  2.1567 -0.7535
 5753TIP3    H238751   4.750   5.910   4.672  0.3655 -0.6882  2.7207
 5754TIP3   OH238752   3.431   0.999  11.119 -0.0421  0.1973  0.1959
 5754TIP3    H138753   3.513   1.040  11.091 -0.7739  1.9834  0.5705
 5754TIP3    H238754   3.443   0.984  11.213  1.1176 -2.7316 -0.2949
 5755TIP3   OH238755   1.517   0.359   6.074 -0.3608  0.5868 -0.1083
 5755TIP3    H138756   1.541   0.334   5.985 -0.3743  1.1683 -0.2829
 5755TIP3    H238757   1.454   0.430   6.063 -1.9484 -0.7167  0.3626
 5756TIP3   OH238758   1.925   1.548  15.900 -0.0375 -0.4377  0.1125
 5756TIP3    H138759   1.992   1.522  15.963 -1.1472 -3.0548  0.3653
 5756TIP3    H238760   1.968   1.614  15.845  1.7180  0.1757  2.0944
 5757TIP3   OH238761   1.669   3.320   2.493 -0.3063  0.1566 -0.4626
 5757TIP3    H138762   1.669   3.415   2.502  0.1160  0.0052  1.5336
 5757TIP3    H238763   1.592   3.301   2.439  0.2534  1.6699 -1.9056
 5758TIP3   OH238764   2.434   6.313   3.827 -0.5355  0.0911 -0.1734
 5758TIP3    H138765   2.525   6.290   3.843 -0.3580 -0.0317 -1.2815
 5758TIP3    H238766   2.437   6.403   3.794 -0.9469  0.5853  1.0878
 5759TIP3   OH238767   2.969   4.797   1.630  0.6776 -0.7179 -0.3916
 5759TIP3    H138768   3.016   4.722   1.666  1.0355 -1.2645 -1.9341
 5759TIP3    H238769   3.028   4.871   1.642  0.7939 -0.8841  0.1035
 5760TIP3   OH238770   3.551   0.955   4.493 -0.3807  0.6981 -0.9667
 5760TIP3    H138771   3.477   0.901   4.522  0.2122  0.0420 -0.6490
 5760TIP3    H238772   3.580   0.999   4.572 -0.1179  0.5641 -0.9879
 5761TIP3   OH238773   6.295   3.584   1.164 -0.1203  0.0178 -0.1939
 5761TIP3    H138774   6.332   3.626   1.086  2.2068 -1.0665  0.2301
 5761TIP3    H238775   6.245   3.510   1.129 -0.0604  0.2260 -0.7343
 5762TIP3   OH238776   6.783   4.025   0.929 -1.0282 -0.7088  0.5514
 5762TIP3    H138777   6.695   4.061   0.929 -0.2515  1.3976 -0.5227
 5762TIP3    H238778   6.828   4.071   0.999 -0.2423 -0.1902 -0.2675
 5763TIP3   OH238779   1.605   6.247  16.985 -0.0985  0.6967 -0.6421
 5763TIP3    H138780   1.685   6.293  17.011 -0.7581  1.8568 -0.5750
 5763TIP3    H238781   1.635   6.179  16.924  0.9613  0.9302 -0.4037
 5764TIP3   OH238782   6.612   5.222  12.444  0.0990 -0.4598 -0.3751
 5764TIP3    H138783   6.684   5.228  12.506 -0.6373 -0.4551  0.4945
 5764TIP3    H238784   6.642   5.270  12.367  0.8733 -0.1560  0.1106
 5765TIP3   OH238785   5.904   2.663  13.533 -0.6458 -0.6399  0.0532
 5765TIP3    H138786   5.813   2.686  13.549 -0.6598  0.0460 -0.9275
 5765TIP3    H238787   5.952   2.746  13.541 -0.1882 -0.9006  0.0397
 5766TIP3   OH238788   4.885   1.764   2.070 -0.2176  0.6225  0.1207
 5766TIP3    H138789   4.922   1.845   2.106  2.0223  0.8123 -2.3189
 5766TIP3    H238790   4.923   1.757   1.983 -1.3720 -2.4281 -0.2529
 5767TIP3   OH238791   2.540   5.673   1.287 -0.2865 -0.7226  0.3158
 5767TIP3    H138792   2.627   5.654   1.322  0.0154 -0.8179 -0.4804
 5767TIP3    H238793   2.483   5.674   1.364  0.3676 -0.9426  0.8080
 5768TIP3   OH238794   5.698   3.363   3.435 -0.1151  0.0765 -0.1411
 5768TIP3    H138795   5.632   3.325   3.376 -0.6603  0.1205  0.4391
 5768TIP3    H238796   5.660   3.355   3.522  0.9127 -0.4634  0.2769
 5769TIP3   OH238797   1.100   6.296  15.289  0.1379  0.7746  0.2959
 5769TIP3    H138798   1.061   6.223  15.337 -1.3107  0.7107 -0.9296
 5769TIP3    H238799   1.077   6.281  15.198  2.2146  1.2953 -0.3787
 5770TIP3   OH238800   2.589   0.846  17.114  0.4521  0.2624  0.3310
 5770TIP3    H138801   2.596   0.886  17.027 -1.9527  1.8432  0.7903
 5770TIP3    H238802   2.581   0.920  17.174  0.5683 -0.8416  1.7629
 5771TIP3   OH238803   5.543   2.564   1.920 -0.5460 -0.5681  0.1678
 5771TIP3    H138804   5.492   2.567   2.001 -0.2439 -2.3743  0.4600
 5771TIP3    H238805   5.569   2.472   1.911  0.4547 -0.1739 -1.3464
 5772TIP3   OH238806   3.751   2.384   2.251  0.4561 -0.3034  0.0291
 5772TIP3    H138807   3.671   2.407   2.202  0.7292  0.2703 -0.1533
 5772TIP3    H238808   3.730   2.300   2.292 -0.2598 -0.1393  0.0153
 5773TIP3   OH238809   1.781   2.720  14.843 -0.5496  0.2217  0.2149
 5773TIP3    H138810   1.769   2.735  14.936 -1.0954 -0.4839  0.2659
 5773TIP3    H238811   1.828   2.637  14.837 -0.7493  0.1315 -0.1415
 5774TIP3   OH238812   1.905   1.134  13.242  0.1837  0.3541  0.4243
 5774TIP3    H138813   1.870   1.161  13.157 -2.3786 -0.0861  1.2488
 5774TIP3    H238814   1.935   1.215  13.283 -2.6332  1.3432  0.7901
 5775TIP3   OH238815   3.624   0.061  10.552  0.2800 -0.5171 -0.1853
 5775TIP3    H138816   3.560   0.121  10.591 -0.8788 -2.6395  1.4353
 5775TIP3    H238817   3.707   0.085  10.592  0.0135  0.5260 -0.2169
 5776TIP3   OH238818   6.081   5.696  17.180 -0.3316 -0.0628 -0.5734
 5776TIP3    H138819   6.103   5.778  17.224 -3.1438  0.8690 -0.6726
 5776TIP3    H238820   6.118   5.704  17.092 -0.9805  1.3715 -0.7435
 5777TIP3   OH238821   0.061   5.477  11.326  0.2574  0.2164 -0.6507
 5777TIP3    H138822   0.022   5.519  11.403  0.6985 -0.3655 -0.0970
 5777TIP3    H238823   0.071   5.548  11.263  1.5514  1.1053  0.4929
 5778TIP3   OH238824   3.587   2.341  11.556  0.1726 -0.1738 -0.6515
 5778TIP3    H138825   3.660   2.290  11.592  0.3825 -0.4450 -1.4377
 5778TIP3    H238826   3.520   2.275  11.537 -0.1055  0.0210 -0.3513
 5779TIP3   OH238827   5.791   2.633   2.329 -0.2854  0.2294  0.2316
 5779TIP3    H138828   5.812   2.726   2.326  1.1704 -0.0401  0.9220
 5779TIP3    H238829   5.721   2.625   2.394  1.6956  0.5442  2.5498
 5780TIP3   OH238830   5.967   6.447  16.050 -0.1159 -0.4608 -0.6269
 5780TIP3    H138831   5.903   6.505  16.008  2.6425  2.3844 -1.3205
 5780TIP3    H238832   6.023   6.417  15.979  0.7956 -0.8645  0.2336
 5781TIP3   OH238833   0.367   2.235  14.750 -0.1105 -0.2907  1.0229
 5781TIP3    H138834   0.405   2.162  14.701  0.1623  0.4792  0.0561
 5781TIP3    H238835   0.432   2.305  14.743 -1.4415  0.8818 -0.2320
 5782TIP3   OH238836   6.070   2.080  14.895 -0.3874  0.4703  0.1690
 5782TIP3    H138837   6.152   2.078  14.845 -0.4432 -0.8094  0.0915
 5782TIP3    H238838   6.079   2.007  14.957 -1.5280  0.2481  0.0769
 5783TIP3   OH238839   5.148   2.684  13.961 -0.0170  0.3375 -0.1185
 5783TIP3    H138840   5.150   2.637  14.044  0.7157  0.7160  0.0850
 5783TIP3    H238841   5.172   2.774  13.984  3.4202 -0.1781 -1.1381
 5784TIP3   OH238842   1.489   4.562   2.690 -0.1038 -0.1455 -0.0021
 5784TIP3    H138843   1.398   4.588   2.673 -0.4579 -1.8317 -0.8860
 5784TIP3    H238844   1.507   4.494   2.625  0.8964 -1.7965  1.9147
 5785TIP3   OH238845   0.665   5.266   5.504  0.6761  0.2167  0.3314
 5785TIP3    H138846   0.686   5.338   5.444 -1.1612  1.2485  0.8210
 5785TIP3    H238847   0.622   5.201   5.448 -0.0783  0.7139  0.3080
 5786TIP3   OH238848   5.467   2.614  14.059  0.7231 -0.1578  0.6974
 5786TIP3    H138849   5.531   2.651  13.999 -1.5316  1.7275 -0.7137
 5786TIP3    H238850   5.446   2.528  14.022  1.2764 -0.1262  0.2989
 5787TIP3   OH238851   4.176   3.196   2.741 -0.4277  0.6249 -0.1479
 5787TIP3    H138852   4.169   3.287   2.769 -2.5304  0.4819 -0.0109
 5787TIP3    H238853   4.245   3.195   2.674  0.2599  2.1244  0.5172
 5788TIP3   OH238854   4.293   6.593  15.819  0.2263 -0.3030 -0.2332
 5788TIP3    H138855   4.381   6.629  15.829  0.7068 -0.4780 -2.9174
 5788TIP3    H238856   4.252   6.650  15.753 -1.4073 -0.6800  0.4193
 5789TIP3   OH238857   1.100   4.863  12.648  0.4414  0.2737  0.2061
 5789TIP3    H138858   1.169   4.806  12.614  1.7114  1.3786  0.8407
 5789TIP3    H238859   1.050   4.889  12.570 -0.7199 -2.3215 -0.0019
 5790TIP3   OH238860   0.370   5.986   4.901  0.4174 -0.5518  0.1022
 5790TIP3    H138861   0.408   6.048   4.839 -0.4894  0.4201  0.4674
 5790TIP3    H238862   0.360   6.037   4.982 -0.2850 -1.1853  0.4303
 5791TIP3   OH238863   2.411   0.860   3.789  0.0717 -0.2632 -0.1272
 5791TIP3    H138864   2.360   0.933   3.824 -0.5894 -0.8113  0.0805
 5791TIP3    H238865   2.494   0.864   3.836 -0.3660 -0.2857  0.6703
 5792TIP3   OH238866   3.531   1.924   5.995 -0.5656 -0.0729 -0.3954
 5792TIP3    H138867   3.582   1.884   5.925 -0.4267 -0.0009 -0.3367
 5792TIP3    H238868   3.474   1.987   5.951 -0.5446 -0.0950 -0.4536
 5793TIP3   OH238869   2.806   1.338   3.799  0.3321 -0.1164 -0.5290
 5793TIP3    H138870   2.727   1.340   3.745 -1.0634  1.3844  1.3747
 5793TIP3    H238871   2.798   1.257   3.850 -0.9693  0.8117  0.8648
 5794TIP3   OH238872   1.829   3.219  14.692  0.0351  0.2184  0.3352
 5794TIP3    H138873   1.789   3.207  14.605  0.5278  0.9222  0.0020
 5794TIP3    H238874   1.876   3.137  14.708 -1.5974 -0.6696  0.7833
 5795TIP3   OH238875   1.120   2.868  14.812  0.5428 -0.1094 -0.2423
 5795TIP3    H138876   1.097   2.901  14.725 -1.0790  0.6503  0.4331
 5795TIP3    H238877   1.216   2.869  14.813  0.6072  2.3844 -1.1323
 5796TIP3   OH238878   4.966   5.571  14.436 -0.1600 -0.2692  0.2348
 5796TIP3    H138879   4.904   5.589  14.506 -1.1587 -1.3969 -0.3272
 5796TIP3    H238880   4.917   5.590  14.355  0.5928 -0.0971 -0.1936
 5797TIP3   OH238881   4.107   2.769   3.097 -0.0726 -0.1115 -0.1664
 5797TIP3    H138882   4.077   2.735   3.181  1.0998 -0.8948 -0.0388
 5797TIP3    H238883   4.200   2.785   3.109  0.0607  0.0283 -1.2440
 5798TIP3   OH238884   6.103   4.839   0.306  0.2962  0.1473 -0.4314
 5798TIP3    H138885   6.029   4.807   0.253 -0.3641  0.2475  0.4125
 5798TIP3    H238886   6.068   4.847   0.395  0.3964  3.2224 -0.5525
 5799TIP3   OH238887   2.448   2.892   4.263  0.2870  0.1671  0.3941
 5799TIP3    H138888   2.380   2.877   4.329  0.3248 -1.8349  0.0500
 5799TIP3    H238889   2.426   2.831   4.192  1.7472  0.3651 -0.2630
 5800TIP3   OH238890   6.502   1.723  10.626 -0.0076 -0.0307  0.1074
 5800TIP3    H138891   6.576   1.764  10.670  0.3625 -0.6554  0.0793
 5800TIP3    H238892   6.480   1.784  10.556 -0.7802  1.1087  1.2971
 5801TIP3   OH238893   0.726   2.999   1.651  0.5955 -0.4715 -0.6331
 5801TIP3    H138894   0.820   2.986   1.643  0.8569  1.3336 -0.9768
 5801TIP3    H238895   0.697   3.018   1.562  0.4528  1.9263 -0.1406
 5802TIP3   OH238896   6.486   5.083   5.049  0.2175 -0.1364 -0.1521
 5802TIP3    H138897   6.524   5.167   5.076  0.2050  0.2120 -1.2010
 5802TIP3    H238898   6.417   5.067   5.114  0.2929  0.6094  0.1265
 5803TIP3   OH238899   0.583   6.073   4.228 -0.1025 -0.0661  0.0957
 5803TIP3    H138900   0.601   6.019   4.305 -1.2731 -0.5895  0.0340
 5803TIP3    H238901   0.543   6.012   4.165 -0.3004  0.6147 -0.4541
 5804TIP3   OH238902   2.134   4.742   3.841 -1.0107  0.2040  0.4046
 5804TIP3    H138903   2.182   4.732   3.759  1.0904  1.1372  1.4553
 5804TIP3    H238904   2.062   4.801   3.819 -0.0668  1.0197 -0.6408
 5805TIP3   OH238905   2.588   2.304   0.891  0.5038 -0.4516  0.1671
 5805TIP3    H138906   2.520   2.371   0.890  0.5971 -0.3202 -1.7381
 5805TIP3    H238907   2.566   2.247   0.964 -2.1552 -0.9084 -0.9041
 5806TIP3   OH238908   6.158   6.639  16.255 -0.0198  0.4347 -0.3796
 5806TIP3    H138909   6.110   6.557  16.246  0.5664  0.1109 -0.6924
 5806TIP3    H238910   6.236   6.627  16.199  1.5009  0.1190  1.6906
 5807TIP3   OH238911   3.766   4.660  12.001  0.1985 -0.3043  0.2404
 5807TIP3    H138912   3.796   4.671  11.911  0.7930 -0.3490  0.4304
 5807TIP3    H238913   3.679   4.621  11.992 -0.2664  0.8127 -0.3407
 5808TIP3   OH238914   1.464   4.394  14.080  0.5498 -0.1013 -0.0563
 5808TIP3    H138915   1.448   4.484  14.108 -0.3549  0.0697 -1.0496
 5808TIP3    H238916   1.403   4.342  14.132  1.3381 -0.2018  0.7927
 5809TIP3   OH238917   5.423   4.172   4.160  0.0467 -0.0040 -0.4983
 5809TIP3    H138918   5.373   4.242   4.116 -2.3225  0.8717  3.1192
 5809TIP3    H238919   5.407   4.187   4.253 -0.2430 -5.1123  0.5613
 5810TIP3   OH238920   3.679   4.605  15.267  0.8120 -0.4495  0.5204
 5810TIP3    H138921   3.667   4.661  15.190  1.1050  0.2655  0.9797
 5810TIP3    H238922   3.750   4.647  15.315 -0.3697 -0.0052  1.9559
 5811TIP3   OH238923   6.502   2.678   0.262 -0.0842  0.3340 -0.1929
 5811TIP3    H138924   6.446   2.756   0.269  0.9957  0.9737  2.4858
 5811TIP3    H238925   6.521   2.655   0.352  0.5361 -2.4315 -0.9522
 5812TIP3   OH238926   5.461   0.520   5.514  0.0266 -0.0107  0.3628
 5812TIP3    H138927   5.499   0.573   5.444 -1.2215  0.2277 -0.1679
 5812TIP3    H238928   5.465   0.577   5.591  1.0933 -0.1468  0.4237
 5813TIP3   OH238929   0.020   6.510  16.181  0.0159 -0.1695 -0.2633
 5813TIP3    H138930  -0.007   6.456  16.256 -0.2635  1.9765  1.2754
 5813TIP3    H238931  -0.016   6.464  16.105  0.3809 -2.4794  0.8636
 5814TIP3   OH238932   1.629   3.906   3.029 -0.4737  0.1802  0.0037
 5814TIP3    H138933   1.588   3.989   3.008  0.6919  0.6028 -0.7686
 5814TIP3    H238934   1.647   3.910   3.123  0.6781  1.3520 -0.2320
 5815TIP3   OH238935   3.409   4.096   0.301 -0.4537  0.2969  0.3136
 5815TIP3    H138936   3.430   4.046   0.223  0.4208  0.5598  0.3727
 5815TIP3    H238937   3.429   4.037   0.374 -0.9042  0.1863  0.3498
 5816TIP3   OH238938   2.039   1.185   2.454  0.3908  0.0464  0.1350
 5816TIP3    H138939   2.097   1.145   2.389 -1.5670 -0.6588 -1.2844
 5816TIP3    H238940   2.098   1.222   2.519  2.4189 -0.5323 -1.2674
 5817TIP3   OH238941   1.720   4.114  14.688 -0.3196 -0.7308 -0.4926
 5817TIP3    H138942   1.653   4.178  14.711 -0.8651 -1.3059 -0.4562
 5817TIP3    H238943   1.748   4.078  14.772  1.0186  0.4591 -0.3900
 5818TIP3   OH238944   1.744   1.746   3.847 -0.3959  0.3143  0.7496
 5818TIP3    H138945   1.680   1.749   3.776 -0.7670  0.0513  1.0650
 5818TIP3    H238946   1.691   1.754   3.927 -0.0247  0.1708  1.0119
 5819TIP3   OH238947   5.831   1.212  11.952  0.8404 -0.3320  0.1512
 5819TIP3    H138948   5.815   1.126  11.992 -1.4135  0.3948  0.9510
 5819TIP3    H238949   5.822   1.196  11.858  3.0157 -1.4341  0.0750
 5820TIP3   OH238950   6.395   0.991   1.328 -0.1343 -0.3860  0.2331
 5820TIP3    H138951   6.312   0.963   1.366 -1.0416 -0.1636 -1.4741
 5820TIP3    H238952   6.460   0.930   1.364 -0.8133  0.1656  2.5025
 5821TIP3   OH238953   1.411   5.838   3.363 -0.1199  0.0369  0.5517
 5821TIP3    H138954   1.382   5.816   3.452  1.8083  1.1167  1.5197
 5821TIP3    H238955   1.393   5.760   3.312 -2.4331 -0.1819  1.5730
 5822TIP3   OH238956   0.797   2.792   3.152  0.1136  0.4307  0.1398
 5822TIP3    H138957   0.835   2.762   3.235 -3.0384 -0.6649  1.3691
 5822TIP3    H238958   0.823   2.726   3.088 -1.0561 -1.2786  1.3225
 5823TIP3   OH238959   4.066   1.303  12.344  0.0773 -0.2273  0.6714
 5823TIP3    H138960   4.059   1.226  12.400  1.5489 -0.6263  0.3656
 5823TIP3    H238961   4.046   1.270  12.256 -1.2468  0.1815  0.8102
 5824TIP3   OH238962   5.188   1.695   4.863  0.1432 -0.4594 -0.3996
 5824TIP3    H138963   5.183   1.620   4.804 -1.8614  1.4792 -2.9528
 5824TIP3    H238964   5.263   1.677   4.919  0.6841 -3.6058 -1.9352
 5825TIP3   OH238965   2.840   4.410   0.663 -0.1775 -0.4405  0.5820
 5825TIP3    H138966   2.915   4.459   0.631 -0.2164  0.6614  2.0774
 5825TIP3    H238967   2.836   4.332   0.607  0.9824  0.3594 -0.6646
 5826TIP3   OH238968   5.292   2.468  15.773  0.1219  0.2712  0.4530
 5826TIP3    H138969   5.239   2.480  15.694 -0.6751  1.4112  1.1238
 5826TIP3    H238970   5.229   2.475  15.845  0.6428 -1.9519  1.1751
 5827TIP3   OH238971   2.202   5.923   6.179 -0.4320 -0.2713 -0.0199
 5827TIP3    H138972   2.253   5.990   6.135  0.1553 -1.9434 -2.0645
 5827TIP3    H238973   2.111   5.947   6.163 -0.2257 -0.4205 -1.5879
 5828TIP3   OH238974   3.148   3.912   2.506 -0.4762  0.5658 -0.2449
 5828TIP3    H138975   3.140   3.829   2.458 -1.7621  1.1595 -1.1082
 5828TIP3    H238976   3.097   3.974   2.455 -1.1720  1.4384  1.4455
 5829TIP3   OH238977   2.163   5.410   3.394  0.1611  0.0073 -0.1001
 5829TIP3    H138978   2.151   5.457   3.477 -1.8778  3.7079 -2.2237
 5829TIP3    H238979   2.076   5.380   3.371  0.6882 -0.8736 -0.9940
 5830TIP3   OH238980   0.293   4.883   1.061  0.1335 -0.4654  0.6096
 5830TIP3    H138981   0.349   4.811   1.032  1.0376  0.4444  0.0498
 5830TIP3    H238982   0.314   4.956   1.003 -1.7245 -0.1216  0.3079
 5831TIP3   OH238983   0.410   3.129  10.690 -0.2238  0.3528  0.1890
 5831TIP3    H138984   0.456   3.178  10.758 -0.5167  1.9039 -0.6860
 5831TIP3    H238985   0.436   3.038  10.705  2.5948  1.0586  0.1846
 5832TIP3   OH238986   3.749   3.561   4.608 -0.0657  0.3694 -0.0094
 5832TIP3    H138987   3.754   3.513   4.691  0.5002  1.3335  0.5390
 5832TIP3    H238988   3.838   3.596   4.595 -0.1201  0.1551 -1.0753
 5833TIP3   OH238989   5.398   0.016   1.679  0.0453 -0.7833  0.3500
 5833TIP3    H138990   5.444  -0.018   1.757 -0.0704  0.1999  0.8675
 5833TIP3    H238991   5.353   0.095   1.711  1.0976  0.4247 -1.0053
 5834TIP3   OH238992   4.435   3.912   0.120  0.1108 -0.3591 -0.4058
 5834TIP3    H138993   4.527   3.903   0.093 -0.4668  1.9856 -3.7394
 5834TIP3    H238994   4.428   4.002   0.149 -1.1922 -0.4865 -0.2904
 5835TIP3   OH238995   6.209   1.736  11.292  0.8005  0.3490  0.2230
 5835TIP3    H138996   6.200   1.660  11.349  2.8885  0.1034  0.3048
 5835TIP3    H238997   6.289   1.719  11.242  1.2872  2.4428  0.1879
 5836TIP3   OH238998   4.703   3.861   0.893 -0.3131  0.4174 -0.0327
 5836TIP3    H138999   4.742   3.945   0.868  0.5528  0.6910  2.0513
 5836TIP3    H239000   4.771   3.818   0.944 -2.0911  0.1399  2.2258
 5837TIP3   OH239001   5.380   6.447   1.656 -0.3367  0.1712 -0.0692
 5837TIP3    H139002   5.353   6.462   1.565 -0.8902  0.6324  0.1698
 5837TIP3    H239003   5.307   6.480   1.709 -0.7997 -1.6504  0.5152
 5838TIP3   OH239004   3.359   4.201   2.986  0.1153  0.4791 -0.1745
 5838TIP3    H139005   3.353   4.202   2.890 -0.3880  1.3900 -0.1471
 5838TIP3    H239006   3.269   4.192   3.016  0.4791 -3.1860  0.2553
 5839TIP3   OH239007   3.980   6.650  14.427 -0.8735 -0.2797  0.0038
 5839TIP3    H139008   4.059   6.703  14.415 -0.4732 -0.8033  0.2698
 5839TIP3    H239009   3.913   6.694  14.375 -0.4766  0.3266 -0.0053
 5840TIP3   OH239010   1.592   2.522  13.740 -0.2370  1.0244  0.0580
 5840TIP3    H139011   1.497   2.522  13.726 -0.0613 -0.7866 -1.4368
 5840TIP3    H239012   1.629   2.544  13.655  0.6932 -1.8552 -0.4091
 5841TIP3   OH239013   0.972   5.913  13.967 -0.6663  0.1480  0.1817
 5841TIP3    H139014   1.059   5.876  13.954 -0.6520  0.0752  0.4844
 5841TIP3    H239015   0.982   5.974  14.040 -0.9061  0.0075  0.3345
 5842TIP3   OH239016   1.369   0.196   0.483  0.2343  0.0040 -0.1887
 5842TIP3    H139017   1.293   0.185   0.540 -0.7383  1.9823 -1.0160
 5842TIP3    H239018   1.441   0.214   0.544 -0.3075 -0.1493  0.5161
 5843TIP3   OH239019   0.917   0.149   2.792 -0.4005 -0.1120 -0.5040
 5843TIP3    H139020   0.992   0.126   2.847  0.4017  0.7744 -1.1837
 5843TIP3    H239021   0.933   0.104   2.709 -0.0563  0.9059 -1.0105
 5844TIP3   OH239022   6.411   3.470   5.222  0.0693 -0.1069  0.4478
 5844TIP3    H139023   6.497   3.510   5.233  0.3276 -0.5808  0.1607
 5844TIP3    H239024   6.427   3.376   5.227 -0.7249 -0.1898  2.6165
 5845TIP3   OH239025   2.357   1.347   1.168 -0.5095  0.2070 -0.1269
 5845TIP3    H139026   2.397   1.320   1.086 -0.6950 -0.3206 -0.0419
 5845TIP3    H239027   2.315   1.431   1.148 -0.3775  0.1797 -0.5126
 5846TIP3   OH239028   0.777   4.100  10.847  0.2234  0.4107  0.0664
 5846TIP3    H139029   0.851   4.159  10.838  0.8123 -0.3253 -0.0363
 5846TIP3    H239030   0.736   4.101  10.760  0.6934  0.0823 -0.1666
 5847TIP3   OH239031   2.371   1.494  13.187  0.4324 -0.3261 -0.8655
 5847TIP3    H139032   2.372   1.546  13.267 -0.2169  0.0170 -1.0789
 5847TIP3    H239033   2.464   1.489  13.161  0.4876  0.9669 -0.9973
 5848TIP3   OH239034   5.054   1.494  11.930 -0.6556 -0.3884  0.8013
 5848TIP3    H139035   4.986   1.476  11.865 -1.7962 -1.0619  2.1465
 5848TIP3    H239036   5.115   1.552  11.884 -1.7194 -0.3710 -0.6835
 5849TIP3   OH239037   0.393   5.299  10.398  0.0508 -0.0273  0.2349
 5849TIP3    H139038   0.434   5.379  10.431 -0.0966  0.8862 -1.6458
 5849TIP3    H239039   0.454   5.229  10.421  1.1861  0.9059  0.1819
 5850TIP3   OH239040   4.551   0.764   2.678 -0.1220  0.2380  0.0581
 5850TIP3    H139041   4.532   0.829   2.746 -0.6018 -0.3578  0.5037
 5850TIP3    H239042   4.601   0.696   2.723  0.3778  0.2928 -0.4064
 5851TIP3   OH239043   3.385   5.830  14.484  0.3086 -0.2485  0.4927
 5851TIP3    H139044   3.405   5.742  14.514 -1.8430 -0.9709  0.0031
 5851TIP3    H239045   3.305   5.820  14.433 -1.2542  2.2585  2.1994
 5852TIP3   OH239046   2.899   0.520  14.692  0.0773  0.0193 -0.2374
 5852TIP3    H139047   2.854   0.446  14.650  1.4502  0.0167 -1.8042
 5852TIP3    H239048   2.942   0.566  14.620  1.3039  0.9076  1.0109
 5853TIP3   OH239049   4.450   6.703  11.081  0.1889  0.1824  0.3609
 5853TIP3    H139050   4.408   6.662  11.156 -0.8242 -2.3185 -1.4455
 5853TIP3    H239051   4.536   6.661  11.075  0.5062  0.8000  0.4383
 5854TIP3   OH239052   3.327   2.222  12.523  0.2120 -0.2944  0.0430
 5854TIP3    H139053   3.265   2.294  12.510  0.1201 -0.2887  0.4735
 5854TIP3    H239054   3.387   2.254  12.590 -1.3737 -1.5442  2.1966
 5855TIP3   OH239055   5.071   5.630   4.223  0.6210  0.1935 -0.1216
 5855TIP3    H139056   5.140   5.615   4.157  0.2851  0.3617 -0.5146
 5855TIP3    H239057   5.063   5.725   4.228 -0.3479  0.1613 -0.8868
 5856TIP3   OH239058   4.399   4.774  15.137  0.1891 -0.4061 -0.1843
 5856TIP3    H139059   4.488   4.754  15.163  0.2395  0.9539  0.8476
 5856TIP3    H239060   4.353   4.788  15.220 -0.4357  0.9929 -0.7314
 5857TIP3   OH239061   2.151   0.307  12.059  0.0107  0.3140  0.6830
 5857TIP3    H139062   2.186   0.323  12.146  3.3362 -0.2634 -0.3939
 5857TIP3    H239063   2.196   0.228  12.029 -2.0350 -0.2866 -1.1017
 5858TIP3   OH239064   6.689   6.696   1.009  0.2394  0.1487 -0.6265
 5858TIP3    H139065   6.719   6.657   0.927 -0.9786 -1.7317 -0.2416
 5858TIP3    H239066   6.675   6.789   0.988  0.2253 -0.2354 -2.4684
 5859TIP3   OH239067   6.613   3.095  11.671 -0.2014  0.0082 -0.2181
 5859TIP3    H139068   6.567   3.159  11.616  2.3697  0.4518 -2.0895
 5859TIP3    H239069   6.645   3.029  11.609 -1.4639 -2.3309  1.4736
 5860TIP3   OH239070   2.496   2.459  12.045  0.4738  0.1738 -0.2837
 5860TIP3    H139071   2.430   2.469  12.114  1.1661 -1.8935  0.7774
 5860TIP3    H239072   2.447   2.425  11.970  0.3945 -2.6009  0.8948
 5861TIP3   OH239073   0.908   0.371  12.843 -0.1815  0.0145 -0.2989
 5861TIP3    H139074   0.873   0.284  12.859 -0.9222  0.2434 -0.6199
 5861TIP3    H239075   0.877   0.393  12.755  0.2790  0.4652 -0.3510
 5862TIP3   OH239076   3.605   6.554  10.928 -0.6084 -0.1094  0.3779
 5862TIP3    H139077   3.553   6.633  10.916  1.2766  0.9111 -1.7790
 5862TIP3    H239078   3.575   6.518  11.012 -1.3635  2.9896  1.5757
 5863TIP3   OH239079   4.962   0.738  14.411 -0.1671 -0.0844  0.0233
 5863TIP3    H139080   5.047   0.782  14.402  0.0497 -0.4604  0.2021
 5863TIP3    H239081   4.951   0.726  14.505 -0.9427  0.9660  0.0744
 5864TIP3   OH239082   3.201   0.355   0.944 -0.1469 -0.5790 -0.1260
 5864TIP3    H139083   3.206   0.321   0.855  0.8727 -1.0888  0.1186
 5864TIP3    H239084   3.261   0.300   0.994 -0.2671  0.0786  0.7583
 5865TIP3   OH239085   0.534   6.096   0.202  0.8828 -0.7713 -0.3360
 5865TIP3    H139086   0.583   6.055   0.131 -0.8156  0.3009 -2.2185
 5865TIP3    H239087   0.560   6.188   0.200 -1.6326  0.0277 -1.9491
 5866TIP3   OH239088   0.033   0.806  12.140  0.3117  0.0492  0.0196
 5866TIP3    H139089   0.053   0.775  12.052 -0.9969  1.2314 -0.7266
 5866TIP3    H239090  -0.002   0.730  12.185  2.7380 -1.0841  0.1821
 5867TIP3   OH239091   3.124   1.383  13.227  0.5092 -0.2174  0.1223
 5867TIP3    H139092   3.171   1.338  13.157 -0.6875 -0.8678 -0.2875
 5867TIP3    H239093   3.115   1.317  13.296 -1.3911 -0.7106 -0.5408
 5868TIP3   OH239094   2.311   2.308  13.340 -0.1317  0.2064 -0.0027
 5868TIP3    H139095   2.295   2.402  13.331 -0.1030  0.1391 -0.8361
 5868TIP3    H239096   2.249   2.267  13.281 -1.5477 -0.4369  1.8319
 5869TIP3   OH239097   6.318   1.338  12.295  0.0948 -0.7338 -0.3911
 5869TIP3    H139098   6.400   1.387  12.298  0.2455 -0.9785 -0.5058
 5869TIP3    H239099   6.271   1.375  12.221 -0.4615  0.2907  0.4403
 5870TIP3   OH239100   5.840   2.186  11.496  0.3214 -0.1995 -0.3156
 5870TIP3    H139101   5.799   2.222  11.418  0.7743  1.8684  0.3261
 5870TIP3    H239102   5.930   2.221  11.495 -0.0028  0.8998  1.6600
 5871TIP3   OH239103   6.357   0.914  17.095  0.2791  0.0909  0.1360
 5871TIP3    H139104   6.397   0.850  17.155 -2.3824  0.8229  2.9577
 5871TIP3    H239105   6.309   0.862  17.032  0.6768 -0.7187  0.4882
 5872TIP3   OH239106   0.426   3.199   0.745  0.9535 -0.8518  0.4493
 5872TIP3    H139107   0.355   3.260   0.765  0.7333 -1.3444  1.2367
 5872TIP3    H239108   0.382   3.119   0.717  1.2052 -1.0098  0.5034
 5873TIP3   OH239109   4.658   1.740   0.681  0.4773  0.3477 -0.3736
 5873TIP3    H139110   4.731   1.785   0.638  1.5352  0.0695  1.0538
 5873TIP3    H239111   4.691   1.721   0.769 -1.2425 -0.0153  0.2160
 5874TIP3   OH239112   2.884   3.741  11.906  0.0614 -0.3216  0.0133
 5874TIP3    H139113   2.932   3.703  11.833 -0.3160  0.3789 -0.6272
 5874TIP3    H239114   2.880   3.672  11.972  1.7604 -0.4585  0.0177
 5875TIP3   OH239115   3.229   4.886  11.093  0.1065 -0.3573 -0.1869
 5875TIP3    H139116   3.296   4.955  11.092 -0.0649 -0.1727 -1.7380
 5875TIP3    H239117   3.192   4.887  11.005 -3.4447  0.9910  1.1175
 5876TIP3   OH239118   5.257   5.119   6.297 -0.0147 -0.4011  0.4156
 5876TIP3    H139119   5.301   5.134   6.381  2.7203  0.9671 -1.0961
 5876TIP3    H239120   5.285   5.032   6.270  1.2077  0.1410 -0.1593
 5877TIP3   OH239121   0.475   2.817  14.822 -0.0962  0.0643 -0.2440
 5877TIP3    H139122   0.483   2.874  14.898  0.3672  1.0126 -0.9750
 5877TIP3    H239123   0.540   2.749  14.835 -1.3158 -0.8962  1.1181
 5878TIP3   OH239124   2.995   4.364   2.378 -0.5953  0.0571 -0.3358
 5878TIP3    H139125   3.085   4.354   2.410 -1.1264  0.1050  1.2745
 5878TIP3    H239126   2.966   4.274   2.361 -0.4760 -0.0158 -0.1660
 5879TIP3   OH239127   2.264   0.125   5.451 -0.2744  0.1653  0.2204
 5879TIP3    H139128   2.207   0.052   5.428 -0.7964  0.0468  1.8047
 5879TIP3    H239129   2.246   0.142   5.543  3.2502 -0.8357  1.2843
 5880TIP3   OH239130   4.096   4.604   1.502 -0.1643  0.0217  0.3651
 5880TIP3    H139131   4.034   4.568   1.439  0.6391 -0.8214  0.0360
 5880TIP3    H239132   4.068   4.567   1.586 -1.2079  1.1127  0.5277
 5881TIP3   OH239133   2.012   1.936  15.075  0.1016 -0.7550  0.1343
 5881TIP3    H139134   1.922   1.949  15.045 -0.2448  0.5618  1.6084
 5881TIP3    H239135   2.014   1.847  15.110 -0.1509 -1.3841 -1.3539
 5882TIP3   OH239136   6.315   1.682   1.868  0.3221  0.1315 -0.1941
 5882TIP3    H139137   6.385   1.619   1.853 -1.0521 -1.3421 -0.7080
 5882TIP3    H239138   6.267   1.647   1.943  0.1606  1.1510  0.1928
 5883TIP3   OH239139   6.503   6.326   2.839 -0.1733 -0.9087 -0.2051
 5883TIP3    H139140   6.477   6.346   2.929  0.6351  0.2193 -0.1950
 5883TIP3    H239141   6.566   6.394   2.817 -1.4252 -0.2713 -2.1187
 5884TIP3   OH239142   3.327   6.343   1.326  0.0811 -0.2763 -0.0548
 5884TIP3    H139143   3.361   6.431   1.342  0.0367 -0.3514  0.4415
 5884TIP3    H239144   3.337   6.332   1.231 -2.5280  1.3484 -0.6282
 5885TIP3   OH239145   3.242   6.287  14.756 -0.1904  0.4783  0.2702
 5885TIP3    H139146   3.159   6.241  14.768 -1.4692  2.6005  0.1091
 5885TIP3    H239147   3.267   6.268  14.666 -0.1724 -0.6596  0.5037
 5886TIP3   OH239148   4.233   3.502  11.174  0.6406  0.3708  0.5933
 5886TIP3    H139149   4.298   3.523  11.107 -0.4104  2.2785  0.1007
 5886TIP3    H239150   4.165   3.568  11.163 -2.2192 -2.4102  0.0633
 5887TIP3   OH239151   2.632   5.333  15.548  0.1603 -0.2470  0.1354
 5887TIP3    H139152   2.636   5.402  15.481  0.3134 -0.0225  0.3740
 5887TIP3    H239153   2.566   5.272  15.515 -0.7928  0.5774  0.4623
 5888TIP3   OH239154   3.851   1.802  11.473 -0.0848 -0.1679 -0.1016
 5888TIP3    H139155   3.914   1.830  11.408 -0.0795  1.5617  0.5916
 5888TIP3    H239156   3.793   1.741  11.427 -0.3734  1.3638 -1.8727
 5889TIP3   OH239157   0.204   4.134   4.261  0.1067 -0.2191  0.4651
 5889TIP3    H139158   0.132   4.143   4.198 -1.4344  0.4542  2.2314
 5889TIP3    H239159   0.185   4.199   4.329  0.6832 -2.1028  2.5531
 5890TIP3   OH239160   3.799   0.754  13.251  0.0571  0.6611  0.1252
 5890TIP3    H139161   3.735   0.773  13.182 -1.6222  2.7683  2.1174
 5890TIP3    H239162   3.865   0.822  13.241  0.5761  0.1081 -0.2557
 5891TIP3   OH239163   4.487   3.098   3.335 -0.0098 -0.2739 -0.2005
 5891TIP3    H139164   4.519   3.009   3.349  2.3089  0.6354  0.7717
 5891TIP3    H239165   4.443   3.095   3.250  2.5782 -1.7285 -1.5822
 5892TIP3   OH239166   5.320   6.787   3.888 -0.1764 -0.3000 -0.1167
 5892TIP3    H139167   5.369   6.851   3.835 -1.7234  0.1965 -1.0007
 5892TIP3    H239168   5.352   6.702   3.856 -0.4134  0.0031 -1.2251
 5893TIP3   OH239169   2.525   5.208   3.839  0.1863  0.2232 -0.0873
 5893TIP3    H139170   2.594   5.255   3.791  1.8369 -1.4914  0.4966
 5893TIP3    H239171   2.452   5.203   3.777  1.5270 -0.1806 -1.7036
 5894TIP3   OH239172   3.277   1.368  15.841  0.3769  0.2963 -0.4919
 5894TIP3    H139173   3.236   1.345  15.758  0.5261  1.7926 -1.0112
 5894TIP3    H239174   3.371   1.366  15.823  0.5062 -1.3019  0.1963
 5895TIP3   OH239175   5.017   1.855  16.105  0.1626 -0.9604  0.3946
 5895TIP3    H139176   5.058   1.822  16.025 -0.9942  0.0168 -0.6414
 5895TIP3    H239177   5.087   1.853  16.171  1.0420 -2.1217 -0.5304
 5896TIP3   OH239178   2.371   6.280  12.836 -0.5240  0.0329  0.3860
 5896TIP3    H139179   2.337   6.249  12.919  0.4544 -0.5326  0.5943
 5896TIP3    H239180   2.340   6.215  12.772  0.1004 -0.4614  0.5689
 5897TIP3   OH239181   6.503   5.938   3.679 -0.0533  0.4161  0.2138
 5897TIP3    H139182   6.481   6.013   3.623 -0.4952 -1.3606 -2.1412
 5897TIP3    H239183   6.587   5.907   3.647  1.0790  0.9563  2.4294
 5898TIP3   OH239184   1.858   0.727  14.827 -0.2986 -0.3538 -0.0827
 5898TIP3    H139185   1.904   0.726  14.910 -0.8908  1.6812  0.3485
 5898TIP3    H239186   1.822   0.816  14.821 -1.6305 -0.9369 -1.7581
 5899TIP3   OH239187   4.995   2.690  12.000  0.5429 -0.2510 -0.3877
 5899TIP3    H139188   5.014   2.691  11.907  0.8915  2.3355 -0.3525
 5899TIP3    H239189   4.962   2.778  12.020  2.3797 -0.0322  2.2701
 5900TIP3   OH239190   1.875   1.322  14.542  0.4577 -0.1937 -0.2544
 5900TIP3    H139191   1.948   1.279  14.587 -0.6122 -0.9052  0.8481
 5900TIP3    H239192   1.844   1.256  14.479 -1.6011 -1.4239  1.8827
 5901TIP3   OH239193   0.709   6.426  15.544  0.7242  0.2368 -0.9047
 5901TIP3    H139194   0.667   6.345  15.516  2.5658 -0.5661 -1.4895
 5901TIP3    H239195   0.756   6.457  15.466  0.5605  1.5474 -0.5160
 5902TIP3   OH239196   0.464   2.273  11.299 -0.1578 -0.1176  0.0296
 5902TIP3    H139197   0.424   2.255  11.214 -0.3003  0.1248  0.0444
 5902TIP3    H239198   0.518   2.351  11.283 -1.6898  1.1047  0.6202
 5903TIP3   OH239199   3.995   1.206  12.672 -0.2875 -0.4376 -0.3763
 5903TIP3    H139200   3.995   1.136  12.607 -0.7403  1.0076 -2.0174
 5903TIP3    H239201   4.086   1.210  12.702 -0.1527 -1.3841 -0.6250
 5904TIP3   OH239202   1.789   6.715  12.736  0.0213  0.2458  0.1641
 5904TIP3    H139203   1.702   6.716  12.777 -0.4727 -1.1229 -0.7718
 5904TIP3    H239204   1.824   6.628  12.757  1.2779  0.8578  0.7087
 5905TIP3   OH239205   2.150   4.305   0.080 -0.2241  0.5366  0.3460
 5905TIP3    H139206   2.062   4.336   0.103 -0.0286  0.7932  0.7540
 5905TIP3    H239207   2.166   4.233   0.140  0.0634  0.8472  0.6469
 5906TIP3   OH239208   0.174   3.615  15.483 -0.0489  0.0134  0.3389
 5906TIP3    H139209   0.199   3.526  15.508  0.7347  0.1435  0.0641
 5906TIP3    H239210   0.102   3.604  15.421  0.6342 -0.4874 -0.3990
 5907TIP3   OH239211   1.834   1.260  15.143  0.3857 -0.4122  0.6008
 5907TIP3    H139212   1.917   1.304  15.128  0.8514 -1.5678 -0.4277
 5907TIP3    H239213   1.788   1.316  15.205  1.6220  0.6272  0.6283
 5908TIP3   OH239214   0.776   1.916  13.803 -0.1238  0.2690 -0.0560
 5908TIP3    H139215   0.727   1.991  13.837 -1.1959  0.3297 -1.5875
 5908TIP3    H239216   0.730   1.840  13.839 -0.8212  0.3407 -0.7532
 5909TIP3   OH239217   5.207   2.010   2.529 -0.3789  0.0742  0.5924
 5909TIP3    H139218   5.268   1.951   2.485 -0.1499  0.9845 -0.3353
 5909TIP3    H239219   5.260   2.086   2.552 -0.7804  0.1348  1.3499
 5910TIP3   OH239220   6.457   1.898  14.426 -0.2214 -0.7032  0.6259
 5910TIP3    H139221   6.499   1.914  14.341  0.1362 -0.9622  0.7496
 5910TIP3    H239222   6.364   1.910  14.409 -0.0248  1.0821  0.6213
 5911TIP3   OH239223   6.113   6.079  11.585 -0.2422 -0.3193 -0.6755
 5911TIP3    H139224   6.066   6.100  11.504 -2.0927  0.2436  0.4795
 5911TIP3    H239225   6.157   5.996  11.566  0.2018  0.3192 -2.5727
 5912TIP3   OH239226   0.241   2.509   3.314  0.3512 -0.3421 -0.4247
 5912TIP3    H139227   0.315   2.482   3.259 -0.5207 -0.6124 -1.4999
 5912TIP3    H239228   0.174   2.442   3.299 -0.6116  0.6100 -0.5250
 5913TIP3   OH239229   4.416   1.459   0.904 -0.1085 -0.1191  0.1140
 5913TIP3    H139230   4.430   1.470   0.809  1.5212  1.1765  0.4514
 5913TIP3    H239231   4.412   1.548   0.938 -1.7525 -0.5574  1.1681
 5914TIP3   OH239232   6.479   5.011   2.401 -0.2921 -0.5096 -0.3986
 5914TIP3    H139233   6.458   4.942   2.338 -1.1945  0.5696 -1.3287
 5914TIP3    H239234   6.436   4.984   2.482  0.6334 -1.7667 -0.2959
 5915TIP3   OH239235   5.264   5.155   0.906  0.6210 -0.0439 -0.2384
 5915TIP3    H139236   5.253   5.061   0.894 -0.6674 -0.0397  0.7064
 5915TIP3    H239237   5.202   5.178   0.976  0.9023  1.5054 -0.4610
 5916TIP3   OH239238   0.076   4.987   1.741  0.2998  0.3227 -0.7341
 5916TIP3    H139239   0.088   4.954   1.652  1.9027 -1.7689  0.1720
 5916TIP3    H239240   0.124   4.925   1.797  1.7664  3.1006  1.3538
 5917TIP3   OH239241   4.472   4.757   0.249 -0.5162  0.4759 -0.0458
 5917TIP3    H139242   4.503   4.791   0.334  0.6754 -0.4877 -0.0678
 5917TIP3    H239243   4.421   4.680   0.271 -1.3602  1.0032 -0.1318
 5918TIP3   OH239244   5.171   2.266   0.525 -0.7010  0.0105 -0.2010
 5918TIP3    H139245   5.129   2.218   0.454 -0.2790  1.6534 -1.6561
 5918TIP3    H239246   5.264   2.268   0.501 -0.8443  2.4034 -0.8043
 5919TIP3   OH239247   5.772   4.224  12.582  0.1889 -0.0990 -0.0487
 5919TIP3    H139248   5.801   4.315  12.591  1.2728 -0.4335 -0.0323
 5919TIP3    H239249   5.692   4.219  12.635 -0.7540  1.2109 -1.2596
 5920TIP3   OH239250   2.137   1.285  15.103  0.0015 -0.1573 -0.0227
 5920TIP3    H139251   2.174   1.348  15.041 -0.6194  1.1533  0.8988
 5920TIP3    H239252   2.125   1.205  15.051  0.9341  0.4259 -1.1875
 5921TIP3   OH239253   0.151   2.231   4.509 -0.1481 -0.1041  0.0988
 5921TIP3    H139254   0.060   2.246   4.532 -0.4582  1.5616 -1.8798
 5921TIP3    H239255   0.186   2.318   4.489  1.6280 -0.7985 -0.0466
 5922TIP3   OH239256   4.153   2.709  15.830  0.0833  0.1675  0.3262
 5922TIP3    H139257   4.080   2.649  15.815 -0.5026  0.6953  0.9927
 5922TIP3    H239258   4.164   2.755  15.746 -1.4852  1.2929  0.7007
 5923TIP3   OH239259   0.071   5.747   0.765 -0.0089  0.3073 -0.9119
 5923TIP3    H139260   0.055   5.774   0.855  1.0848 -2.4918  0.2328
 5923TIP3    H239261   0.161   5.775   0.747 -0.1742  0.7290 -1.0967
 5924TIP3   OH239262   4.305   5.388   1.137  0.0021  0.2893  0.1806
 5924TIP3    H139263   4.224   5.348   1.167  0.3917 -2.3127 -1.9217
 5924TIP3    H239264   4.279   5.440   1.060 -0.1419  2.4892  1.6140
 5925TIP3   OH239265   5.051   6.309   1.365 -0.0355  0.1222 -0.4617
 5925TIP3    H139266   5.076   6.323   1.273 -0.2758  1.8184 -0.2922
 5925TIP3    H239267   5.100   6.375   1.414 -1.0157  0.1898  0.4616
 5926TIP3   OH239268   3.271   2.954   1.587 -0.0058  0.1615  0.0105
 5926TIP3    H139269   3.323   2.919   1.515 -1.4136 -1.0664 -0.4765
 5926TIP3    H239270   3.305   2.909   1.665 -0.1808 -0.4702 -0.2689
 5927TIP3   OH239271   6.132   6.273   0.956 -0.0928  0.0965  0.5074
 5927TIP3    H139272   6.080   6.353   0.956  1.0810  0.8652  1.1029
 5927TIP3    H239273   6.119   6.236   1.043 -0.5553 -0.3393  0.2652
 5928TIP3   OH239274   5.720   3.630  14.620 -0.0804  0.1806  0.0666
 5928TIP3    H139275   5.794   3.636  14.559 -0.4734  1.6248 -0.3015
 5928TIP3    H239276   5.762   3.630  14.706  0.4120 -0.4834 -0.1593
 5929TIP3   OH239277   4.289   0.048   4.228  0.4609 -0.6686  0.3772
 5929TIP3    H139278   4.324   0.044   4.139 -0.9395 -1.6133 -0.1756
 5929TIP3    H239279   4.290  -0.042   4.259 -3.1572 -1.1498 -0.4411
 5930TIP3   OH239280   0.533   3.982  16.282 -0.1504 -0.3652 -0.2370
 5930TIP3    H139281   0.581   3.917  16.230 -1.6335 -1.8951  0.1971
 5930TIP3    H239282   0.566   4.066  16.253  1.8238 -1.3036 -0.8833
 5931TIP3   OH239283   1.505   3.302  11.169  0.1924  0.6562 -0.0436
 5931TIP3    H139284   1.476   3.319  11.079  2.3170  0.8861 -0.7475
 5931TIP3    H239285   1.594   3.337  11.172  0.4307 -0.0068  1.9514
 5932TIP3   OH239286   3.273   1.018  12.595 -0.1224 -0.1536 -0.5389
 5932TIP3    H139287   3.239   0.972  12.672  0.3968  0.5217  0.1086
 5932TIP3    H239288   3.196   1.059  12.556 -0.3379 -0.2012 -0.1679
 5933TIP3   OH239289   1.611   1.668   5.549 -0.7582  0.4625 -0.4689
 5933TIP3    H139290   1.665   1.727   5.602  0.4321 -0.2224 -0.8624
 5933TIP3    H239291   1.611   1.707   5.462 -0.8121  0.4137 -0.4904
 5934TIP3   OH239292   1.071   2.021   5.339  0.5330 -0.8949  0.5434
 5934TIP3    H139293   1.077   2.117   5.342  3.3630 -1.0069  2.6459
 5934TIP3    H239294   1.005   1.999   5.404 -0.3088 -0.3911 -0.1229
 5935TIP3   OH239295   2.871   0.096   3.495  0.9220  0.0925 -0.0736
 5935TIP3    H139296   2.851   0.068   3.406  1.4315  0.4483 -0.3022
 5935TIP3    H239297   2.913   0.020   3.535  1.8716  0.3647 -0.5441
 5936TIP3   OH239298   3.281   3.853  14.077 -0.3165  0.0407  0.1806
 5936TIP3    H139299   3.276   3.838  13.983 -1.9802  0.6042  0.1378
 5936TIP3    H239300   3.323   3.775  14.112 -0.1981 -0.4250 -0.9663
 5937TIP3   OH239301   1.098   4.292   3.735 -0.3615 -0.0647  0.1393
 5937TIP3    H139302   1.011   4.301   3.696 -1.4196 -1.7274  1.9306
 5937TIP3    H239303   1.135   4.380   3.731 -1.7395  0.4986 -1.4901
 5938TIP3   OH239304   3.332   3.207  10.900 -0.1631  0.1941  0.2435
 5938TIP3    H139305   3.422   3.183  10.877 -0.1606  0.3459  0.0905
 5938TIP3    H239306   3.282   3.191  10.821 -0.6488 -1.8118  0.9188
 5939TIP3   OH239307   2.168   5.161  15.969 -0.1431  0.0161 -0.2505
 5939TIP3    H139308   2.227   5.103  16.017 -1.6082 -2.5716 -1.3976
 5939TIP3    H239309   2.081   5.123  15.981 -0.9902  1.1665 -2.2441
 5940TIP3   OH239310   3.179   3.622  11.146 -0.7111 -0.5443 -0.9250
 5940TIP3    H139311   3.185   3.644  11.239  0.0230  1.1401 -1.3383
 5940TIP3    H239312   3.269   3.610  11.117 -0.9219 -0.9273 -1.4622
 5941TIP3   OH239313   0.330   3.828  11.435  0.0526  0.0150 -0.4583
 5941TIP3    H139314   0.364   3.884  11.506  0.4467 -1.6234  0.6961
 5941TIP3    H239315   0.354   3.739  11.462 -1.3307 -0.7958 -1.8184
 5942TIP3   OH239316   2.649   4.543   6.731  0.1950  0.2091 -0.1036
 5942TIP3    H139317   2.722   4.482   6.737  0.3282  0.0557 -2.3482
 5942TIP3    H239318   2.582   4.496   6.681 -2.1508 -0.2105  3.1035
 5943TIP3   OH239319   6.527   5.403   4.650 -0.1643  0.0852  0.1143
 5943TIP3    H139320   6.431   5.403   4.649 -0.2217 -1.1927  1.6708
 5943TIP3    H239321   6.551   5.483   4.604 -1.9612  0.2561 -0.6424
 5944TIP3   OH239322   5.924   6.805   1.785 -0.3422  0.6586 -0.1899
 5944TIP3    H139323   6.018   6.809   1.767 -0.7057  1.2963 -2.2025
 5944TIP3    H239324   5.907   6.712   1.800  0.1767  0.0497 -2.7839
 5945TIP3   OH239325   6.592   4.671  12.643  0.1388  0.6702 -0.4609
 5945TIP3    H139326   6.540   4.736  12.595  0.2490 -1.4707 -3.8343
 5945TIP3    H239327   6.658   4.643  12.580  2.1795 -0.4165  1.9866
 5946TIP3   OH239328   1.641   4.315   4.484 -0.2168  0.2758 -0.0013
 5946TIP3    H139329   1.552   4.349   4.479  0.0150  0.9648  0.4133
 5946TIP3    H239330   1.634   4.224   4.455 -0.9960  0.4216 -0.2827
 5947TIP3   OH239331   5.617   3.411  12.407 -0.0240  0.0886 -0.4565
 5947TIP3    H139332   5.688   3.430  12.469 -1.0626  2.1725  0.1640
 5947TIP3    H239333   5.548   3.373  12.461 -1.1540  2.4333 -0.1435
 5948TIP3   OH239334   3.805   1.361   3.744  0.8611 -0.3926  0.0645
 5948TIP3    H139335   3.854   1.433   3.783  0.8532  0.3722 -1.2819
 5948TIP3    H239336   3.865   1.287   3.746  1.1835 -0.1277  0.6409
 5949TIP3   OH239337   5.685   0.033   5.926  0.1657 -0.2520 -0.0834
 5949TIP3    H139338   5.728   0.010   6.008  0.4757 -1.4556 -0.5653
 5949TIP3    H239339   5.749   0.087   5.880 -0.5297  1.6377  1.0110
 5950TIP3   OH239340   2.762   3.086  13.981 -0.0463  0.3997  0.0284
 5950TIP3    H139341   2.770   3.170  14.025  0.4426  0.4876 -0.2330
 5950TIP3    H239342   2.668   3.067  13.983 -0.0989  0.7064  0.5402
 5951TIP3   OH239343   4.758   4.642  16.825  0.3649 -0.0223 -0.4684
 5951TIP3    H139344   4.671   4.602  16.817  0.0040  0.9196 -1.6047
 5951TIP3    H239345   4.818   4.568  16.831 -0.2996 -0.7822 -2.3282
 5952TIP3   OH239346   1.841   6.433  13.649 -0.1830  0.4863 -0.3743
 5952TIP3    H139347   1.861   6.357  13.594 -0.9670  0.1519 -0.2113
 5952TIP3    H239348   1.844   6.400  13.738  4.0119  1.6384  0.1332
 5953TIP3   OH239349   2.242   3.626   4.172  0.3641 -0.1868 -0.5398
 5953TIP3    H139350   2.185   3.563   4.217 -1.4967 -0.0907 -2.5899
 5953TIP3    H239351   2.286   3.673   4.243 -2.7717  0.3204  1.2963
 5954TIP3   OH239352   1.028   0.822  15.594  0.3222  0.3859  0.4914
 5954TIP3    H139353   1.116   0.784  15.591 -0.1820 -0.7523 -1.2014
 5954TIP3    H239354   1.039   0.910  15.557  0.9574  0.8072  1.6068
 5955TIP3   OH239355   4.958   0.542  14.199  0.2535  0.3616 -0.1115
 5955TIP3    H139356   4.873   0.539  14.156 -0.2793 -0.0120  0.9266
 5955TIP3    H239357   4.943   0.594  14.278  1.3984  1.7579 -0.7479
 5956TIP3   OH239358   6.449   5.336   1.515  0.2426  0.2427 -0.3296
 5956TIP3    H139359   6.486   5.248   1.512 -0.7607 -0.1680 -2.7432
 5956TIP3    H239360   6.357   5.324   1.538  0.1186  0.6732 -0.5847
 5957TIP3   OH239361   6.235   5.210  14.327 -0.3369 -0.0147  0.0971
 5957TIP3    H139362   6.208   5.278  14.389 -1.4006 -0.6542  0.3557
 5957TIP3    H239363   6.327   5.229  14.310 -0.7145  1.7366 -0.1674
 5958TIP3   OH239364   5.326   2.318   2.571 -0.1662  0.4806  0.6520
 5958TIP3    H139365   5.335   2.286   2.661  1.9727  0.7076  0.5841
 5958TIP3    H239366   5.250   2.376   2.573 -1.3169 -0.9668  1.8432
 5959TIP3   OH239367   1.410   2.724  16.763  0.3600  0.7105 -0.2606
 5959TIP3    H139368   1.430   2.725  16.857  0.5493  1.2513 -0.2983
 5959TIP3    H239369   1.489   2.688  16.722  0.0454 -0.0898 -0.1677
 5960TIP3   OH239370   4.641   4.557   2.952 -0.1329  0.1960  0.4436
 5960TIP3    H139371   4.632   4.490   2.884 -0.3955 -0.7825  1.4142
 5960TIP3    H239372   4.583   4.627   2.925  0.9110  0.5019 -1.1244
 5961TIP3   OH239373   0.710   4.459  16.547 -0.0969 -0.2666  0.6513
 5961TIP3    H139374   0.744   4.380  16.589 -0.4212 -0.9257 -0.3003
 5961TIP3    H239375   0.624   4.472  16.586 -0.0804 -0.4282  0.7439
 5962TIP3   OH239376   5.132   2.524   1.916  0.6840 -0.0437 -0.1276
 5962TIP3    H139377   5.046   2.491   1.943 -0.3297  3.0721  0.9955
 5962TIP3    H239378   5.194   2.458   1.944 -1.2355 -1.8022  0.2164
 5963TIP3   OH239379   5.885   4.791   1.300 -0.4623 -0.3420 -0.0628
 5963TIP3    H139380   5.812   4.843   1.334  0.7313  0.9445  0.6013
 5963TIP3    H239381   5.903   4.727   1.368  0.3702  0.6896  0.7073
 5964TIP3   OH239382   4.081   3.739   1.980 -0.2576  0.2565  0.1985
 5964TIP3    H139383   4.075   3.832   1.957 -1.0611 -0.2239 -1.7878
 5964TIP3    H239384   4.167   3.712   1.950 -0.2756  0.2172  0.1820
 5965TIP3   OH239385   3.130   0.881   2.278 -0.3384  0.7492 -0.1512
 5965TIP3    H139386   3.058   0.849   2.222 -0.4284 -0.4392  0.6052
 5965TIP3    H239387   3.208   0.837   2.244 -0.1773  1.0384 -0.1587
 5966TIP3   OH239388   0.509   0.102  13.017 -0.5801 -0.2516 -0.3462
 5966TIP3    H139389   0.568   0.144  12.955 -2.7580 -0.0480 -2.4101
 5966TIP3    H239390   0.533   0.138  13.102  1.1535  1.0384 -1.3284
 5967TIP3   OH239391   6.750   0.269   2.124  0.0299 -0.1979 -0.0522
 5967TIP3    H139392   6.674   0.293   2.177  0.4386  0.0661  0.4273
 5967TIP3    H239393   6.721   0.280   2.034 -0.3295  0.4527  0.1368
 5968TIP3   OH239394   1.290   0.677   5.596 -0.2635 -0.7659 -0.4070
 5968TIP3    H139395   1.324   0.619   5.528  0.1372 -1.4452  0.3586
 5968TIP3    H239396   1.364   0.733   5.618 -1.2406  1.7188 -2.7792
 5969TIP3   OH239397   3.363   4.160  13.893  0.7014  0.3164  0.0145
 5969TIP3    H139398   3.381   4.154  13.799  0.8913  0.8654  0.0105
 5969TIP3    H239399   3.268   4.149  13.900  0.6715  0.3863 -0.2524
 5970TIP3   OH239400   1.576   3.623  11.581  0.1603 -0.1380  0.3337
 5970TIP3    H139401   1.560   3.557  11.513  0.5868 -1.1474  1.1853
 5970TIP3    H239402   1.499   3.619  11.637  0.5623 -0.5530  0.8764
 5971TIP3   OH239403   3.383   1.601  14.312  0.2323  0.1181 -0.1708
 5971TIP3    H139404   3.421   1.675  14.360  0.4038 -0.2225  0.2363
 5971TIP3    H239405   3.416   1.611  14.223  2.0241 -0.6399  0.3566
 5972TIP3   OH239406   3.915   4.363   0.284 -0.0362  0.0733 -0.2935
 5972TIP3    H139407   3.934   4.435   0.344 -0.2662  1.1101 -1.4284
 5972TIP3    H239408   3.830   4.386   0.246 -0.5255 -1.2472 -0.0206
 5973TIP3   OH239409   2.399   5.326  11.244  0.3520  0.1358  0.6079
 5973TIP3    H139410   2.344   5.384  11.296  2.3794  2.0631  0.7590
 5973TIP3    H239411   2.339   5.284  11.182 -1.4136  1.2811  1.4752
 5974TIP3   OH239412   3.066   1.758   2.513 -0.2980 -0.6047  0.0492
 5974TIP3    H139413   3.121   1.687   2.479  0.3673 -0.2350  0.3332
 5974TIP3    H239414   3.112   1.838   2.488  0.0059 -0.3105  1.4692
 5975TIP3   OH239415   0.074   3.157   4.111  0.5678  0.2927 -0.3432
 5975TIP3    H139416   0.088   3.131   4.202 -0.3001 -0.1763 -0.3368
 5975TIP3    H239417  -0.009   3.118   4.087  0.3914  1.0873 -1.0887
 5976TIP3   OH239418   4.749   4.296  17.074 -0.1311  0.1265  0.0403
 5976TIP3    H139419   4.696   4.364  17.116  0.8335  0.2724  1.0757
 5976TIP3    H239420   4.783   4.244  17.146 -1.3858 -1.9026 -0.7713
 5977TIP3   OH239421   4.841   3.547   5.936 -0.5105  0.6166 -0.2979
 5977TIP3    H139422   4.831   3.613   6.004 -1.1390  0.4776 -0.2486
 5977TIP3    H239423   4.890   3.476   5.978  0.1804  1.0467 -0.3555
 5978TIP3   OH239424   4.979   0.271  14.136 -0.4356 -0.1014  0.0306
 5978TIP3    H139425   4.978   0.291  14.043 -1.3756 -1.3194 -0.2444
 5978TIP3    H239426   4.975   0.356  14.179 -0.6720  0.4481 -1.0464
 5979TIP3   OH239427   2.287   1.153  12.345  0.0092 -0.7610  0.0008
 5979TIP3    H139428   2.308   1.228  12.289 -1.3996 -1.2903 -1.3059
 5979TIP3    H239429   2.365   1.142  12.400  1.4179 -0.1178 -1.7567
 5980TIP3   OH239430   5.313   6.225  14.478  0.4581 -0.4832 -0.5613
 5980TIP3    H139431   5.227   6.261  14.457  1.6873  2.3279 -1.2550
 5980TIP3    H239432   5.316   6.140  14.434 -0.9773  0.5459 -2.7832
 5981TIP3   OH239433   2.872   5.924   1.297 -0.2704  0.0942  0.6053
 5981TIP3    H139434   2.814   5.958   1.229  0.3870  0.1297  0.0518
 5981TIP3    H239435   2.886   5.998   1.357  0.7304  0.6770 -0.3092
 5982TIP3   OH239436   2.651   4.528  15.196 -0.3740 -0.6128  0.0435
 5982TIP3    H139437   2.630   4.594  15.131 -1.2794 -0.3781  0.5651
 5982TIP3    H239438   2.579   4.465  15.192  0.6839 -1.8327 -0.7592
 5983TIP3   OH239439   6.716   2.915   1.004 -0.2651 -0.5574  0.3088
 5983TIP3    H139440   6.734   2.865   0.924  1.2739  0.6110 -0.1275
 5983TIP3    H239441   6.801   2.924   1.046 -1.0238 -0.9821  2.0273
 5984TIP3   OH239442   0.294   4.671   5.767  0.0950 -0.1442  0.1061
 5984TIP3    H139443   0.335   4.626   5.693 -0.1376 -2.0460  1.0803
 5984TIP3    H239444   0.358   4.663   5.838  0.0182  1.0555  0.3377
 5985TIP3   OH239445   3.707   1.840   1.461  0.0825 -0.0298  0.0296
 5985TIP3    H139446   3.787   1.891   1.469  0.1923  0.1506 -1.8115
 5985TIP3    H239447   3.738   1.749   1.452 -0.0348 -0.2263  1.4100
 5986TIP3   OH239448   2.437   6.790  12.502 -0.1206 -0.2807  0.2623
 5986TIP3    H139449   2.399   6.815  12.586 -0.2251  1.8600 -0.3713
 5986TIP3    H239450   2.532   6.799  12.515 -0.1122 -0.3956  0.2812
 5987TIP3   OH239451   2.550   2.951  12.540 -0.0114  0.5709  0.3925
 5987TIP3    H139452   2.457   2.977  12.542  0.1350  1.0648  1.0554
 5987TIP3    H239453   2.598   3.033  12.545  0.4635  0.2591  1.0359
 5988TIP3   OH239454   4.411   1.129  11.306 -0.1727  0.0787 -0.2804
 5988TIP3    H139455   4.403   1.222  11.328 -1.4915  0.1896 -1.1189
 5988TIP3    H239456   4.345   1.086  11.362  0.1592 -0.2972 -0.1752
 5989TIP3   OH239457   5.114   4.119  14.126  0.0182 -0.2843 -0.4455
 5989TIP3    H139458   5.053   4.113  14.199  1.7092 -0.0840  1.0620
 5989TIP3    H239459   5.129   4.213  14.115  1.8418 -0.3687  0.8399
 5990TIP3   OH239460   3.018   5.547   2.650  0.4389 -0.2518  0.5475
 5990TIP3    H139461   3.055   5.635   2.648  2.9944 -1.2310 -1.4491
 5990TIP3    H239462   2.932   5.558   2.688 -0.2779  3.4977 -1.6290
 5991TIP3   OH239463   1.214   6.809  12.866  0.0035 -0.0093 -0.1670
 5991TIP3    H139464   1.142   6.778  12.922  1.0520 -2.9741 -0.2643
 5991TIP3    H239465   1.171   6.846  12.790 -1.5156 -2.1613 -0.4530
 5992TIP3   OH239466   3.949   5.046  15.464  0.1962 -0.0935 -0.3800
 5992TIP3    H139467   3.874   5.049  15.405  0.3829  1.0722 -0.5746
 5992TIP3    H239468   3.945   5.128  15.513  0.4877 -0.6947  0.6944
 5993TIP3   OH239469   6.146   4.271   4.678 -0.0208 -0.0891 -0.2526
 5993TIP3    H139470   6.126   4.179   4.660  1.2679 -0.4157 -0.0885
 5993TIP3    H239471   6.078   4.298   4.740 -0.8377 -0.7099 -0.8595
 5994TIP3   OH239472   0.906   1.167   2.450  0.4030  0.0668  0.0898
 5994TIP3    H139473   0.937   1.127   2.369 -1.7326 -0.1842 -0.6471
 5994TIP3    H239474   0.811   1.163   2.445  0.1643  2.1363  1.5860
 5995TIP3   OH239475   0.101   5.909  14.629 -0.0406  0.3457  0.3333
 5995TIP3    H139476   0.083   5.992  14.674  1.6232  0.8305  0.1772
 5995TIP3    H239477   0.088   5.930  14.536  1.1253  0.6751  0.2271
 5996TIP3   OH239478   2.749   6.246  13.125 -0.4211  0.1218  0.0469
 5996TIP3    H139479   2.713   6.179  13.067  0.9795 -1.5022  0.9659
 5996TIP3    H239480   2.702   6.236  13.207 -0.8488  0.9147 -0.0905
 5997TIP3   OH239481   4.357   5.525   4.095  0.1993 -0.0181 -0.2245
 5997TIP3    H139482   4.437   5.523   4.149  0.2091  0.1516 -0.2315
 5997TIP3    H239483   4.295   5.470   4.143  0.0379  0.5543  0.2353
 5998TIP3   OH239484   3.801   0.315  14.022 -0.2440  0.3408  0.7729
 5998TIP3    H139485   3.828   0.310  14.114 -0.1178  0.1148  0.7230
 5998TIP3    H239486   3.842   0.395  13.990  1.1182 -0.4482  0.4556
 5999TIP3   OH239487   4.435   5.620   0.950  0.0414  0.1720  0.2347
 5999TIP3    H139488   4.441   5.702   0.901  1.4024 -0.3527 -0.5501
 5999TIP3    H239489   4.441   5.645   1.042  0.7618  0.9404 -0.0098
 6000TIP3   OH239490   4.380   4.561  16.704 -0.3985  0.0142  0.0749
 6000TIP3    H139491   4.341   4.476  16.683  1.6325 -1.4584  1.8412
 6000TIP3    H239492   4.444   4.542  16.773  0.9974  2.7981 -0.3017
 6001TIP3   OH239493   5.667   0.018   0.409 -0.0565  0.1820 -0.1850
 6001TIP3    H139494   5.657  -0.075   0.428 -1.6561 -0.0373 -1.8613
 6001TIP3    H239495   5.744   0.044   0.459  0.4853 -2.0508  0.2574
 6002TIP3   OH239496   0.481   1.871   1.014  0.3383 -0.1732 -0.3362
 6002TIP3    H139497   0.524   1.877   1.099  1.2587 -0.8072 -0.7480
 6002TIP3    H239498   0.395   1.910   1.028  1.4365  2.2498  0.2179
 6003TIP3   OH239499   5.688   0.431  13.810  0.5090 -0.7504 -0.7635
 6003TIP3    H139500   5.691   0.372  13.735 -0.0709 -0.5994 -0.9057
 6003TIP3    H239501   5.778   0.465  13.817 -0.0790  1.8328 -3.4982
 6004TIP3   OH239502   2.125   5.504  12.795  0.7121  0.4548  0.0877
 6004TIP3    H139503   2.098   5.556  12.720  1.4644 -1.2924 -1.4724
 6004TIP3    H239504   2.073   5.424  12.789 -1.1758  1.3142  3.0177
 6005TIP3   OH239505   4.857   4.159   5.226 -0.0755 -0.3349  0.8883
 6005TIP3    H139506   4.910   4.079   5.232 -1.0380 -0.9634  1.3874
 6005TIP3    H239507   4.825   4.159   5.136 -0.5136 -0.8145  1.0391
 6006TIP3   OH239508   5.998   2.729   4.083 -0.0628 -0.3275 -0.8423
 6006TIP3    H139509   6.015   2.636   4.098  0.6884 -0.2141 -0.9304
 6006TIP3    H239510   5.988   2.736   3.988 -2.6723 -0.7034 -0.6715
 6007TIP3   OH239511   0.365   1.451   4.849  0.1898 -0.2486  0.2498
 6007TIP3    H139512   0.432   1.417   4.790  0.4547  0.1716  0.3015
 6007TIP3    H239513   0.353   1.381   4.914  3.2051  0.9773  2.3798
 6008TIP3   OH239514   0.705   2.395  12.873  0.1609  0.6761  0.0885
 6008TIP3    H139515   0.703   2.432  12.785 -3.1650 -1.1755 -0.7792
 6008TIP3    H239516   0.685   2.469  12.931 -0.6540  1.3471 -1.0214
 6009TIP3   OH239517   4.296   0.890   4.652 -0.3135  0.3727  0.3974
 6009TIP3    H139518   4.257   0.818   4.701  0.1817 -0.5514 -0.5180
 6009TIP3    H239519   4.287   0.864   4.560 -1.0255  1.9539 -0.0303
 6010TIP3   OH239520   4.619   0.455  13.840 -0.1359 -0.2407  0.1716
 6010TIP3    H139521   4.549   0.468  13.776  0.6349 -0.0559 -0.6624
 6010TIP3    H239522   4.635   0.360  13.840 -0.7173 -0.3460  0.7408
 6011TIP3   OH239523   5.077   0.429   0.856 -0.6937  0.2434 -0.4230
 6011TIP3    H139524   5.044   0.372   0.926  0.0057  0.1581 -0.1532
 6011TIP3    H239525   5.035   0.513   0.872  1.5319  1.0579  1.8225
 6012TIP3   OH239526   5.555   5.842  12.611 -0.2187  0.3016  0.2418
 6012TIP3    H139527   5.549   5.787  12.689  0.4418  1.4683  1.1311
 6012TIP3    H239528   5.566   5.779  12.539 -0.0253 -0.7491  1.1565
 6013TIP3   OH239529   4.447   2.281   6.361  0.2557  0.3277 -0.2920
 6013TIP3    H139530   4.518   2.315   6.415 -2.3754  2.5608  2.0768
 6013TIP3    H239531   4.382   2.249   6.424 -1.5211 -0.1852 -2.2678
 6014TIP3   OH239532   5.123   3.650   5.136 -0.0329 -0.1216  0.3983
 6014TIP3    H139533   5.053   3.593   5.104 -0.0179  0.0834 -0.0023
 6014TIP3    H239534   5.193   3.642   5.071 -0.9027  2.0898 -0.9214
 6015TIP3   OH239535   3.921   1.423  10.677 -0.2679 -0.2920 -0.2549
 6015TIP3    H139536   3.913   1.505  10.627 -0.7363 -0.7210 -0.8934
 6015TIP3    H239537   3.891   1.446  10.765 -3.6934 -0.5520 -1.2149
 6016TIP3   OH239538   3.725   5.958   2.036 -0.0804 -0.0256 -0.0841
 6016TIP3    H139539   3.635   5.935   2.015 -0.3580  0.1281  0.8681
 6016TIP3    H239540   3.759   5.880   2.081 -0.4532  0.7009  1.5322
 6017TIP3   OH239541   1.927   0.342  12.298 -0.1177 -0.6783  0.2619
 6017TIP3    H139542   2.018   0.322  12.277  0.3553  1.7511 -0.3814
 6017TIP3    H239543   1.901   0.406  12.231 -2.2272 -1.1498  0.5742
 6018TIP3   OH239544   2.237   5.439   4.205 -0.2563 -0.0919 -0.1803
 6018TIP3    H139545   2.297   5.366   4.224  0.9010  0.7183 -0.6001
 6018TIP3    H239546   2.204   5.420   4.117 -0.4384 -0.4196 -0.0442
 6019TIP3   OH239547   2.121   5.439   0.431  0.4818  0.2122 -0.4737
 6019TIP3    H139548   2.169   5.411   0.353 -1.1055 -2.8696 -0.5088
 6019TIP3    H239549   2.031   5.413   0.414 -0.5587  2.5041  1.0902
 6020TIP3   OH239550   0.301   3.721  14.862 -0.0502  0.1924 -0.6660
 6020TIP3    H139551   0.260   3.763  14.786 -1.9090  0.4278  0.3920
 6020TIP3    H239552   0.299   3.788  14.930  1.5745 -0.0239 -0.3795
 6021TIP3   OH239553   1.296   6.579   5.812  0.0126 -0.0822 -0.0779
 6021TIP3    H139554   1.292   6.551   5.904  0.3737  1.5775  0.4859
 6021TIP3    H239555   1.226   6.644   5.805 -0.7626 -1.0138 -1.3107
 6022TIP3   OH239556   0.924   3.131  16.776  0.3281  0.4158  0.0930
 6022TIP3    H139557   0.997   3.076  16.807  0.1044 -0.0230 -0.1349
 6022TIP3    H239558   0.846   3.078  16.793 -0.0621  1.4093  1.4967
 6023TIP3   OH239559   3.723   1.335  11.324 -0.3902  0.4979 -0.4025
 6023TIP3    H139560   3.751   1.309  11.412  0.4463 -0.6203 -0.9779
 6023TIP3    H239561   3.652   1.275  11.302  0.7057 -0.5362 -1.2387
 6024TIP3   OH239562   3.179   1.515   4.795  0.5857 -0.6612 -0.0677
 6024TIP3    H139563   3.190   1.425   4.826 -0.6642 -0.3653  1.3971
 6024TIP3    H239564   3.217   1.569   4.864  0.5178 -0.0434 -0.5071
 6025TIP3   OH239565   3.424   3.167   1.753  0.2302  0.0787 -0.0633
 6025TIP3    H139566   3.506   3.131   1.786  1.4172  0.8301 -2.0011
 6025TIP3    H239567   3.423   3.143   1.661 -2.6728 -1.4821  0.2753
 6026TIP3   OH239568   6.157   3.459   0.931  0.0698  0.0704  0.2358
 6026TIP3    H139569   6.229   3.510   0.893  1.4982 -0.8544  1.5962
 6026TIP3    H239570   6.078   3.508   0.906  1.1538  1.2583 -1.0934
 6027TIP3   OH239571   0.289   6.731  12.930 -0.2777 -0.0018  0.2952
 6027TIP3    H139572   0.358   6.783  12.972  0.5422  0.0764 -1.0982
 6027TIP3    H239573   0.281   6.653  12.985  2.6957 -1.2360 -0.7751
 6028TIP3   OH239574   3.001   0.721  11.403  0.3471  0.3381  0.3737
 6028TIP3    H139575   3.050   0.768  11.470  1.8072  2.1586 -1.8358
 6028TIP3    H239576   2.919   0.769  11.394  0.9288  1.2259 -0.3713
 6029TIP3   OH239577   2.372   1.035   0.296  0.6481  0.1746  0.3388
 6029TIP3    H139578   2.292   1.070   0.336  0.4914  1.3493 -0.9218
 6029TIP3    H239579   2.387   1.091   0.220  1.5939 -1.2387 -0.5632
 6030TIP3   OH239580   6.159   5.336  15.871  0.0704  0.0970 -0.5218
 6030TIP3    H139581   6.174   5.378  15.786  3.6318 -0.2496 -0.2242
 6030TIP3    H239582   6.247   5.323  15.907 -1.2375 -1.1359  2.5864
 6031TIP3   OH239583   4.882   5.377  11.960  0.4116  0.2373 -0.4307
 6031TIP3    H139584   4.803   5.336  11.995  0.7354  0.1014  0.1499
 6031TIP3    H239585   4.914   5.432  12.031  1.2042 -0.2270 -0.4188
 6032TIP3   OH239586   3.965   4.643   4.377  0.4698  0.0786 -0.0860
 6032TIP3    H139587   3.982   4.571   4.439 -0.5665 -0.7448 -0.7124
 6032TIP3    H239588   3.876   4.671   4.398  0.2106 -0.0290 -1.0191
 6033TIP3   OH239589   0.554   5.888   2.546  0.5496  0.3875  0.3780
 6033TIP3    H139590   0.464   5.856   2.549  0.7476 -0.1806  0.2691
 6033TIP3    H239591   0.577   5.902   2.638  0.1552  1.1098  0.3816
 6034TIP3   OH239592   3.562   2.837  13.889  0.3458 -0.7460  0.0012
 6034TIP3    H139593   3.505   2.850  13.814  0.1055 -0.4129  0.2372
 6034TIP3    H239594   3.623   2.769  13.862  0.9898  0.1556 -0.9157
 6035TIP3   OH239595   2.658   6.376   0.593  0.2524 -0.0396  0.0910
 6035TIP3    H139596   2.743   6.352   0.631 -0.6034 -2.4987  0.6699
 6035TIP3    H239597   2.619   6.292   0.568 -2.7591  0.8314  1.4426
 6036TIP3   OH239598   4.846   3.907  14.479 -0.3101 -0.0889 -0.4188
 6036TIP3    H139599   4.813   3.982  14.529  1.0346 -0.3827  1.0019
 6036TIP3    H239600   4.933   3.890  14.516 -0.5702 -2.3330 -0.7079
 6037TIP3   OH239601   4.694   0.316   5.861 -0.1118  0.7848  0.1035
 6037TIP3    H139602   4.643   0.235   5.858 -1.1868  1.4745 -1.4406
 6037TIP3    H239603   4.636   0.382   5.822  0.9353  2.1897  0.8612
 6038TIP3   OH239604   0.605   2.928  14.193  0.3592  0.3601  0.2046
 6038TIP3    H139605   0.569   3.011  14.163  2.0139  1.2209  0.5086
 6038TIP3    H239606   0.683   2.915  14.140  0.1971 -0.9528  0.2524
 6039TIP3   OH239607   0.519   3.910  14.103  0.9236 -0.5118 -0.0390
 6039TIP3    H139608   0.448   3.908  14.167 -0.7399 -2.5513 -1.7853
 6039TIP3    H239609   0.562   3.994  14.118 -1.4978  0.5812  1.4671
 6040TIP3   OH239610   1.902   6.580   5.171 -0.3561  0.0718  0.0079
 6040TIP3    H139611   1.929   6.506   5.118 -1.0574  1.4745 -2.4355
 6040TIP3    H239612   1.889   6.651   5.109 -3.7539  1.1531  1.7270
 6041TIP3   OH239613   1.280   1.450   4.377 -0.2766 -0.6754 -0.3890
 6041TIP3    H139614   1.214   1.497   4.429 -0.1043 -0.0855 -0.6948
 6041TIP3    H239615   1.255   1.466   4.286  0.5194 -0.0850 -0.5210
 6042TIP3   OH239616   5.530   4.159   6.854 -0.1004 -0.0291  0.3207
 6042TIP3    H139617   5.439   4.179   6.835 -0.4222 -0.4509  1.3673
 6042TIP3    H239618   5.528   4.073   6.896  1.0594 -1.4652 -2.3037
 6043TIP3   OH239619   1.345   0.117  10.708  0.0593  0.2287 -0.2332
 6043TIP3    H139620   1.268   0.163  10.673 -0.7256 -0.5878  0.3575
 6043TIP3    H239621   1.365   0.050  10.643  0.7378  0.8991 -0.7337
 6044TIP3   OH239622   2.738   5.428  15.997 -0.6297  0.5845  0.0045
 6044TIP3    H139623   2.701   5.515  15.982 -0.8348  0.4137 -0.5101
 6044TIP3    H239624   2.827   5.445  16.027 -1.0062  0.9885  0.9391
 6045TIP3   OH239625   3.004   1.784   4.480  0.5802 -0.2229  0.2816
 6045TIP3    H139626   3.044   1.703   4.511 -1.7101 -1.3023  0.5700
 6045TIP3    H239627   2.953   1.816   4.554 -0.3013  0.3000 -0.5331
 6046TIP3   OH239628   4.170   2.629   3.371 -0.2517  0.1581  0.6864
 6046TIP3    H139629   4.215   2.705   3.407  0.5843  0.9606 -1.8511
 6046TIP3    H239630   4.239   2.576   3.332 -1.1625 -0.1632 -0.5555
 6047TIP3   OH239631   5.745   4.239   5.309  0.1339  0.0280 -0.8710
 6047TIP3    H139632   5.741   4.250   5.404  0.3488 -0.9737 -0.7375
 6047TIP3    H239633   5.669   4.184   5.288  1.0115 -1.1488 -1.0596
 6048TIP3   OH239634   4.887   0.021  11.305  0.0868 -0.5368  0.6684
 6048TIP3    H139635   4.971   0.047  11.268  0.8307 -0.7518  2.1079
 6048TIP3    H239636   4.907  -0.057  11.357 -1.1873 -1.1371  0.3049
 6049TIP3   OH239637   6.777   5.215   3.884  0.1842 -0.6158  0.1509
 6049TIP3    H139638   6.685   5.238   3.871  0.2061  1.2311  2.4606
 6049TIP3    H239639   6.775   5.125   3.918 -0.9129 -0.1850  1.3028
 6050TIP3   OH239640   3.376   6.123  14.301  0.6639 -0.3055 -0.5039
 6050TIP3    H139641   3.454   6.176  14.284  0.5426 -0.1539 -0.5843
 6050TIP3    H239642   3.362   6.074  14.220  0.2477  0.2108 -0.7478
 6051TIP3   OH239643   1.430   3.271   2.291 -0.1934 -0.2694 -0.4136
 6051TIP3    H139644   1.363   3.338   2.282  0.4179  0.2944 -0.7885
 6051TIP3    H239645   1.382   3.193   2.320 -1.0497  0.0460 -0.9570
 6052TIP3   OH239646   3.423   6.756   0.875 -0.5377  0.3270 -0.0171
 6052TIP3    H139647   3.379   6.769   0.791 -0.3778 -0.5239 -0.2446
 6052TIP3    H239648   3.358   6.781   0.941 -0.5395  1.3536 -0.3913
 6053TIP3   OH239649   1.193   0.306   0.125  0.0220  0.1166 -0.0278
 6053TIP3    H139650   1.199   0.213   0.104 -0.0613 -0.1484  1.0470
 6053TIP3    H239651   1.121   0.311   0.188 -0.0761  0.9334 -0.2006
 6054TIP3   OH239652   1.997   4.472   0.627 -0.6259  0.1619  0.1912
 6054TIP3    H139653   1.932   4.532   0.664  1.1656  1.0877  1.9720
 6054TIP3    H239654   2.081   4.507   0.655  0.5929 -1.9845 -0.5794
 6055TIP3   OH239655   5.658   0.450  15.089 -0.2236  0.8798  0.8667
 6055TIP3    H139656   5.615   0.474  15.007 -0.8148 -1.6200  0.3388
 6055TIP3    H239657   5.660   0.354  15.086  0.9789  0.7903  3.1633
 6056TIP3   OH239658   6.304   6.463  11.261 -0.0988 -0.0859 -0.3535
 6056TIP3    H139659   6.366   6.438  11.192  0.1495 -0.1590 -0.1057
 6056TIP3    H239660   6.251   6.385  11.275  1.6927 -1.0620  1.5258
 6057TIP3   OH239661   3.209   4.261  16.217 -0.1774 -0.2831 -0.1546
 6057TIP3    H139662   3.134   4.247  16.159  0.6383 -3.4917 -0.6567
 6057TIP3    H239663   3.201   4.191  16.283  1.0498  0.8639  1.2721
 6058TIP3   OH239664   2.310   5.460  10.540  0.2862 -0.2896  0.4070
 6058TIP3    H139665   2.360   5.393  10.494  0.9829 -0.9301  2.0449
 6058TIP3    H239666   2.287   5.523  10.472  1.1886 -1.2451 -0.8282
 6059TIP3   OH239667   3.368   3.880  15.133  0.4906 -0.1017 -0.4294
 6059TIP3    H139668   3.462   3.869  15.124  0.6606  2.0262 -2.2420
 6059TIP3    H239669   3.358   3.956  15.192 -0.0342  0.2249 -0.9278
 6060TIP3   OH239670   0.019   1.111  13.668 -0.3549 -0.4210  0.9915
 6060TIP3    H139671   0.068   1.065  13.736  0.2642 -0.1428  0.7413
 6060TIP3    H239672  -0.067   1.127  13.707 -0.2660 -0.9582  1.4172
 6061TIP3   OH239673   3.838   4.126   3.895 -0.0858  0.0337  0.0375
 6061TIP3    H139674   3.810   4.178   3.820  1.1690 -0.7446 -1.0073
 6061TIP3    H239675   3.766   4.134   3.958  0.1275  3.2159  0.0487
 6062TIP3   OH239676   2.814   0.907  15.818  0.2788  0.5749 -0.5930
 6062TIP3    H139677   2.748   0.974  15.802  0.7901  0.5215 -3.2872
 6062TIP3    H239678   2.763   0.827  15.836 -0.3254  1.3302  1.2785
 6063TIP3   OH239679   1.884   0.591   1.699 -0.0110  0.1105 -0.3510
 6063TIP3    H139680   1.886   0.509   1.748  1.8645  0.7287  0.7495
 6063TIP3    H239681   1.976   0.609   1.680 -0.4402  1.6196 -1.1421
 6064TIP3   OH239682   0.511   5.198  13.410  0.2059  0.3745 -0.0624
 6064TIP3    H139683   0.535   5.107  13.397 -0.7332  0.1484 -0.3092
 6064TIP3    H239684   0.442   5.196  13.476  0.0596  0.8802 -0.1916
 6065TIP3   OH239685   5.695   2.813  13.601  0.1380 -0.2909  0.1159
 6065TIP3    H139686   5.636   2.807  13.676  0.9389 -1.9270  0.6491
 6065TIP3    H239687   5.638   2.806  13.525 -0.5687  0.3289  0.5717
 6066TIP3   OH239688   6.047   6.367   0.544  0.1342 -0.0049 -0.1506
 6066TIP3    H139689   6.069   6.315   0.467  1.1804 -0.6972  0.5862
 6066TIP3    H239690   6.035   6.302   0.614  1.7706  0.7243  0.8598
 6067TIP3   OH239691   5.456   0.543   4.639  0.3514 -0.2883  0.3495
 6067TIP3    H139692   5.361   0.542   4.643  0.3069 -1.3823 -0.6392
 6067TIP3    H239693   5.482   0.453   4.659  1.0830 -0.3812 -0.9029
 6068TIP3   OH239694   2.454   3.686  15.470  0.1678  0.4044  0.4932
 6068TIP3    H139695   2.469   3.622  15.400  0.9589 -0.2792  1.2668
 6068TIP3    H239696   2.460   3.635  15.551  2.6817  1.7237  1.2412
 6069TIP3   OH239697   4.969   2.355  16.360 -0.4348  0.4521  0.7291
 6069TIP3    H139698   5.037   2.419  16.380 -1.0898  0.6887  2.3858
 6069TIP3    H239699   5.004   2.303  16.288  0.2752  2.4182 -0.4311
 6070TIP3   OH239700   4.072   4.815   0.745  0.3079  0.0553 -0.4464
 6070TIP3    H139701   4.139   4.762   0.700  0.1402  0.0238 -0.6629
 6070TIP3    H239702   3.993   4.802   0.693  0.2251  0.3892 -0.4055
 6071TIP3   OH239703   1.038   6.079   4.601 -0.1974 -0.0563 -0.8911
 6071TIP3    H139704   1.096   6.013   4.640 -1.6461 -1.3632 -0.8576
 6071TIP3    H239705   1.058   6.076   4.507  1.4990  1.2858 -0.6162
 6072TIP3   OH239706   2.479   0.252  14.294  0.2213 -0.1165 -0.7086
 6072TIP3    H139707   2.422   0.317  14.252 -1.1037 -0.9412 -0.2450
 6072TIP3    H239708   2.507   0.294  14.375  3.4557  1.8208 -2.5832
 6073TIP3   OH239709   3.000   4.640  16.816  0.0570 -0.5259 -0.0166
 6073TIP3    H139710   2.946   4.595  16.751 -0.1912 -0.2995  0.0311
 6073TIP3    H239711   2.991   4.733  16.793 -1.7340 -0.2463  1.6224
 6074TIP3   OH239712   1.695   3.156   4.202 -0.5577 -0.1327  0.3837
 6074TIP3    H139713   1.707   3.166   4.107 -0.1701 -0.9246  0.3440
 6074TIP3    H239714   1.778   3.119   4.233 -0.8177 -0.2293  0.9774
 6075TIP3   OH239715   5.853   3.583  11.586  0.2495  0.7665  0.0111
 6075TIP3    H139716   5.881   3.665  11.545  0.5177  0.2948 -0.7690
 6075TIP3    H239717   5.863   3.517  11.517  1.0844 -0.1201  0.9407
 6076TIP3   OH239718   1.652   4.224  12.399 -0.1536 -1.0628 -0.5073
 6076TIP3    H139719   1.659   4.131  12.375 -2.6407 -1.1544 -1.2391
 6076TIP3    H239720   1.666   4.271  12.316 -0.4641 -0.8938 -0.4659
 6077TIP3   OH239721   5.265   0.634  12.660  0.1345  0.0433 -0.3572
 6077TIP3    H139722   5.278   0.547  12.698 -0.0985 -0.1115 -0.6293
 6077TIP3    H239723   5.317   0.692  12.715 -0.5757 -0.1086  0.5044
 6078TIP3   OH239724   4.539   2.473  16.853  0.4635  0.0443  0.1588
 6078TIP3    H139725   4.563   2.380  16.859  2.0178  0.0409 -3.5286
 6078TIP3    H239726   4.595   2.517  16.917  0.0346 -1.4281  1.6247
 6079TIP3   OH239727   5.930   5.678  15.662 -0.5647 -0.1550 -0.0754
 6079TIP3    H139728   5.945   5.662  15.755 -1.0119  1.6587  0.3545
 6079TIP3    H239729   5.942   5.773  15.652  0.0993 -0.3963 -1.9999
 6080TIP3   OH239730   6.151   2.391  16.444 -0.0644 -0.3315  0.1493
 6080TIP3    H139731   6.160   2.321  16.508 -0.5591  1.6786  2.6064
 6080TIP3    H239732   6.238   2.429  16.436  0.1375 -1.0025 -0.9225
 6081TIP3   OH239733   0.652   4.123  13.935 -0.5338 -0.4086  0.2648
 6081TIP3    H139734   0.586   4.060  13.907 -1.7444  0.7454  0.4200
 6081TIP3    H239735   0.666   4.179  13.858  1.5774 -1.6452 -0.3513
 6082TIP3   OH239736   4.670   6.446  16.551 -0.0890  0.2410 -0.2334
 6082TIP3    H139737   4.650   6.408  16.466 -1.1466  1.5899 -0.6230
 6082TIP3    H239738   4.673   6.371  16.611 -2.2298 -0.4868 -0.9423
 6083TIP3   OH239739   1.089   3.468  12.189  0.0952 -0.2226  0.6319
 6083TIP3    H139740   1.023   3.536  12.175  0.1329 -0.0835  1.1429
 6083TIP3    H239741   1.039   3.390  12.214  0.0818 -0.2787  0.4327
 6084TIP3   OH239742   0.044   5.733   2.515  0.4643  0.1172 -0.0034
 6084TIP3    H139743   0.053   5.711   2.422 -0.2358 -1.8293  0.3350
 6084TIP3    H239744  -0.031   5.682   2.544 -0.9613  2.6691  1.0918
 6085TIP3   OH239745   3.495   5.156   5.143  0.2421 -0.6363  0.5590
 6085TIP3    H139746   3.509   5.142   5.236  2.3526  2.0438  0.8028
 6085TIP3    H239747   3.571   5.209   5.116 -0.8898 -0.3461 -2.4108
 6086TIP3   OH239748   1.876   0.869   3.110  0.7195  0.3005 -0.0685
 6086TIP3    H139749   1.886   0.906   3.198  2.4297  0.9470 -0.4832
 6086TIP3    H239750   1.870   0.946   3.053  1.0591 -0.1034 -0.6553
 6087TIP3   OH239751   2.953   2.337  15.093  0.3512 -0.8262 -0.4789
 6087TIP3    H139752   2.882   2.397  15.070 -0.4341 -1.8014 -0.6881
 6087TIP3    H239753   2.911   2.268  15.144  1.2988 -1.0041  0.0878
 6088TIP3   OH239754   0.613   4.896  13.098 -0.0624 -0.0936  0.0981
 6088TIP3    H139755   0.606   4.830  13.030 -1.3825 -0.9179  0.9767
 6088TIP3    H239756   0.699   4.936  13.085  0.9693 -2.2761 -0.2003
 6089TIP3   OH239757   2.919   6.721   4.447  0.1635  0.1114  1.0454
 6089TIP3    H139758   2.995   6.663   4.439  0.2324  0.4047 -1.4331
 6089TIP3    H239759   2.936   6.774   4.525  2.4008 -0.0224  0.7129
 6090TIP3   OH239760   3.625   2.401  15.586  0.4167 -0.5530 -0.6888
 6090TIP3    H139761   3.644   2.352  15.666 -0.0471 -0.3514 -0.4500
 6090TIP3    H239762   3.659   2.346  15.516  1.5754 -0.3531 -0.3099
 6091TIP3   OH239763   3.480   3.404  14.659  0.2097  0.5006  0.5612
 6091TIP3    H139764   3.417   3.441  14.720 -0.0884 -1.6143  1.6507
 6091TIP3    H239765   3.565   3.430  14.694  0.0008  0.9391  0.7545
 6092TIP3   OH239766   5.124   2.965   2.303 -0.2964 -0.1518 -0.4791
 6092TIP3    H139767   5.101   2.923   2.220  0.9334 -0.1456 -0.8366
 6092TIP3    H239768   5.114   3.058   2.286  2.6460  0.0718 -1.5574
 6093TIP3   OH239769   2.294   2.139  16.443 -0.3456 -0.0241 -0.3036
 6093TIP3    H139770   2.260   2.222  16.410 -2.2563  0.9668  3.5279
 6093TIP3    H239771   2.352   2.164  16.515  1.1779 -2.0183 -0.7494
 6094TIP3   OH239772   1.965   2.592  11.552  0.3123  0.6679  0.4279
 6094TIP3    H139773   1.959   2.599  11.457 -0.9422 -1.8204  0.2436
 6094TIP3    H239774   2.059   2.598  11.571  0.7235 -0.2039 -1.1464
 6095TIP3   OH239775   1.350   2.764  16.029  0.1546 -0.0023 -0.5301
 6095TIP3    H139776   1.330   2.746  16.121  1.1296 -0.2161 -0.3514
 6095TIP3    H239777   1.435   2.807  16.030  0.0598  0.2336 -1.3220
 6096TIP3   OH239778   3.672   5.593  16.240  0.2500 -0.0195  0.4141
 6096TIP3    H139779   3.612   5.610  16.312  0.8363  0.6974  0.7509
 6096TIP3    H239780   3.698   5.680  16.209 -0.4886 -0.3102 -1.0915
 6097TIP3   OH239781   2.638   2.779  14.232 -0.5146 -0.2124 -0.3317
 6097TIP3    H139782   2.595   2.813  14.153  0.9123  0.1895 -0.9647
 6097TIP3    H239783   2.576   2.716  14.268 -1.3232 -0.1794 -1.6119
 6098TIP3   OH239784   4.538   0.049  13.181 -0.0882  0.1926 -0.0783
 6098TIP3    H139785   4.550   0.137  13.145 -3.7348  0.0590 -2.1619
 6098TIP3    H239786   4.461   0.056  13.237  0.5957 -1.3851  1.1492
 6099TIP3   OH239787   2.869   2.049   4.001  0.0447  0.5162 -0.1025
 6099TIP3    H139788   2.856   2.016   4.090  0.5811  1.3584  0.3016
 6099TIP3    H239789   2.859   1.972   3.945  0.6729 -0.2218  0.7648
 6100TIP3   OH239790   1.688   5.053  16.643  0.4133 -0.2544 -0.0215
 6100TIP3    H139791   1.625   5.041  16.571  0.3075 -1.8212  0.3103
 6100TIP3    H239792   1.767   5.007  16.613  1.2622  1.2698 -0.2145
 6101TIP3   OH239793   3.075   1.334  12.276  0.6260 -0.1152  0.3397
 6101TIP3    H139794   3.056   1.427  12.266 -2.4964 -0.7059 -0.3033
 6101TIP3    H239795   2.990   1.295  12.299  1.5497 -2.9646 -0.6890
 6102TIP3   OH239796   0.426   5.687  15.948 -0.2809 -0.4097  0.4744
 6102TIP3    H139797   0.437   5.704  15.854 -0.1875  0.3081  0.6069
 6102TIP3    H239798   0.421   5.592  15.955 -0.2202 -0.4727 -0.2524
 6103TIP3   OH239799   3.648   3.343  12.696  0.0838 -0.1918  0.0076
 6103TIP3    H139800   3.673   3.251  12.704 -0.1327 -0.1855  0.9436
 6103TIP3    H239801   3.575   3.343  12.634  1.2276 -0.4195 -1.3828
 6104TIP3   OH239802   6.339   5.916   4.212  0.0507  0.0046  0.0393
 6104TIP3    H139803   6.341   5.952   4.301  0.7468  0.8016 -0.2826
 6104TIP3    H239804   6.291   5.982   4.161  0.4622  0.0065 -0.3549
 6105TIP3   OH239805   4.239   2.827   5.428 -0.3657  0.4520  0.3779
 6105TIP3    H139806   4.177   2.815   5.500 -2.1803 -0.5039 -1.2595
 6105TIP3    H239807   4.187   2.811   5.349  1.9887 -0.4635 -1.0789
 6106TIP3   OH239808   3.479   4.439   1.109  0.2995 -0.2790  0.3475
 6106TIP3    H139809   3.414   4.396   1.165  1.1264 -0.3842  1.2618
 6106TIP3    H239810   3.557   4.383   1.116 -0.2616 -1.6930 -2.8865
 6107TIP3   OH239811   5.503   4.112  15.696 -0.4343  0.0257  0.2269
 6107TIP3    H139812   5.413   4.131  15.724 -0.3966  0.4632  0.0659
 6107TIP3    H239813   5.542   4.199  15.682  0.5039 -0.0987  1.8060
 6108TIP3   OH239814   0.900   5.851   3.581 -0.0475  0.3885  0.0339
 6108TIP3    H139815   0.938   5.763   3.586  1.8643  0.9606 -2.3588
 6108TIP3    H239816   0.807   5.838   3.602  0.1685 -2.2051 -0.2359
 6109TIP3   OH239817   1.987   6.503  14.405 -0.3554  0.2020 -0.6711
 6109TIP3    H139818   2.069   6.463  14.378  0.3706  0.1717  1.3970
 6109TIP3    H239819   1.998   6.596  14.386  2.0859  1.0261  3.4810
 6110TIP3   OH239820   0.200   2.684  14.229  0.5457 -0.1464  0.4255
 6110TIP3    H139821   0.265   2.660  14.162 -1.4874  0.2523 -1.8308
 6110TIP3    H239822   0.129   2.621  14.217 -0.8546  1.3409  0.6439
 6111TIP3   OH239823   1.305   6.310   0.814 -0.1971  0.3591  0.3116
 6111TIP3    H139824   1.233   6.247   0.809  0.5910 -0.4867 -2.2192
 6111TIP3    H239825   1.263   6.394   0.830 -1.7437 -0.1552 -0.7871
 6112TIP3   OH239826   6.597   5.097   1.524  0.4712  0.2579 -1.1451
 6112TIP3    H139827   6.595   5.005   1.550  0.2946  0.0709 -1.8110
 6112TIP3    H239828   6.676   5.132   1.565  0.7485 -0.2842 -1.2135
 6113TIP3   OH239829   4.438   3.567   0.054  0.6673 -0.7371 -0.5845
 6113TIP3    H139830   4.400   3.487   0.019 -0.7816  0.4285 -1.8437
 6113TIP3    H239831   4.416   3.634  -0.011 -0.5572  1.2069  1.6629
 6114TIP3   OH239832   3.141   6.732   5.791  0.3513  0.5509  0.3378
 6114TIP3    H139833   3.187   6.693   5.717  0.4513  2.1080 -0.4657
 6114TIP3    H239834   3.112   6.657   5.843  0.8448 -0.5660 -0.9219
 6115TIP3   OH239835   3.047   0.371  13.182  0.4876 -0.1324 -0.1722
 6115TIP3    H139836   3.136   0.385  13.212  0.3334 -1.6657  1.1123
 6115TIP3    H239837   3.008   0.313  13.247 -1.6451  0.9408 -0.3854
 6116TIP3   OH239838   6.699   6.436   3.513  0.0813  0.6825 -0.2279
 6116TIP3    H139839   6.794   6.434   3.501  0.0728 -1.4310 -0.2817
 6116TIP3    H239840   6.665   6.458   3.427  0.5041  1.6166 -0.1729
 6117TIP3   OH239841   3.580   4.032   0.918 -0.1484 -0.0807 -0.1417
 6117TIP3    H139842   3.565   4.104   0.980 -1.7623 -1.6329  1.3845
 6117TIP3    H239843   3.632   3.968   0.967 -1.1793 -1.2018 -0.4572
 6118TIP3   OH239844   3.366   0.545   4.252 -0.1667 -0.0442  0.5819
 6118TIP3    H139845   3.345   0.566   4.343 -0.5361 -0.1034  0.5115
 6118TIP3    H239846   3.287   0.503   4.218  0.1973 -0.6137  0.4205
 6119TIP3   OH239847   2.632   6.444  16.620 -1.0512 -0.0552  0.0770
 6119TIP3    H139848   2.639   6.438  16.525 -1.9400  1.1045 -0.0767
 6119TIP3    H239849   2.670   6.529  16.642  1.1345 -1.1986  1.0172
 6120TIP3   OH239850   1.443   4.077   1.205  0.2522  0.2663 -0.1609
 6120TIP3    H139851   1.403   4.010   1.149 -0.0556 -0.4165  0.8417
 6120TIP3    H239852   1.537   4.068   1.191  0.3563 -1.7063  1.3496
 6121TIP3   OH239853   0.526   1.885   3.783  0.0921 -0.7035  0.3239
 6121TIP3    H139854   0.507   1.805   3.733  0.8623 -0.0915 -0.9792
 6121TIP3    H239855   0.456   1.945   3.758 -1.3004 -1.3758  2.3649
 6122TIP3   OH239856   4.729   1.319  14.346  0.0072 -0.0452 -0.5176
 6122TIP3    H139857   4.697   1.266  14.419 -0.8215 -1.1315 -1.6197
 6122TIP3    H239858   4.759   1.255  14.281  1.9073  0.9102 -0.6444
 6123TIP3   OH239859   0.762   5.285   3.246  0.0951 -0.0826 -0.0766
 6123TIP3    H139860   0.751   5.199   3.287  0.9798  0.1461  0.6744
 6123TIP3    H239861   0.719   5.346   3.306  1.6558  0.2908  0.7231
 6124TIP3   OH239862   3.946   4.082  17.198  0.0512 -0.7097 -0.4265
 6124TIP3    H139863   3.929   4.017  17.131  0.2509 -1.3885  0.1653
 6124TIP3    H239864   3.932   4.036  17.281 -0.3771  0.1531  0.0064
 6125TIP3   OH239865   5.116   0.735   3.623  0.8545  0.1470  0.4803
 6125TIP3    H139866   5.050   0.707   3.686  0.4970 -0.8999 -0.3236
 6125TIP3    H239867   5.200   0.722   3.668  0.5641  0.5224  1.1422
 6126TIP3   OH239868   4.983   5.192   0.196 -0.3447 -0.7635 -0.4884
 6126TIP3    H139869   5.010   5.108   0.233 -1.9377 -0.5219  1.3495
 6126TIP3    H239870   4.895   5.207   0.230  0.9185  3.0055  1.7199
 6127TIP3   OH239871   1.202   1.022   0.765 -0.2497  0.1192  0.2295
 6127TIP3    H139872   1.208   0.950   0.703  1.5494 -1.0250  1.6595
 6127TIP3    H239873   1.108   1.041   0.770 -0.5059 -0.1781 -2.2960
 6128TIP3   OH239874   2.892   6.477   6.533 -0.1064  0.1470  0.2179
 6128TIP3    H139875   2.814   6.532   6.528 -0.8360 -0.9448 -1.4168
 6128TIP3    H239876   2.963   6.537   6.552 -1.1081  1.4168  0.1008
 6129TIP3   OH239877   0.840   1.534   6.027  0.1505 -0.1366 -0.2579
 6129TIP3    H139878   0.854   1.441   6.046 -0.6791 -0.6056 -1.7973
 6129TIP3    H239879   0.883   1.547   5.942  0.4880  0.9585  0.0745
 6130TIP3   OH239880   4.218   0.732  11.211 -0.3418  0.8892  0.2523
 6130TIP3    H139881   4.290   0.770  11.262  0.4035  0.7015 -0.6260
 6130TIP3    H239882   4.262   0.677  11.146 -1.1819  1.9719 -1.2909
 6131TIP3   OH239883   6.318   1.429   4.146 -0.3305 -0.4435  0.3958
 6131TIP3    H139884   6.406   1.463   4.162  0.1094 -0.4478 -1.7102
 6131TIP3    H239885   6.292   1.468   4.062 -1.0795 -2.8027 -0.5517
 6132TIP3   OH239886   0.095   3.315  15.160  0.3168 -0.1510 -0.4272
 6132TIP3    H139887   0.141   3.231  15.154  2.8930  1.1786 -0.7497
 6132TIP3    H239888   0.049   3.323  15.076 -0.1572 -1.3054 -0.2980
 6133TIP3   OH239889   0.544   0.453  11.902 -0.2413  0.5709  0.4005
 6133TIP3    H139890   0.463   0.422  11.941 -1.3393  3.2032  0.3884
 6133TIP3    H239891   0.518   0.525  11.844  1.8445 -0.1303 -1.5844
 6134TIP3   OH239892   2.628   4.358  13.425 -0.8042  0.1069 -0.2002
 6134TIP3    H139893   2.672   4.303  13.360  0.4997  0.7936  0.0723
 6134TIP3    H239894   2.669   4.335  13.508 -1.6708  0.0482  0.2218
 6135TIP3   OH239895   4.341   6.528  16.428  0.2742 -0.2673  0.1389
 6135TIP3    H139896   4.255   6.546  16.390  0.6000 -1.2347 -1.1489
 6135TIP3    H239897   4.387   6.611  16.423 -0.6766  0.3506  1.1514
 6136TIP3   OH239898   5.504   6.694   5.316 -0.1448  0.1010  0.0480
 6136TIP3    H139899   5.566   6.753   5.358  1.2107 -1.5690  0.5169
 6136TIP3    H239900   5.558   6.624   5.279 -1.7321 -1.6717  0.8763
 6137TIP3   OH239901   6.720   5.923   6.169 -0.2114  0.2297 -0.2887
 6137TIP3    H139902   6.637   5.963   6.196  0.3144 -0.0134  1.8164
 6137TIP3    H239903   6.697   5.832   6.148 -0.5933  0.3467 -0.3894
 6138TIP3   OH239904   2.455   4.844   4.596  0.5864  0.1969  0.1407
 6138TIP3    H139905   2.525   4.780   4.585 -0.2556 -0.5451 -1.3365
 6138TIP3    H239906   2.402   4.809   4.667  1.0548  0.1288  0.4570
 6139TIP3   OH239907   1.301   6.054   2.605 -0.0644  0.5624  0.1182
 6139TIP3    H139908   1.296   6.083   2.696 -1.3062  0.8069 -0.0164
 6139TIP3    H239909   1.291   5.959   2.609 -3.1690  0.7979  0.0609
 6140TIP3   OH239910   1.099   1.049  15.055 -0.5594 -0.3435  0.0870
 6140TIP3    H139911   1.046   1.087  15.125 -0.9280 -0.9513  0.1498
 6140TIP3    H239912   1.066   0.959  15.046 -0.0521 -0.4899 -0.3956
 6141TIP3   OH239913   3.934   1.616   3.854  0.0301  0.4206 -0.7413
 6141TIP3    H139914   3.894   1.592   3.937 -0.2171 -1.0593 -1.2580
 6141TIP3    H239915   4.026   1.588   3.862 -0.0503  0.0530 -1.0317
 6142TIP3   OH239916   2.699   6.819  15.669 -0.5367  0.1303  0.7436
 6142TIP3    H139917   2.758   6.891  15.647 -0.2665 -0.1422  0.5802
 6142TIP3    H239918   2.682   6.830  15.763 -0.3900  0.3237  0.7488
 6143TIP3   OH239919   3.769   2.616   2.989 -0.1607 -0.1070 -0.4970
 6143TIP3    H139920   3.819   2.548   3.033  0.4659  0.1107 -0.8564
 6143TIP3    H239921   3.823   2.695   2.995 -1.1335  0.5188  0.4287
 6144TIP3   OH239922   5.783   2.468  11.940 -0.2669  0.2927  0.5541
 6144TIP3    H139923   5.868   2.444  11.976  0.5525  2.9659  0.6032
 6144TIP3    H239924   5.762   2.398  11.879  1.9007 -0.4960  0.6336
 6145TIP3   OH239925   5.989   5.487  12.619  0.0597  0.1657 -0.5518
 6145TIP3    H139926   5.998   5.573  12.658  0.6134 -0.0281 -0.2451
 6145TIP3    H239927   5.895   5.468  12.624  0.0973  0.2367  0.4777
 6146TIP3   OH239928   5.533   3.909   0.873  0.4267  0.2579 -0.1194
 6146TIP3    H139929   5.473   3.858   0.926  0.8903  1.2350  1.3931
 6146TIP3    H239930   5.525   3.998   0.906  2.3839  0.4857 -0.1542
 6147TIP3   OH239931   2.546   0.178  15.340  0.2159 -0.1785 -0.4412
 6147TIP3    H139932   2.522   0.107  15.401  2.3232 -0.9710 -0.4184
 6147TIP3    H239933   2.518   0.147  15.254  1.4856 -1.3006 -0.4915
 6148TIP3   OH239934   5.738   0.855  15.655  0.3987 -0.2160  0.4110
 6148TIP3    H139935   5.672   0.923  15.641  1.2209  0.4910 -0.2035
 6148TIP3    H239936   5.711   0.811  15.735 -1.2655 -0.5080 -0.2815
 6149TIP3   OH239937   6.597   2.199  15.173  0.2947  0.0901 -0.0683
 6149TIP3    H139938   6.668   2.249  15.214 -0.6905  0.7374  0.9316
 6149TIP3    H239939   6.620   2.107  15.190  1.8768  0.1757 -1.4996
 6150TIP3   OH239940   3.008   1.851   4.747 -0.1542  0.4937  0.3323
 6150TIP3    H139941   3.060   1.839   4.827  0.3454  0.1769 -0.0312
 6150TIP3    H239942   2.924   1.810   4.767  0.4838 -0.9570  0.1940
 6151TIP3   OH239943   1.910   2.956  14.771 -0.0072  0.4812  0.2027
 6151TIP3    H139944   1.850   2.887  14.795  0.5063  0.2664  0.9051
 6151TIP3    H239945   1.993   2.933  14.814  0.9770  0.0661 -1.7814
 6152TIP3   OH239946   0.854   4.885   1.887 -0.0528  0.3259 -0.1517
 6152TIP3    H139947   0.840   4.946   1.814 -1.3520 -1.0098 -1.0696
 6152TIP3    H239948   0.917   4.930   1.943 -2.0213  3.1949 -0.0240
 6153TIP3   OH239949   1.751   5.237   5.180  0.1144  0.3047  0.2140
 6153TIP3    H139950   1.840   5.267   5.160 -0.0166  0.8244  0.3803
 6153TIP3    H239951   1.724   5.291   5.255 -0.2109 -0.0928  0.3839
 6154TIP3   OH239952   3.855   6.533  14.895 -0.1405 -0.0470 -0.2290
 6154TIP3    H139953   3.886   6.540  14.805  0.5220  0.8977  0.0502
 6154TIP3    H239954   3.767   6.572  14.893  0.2555  0.8675 -0.2925
 6155TIP3   OH239955   3.367   0.688  13.083 -0.0098  0.1566 -0.6953
 6155TIP3    H139956   3.374   0.712  12.990  1.0542 -1.4761 -1.0795
 6155TIP3    H239957   3.276   0.707  13.106 -0.4737 -0.0305 -2.2689
 6156TIP3   OH239958   0.253   1.523  14.677  0.3023  0.2771 -0.2078
 6156TIP3    H139959   0.208   1.590  14.624  0.4017 -0.6697 -1.5444
 6156TIP3    H239960   0.186   1.493  14.738 -0.9769 -1.1159 -2.1654
 6157TIP3   OH239961   5.703   2.433   1.054  0.3177  0.7154 -0.5104
 6157TIP3    H139962   5.690   2.423   0.959 -2.3867  2.2416 -0.4181
 6157TIP3    H239963   5.757   2.358   1.079 -1.6560 -1.6614 -2.7471
 6158TIP3   OH239964   3.499   5.489  15.415 -0.4953  0.1894 -0.3953
 6158TIP3    H139965   3.534   5.538  15.489 -2.6381  2.3972 -0.6962
 6158TIP3    H239966   3.416   5.454  15.447 -0.9049  0.2037 -1.4054
 6159TIP3   OH239967   0.122   3.942  11.879 -0.3453 -0.3323 -0.1839
 6159TIP3    H139968   0.126   4.037  11.873 -0.3778 -0.2896  0.4175
 6159TIP3    H239969   0.042   3.919  11.832  0.1450 -0.1453 -1.1299
 6160TIP3   OH239970   6.225   3.146  14.567  0.1260 -0.2953 -0.0669
 6160TIP3    H139971   6.250   3.087  14.496  1.5093  0.0405  0.1104
 6160TIP3    H239972   6.132   3.128  14.582  0.1082 -1.2092 -1.1531
 6161TIP3   OH239973   2.519   3.278   0.924  0.0138  0.5305 -0.4538
 6161TIP3    H139974   2.572   3.201   0.949 -2.3471 -0.9988  0.1487
 6161TIP3    H239975   2.540   3.343   0.991  3.0726  1.0344 -1.7151
 6162TIP3   OH239976   4.198   0.519   0.212 -0.3130  0.6780 -0.5664
 6162TIP3    H139977   4.109   0.499   0.181 -0.2561  0.2564 -0.4654
 6162TIP3    H239978   4.185   0.578   0.286 -0.4996  0.7841 -0.6818
 6163TIP3   OH239979   0.502   6.288   5.357  0.5563 -0.3072  0.5147
 6163TIP3    H139980   0.525   6.323   5.443  0.4527 -2.4814  1.4818
 6163TIP3    H239981   0.407   6.300   5.351  0.8282  1.8712 -0.3044
 6164TIP3   OH239982   6.027   1.982   4.908  0.1292  0.6313  0.2967
 6164TIP3    H139983   6.085   1.913   4.876  0.3960 -0.0349  2.0685
 6164TIP3    H239984   6.082   2.034   4.966 -0.5114  1.3058  0.3165
 6165TIP3   OH239985   3.108   0.455  10.801  0.2462 -0.3331 -0.3873
 6165TIP3    H139986   3.169   0.524  10.829 -0.4645 -0.3355  1.3315
 6165TIP3    H239987   3.108   0.393  10.874  0.2208 -1.7344 -1.5393
 6166TIP3   OH239988   5.985   1.315   1.106 -0.2459 -0.0582  0.1537
 6166TIP3    H139989   6.041   1.239   1.097 -0.8565 -0.4874 -0.1110
 6166TIP3    H239990   5.953   1.312   1.196  0.5648  0.4845  0.4688
 6167TIP3   OH239991   2.689   1.480  16.563  0.1429  0.0106 -0.0688
 6167TIP3    H139992   2.647   1.565  16.569 -0.4581 -0.2899  0.0212
 6167TIP3    H239993   2.783   1.500  16.560  0.1432  0.5546  2.2602
 6168TIP3   OH239994   3.928   0.738   5.956  0.3811 -0.1493  0.3444
 6168TIP3    H139995   3.839   0.714   5.933  0.3638 -1.4113  1.5590
 6168TIP3    H239996   3.931   0.833   5.949 -1.0459 -0.1017  0.2522
 6169TIP3   OH239997   6.535   6.383  17.176  0.0694  0.1677  0.0500
 6169TIP3    H139998   6.578   6.469  17.179  0.3143  0.0795 -0.6917
 6169TIP3    H239999   6.478   6.382  17.253  1.5655  0.1856  1.1948
 6170TIP3   OH240000   4.494   5.360   0.168  0.6796 -0.0285  0.2739
 6170TIP3    H140001   4.550   5.309   0.110 -0.3797 -0.2331 -0.5871
 6170TIP3    H240002   4.499   5.450   0.135 -1.0651 -0.3830 -1.0946
 6171TIP3   OH240003   2.471   2.190   0.051 -0.0032  0.2565  0.4071
 6171TIP3    H140004   2.411   2.202  -0.022 -2.2903 -3.0965  1.4905
 6171TIP3    H240005   2.432   2.239   0.124 -0.8520 -0.9004  0.7696
 6172TIP3   OH240006   2.821   1.109   4.480  0.2293  0.1385  0.3307
 6172TIP3    H140007   2.731   1.127   4.507  0.3567 -0.3960  1.1549
 6172TIP3    H240008   2.840   1.175   4.414 -0.7562  0.2837  0.1721
 6173TIP3   OH240009   4.351   0.237  15.472  0.6194  0.2324 -0.3847
 6173TIP3    H140010   4.319   0.327  15.469 -1.0980 -0.3630 -1.7035
 6173TIP3    H240011   4.393   0.223  15.387 -0.9692 -0.7881 -1.0548
 6174TIP3   OH240012   6.805   0.948   3.277  0.1068 -0.1553  0.1386
 6174TIP3    H140013   6.795   0.855   3.296  0.1000 -0.0103  0.8589
 6174TIP3    H240014   6.868   0.951   3.204  1.0267 -0.6716  0.8913
 6175TIP3   OH240015   0.355   4.795   4.960 -0.2192 -0.2523  0.2330
 6175TIP3    H140016   0.325   4.881   4.930 -0.1028  1.5392  4.5007
 6175TIP3    H240017   0.276   4.740   4.956 -0.8262  0.6347 -0.5623
 6176TIP3   OH240018   4.765   2.388  11.383 -0.0595 -1.0197  0.2632
 6176TIP3    H140019   4.783   2.297  11.406 -0.8890 -1.0289  0.9052
 6176TIP3    H240020   4.678   2.386  11.343 -1.0568 -0.2320  2.2744
 6177TIP3   OH240021   4.974   0.159   3.990  0.9834  0.1802 -0.5231
 6177TIP3    H140022   4.968   0.254   3.983  1.5846  0.1579 -1.7970
 6177TIP3    H240023   5.059   0.138   3.952  0.5791 -0.9122 -0.8638
 6178TIP3   OH240024   2.756   2.878   5.900 -0.5288 -0.0959  0.0257
 6178TIP3    H140025   2.667   2.888   5.932 -0.0445  0.9090  1.0995
 6178TIP3    H240026   2.764   2.784   5.880 -1.2159 -0.5583  1.7670
 6179TIP3   OH240027   4.487   2.783  14.923 -0.0495  0.0054 -0.1727
 6179TIP3    H140028   4.419   2.836  14.881 -0.7190 -0.6012  0.1213
 6179TIP3    H240029   4.521   2.839  14.993  0.4123  0.6613 -0.8996
 6180TIP3   OH240030   0.361   3.069   2.984 -0.2233  0.6307 -0.5410
 6180TIP3    H140031   0.416   3.018   3.044  0.7270  1.7138 -0.4579
 6180TIP3    H240032   0.354   3.155   3.025 -0.1116  1.1874 -1.6529
 6181TIP3   OH240033   2.958   2.146  11.878  0.0554 -0.2008 -0.6025
 6181TIP3    H140034   2.995   2.110  11.958 -0.7087  0.3905  0.0288
 6181TIP3    H240035   2.956   2.240  11.892 -2.1951 -0.2406 -0.3581
 6182TIP3   OH240036   1.579   5.013  13.361 -1.0717  0.3487 -0.3002
 6182TIP3    H140037   1.606   5.000  13.452 -1.7389  0.9264 -0.0172
 6182TIP3    H240038   1.613   5.099  13.337  0.0748 -0.2609 -0.9717
 6183TIP3   OH240039   6.381   0.979   1.995  0.3965  0.4287 -0.0418
 6183TIP3    H140040   6.379   1.014   2.084  1.1210  1.4789 -0.4114
 6183TIP3    H240041   6.354   1.053   1.940 -1.0104 -0.4721 -0.6478
 6184TIP3   OH240042   4.541   0.262   2.584 -0.0304 -0.4628 -0.3167
 6184TIP3    H140043   4.617   0.250   2.526 -1.2637  0.2524 -2.1810
 6184TIP3    H240044   4.468   0.223   2.536 -0.8826 -1.0926  1.4111
 6185TIP3   OH240045   0.218   3.622   4.797 -1.2785  0.4277  0.3121
 6185TIP3    H140046   0.194   3.578   4.879 -0.8921  1.6598  1.1150
 6185TIP3    H240047   0.167   3.704   4.799 -0.1699  1.1407  0.0393
 6186TIP3   OH240048   3.222   6.737   0.320 -0.4054  0.3139  0.0823
 6186TIP3    H140049   3.233   6.692   0.236 -0.1040 -0.3795  0.4798
 6186TIP3    H240050   3.215   6.666   0.384 -0.0816  0.8328  0.7065
 6187TIP3   OH240051   0.949   5.906  13.271 -0.2090  0.2501  0.2361
 6187TIP3    H140052   0.940   5.863  13.355 -0.8850  0.6646  0.3826
 6187TIP3    H240053   1.043   5.907  13.254  0.1157  1.6764  1.7941
 6188TIP3   OH240054   6.262   3.436  14.932 -0.1946  0.5440 -0.6960
 6188TIP3    H140055   6.197   3.502  14.952  0.1004  0.7139 -0.2825
 6188TIP3    H240056   6.263   3.379  15.009  1.1955  1.4082 -0.0296
 6189TIP3   OH240057   2.694   0.993  12.686 -0.0992 -0.2387 -0.3246
 6189TIP3    H140058   2.728   1.077  12.716  0.9307 -0.7038 -0.1485
 6189TIP3    H240059   2.652   0.955  12.763  0.2802 -0.3056 -0.1508
 6190TIP3   OH240060   3.981   6.213  12.331 -0.3921  0.6199 -0.2381
 6190TIP3    H140061   3.958   6.175  12.246  0.4065 -0.1441 -0.1250
 6190TIP3    H240062   3.914   6.177  12.391  0.3372 -0.6476 -0.1362
 6191TIP3   OH240063   5.109   5.121  13.801 -0.6997  0.2625 -0.5492
 6191TIP3    H140064   5.045   5.077  13.857 -0.6815  0.7030 -0.1737
 6191TIP3    H240065   5.161   5.174  13.862  1.3140 -1.5798 -0.5658
 6192TIP3   OH240066   5.561   5.100  15.007  0.3222 -0.6077 -0.2131
 6192TIP3    H140067   5.467   5.109  15.021  0.4986  0.4365  0.3876
 6192TIP3    H240068   5.576   5.138  14.921  0.1905 -0.8028 -0.3224
 6193TIP3   OH240069   2.014   2.033   0.648  0.2704 -0.7232 -0.7063
 6193TIP3    H140070   1.943   2.090   0.677  1.4273  0.1515  0.5201
 6193TIP3    H240071   2.016   1.963   0.714  0.3131 -0.9603 -0.9567
 6194TIP3   OH240072   2.634   2.880  11.034  0.4131 -0.0329 -0.9587
 6194TIP3    H140073   2.716   2.844  11.002  0.6203  0.0465 -0.5310
 6194TIP3    H240074   2.568   2.850  10.972  0.4315 -1.9760 -0.1108
 6195TIP3   OH240075   6.439   6.483   2.532  0.7264  0.4643 -0.1572
 6195TIP3    H140076   6.355   6.523   2.510  0.1762 -0.8608 -0.5472
 6195TIP3    H240077   6.438   6.476   2.628 -0.1658 -0.6786 -0.2355
 6196TIP3   OH240078   6.109   5.907   0.051 -0.5572  0.0334 -0.2953
 6196TIP3    H140079   6.082   5.961  -0.023 -0.6083  3.0562  1.7182
 6196TIP3    H240080   6.034   5.909   0.110 -0.3313 -1.8696  0.1233
 6197TIP3   OH240081   0.534   5.752  12.080 -0.1947  0.3116  0.5433
 6197TIP3    H140082   0.548   5.707  12.164  0.6033  0.5851  0.5704
 6197TIP3    H240083   0.607   5.723  12.026 -0.2490  0.7797  0.2181
 6198TIP3   OH240084   1.602   3.882  14.095 -0.2358 -0.6497 -0.1649
 6198TIP3    H140085   1.605   3.964  14.144  0.0167  1.0019 -2.7588
 6198TIP3    H240086   1.687   3.877  14.052 -0.5584 -1.8538 -0.6904
 6199TIP3   OH240087   2.099   6.051  16.547  0.7462  0.0228  0.2097
 6199TIP3    H140088   2.147   6.121  16.591  1.6747 -0.3615 -0.1697
 6199TIP3    H240089   2.048   6.096  16.480  0.3160  0.4695  0.8307
 6200TIP3   OH240090   0.007   4.404   2.302  0.4350 -0.3445  0.3276
 6200TIP3    H140091  -0.054   4.341   2.264  0.6251  0.9971 -2.4681
 6200TIP3    H240092  -0.035   4.433   2.382 -0.3396 -2.8737  0.9349
 6201TIP3   OH240093   1.698   2.911  11.857 -0.4933 -0.5134 -0.0867
 6201TIP3    H140094   1.742   2.973  11.915  1.6622  0.4950 -2.5930
 6201TIP3    H240095   1.644   2.967  11.801 -2.1981 -1.4264  0.5746
 6202TIP3   OH240096   4.425   0.407  16.843 -0.5146 -0.5647  0.2204
 6202TIP3    H140097   4.331   0.424  16.831 -0.4071  1.3372  1.7043
 6202TIP3    H240098   4.427   0.321  16.887 -1.5027 -0.9418 -0.4180
 6203TIP3   OH240099   2.456   5.867  16.938  1.0172  0.4807 -0.3919
 6203TIP3    H140100   2.377   5.896  16.892 -0.5875 -0.3210  1.7059
 6203TIP3    H240101   2.517   5.941  16.930 -1.1496  2.5031  0.6451
 6204TIP3   OH240102   3.424   6.316  11.958 -0.2178 -0.0054 -0.1426
 6204TIP3    H140103   3.517   6.335  11.955 -0.3011  0.4598 -0.0315
 6204TIP3    H240104   3.390   6.375  12.026 -0.7551  0.6030 -0.9034
 6205TIP3   OH240105   6.389   3.914  15.943  0.4307  1.2579 -0.2357
 6205TIP3    H140106   6.303   3.893  15.906  0.5646  1.1660 -0.4966
 6205TIP3    H240107   6.370   3.972  16.016  0.0007 -0.2109  0.8576
 6206TIP3   OH240108   2.567   1.767  14.868  0.4048 -0.4412 -0.2065
 6206TIP3    H140109   2.568   1.673  14.851 -1.8791 -0.5323 -0.1874
 6206TIP3    H240110   2.475   1.787  14.885  0.9057  1.7281  0.2475
 6207TIP3   OH240111   6.550   6.542   0.332  0.4627  0.3813  0.6533
 6207TIP3    H140112   6.623   6.480   0.336 -0.5873 -0.9115  0.1300
 6207TIP3    H240113   6.490   6.514   0.401 -1.1794 -0.7207 -1.1371
 6208TIP3   OH240114   1.306   5.935  12.304  0.3421 -0.0441 -0.2785
 6208TIP3    H140115   1.301   5.872  12.232 -1.0267 -1.0740  0.6364
 6208TIP3    H240116   1.388   5.981  12.291  0.4974 -0.7433 -2.0416
 6209TIP3   OH240117   4.051   0.443   0.699 -0.1902 -0.4009 -0.1921
 6209TIP3    H140118   4.073   0.536   0.713  0.7823 -0.5953 -0.3393
 6209TIP3    H240119   4.084   0.424   0.611  0.0506 -1.0145  0.0272
 6210TIP3   OH240120   6.390   0.445   3.564 -0.1203 -0.6431 -0.1278
 6210TIP3    H140121   6.464   0.397   3.526  1.1493  1.8899 -1.1561
 6210TIP3    H240122   6.349   0.489   3.489  1.0591  2.7093  1.0100
 6211TIP3   OH240123   3.896   6.506  13.526  0.0860  0.3641 -0.0124
 6211TIP3    H140124   3.933   6.559  13.456 -2.0484  0.5971 -1.0432
 6211TIP3    H240125   3.818   6.465  13.487  0.9140 -2.5502  1.0976
 6212TIP3   OH240126   2.184   3.162   4.321  0.0964 -0.4402  0.2863
 6212TIP3    H140127   2.249   3.164   4.250 -2.0982 -0.4893 -1.8353
 6212TIP3    H240128   2.186   3.251   4.357  3.4498 -1.1877  2.4819
 6213TIP3   OH240129   5.181   2.928  16.708  0.7653 -0.0762 -0.4431
 6213TIP3    H140130   5.274   2.908  16.711  0.9007  0.6498  1.1820
 6213TIP3    H240131   5.176   3.018  16.677  0.6317  0.0882  0.0576
 6214TIP3   OH240132   5.504   3.931   5.664  0.5031  0.7598  0.3763
 6214TIP3    H140133   5.413   3.947   5.688  0.0594  0.5368 -1.0853
 6214TIP3    H240134   5.525   4.001   5.603  1.1679  0.5261  0.3350
 6215TIP3   OH240135   0.313   3.704   5.148 -0.3106 -0.1025  0.0750
 6215TIP3    H140136   0.346   3.720   5.236 -0.5650  0.5503  0.0617
 6215TIP3    H240137   0.326   3.788   5.102 -2.2591  0.2976  0.1666
 6216TIP3   OH240138   3.432   6.364  11.486 -0.3274 -0.8567  0.3999
 6216TIP3    H140139   3.488   6.289  11.506  0.9171 -0.0580 -0.0016
 6216TIP3    H240140   3.468   6.435  11.539  0.2219  0.1379 -1.2500
 6217TIP3   OH240141   5.050   2.348   3.740  0.2563 -0.3299 -0.3187
 6217TIP3    H140142   5.057   2.286   3.813 -0.3688 -1.6321 -1.3284
 6217TIP3    H240143   4.957   2.355   3.723  0.3875  0.0465 -0.9316
 6218TIP3   OH240144   6.792   1.099  16.947 -0.8552 -0.0641 -0.4162
 6218TIP3    H140145   6.718   1.097  17.009  1.2675  1.5459  2.3917
 6218TIP3    H240146   6.796   1.190  16.917  1.5929  0.6818  1.7804
 6219TIP3   OH240147   3.232   6.445   0.903  0.5804  0.0244  0.0800
 6219TIP3    H140148   3.292   6.397   0.960 -0.4156  0.3404  1.4593
 6219TIP3    H240149   3.199   6.516   0.957 -0.5511  0.2375 -0.8388
 6220TIP3   OH240150   5.822   2.549   1.829 -0.0798 -0.4864  0.4558
 6220TIP3    H140151   5.804   2.532   1.737  1.5954 -0.9519  0.1945
 6220TIP3    H240152   5.735   2.558   1.869 -0.8236  0.3446 -1.2593
 6221TIP3   OH240153   1.898   6.026   5.898 -0.2723  1.0495  0.0250
 6221TIP3    H140154   1.831   6.045   5.832 -2.7200 -2.3495  1.1900
 6221TIP3    H240155   1.946   5.951   5.863  1.3747  1.9504  0.2686
 6222TIP3   OH240156   2.745   2.287   3.448  0.1090  0.5376 -0.1045
 6222TIP3    H140157   2.787   2.202   3.458 -0.7258  0.0356 -0.7113
 6222TIP3    H240158   2.654   2.267   3.426 -0.9344  1.5490  2.7993
 6223TIP3   OH240159   5.259   2.236   6.320  0.3249 -0.2146 -0.0570
 6223TIP3    H140160   5.283   2.292   6.394  0.5279 -0.1991 -0.1343
 6223TIP3    H240161   5.199   2.171   6.358  0.6159 -0.3535  0.1724
 6224TIP3   OH240162   6.601   0.270   6.598  0.4054 -0.7400 -0.4620
 6224TIP3    H140163   6.546   0.311   6.531  0.5162  3.5669  1.7473
 6224TIP3    H240164   6.539   0.234   6.661  0.1787  0.0091 -0.2489
 6225TIP3   OH240165   5.380   4.559   3.809 -0.0366  0.0983  0.3786
 6225TIP3    H140166   5.294   4.601   3.808 -0.2947 -0.4077  0.9636
 6225TIP3    H240167   5.425   4.595   3.732 -0.6354  0.6358  0.2735
 6226TIP3   OH240168   6.053   6.029  16.698 -0.5178  0.1986  0.0595
 6226TIP3    H140169   5.965   6.064  16.705 -0.9382 -0.7345 -0.3564
 6226TIP3    H240170   6.044   5.936  16.716 -0.1254 -0.4934 -2.7464
 6227TIP3   OH240171   1.347   6.583   4.827  0.4209 -0.3396  0.8090
 6227TIP3    H140172   1.257   6.614   4.823 -0.8221 -3.5697  0.6913
 6227TIP3    H240173   1.393   6.634   4.760 -2.0657 -0.6653 -1.3205
 6228TIP3   OH240174   0.019   5.068   5.937 -0.2604  0.2425  0.0197
 6228TIP3    H140175   0.072   5.023   5.871 -0.9744 -0.3964 -0.1276
 6228TIP3    H240176   0.071   5.145   5.960  1.0799 -0.7178  0.3911
 6229TIP3   OH240177   0.021   4.519  13.402  0.1323  0.1271 -0.9335
 6229TIP3    H140178  -0.015   4.530  13.313  0.7894  0.4752 -1.1557
 6229TIP3    H240179  -0.032   4.578  13.456 -0.7711 -0.6368 -0.9480
 6230TIP3   OH240180   2.831   5.151  12.599  0.5666 -0.7183  0.0890
 6230TIP3    H140181   2.841   5.220  12.665 -1.8476 -2.4746  2.5172
 6230TIP3    H240182   2.866   5.072  12.641  1.6321 -1.3760 -1.9124
 6231TIP3   OH240183   1.451   3.409   3.881 -0.8362 -0.2360  0.4996
 6231TIP3    H140184   1.442   3.474   3.811  1.7695  0.5558  0.7851
 6231TIP3    H240185   1.530   3.359   3.858 -0.6981 -0.8595  2.1662
 6232TIP3   OH240186   5.909   0.718   1.518 -0.4323  0.6289  0.0358
 6232TIP3    H140187   5.977   0.699   1.584  0.1030 -1.0785 -0.9352
 6232TIP3    H240188   5.841   0.764   1.567  0.0603 -0.3349  1.7493
 6233TIP3   OH240189   3.391   3.358   3.190 -0.9502  0.6275 -0.1997
 6233TIP3    H140190   3.431   3.368   3.104  0.3312  0.4708  0.3549
 6233TIP3    H240191   3.382   3.448   3.223  0.5502  0.5825  0.3694
 6234TIP3   OH240192   6.145   0.900   4.032 -0.6346  0.3207 -0.2587
 6234TIP3    H140193   6.182   0.843   3.964 -2.3830 -1.0741 -0.1066
 6234TIP3    H240194   6.129   0.984   3.987  0.7165  0.2954 -0.8370
 6235TIP3   OH240195   2.993   2.121  16.814 -0.7139 -0.6212  0.0727
 6235TIP3    H140196   3.066   2.106  16.874  0.3815 -0.4090 -1.1343
 6235TIP3    H240197   2.966   2.211  16.832 -1.3030 -1.0025  1.1574
 6236TIP3   OH240198   2.568   0.731  13.274 -0.1689 -0.1564 -0.0931
 6236TIP3    H140199   2.568   0.697  13.363 -0.4060 -0.0185 -0.0402
 6236TIP3    H240200   2.476   0.752  13.256 -0.2703 -1.0241 -0.6845
 6237TIP3   OH240201   6.370   5.020  10.667 -0.7292  0.2581  0.0269
 6237TIP3    H140202   6.422   4.977  10.599  0.7752  1.4864  0.3539
 6237TIP3    H240203   6.344   4.949  10.726  1.3216 -0.3037  0.3258
 6238TIP3   OH240204   6.449   6.042   6.124  0.2263  0.0764  0.3513
 6238TIP3    H140205   6.455   6.036   6.028  2.3634  1.4428  0.3432
 6238TIP3    H240206   6.447   6.136   6.142 -0.7518 -0.1638  1.6648
 6239TIP3   OH240207   3.591   0.428   4.510 -0.0486  0.2543  0.4567
 6239TIP3    H140208   3.648   0.372   4.456 -0.5834 -2.6160  2.6434
 6239TIP3    H240209   3.503   0.395   4.495 -0.2389 -0.4914  2.8292
 6240TIP3   OH240210   2.561   1.784  11.076 -0.0776  0.2435  0.6449
 6240TIP3    H140211   2.615   1.709  11.051  0.8981  0.7683  1.1304
 6240TIP3    H240212   2.521   1.759  11.158  1.0824  0.6302  1.3586
 6241TIP3   OH240213   5.125   1.552  16.361  0.2317  0.2470 -0.0542
 6241TIP3    H140214   5.103   1.472  16.313  0.9684  1.1412 -2.0094
 6241TIP3    H240215   5.171   1.521  16.438  1.6655 -1.2279 -1.4119
 6242TIP3   OH240216   5.120   4.587  13.111 -0.1575 -0.4664 -0.1883
 6242TIP3    H140217   5.210   4.585  13.079  0.5487 -2.3353  1.7210
 6242TIP3    H240218   5.082   4.504  13.081 -0.6010 -0.6008  0.7029
 6243TIP3   OH240219   1.099   1.597   0.023  0.3489 -0.1193  0.1467
 6243TIP3    H140220   1.190   1.582   0.048  0.0394 -0.4821  1.0923
 6243TIP3    H240221   1.099   1.590  -0.072  0.8701 -2.6947  0.2745
 6244TIP3   OH240222   5.792   5.810  15.135 -0.1172 -0.2043  0.3011
 6244TIP3    H140223   5.749   5.739  15.089 -0.4776 -1.2503  2.1601
 6244TIP3    H240224   5.731   5.833  15.206  1.4274 -0.3172  1.7234
 6245TIP3   OH240225   2.657   2.244  12.084  0.1573  0.0144 -1.0978
 6245TIP3    H140226   2.585   2.307  12.089  0.0956 -0.1774  1.2335
 6245TIP3    H240227   2.670   2.231  11.990 -2.6398  0.2882 -1.6044
 6246TIP3   OH240228   3.294   0.270  16.928  0.0275 -0.1163 -0.5796
 6246TIP3    H140229   3.314   0.269  17.022  0.0900 -2.4784 -0.5652
 6246TIP3    H240230   3.226   0.337  16.919  0.1913  0.3337  1.0854
 6247TIP3   OH240231   4.569   0.862   1.068 -0.0514  0.4796  0.2165
 6247TIP3    H140232   4.637   0.833   1.008 -0.7813 -0.3719 -0.2121
 6247TIP3    H240233   4.517   0.925   1.018 -0.6792 -0.2539 -0.0563
 6248TIP3   OH240234   0.711   3.247   4.608 -0.2426  0.3796 -0.4847
 6248TIP3    H140235   0.626   3.282   4.581 -0.0567 -0.0462 -1.7001
 6248TIP3    H240236   0.734   3.185   4.539  1.6721  1.4873 -0.9074
 6249TIP3   OH240237   3.245   0.233  10.292 -0.1326  0.0410 -0.2509
 6249TIP3    H140238   3.172   0.274  10.246  0.9993  0.8025 -1.4324
 6249TIP3    H240239   3.254   0.284  10.373 -1.2023 -0.3723  0.1379
 6250TIP3   OH240240   6.403   2.044  13.121 -0.4289  0.3785  0.0009
 6250TIP3    H140241   6.393   1.981  13.192 -1.3213  0.1360 -0.3333
 6250TIP3    H240242   6.349   2.009  13.050 -0.3566  1.1449 -0.4383
 6251TIP3   OH240243   5.601   4.644  14.986 -0.2119  0.4177 -0.1349
 6251TIP3    H140244   5.548   4.571  14.954 -0.8642  0.5444  0.6252
 6251TIP3    H240245   5.687   4.630  14.947 -0.1399 -1.1367  0.4887
 6252TIP3   OH240246   1.635   1.126  17.268  0.2927  0.3715 -0.3754
 6252TIP3    H140247   1.676   1.044  17.295  0.7890  0.4958 -0.7375
 6252TIP3    H240248   1.635   1.123  17.173 -0.8651  0.2225 -0.3775
 6253TIP3   OH240249   2.898   4.006   1.661 -0.1447 -0.6041  0.2638
 6253TIP3    H140250   2.972   3.945   1.660  2.5846  2.3958  0.9705
 6253TIP3    H240251   2.876   4.019   1.569  0.2787 -1.4441  0.0310
 6254TIP3   OH240252   2.928   2.220  15.460 -0.6606 -0.2122  0.4144
 6254TIP3    H140253   3.004   2.189  15.411 -0.9233 -0.7475  0.3416
 6254TIP3    H240254   2.854   2.170  15.426 -1.4365  1.7821 -1.0379
 6255TIP3   OH240255   3.108   4.786  13.948  0.1182  0.2091  0.1748
 6255TIP3    H140256   3.103   4.880  13.932  0.7617  0.3157  0.5548
 6255TIP3    H240257   3.158   4.751  13.874 -0.4031  0.1108 -0.1386
 6256TIP3   OH240258   2.262   3.486  12.880  0.2425  0.0911 -0.4496
 6256TIP3    H140259   2.271   3.393  12.903 -2.0377 -0.1631 -0.3791
 6256TIP3    H240260   2.334   3.502  12.819 -0.2119 -2.1489 -1.6953
 6257TIP3   OH240261   1.579   1.479   3.163 -0.7302  0.7497  0.4940
 6257TIP3    H140262   1.495   1.525   3.170 -1.6995 -0.7511 -0.8593
 6257TIP3    H240263   1.563   1.393   3.202  0.1360  0.3952  0.0996
 6258TIP3   OH240264   6.798   4.703  13.629  0.0781 -0.4081  0.3426
 6258TIP3    H140265   6.748   4.772  13.587  1.6789  1.6421  1.6202
 6258TIP3    H240266   6.874   4.690  13.573  0.6317  0.0978  0.9651
 6259TIP3   OH240267   2.862   1.572  15.012  0.5621 -0.0187 -0.1505
 6259TIP3    H140268   2.926   1.532  15.070 -1.5550 -1.2280  1.5122
 6259TIP3    H240269   2.808   1.626  15.069 -1.6989 -1.3916 -0.8493
 6260TIP3   OH240270   1.435   0.778  11.211 -0.0658 -0.1171 -0.0818
 6260TIP3    H140271   1.440   0.684  11.229  0.1093  0.0974  1.0775
 6260TIP3    H240272   1.351   0.789  11.167 -1.5704 -0.4401  2.4836
 6261TIP3   OH240273   3.154   1.906  13.386 -0.0403  0.0215  0.3108
 6261TIP3    H140274   3.218   1.977  13.385 -1.6303  1.6337  2.7108
 6261TIP3    H240275   3.169   1.859  13.303  2.5167  1.7962 -0.3496
 6262TIP3   OH240276   2.128   0.672   6.032 -0.0060 -0.4246  0.1222
 6262TIP3    H140277   2.094   0.759   6.055 -2.4848 -1.1152 -0.5187
 6262TIP3    H240278   2.081   0.612   6.090 -0.9016 -1.5522 -1.6710
 6263TIP3   OH240279   5.124   1.702   1.282 -0.0172 -0.7296  0.6497
 6263TIP3    H140280   5.219   1.694   1.292  0.2116  0.4478 -0.2746
 6263TIP3    H240281   5.103   1.647   1.206 -0.0122 -0.7171  0.6392
 6264TIP3   OH240282   3.754   5.340   4.991 -0.6291 -0.9704  0.1885
 6264TIP3    H140283   3.770   5.394   4.914  2.0256 -1.5934  0.2079
 6264TIP3    H240284   3.696   5.393   5.046  3.5125  3.1116  1.2855
 6265TIP3   OH240285   4.876   6.729  17.119 -0.0902  0.2131  0.1708
 6265TIP3    H140286   4.832   6.792  17.176 -1.7620  0.9695 -1.8022
 6265TIP3    H240287   4.838   6.746  17.032  1.8921 -1.2639 -1.0543
 6266TIP3   OH240288   4.002   0.797  15.678  0.3965 -0.1607  0.2284
 6266TIP3    H140289   4.000   0.775  15.585 -1.7702 -1.4772  0.5093
 6266TIP3    H240290   3.977   0.889  15.680  1.6998  0.2375 -0.5350
 6267TIP3   OH240291   0.377   0.254   4.315 -0.5217 -1.1813  0.4462
 6267TIP3    H140292   0.411   0.293   4.396 -1.9999 -0.6930  0.8681
 6267TIP3    H240293   0.296   0.210   4.342 -1.8423  0.2471 -0.9992
 6268TIP3   OH240294   1.826   5.151   0.711  0.1149  0.4333  0.6359
 6268TIP3    H140295   1.854   5.159   0.620  1.6284 -1.0649  0.9163
 6268TIP3    H240296   1.794   5.238   0.735  1.0310  1.2202 -0.8906
 6269TIP3   OH240297   1.453   5.717   0.231  0.2473  0.2703 -0.3722
 6269TIP3    H140298   1.461   5.696   0.138 -1.0124 -0.1376 -0.4107
 6269TIP3    H240299   1.508   5.795   0.243 -2.0263  2.3224 -2.1879
 6270TIP3   OH240300   0.871   2.453  17.220 -0.3177 -0.6703 -0.2468
 6270TIP3    H140301   0.880   2.436  17.314  0.1736 -0.5501 -0.2718
 6270TIP3    H240302   0.794   2.510  17.213 -0.2427 -0.5274  0.1002
 6271TIP3   OH240303   3.122   3.718  14.286 -0.0297 -0.7323  0.3673
 6271TIP3    H140304   3.067   3.714  14.208 -1.3722 -1.3137  1.2970
 6271TIP3    H240305   3.211   3.706  14.254 -0.3001  1.2462 -1.3236
 6272TIP3   OH240306   4.568   3.646  11.982  0.5235  0.2137 -0.3174
 6272TIP3    H140307   4.495   3.688  12.028  0.4164  0.2319 -0.5007
 6272TIP3    H240308   4.536   3.637  11.892  0.1372 -1.2046 -0.0615
 6273TIP3   OH240309   3.834   0.648   1.375 -0.3185 -0.0248 -0.1994
 6273TIP3    H140310   3.851   0.684   1.288  1.4139 -4.0487 -1.7811
 6273TIP3    H240311   3.921   0.641   1.415 -0.5757 -1.8510  0.1505
 6274TIP3   OH240312   5.921   2.796  12.378  0.1614  0.0727  0.3147
 6274TIP3    H140313   5.851   2.843  12.331  0.8822  0.8890  0.0368
 6274TIP3    H240314   5.977   2.865  12.413  2.1528 -0.5220 -1.4546
 6275TIP3   OH240315   0.285   5.871   2.514  0.1126 -0.2441 -0.4017
 6275TIP3    H140316   0.202   5.834   2.485 -0.5896  0.1493  0.9889
 6275TIP3    H240317   0.272   5.966   2.511  0.3451 -0.1825  0.2166
 6276TIP3   OH240318   6.544   5.773  15.602  0.4658 -0.4664  0.1278
 6276TIP3    H140319   6.506   5.801  15.685 -0.0992  2.0935 -0.8811
 6276TIP3    H240320   6.629   5.817  15.599  0.6991 -0.9465 -0.4428
 6277TIP3   OH240321   5.342   0.206  16.555 -0.0051  0.0495  0.0848
 6277TIP3    H140322   5.268   0.152  16.529 -0.6167 -0.0510  1.8731
 6277TIP3    H240323   5.414   0.177  16.499 -0.7049 -1.5862 -0.0257
 6278TIP3   OH240324   4.417   2.443  14.921 -0.2907 -0.3762 -0.4967
 6278TIP3    H140325   4.436   2.406  14.835  0.5934 -1.6631  0.2257
 6278TIP3    H240326   4.488   2.506  14.936 -0.6902  0.1733 -0.8860
 6279TIP3   OH240327   1.965   6.475   6.508 -0.2333  0.5376 -0.0750
 6279TIP3    H140328   1.928   6.525   6.580  1.4286  1.5727  0.1321
 6279TIP3    H240329   2.030   6.418   6.548 -0.7986 -0.4616 -0.5330
 6280TIP3   OH240330   5.328   0.968   5.418 -0.0851  0.2954 -0.2173
 6280TIP3    H140331   5.358   1.004   5.502  1.1119  1.4603 -1.1069
 6280TIP3    H240332   5.312   1.044   5.363  1.8786 -0.4605 -1.9596
 6281TIP3   OH240333   6.065   1.887   0.672  0.4799 -0.1720  0.1633
 6281TIP3    H140334   6.003   1.855   0.737 -1.3320  1.2975 -0.7317
 6281TIP3    H240335   6.135   1.928   0.724 -0.1352 -0.3984  1.2063
 6282TIP3   OH240336   5.122   0.353   3.727 -0.2431  0.1029 -0.3874
 6282TIP3    H140337   5.169   0.335   3.809 -0.2848 -1.4898 -0.6811
 6282TIP3    H240338   5.155   0.438   3.698 -0.8973  1.1412  1.7359
 6283TIP3   OH240339   3.410   5.690   3.516  0.2250 -0.3970  0.1839
 6283TIP3    H140340   3.428   5.619   3.455 -1.8038 -1.7917  1.0951
 6283TIP3    H240341   3.467   5.673   3.591  0.1028 -0.7998  0.1873
 6284TIP3   OH240342   0.540   6.374  15.803  0.0747 -0.2079 -0.3912
 6284TIP3    H140343   0.588   6.383  15.720  0.3957  0.0936 -0.1720
 6284TIP3    H240344   0.493   6.291  15.793 -1.0816  0.5382 -1.4853
 6285TIP3   OH240345   4.298   0.675  14.426  0.3642  0.3492 -0.4080
 6285TIP3    H140346   4.315   0.660  14.333 -0.9633  0.2265 -0.6606
 6285TIP3    H240347   4.319   0.767  14.439  0.8233  0.2997 -0.7642
 6286TIP3   OH240348   0.676   1.372  12.965  0.0807  0.3280 -0.2752
 6286TIP3    H140349   0.731   1.444  12.995 -0.4580 -0.2853  2.5164
 6286TIP3    H240350   0.589   1.392  12.999 -0.4801 -0.7614 -0.9879
 6287TIP3   OH240351   5.843   4.990   2.505  0.0197 -0.0879 -0.1237
 6287TIP3    H140352   5.873   5.074   2.539  0.1015  0.5103 -1.5901
 6287TIP3    H240353   5.757   4.977   2.544 -0.3161  1.0417 -0.4435
 6288TIP3   OH240354   5.655   4.782  15.647  0.3447  0.2035 -0.0002
 6288TIP3    H140355   5.624   4.810  15.733 -0.2104  0.3030 -0.2355
 6288TIP3    H240356   5.723   4.717  15.667 -1.1631 -1.2865  0.5207
 6289TIP3   OH240357   5.147   0.115  13.733  0.1886  0.2470 -0.0997
 6289TIP3    H140358   5.081   0.131  13.665  1.0898  1.1742 -0.7993
 6289TIP3    H240359   5.170   0.023  13.723  3.2281  1.1353 -3.9151
 6290TIP3   OH240360   0.127   5.705  12.248 -0.3681  0.0219 -0.4061
 6290TIP3    H140361   0.045   5.737  12.211  1.0236 -0.4955 -4.5281
 6290TIP3    H240362   0.192   5.771  12.223  0.4904  1.1028  3.8671
 6291TIP3   OH240363   4.975   0.271   1.045  0.5907 -0.1824  0.4788
 6291TIP3    H140364   5.038   0.217   1.093  0.4395 -0.7152  0.0948
 6291TIP3    H240365   4.891   0.249   1.084  0.5290 -0.2264  0.3224
 6292TIP3   OH240366   3.331   5.070  13.149 -0.0959 -0.0247 -0.4144
 6292TIP3    H140367   3.416   5.106  13.175 -0.7691  1.2857  0.0342
 6292TIP3    H240368   3.352   4.985  13.111  1.2373 -0.6959  1.6385
 6293TIP3   OH240369   2.797   3.007  12.980  0.1238 -0.5375  0.1806
 6293TIP3    H140370   2.825   3.053  13.058  0.5908 -0.0878 -0.2479
 6293TIP3    H240371   2.702   3.014  12.980  0.2082  0.7456 -0.0712
 6294TIP3   OH240372   0.177   6.666  13.202 -0.2558 -0.4131  0.3953
 6294TIP3    H140373   0.257   6.720  13.199 -0.9810  0.6673 -0.0607
 6294TIP3    H240374   0.209   6.577  13.217  1.0110  0.0622  0.6549
 6295TIP3   OH240375   0.810   3.581   3.071  0.6820  0.0737 -0.0526
 6295TIP3    H140376   0.752   3.587   2.995  1.6771  0.7081 -0.7801
 6295TIP3    H240377   0.812   3.487   3.092 -1.2928  0.1248  0.5655
 6296TIP3   OH240378   4.859   1.884   0.861  0.1645 -0.4654  0.1041
 6296TIP3    H140379   4.847   1.973   0.827 -0.7392 -1.0376 -1.1852
 6296TIP3    H240380   4.787   1.872   0.923 -1.1153 -1.0290 -1.4095
 6297TIP3   OH240381   0.806   2.089  15.122 -0.1148 -0.0166  0.3704
 6297TIP3    H140382   0.874   2.061  15.183  0.4380 -0.0135 -0.2349
 6297TIP3    H240383   0.829   2.047  15.040 -0.8531 -0.0191  0.1564
 6298TIP3   OH240384   0.794   4.935   2.972  0.3293 -0.1330 -0.0156
 6298TIP3    H140385   0.708   4.939   3.013  0.2423 -0.7442 -0.1210
 6298TIP3    H240386   0.850   4.893   3.037  0.5855  0.3926  0.1069
 6299TIP3   OH240387   3.169   4.435  11.573  0.4608  0.4220  0.2574
 6299TIP3    H140388   3.212   4.415  11.489  1.1916  1.9024  0.2535
 6299TIP3    H240389   3.114   4.511  11.554 -0.5471 -0.1580  0.7814
 6300TIP3   OH240390   0.245   5.958  15.627  0.1318 -0.2315  0.2361
 6300TIP3    H140391   0.297   5.878  15.640  1.0059  0.0767 -1.1653
 6300TIP3    H240392   0.206   5.948  15.541  1.3063  1.3806 -0.5516
 6301TIP3   OH240393   4.529   4.793  16.580  0.0487  0.6569  0.4499
 6301TIP3    H140394   4.516   4.708  16.620  1.6027 -0.7074 -1.6991
 6301TIP3    H240395   4.441   4.827  16.565 -0.6080  0.8222  3.9163
 6302TIP3   OH240396   5.579   3.812  11.656 -0.2229  0.4003  0.1074
 6302TIP3    H140397   5.647   3.796  11.721 -0.2309  0.1505  0.0541
 6302TIP3    H240398   5.551   3.725  11.628  1.4379  0.4212 -1.9525
 6303TIP3   OH240399   3.900   2.482  11.745  0.8259  0.6308  0.2538
 6303TIP3    H140400   3.971   2.493  11.681  3.1117 -4.1664  1.5058
 6303TIP3    H240401   3.867   2.393  11.729 -2.7850  1.4784  1.9282
 6304TIP3   OH240402   4.361   3.216   6.196 -0.0375  0.4893  0.4798
 6304TIP3    H140403   4.336   3.170   6.276 -0.1546 -0.5302 -0.1263
 6304TIP3    H240404   4.304   3.294   6.195  0.1414  0.6538  1.5013
 6305TIP3   OH240405   3.749   0.869   4.933 -0.3837  0.7962 -0.1477
 6305TIP3    H140406   3.844   0.875   4.941 -0.3075 -0.1588 -0.2905
 6305TIP3    H240407   3.717   0.873   5.024 -0.0402 -1.3741  0.1084
 6306TIP3   OH240408   0.290   5.061  13.094  0.0992  0.2908  0.4130
 6306TIP3    H140409   0.325   5.018  13.172 -0.4033 -1.2363 -0.1583
 6306TIP3    H240410   0.348   5.032  13.023  0.5619  1.6766  0.1878
 6307TIP3   OH240411   4.415   3.532  11.657 -0.7043  0.0974  0.0983
 6307TIP3    H140412   4.430   3.439  11.641 -1.9362 -0.4540  1.8408
 6307TIP3    H240413   4.323   3.546  11.633  0.0402  1.4415 -2.3138
 6308TIP3   OH240414   2.815   2.491  17.116 -0.2870  0.3311 -0.1912
 6308TIP3    H140415   2.764   2.483  17.196 -1.2311  0.7131 -0.7356
 6308TIP3    H240416   2.845   2.582  17.115 -1.4311  0.7306 -0.9164
 6309TIP3   OH240417   3.439   2.707   5.808  0.0762 -0.7219  0.1979
 6309TIP3    H140418   3.532   2.687   5.810  0.2582  0.1038  0.0756
 6309TIP3    H240419   3.415   2.717   5.901  0.6427  1.4231  0.1641
 6310TIP3   OH240420   1.887   3.919  13.992 -0.2758  0.2047  0.3757
 6310TIP3    H140421   1.943   3.996  13.983  1.3455 -0.9844 -0.1340
 6310TIP3    H240422   1.940   3.856  14.040  0.1242 -2.0748 -2.6923
 6311TIP3   OH240423   5.895   6.148  15.509  0.0913 -0.2757  0.7699
 6311TIP3    H140424   5.893   6.160  15.604  1.3014 -1.3027  0.9522
 6311TIP3    H240425   5.838   6.072  15.494 -3.5712  2.2952  0.1460
 6312TIP3   OH240426   4.417   3.803   4.952  0.0665  0.9693 -1.1144
 6312TIP3    H140427   4.343   3.848   4.910 -1.0936 -0.2705 -0.4941
 6312TIP3    H240428   4.431   3.725   4.899 -0.6397  0.0007  0.0567
 6313TIP3   OH240429   2.706   1.847  15.551  0.0038 -0.5610  0.4020
 6313TIP3    H140430   2.629   1.812  15.507  1.2327  1.3852 -3.8424
 6313TIP3    H240431   2.682   1.937  15.575  0.5245 -0.3970  0.3274
 6314TIP3   OH240432   5.694   0.771  14.838  0.8788 -0.4827  0.1093
 6314TIP3    H140433   5.677   0.849  14.891  1.3667 -0.2540 -0.0642
 6314TIP3    H240434   5.737   0.804  14.759 -1.5886 -0.5923 -1.3905
 6315TIP3   OH240435   6.702   2.572   1.358  0.2268  0.3494  0.1182
 6315TIP3    H140436   6.639   2.609   1.297 -0.1374 -1.6501 -0.7961
 6315TIP3    H240437   6.755   2.513   1.305  0.0509 -1.2658  1.6495
 6316TIP3   OH240438   1.398   3.613   1.307 -1.0504  0.1917 -0.2663
 6316TIP3    H140439   1.419   3.702   1.281 -1.6397 -0.1992 -2.2589
 6316TIP3    H240440   1.453   3.558   1.250 -1.6257 -0.7231  0.0443
 6317TIP3   OH240441   5.084   1.797   2.787  0.2579 -0.0375  0.8497
 6317TIP3    H140442   5.170   1.807   2.746  0.2539 -0.4502  0.7424
 6317TIP3    H240443   5.023   1.792   2.713  0.0899  0.6902  0.9306
 6318TIP3   OH240444   2.388   6.043  15.720 -0.4334  0.4018  0.1693
 6318TIP3    H140445   2.370   6.092  15.801 -1.9344 -0.0789  0.1452
 6318TIP3    H240446   2.349   5.957  15.736  0.5488 -0.1815 -0.5162
 6319TIP3   OH240447   0.119   5.351   5.777  0.6888 -0.6060  0.0671
 6319TIP3    H140448   0.165   5.321   5.855  0.9882 -0.8873 -0.2106
 6319TIP3    H240449   0.134   5.446   5.775  1.2530 -0.6918 -0.0124
 6320TIP3   OH240450   5.033   3.755   2.339  0.1649  0.6887  0.0027
 6320TIP3    H140451   5.034   3.691   2.409  0.0860  0.7851  0.0938
 6320TIP3    H240452   5.047   3.839   2.383  1.4111  0.6296 -0.2371
 6321TIP3   OH240453   3.194   2.982   0.754 -0.3758 -0.5692  0.4496
 6321TIP3    H140454   3.121   2.920   0.759 -3.4067  2.6398  0.4196
 6321TIP3    H240455   3.205   3.014   0.844 -2.7114  2.6090 -0.2210
 6322TIP3   OH240456   4.665   3.002   1.775 -0.3165  0.9374 -0.2790
 6322TIP3    H140457   4.713   3.049   1.843 -0.3102 -2.5645  2.4532
 6322TIP3    H240458   4.722   2.929   1.752 -2.7764 -1.3987  0.5251
 6323TIP3   OH240459   5.047   5.880   4.641 -0.2962  0.5494 -0.3046
 6323TIP3    H140460   5.028   5.878   4.735 -0.4665  0.2650 -0.3439
 6323TIP3    H240461   5.134   5.920   4.635  0.0313 -0.0928  0.0248
 6324TIP3   OH240462   3.166   1.394   5.195 -0.0743 -0.3600 -0.8527
 6324TIP3    H140463   3.178   1.299   5.185  1.9866 -0.1892 -0.4892
 6324TIP3    H240464   3.161   1.408   5.289 -0.7338 -0.1310 -0.9189
 6325TIP3   OH240465   1.707   1.396   0.435  0.4830 -0.1756 -0.4726
 6325TIP3    H140466   1.784   1.350   0.467  0.4417 -0.5643 -0.9179
 6325TIP3    H240467   1.736   1.487   0.424  0.8451 -0.2995 -0.5366
 6326TIP3   OH240468   1.279   4.813   2.498  0.1322  0.8240  0.4575
 6326TIP3    H140469   1.188   4.813   2.526  0.3565 -0.9630  1.2924
 6326TIP3    H240470   1.324   4.871   2.560  0.2776 -1.5918  2.7588
 6327TIP3   OH240471   4.999   4.139   0.588  0.0301 -0.3842 -0.5246
 6327TIP3    H140472   5.018   4.049   0.563  1.1061  0.3069 -2.3636
 6327TIP3    H240473   5.077   4.168   0.634  0.0417 -0.1377 -0.6976
 6328TIP3   OH240474   3.238   2.779   5.196 -0.4242  0.6029  0.1923
 6328TIP3    H140475   3.208   2.839   5.264 -1.7238 -0.4204  0.5630
 6328TIP3    H240476   3.244   2.834   5.117  0.6976  1.7103  1.0060
 6329TIP3   OH240477   0.928   0.561  13.560  0.5665  0.1112 -0.5086
 6329TIP3    H140478   1.008   0.607  13.535 -0.2288  1.4459 -0.6638
 6329TIP3    H240479   0.858   0.624  13.546 -0.5331 -1.0321 -0.3745
 6330TIP3   OH240480   5.218   1.156   2.773 -0.0652 -0.5059  0.1947
 6330TIP3    H140481   5.304   1.138   2.737 -0.6438  0.6717 -1.9024
 6330TIP3    H240482   5.204   1.249   2.758 -1.4299 -0.5190  1.1493
 6331TIP3   OH240483   0.961   5.894  17.105  0.1506  0.1132  0.2587
 6331TIP3    H140484   1.044   5.933  17.132  0.8538 -0.4708 -0.9534
 6331TIP3    H240485   0.941   5.831  17.174  1.4711 -0.7563 -0.1015
 6332TIP3   OH240486   6.700   2.656  11.787 -0.1750 -0.4506 -0.2126
 6332TIP3    H140487   6.784   2.670  11.829 -0.3898  2.1598 -0.5061
 6332TIP3    H240488   6.641   2.631  11.859  0.2119  0.6140  0.4975
 6333TIP3   OH240489   6.382   6.242   2.377  0.4841 -0.5644  0.0169
 6333TIP3    H140490   6.402   6.170   2.437 -2.1478 -0.1023  1.6300
 6333TIP3    H240491   6.413   6.320   2.423 -0.3882 -0.3261  0.2208
 6334TIP3   OH240492   4.063   3.294   1.173  0.4025  0.0461 -0.4117
 6334TIP3    H140493   4.085   3.232   1.104 -3.8243 -0.2514 -1.7625
 6334TIP3    H240494   3.977   3.266   1.204  0.1149  2.9070  1.8111
 6335TIP3   OH240495   1.193   4.064   5.906 -0.2210 -0.0358 -0.3383
 6335TIP3    H140496   1.239   4.002   5.850 -1.4885 -1.1142 -0.2225
 6335TIP3    H240497   1.175   4.139   5.850  1.6549  0.4300 -0.3778
 6336TIP3   OH240498   3.479   4.240   3.506  0.2425  0.0865 -0.1488
 6336TIP3    H140499   3.492   4.283   3.422  1.5126  0.1941  0.0824
 6336TIP3    H240500   3.390   4.266   3.532 -1.3765 -2.2647 -2.7542
 6337TIP3   OH240501   4.760   6.660   6.073 -0.0908  0.3499 -0.3929
 6337TIP3    H140502   4.670   6.645   6.103 -0.4397  1.0179 -1.0357
 6337TIP3    H240503   4.795   6.725   6.134 -0.6494  1.3759 -1.1111
 6338TIP3   OH240504   2.947   6.028  11.453  0.4798  0.1006 -0.5961
 6338TIP3    H140505   3.028   6.067  11.485  0.5558 -0.2880 -0.2955
 6338TIP3    H240506   2.975   5.948  11.408  0.4084  0.8391 -2.0010
 6339TIP3   OH240507   3.053   2.593   5.538  0.3000  0.0275 -0.6193
 6339TIP3    H140508   2.988   2.544   5.489  2.3793 -0.4197 -3.1801
 6339TIP3    H240509   3.064   2.544   5.619 -0.1157 -1.8615 -1.6337
 6340TIP3   OH240510   4.384   5.633  11.073  0.2663  0.7427 -0.7553
 6340TIP3    H140511   4.325   5.681  11.015 -1.2184  0.0864  0.1296
 6340TIP3    H240512   4.344   5.642  11.160  1.0442 -0.3966 -0.2556
 6341TIP3   OH240513   4.196   1.158   0.815 -0.3523  0.4207  0.1783
 6341TIP3    H140514   4.224   1.079   0.860  0.6505  0.4626 -0.3365
 6341TIP3    H240515   4.264   1.174   0.750 -1.0243  1.1738 -0.3680
 6342TIP3   OH240516   4.305   1.394  11.728  0.2147  0.3859  0.5855
 6342TIP3    H140517   4.289   1.330  11.797  0.5119 -0.1350  0.1799
 6342TIP3    H240518   4.249   1.365  11.656  2.8079 -1.4483 -0.8498
 6343TIP3   OH240519   5.813   2.082  15.330 -0.4930  0.6659  0.2985
 6343TIP3    H140520   5.902   2.047  15.332 -0.1749  1.4683  1.0963
 6343TIP3    H240521   5.787   2.076  15.238  0.5925  0.9252 -0.0402
 6344TIP3   OH240522   4.796   4.193  12.052 -0.0435 -0.0556  0.6566
 6344TIP3    H140523   4.822   4.103  12.071 -1.9322 -0.5682  1.0746
 6344TIP3    H240524   4.720   4.183  11.994 -0.0392  1.2944  0.3969
 6345TIP3   OH240525   4.391   0.593   4.360  0.4029 -0.3723 -0.2702
 6345TIP3    H140526   4.472   0.595   4.309 -0.5109 -1.9898 -1.8931
 6345TIP3    H240527   4.344   0.517   4.328 -1.8035  0.5300  0.6141
 6346TIP3   OH240528   6.240   5.364  12.543 -0.6868 -0.7297  0.0806
 6346TIP3    H140529   6.264   5.305  12.615 -0.0341  1.9990  2.2741
 6346TIP3    H240530   6.153   5.395  12.566 -1.4324 -1.4892 -1.5594
 6347TIP3   OH240531   3.681   5.660   5.894  0.1903  0.7218  0.6130
 6347TIP3    H140532   3.751   5.634   5.834  0.4079 -1.0084  1.5792
 6347TIP3    H240533   3.613   5.696   5.836  0.4226 -0.8341 -0.7026
 6348TIP3   OH240534   6.245   1.126  12.157 -0.2100  0.1324  0.6301
 6348TIP3    H140535   6.238   1.188  12.085  0.4447 -0.6268 -0.1110
 6348TIP3    H240536   6.290   1.174  12.226 -1.0425  0.9396  0.6234
 6349TIP3   OH240537   3.464   4.505   0.849 -0.0360  0.1372 -0.1993
 6349TIP3    H140538   3.483   4.598   0.837 -0.6397  0.0512 -2.0461
 6349TIP3    H240539   3.478   4.490   0.943 -1.3231  2.4041  0.4360
 6350TIP3   OH240540   2.762   2.555  12.909  0.1036  0.0065  0.4188
 6350TIP3    H140541   2.746   2.590  12.821 -2.4504  0.3611  0.9404
 6350TIP3    H240542   2.820   2.620  12.950 -2.2480  2.2895  0.4036
 6351TIP3   OH240543   2.622   4.040   5.077 -0.4243  0.2648  0.5133
 6351TIP3    H140544   2.717   4.035   5.082 -0.3935  0.1024 -0.1488
 6351TIP3    H240545   2.593   4.033   5.168  0.1035 -1.7290  0.5874
 6352TIP3   OH240546   1.791   0.214   6.132  0.4043 -0.2358  0.0237
 6352TIP3    H140547   1.738   0.279   6.178 -2.3170 -2.5430  0.4098
 6352TIP3    H240548   1.856   0.187   6.197  0.6681  1.0603  0.3232
 6353TIP3   OH240549   2.599   2.327  13.371 -0.2940 -0.4590 -0.5677
 6353TIP3    H140550   2.625   2.400  13.315  0.1232 -0.0183  0.1841
 6353TIP3    H240551   2.503   2.328  13.368 -0.3546  1.1133  0.6480
 6354TIP3   OH240552   4.825   6.171  12.987 -0.4071 -0.4990  0.0814
 6354TIP3    H140553   4.838   6.090  12.938  0.3915 -0.7270  0.6383
 6354TIP3    H240554   4.786   6.142  13.070 -0.7245 -0.2370  0.0256
 6355TIP3   OH240555   1.258   3.355   1.541  0.2842  0.4257 -0.0284
 6355TIP3    H140556   1.211   3.438   1.537  0.4811  0.6119  1.1959
 6355TIP3    H240557   1.337   3.374   1.591  0.0696 -0.6160  0.7387
 6356TIP3   OH240558   0.561   0.879   1.193 -0.4339 -0.4801 -0.2784
 6356TIP3    H140559   0.547   0.941   1.121  0.0286 -0.7409 -0.6005
 6356TIP3    H240560   0.577   0.934   1.269  0.5943 -0.1895 -0.6844
 6357TIP3   OH240561   5.757   0.435  14.426 -0.0278 -0.4470 -0.8657
 6357TIP3    H140562   5.683   0.375  14.422  0.6450 -1.5499  1.5410
 6357TIP3    H240563   5.750   0.487  14.346 -3.5137 -0.3203 -0.6101
 6358TIP3   OH240564   4.507   6.662  13.438  0.6170  0.0505  0.4489
 6358TIP3    H140565   4.536   6.748  13.467  1.3641 -0.4907  1.3462
 6358TIP3    H240566   4.565   6.600  13.482 -1.3731 -1.0334  1.6880
 6359TIP3   OH240567   2.561   3.816   0.359 -0.1179  0.2389  0.0302
 6359TIP3    H140568   2.590   3.867   0.434 -0.2507  0.5442 -0.1241
 6359TIP3    H240569   2.618   3.739   0.359  1.9650  1.6580 -1.3094
 6360TIP3   OH240570   3.273   2.005  11.052 -0.0379  0.3639  0.1946
 6360TIP3    H140571   3.355   1.958  11.071  0.8249  1.3926 -0.7821
 6360TIP3    H240572   3.291   2.049  10.969 -1.2950  1.3202  0.4174
 6361TIP3   OH240573   6.784   1.888  16.125 -0.2046  0.0660 -0.2491
 6361TIP3    H140574   6.766   1.979  16.099  0.5989  0.3953  0.3104
 6361TIP3    H240575   6.877   1.876  16.107 -0.6435 -1.1940 -1.8828
 6362TIP3   OH240576   2.461   1.284   0.907  0.4922  0.0959 -0.1565
 6362TIP3    H140577   2.440   1.296   0.814  0.7936 -0.1616 -0.2605
 6362TIP3    H240578   2.556   1.279   0.909  0.4438 -1.2589 -0.0039
 6363TIP3   OH240579   1.764   0.391  14.098 -0.3601 -0.1432 -0.4172
 6363TIP3    H140580   1.803   0.321  14.047  0.0481  0.1384 -0.4959
 6363TIP3    H240581   1.838   0.435  14.140 -0.6024  0.2930 -0.4348
 6364TIP3   OH240582   3.576   6.083   1.099  0.7277 -0.7095  0.1864
 6364TIP3    H140583   3.526   6.002   1.095  1.2104 -1.0617  1.1109
 6364TIP3    H240584   3.642   6.074   1.030 -0.1457 -0.4475 -0.7140
 6365TIP3   OH240585   6.473   5.965  15.830 -0.0718  0.1806  0.4360
 6365TIP3    H140586   6.443   5.897  15.891  1.9887 -1.1577  0.0441
 6365TIP3    H240587   6.568   5.954  15.827  0.0818  1.5985 -1.4333
 6366TIP3   OH240588   6.598   4.260  15.425  1.0211  0.2800  0.1227
 6366TIP3    H140589   6.624   4.346  15.392 -0.6235  1.1937  1.0938
 6366TIP3    H240590   6.515   4.241  15.383  1.2856 -0.7815  0.0441
 6367TIP3   OH240591   4.735   5.378  11.723 -0.2861  0.3376 -0.0094
 6367TIP3    H140592   4.759   5.398  11.814 -2.9453  0.3105  0.7978
 6367TIP3    H240593   4.771   5.451  11.672  0.5476  0.7804  1.1656
 6368TIP3   OH240594   6.432   4.277   6.005  0.0798 -0.3660 -0.4922
 6368TIP3    H140595   6.524   4.253   6.016  0.4361  1.1376  0.1269
 6368TIP3    H240596   6.387   4.238   6.080  0.7751  1.4311  0.9305
 6369TIP3   OH240597   2.786   2.713  12.122 -0.4126 -1.0951  0.1053
 6369TIP3    H140598   2.832   2.796  12.134 -0.0260 -1.0661 -1.4440
 6369TIP3    H240599   2.766   2.684  12.212 -0.6639  0.7010  0.6666
 6370TIP3   OH240600   1.751   2.500  12.845 -0.2071  0.0743 -0.5924
 6370TIP3    H140601   1.799   2.575  12.810  0.4424  0.5477  1.2073
 6370TIP3    H240602   1.787   2.425  12.798  1.1893  0.6042 -0.4424
 6371TIP3   OH240603   1.015   6.656   2.053  0.0849 -0.0832 -0.0650
 6371TIP3    H140604   1.110   6.668   2.044  0.3021  0.2268  1.9936
 6371TIP3    H240605   0.978   6.738   2.021  0.5428 -0.0383 -0.4948
 6372TIP3   OH240606   3.801   5.479  13.127  0.2638 -0.3499 -0.2215
 6372TIP3    H140607   3.758   5.556  13.163  0.7675  0.4384 -1.2693
 6372TIP3    H240608   3.744   5.449  13.057  0.0761 -0.9453  0.1707
 6373TIP3   OH240609   3.089   2.727  16.332 -0.1087  1.0051  0.0089
 6373TIP3    H140610   3.120   2.671  16.403  0.6233 -0.8973 -1.7067
 6373TIP3    H240611   2.993   2.720  16.336 -0.1327  1.7598  1.3951
 6374TIP3   OH240612   3.513   3.537  11.157 -0.6192  0.2725 -0.2553
 6374TIP3    H140613   3.529   3.448  11.125  0.6433  0.0772  0.8482
 6374TIP3    H240614   3.522   3.593  11.079  1.6096 -0.2570 -0.4258
 6375TIP3   OH240615   4.983   5.861   4.929 -0.2184  0.1570  0.0540
 6375TIP3    H140616   5.023   5.777   4.953 -1.7449 -1.2066 -1.9387
 6375TIP3    H240617   4.889   5.847   4.941 -0.5565  1.2824 -1.1739
 6376TIP3   OH240618   0.145   6.307  14.927  0.0405 -0.2519 -0.0512
 6376TIP3    H140619   0.128   6.384  14.982  1.0703  0.4098 -0.6364
 6376TIP3    H240620   0.059   6.283  14.892 -0.1648  1.2398 -0.6470
 6377TIP3   OH240621   1.822   0.872  15.854 -0.2491  0.1987  0.3167
 6377TIP3    H140622   1.859   0.922  15.927 -0.0917  1.8312 -0.8460
 6377TIP3    H240623   1.727   0.883  15.864 -0.1907  2.5516 -1.0984
 6378TIP3   OH240624   6.311   1.545  16.794 -0.0173  0.0572  0.4731
 6378TIP3    H140625   6.405   1.552  16.808  0.3237 -1.5471 -0.7640
 6378TIP3    H240626   6.285   1.464  16.839 -0.8085  0.4724  0.7933
 6379TIP3   OH240627   1.802   1.560   6.650 -0.2642 -1.4890 -0.2742
 6379TIP3    H140628   1.874   1.501   6.671 -0.2009 -1.7005 -1.0761
 6379TIP3    H240629   1.823   1.593   6.563 -0.4757 -0.5478  0.0225
 6380TIP3   OH240630   0.169   2.789  13.907 -0.1769  0.0453  0.3859
 6380TIP3    H140631   0.258   2.786  13.943 -1.0675 -2.7595  2.8121
 6380TIP3    H240632   0.116   2.821  13.980 -1.4097 -0.5323 -0.2398
 6381TIP3   OH240633   3.659   2.617   4.241  0.2355 -0.4198  0.0341
 6381TIP3    H140634   3.665   2.542   4.300  0.6896 -0.8714 -0.5719
 6381TIP3    H240635   3.622   2.581   4.161  0.9210 -0.0947 -0.4330
 6382TIP3   OH240636   4.167   0.230  12.937  0.0321  0.3034 -0.2472
 6382TIP3    H140637   4.109   0.203  13.008  0.3981  0.3447  0.0719
 6382TIP3    H240638   4.109   0.246  12.863 -0.6192  2.4309  0.6533
 6383TIP3   OH240639   5.648   6.179  15.396  0.2344  0.3139  0.1860
 6383TIP3    H140640   5.718   6.233  15.359 -0.3396  0.9207 -0.0236
 6383TIP3    H240641   5.645   6.204  15.488  0.1702  0.4243  0.1540
 6384TIP3   OH240642   5.329   3.739   7.036 -0.5773  0.1520 -0.8163
 6384TIP3    H140643   5.320   3.671   6.969  0.6509  1.4538 -2.3970
 6384TIP3    H240644   5.242   3.776   7.045 -1.3091 -1.6865  0.2060
 6385TIP3   OH240645   1.821   1.584  13.435  0.0789 -0.1032  0.3561
 6385TIP3    H140646   1.745   1.604  13.490 -1.8210 -0.3643 -2.0517
 6385TIP3    H240647   1.827   1.489  13.436 -1.9510 -0.3606 -2.2599
 6386TIP3   OH240648   4.554   6.029  16.105  0.0264 -0.2482  0.2413
 6386TIP3    H140649   4.478   6.078  16.072 -0.8434 -0.9285  1.1525
 6386TIP3    H240650   4.542   5.940  16.070  1.5318  0.1185 -1.3109
 6387TIP3   OH240651   5.799   4.596  16.854 -0.3528  0.0150 -0.3375
 6387TIP3    H140652   5.736   4.572  16.922  0.1875  1.6985  0.8675
 6387TIP3    H240653   5.752   4.658  16.798  0.5276  2.5603  1.5053
 6388TIP3   OH240654   2.012   0.013  12.955 -0.4273 -0.3496 -0.0142
 6388TIP3    H140655   1.921   0.023  12.927 -0.0604  0.4353 -0.9757
 6388TIP3    H240656   2.057  -0.022  12.878 -0.0622 -1.5631  0.7211
 6389TIP3   OH240657   4.186   5.632   5.226  0.1743 -0.0821  0.2866
 6389TIP3    H140658   4.268   5.601   5.189 -0.7182 -1.1747 -0.8504
 6389TIP3    H240659   4.175   5.580   5.306  0.1192 -0.6518 -0.0820
 6390TIP3   OH240660   1.889   0.825   5.449 -0.0633  0.4257  0.5602
 6390TIP3    H140661   1.926   0.899   5.402 -0.1417  0.4795  0.5826
 6390TIP3    H240662   1.941   0.819   5.529  0.8502 -0.4057 -0.0733
 6391TIP3   OH240663   5.275   5.636   2.140 -0.9509 -0.9297 -0.3289
 6391TIP3    H140664   5.324   5.691   2.079  2.0410 -3.8016 -0.7745
 6391TIP3    H240665   5.296   5.672   2.227  0.0552 -0.6730 -0.6686
 6392TIP3   OH240666   0.828   0.556  14.741  0.1436  0.0724  0.2566
 6392TIP3    H140667   0.881   0.634  14.759 -1.3670  2.0368 -2.8102
 6392TIP3    H240668   0.738   0.583  14.763 -0.0128 -2.8286  4.3828
 6393TIP3   OH240669   0.780   5.205  12.651 -0.1538  0.2890  0.3932
 6393TIP3    H140670   0.766   5.254  12.732  0.9458  0.3088  0.5844
 6393TIP3    H240671   0.822   5.267  12.592  2.4140 -0.7042  1.0536
 6394TIP3   OH240672   5.174   2.763   2.089  0.1023  0.0260  0.1334
 6394TIP3    H140673   5.151   2.716   2.169  3.0318  0.2479  1.2664
 6394TIP3    H240674   5.231   2.702   2.042  2.3845  1.5609  0.6956
 6395TIP3   OH240675   0.319   4.832   3.980  0.1350 -0.4491 -0.4751
 6395TIP3    H140676   0.267   4.912   3.983  0.9724  0.1585 -1.4017
 6395TIP3    H240677   0.289   4.781   4.055 -1.1242  0.2825 -0.4485
 6396TIP3   OH240678   0.199   4.636  14.005  0.2514 -0.2506  0.3816
 6396TIP3    H140679   0.159   4.556  13.969 -0.1923 -0.2483  0.8488
 6396TIP3    H240680   0.134   4.668  14.068 -0.9561  2.1040 -1.8783
 6397TIP3   OH240681   1.418   6.111   5.723 -0.5551 -0.1462 -0.4794
 6397TIP3    H140682   1.422   6.037   5.663 -1.4752 -0.3871 -0.2675
 6397TIP3    H240683   1.338   6.095   5.775 -0.0735  0.3349  0.4291
 6398TIP3   OH240684   3.658   1.138   1.694 -0.1021 -0.2569  0.1370
 6398TIP3    H140685   3.605   1.215   1.713  1.1528  1.0177 -1.2301
 6398TIP3    H240686   3.687   1.107   1.779  0.2962  1.5004  0.6860
 6399TIP3   OH240687   6.104   0.661   2.598 -0.5237 -0.4158 -0.6151
 6399TIP3    H140688   6.131   0.660   2.506 -0.0351 -1.3583 -0.4701
 6399TIP3    H240689   6.028   0.719   2.600  0.7381  1.3811 -1.2486
 6400TIP3   OH240690   0.287   0.453  15.650 -0.0856 -0.1692  0.0732
 6400TIP3    H140691   0.230   0.409  15.713  0.0144 -0.3379  0.0453
 6400TIP3    H240692   0.254   0.543  15.647 -0.1465 -0.1842  0.2986
 6401TIP3   OH240693   2.606   5.809   3.614  0.3637  0.0686  0.0551
 6401TIP3    H140694   2.691   5.838   3.648 -0.2276  2.4825 -0.3407
 6401TIP3    H240695   2.547   5.883   3.629 -1.5273 -1.2628 -0.3481
 6402TIP3   OH240696   4.437   0.399   0.139 -0.6307  0.2232 -0.6646
 6402TIP3    H140697   4.414   0.347   0.062 -1.9865  0.3598 -0.3642
 6402TIP3    H240698   4.354   0.433   0.171  0.1988  2.5582 -0.8253
 6403TIP3   OH240699   4.812   4.625   2.707  0.4954  0.4387 -0.0067
 6403TIP3    H140700   4.799   4.646   2.615 -0.8896  0.9906  0.2943
 6403TIP3    H240701   4.825   4.709   2.750 -2.3671  0.5898  0.7891
 6404TIP3   OH240702   2.213   1.279   5.328 -0.2259  0.0889 -0.6012
 6404TIP3    H140703   2.273   1.246   5.395  0.1503 -1.5040 -1.6631
 6404TIP3    H240704   2.269   1.329   5.269 -0.7254  2.4311  0.7597
 6405TIP3   OH240705   1.667   1.928   0.718 -0.1199 -0.5077  0.4515
 6405TIP3    H140706   1.683   1.853   0.775 -1.4268 -2.1416 -1.2113
 6405TIP3    H240707   1.577   1.955   0.737 -0.6481 -1.2023 -0.8978
 6406TIP3   OH240708   2.274   0.264  16.472  0.2697 -0.1847 -0.0137
 6406TIP3    H140709   2.223   0.229  16.545 -0.3123 -0.2421 -0.4382
 6406TIP3    H240710   2.288   0.188  16.415  2.5226 -0.6173  1.0296
 6407TIP3   OH240711   4.126   5.417  16.465 -0.0633 -0.0600  0.4873
 6407TIP3    H140712   4.129   5.322  16.473  0.2711 -0.0320  0.7431
 6407TIP3    H240713   4.112   5.449  16.554 -3.6184  0.0478  0.0253
 6408TIP3   OH240714   4.121   0.468  12.605  0.3234  0.0272 -0.3413
 6408TIP3    H140715   4.208   0.437  12.579  1.3838  1.1516  1.6096
 6408TIP3    H240716   4.088   0.401  12.664  0.7257  0.4907  0.4285
 6409TIP3   OH240717   6.081   2.048   2.240  0.0735  0.2252 -0.1691
 6409TIP3    H140718   6.050   2.116   2.180  1.8942  0.7645 -0.5548
 6409TIP3    H240719   6.091   1.970   2.184 -0.6993  0.0115 -0.0146
 6410TIP3   OH240720   0.240   5.940  10.399 -0.7163  0.7119  0.2182
 6410TIP3    H140721   0.221   5.995  10.476 -1.3959  1.0478 -0.1785
 6410TIP3    H240722   0.208   5.853  10.423  0.8659  0.3166  1.0659
 6411TIP3   OH240723   4.223   5.613   2.622  0.5139  0.0884  0.0113
 6411TIP3    H140724   4.255   5.605   2.711  1.4335  0.2905 -0.2862
 6411TIP3    H240725   4.221   5.523   2.589  1.5480  0.1304 -0.2110
 6412TIP3   OH240726   3.725   1.804  14.519  0.3734  0.4563  0.4127
 6412TIP3    H140727   3.685   1.744  14.581 -1.4822  1.0581 -0.1341
 6412TIP3    H240728   3.652   1.838  14.467  1.6156  1.5421 -0.7253
 6413TIP3   OH240729   1.484   2.809   0.441  0.0814 -0.7517 -0.2710
 6413TIP3    H140730   1.541   2.865   0.389 -0.0871 -0.9333 -0.6488
 6413TIP3    H240731   1.431   2.870   0.492  0.3247 -0.5770 -0.2256
 6414TIP3   OH240732   6.263   4.821  12.465 -0.0844 -0.5193  0.3394
 6414TIP3    H140733   6.253   4.750  12.402 -0.4953 -0.1221 -0.0481
 6414TIP3    H240734   6.357   4.837  12.470 -0.0017 -0.9883  0.3229
 6415TIP3   OH240735   2.177   3.069  16.219  0.1771 -1.1437 -0.0282
 6415TIP3    H140736   2.210   3.076  16.129  1.5953 -1.1286  0.4794
 6415TIP3    H240737   2.254   3.047  16.271 -0.1299  1.1814  1.5444
 6416TIP3   OH240738   1.324   2.452   4.075  0.3529 -0.6207  0.1236
 6416TIP3    H140739   1.307   2.357   4.078  0.3064 -0.7534 -2.3586
 6416TIP3    H240740   1.257   2.486   4.016  0.2614  1.0295  1.1247
 6417TIP3   OH240741   1.207   5.471  10.954 -0.0830  0.6168  0.0736
 6417TIP3    H140742   1.174   5.461  10.865 -0.8222 -0.8085  0.4782
 6417TIP3    H240743   1.264   5.396  10.967 -0.9380  0.1307  1.1921
 6418TIP3   OH240744   3.140   2.439   4.015  0.2747  0.3143 -0.4896
 6418TIP3    H140745   3.152   2.507   4.081  2.8513 -0.3025 -0.1941
 6418TIP3    H240746   3.046   2.434   4.001 -0.5446 -0.2557  3.9290
 6419TIP3   OH240747   1.736   4.340  14.146 -0.0023  0.7729 -0.2920
 6419TIP3    H140748   1.783   4.417  14.177  0.5545  0.8564 -1.2765
 6419TIP3    H240749   1.650   4.372  14.120 -0.2290  0.8204  0.4874
 6420TIP3   OH240750   6.061   4.904  10.850 -0.2589  0.3862  0.1749
 6420TIP3    H140751   6.150   4.893  10.818 -1.3869 -0.7325 -2.9237
 6420TIP3    H240752   6.026   4.977  10.801 -0.4867  2.3239  2.9755
 6421TIP3   OH240753   3.208   0.825   0.522  0.2148 -0.1497  0.0643
 6421TIP3    H140754   3.174   0.911   0.500 -2.5368 -1.4630 -1.4498
 6421TIP3    H240755   3.174   0.807   0.610  2.0865  0.8632  1.0258
 6422TIP3   OH240756   6.674   0.422  13.332  0.2321  0.4759  0.6669
 6422TIP3    H140757   6.633   0.449  13.414  0.8332  0.7148  0.8965
 6422TIP3    H240758   6.643   0.486  13.267 -3.0371 -1.6600 -0.1199
 6423TIP3   OH240759   4.698   4.633  10.566  0.1557 -0.1764 -0.1662
 6423TIP3    H140760   4.658   4.701  10.620  1.3326  0.5825 -0.2005
 6423TIP3    H240761   4.701   4.556  10.623 -0.4151  0.0515  0.1735
 6424TIP3   OH240762   3.644   2.041   3.159  0.1531  0.1787 -0.0238
 6424TIP3    H140763   3.606   2.118   3.200 -1.3459 -0.5482  0.0216
 6424TIP3    H240764   3.725   2.072   3.119 -0.6340  1.8599 -0.3682
 6425TIP3   OH240765   2.084   6.077  11.930 -0.5448 -0.5946 -0.3706
 6425TIP3    H140766   2.007   6.133  11.938  0.5189  0.7373  1.2402
 6425TIP3    H240767   2.060   5.996  11.975 -1.1179 -0.3171 -0.1788
 6426TIP3   OH240768   2.670   5.676   4.698 -0.1165 -0.0618 -0.4790
 6426TIP3    H140769   2.589   5.638   4.664 -0.0390 -0.7555  0.0956
 6426TIP3    H240770   2.740   5.623   4.660  0.0710  0.4597 -0.8787
 6427TIP3   OH240771   2.160   6.730  12.728  0.0678 -0.4316 -0.0153
 6427TIP3    H140772   2.162   6.751  12.634  0.9567 -0.6119 -0.0461
 6427TIP3    H240773   2.248   6.700  12.747  1.1370  3.2258  1.7285
 6428TIP3   OH240774   3.523   6.648  12.393  0.0075  0.6063 -0.2722
 6428TIP3    H140775   3.611   6.670  12.364 -0.0006  0.4822 -0.3888
 6428TIP3    H240776   3.535   6.604  12.477 -0.0555  2.5318  0.8236
 6429TIP3   OH240777   0.129   2.508  15.460  0.4446 -0.2033 -0.2034
 6429TIP3    H140778   0.163   2.428  15.500  2.0835  0.2408 -0.6471
 6429TIP3    H240779   0.083   2.477  15.381  0.9774 -0.7129 -0.3209
 6430TIP3   OH240780   3.159   1.433   0.150 -0.6050 -0.3439 -0.4419
 6430TIP3    H140781   3.096   1.483   0.098 -1.6241 -0.6833  0.4535
 6430TIP3    H240782   3.145   1.461   0.240 -2.1817 -3.1864  0.3065
 6431TIP3   OH240783   2.489   5.779   5.743 -0.1428  0.1080  0.0667
 6431TIP3    H140784   2.478   5.867   5.779 -0.2918  0.2558 -0.3349
 6431TIP3    H240785   2.580   5.756   5.764  0.4159  0.9987 -1.2011
 6432TIP3   OH240786   2.347   3.041  10.893  0.1852 -0.2683  0.2719
 6432TIP3    H140787   2.302   3.125  10.887 -1.9406 -1.3538  0.0468
 6432TIP3    H240788   2.426   3.052  10.839 -0.6005  1.2406 -0.6400
 6433TIP3   OH240789   2.378   4.229  14.937  0.4049  0.0012 -0.0055
 6433TIP3    H140790   2.339   4.241  14.851 -0.7597 -0.3575  0.4544
 6433TIP3    H240791   2.424   4.145  14.932 -2.2006 -1.5857  0.5685
 6434TIP3   OH240792   2.877   0.978  11.688 -0.4561  0.3631  0.2458
 6434TIP3    H140793   2.790   1.007  11.715  0.0760  0.2720  2.2644
 6434TIP3    H240794   2.920   0.953  11.770  0.6324 -1.9319 -0.9124
 6435TIP3   OH240795   3.420   4.987  14.922 -0.0173 -0.3362 -0.3199
 6435TIP3    H140796   3.380   4.943  14.997  0.5270 -2.0793 -0.9999
 6435TIP3    H240797   3.475   5.055  14.961 -1.7088  0.5104  0.7264
 6436TIP3   OH240798   4.898   6.183   0.833  0.2789  0.4197  0.1492
 6436TIP3    H140799   4.897   6.257   0.895  1.2324  1.3471 -0.9016
 6436TIP3    H240800   4.817   6.192   0.784  0.6436  1.1144 -0.3445
 6437TIP3   OH240801   3.241   6.025   2.561 -0.0569 -0.5277 -0.6531
 6437TIP3    H140802   3.239   6.112   2.600  0.8659 -1.3902  1.4448
 6437TIP3    H240803   3.196   6.035   2.477 -3.1465  1.2460  1.0241
 6438TIP3   OH240804   3.638   6.425   4.070 -0.4117 -0.6482  0.6192
 6438TIP3    H140805   3.647   6.422   4.165  2.4870 -1.7936  0.3791
 6438TIP3    H240806   3.607   6.338   4.045  1.4948 -1.2944  0.3567
 6439TIP3   OH240807   0.443   1.055   3.002  0.4419 -0.1128  0.0270
 6439TIP3    H140808   0.359   1.055   3.048  0.4423  0.1631  0.0274
 6439TIP3    H240809   0.467   1.147   2.995  0.1572 -0.1017 -1.0418
 6440TIP3   OH240810   0.512   0.278   1.708  0.1933  0.2954  0.4409
 6440TIP3    H140811   0.462   0.351   1.672  0.4845  1.9572  3.1643
 6440TIP3    H240812   0.560   0.243   1.632 -0.3930  2.5424 -1.0685
 6441TIP3   OH240813   2.150   5.454  16.303  0.1118  0.1739 -0.2570
 6441TIP3    H140814   2.238   5.465  16.266  0.1483  0.0158 -0.2146
 6441TIP3    H240815   2.148   5.514  16.378  0.2569  0.0112 -0.1235
 6442TIP3   OH240816   4.551   2.511   0.135 -0.2876 -0.1458 -0.0205
 6442TIP3    H140817   4.506   2.465   0.206  0.6291 -0.0959  0.6010
 6442TIP3    H240818   4.539   2.454   0.059 -1.4307 -0.1141  0.1072
 6443TIP3   OH240819   3.452   4.399   5.434  0.4914  0.2031  0.1191
 6443TIP3    H140820   3.405   4.316   5.444  0.2276  0.3630  0.2049
 6443TIP3    H240821   3.440   4.422   5.342  2.7730 -1.1817 -0.6074
 6444TIP3   OH240822   0.996   4.549  14.480 -0.1152  0.0443  0.3364
 6444TIP3    H140823   0.979   4.642  14.466  0.6949  0.0781 -0.4776
 6444TIP3    H240824   1.049   4.546  14.559 -1.5294  0.1357  1.3195
 6445TIP3   OH240825   4.278   0.722   3.481  0.0652 -0.0640  0.1200
 6445TIP3    H140826   4.236   0.780   3.544  1.6241 -0.0460  1.2074
 6445TIP3    H240827   4.360   0.696   3.523  2.2963  1.6885 -2.7431
 6446TIP3   OH240828   3.332   0.565  13.818 -0.1368 -0.7628 -0.4246
 6446TIP3    H140829   3.318   0.561  13.913  1.6949  0.4670 -0.0404
 6446TIP3    H240830   3.287   0.488  13.783 -0.5303 -1.4424  1.4842
 6447TIP3   OH240831   2.179   1.178  16.942  0.0292 -0.5305  0.0777
 6447TIP3    H140832   2.100   1.129  16.966 -0.6930  0.5698  0.0262
 6447TIP3    H240833   2.239   1.164  17.015  0.8283 -3.4699 -1.0014
 6448TIP3   OH240834   5.939   0.158  12.357  0.3251  0.2869 -0.4847
 6448TIP3    H140835   6.032   0.167  12.336  0.7009 -1.3087  0.3809
 6448TIP3    H240836   5.936   0.094  12.428 -1.3988  0.7694 -0.0692
 6449TIP3   OH240837   0.717   4.815  11.426  0.0185  0.0512  0.4061
 6449TIP3    H140838   0.747   4.885  11.367 -1.6720 -0.6755 -1.4221
 6449TIP3    H240839   0.638   4.851  11.467  1.1470  0.5296  2.2804
 6450TIP3   OH240840   4.223   1.091  11.488  0.5173 -0.0168 -0.9560
 6450TIP3    H140841   4.230   1.040  11.569  0.8999  1.8138  0.2161
 6450TIP3    H240842   4.134   1.126  11.489  0.9219  1.0586 -0.6338
 6451TIP3   OH240843   2.086   0.424  14.805 -0.2675  0.3912  1.0683
 6451TIP3    H140844   2.048   0.429  14.718  2.4625  1.0463 -0.1845
 6451TIP3    H240845   2.117   0.513  14.822  4.1235 -0.7826  0.2385
 6452TIP3   OH240846   5.913   3.703   5.208  0.2016 -0.6027  0.3535
 6452TIP3    H140847   5.840   3.640   5.209 -0.3065 -0.0129  0.6522
 6452TIP3    H240848   5.991   3.648   5.217 -0.1084 -1.3612 -1.1837
 6453TIP3   OH240849   3.849   6.765   5.512 -0.1848  0.0013  0.5443
 6453TIP3    H140850   3.887   6.793   5.596  0.7503 -0.5271  0.3152
 6453TIP3    H240851   3.832   6.847   5.465 -1.9693  0.3687  1.7511
 6454TIP3   OH240852   5.447   5.829   5.461  0.3179 -0.3455 -0.6083
 6454TIP3    H140853   5.529   5.802   5.419  0.4524  0.8549 -1.1720
 6454TIP3    H240854   5.395   5.865   5.389 -0.4304 -0.4761 -0.1386
 6455TIP3   OH240855   2.961   5.135   3.566  0.5792  0.4512  0.5854
 6455TIP3    H140856   2.969   5.220   3.522  0.1317 -0.1145 -0.6485
 6455TIP3    H240857   2.877   5.101   3.536  1.3626 -1.0181 -0.0580
 6456TIP3   OH240858   2.801   3.084   3.232 -0.3588 -0.6443 -0.1807
 6456TIP3    H140859   2.818   3.137   3.309  1.3099 -0.5972 -0.5452
 6456TIP3    H240860   2.734   3.022   3.260 -0.5945  0.1018  0.9613
 6457TIP3   OH240861   5.654   6.596  13.333  0.3767 -0.3503 -0.6101
 6457TIP3    H140862   5.742   6.563  13.349  0.4955 -0.3368 -1.1943
 6457TIP3    H240863   5.610   6.524  13.286  0.2171 -0.1876 -0.7089
 6458TIP3   OH240864   0.157   0.136  12.062  0.4825  0.1845  0.4320
 6458TIP3    H140865   0.158   0.128  12.158  3.1029 -0.6619  0.4173
 6458TIP3    H240866   0.102   0.065  12.032  1.0029 -0.6025  1.2941
 6459TIP3   OH240867   4.914   5.813   3.793 -0.2217 -0.5861 -0.1536
 6459TIP3    H140868   4.823   5.814   3.763 -0.2831  0.6683 -0.0006
 6459TIP3    H240869   4.919   5.886   3.856  0.5309 -1.5618  0.9548
 6460TIP3   OH240870   5.499   0.089  15.210 -0.0025 -0.3011 -0.2673
 6460TIP3    H140871   5.514   0.110  15.302 -0.6237 -0.4674 -0.1226
 6460TIP3    H240872   5.582   0.108  15.167  0.6820 -1.3820  0.5282
 6461TIP3   OH240873   0.845   0.686  12.980 -0.5183  0.0978 -0.4915
 6461TIP3    H140874   0.906   0.754  13.010 -1.3188  1.1961 -1.2562
 6461TIP3    H240875   0.873   0.667  12.890  0.3970 -1.4395  0.0800
 6462TIP3   OH240876   1.492   3.872   5.131  0.0080 -0.0174  0.2966
 6462TIP3    H140877   1.414   3.878   5.075 -0.3411 -0.4580  0.7326
 6462TIP3    H240878   1.468   3.916   5.212 -0.1503 -1.0487  0.8252
 6463TIP3   OH240879   5.780   6.161   0.508  0.2785 -0.0673  0.2151
 6463TIP3    H140880   5.795   6.083   0.562  0.8233  0.6026  1.0530
 6463TIP3    H240881   5.706   6.137   0.452  0.2740 -1.0931  0.6297
 6464TIP3   OH240882   2.436   4.126  16.465  0.0760 -0.0268  0.0355
 6464TIP3    H140883   2.421   4.111  16.372  1.5542  0.4271 -0.3036
 6464TIP3    H240884   2.449   4.039  16.502  1.8784 -0.0874 -0.6539
 6465TIP3   OH240885   1.167   3.331   5.640 -0.6180 -0.2416  0.0046
 6465TIP3    H140886   1.173   3.426   5.655 -0.9995  0.1000 -1.6780
 6465TIP3    H240887   1.097   3.302   5.698 -0.0606  0.3896  1.0134
 6466TIP3   OH240888   5.018   5.876  14.138  0.8223  0.0803 -0.2264
 6466TIP3    H140889   5.008   5.891  14.044 -2.3156 -3.8981 -0.7911
 6466TIP3    H240890   5.105   5.836  14.147  1.0105  0.1716 -1.4973
 6467TIP3   OH240891   2.091   1.251   1.235  0.3691  0.0143 -0.6110
 6467TIP3    H140892   2.116   1.256   1.143  1.8641  0.3854 -0.2071
 6467TIP3    H240893   2.174   1.255   1.283 -0.3469 -0.6979  0.7406
 6468TIP3   OH240894   3.092   2.073  15.280 -0.2417 -0.6800  0.9237
 6468TIP3    H140895   3.126   2.039  15.198  1.4884  0.1986  1.2422
 6468TIP3    H240896   3.016   2.018  15.299  0.1028 -1.7301 -0.5850
 6469TIP3   OH240897   1.810   4.538   0.421  0.7703 -0.8116 -0.7110
 6469TIP3    H140898   1.873   4.489   0.368  2.2310  1.7166 -1.5232
 6469TIP3    H240899   1.852   4.547   0.506  1.0432 -0.0439 -0.9189
 6470TIP3   OH240900   2.826   3.341   6.631 -0.1480  0.2840  0.2343
 6470TIP3    H140901   2.815   3.246   6.633 -0.5970  0.3344  0.4477
 6470TIP3    H240902   2.860   3.360   6.544 -0.8951  0.0022 -0.1311
 6471TIP3   OH240903   2.241   0.420   5.505 -0.1440  0.3527  0.1324
 6471TIP3    H140904   2.322   0.369   5.510 -0.3504  0.0198  0.1085
 6471TIP3    H240905   2.177   0.360   5.466 -0.5260  0.4598  0.5876
 6472TIP3   OH240906   4.543   4.811  13.988 -0.0070 -0.5322  0.1973
 6472TIP3    H140907   4.499   4.896  13.990  0.4474 -0.2793  3.0616
 6472TIP3    H240908   4.477   4.751  13.953 -0.5445  0.8294 -1.2762
 6473TIP3   OH240909   4.619   1.553   4.530 -0.5269 -0.0462 -0.1925
 6473TIP3    H140910   4.652   1.485   4.473  0.8452 -0.1759  0.7217
 6473TIP3    H240911   4.576   1.506   4.602  1.2059 -0.0406  0.9153
 6474TIP3   OH240912   5.977   0.945  15.225 -0.1025  0.7445  0.0927
 6474TIP3    H140913   5.955   0.867  15.173  0.4471 -1.2421  2.6074
 6474TIP3    H240914   6.053   0.982  15.181 -1.3115  0.8618 -2.0628
 6475TIP3   OH240915   3.883   0.664   2.999  0.0652  0.4197  0.1652
 6475TIP3    H140916   3.795   0.681   2.966  0.9074  1.9092 -1.4555
 6475TIP3    H240917   3.894   0.569   2.988 -0.9835  0.3567 -0.5051
 6476TIP3   OH240918   1.512   3.114   2.007  0.2795  0.0055 -0.3226
 6476TIP3    H140919   1.548   3.117   2.096 -0.9376 -1.5223  0.2655
 6476TIP3    H240920   1.563   3.179   1.959 -0.0047  1.9662  1.8275
 6477TIP3   OH240921   0.331   2.116  15.353  0.3035 -0.1941  0.1924
 6477TIP3    H140922   0.406   2.057  15.342  0.2928  0.0052 -1.0999
 6477TIP3    H240923   0.328   2.166  15.271 -0.6435  0.4946  0.6380
 6478TIP3   OH240924   0.540   4.253  17.120  0.1780  0.6017  0.4502
 6478TIP3    H140925   0.521   4.191  17.191  0.9377  1.0457  1.0615
 6478TIP3    H240926   0.627   4.288  17.142  0.1518  1.2092 -0.3727
 6479TIP3   OH240927   2.386   5.975   2.643 -0.8892 -0.2464  0.5068
 6479TIP3    H140928   2.309   5.991   2.698 -1.6004 -1.0238 -0.2136
 6479TIP3    H240929   2.363   5.896   2.593 -0.1118  0.2004 -0.5935
 6480TIP3   OH240930   0.304   6.201  13.528 -0.4204  0.1969 -0.1075
 6480TIP3    H140931   0.261   6.239  13.605  0.3243 -0.1729  0.5050
 6480TIP3    H240932   0.395   6.228  13.535  0.5000 -2.7797  1.1441
 6481TIP3   OH240933   3.928   1.711   0.719 -0.8425  0.8210  0.4114
 6481TIP3    H140934   3.934   1.796   0.763  0.4435 -0.0869  2.1426
 6481TIP3    H240935   3.973   1.650   0.779  0.6704 -0.5980 -1.9942
 6482TIP3   OH240936   2.446   2.118   5.491  0.6350 -0.1062 -0.0139
 6482TIP3    H140937   2.493   2.166   5.559 -2.9047  4.2877 -0.2364
 6482TIP3    H240938   2.433   2.031   5.529  2.0742  0.9442  3.2820
 6483TIP3   OH240939   3.463   3.953   0.077  0.3554 -0.0684  0.2151
 6483TIP3    H140940   3.386   3.980   0.027  0.1383  1.2944  1.2242
 6483TIP3    H240941   3.536   3.962   0.016  0.4957  4.0898  0.6865
 6484TIP3   OH240942   0.963   2.037  14.768 -0.1983  0.4976  0.1357
 6484TIP3    H140943   0.869   2.039  14.784 -0.2043 -0.2817  0.2816
 6484TIP3    H240944   0.973   1.988  14.686  0.0333  1.4077 -0.3912
 6485TIP3   OH240945   6.779   1.444   1.767  0.1802  0.2469  0.1985
 6485TIP3    H140946   6.836   1.516   1.793 -0.0538  0.5119 -0.0106
 6485TIP3    H240947   6.831   1.394   1.703  1.5160 -1.5428  2.5288
 6486TIP3   OH240948   4.785   1.711   2.695  0.6633 -0.8297  0.0253
 6486TIP3    H140949   4.714   1.660   2.734  0.2849 -0.7023 -0.5017
 6486TIP3    H240950   4.743   1.790   2.662  1.2321 -0.2182  0.7390
 6487TIP3   OH240951   3.363   4.718  13.402  0.0919  0.0281  0.2970
 6487TIP3    H140952   3.418   4.675  13.469  1.4984  0.1775 -0.7241
 6487TIP3    H240953   3.401   4.805  13.392 -0.3791  0.1599 -0.3993
 6488TIP3   OH240954   2.785   1.537  14.696 -0.0674  0.4049 -0.6146
 6488TIP3    H140955   2.751   1.524  14.785 -0.5568  0.8629 -0.7284
 6488TIP3    H240956   2.766   1.455  14.650  2.4729 -0.8522  0.3922
 6489TIP3   OH240957   2.862   6.189   3.703  0.1269  0.0842 -0.2912
 6489TIP3    H140958   2.774   6.195   3.666 -0.6157 -0.0392  1.3867
 6489TIP3    H240959   2.917   6.241   3.644 -1.4874  2.1088 -0.0897
 6490TIP3   OH240960   4.013   6.775   1.825 -0.0416 -0.0138  0.1672
 6490TIP3    H140961   3.943   6.836   1.802  0.2578  0.3950  0.3184
 6490TIP3    H240962   3.969   6.706   1.874 -0.4960 -0.2813 -0.5943
 6491TIP3   OH240963   1.261   4.931  12.865 -0.1105 -0.1780 -0.1223
 6491TIP3    H140964   1.271   5.018  12.904  0.1406 -0.1211 -0.3136
 6491TIP3    H240965   1.197   4.944  12.795  0.5957  0.0469 -0.7422
 6492TIP3   OH240966   5.933   3.078  14.399  0.1371 -0.3456  0.2681
 6492TIP3    H140967   5.895   3.149  14.347  0.8186  1.3175  1.9616
 6492TIP3    H240968   5.858   3.021  14.418 -0.3910 -0.2220 -1.2476
 6493TIP3   OH240969   2.664   0.148  14.911 -0.0412 -0.0992  0.5892
 6493TIP3    H140970   2.670   0.163  14.817  1.2938  0.1650  0.6970
 6493TIP3    H240971   2.625   0.228  14.946  0.1504  0.1073  0.3340
 6494TIP3   OH240972   2.149   0.868   0.992 -0.6432  0.2584  0.3643
 6494TIP3    H140973   2.082   0.864   1.060 -1.9461 -1.1999 -0.9113
 6494TIP3    H240974   2.130   0.949   0.945 -2.0098 -0.4588 -0.3968
 6495TIP3   OH240975   6.791   1.250   0.965 -0.2552  0.2637 -0.2723
 6495TIP3    H140976   6.781   1.267   1.059  1.1120  0.1152 -0.0837
 6495TIP3    H240977   6.709   1.209   0.939 -0.4411 -0.1936  0.9780
 6496TIP3   OH240978   4.455   1.105  13.676  0.0788 -0.5309  0.3843
 6496TIP3    H140979   4.491   1.138  13.594 -1.7177 -0.7296 -0.5414
 6496TIP3    H240980   4.366   1.142  13.680  0.1076 -0.5489  2.2347
 6497TIP3   OH240981   4.672   6.575   4.652 -0.5986  0.4673  0.2485
 6497TIP3    H140982   4.684   6.633   4.727  1.4211  1.6063 -0.8527
 6497TIP3    H240983   4.760   6.564   4.616 -1.2510 -1.5334 -0.8972
 6498TIP3   OH240984   1.374   1.226   0.014 -0.2798 -0.1710  0.2300
 6498TIP3    H140985   1.314   1.153   0.028  2.1009 -1.7470  3.7631
 6498TIP3    H240986   1.461   1.188   0.022  1.2290  2.4875 -1.6922
 6499TIP3   OH240987   6.660   0.350   1.836 -0.1549 -0.5188  0.1012
 6499TIP3    H140988   6.754   0.370   1.830 -0.7171  2.0131 -1.4995
 6499TIP3    H240989   6.651   0.268   1.787  1.1906 -0.8619  0.3606
 6500TIP3   OH240990   2.386   0.216  15.695  0.2067 -0.7703  0.7061
 6500TIP3    H140991   2.292   0.215  15.680  0.1294  2.4712  0.1487
 6500TIP3    H240992   2.395   0.216  15.790 -0.4727  0.2500  0.7887
 6501TIP3   OH240993   6.439   4.663  13.551 -0.0864 -0.3543  0.2814
 6501TIP3    H140994   6.462   4.570  13.562 -2.1314 -1.2851 -2.3161
 6501TIP3    H240995   6.360   4.675  13.603  0.1452 -0.0526  0.5712
 6502TIP3   OH240996   4.341   0.675  14.159 -0.3400  0.0369 -0.4170
 6502TIP3    H140997   4.409   0.736  14.130 -0.1414 -0.2760 -0.6249
 6502TIP3    H240998   4.320   0.624  14.081  0.4814 -1.0818  0.0553
 6503TIP3   OH240999   1.054   4.109  11.923  0.1519 -0.7804 -0.5086
 6503TIP3    H141000   0.978   4.158  11.891  0.1108  0.1461  0.8760
 6503TIP3    H241001   1.020   4.022  11.942 -0.8339 -0.1305  0.9395
 6504TIP3   OH241002   6.104   6.619   1.577  0.3378  0.3973  0.2476
 6504TIP3    H141003   6.178   6.655   1.527  0.0530  2.2312  1.0465
 6504TIP3    H241004   6.144   6.579   1.654  0.5616  0.6287  0.2533
 6505TIP3   OH241005   6.223   3.448  17.086  0.5800  0.2413  0.8253
 6505TIP3    H141006   6.186   3.424  17.171  0.7376 -1.3269  0.4713
 6505TIP3    H241007   6.281   3.376  17.063  1.0143  0.9312 -0.3428
 6506TIP3   OH241008   2.648   3.577   4.586  0.6390 -0.4220  0.5591
 6506TIP3    H141009   2.656   3.636   4.661 -0.6935  0.7083 -0.1402
 6506TIP3    H241010   2.665   3.490   4.622 -0.8264 -0.0216  2.3733
 6507TIP3   OH241011   5.495   2.033   1.158  0.4087  0.7686  0.5957
 6507TIP3    H141012   5.486   2.088   1.081  1.1803 -1.5614 -1.2854
 6507TIP3    H241013   5.405   2.010   1.182  0.1847  0.7820 -0.1969
 6508TIP3   OH241014   1.716   1.127  16.994  0.0313 -0.5292 -0.0670
 6508TIP3    H141015   1.774   1.140  16.919  0.2715 -3.1809 -0.4390
 6508TIP3    H241016   1.633   1.100  16.955  0.5959 -3.4573  0.5514
 6509TIP3   OH241017   3.939   3.603   5.148 -0.4599  0.5610 -0.0958
 6509TIP3    H141018   3.853   3.579   5.183 -1.1781 -0.5751 -2.4496
 6509TIP3    H241019   4.001   3.549   5.198 -1.4363 -1.0436 -0.5542
 6510TIP3   OH241020   1.322   2.359  16.076 -0.1197  0.0286 -0.0233
 6510TIP3    H141021   1.241   2.327  16.036  0.1302 -0.5509 -0.0830
 6510TIP3    H241022   1.392   2.327  16.019  0.1247  1.1524 -0.3794
 6511TIP3   OH241023   3.319   5.485  10.367 -0.5446  0.2101  0.0898
 6511TIP3    H141024   3.390   5.432  10.331 -1.3767  0.3266 -1.8351
 6511TIP3    H241025   3.363   5.557  10.412  0.5699  0.6844 -1.6887
 6512TIP3   OH241026   2.299   4.961  10.676 -0.3258  0.5058 -0.3283
 6512TIP3    H141027   2.292   4.988  10.585 -0.5542 -0.7911 -0.7192
 6512TIP3    H241028   2.326   4.869  10.672 -0.8975  0.2610  0.8960
 6513TIP3   OH241029   0.850   3.871   5.369  0.1479 -1.2097  0.0263
 6513TIP3    H141030   0.769   3.902   5.408  0.6452  0.4039 -0.1740
 6513TIP3    H241031   0.917   3.887   5.436  0.5900 -0.8125 -0.5000
 6514TIP3   OH241032   2.153   2.345  16.331 -0.4683 -0.1405 -0.0012
 6514TIP3    H141033   2.076   2.292  16.314 -0.3889 -0.6082  0.9919
 6514TIP3    H241034   2.123   2.411  16.393 -0.1509 -0.1153  0.1267
 6515TIP3   OH241035   1.578   1.812   3.015  0.3905  0.1841 -0.2303
 6515TIP3    H141036   1.628   1.879   2.969  1.8344 -0.6181  0.1178
 6515TIP3    H241037   1.620   1.805   3.101  0.3294 -1.1995 -0.2836
 6516TIP3   OH241038   5.633   4.217   0.839 -0.0362  0.3071  0.4912
 6516TIP3    H141039   5.591   4.240   0.922  0.5394  0.5436  0.7194
 6516TIP3    H241040   5.582   4.265   0.773  1.0339  2.1784  0.9461
 6517TIP3   OH241041   5.178   6.715   4.480  0.6138  0.2175  0.8709
 6517TIP3    H141042   5.118   6.785   4.454  0.3268  0.7108  2.7295
 6517TIP3    H241043   5.263   6.742   4.443  0.0857  0.4133 -0.2652
 6518TIP3   OH241044   4.462   4.264   6.120 -0.0151  0.0097  0.6129
 6518TIP3    H141045   4.518   4.239   6.046 -2.8841  1.1653 -2.1572
 6518TIP3    H241046   4.446   4.182   6.166  2.2606 -0.6611  0.3550
 6519TIP3   OH241047   0.137   5.254   2.550 -0.0449 -0.0258 -0.9420
 6519TIP3    H141048   0.227   5.245   2.582 -0.4471 -0.6494  0.0550
 6519TIP3    H241049   0.089   5.185   2.594 -1.0786  0.4725 -1.2602
 6520TIP3   OH241050   1.814   0.905   3.971  0.2687 -0.3107 -0.1053
 6520TIP3    H141051   1.764   0.973   4.016 -1.0133 -0.4834 -1.1709
 6520TIP3    H241052   1.855   0.950   3.897  0.9825 -0.3415  0.2668
 6521TIP3   OH241053   6.077   2.269  12.940  0.0033 -0.2462  0.7240
 6521TIP3    H141054   6.117   2.261  12.853  0.0399  0.2619  0.6943
 6521TIP3    H241055   6.053   2.179  12.963  0.8127 -0.5057  0.5793
 6522TIP3   OH241056   1.384   6.793   4.267  0.2545 -0.1557  0.7090
 6522TIP3    H141057   1.436   6.853   4.320 -0.1811 -1.4961  2.7654
 6522TIP3    H241058   1.294   6.824   4.277  0.1299 -0.6209  1.0647
 6523TIP3   OH241059   2.445   3.117   5.265 -0.8333  0.1837  0.0686
 6523TIP3    H141060   2.378   3.170   5.309 -1.4231  0.1036 -0.7006
 6523TIP3    H241061   2.441   3.032   5.309 -0.9433  0.3133  0.3103
 6524TIP3   OH241062   4.228   6.303   3.060 -0.1002 -0.3246  0.8298
 6524TIP3    H141063   4.253   6.394   3.045  1.8554 -1.2435 -2.4591
 6524TIP3    H241064   4.138   6.298   3.029 -0.1180  0.4053  0.7408
 6525TIP3   OH241065   2.093   5.714   3.125 -0.4040 -0.1395 -0.2920
 6525TIP3    H141066   2.182   5.685   3.141 -1.5014 -2.7494  1.8197
 6525TIP3    H241067   2.081   5.789   3.183  0.2195 -0.1664 -0.1301
 6526TIP3   OH241068   6.482   6.698  13.606 -0.3193 -0.4150  0.2269
 6526TIP3    H141069   6.403   6.734  13.566 -0.4837 -0.1020  0.8223
 6526TIP3    H241070   6.554   6.736  13.557 -0.5333 -0.5470 -0.1909
 6527TIP3   OH241071   5.202   1.926  12.142  0.1725 -0.0161 -0.2753
 6527TIP3    H141072   5.112   1.957  12.135  0.5157  0.7020 -2.2938
 6527TIP3    H241073   5.211   1.862  12.072  1.4509  0.5615 -0.6777
 6528TIP3   OH241074   1.938   0.924  15.615 -0.0219 -0.0583  0.2943
 6528TIP3    H141075   1.907   0.909  15.705 -0.5011  0.9995  0.3200
 6528TIP3    H241076   1.881   0.992  15.581  0.6582  0.1096 -0.5502
 6529TIP3   OH241077   1.016   6.511  16.809 -0.3175 -0.4760  0.2514
 6529TIP3    H141078   1.054   6.489  16.724 -1.2014 -0.8233 -0.0635
 6529TIP3    H241079   0.928   6.542  16.789 -0.0425  0.8223  0.9226
 6530TIP3   OH241080   5.895   6.542  12.988 -0.9964  0.1699 -0.0001
 6530TIP3    H141081   5.965   6.515  13.046 -2.5916 -0.9677  1.5204
 6530TIP3    H241082   5.938   6.561  12.905  1.3137  1.4258  1.3950
 6531TIP3   OH241083   5.366   0.457  10.690  1.0131  0.1918 -0.3417
 6531TIP3    H141084   5.420   0.441  10.768 -0.4226  2.3002  1.1951
 6531TIP3    H241085   5.389   0.547  10.663  1.4775 -0.4793 -2.4165
 6532TIP3   OH241086   1.614   3.562  13.758 -0.1050  0.9509  0.1802
 6532TIP3    H141087   1.699   3.590  13.793 -0.1174  0.9375  0.2203
 6532TIP3    H241088   1.563   3.540  13.836  0.0673  0.3453  0.1227
 6533TIP3   OH241089   3.924   0.125  13.913  0.3220 -0.0142  0.1359
 6533TIP3    H141090   3.995   0.190  13.918  0.1267  0.1891  0.2924
 6533TIP3    H241091   3.845   0.175  13.931  0.1011 -0.1805 -0.3789
 6534TIP3   OH241092   0.153   2.085  12.967 -0.5826 -0.6142 -0.3401
 6534TIP3    H141093   0.242   2.094  13.000 -0.9798 -0.8219  0.8115
 6534TIP3    H241094   0.119   2.175  12.965 -1.8423 -0.8083  3.5803
 6535TIP3   OH241095   2.957   1.516  15.286 -0.2238  0.0163 -0.1876
 6535TIP3    H141096   3.001   1.439  15.251 -2.1121 -0.7044 -1.0578
 6535TIP3    H241097   3.020   1.587  15.272  1.3751 -1.2374  0.2430
 6536TIP3   OH241098   3.341   3.654  13.032  0.6912  0.5656  0.0541
 6536TIP3    H141099   3.345   3.651  12.937 -1.1130 -4.3453 -0.1640
 6536TIP3    H241100   3.257   3.694  13.052  0.8595  1.1601 -0.3915
 6537TIP3   OH241101   0.513   6.797   6.013  0.3851  0.0855 -0.0334
 6537TIP3    H141102   0.469   6.868   6.061  0.1251  0.1656 -0.3806
 6537TIP3    H241103   0.579   6.764   6.073 -0.0014  0.1197  0.4161
 6538TIP3   OH241104   3.596   6.165   1.744  0.6453 -0.3297 -0.3887
 6538TIP3    H141105   3.504   6.187   1.759  0.4529 -0.0682 -1.7481
 6538TIP3    H241106   3.596   6.125   1.656  1.7974 -0.5133 -0.3155
 6539TIP3   OH241107   0.192   3.300  12.251  0.1353 -0.2627 -0.2628
 6539TIP3    H141108   0.120   3.275  12.194  0.3675 -1.0548 -0.2205
 6539TIP3    H241109   0.154   3.365  12.310 -0.2582  0.1267 -0.9288
 6540TIP3   OH241110   6.771   1.738  13.436 -0.2210 -0.5253  0.0044
 6540TIP3    H141111   6.716   1.757  13.512 -0.6810  0.3293 -0.5297
 6540TIP3    H241112   6.826   1.816  13.426  0.5973 -1.0735  0.0994
 6541TIP3   OH241113   6.676   4.199   6.360 -0.3488 -0.0190 -0.0066
 6541TIP3    H141114   6.615   4.127   6.350 -1.3958  0.9261 -0.6674
 6541TIP3    H241115   6.621   4.277   6.364  0.8131  0.9266 -1.2686
 6542TIP3   OH241116   4.179   0.013   2.718  0.4190 -0.2808  0.0311
 6542TIP3    H141117   4.197   0.029   2.811 -0.2596  0.5462  0.0395
 6542TIP3    H241118   4.126   0.088   2.692  0.2798 -0.7079 -0.9327
 6543TIP3   OH241119   3.179   4.182   4.996 -0.4211  0.0800 -0.4134
 6543TIP3    H141120   3.217   4.229   4.922 -1.2818  2.7918  0.7373
 6543TIP3    H241121   3.085   4.187   4.983 -0.5707  0.1014  0.5796
 6544TIP3   OH241122   1.288   0.115   1.619 -0.1176 -0.2461  0.1509
 6544TIP3    H141123   1.321   0.145   1.703 -0.0453  0.6816 -0.1981
 6544TIP3    H241124   1.274   0.021   1.631 -1.7324  0.1289  1.7365
 6545TIP3   OH241125   0.635   1.026  14.321  0.3193  0.2069 -0.1003
 6545TIP3    H141126   0.700   0.959  14.343 -0.9279 -0.5604  1.4572
 6545TIP3    H241127   0.593   1.047  14.405 -1.4302  0.6634 -1.0394
 6546TIP3   OH241128   5.151   0.341  10.817  0.1206 -0.6356 -0.4604
 6546TIP3    H141129   5.082   0.406  10.804 -0.6418 -1.2963  0.1739
 6546TIP3    H241130   5.228   0.380  10.777 -0.7903 -0.2141 -1.8713
 6547TIP3   OH241131   6.718   2.726   0.071 -0.1518 -1.0634 -0.1607
 6547TIP3    H141132   6.791   2.664   0.073  0.7912 -0.0005  1.9031
 6547TIP3    H241133   6.663   2.701   0.146 -0.9169 -0.6907 -0.5768
 6548TIP3   OH241134   0.126   4.629   2.202 -0.0216  0.2232  0.1989
 6548TIP3    H141135   0.081   4.546   2.220 -1.3808  0.8763 -0.0578
 6548TIP3    H241136   0.157   4.659   2.287 -0.3965 -0.0621  0.4366
 6549TIP3   OH241137   5.064   0.930  15.848 -0.3348 -0.0020 -0.0573
 6549TIP3    H141138   4.990   0.929  15.788 -0.7071 -1.1302  0.4028
 6549TIP3    H241139   5.045   1.003  15.908 -2.0456 -1.4047  1.2100
 6550TIP3   OH241140   4.620   0.387  13.420  0.0142  0.1847 -0.2872
 6550TIP3    H141141   4.715   0.394  13.411  0.3212 -3.2468 -1.2292
 6550TIP3    H241142   4.589   0.364  13.333 -1.7895  1.5688 -0.0775
 6551TIP3   OH241143   2.506   0.261   6.227  0.4131  0.0999 -0.1489
 6551TIP3    H141144   2.418   0.281   6.260  0.2860 -0.1049 -0.3610
 6551TIP3    H241145   2.539   0.194   6.287  0.6602  0.6001  0.2872
 6552TIP3   OH241146   5.522   0.515  14.858  0.1329 -0.1753 -0.1574
 6552TIP3    H141147   5.450   0.569  14.824  1.0814  1.0830 -0.2412
 6552TIP3    H241148   5.588   0.518  14.789  1.3828  0.9691  1.0402
 6553TIP3   OH241149   5.085   4.294  12.257  0.0719  0.1966  0.4040
 6553TIP3    H141150   4.998   4.254  12.256 -0.3891  1.1470  0.8727
 6553TIP3    H241151   5.069   4.387  12.272  0.9886  0.9590 -2.6053
 6554TIP3   OH241152   5.831   6.698   5.651  0.1003  0.7412  0.9946
 6554TIP3    H141153   5.761   6.725   5.710 -0.1619 -1.9006  2.0327
 6554TIP3    H241154   5.788   6.643   5.585  0.9396  0.5893  0.5556
 6555TIP3   OH241155   3.626   3.828  13.406  0.9875 -0.2834 -0.6511
 6555TIP3    H141156   3.690   3.766  13.443  0.4572 -0.8073 -0.5883
 6555TIP3    H241157   3.557   3.772  13.370  0.1721  0.2828 -0.0115
 6556TIP3   OH241158   2.303   3.323   2.964  0.0397 -0.7105 -0.3618
 6556TIP3    H141159   2.320   3.302   2.872 -0.3688  3.4261 -1.5768
 6556TIP3    H241160   2.389   3.348   2.999 -0.0934 -0.5587 -0.1385
 6557TIP3   OH241161   4.981   6.016   5.551 -0.7201  0.2644 -0.5227
 6557TIP3    H141162   4.906   5.963   5.523  0.5288 -2.2884  0.6084
 6557TIP3    H241163   4.973   6.019   5.647  1.0162 -0.7659 -0.3124
 6558TIP3   OH241164   4.315   3.721  17.139  0.0304  0.0915 -0.0652
 6558TIP3    H141165   4.238   3.674  17.106  0.7437 -0.8061 -0.4731
 6558TIP3    H241166   4.281   3.809  17.161 -1.1977 -0.4137  0.1753
 6559TIP3   OH241167   4.113   6.142  13.865  0.5676 -0.3488 -0.1803
 6559TIP3    H141168   4.199   6.156  13.826  0.5509 -3.2189 -1.4967
 6559TIP3    H241169   4.103   6.214  13.927  3.3895  0.7416 -0.8320
 6560TIP3   OH241170   6.755   0.053   0.734  0.5918 -0.4298  0.4512
 6560TIP3    H141171   6.819  -0.009   0.771 -0.0011 -0.7837  0.9046
 6560TIP3    H241172   6.774   0.136   0.777  0.6815 -0.5545  0.6529
 6561TIP3   OH241173   0.475   0.453  14.369  0.1041 -0.0854 -0.4922
 6561TIP3    H141174   0.443   0.447  14.279  0.8518 -0.0529 -0.7647
 6561TIP3    H241175   0.531   0.377  14.380  0.7495  0.4024 -0.3590
 6562TIP3   OH241176   3.459   2.332  16.977 -0.6467  0.2708  0.3289
 6562TIP3    H141177   3.424   2.257  16.930 -1.1108  1.7348 -1.8118
 6562TIP3    H241178   3.436   2.407  16.922  3.5362  1.6010  0.0383
 6563TIP3   OH241179   2.733   6.621   2.631 -0.3100  0.0453 -0.5199
 6563TIP3    H141180   2.752   6.599   2.540  2.7858 -1.1358  0.2755
 6563TIP3    H241181   2.797   6.689   2.653 -0.1900 -0.5332  1.0666
 6564TIP3   OH241182   4.484   2.174   3.817  0.0962 -0.1274  0.1636
 6564TIP3    H141183   4.554   2.173   3.882  0.9298  2.7134 -0.5194
 6564TIP3    H241184   4.431   2.251   3.839 -1.9788 -1.3420 -0.2390
 6565TIP3   OH241185   6.094   4.887   2.772 -0.5829  0.0225  0.0141
 6565TIP3    H141186   6.014   4.839   2.749 -0.9126  0.1689  0.8239
 6565TIP3    H241187   6.064   4.975   2.796 -0.3379 -0.2381  1.4126
 6566TIP3   OH241188   2.704   6.675  15.262  0.5219  0.2240 -0.4464
 6566TIP3    H141189   2.651   6.720  15.328 -2.7660 -0.2766 -2.5165
 6566TIP3    H241190   2.745   6.603  15.309 -0.6349  0.6505  1.3146
 6567TIP3   OH241191   1.454   6.551   3.377  0.5188 -0.1100  0.2713
 6567TIP3    H141192   1.456   6.536   3.472 -1.1017  1.3762  0.6084
 6567TIP3    H241193   1.466   6.646   3.368  3.9160 -0.5575 -1.2836
 6568TIP3   OH241194   3.045   5.032  11.641  0.1668  0.1902  0.2836
 6568TIP3    H141195   3.041   4.997  11.729 -0.0890  0.9267  0.5737
 6568TIP3    H241196   3.137   5.022  11.615 -0.0024 -1.1700  0.1419
 6569TIP3   OH241197   1.058   0.652  13.865  0.1308  0.2138 -0.0266
 6569TIP3    H141198   1.045   0.708  13.788 -2.3222 -1.4299 -0.9024
 6569TIP3    H241199   0.979   0.599  13.871  0.8303 -0.7035  2.8652
 6570TIP3   OH241200   3.559   0.233  10.997  0.0857 -0.3030  0.3824
 6570TIP3    H141201   3.604   0.239  11.081 -1.0042 -0.6042  0.9961
 6570TIP3    H241202   3.628   0.249  10.932  0.3238  3.6545  1.3632
 6571TIP3   OH241203   2.877   1.033   3.638 -0.1076 -0.3255  0.0285
 6571TIP3    H141204   2.855   0.952   3.685 -1.1007  0.9771  1.9206
 6571TIP3    H241205   2.972   1.028   3.627  0.1653 -0.7726  2.1096
 6572TIP3   OH241206   2.837   0.930   0.285 -0.1793 -0.1516  0.4404
 6572TIP3    H141207   2.777   0.929   0.211  0.1823 -1.2440  0.1400
 6572TIP3    H241208   2.818   0.849   0.333  1.7705 -1.1258 -0.2858
 6573TIP3   OH241209   2.955   4.512  13.493 -0.6088  0.1607  0.1637
 6573TIP3    H141210   3.046   4.484  13.506 -0.8088 -0.3300  0.5969
 6573TIP3    H241211   2.905   4.453  13.549 -1.3282 -0.5015 -1.1288
 6574TIP3   OH241212   0.989   5.259  13.486  0.4108 -0.0138  0.1165
 6574TIP3    H141213   1.011   5.269  13.579 -1.5064  1.1821  0.4956
 6574TIP3    H241214   0.918   5.196  13.484 -0.3251  0.8046 -0.3951
 6575TIP3   OH241215   1.995   0.594  14.305  0.3660 -0.3585  0.0529
 6575TIP3    H141216   2.083   0.561  14.288 -0.0589 -1.0162 -1.0201
 6575TIP3    H241217   1.981   0.579  14.398  1.5803  0.2679  0.3586
 6576TIP3   OH241218   2.241   1.492  11.634  0.2293  0.4678  0.3641
 6576TIP3    H141219   2.332   1.463  11.623 -0.2980 -1.4789  0.7821
 6576TIP3    H241220   2.194   1.414  11.663 -1.5595  1.4782  0.3410
 6577TIP3   OH241221   0.673   0.471  15.732  0.3633  0.4888  0.5033
 6577TIP3    H141222   0.713   0.438  15.813 -0.5695 -0.1331  0.7218
 6577TIP3    H241223   0.673   0.396  15.673 -0.0095  0.6319  0.3217
 6578TIP3   OH241224   1.088   2.827   2.445 -0.2464 -0.8559  0.3583
 6578TIP3    H141225   1.161   2.817   2.505  0.8614  0.8338 -0.6181
 6578TIP3    H241226   1.039   2.902   2.479 -0.3268 -0.6831 -0.1212
 6579TIP3   OH241227   4.726   3.036  14.355  0.5433  0.3144  0.2645
 6579TIP3    H141228   4.674   2.993  14.288  1.4526  0.8451 -0.8168
 6579TIP3    H241229   4.664   3.094  14.400 -0.1294 -0.2247  0.0417
 6580TIP3   OH241230   5.333   1.408  13.037  0.3880 -0.3376  0.2172
 6580TIP3    H141231   5.289   1.458  12.968  0.3534 -0.4239  0.1760
 6580TIP3    H241232   5.268   1.404  13.107 -0.9232 -3.1494 -1.0161
 6581TIP3   OH241233   2.435   1.065   3.575 -0.3838  0.0798 -0.6104
 6581TIP3    H141234   2.446   1.020   3.491 -0.4510 -0.5955 -0.2674
 6581TIP3    H241235   2.491   1.016   3.635 -0.8794  0.1283 -0.1068
 6582TIP3   OH241236   5.415   4.924   3.267 -0.6309 -0.1096 -0.2266
 6582TIP3    H141237   5.375   4.975   3.196 -1.8301 -2.4668 -1.3730
 6582TIP3    H241238   5.496   4.890   3.229 -0.9747 -0.8840 -0.2817
 6583TIP3   OH241239   6.602   4.508   4.532  0.2022  1.0782 -0.0979
 6583TIP3    H141240   6.552   4.466   4.462  2.9496 -0.0334 -1.5659
 6583TIP3    H241241   6.590   4.601   4.518 -1.2444  0.8541 -0.5100
 6584TIP3   OH241242   2.412   0.012   3.158  0.1952 -0.4347 -0.4590
 6584TIP3    H141243   2.400  -0.050   3.087  1.2517 -0.3890 -0.6873
 6584TIP3    H241244   2.468  -0.034   3.221  2.2191  0.7640 -1.2968
 6585TIP3   OH241245   5.517   3.835  12.024  0.2813  0.8110 -0.5478
 6585TIP3    H141246   5.520   3.748  12.064 -0.1306  0.7294 -0.6889
 6585TIP3    H241247   5.593   3.837  11.966 -0.3123  0.1237 -1.3888
 6586TIP3   OH241248   2.797   1.950  11.741  0.2227  0.1180 -0.3709
 6586TIP3    H141249   2.873   1.997  11.776 -0.5115 -0.1328  1.6827
 6586TIP3    H241250   2.821   1.858  11.748  0.8621  0.0658 -2.5257
 6587TIP3   OH241251   0.520   0.622  11.289  0.2040  0.3109  0.5639
 6587TIP3    H141252   0.600   0.588  11.329 -0.2596 -0.4853  0.8332
 6587TIP3    H241253   0.518   0.715  11.315  1.6874  0.6684 -0.5321
 6588TIP3   OH241254   3.564   0.447  13.793  0.0012 -0.2897  0.2056
 6588TIP3    H141255   3.477   0.478  13.816 -0.0496 -0.3088  0.0365
 6588TIP3    H241256   3.623   0.493  13.853 -0.2687 -1.5166  1.4796
 6589TIP3   OH241257   2.461   6.785   0.443  0.4621 -0.3641 -0.5990
 6589TIP3    H141258   2.459   6.734   0.363  0.6201 -0.1979 -0.7090
 6589TIP3    H241259   2.455   6.720   0.513  0.4729 -0.5184 -0.7407
 6590TIP3   OH241260   3.621   3.036  12.819  0.0570  0.2127  0.6589
 6590TIP3    H141261   3.617   3.017  12.725 -0.0973  0.7460  0.5519
 6590TIP3    H241262   3.682   2.971  12.854  1.1083  0.7974 -0.0211
 6591TIP3   OH241263   4.545   5.672  11.600 -0.0191 -0.2289 -0.1224
 6591TIP3    H141264   4.516   5.651  11.689 -1.7607 -0.8930 -0.7878
 6591TIP3    H241265   4.533   5.590  11.552  1.0398  0.0809 -0.9503
 6592TIP3   OH241266   6.212   4.219   5.413 -0.2777  0.4215  0.0545
 6592TIP3    H141267   6.174   4.132   5.423  1.0967 -0.3372 -0.9376
 6592TIP3    H241268   6.164   4.274   5.476 -1.2621 -1.0034  0.5979
 6593TIP3   OH241269   3.706   0.645  17.031  0.0561  0.2497  0.2945
 6593TIP3    H141270   3.698   0.707  17.103 -0.9270  0.5141 -0.0387
 6593TIP3    H241271   3.798   0.653  17.003  0.9853 -1.1219  2.6256
 6594TIP3   OH241272   0.784   5.130  16.495  0.0612 -0.1580 -0.4388
 6594TIP3    H141273   0.775   5.104  16.404 -0.2281  2.0341 -1.0995
 6594TIP3    H241274   0.695   5.130  16.529  0.2424 -1.7216  0.1091
 6595TIP3   OH241275   0.897   0.175   5.051  0.2212 -0.1584  0.2827
 6595TIP3    H141276   0.836   0.101   5.047 -1.7425  1.3205  1.3051
 6595TIP3    H241277   0.855   0.243   4.998 -1.4295  2.4701  4.5138
 6596TIP3   OH241278   6.093   6.641   5.439 -0.0225 -0.2984 -0.2523
 6596TIP3    H141279   6.156   6.569   5.443 -0.2489 -0.4499  1.3468
 6596TIP3    H241280   6.010   6.602   5.465 -0.2609  0.4239  0.0917
 6597TIP3   OH241281   0.429   0.161   6.220 -0.2918 -0.2630  0.2895
 6597TIP3    H141282   0.438   0.252   6.249  0.1784  0.2139 -1.2686
 6597TIP3    H241283   0.364   0.124   6.281 -0.9486  1.2694  0.5982
 6598TIP3   OH241284   6.249   6.302   3.596 -1.1700 -0.5738 -0.0785
 6598TIP3    H141285   6.248   6.395   3.619  1.4543 -0.7259  0.9483
 6598TIP3    H241286   6.198   6.260   3.666 -1.9444  0.0176 -0.2777
 6599TIP3   OH241287   4.587   4.339  12.421  0.3505 -0.4427  0.0774
 6599TIP3    H141288   4.544   4.371  12.500  1.5081  1.6367 -0.0545
 6599TIP3    H241289   4.601   4.418  12.368 -0.9933 -1.8395 -2.5511
 6600TIP3   OH241290   3.477   6.158  16.693  0.2473 -0.8284 -0.5853
 6600TIP3    H141291   3.420   6.126  16.764  1.7464 -0.7793  0.6925
 6600TIP3    H241292   3.459   6.252  16.689 -0.2587 -0.9256 -0.6583
 6601TIP3   OH241293   4.785   1.542  14.690  0.3746 -0.2597  0.2452
 6601TIP3    H141294   4.865   1.495  14.713 -1.1511 -2.6880  1.0180
 6601TIP3    H241295   4.783   1.539  14.594  1.2431 -0.0972  0.2134
 6602TIP3   OH241296   1.833   2.651   4.841 -0.0903 -0.6083 -0.0474
 6602TIP3    H141297   1.914   2.688   4.874 -0.7199  1.7090 -0.8681
 6602TIP3    H241298   1.856   2.617   4.754 -0.5418  3.2792 -1.9097
 6603TIP3   OH241299   0.128   1.658   2.528 -0.3706 -0.3095 -0.0345
 6603TIP3    H141300   0.147   1.715   2.454  0.0090 -1.7534 -1.0924
 6603TIP3    H241301   0.213   1.642   2.569 -0.4358 -0.3312  0.0947
 6604TIP3   OH241302   1.543   3.981   4.694  1.0083 -0.3086  0.3168
 6604TIP3    H141303   1.591   3.924   4.754  1.9796 -0.7409 -0.8135
 6604TIP3    H241304   1.596   3.980   4.614 -0.6551 -0.4213 -0.8266
 6605TIP3   OH241305   3.453   4.538   3.379  0.4013 -0.2329  0.1890
 6605TIP3    H141306   3.505   4.483   3.321  0.2816 -0.6118  0.4336
 6605TIP3    H241307   3.513   4.606   3.409  1.1983 -1.5080  1.6354
 6606TIP3   OH241308   6.102   6.010  17.056  0.3612 -0.7262 -0.2165
 6606TIP3    H141309   6.011   5.981  17.063  0.8294 -1.9506  1.8244
 6606TIP3    H241310   6.105   6.093  17.103  0.4061 -1.0289  0.3275
 6607TIP3   OH241311   2.360   5.958   3.615  0.1480  0.2263  0.6164
 6607TIP3    H141312   2.316   5.884   3.656 -1.5271  1.0293  0.3425
 6607TIP3    H241313   2.295   6.028   3.614  0.6403  0.7564 -1.9085
 6608TIP3   OH241314   4.332   0.894  16.490  0.6577  0.3076 -0.3542
 6608TIP3    H141315   4.359   0.819  16.542  1.5636  1.0048  0.2333
 6608TIP3    H241316   4.278   0.858  16.420  0.7825 -0.8337  0.1221
 6609TIP3   OH241317   2.517   6.547  15.068  0.2600  0.6178  0.2174
 6609TIP3    H141318   2.570   6.563  15.146  0.8548  0.9209 -0.2418
 6609TIP3    H241319   2.544   6.461  15.037  0.5766  0.8197 -0.0800
 6610TIP3   OH241320   6.779   4.364  16.004 -0.0183 -0.2193 -0.1531
 6610TIP3    H141321   6.712   4.295  16.006 -0.0684 -0.5712 -4.5329
 6610TIP3    H241322   6.856   4.322  15.966  0.8249  1.5125 -0.4712
 6611TIP3   OH241323   3.026   1.822   1.413  0.0443  1.4656 -0.0763
 6611TIP3    H141324   2.990   1.757   1.472  0.1575  1.4903  0.0213
 6611TIP3    H241325   2.988   1.801   1.328 -0.7193  1.9003  0.1497
 6612TIP3   OH241326   5.887   2.691   5.800  0.0216 -0.6300  0.0755
 6612TIP3    H141327   5.906   2.767   5.855 -0.2114 -0.5992  0.1127
 6612TIP3    H241328   5.948   2.698   5.727 -0.6243  0.0932 -0.4058
 6613TIP3   OH241329   2.727   0.005  11.607  0.1953 -0.2094  0.2886
 6613TIP3    H141330   2.785   0.053  11.665 -0.4562 -0.0540  0.8318
 6613TIP3    H241331   2.705  -0.075  11.655 -0.0838 -0.2354  0.1244
 6614TIP3   OH241332   6.109   5.466   2.644  0.3797  0.3022  0.0769
 6614TIP3    H141333   6.180   5.437   2.701  0.9102  0.8600 -0.2931
 6614TIP3    H241334   6.133   5.435   2.557  1.3956  2.5013 -0.4947
 6615TIP3   OH241335   3.953   6.102   6.699 -0.8674 -0.1827  0.3793
 6615TIP3    H141336   3.927   6.163   6.631  0.3219 -0.9842 -0.8425
 6615TIP3    H241337   3.882   6.105   6.763 -2.1296  0.4251 -1.0037
 6616TIP3   OH241338   1.083   5.201  16.978 -0.5969  0.2855  0.1653
 6616TIP3    H141339   1.042   5.255  16.911 -0.8063  0.5433  0.4968
 6616TIP3    H241340   1.076   5.253  17.058  0.3447  0.3155  0.2345
 6617TIP3   OH241341   3.410   5.865   6.166 -0.3961 -0.3767  0.5016
 6617TIP3    H141342   3.461   5.816   6.230 -0.5592  0.7719  1.5433
 6617TIP3    H241343   3.399   5.952   6.205  2.1249  1.4152 -2.3592
 6618TIP3   OH241344   5.861   4.983  12.548  0.1190 -0.3613  0.2118
 6618TIP3    H141345   5.941   5.014  12.505 -0.1878 -0.4887 -0.4644
 6618TIP3    H241346   5.829   5.059  12.596  0.1293 -0.0339 -0.2950
 6619TIP3   OH241347   0.754   1.644   0.808  1.1243 -0.3380  0.1268
 6619TIP3    H141348   0.766   1.667   0.900  1.3867 -1.2898  0.3448
 6619TIP3    H241349   0.662   1.666   0.789  0.3767 -2.1858  1.2677
 6620TIP3   OH241350   4.691   4.503   6.527  0.1489  0.4546 -0.8043
 6620TIP3    H141351   4.612   4.524   6.479  0.1013 -0.1175 -0.9816
 6620TIP3    H241352   4.661   4.488   6.617  0.0213 -0.0310 -0.9299
 6621TIP3   OH241353   1.994   0.999  17.033 -0.2033 -0.0182  0.0812
 6621TIP3    H141354   2.029   0.955  17.110 -1.6308 -0.4212  0.5385
 6621TIP3    H241355   1.906   1.025  17.058 -2.0777 -3.1281 -2.4201
 6622TIP3   OH241356   1.814   1.281  11.682 -0.1045  0.3691 -0.4822
 6622TIP3    H141357   1.820   1.342  11.755  1.5086  1.5262 -1.5107
 6622TIP3    H241358   1.800   1.336  11.605  1.4990 -0.4788 -1.4604
 6623TIP3   OH241359   3.315   5.021  11.553  0.4254 -0.0224 -0.0933
 6623TIP3    H141360   3.360   4.973  11.623  2.4326 -0.7577 -1.7744
 6623TIP3    H241361   3.317   4.961  11.478 -1.3798  0.8498 -0.9021
 6624TIP3   OH241362   2.680   0.483  13.166  0.7407  0.0312  0.1603
 6624TIP3    H141363   2.654   0.535  13.241  0.0605  0.1735 -0.1685
 6624TIP3    H241364   2.679   0.392  13.198 -0.6942 -0.0226  0.0268
 6625TIP3   OH241365   5.505   6.787   2.536  0.3704 -0.0349 -0.3877
 6625TIP3    H141366   5.487   6.792   2.442  0.8607 -0.1116 -0.4909
 6625TIP3    H241367   5.600   6.779   2.541  0.2144 -2.8582 -0.0124
 6626TIP3   OH241368   2.250   3.619  11.132 -0.0952 -0.4102 -0.7668
 6626TIP3    H141369   2.293   3.537  11.157 -2.1657 -0.9170  1.4091
 6626TIP3    H241370   2.160   3.594  11.113 -0.3884  1.1716 -1.5539
 6627TIP3   OH241371   6.182   2.243  16.131  0.1642  0.0925 -0.2594
 6627TIP3    H141372   6.215   2.294  16.204 -0.3388  1.0043 -0.6522
 6627TIP3    H241373   6.130   2.173  16.172 -0.7926  1.0776  0.2468
 6628TIP3   OH241374   6.168   2.710   2.506  0.7983 -0.7635  0.9204
 6628TIP3    H141375   6.231   2.757   2.451 -0.7124 -0.0542 -0.3177
 6628TIP3    H241376   6.119   2.780   2.550 -0.6499 -1.1615  0.0309
 6629TIP3   OH241377   5.763   6.807   6.196 -0.0891 -0.1371 -0.4683
 6629TIP3    H141378   5.759   6.893   6.237  1.7462  0.4221 -1.3505
 6629TIP3    H241379   5.693   6.757   6.238  0.9811  0.7101  2.5287
 6630TIP3   OH241380   0.439   6.130  15.704 -0.0293  0.4634  0.1306
 6630TIP3    H141381   0.363   6.072  15.707 -0.4179  0.9796  2.5620
 6630TIP3    H241382   0.510   6.078  15.742  1.0707 -0.2138 -2.6295
 6631TIP3   OH241383   5.978   6.536   6.406 -0.0251  0.4539  0.0548
 6631TIP3    H141384   6.044   6.517   6.339 -1.1457  0.3996 -1.0817
 6631TIP3    H241385   5.978   6.631   6.414 -0.7244  0.5514 -0.9394
 6632TIP3   OH241386   0.882   2.180  12.723  0.3529  0.5388 -0.4015
 6632TIP3    H141387   0.849   2.264  12.755  1.3715  0.4224  1.0666
 6632TIP3    H241388   0.893   2.128  12.803 -2.4079 -1.8456 -1.3951
 6633TIP3   OH241389   1.613   3.398  12.021 -0.0560  0.7426  0.2317
 6633TIP3    H141390   1.622   3.417  12.114  1.5314  1.1541  0.0220
 6633TIP3    H241391   1.587   3.482  11.982 -0.2044  0.6989  0.2361
 6634TIP3   OH241392   4.665   2.914  16.067 -0.3471 -0.2199 -0.0767
 6634TIP3    H141393   4.678   2.983  16.131 -0.8298  0.3287 -0.5614
 6634TIP3    H241394   4.751   2.902  16.027 -0.1086 -0.3760  0.4798
 6635TIP3   OH241395   2.976   6.358  16.582  0.2592 -0.5964 -0.0546
 6635TIP3    H141396   2.919   6.358  16.504  0.6061 -4.2101 -0.4721
 6635TIP3    H241397   2.971   6.447  16.615 -4.3135 -0.2291 -1.0598
 6636TIP3   OH241398   4.337   1.942   5.656 -0.1774  0.4135 -0.3084
 6636TIP3    H141399   4.247   1.972   5.653 -0.2405  0.1943 -0.7427
 6636TIP3    H241400   4.355   1.927   5.749 -0.3000  1.2983 -0.1373
 6637TIP3   OH241401   2.240   3.738   6.030 -0.4321  0.1419 -0.7682
 6637TIP3    H141402   2.209   3.672   5.968 -1.6593  0.1740 -0.2132
 6637TIP3    H241403   2.317   3.777   5.988 -1.1216  0.0193 -2.1660
 6638TIP3   OH241404   5.005   2.486   2.816 -0.2342  0.1249  0.4795
 6638TIP3    H141405   5.063   2.536   2.874 -0.1944 -0.7382  1.2188
 6638TIP3    H241406   4.928   2.468   2.870 -1.0009  0.8472 -0.3380
 6639TIP3   OH241407   1.518   0.534   0.374 -0.2304  0.5196 -0.6734
 6639TIP3    H141408   1.566   0.601   0.421  1.5102 -0.3612 -1.1356
 6639TIP3    H241409   1.484   0.477   0.444  1.1460  0.0127 -0.3852
 6640TIP3   OH241410   2.797   3.493  15.404  0.1640 -0.0415 -0.2930
 6640TIP3    H141411   2.858   3.543  15.458  0.3365 -1.6447  1.0966
 6640TIP3    H241412   2.851   3.427  15.361 -0.1816  0.3659 -1.3808
 6641TIP3   OH241413   3.963   4.658   5.657 -0.4448  0.0747  0.6783
 6641TIP3    H141414   4.056   4.678   5.656 -0.6218  0.9474  0.8732
 6641TIP3    H241415   3.957   4.572   5.699  0.1405  0.8086  2.3346
 6642TIP3   OH241416   1.530   3.575   2.507 -0.1053 -0.7058  0.0514
 6642TIP3    H141417   1.473   3.650   2.525 -1.4500 -1.2602 -1.6280
 6642TIP3    H241418   1.618   3.612   2.501 -0.6387  0.6147  0.0650
 6643TIP3   OH241419   0.373   2.710   3.462  0.3360  0.2008  0.8983
 6643TIP3    H141420   0.315   2.643   3.427 -0.6897  1.6503 -0.2908
 6643TIP3    H241421   0.374   2.779   3.396  0.9585  1.5874  2.2824
 6644TIP3   OH241422   0.847   0.095  12.820 -0.1770 -0.4996 -0.0954
 6644TIP3    H141423   0.848   0.034  12.746 -1.1012 -0.6820  0.0348
 6644TIP3    H241424   0.911   0.059  12.882 -1.1289 -1.6804  0.2361
 6645TIP3   OH241425   5.744   0.017  13.912 -0.6765  0.2403 -0.0161
 6645TIP3    H141426   5.658  -0.006  13.876 -1.6918  2.2350  0.9878
 6645TIP3    H241427   5.757   0.108  13.887  1.7151 -0.3215 -1.1131
 6646TIP3   OH241428   3.765   1.389   5.053 -0.2439  0.2806  0.2137
 6646TIP3    H141429   3.839   1.373   4.994 -0.2458 -0.7347  0.4715
 6646TIP3    H241430   3.688   1.391   4.996 -0.3639 -1.6251  0.2422
 6647TIP3   OH241431   3.099   2.367  16.324  0.0958  0.7385  1.0277
 6647TIP3    H141432   3.172   2.326  16.370 -0.3453 -0.8893  0.3462
 6647TIP3    H241433   3.141   2.420  16.255  0.6777 -1.2158 -0.2119
 6648TIP3   OH241434   2.604   2.132  12.332  0.1245  0.1354 -0.0139
 6648TIP3    H141435   2.555   2.207  12.364 -0.7041 -0.1649 -0.5333
 6648TIP3    H241436   2.634   2.157  12.245 -0.9320 -0.4489 -0.5640
 6649TIP3   OH241437   0.177   3.693  12.646 -0.2914  0.1607 -0.4953
 6649TIP3    H141438   0.092   3.730  12.669 -0.0266 -0.1846  1.1619
 6649TIP3    H241439   0.241   3.755  12.681  0.1544 -1.5545  2.0160
 6650TIP3   OH241440   3.307   2.285   1.504  0.1359  0.0622  0.3822
 6650TIP3    H141441   3.305   2.242   1.418  1.2177 -0.4749  0.6116
 6650TIP3    H241442   3.319   2.378   1.484 -1.3945  0.1859 -0.0921
 6651TIP3   OH241443   0.079   1.120  14.103  0.0117 -0.1548  0.5297
 6651TIP3    H141444  -0.005   1.135  14.147 -0.2883  1.0078 -0.3667
 6651TIP3    H241445   0.141   1.175  14.151  0.3378 -1.1794  1.3277
 6652TIP3   OH241446   5.077   4.570   3.159  0.3385 -0.2192 -0.0729
 6652TIP3    H141447   5.152   4.511   3.158  0.6006  0.1136 -0.7084
 6652TIP3    H241448   5.014   4.529   3.100  1.1576  0.9135 -1.8241
 6653TIP3   OH241449   1.458   5.611   1.880 -0.0147  0.4763  0.1199
 6653TIP3    H141450   1.398   5.542   1.851  1.2814  0.0656 -1.8134
 6653TIP3    H241451   1.511   5.570   1.948  1.1677 -0.7170 -1.4436
 6654TIP3   OH241452   1.294   5.428  12.092  0.1968 -0.1278 -0.4716
 6654TIP3    H141453   1.338   5.433  12.007  2.4322 -0.0646  0.6132
 6654TIP3    H241454   1.339   5.358  12.139 -0.7517  0.0730  0.7965
 6655TIP3   OH241455   6.160   1.276   5.184  0.5187  0.6093  0.1107
 6655TIP3    H141456   6.218   1.211   5.145 -0.7379 -0.3127 -0.2923
 6655TIP3    H241457   6.128   1.234   5.264 -1.9465 -0.2128 -1.2069
 6656TIP3   OH241458   3.401   2.142  14.444  0.3426  0.2992  0.1735
 6656TIP3    H141459   3.470   2.149  14.378 -0.2906  3.4197 -0.3211
 6656TIP3    H241460   3.438   2.182  14.523 -0.5027  1.0619  0.2081
 6657TIP3   OH241461   4.086   3.126   1.483  0.2308  0.1235 -0.2911
 6657TIP3    H141462   4.130   3.210   1.470 -1.3370  0.6953 -2.4262
 6657TIP3    H241463   4.093   3.082   1.398  0.3212 -1.5907  0.5561
 6658TIP3   OH241464   2.914   3.680  17.143  0.4853 -0.2976  0.2028
 6658TIP3    H141465   2.837   3.622  17.140 -0.3390  0.7479  0.4507
 6658TIP3    H241466   2.904   3.727  17.226  0.0014  1.6840 -0.9299
 6659TIP3   OH241467   3.527   5.791  12.475  0.4020 -0.1538  0.0945
 6659TIP3    H141468   3.468   5.863  12.498 -0.5518 -1.0702  0.5695
 6659TIP3    H241469   3.502   5.768  12.386  0.8206  0.1954 -0.1189
 6660TIP3   OH241470   5.054   0.012  15.570  0.3499 -0.5983  0.1029
 6660TIP3    H141471   5.055   0.070  15.494  0.2959  0.4007  0.8422
 6660TIP3    H241472   5.105   0.059  15.636 -0.6759 -0.8618  1.0997
 6661TIP3   OH241473   2.201   2.651  12.088 -0.2988  0.3493 -0.0456
 6661TIP3    H141474   2.184   2.570  12.137 -1.5804  1.3136  1.1880
 6661TIP3    H241475   2.144   2.645  12.012 -0.0827 -0.0795 -0.1798
 6662TIP3   OH241476   2.806   0.540  14.953 -1.1716 -0.2055 -1.2163
 6662TIP3    H141477   2.816   0.551  14.858 -1.5939 -1.4561 -1.4323
 6662TIP3    H241478   2.822   0.446  14.968 -3.5083 -0.5436 -0.4096
 6663TIP3   OH241479   2.202   1.498   0.728  0.1667  0.1253 -0.1521
 6663TIP3    H141480   2.295   1.520   0.735  0.1070  0.3871 -0.2027
 6663TIP3    H241481   2.181   1.510   0.636  1.0142 -3.5621 -0.9847
 6664TIP3   OH241482   2.761   3.817   5.297  0.2917 -0.9154 -0.2785
 6664TIP3    H141483   2.761   3.737   5.244  0.0499 -0.0851 -1.5651
 6664TIP3    H241484   2.698   3.874   5.253 -1.0719 -0.7337  1.7644
 6665TIP3   OH241485   3.797   3.644  11.282 -0.1651 -0.3302  0.1751
 6665TIP3    H141486   3.714   3.595  11.280 -0.0338 -0.5362 -1.3260
 6665TIP3    H241487   3.798   3.692  11.200  1.2502 -0.3976  0.1292
 6666TIP3   OH241488   6.552   5.132  13.268 -0.1371  0.2013  1.0201
 6666TIP3    H141489   6.625   5.075  13.294  0.5806 -0.5187 -2.1805
 6666TIP3    H241490   6.474   5.087  13.302  0.4860 -2.3303 -0.5540
 6667TIP3   OH241491   0.614   4.740  13.852 -0.1140 -0.2946 -0.3120
 6667TIP3    H141492   0.615   4.714  13.945  0.0899 -0.5405 -0.3789
 6667TIP3    H241493   0.658   4.667  13.807  1.5155  0.6812 -0.3713
 6668TIP3   OH241494   4.089   6.201  11.427 -0.1424  0.1513  0.3024
 6668TIP3    H141495   4.168   6.198  11.374  0.9360 -3.2031  1.8091
 6668TIP3    H241496   4.120   6.189  11.517 -2.2551  0.4093  1.1210
 6669TIP3   OH241497   6.467   3.194   3.730 -0.0645  0.2207 -0.0231
 6669TIP3    H141498   6.452   3.227   3.818 -0.1075 -0.3058  0.1701
 6669TIP3    H241499   6.534   3.127   3.740 -0.1684  0.0591 -0.3660
 6670TIP3   OH241500   0.880   0.715   0.824 -1.0004  0.0969  0.6317
 6670TIP3    H141501   0.939   0.770   0.877 -0.8801  1.3034 -0.6830
 6670TIP3    H241502   0.898   0.626   0.853  2.3861  0.2683 -0.4863
 6671TIP3   OH241503   6.787   0.765   2.522 -0.1056  0.5732 -0.7397
 6671TIP3    H141504   6.859   0.823   2.497  0.0897  0.7773  0.2695
 6671TIP3    H241505   6.728   0.766   2.446  1.3296 -0.2428 -1.9186
 6672TIP3   OH241506   6.466   5.470   3.195 -0.6774 -0.2351  0.2342
 6672TIP3    H141507   6.386   5.516   3.173 -1.2133 -0.2343  2.0690
 6672TIP3    H241508   6.453   5.382   3.160  0.1886  0.7636 -2.9227
 6673TIP3   OH241509   5.089   0.626  11.821 -0.0346 -0.0126 -0.2578
 6673TIP3    H141510   5.086   0.713  11.781  1.9773 -1.3462 -3.7324
 6673TIP3    H241511   5.067   0.566  11.750  1.4111 -2.5093  1.2665
 6674TIP3   OH241512   4.485   5.118   2.733 -0.9958  0.2199 -0.1698
 6674TIP3    H141513   4.562   5.164   2.767 -1.3616  0.7065  0.0076
 6674TIP3    H241514   4.452   5.069   2.808  0.0940 -1.3301 -0.6473
 6675TIP3   OH241515   4.420   3.029  13.265 -0.2076 -0.2624  0.6570
 6675TIP3    H141516   4.457   3.107  13.305 -0.0202  0.3693 -0.6851
 6675TIP3    H241517   4.492   2.992  13.214 -0.3760 -1.1527  1.0585
 6676TIP3   OH241518   3.510   1.721  13.101 -0.1960 -0.3496 -0.0690
 6676TIP3    H141519   3.481   1.660  13.168  0.7269 -0.2540  0.4410
 6676TIP3    H241520   3.559   1.788  13.149 -0.8723  0.5971 -0.6612
 6677TIP3   OH241521   3.784   3.319   1.349 -0.7741  0.0016  0.1727
 6677TIP3    H141522   3.738   3.392   1.390 -0.1838 -0.6961  2.1937
 6677TIP3    H241523   3.760   3.242   1.401 -1.4168 -1.3229 -1.9170
 6678TIP3   OH241524   2.662   2.153   2.162 -0.5259 -0.5189  0.0947
 6678TIP3    H141525   2.579   2.107   2.174 -0.7881 -0.1199 -0.2033
 6678TIP3    H241526   2.638   2.243   2.140 -0.0161 -0.0414  1.3863
 6679TIP3   OH241527   5.543   0.792   4.574 -0.8683  0.9188 -0.3304
 6679TIP3    H141528   5.518   0.711   4.619 -0.7330  0.4576 -1.0718
 6679TIP3    H241529   5.621   0.768   4.524 -0.1216  1.8223  0.3639
 6680TIP3   OH241530   0.274   1.252   2.155  0.5727 -0.3425 -0.0749
 6680TIP3    H141531   0.359   1.292   2.172  1.1963  0.0168 -3.4496
 6680TIP3    H241532   0.289   1.158   2.164  1.5678 -0.3307 -1.4030
 6681TIP3   OH241533   6.012   4.032  13.116  1.1420  0.1570  0.4575
 6681TIP3    H141534   6.015   3.961  13.180  0.4932 -0.6847 -0.3982
 6681TIP3    H241535   6.023   4.112  13.167  0.1942 -0.4590  1.6740
 6682TIP3   OH241536   2.642   0.076  11.345 -0.2205 -0.2102 -0.4959
 6682TIP3    H141537   2.670   0.033  11.426 -0.4219 -0.1495 -0.3944
 6682TIP3    H241538   2.626   0.167  11.369 -1.5574 -0.4799 -0.3102
 6683TIP3   OH241539   0.691   3.454   5.184  0.2412 -0.3864  0.0699
 6683TIP3    H141540   0.706   3.363   5.157 -0.7224 -0.7387  0.6755
 6683TIP3    H241541   0.633   3.490   5.117  0.5715 -0.2306 -0.1356
 6684TIP3   OH241542   1.283   1.967   0.496  0.3795  0.6758  0.3331
 6684TIP3    H141543   1.189   1.950   0.497  0.6118 -0.9899 -1.0527
 6684TIP3    H241544   1.292   2.049   0.446 -0.3268  0.9971  0.7118
 6685TIP3   OH241545   0.501   6.484  13.758  0.1418  0.1115  0.4052
 6685TIP3    H141546   0.464   6.572  13.750  1.4176  0.6860  0.6106
 6685TIP3    H241547   0.425   6.426  13.760 -0.6788  0.9749 -2.2514
 6686TIP3   OH241548   4.282   2.455  14.669 -0.8110 -0.3511 -0.3148
 6686TIP3    H141549   4.198   2.417  14.696  0.2385 -0.0129  4.2560
 6686TIP3    H241550   4.271   2.549  14.683  0.2833 -0.2990  0.3204
 6687TIP3   OH241551   0.302   4.781  15.226  0.2512 -0.1421 -0.0936
 6687TIP3    H141552   0.300   4.856  15.167 -0.2395 -0.9969 -1.2016
 6687TIP3    H241553   0.249   4.808  15.301  0.1008  0.6267 -0.4691
 6688TIP3   OH241554   4.473   2.458  11.364 -0.6837  0.4056 -0.1297
 6688TIP3    H141555   4.411   2.426  11.428  0.1463 -0.0844  0.4517
 6688TIP3    H241556   4.476   2.389  11.297 -1.1852  0.6939 -0.4565
 6689TIP3   OH241557   0.674   5.096  10.347  0.2930  0.1343 -0.6313
 6689TIP3    H141558   0.664   5.003  10.325 -3.1989  0.1868  0.0564
 6689TIP3    H241559   0.596   5.116  10.400  1.4045  3.2531  0.0370
 6690TIP3   OH241560   3.785   1.511  16.170  0.2032  0.5249 -0.0675
 6690TIP3    H141561   3.737   1.521  16.252 -2.5197  2.0792 -1.7091
 6690TIP3    H241562   3.854   1.577  16.175 -0.5139  1.2480  0.6106
 6691TIP3   OH241563   0.726   2.611  12.675  0.3253  0.0814 -0.0308
 6691TIP3    H141564   0.796   2.568  12.627  0.3548  1.3927 -1.2271
 6691TIP3    H241565   0.703   2.688  12.622 -2.1956 -0.4285  0.1847
 6692TIP3   OH241566   6.741   0.005   2.228 -0.1138 -0.4431  0.4274
 6692TIP3    H141567   6.764   0.084   2.179 -1.2938 -0.6095 -0.4338
 6692TIP3    H241568   6.647  -0.005   2.214  0.0842 -2.2232  0.1974
 6693TIP3   OH241569   4.189   4.861  14.446 -0.4079  0.0192  0.0600
 6693TIP3    H141570   4.122   4.818  14.499 -1.1469 -0.3728 -1.1430
 6693TIP3    H241571   4.139   4.913  14.383  0.3593 -1.0176 -1.4718
 6694TIP3   OH241572   0.856   1.425   4.584 -0.2565 -0.0542  0.1008
 6694TIP3    H141573   0.765   1.452   4.574  0.2154  2.3457  1.4925
 6694TIP3    H241574   0.860   1.385   4.671 -0.1424 -1.0682 -0.3543
 6695TIP3   OH241575   0.840   1.546   1.906 -0.0327  0.0632 -0.2142
 6695TIP3    H141576   0.762   1.597   1.931 -0.3767  0.0042 -1.1309
 6695TIP3    H241577   0.908   1.612   1.892 -0.3003  0.2197 -0.7707
 6696TIP3   OH241578   5.759   5.128   5.109  0.2811 -0.4273 -0.2404
 6696TIP3    H141579   5.712   5.121   5.192  1.2800 -1.4543  0.2649
 6696TIP3    H241580   5.692   5.156   5.046 -0.6389 -0.2759  0.7638
 6697TIP3   OH241581   2.148   1.653  12.457 -0.0182 -0.1095 -0.1948
 6697TIP3    H141582   2.183   1.715  12.393  0.3450 -1.3400 -1.2226
 6697TIP3    H241583   2.172   1.690  12.542  0.7249  0.8430 -0.7998
 6698TIP3   OH241584   4.909   0.424  14.573 -0.0550 -0.1087  0.1445
 6698TIP3    H141585   4.855   0.500  14.592  0.2030  0.2173 -0.4056
 6698TIP3    H241586   4.846   0.356  14.547 -0.3076 -0.1851  0.9262
 6699TIP3   OH241587   0.931   4.095   2.342  0.0619  0.8098  0.0109
 6699TIP3    H141588   0.967   4.167   2.292 -0.1166  0.3987 -0.7269
 6699TIP3    H241589   0.954   4.114   2.433  1.1899  1.0892 -0.3295
 6700TIP3   OH241590   3.056   5.231  10.720 -0.1753 -0.1706  0.5810
 6700TIP3    H141591   3.108   5.311  10.714  0.6348 -0.6547  0.9403
 6700TIP3    H241592   2.970   5.260  10.749 -0.4656  0.7763 -1.0833
 6701TIP3   OH241593   0.149   1.068  11.041 -0.0431  0.0272 -1.1048
 6701TIP3    H141594   0.207   0.993  11.030  0.5578  0.2166  0.4819
 6701TIP3    H241595   0.067   1.029  11.072  0.8399  0.0700  1.5858
 6702TIP3   OH241596   3.747   5.895  17.283  0.4614 -0.2294 -0.5833
 6702TIP3    H141597   3.809   5.827  17.260  1.8289  1.0192 -0.7102
 6702TIP3    H241598   3.693   5.907  17.204 -0.4196 -1.7690 -0.2533
 6703TIP3   OH241599   1.635   3.919  11.882  0.2349  0.0591  0.3725
 6703TIP3    H141600   1.576   3.985  11.845  0.6484  0.2206 -0.0131
 6703TIP3    H241601   1.712   3.968  11.910 -0.6576  0.1770  2.8936
 6704TIP3   OH241602   6.665   3.648  15.139 -0.0741 -0.2535 -0.0168
 6704TIP3    H141603   6.722   3.705  15.087 -2.4019  1.4352 -0.8763
 6704TIP3    H241604   6.692   3.663  15.230  1.5282 -0.3458 -0.4527
 6705TIP3   OH241605   2.815   4.114  15.055 -0.3224 -0.3358 -0.6042
 6705TIP3    H141606   2.830   4.198  15.011  1.2547 -0.5728 -0.5713
 6705TIP3    H241607   2.901   4.072  15.057  0.1261  0.2696  4.0000
 6706TIP3   OH241608   0.724   1.130   3.232 -0.2988  0.5746  0.3249
 6706TIP3    H141609   0.683   1.154   3.149  0.5978  0.2952 -0.2133
 6706TIP3    H241610   0.723   1.034   3.234  1.3806  0.5001 -0.2827
 6707TIP3   OH241611   2.924   3.343  13.704  0.1672  0.2716 -0.3086
 6707TIP3    H141612   2.926   3.289  13.783 -1.3130  1.1252  0.3467
 6707TIP3    H241613   2.912   3.281  13.632  1.1339 -0.4785  0.1620
 6708TIP3   OH241614   1.861   1.709   0.995  0.2758  0.3588  0.5809
 6708TIP3    H141615   1.879   1.787   1.048  1.5481  0.2713  0.3172
 6708TIP3    H241616   1.917   1.720   0.918  0.1466 -0.6051  0.3401
 6709TIP3   OH241617   4.813   0.053  11.654  0.1921  0.1923  0.2705
 6709TIP3    H141618   4.787  -0.025  11.702  0.8929  0.0596  0.4404
 6709TIP3    H241619   4.901   0.033  11.621  0.1102  0.6534 -0.2465
 6710TIP3   OH241620   1.617   3.406  12.301  0.2064 -0.6223 -0.1663
 6710TIP3    H141621   1.687   3.386  12.363 -0.1451 -1.4893 -0.0333
 6710TIP3    H241622   1.544   3.434  12.356  0.0363 -0.9668 -0.2145
 6711TIP3   OH241623   4.568   5.913  11.825 -0.1437  0.2242  0.0317
 6711TIP3    H141624   4.511   5.971  11.775 -0.8129 -0.7915 -0.4177
 6711TIP3    H241625   4.518   5.831  11.833  0.2110  0.1392  1.8162
 6712TIP3   OH241626   4.393   4.043  16.806  0.3250  0.0743  0.6783
 6712TIP3    H141627   4.459   3.975  16.794 -0.3598 -0.2479 -1.8103
 6712TIP3    H241628   4.311   3.996  16.821 -0.3298  0.2097 -1.9837
 6713TIP3   OH241629   2.908   0.489  11.801  0.0397 -0.3260  0.5582
 6713TIP3    H141630   2.974   0.555  11.778  0.1646  0.3015  2.5057
 6713TIP3    H241631   2.865   0.524  11.879 -1.2919 -1.6298  0.4601
 6714TIP3   OH241632   5.436   0.904  13.245  0.1379 -0.1965  0.0756
 6714TIP3    H141633   5.476   0.918  13.330  0.6024  0.0913 -0.1889
 6714TIP3    H241634   5.474   0.972  13.189  0.4658 -0.9016 -0.5688
 6715TIP3   OH241635   4.894   0.399  13.502 -0.1107  0.3495  0.3946
 6715TIP3    H141636   4.941   0.455  13.564  0.2604 -0.5442  0.9535
 6715TIP3    H241637   4.955   0.326  13.486 -1.3469 -0.9152  1.2435
 6716TIP3   OH241638   2.206   4.277   5.255  0.0807 -0.0991  0.0981
 6716TIP3    H141639   2.111   4.292   5.259 -0.0251 -0.6043 -0.4601
 6716TIP3    H241640   2.225   4.224   5.332  0.1327  1.1154  0.9509
 6717TIP3   OH241641   4.009   2.236   3.747  0.5037  0.4705  0.0328
 6717TIP3    H141642   4.071   2.268   3.682 -1.8135  1.0636 -2.0188
 6717TIP3    H241643   3.973   2.156   3.709 -0.1710  0.2712  1.0448
 6718TIP3   OH241644   6.386   6.384  13.491  1.6228 -0.3834  0.4586
 6718TIP3    H141645   6.381   6.342  13.404  2.5648 -1.2859  0.8205
 6718TIP3    H241646   6.311   6.444  13.492  0.9457 -1.1610 -0.5581
 6719TIP3   OH241647   2.025   6.512   1.714  0.4137 -0.2692 -0.0570
 6719TIP3    H141648   1.945   6.473   1.749  0.0755  0.5785  0.1205
 6719TIP3    H241649   2.056   6.570   1.783  0.5241  0.3219 -0.5951
 6720TIP3   OH241650   0.144   2.601   4.947  0.3821 -0.1286 -0.2159
 6720TIP3    H141651   0.071   2.582   5.007  1.4362 -1.5121  0.6967
 6720TIP3    H241652   0.101   2.630   4.866 -1.1129  0.9350  0.9013
 6721TIP3   OH241653   3.768   5.803  12.231  0.1357  0.1360 -0.2799
 6721TIP3    H141654   3.720   5.725  12.204  1.3217 -0.4248 -0.8211
 6721TIP3    H241655   3.806   5.781  12.316  0.4756  0.1199 -0.4346
 6722TIP3   OH241656   5.268   0.027  10.940 -0.3855 -0.8403  0.2680
 6722TIP3    H141657   5.326  -0.047  10.924  1.2092 -0.2724  2.7464
 6722TIP3    H241658   5.312   0.101  10.898  1.9155 -0.0440  3.6156
 6723TIP3   OH241659   5.921   1.479  17.281  0.2033 -0.0100 -0.6874
 6723TIP3    H141660   5.954   1.399  17.322  0.1377 -0.3319 -1.2519
 6723TIP3    H241661   5.985   1.500  17.213  0.6024  0.8327 -0.0766
 6724TIP3   OH241662   6.035   0.817  16.126 -0.2482  0.4240  0.8490
 6724TIP3    H141663   6.038   0.769  16.209 -0.8753 -0.4908  0.3592
 6724TIP3    H241664   6.099   0.772  16.070  0.8381  1.5929  1.1026
 6725TIP3   OH241665   6.532   2.082   3.848  0.5415  0.2054 -0.0676
 6725TIP3    H141666   6.481   2.070   3.928  1.7399 -0.4671  0.6270
 6725TIP3    H241667   6.524   2.175   3.828 -1.8984 -0.0682 -0.6618
 6726TIP3   OH241668   1.377   2.507  15.309 -0.0208  0.4811 -0.6921
 6726TIP3    H141669   1.312   2.451  15.351  0.7790 -0.2431 -0.4092
 6726TIP3    H241670   1.360   2.594  15.346  0.5003 -0.0897  0.9602
 6727TIP3   OH241671   0.426   1.232   1.115 -0.4981  0.5775  0.0167
 6727TIP3    H141672   0.515   1.236   1.080 -1.2272  1.3054 -1.8838
 6727TIP3    H241673   0.370   1.230   1.038 -2.1186 -1.6388  1.1248
 6728TIP3   OH241674   5.304   6.684  11.276 -0.0283 -0.1001 -0.9885
 6728TIP3    H141675   5.365   6.640  11.335  0.4167 -0.7710 -1.9347
 6728TIP3    H241676   5.350   6.689  11.192 -0.8884  0.2882 -1.4542
 6729TIP3   OH241677   3.828   2.125   4.477 -0.2300  0.0524 -0.5180
 6729TIP3    H141678   3.860   2.037   4.496  1.4728  0.9614  1.0100
 6729TIP3    H241679   3.903   2.182   4.492 -1.8216  1.9872  0.4807
 6730TIP3   OH241680   2.375   1.038   2.087 -0.1366 -0.4500 -0.0105
 6730TIP3    H141681   2.334   1.109   2.039  0.1921  0.1998  0.6602
 6730TIP3    H241682   2.406   0.978   2.019 -0.3163  0.0940 -0.5813
 6731TIP3   OH241683   5.716   4.587  15.964 -0.3960 -0.0093 -0.5492
 6731TIP3    H141684   5.633   4.620  15.930 -0.2526  0.1572 -0.7348
 6731TIP3    H241685   5.781   4.610  15.898 -0.3530 -1.0381 -0.8914
 6732TIP3   OH241686   4.407   3.884  15.272 -0.2542 -0.0488  1.1025
 6732TIP3    H141687   4.364   3.854  15.192  1.3327 -0.1500  0.2354
 6732TIP3    H241688   4.424   3.977  15.257 -2.1571  0.5804  2.4011
 6733TIP3   OH241689   1.034   1.617   2.645 -0.8756 -0.4718 -0.2496
 6733TIP3    H141690   1.059   1.597   2.555  1.9416  1.1764  0.0511
 6733TIP3    H241691   1.033   1.713   2.649  0.4303 -0.4952  1.7745
 6734TIP3   OH241692   6.574   0.966  12.257 -0.1603 -0.2221 -0.1652
 6734TIP3    H141693   6.520   0.888  12.270 -1.9588  0.9054 -0.4858
 6734TIP3    H241694   6.664   0.935  12.270 -0.9271 -1.8949  1.7299
 6735TIP3   OH241695   4.200   1.311   1.744  0.3875 -0.0071  0.1497
 6735TIP3    H141696   4.187   1.402   1.773  1.1991  0.3552 -0.5810
 6735TIP3    H241697   4.277   1.315   1.687 -1.3080 -0.5909 -2.3527
 6736TIP3   OH241698   5.562   3.630   5.665  0.2013 -0.6486 -0.0805
 6736TIP3    H141699   5.630   3.643   5.731  0.3561 -0.6428 -0.2413
 6736TIP3    H241700   5.507   3.708   5.672  0.9781 -0.0124 -0.8624
 6737TIP3   OH241701   5.470   3.286  14.032 -0.1825 -1.0653 -0.1753
 6737TIP3    H141702   5.443   3.331  13.952 -0.0568 -0.7018 -0.0156
 6737TIP3    H241703   5.442   3.344  14.103  0.9353 -0.6989 -0.0028
 6738TIP3   OH241704   5.278   6.412   0.669 -0.4626  0.0244 -0.6237
 6738TIP3    H141705   5.270   6.351   0.742 -1.3145  1.4753  0.5612
 6738TIP3    H241706   5.366   6.450   0.679 -1.2429  1.6237  0.8970
 6739TIP3   OH241707   3.295   6.325   2.426  0.6936  0.0488  0.6634
 6739TIP3    H141708   3.243   6.297   2.350 -0.5417  0.4036  1.3418
 6739TIP3    H241709   3.255   6.408   2.452  1.6202  0.3308  1.2129
 6740TIP3   OH241710   4.280   0.917   0.893 -0.0958 -0.0236 -0.1361
 6740TIP3    H141711   4.341   0.843   0.882  1.5044  1.4098 -1.5661
 6740TIP3    H241712   4.212   0.883   0.952 -0.3931 -3.1961 -2.0413
 6741TIP3   OH241713   5.040   4.100  16.863  0.4509  0.0505 -0.5998
 6741TIP3    H141714   4.998   4.147  16.791  0.3240  0.2264 -0.4131
 6741TIP3    H241715   5.087   4.168  16.911  0.7148 -0.0998 -0.6416
 6742TIP3   OH241716   2.515   5.352  16.561 -0.0299  0.3066  0.0896
 6742TIP3    H141717   2.460   5.331  16.637 -0.4995 -0.8531 -0.5419
 6742TIP3    H241718   2.474   5.429  16.523  0.1594  0.8461  0.9550
 6743TIP3   OH241719   4.926   4.736  10.454 -0.4397  0.3054  0.2985
 6743TIP3    H141720   4.863   4.669  10.479  0.3634  0.3587  2.6897
 6743TIP3    H241721   5.011   4.702  10.482  0.2124  1.5539 -0.0596
 6744TIP3   OH241722   0.946   3.810  15.752 -0.2259 -0.1736 -0.3789
 6744TIP3    H141723   1.026   3.757  15.752 -0.9804 -1.3306 -0.1795
 6744TIP3    H241724   0.978   3.899  15.768  0.9038 -0.8465  1.5029
 6745TIP3   OH241725   6.241   0.048   1.756  0.8532 -0.7492  0.1822
 6745TIP3    H141726   6.259  -0.029   1.702  0.2044  0.4111 -1.8223
 6745TIP3    H241727   6.300   0.116   1.722 -2.2976  1.1805 -1.9895
 6746TIP3   OH241728   4.724   0.124   4.687  0.7412  0.0155 -0.3825
 6746TIP3    H141729   4.768   0.155   4.767  0.5526 -0.5157 -0.0736
 6746TIP3    H241730   4.674   0.048   4.715  1.8200 -1.0645 -1.2861
 6747TIP3   OH241731   2.067   4.624   2.000 -1.1266  0.3999 -0.4046
 6747TIP3    H141732   2.155   4.648   2.031 -1.3441 -1.3760  1.7660
 6747TIP3    H241733   2.016   4.705   2.008  0.1049  1.2909 -1.0939
 6748TIP3   OH241734   0.166   2.473  15.030 -0.1692  0.2237 -0.1998
 6748TIP3    H141735   0.258   2.484  15.007  0.2717  1.1902  1.7618
 6748TIP3    H241736   0.126   2.557  15.011  0.1336  0.9281  2.0146
 6749TIP3   OH241737   5.314   0.192   2.873 -0.2380 -0.4205  0.4070
 6749TIP3    H141738   5.331   0.243   2.794  1.0216 -1.4350 -0.0184
 6749TIP3    H241739   5.332   0.253   2.945  1.8335 -0.3609 -0.0804
 6750TIP3   OH241740   2.033   0.183  14.322 -0.1695  0.3688 -0.0761
 6750TIP3    H141741   1.957   0.225  14.363 -1.0572 -0.3121 -0.9898
 6750TIP3    H241742   2.043   0.228  14.238 -0.9687 -1.0345 -0.9522
 6751TIP3   OH241743   3.571   0.963  14.857 -0.0211 -0.9200 -0.3126
 6751TIP3    H141744   3.572   1.024  14.930  1.5029 -0.7913 -0.4002
 6751TIP3    H241745   3.573   0.876  14.898  2.9118 -0.8501 -0.1178
 6752TIP3   OH241746   5.614   1.498   3.231  0.6254 -0.3437  0.4619
 6752TIP3    H141747   5.632   1.560   3.159 -0.7895 -0.5363 -0.0821
 6752TIP3    H241748   5.557   1.433   3.192 -2.0006  0.7178  2.2867
 6753TIP3   OH241749   0.743   0.923  14.877 -0.0456 -0.4049 -0.3230
 6753TIP3    H141750   0.805   0.873  14.823  0.1865 -2.5946  1.7765
 6753TIP3    H241751   0.776   0.912  14.967 -1.1937  1.8892  0.4531
 6754TIP3   OH241752   6.766   5.081  12.769 -0.0787  0.2336  0.1054
 6754TIP3    H141753   6.857   5.101  12.746  0.3733  1.2077  2.4202
 6754TIP3    H241754   6.737   5.158  12.819 -2.9623  0.9776 -2.3757
 6755TIP3   OH241755   2.395   1.814   1.990  0.5787  0.3768 -0.2200
 6755TIP3    H141756   2.440   1.886   1.947 -2.6099  2.5344 -0.3392
 6755TIP3    H241757   2.352   1.766   1.919 -0.9789  1.1821  0.1328
 6756TIP3   OH241758   4.825   0.629   5.520 -0.3310 -1.0020  0.0221
 6756TIP3    H141759   4.844   0.641   5.427  0.5310 -2.9377 -0.1048
 6756TIP3    H241760   4.752   0.689   5.538 -0.1331 -0.1771 -1.7465
 6757TIP3   OH241761   3.871   6.380  16.333 -0.2526  0.0729 -0.2884
 6757TIP3    H141762   3.794   6.397  16.388  0.8835 -0.5382  1.5801
 6757TIP3    H241763   3.843   6.311  16.273 -0.7456 -1.2713  1.4076
 6758TIP3   OH241764   2.985   1.219  11.414 -0.4042  0.0479  0.4688
 6758TIP3    H141765   2.920   1.249  11.478  0.0689 -0.9868  1.4871
 6758TIP3    H241766   3.039   1.156  11.463  0.7345  0.1254 -0.6255
 6759TIP3   OH241767   1.663   2.775  15.398  0.4322  0.1413  0.1040
 6759TIP3    H141768   1.603   2.849  15.404 -0.1193 -0.2662 -0.2209
 6759TIP3    H241769   1.614   2.702  15.436 -0.0073 -0.6116 -1.8026
 6760TIP3   OH241770   0.053   0.250  17.064  0.0582 -0.0769 -0.0139
 6760TIP3    H141771  -0.014   0.187  17.038 -0.6820  0.6899 -0.0183
 6760TIP3    H241772   0.089   0.216  17.146 -2.8161  1.2421  1.9350
 6761TIP3   OH241773   0.177   5.358  16.205  0.2443  0.0872 -0.2493
 6761TIP3    H141774   0.096   5.322  16.240 -0.0336  1.2197  0.3121
 6761TIP3    H241775   0.156   5.381  16.114  0.3724 -0.9755 -0.5520
 6762TIP3   OH241776   6.268   2.830   2.986 -0.2215 -0.0125  0.5681
 6762TIP3    H141777   6.290   2.782   2.906 -0.8417  0.1321  0.3094
 6762TIP3    H241778   6.259   2.921   2.958  0.3309  0.1659  0.9463
 6763TIP3   OH241779   5.859   1.664  15.786  0.3479  0.2766  0.3551
 6763TIP3    H141780   5.790   1.638  15.847 -1.0067  0.5767 -1.0047
 6763TIP3    H241781   5.922   1.592  15.789  0.2392  0.1965  1.9335
 6764TIP3   OH241782   4.974   0.025   3.704  0.3273  0.1830 -0.0200
 6764TIP3    H141783   4.919  -0.049   3.730 -0.7239  0.3510 -1.6090
 6764TIP3    H241784   4.951   0.095   3.765 -1.6600  0.4096 -0.9618
 6765TIP3   OH241785   4.015   0.607  17.120  0.3319  0.1324 -0.1447
 6765TIP3    H141786   4.073   0.656  17.062  2.2935 -0.3486  1.3030
 6765TIP3    H241787   4.048   0.517  17.117 -0.2531 -0.1328  0.7817
 6766TIP3   OH241788   5.847   0.052   1.167 -0.1470  0.1338  0.4086
 6766TIP3    H141789   5.810   0.125   1.217 -1.3013 -1.6872  2.3282
 6766TIP3    H241790   5.923   0.024   1.218 -0.8494 -1.2188  0.7477
 6767TIP3   OH241791   1.976   1.402   0.511 -0.4302  0.0938 -0.4022
 6767TIP3    H141792   2.043   1.342   0.480  0.0457  0.3021  0.2128
 6767TIP3    H241793   2.020   1.487   0.515 -0.9779  0.4077 -0.8476
 6768TIP3   OH241794   1.260   4.455  14.643 -0.4065  0.5999 -0.2862
 6768TIP3    H141795   1.209   4.388  14.598 -2.9577  1.8480  0.5795
 6768TIP3    H241796   1.305   4.407  14.713 -0.3341 -0.5451 -1.0817
 6769TIP3   OH241797   5.098   3.160  16.955 -0.6708  0.2288  0.0721
 6769TIP3    H141798   5.067   3.245  16.985 -3.4837 -0.3916 -0.7918
 6769TIP3    H241799   5.020   3.116  16.921  1.0080 -1.9909 -1.2215
 6770TIP3   OH241800   2.035   5.619   1.076  0.2871  0.4820 -0.3379
 6770TIP3    H141801   2.031   5.702   1.124  0.3907  0.4640 -0.2980
 6770TIP3    H241802   2.108   5.631   1.014  1.5871 -0.2808  0.9906
 6771TIP3   OH241803   5.998   4.617   1.495 -0.4241  0.3270  0.3484
 6771TIP3    H141804   6.046   4.536   1.511 -0.6345  0.0463 -0.3774
 6771TIP3    H241805   5.965   4.643   1.581 -0.4675 -0.4362  0.5730
 6772TIP3   OH241806   4.961   2.631  11.368 -0.2342  0.1131 -0.1920
 6772TIP3    H141807   4.913   2.690  11.427 -2.1010 -1.4502 -0.0591
 6772TIP3    H241808   4.929   2.544  11.390  0.0522 -0.6627 -2.5790
 6773TIP3   OH241809   5.943   3.143  17.220 -0.5908  0.9747 -0.1808
 6773TIP3    H141810   5.928   3.049  17.231 -2.7240  1.2414 -0.2607
 6773TIP3    H241811   6.036   3.152  17.202  0.2155 -0.8782  2.5224
 6774TIP3   OH241812   0.605   2.768  13.832 -0.4071  0.3649  0.7280
 6774TIP3    H141813   0.541   2.815  13.885 -0.4856  0.8368  0.2271
 6774TIP3    H241814   0.666   2.836  13.802 -1.5340  0.5080 -1.4813
 6775TIP3   OH241815   3.628   4.744   5.282 -0.2514 -0.2148  0.1874
 6775TIP3    H141816   3.537   4.718   5.272 -0.1123 -0.9150  0.6859
 6775TIP3    H241817   3.668   4.674   5.332  0.8001 -0.3931 -0.8519
 6776TIP3   OH241818   6.661   5.814  12.708  0.0869 -0.2669  0.5551
 6776TIP3    H141819   6.588   5.752  12.702 -0.2039  0.0422  0.8340
 6776TIP3    H241820   6.624   5.896  12.673  0.1987 -0.0214  1.0161
 6777TIP3   OH241821   4.503   2.899  13.642  0.6221 -0.1911  0.2783
 6777TIP3    H141822   4.511   2.825  13.702  0.0818 -0.5722 -0.1096
 6777TIP3    H241823   4.541   2.868  13.560  2.4232  0.7130  0.7227
 6778TIP3   OH241824   0.799   3.224  13.673 -0.0586  0.2887 -0.4987
 6778TIP3    H141825   0.825   3.241  13.764 -0.8071 -1.1875  0.0206
 6778TIP3    H241826   0.758   3.306  13.645 -1.7264  0.1088  1.2232
 6779TIP3   OH241827   5.836   6.195  13.546 -0.1747  0.4183 -0.3551
 6779TIP3    H141828   5.803   6.164  13.462 -1.6034 -1.1733  0.7238
 6779TIP3    H241829   5.767   6.251  13.580  0.9320  2.0983 -0.7452
 6780TIP3   OH241830   2.197   4.941  13.420 -0.4951  0.0575 -0.0671
 6780TIP3    H141831   2.112   4.908  13.390  0.4770 -1.7136 -1.1177
 6780TIP3    H241832   2.186   4.953  13.514 -1.4427 -1.8640  0.1361
 6781TIP3   OH241833   0.288   4.947   6.515  0.0869 -0.4368  1.2344
 6781TIP3    H141834   0.230   4.871   6.519 -0.1190 -0.2356  2.8960
 6781TIP3    H241835   0.341   4.940   6.595  1.3310  0.1847  0.4859
 6782TIP3   OH241836   6.816   0.254   5.672  0.0905 -0.3023 -0.0990
 6782TIP3    H141837   6.828   0.323   5.607  2.1441 -0.4023  0.0971
 6782TIP3    H241838   6.741   0.203   5.641 -1.1456  1.6688 -0.5271
 6783TIP3   OH241839   4.532   2.046   5.487  0.0013  0.2480  0.3598
 6783TIP3    H141840   4.471   2.000   5.545  1.1655 -0.9553  0.6773
 6783TIP3    H241841   4.503   2.138   5.490 -2.0979 -0.3560  0.0714
 6784TIP3   OH241842   3.355   5.225   4.422 -0.4137 -0.1808  0.3290
 6784TIP3    H141843   3.312   5.140   4.413  0.4638 -0.4895 -1.5093
 6784TIP3    H241844   3.313   5.266   4.497 -1.7127 -1.7304  0.4953
 6785TIP3   OH241845   4.838   1.997   1.709  0.6341 -0.1623 -0.0895
 6785TIP3    H141846   4.778   2.071   1.712  1.9422  1.0702 -1.7141
 6785TIP3    H241847   4.786   1.924   1.676 -0.4287  0.3157  0.5009
 6786TIP3   OH241848   6.798   6.627  10.833 -0.0216 -0.2462  0.6225
 6786TIP3    H141849   6.769   6.576  10.908  0.1847  0.3240  1.0939
 6786TIP3    H241850   6.815   6.714  10.868  2.9321 -0.6811  0.5127
 6787TIP3   OH241851   0.356   5.570  10.808  0.2519 -0.6653 -0.3203
 6787TIP3    H141852   0.393   5.640  10.754 -0.4879 -1.6094 -2.1522
 6787TIP3    H241853   0.431   5.514  10.829  0.4059 -0.9092 -1.4146
 6788TIP3   OH241854   2.061   6.718   0.967  0.6169 -0.0853  0.0979
 6788TIP3    H141855   2.024   6.806   0.961 -0.3258 -0.4101  0.8466
 6788TIP3    H241856   1.992   6.666   1.007 -0.3978 -2.1136 -3.8410
 6789TIP3   OH241857   1.414   4.285   2.156 -0.3262  0.4185  0.4624
 6789TIP3    H141858   1.405   4.349   2.086  0.7949 -0.7118 -0.7838
 6789TIP3    H241859   1.324   4.268   2.185 -1.0951 -0.6291 -2.2050
 6790TIP3   OH241860   2.143   2.870  14.882  0.9831  0.2191 -0.1143
 6790TIP3    H141861   2.229   2.857  14.841 -0.4861 -0.1230 -3.4471
 6790TIP3    H241862   2.128   2.790  14.932  0.9539 -1.7199 -2.9745
 6791TIP3   OH241863   3.639   3.857  14.031  0.4403  0.0644 -0.1165
 6791TIP3    H141864   3.575   3.792  14.001 -1.1812  1.1053  0.8861
 6791TIP3    H241865   3.710   3.806  14.069 -0.0636 -1.1288 -0.7029
 6792TIP3   OH241866   1.026   3.988   3.174  0.5437  0.2379  0.0854
 6792TIP3    H141867   0.954   4.027   3.224 -0.0199 -0.5408 -0.0974
 6792TIP3    H241868   1.000   4.001   3.082  0.9342  0.4830  0.0064
 6793TIP3   OH241869   3.262   5.229  10.998 -0.1651  0.1773 -0.1449
 6793TIP3    H141870   3.354   5.255  11.004 -0.3731  0.9021  0.1823
 6793TIP3    H241871   3.214   5.311  11.012 -0.8619  0.2381 -2.5126
 6794TIP3   OH241872   1.271   0.685  15.584  0.1120 -0.5925  0.5247
 6794TIP3    H141873   1.350   0.664  15.634  0.5895  3.0116  1.6129
 6794TIP3    H241874   1.302   0.703  15.496  0.5498  0.5709  0.8903
 6795TIP3   OH241875   6.730   2.764   2.008  0.1358 -0.2591  0.1874
 6795TIP3    H141876   6.648   2.715   2.002  0.0983 -0.2076  0.2701
 6795TIP3    H241877   6.721   2.835   1.945  0.4203 -0.6839 -0.3366
 6796TIP3   OH241878   6.474   1.794  16.609  0.1197  0.2367 -0.6204
 6796TIP3    H141879   6.494   1.752  16.693 -0.9278  1.7150  0.4147
 6796TIP3    H241880   6.548   1.852  16.593  1.2642 -1.4684 -1.7360
 6797TIP3   OH241881   6.720   0.309  16.343 -0.0060  0.0000  0.1655
 6797TIP3    H141882   6.638   0.272  16.310 -0.3916  1.8674 -1.1450
 6797TIP3    H241883   6.693   0.371  16.411  0.6290 -1.9706  2.3604
 6798TIP3   OH241884   6.252   3.517   6.443 -0.0190 -0.0453  0.3258
 6798TIP3    H141885   6.298   3.600   6.453  0.4800  0.0424 -2.1041
 6798TIP3    H241886   6.169   3.529   6.489  0.1087  1.7495  0.1382
 6799TIP3   OH241887   5.659   4.825   3.170  0.0567 -0.2033 -0.1560
 6799TIP3    H141888   5.707   4.872   3.101 -0.1233  2.6502  1.5068
 6799TIP3    H241889   5.642   4.738   3.132  2.0880  0.3816 -2.7173
 6800TIP3   OH241890   6.754   5.601   4.577  0.0389 -0.6119  0.1094
 6800TIP3    H141891   6.693   5.639   4.514 -1.8805 -0.0701  2.1506
 6800TIP3    H241892   6.839   5.637   4.553 -0.9289  1.0680 -1.0409
 6801TIP3   OH241893   1.839   0.474  13.348  0.2091  0.1733 -0.1216
 6801TIP3    H141894   1.900   0.530  13.300 -0.3336  0.3907 -0.5559
 6801TIP3    H241895   1.752   0.506  13.324 -0.0793 -0.0748  0.5674
 6802TIP3   OH241896   0.842   0.862  16.673  0.1104  0.1265 -0.1162
 6802TIP3    H141897   0.872   0.787  16.726  1.8168  1.2914  0.6595
 6802TIP3    H241898   0.901   0.863  16.597 -0.4891  0.1590 -0.5864
 6803TIP3   OH241899   5.187   4.907  12.888  0.4497 -0.2325 -0.6557
 6803TIP3    H141900   5.125   4.896  12.961  1.7183  0.1782  0.5186
 6803TIP3    H241901   5.133   4.895  12.810 -0.7338 -1.8471  0.3442
 6804TIP3   OH241902   4.762   0.012   2.003  0.3473  0.5319  0.0457
 6804TIP3    H141903   4.669   0.019   2.028  0.5233  0.7228  0.6723
 6804TIP3    H241904   4.789   0.103   1.988  0.5330  0.5096  0.2469
 6805TIP3   OH241905   1.944   1.268   1.808 -0.4746  0.0417  0.2048
 6805TIP3    H141906   1.987   1.316   1.736 -2.5265  0.3744 -0.8573
 6805TIP3    H241907   1.920   1.335   1.871 -4.2726  0.7813 -1.7477
 6806TIP3   OH241908   3.008   4.210   3.486 -0.2263  0.0137  0.1608
 6806TIP3    H141909   2.991   4.142   3.422 -1.0319  0.2485  0.1199
 6806TIP3    H241910   3.094   4.245   3.462  0.5827 -1.5249  0.6752
 6807TIP3   OH241911   3.947   0.464  12.397 -0.1475 -0.1131 -0.4657
 6807TIP3    H141912   4.015   0.470  12.329  1.7747 -1.0069  1.2714
 6807TIP3    H241913   3.995   0.475  12.479 -2.0326 -1.4135  0.8797
 6808TIP3   OH241914   4.984   1.429  15.387  0.2708  0.0936 -0.4008
 6808TIP3    H141915   5.047   1.418  15.458 -0.4027  2.0415  0.5810
 6808TIP3    H241916   4.997   1.519  15.358 -0.3934 -0.2546 -1.8691
 6809TIP3   OH241917   2.663   5.886  16.167  0.2994  1.0862  0.1198
 6809TIP3    H141918   2.667   5.964  16.222  1.2730  0.6454  0.6970
 6809TIP3    H241919   2.645   5.919  16.079 -1.7115  1.7670  0.7382
 6810TIP3   OH241920   0.594   4.407  13.784  0.0268 -0.1936 -0.3346
 6810TIP3    H141921   0.572   4.432  13.694  0.4424  1.2330 -0.0635
 6810TIP3    H241922   0.681   4.443  13.798  0.9683 -2.4003 -0.0991
 6811TIP3   OH241923   0.060   4.535   0.732  0.0006 -0.6365  0.3762
 6811TIP3    H141924   0.019   4.621   0.739  0.9057 -0.3112  2.5045
 6811TIP3    H241925  -0.012   4.473   0.742 -0.4838 -0.1259  0.1226
 6812TIP3   OH241926   3.922   4.724  16.581 -0.2680  0.1810 -0.2707
 6812TIP3    H141927   4.012   4.710  16.609 -0.3741 -0.8462 -0.4020
 6812TIP3    H241928   3.868   4.689  16.652 -0.5744  1.0064 -0.0838
 6813TIP3   OH241929   2.666   2.620  12.366  0.2893  0.0138  0.1666
 6813TIP3    H141930   2.586   2.614  12.313 -0.7592  2.2169  1.3565
 6813TIP3    H241931   2.637   2.654  12.450  2.5781  1.8989  0.3022
 6814TIP3   OH241932   3.699   3.972   1.168 -0.0760 -0.1231 -0.6252
 6814TIP3    H141933   3.772   4.026   1.199 -0.0510 -0.9909  0.9192
 6814TIP3    H241934   3.621   4.024   1.187  0.0735  0.3711 -1.3371
 6815TIP3   OH241935   0.709   4.171   2.660  0.0016 -0.4636  0.5060
 6815TIP3    H141936   0.647   4.102   2.636 -1.8434  1.3987 -0.4347
 6815TIP3    H241937   0.664   4.220   2.729 -0.3305  1.8218 -1.2187
 6816TIP3   OH241938   2.122   3.758   0.031 -0.5014  0.1345 -0.2306
 6816TIP3    H141939   2.035   3.747  -0.007 -1.3008 -2.6908  2.0284
 6816TIP3    H241940   2.106   3.770   0.125  1.5202 -0.3541  0.2172
 6817TIP3   OH241941   6.168   2.875  17.184 -0.6648 -0.4492  0.3383
 6817TIP3    H141942   6.139   2.855  17.096  0.9338 -0.0347 -0.3195
 6817TIP3    H241943   6.188   2.790  17.223 -1.2731 -0.6267  0.2632
 6818TIP3   OH241944   0.173   5.715   3.386 -0.0941 -0.5084 -0.1246
 6818TIP3    H141945   0.221   5.736   3.466  0.4716 -0.1469 -0.5555
 6818TIP3    H241946   0.183   5.620   3.377 -1.2291 -0.7616  0.9052
 6819TIP3   OH241947   6.636   4.810   1.594  0.2547 -0.2252  0.1305
 6819TIP3    H141948   6.607   4.793   1.683  1.9225 -0.8435  0.5906
 6819TIP3    H241949   6.591   4.744   1.541 -1.4078  0.6925  0.3661
 6820TIP3   OH241950   3.043   2.013  14.471 -0.4355 -0.6226 -0.5029
 6820TIP3    H141951   3.069   1.924  14.493 -0.5132 -0.3809  0.6347
 6820TIP3    H241952   3.080   2.067  14.540 -0.4227  0.2313 -1.1562
 6821TIP3   OH241953   3.008   6.053   2.388  0.0749 -0.5567  0.6440
 6821TIP3    H141954   2.914   6.073   2.389  0.2155  0.1033  1.0472
 6821TIP3    H241955   3.049   6.132   2.352  0.2081 -2.1343 -3.1863
 6822TIP3   OH241956   0.973   2.666   1.708  0.4991  0.3076  0.3038
 6822TIP3    H141957   1.019   2.719   1.773  1.6714 -0.6065  0.2521
 6822TIP3    H241958   1.021   2.584   1.706 -2.1288 -1.3826  1.4638
 6823TIP3   OH241959   5.012   6.373  15.334  0.6424 -0.6202 -0.4803
 6823TIP3    H141960   5.000   6.287  15.374  2.4939 -1.7458 -2.1378
 6823TIP3    H241961   5.022   6.355  15.240 -3.0768  1.8425 -1.5816
 6824TIP3   OH241962   3.019   0.621  12.819 -0.4058 -0.0014 -0.5447
 6824TIP3    H141963   2.989   0.588  12.904 -0.8413  0.1811 -0.6256
 6824TIP3    H241964   2.945   0.608  12.761 -1.0577  2.2538 -0.3063
 6825TIP3   OH241965   0.679   2.613   6.284  0.3325 -0.1604  0.0032
 6825TIP3    H141966   0.604   2.554   6.293 -1.6025  1.7306 -2.4045
 6825TIP3    H241967   0.649   2.695   6.323  1.1135  0.6657 -1.1059
 6826TIP3   OH241968   3.328   2.461  14.033  0.0316  0.3582  0.0176
 6826TIP3    H141969   3.275   2.461  13.953  1.5384  1.3291 -1.0394
 6826TIP3    H241970   3.332   2.553  14.059  2.5505  0.5761 -0.9217
 6827TIP3   OH241971   0.669   1.588   5.741 -0.4043  0.6149  0.1091
 6827TIP3    H141972   0.748   1.557   5.696 -0.0063  1.4089  0.2488
 6827TIP3    H241973   0.598   1.571   5.679 -0.0751  0.2458 -0.1713
 6828TIP3   OH241974   6.494   0.671  14.843 -0.4836  0.3902 -0.0027
 6828TIP3    H141975   6.473   0.744  14.784 -2.7110  0.5306  0.8842
 6828TIP3    H241976   6.533   0.606  14.785 -1.1141  1.1550 -1.3587
 6829TIP3   OH241977   1.291   3.090   2.409 -0.2977  0.4769 -0.4499
 6829TIP3    H141978   1.291   3.136   2.493 -0.6984  0.0511 -0.2083
 6829TIP3    H241979   1.359   3.023   2.418  0.7857  1.4612 -1.0623
 6830TIP3   OH241980   4.840   4.895  10.728 -0.0538  0.7543  0.1458
 6830TIP3    H141981   4.840   4.808  10.690 -1.2833  0.5347  0.6071
 6830TIP3    H241982   4.794   4.950  10.665  0.8432  1.1221 -0.2126
 6831TIP3   OH241983   1.124   5.378   4.183  0.0099 -0.2756 -0.3568
 6831TIP3    H141984   1.214   5.404   4.163 -0.1907  1.6323  0.9536
 6831TIP3    H241985   1.128   5.352   4.275 -0.9335  0.7401 -0.0108
 6832TIP3   OH241986   4.843   4.569  12.942 -0.0630  0.6216  0.6670
 6832TIP3    H141987   4.913   4.602  12.887 -0.8147  1.6555  0.3086
 6832TIP3    H241988   4.777   4.535  12.881 -0.5949  1.1445  0.9384
 6833TIP3   OH241989   0.872   2.815  15.754 -0.2712  0.2876  0.2591
 6833TIP3    H141990   0.940   2.749  15.764 -0.8928 -0.7220 -1.6256
 6833TIP3    H241991   0.918   2.898  15.753  0.9271 -0.3621 -0.7640
 6834TIP3   OH241992   5.166   5.559   0.699  0.5866 -0.0941  0.0320
 6834TIP3    H141993   5.201   5.629   0.643 -0.9010  0.7871  0.1683
 6834TIP3    H241994   5.141   5.490   0.637 -0.6931  0.7176 -0.3844
 6835TIP3   OH241995   5.329   1.056   3.016  0.2875  0.6153  0.9266
 6835TIP3    H141996   5.282   1.113   3.076  2.6784  0.9450  2.6371
 6835TIP3    H241997   5.264   1.030   2.951 -1.6397  2.7684  1.8653
 6836TIP3   OH241998   1.354   0.172   5.617 -0.0286 -0.0985  0.0811
 6836TIP3    H141999   1.283   0.222   5.576  0.0137 -0.7520 -0.8217
 6836TIP3    H242000   1.360   0.093   5.564  2.0990  0.4217 -0.5207
 6837TIP3   OH242001   3.823   6.135   4.948  0.0730 -0.2268 -0.7391
 6837TIP3    H142002   3.816   6.040   4.940 -0.6009 -0.0499 -2.5835
 6837TIP3    H242003   3.741   6.169   4.913  0.3192  1.0553 -0.1507
 6838TIP3   OH242004   2.472   1.983   6.459  0.0129 -0.5605 -0.0964
 6838TIP3    H142005   2.441   1.896   6.484  1.3994 -1.0246  0.0967
 6838TIP3    H242006   2.423   2.044   6.514 -0.3114 -1.2779  0.4118
 6839TIP3   OH242007   4.656   1.818   5.746  0.5367  0.4462  0.0582
 6839TIP3    H142008   4.711   1.893   5.723 -0.1160  0.9994  0.2700
 6839TIP3    H242009   4.586   1.855   5.800 -0.5591 -0.0893 -0.9542
 6840TIP3   OH242010   0.752   2.249  10.998  0.4947 -0.0196  0.1485
 6840TIP3    H142011   0.823   2.308  11.025 -0.7503  1.6116  0.0167
 6840TIP3    H242012   0.673   2.303  11.002 -1.1821 -2.3892  2.6477
 6841TIP3   OH242013   1.173   4.664   3.424  0.1826 -0.2867  0.3157
 6841TIP3    H142014   1.147   4.629   3.339  2.3364  0.0544 -0.5483
 6841TIP3    H242015   1.191   4.757   3.407  1.3218 -0.3722  0.9626
 6842TIP3   OH242016   1.053   4.190  10.753  0.1677  0.5975 -0.2596
 6842TIP3    H142017   1.118   4.179  10.684 -0.7586 -0.2108 -1.0193
 6842TIP3    H242018   1.062   4.111  10.807 -0.3341  0.3821 -0.4909
 6843TIP3   OH242019   1.798   1.801   5.739  0.1823  0.2617  0.5836
 6843TIP3    H142020   1.793   1.884   5.786 -3.1949 -0.4486  1.7405
 6843TIP3    H242021   1.799   1.735   5.808  1.3067 -0.7410 -0.3513
 6844TIP3   OH242022   2.969   1.771   3.450  0.2985 -0.6050  0.4251
 6844TIP3    H142023   3.032   1.825   3.499  0.2597 -0.6176  0.4883
 6844TIP3    H242024   3.022   1.728   3.383  0.2369 -0.0384  0.0013
 6845TIP3   OH242025   3.544   3.888   5.640  0.4447 -0.4276 -0.7752
 6845TIP3    H142026   3.586   3.844   5.713  0.9156 -1.8460 -1.8588
 6845TIP3    H242027   3.604   3.959   5.617  1.0167 -0.8896 -0.7174
 6846TIP3   OH242028   3.960   2.522   5.077  0.3383  0.5071  0.1947
 6846TIP3    H142029   3.963   2.569   4.993 -0.3395  0.6506  0.2438
 6846TIP3    H242030   4.022   2.569   5.133 -1.0747  2.0153  0.5648
 6847TIP3   OH242031   5.528   6.152  16.150 -0.1301  0.4208  0.3709
 6847TIP3    H142032   5.529   6.075  16.092  2.4269  0.3944  0.3136
 6847TIP3    H242033   5.556   6.118  16.235 -0.1177  1.0849  0.6381
 6848TIP3   OH242034   1.148   3.376   3.624  0.4938 -0.0262 -0.3625
 6848TIP3    H142035   1.222   3.318   3.606  0.2389 -0.4415 -0.0892
 6848TIP3    H242036   1.182   3.464   3.607  1.0744 -0.2070 -0.1557
 6849TIP3   OH242037   1.673   6.373   0.052  0.6476  0.4504  0.1559
 6849TIP3    H142038   1.745   6.378   0.115  0.9482 -0.7366 -0.0774
 6849TIP3    H242039   1.716   6.365  -0.033  0.2451 -0.1551  0.0031
 6850TIP3   OH242040   0.205   2.202  15.009 -0.3737  0.6486  0.4678
 6850TIP3    H142041   0.181   2.295  15.019  0.9606  1.1526 -0.6376
 6850TIP3    H242042   0.251   2.199  14.925  0.4526 -0.8435  0.9526
 6851TIP3   OH242043   0.786   5.168   3.823  0.5168 -0.8391 -0.5863
 6851TIP3    H142044   0.817   5.174   3.913 -1.3431 -1.2556  0.1347
 6851TIP3    H242045   0.741   5.084   3.819 -2.4265  0.6207 -0.8532
 6852TIP3   OH242046   1.639   0.361   1.912  0.8722  0.0850 -0.4613
 6852TIP3    H142047   1.642   0.408   1.995  0.4455 -0.1339 -0.3166
 6852TIP3    H242048   1.729   0.359   1.882  1.2850 -1.1396  0.7383
 6853TIP3   OH242049   6.395   0.143  14.799  0.0917  0.0754  0.0434
 6853TIP3    H142050   6.490   0.134  14.799  0.1337  0.3995  1.2120
 6853TIP3    H242051   6.372   0.166  14.889 -1.3250 -2.3765  0.3949
 6854TIP3   OH242052   5.976   4.124  15.311  0.0043 -0.4447  0.4420
 6854TIP3    H142053   5.952   4.080  15.393 -1.4115 -0.5536 -0.0052
 6854TIP3    H242054   5.923   4.081  15.244  0.0340  0.6368 -0.3067
 6855TIP3   OH242055   2.765   0.903  11.423 -0.0331 -0.1669  0.8677
 6855TIP3    H142056   2.813   0.954  11.489  1.0031 -1.0382  0.8226
 6855TIP3    H242057   2.710   0.967  11.379  1.3968  0.9735  0.6496
 6856TIP3   OH242058   2.027   4.855  16.878  0.0690 -0.4101  0.4619
 6856TIP3    H142059   1.938   4.829  16.900 -0.0397 -0.6089 -0.2119
 6856TIP3    H242060   2.032   4.947  16.906 -0.7667  0.0043 -0.6962
 6857TIP3   OH242061   0.454   4.748  11.685 -0.4212  0.1046  0.0182
 6857TIP3    H142062   0.527   4.788  11.733 -0.1854  2.0682 -1.7977
 6857TIP3    H242063   0.389   4.817  11.678 -1.8164 -1.1453  0.2632
 6858TIP3   OH242064   6.701   0.265   3.714  0.1215 -0.2839  0.2667
 6858TIP3    H142065   6.747   0.229   3.790  0.1287  0.7075  0.7348
 6858TIP3    H242066   6.720   0.203   3.643 -0.8325 -1.8460  1.3232
 6859TIP3   OH242067   3.071   0.704   4.542 -0.7470  0.4024  0.1174
 6859TIP3    H142068   3.108   0.736   4.624  0.4852 -0.3733 -0.1128
 6859TIP3    H242069   3.067   0.609   4.553 -1.7076  0.3880 -0.2699
 6860TIP3   OH242070   6.741   0.511  11.802  0.2224  0.2128  0.2883
 6860TIP3    H142071   6.779   0.473  11.881 -1.0194 -2.2383 -0.1680
 6860TIP3    H242072   6.658   0.549  11.830  1.1453  2.0384  0.6269
 6861TIP3   OH242073   1.992   2.381   0.503 -0.8132  0.0653 -0.2738
 6861TIP3    H142074   1.996   2.457   0.560 -0.9220 -0.4171  0.3980
 6861TIP3    H242075   1.956   2.312   0.559  1.4051 -1.0971 -0.1594
 6862TIP3   OH242076   6.020   1.917  11.258  0.4751  0.3705  0.2410
 6862TIP3    H142077   5.991   1.911  11.167 -1.3158 -0.4882  0.8335
 6862TIP3    H242078   6.080   1.843  11.268  0.4518  0.2927 -0.1569
 6863TIP3   OH242079   0.404   4.145  12.604 -0.8322  0.2194  0.3585
 6863TIP3    H142080   0.393   4.239  12.586  0.3715  0.4022  0.4964
 6863TIP3    H242081   0.478   4.119  12.549  0.8168  0.0564  2.5376
 6864TIP3   OH242082   2.312   5.983  13.889 -0.7892 -0.5855  0.2486
 6864TIP3    H142083   2.291   6.054  13.828  2.7098  0.0970 -0.3487
 6864TIP3    H242084   2.309   6.023  13.976 -2.6196 -0.7644  0.3122
 6865TIP3   OH242085   1.584   0.324   0.958  0.8379  0.0505  0.2237
 6865TIP3    H142086   1.666   0.274   0.950  0.2856 -0.8296 -0.1135
 6865TIP3    H242087   1.515   0.258   0.946  0.0607  0.5515  1.7419
 6866TIP3   OH242088   2.978   4.525   0.242  0.7960  0.6406  0.4658
 6866TIP3    H142089   2.926   4.464   0.295  1.6757  0.6676  1.3863
 6866TIP3    H242090   2.921   4.547   0.167  0.0756 -0.4889  0.6670
 6867TIP3   OH242091   0.205   5.149   2.308  0.1390  0.1161 -0.7514
 6867TIP3    H142092   0.161   5.180   2.387  1.7288  1.1515 -0.2394
 6867TIP3    H242093   0.140   5.092   2.266 -0.6423 -0.6915  1.4197
 6868TIP3   OH242094   6.543   3.844   4.211 -0.4697 -0.0895  0.0389
 6868TIP3    H142095   6.605   3.871   4.278 -2.0982  0.4995  1.3742
 6868TIP3    H242096   6.595   3.844   4.130  1.2045  0.5697  1.0448
 6869TIP3   OH242097   2.053   5.786  16.073  0.4690 -0.0087  0.2767
 6869TIP3    H142098   2.014   5.699  16.084  1.0891 -0.4882 -1.1331
 6869TIP3    H242099   2.146   5.774  16.093  0.7292  0.1122 -0.7933
 6870TIP3   OH242100   5.626   1.757   5.579 -0.0070  0.0285 -0.4568
 6870TIP3    H142101   5.629   1.726   5.489  0.2339 -0.7599 -0.1839
 6870TIP3    H242102   5.707   1.806   5.591 -0.2441  0.5042 -0.7995
 6871TIP3   OH242103   1.957   4.119   2.008 -0.1034  0.1400 -0.7605
 6871TIP3    H142104   2.051   4.103   2.003  0.2046  1.5283  0.0719
 6871TIP3    H242105   1.949   4.209   2.041 -1.7157 -0.8189  1.7732
 6872TIP3   OH242106   5.209   3.581  12.432 -0.3220 -0.0424 -0.1230
 6872TIP3    H142107   5.164   3.543  12.507  1.2851 -1.6879  0.0674
 6872TIP3    H242108   5.138   3.601  12.370 -1.5983  0.6691  1.5049
 6873TIP3   OH242109   5.737   3.459   5.263 -0.1843 -0.3989  0.5877
 6873TIP3    H142110   5.654   3.507   5.268  0.1870  0.1488  2.8500
 6873TIP3    H242111   5.751   3.427   5.353  2.3254  0.0261  0.4076
 6874TIP3   OH242112   1.481   2.151   3.276 -0.4487 -0.9619 -0.7807
 6874TIP3    H142113   1.488   2.151   3.181 -0.3671 -0.7436 -0.7743
 6874TIP3    H242114   1.401   2.199   3.295 -0.4851 -1.0373 -0.7385
 6875TIP3   OH242115   4.868   3.849  12.645 -1.1672  1.0377 -0.3157
 6875TIP3    H142116   4.826   3.775  12.602  3.8345 -1.8136 -0.9246
 6875TIP3    H242117   4.888   3.910  12.574 -1.3257  0.8605 -0.5126
 6876TIP3   OH242118   6.596   5.350  15.500 -0.8095 -0.2856  0.2981
 6876TIP3    H142119   6.586   5.365  15.407 -0.6843 -0.6530  0.2227
 6876TIP3    H242120   6.630   5.260  15.507 -0.9751 -0.3232  0.6997
 6877TIP3   OH242121   3.780   3.010  12.414  0.5356 -0.5822 -0.2628
 6877TIP3    H142122   3.759   2.923  12.379 -2.6177  1.1342 -3.1724
 6877TIP3    H242123   3.847   3.044  12.355 -1.2108  0.4391 -1.7292
 6878TIP3   OH242124   3.114   5.007   6.689 -0.4988  0.5908  0.0341
 6878TIP3    H142125   3.019   5.004   6.683 -0.7067 -0.3262  2.6099
 6878TIP3    H242126   3.140   5.080   6.631 -2.7162  0.7661 -0.8125
 6879TIP3   OH242127   5.755   1.732   6.591  0.2138  0.4521  0.1902
 6879TIP3    H142128   5.680   1.784   6.561 -0.1640 -0.4254 -0.4325
 6879TIP3    H242129   5.822   1.797   6.615 -0.8712  1.2567  1.1311
 6880TIP3   OH242130   1.740   0.965  12.637  1.2280  0.6679  0.2323
 6880TIP3    H142131   1.768   1.055  12.655 -2.5831  2.3171 -1.0954
 6880TIP3    H242132   1.668   0.974  12.575  0.6290 -3.3727  0.0558
 6881TIP3   OH242133   6.228   4.627   2.873 -0.5131 -0.3409 -0.1984
 6881TIP3    H142134   6.175   4.707   2.874 -0.6835 -0.4545  0.2368
 6881TIP3    H242135   6.276   4.630   2.790  0.3956  0.8149  0.3441
 6882TIP3   OH242136   0.794   6.630  15.126 -0.7381  0.6485  0.4975
 6882TIP3    H142137   0.719   6.682  15.097 -0.4337  0.8400  0.0448
 6882TIP3    H242138   0.811   6.571  15.053 -0.9168  0.0830  0.9034
 6883TIP3   OH242139   4.450   0.726   5.313  0.0392 -0.5651  0.4086
 6883TIP3    H142140   4.468   0.731   5.407  1.5563  2.2397  0.0638
 6883TIP3    H242141   4.444   0.817   5.284  0.6700 -1.3092 -2.3927
 6884TIP3   OH242142   5.201   0.034  15.914  0.6976  0.0660  0.4392
 6884TIP3    H142143   5.169  -0.048  15.876 -1.0308 -0.3858  2.6357
 6884TIP3    H242144   5.193   0.021  16.009  1.7128  2.2772  0.8912
 6885TIP3   OH242145   5.364   0.696   0.871  0.4306 -0.1668 -0.1181
 6885TIP3    H142146   5.423   0.751   0.922  0.0272  0.6546 -0.5228
 6885TIP3    H242147   5.335   0.628   0.933  0.8171  0.1551  0.4244
 6886TIP3   OH242148   1.483   3.090  13.803  0.1103  0.4352  1.2274
 6886TIP3    H142149   1.549   3.021  13.801  0.3655  0.5770  2.9024
 6886TIP3    H242150   1.534   3.170  13.817  0.0036  1.3216 -2.4901
 6887TIP3   OH242151   5.593   0.426  15.635 -0.5047 -0.1989 -0.2276
 6887TIP3    H142152   5.584   0.455  15.544 -2.3553  0.0435 -0.0120
 6887TIP3    H242153   5.687   0.428  15.651 -0.1868  0.5149 -1.8882
 6888TIP3   OH242154   4.858   0.896  16.876  0.0976 -0.0765  0.5530
 6888TIP3    H142155   4.795   0.845  16.826 -0.4271 -0.0513  1.1746
 6888TIP3    H242156   4.891   0.836  16.943  1.4989 -0.3939 -0.3745
 6889TIP3   OH242157   2.876   0.798   4.095 -0.0113 -0.1419  0.3653
 6889TIP3    H142158   2.967   0.824   4.110  0.3929 -1.2981  0.0696
 6889TIP3    H242159   2.870   0.789   3.999 -0.4376 -0.0797  0.3847
 6890TIP3   OH242160   4.814   6.264   5.564 -0.1819  0.2537 -0.7735
 6890TIP3    H142161   4.831   6.358   5.563  0.4715  0.1640  0.2506
 6890TIP3    H242162   4.890   6.225   5.521  1.3437 -0.0005  1.9031
 6891TIP3   OH242163   5.931   6.616   3.538  0.1529  0.0791  0.1686
 6891TIP3    H142164   5.864   6.568   3.586  0.4536 -0.5008  0.0213
 6891TIP3    H242165   5.896   6.704   3.528  0.2110  0.2884  1.6952
 6892TIP3   OH242166   5.861   3.846  13.567 -0.7661 -0.0073  0.3946
 6892TIP3    H142167   5.871   3.794  13.487  1.3686  0.2929  0.4034
 6892TIP3    H242168   5.845   3.935  13.536 -0.7134 -0.0264  0.3122
 6893TIP3   OH242169   0.224   2.782  12.997  0.4449 -0.0008 -0.1972
 6893TIP3    H142170   0.294   2.780  13.061 -1.2419 -3.7123  1.8609
 6893TIP3    H242171   0.163   2.848  13.030  0.9242  0.1223  0.4575
 6894TIP3   OH242172   3.942   1.017  15.112 -0.2475 -0.4669 -0.9237
 6894TIP3    H142173   3.963   0.945  15.052 -0.1633 -0.3786 -0.9999
 6894TIP3    H242174   4.027   1.057  15.132 -0.3656  0.1080 -1.5063
 6895TIP3   OH242175   1.733   1.917  13.654  0.4976  0.3190  0.0545
 6895TIP3    H142176   1.764   1.857  13.722  0.0316  0.9930  0.8823
 6895TIP3    H242177   1.639   1.900  13.649  0.8945 -1.7799 -2.5014
 6896TIP3   OH242178   1.899   5.959  11.174 -0.0712  0.2441  0.6031
 6896TIP3    H142179   1.898   5.886  11.111 -1.2897  0.0005  0.8749
 6896TIP3    H242180   1.979   5.946  11.224  0.3148 -0.2415 -0.1195
 6897TIP3   OH242181   3.250   2.018  15.738  0.4865  0.1047  0.1031
 6897TIP3    H142182   3.330   1.983  15.778 -0.0552  0.0707  1.1969
 6897TIP3    H242183   3.183   1.954  15.760  0.1991  0.0000 -1.0355
 6898TIP3   OH242184   3.193   2.922  11.837 -0.3657  0.4445 -0.0249
 6898TIP3    H142185   3.114   2.949  11.790 -0.9866  1.9366  1.7599
 6898TIP3    H242186   3.244   3.003  11.845  0.5302 -0.1443  0.3482
 6899TIP3   OH242187   0.277   5.765   1.946 -0.6715 -0.0986 -0.1391
 6899TIP3    H142188   0.324   5.699   1.896  0.0292  1.3130 -1.4342
 6899TIP3    H242189   0.314   5.759   2.034  1.2598  0.2712 -0.8746
 6900TIP3   OH242190   1.897   3.612   0.461 -0.5051  0.2215  0.6343
 6900TIP3    H142191   1.949   3.667   0.403 -0.9276 -1.2536 -1.2502
 6900TIP3    H242192   1.838   3.672   0.506 -0.0388  1.4369 -0.3307
 6901TIP3   OH242193   3.033   3.952  15.028 -0.3916  0.0744  0.1808
 6901TIP3    H142194   3.056   3.868  15.069  2.1281  0.3227 -0.5367
 6901TIP3    H242195   3.037   3.935  14.934 -5.2650 -0.2676 -0.2288
 6902TIP3   OH242196   3.994   2.217  17.016  0.1411  0.5828  0.2172
 6902TIP3    H142197   3.899   2.211  17.023 -0.0233  1.6542 -0.7825
 6902TIP3    H242198   4.021   2.128  16.994 -0.4714 -0.0252  1.7707
 6903TIP3   OH242199   2.649   3.730  13.719 -0.0700 -0.1563 -0.0704
 6903TIP3    H142200   2.680   3.819  13.739  0.9475  0.1666 -2.6493
 6903TIP3    H242201   2.607   3.738  13.634  0.0277 -2.1688 -0.3505
 6904TIP3   OH242202   0.392   1.928   3.102  0.0856 -0.1988  0.0857
 6904TIP3    H142203   0.403   2.021   3.082 -0.7567 -0.2150 -0.5160
 6904TIP3    H242204   0.299   1.911   3.085  0.7420 -1.7533 -2.4282
 6905TIP3   OH242205   1.855   6.243  10.953 -0.2125  0.6852 -0.1490
 6905TIP3    H142206   1.771   6.209  10.921 -0.0744 -0.5115  0.6783
 6905TIP3    H242207   1.905   6.261  10.873 -0.5772 -0.3718 -0.6345
 6906TIP3   OH242208   6.711   5.822  13.749 -0.4458 -0.2752  0.3342
 6906TIP3    H142209   6.782   5.758  13.757  0.3399  0.4501 -0.4684
 6906TIP3    H242210   6.743   5.898  13.798 -1.7473 -0.7640  2.0177
 6907TIP3   OH242211   4.028   5.968  12.801  0.6510 -0.4196  0.1355
 6907TIP3    H142212   4.016   6.053  12.760 -2.9608 -0.9036 -0.1355
 6907TIP3    H242213   4.059   5.988  12.890  0.8918  1.0843 -0.2577
 6908TIP3   OH242214   4.873   1.910  11.130  0.1899  0.6548  0.1289
 6908TIP3    H142215   4.894   1.998  11.101 -1.7939  1.1767  0.1095
 6908TIP3    H242216   4.841   1.865  11.052  2.8263 -0.7130 -0.2693
 6909TIP3   OH242217   0.609   6.709   5.554  0.6068  0.1726  0.3784
 6909TIP3    H142218   0.587   6.737   5.465  0.8772  0.8328  0.5197
 6909TIP3    H242219   0.621   6.790   5.603  0.3751 -0.1910  1.0416
 6910TIP3   OH242220   3.533   4.857  10.992  0.5607 -0.1368  0.0477
 6910TIP3    H142221   3.459   4.826  10.941  0.4756 -2.7388  1.5591
 6910TIP3    H242222   3.609   4.845  10.934  0.2253 -1.0478 -0.2233
 6911TIP3   OH242223   0.728   6.587   1.809  0.1522 -0.3567  0.6673
 6911TIP3    H142224   0.637   6.561   1.792  0.6543 -2.4857  0.9862
 6911TIP3    H242225   0.727   6.621   1.898 -0.4307  0.2533  0.4398
 6912TIP3   OH242226   3.943   0.105  12.269 -0.2897 -0.3532 -0.6303
 6912TIP3    H142227   4.002   0.164  12.317 -0.4304  2.0959 -3.1869
 6912TIP3    H242228   3.998   0.066  12.201 -0.9434 -0.4627 -1.1071
 6913TIP3   OH242229   2.596   4.303   5.300 -0.2784  0.6139  0.9291
 6913TIP3    H142230   2.551   4.332   5.379  0.3552  0.8757  1.1987
 6913TIP3    H242231   2.574   4.211   5.292 -0.4176  0.6101  1.3600
 6914TIP3   OH242232   2.918   5.431   5.054  0.5368  0.0566  0.0419
 6914TIP3    H142233   2.845   5.493   5.047 -1.2548 -1.8219  1.0653
 6914TIP3    H242234   2.891   5.370   5.123  3.2573 -0.5139  0.6972
 6915TIP3   OH242235   1.901   1.569  12.502 -0.1743  0.5783  0.5702
 6915TIP3    H142236   1.996   1.562  12.508 -0.2459  0.1383  1.2298
 6915TIP3    H242237   1.873   1.489  12.458 -0.3773 -0.0915  1.8757
 6916TIP3   OH242238   4.264   0.988  13.840 -0.4280  0.0667  0.1680
 6916TIP3    H142239   4.336   1.027  13.791  0.0555  0.1678  0.9358
 6916TIP3    H242240   4.190   1.047  13.824 -0.1945  0.2725 -0.1732
 6917TIP3   OH242241   6.310   3.790  15.069 -0.3137 -0.7319  0.1742
 6917TIP3    H142242   6.357   3.872  15.080  0.3690 -0.7295 -2.2442
 6917TIP3    H242243   6.330   3.740  15.148  0.2487  0.9272  1.1283
 6918TIP3   OH242244   1.129   1.505  13.153 -0.5168  0.2229 -0.1548
 6918TIP3    H142245   1.106   1.541  13.067  0.6996  1.5871  0.0408
 6918TIP3    H242246   1.181   1.427  13.133 -3.5652 -1.8757 -0.5906
 6919TIP3   OH242247   1.495   5.349  15.802 -0.2303 -0.7737  0.2248
 6919TIP3    H142248   1.414   5.397  15.786 -0.1589 -0.3873  0.9762
 6919TIP3    H242249   1.543   5.403  15.864  1.0827 -0.4943 -0.9902
 6920TIP3   OH242250   0.165   1.956  15.124  0.2033 -0.1027 -0.1581
 6920TIP3    H142251   0.157   2.037  15.074  0.2464  1.7556  2.6408
 6920TIP3    H242252   0.258   1.933  15.119  0.3912  0.6398 -0.0775
 6921TIP3   OH242253   4.273   3.404   2.386  0.0717  0.2366 -0.2000
 6921TIP3    H142254   4.295   3.381   2.295 -0.3771  0.5927 -0.4055
 6921TIP3    H242255   4.192   3.357   2.404 -0.0963  0.5423 -0.1478
 6922TIP3   OH242256   1.570   3.485  12.596 -0.6047 -0.0829 -0.0725
 6922TIP3    H142257   1.571   3.457  12.687  1.7695  4.0464  1.4143
 6922TIP3    H242258   1.490   3.537  12.587  1.4980  3.7977  1.4340
 6923TIP3   OH242259   6.302   3.132   4.745 -0.0643  0.4054  0.0745
 6923TIP3    H142260   6.348   3.062   4.790  2.4733  1.4875 -0.6651
 6923TIP3    H242261   6.290   3.200   4.811  0.9985  0.7952 -0.1057
 6924TIP3   OH242262   3.381   3.260   3.446 -0.2965 -0.0669 -0.8144
 6924TIP3    H142263   3.414   3.281   3.359 -0.8443 -0.4019 -1.1098
 6924TIP3    H242264   3.289   3.288   3.444 -0.2832  0.0166 -0.3147
 6925TIP3   OH242265   2.424   5.100   6.457  0.1032 -0.2737  0.2123
 6925TIP3    H142266   2.378   5.135   6.381  0.0403 -0.6928  0.0547
 6925TIP3    H242267   2.381   5.016   6.474 -0.2407  0.0527  1.0357
 6926TIP3   OH242268   2.775   0.806  12.926 -1.0375  0.8330  0.0065
 6926TIP3    H142269   2.684   0.819  12.902 -0.8639  0.5210 -0.8473
 6926TIP3    H242270   2.812   0.756  12.854  0.3020  2.6450 -0.6415
 6927TIP3   OH242271   1.385   5.661   2.984  0.5829 -0.1127  0.0761
 6927TIP3    H142272   1.476   5.657   3.012  0.3804 -1.2335  0.6403
 6927TIP3    H242273   1.385   5.621   2.897  0.8322  1.1470 -0.5175
 6928TIP3   OH242274   0.092   0.319  14.659  0.4599 -0.0708  0.5092
 6928TIP3    H142275   0.102   0.394  14.717 -0.4295 -0.4649  1.1930
 6928TIP3    H242276   0.182   0.292  14.640  0.7696  0.2642  1.4466
 6929TIP3   OH242277   1.806   0.043  14.222  0.3011 -0.1602 -0.3656
 6929TIP3    H142278   1.896   0.041  14.254  0.5440 -0.0040 -1.0336
 6929TIP3    H242279   1.811   0.089  14.138 -0.6297  1.3523  0.3621
 6930TIP3   OH242280   6.487   5.184  14.184 -0.3783 -0.0556 -0.0014
 6930TIP3    H142281   6.542   5.260  14.203 -0.6314  0.0737  0.2098
 6930TIP3    H242282   6.535   5.137  14.116 -0.9267  1.0667 -1.2150
 6931TIP3   OH242283   2.594   5.150   6.690  0.5295  0.2006  0.2231
 6931TIP3    H142284   2.541   5.158   6.611  1.0548  0.5493 -0.0893
 6931TIP3    H242285   2.591   5.056   6.710 -0.7575  0.2900  0.5927
 6932TIP3   OH242286   2.952   3.557  12.125 -0.3997 -0.1409 -0.3023
 6932TIP3    H142287   2.863   3.524  12.132  0.2854 -1.9225  0.4542
 6932TIP3    H242288   2.950   3.642  12.169 -1.8869  0.2385 -1.0395
 6933TIP3   OH242289   5.308   6.609  11.758  0.2726  0.5085 -0.0595
 6933TIP3    H142290   5.313   6.700  11.727 -0.4661  1.0758  1.3769
 6933TIP3    H242291   5.350   6.611  11.844  1.0609 -0.7251 -0.3938
 6934TIP3   OH242292   5.208   0.406   1.308  0.5969  0.1349 -0.3707
 6934TIP3    H142293   5.219   0.369   1.220  0.1230 -1.2603  0.1241
 6934TIP3    H242294   5.119   0.442   1.307  0.1316 -0.9655 -0.1110
 6935TIP3   OH242295   2.765   3.319  14.096 -0.4883  0.0385  0.0941
 6935TIP3    H142296   2.848   3.366  14.084 -0.0585 -0.3289  1.4151
 6935TIP3    H242297   2.716   3.373  14.159  0.7701 -2.0637  3.1166
 6936TIP3   OH242298   6.664   5.118   5.676 -0.6584 -0.4854 -0.5359
 6936TIP3    H142299   6.717   5.192   5.646 -2.6339  0.8020 -1.1181
 6936TIP3    H242300   6.661   5.059   5.601 -1.3090  0.2136 -1.0856
 6937TIP3   OH242301   1.155   6.070   4.890  0.1327  0.1352  0.1689
 6937TIP3    H142302   1.177   6.005   4.823  0.1935  2.8271 -2.6768
 6937TIP3    H242303   1.062   6.055   4.908  0.4170 -1.4109  0.4584
 6938TIP3   OH242304   2.349   3.466   1.357 -0.1608 -0.1289  0.3392
 6938TIP3    H142305   2.279   3.530   1.360  0.0607  0.0749  1.8827
 6938TIP3    H242306   2.392   3.482   1.273 -0.8628  0.9188  0.1598
 6939TIP3   OH242307   0.893   1.194   3.831  0.4440 -0.7498  0.6294
 6939TIP3    H142308   0.974   1.241   3.853  1.5448 -1.7133 -1.1014
 6939TIP3    H242309   0.916   1.142   3.754 -2.2546  0.1095 -0.8883
 6940TIP3   OH242310   1.566   6.304  14.238  0.1317  0.1586 -0.1851
 6940TIP3    H142311   1.518   6.352  14.306 -0.0065 -0.9582  0.5199
 6940TIP3    H242312   1.653   6.344  14.239  0.2936 -0.1692  1.0175
 6941TIP3   OH242313   6.124   6.214  15.912  0.3603 -0.2191  0.2826
 6941TIP3    H142314   6.159   6.175  15.992  1.4014 -1.0723 -0.5507
 6941TIP3    H242315   6.200   6.254  15.869 -0.2219  0.4243 -0.1757
 6942TIP3   OH242316   3.848   6.562   5.858  0.1969  0.4061 -0.0604
 6942TIP3    H142317   3.925   6.528   5.811  1.4790  0.0890  2.1300
 6942TIP3    H242318   3.799   6.483   5.883 -0.8175  0.6023 -1.3168
 6943TIP3   OH242319   2.280   5.925   4.351  0.5527 -0.1421 -0.0997
 6943TIP3    H142320   2.335   5.952   4.277 -1.4310 -1.5304 -2.2015
 6943TIP3    H242321   2.192   5.953   4.327 -0.1919 -0.7821  1.6935
 6944TIP3   OH242322   0.664   6.455  13.530 -0.2168 -0.1499 -0.0416
 6944TIP3    H142323   0.609   6.426  13.602 -1.9674 -1.5803 -1.8244
 6944TIP3    H242324   0.724   6.382  13.515  0.3091  0.2442  0.1263
 6945TIP3   OH242325   1.482   0.164   4.105 -0.6709 -0.1025 -0.2490
 6945TIP3    H142326   1.415   0.220   4.066  0.2219  1.6216  0.6178
 6945TIP3    H242327   1.434   0.085   4.132 -2.4385  1.2102  0.6386
 6946TIP3   OH242328   1.135   6.325   4.806 -0.2155 -0.2050 -0.1815
 6946TIP3    H142329   1.152   6.232   4.820 -1.9084 -0.7788 -1.5178
 6946TIP3    H242330   1.074   6.348   4.876  0.9195  0.1768  0.7131
 6947TIP3   OH242331   2.715   4.693  13.610  0.5227 -0.4544  0.1669
 6947TIP3    H142332   2.775   4.723  13.541 -0.0290 -2.1232 -1.0834
 6947TIP3    H242333   2.734   4.600  13.620  0.1266 -0.3845  1.8318
 6948TIP3   OH242334   6.746   5.729   3.507 -0.3918  0.0852 -0.1939
 6948TIP3    H142335   6.688   5.656   3.483  0.0303  0.2813 -1.9385
 6948TIP3    H242336   6.819   5.723   3.444  0.8137  0.6434  1.1039
 6949TIP3   OH242337   5.827   4.080   2.265  0.2483 -0.7578  0.2526
 6949TIP3    H142338   5.807   3.991   2.239 -1.2757 -0.4714  0.3308
 6949TIP3    H242339   5.815   4.081   2.360  1.8300 -0.8285  0.4832
 6950TIP3   OH242340   0.591   0.659  14.812 -0.1034  0.1765  0.4447
 6950TIP3    H142341   0.605   0.593  14.881  1.0440 -0.1138 -0.0306
 6950TIP3    H242342   0.576   0.740  14.860  0.2624 -0.1037  1.0565
 6951TIP3   OH242343   4.402   2.746   3.078  0.2640  0.0244  0.1384
 6951TIP3    H142344   4.480   2.718   3.127 -1.7700 -1.9492  2.5430
 6951TIP3    H242345   4.388   2.676   3.014  0.7814  0.7021 -0.7342
 6952TIP3   OH242346   4.584   2.277  11.174  0.0595 -0.2469 -0.0821
 6952TIP3    H142347   4.517   2.322  11.121  1.3207  1.2795 -0.4591
 6952TIP3    H242348   4.622   2.212  11.114 -1.7280 -1.8616  0.4429
 6953TIP3   OH242349   1.197   3.218  15.425 -0.2633 -0.3786 -0.2331
 6953TIP3    H142350   1.222   3.175  15.507  0.1356  1.4427  0.6663
 6953TIP3    H242351   1.280   3.252  15.391 -0.6494  0.2847 -0.5274
 6954TIP3   OH242352   1.307   4.747   5.239 -0.1678  0.0595  0.4382
 6954TIP3    H142353   1.291   4.658   5.268 -2.2431 -0.2133 -1.3463
 6954TIP3    H242354   1.246   4.801   5.290  0.2463  0.3144  0.6706
 6955TIP3   OH242355   4.018   0.942  13.270  0.0803 -0.2352  0.5540
 6955TIP3    H142356   4.015   0.973  13.360 -0.3160 -0.1228  0.5037
 6955TIP3    H242357   4.111   0.928  13.253  0.3236  1.2686  0.4719
 6956TIP3   OH242358   0.593   4.791  13.498 -0.6150  0.7381  0.1820
 6956TIP3    H142359   0.686   4.805  13.481 -0.5958 -0.0750 -0.4613
 6956TIP3    H242360   0.589   4.703  13.536 -1.2305  0.2360 -1.0011
 6957TIP3   OH242361   6.458   1.773  15.953 -0.1021  0.5916 -0.0702
 6957TIP3    H142362   6.516   1.845  15.977  0.9086 -0.3752  0.4603
 6957TIP3    H242363   6.482   1.752  15.863 -0.6119  1.0954 -0.3351
 6958TIP3   OH242364   6.352   2.399  15.721 -0.7954 -0.2877 -0.0963
 6958TIP3    H142365   6.314   2.477  15.763 -0.8645 -0.7910  0.7886
 6958TIP3    H242366   6.325   2.326  15.776 -0.7586 -0.9568 -0.9405
 6959TIP3   OH242367   1.058   3.714   3.167  0.2358 -0.4033 -0.2367
 6959TIP3    H142368   1.051   3.809   3.164 -0.3144 -0.4677 -2.0612
 6959TIP3    H242369   0.981   3.682   3.120  1.3955 -1.6859 -1.3829
 6960TIP3   OH242370   6.818   4.061  12.763  0.5309  0.0230 -0.3163
 6960TIP3    H142371   6.772   4.027  12.840 -1.5700  0.7921 -1.1493
 6960TIP3    H242372   6.861   4.140  12.795 -0.5810  0.5124  0.0557
 6961TIP3   OH242373   2.357   2.544  11.306 -0.2922  0.0701 -0.1838
 6961TIP3    H142374   2.335   2.465  11.256  0.4313 -0.6901  0.6656
 6961TIP3    H242375   2.281   2.601  11.295 -1.0227 -0.9273 -0.4456
 6962TIP3   OH242376   1.533   6.604  16.560  0.2081 -0.1484  0.1278
 6962TIP3    H142377   1.479   6.607  16.481 -0.3236 -0.0576  0.4888
 6962TIP3    H242378   1.521   6.516  16.594 -2.4400  0.8170  2.0520
 6963TIP3   OH242379   5.430   4.947   4.740 -0.0661 -0.3461  0.0775
 6963TIP3    H142380   5.513   4.993   4.728 -0.0143 -0.2970  0.5935
 6963TIP3    H242381   5.403   4.922   4.651  0.1255  0.2881 -0.1613
 6964TIP3   OH242382   1.383   1.627  15.954  0.4661 -0.2381  0.0834
 6964TIP3    H142383   1.326   1.618  15.878  0.3934  1.0862 -0.0412
 6964TIP3    H242384   1.435   1.547  15.954 -1.4688 -1.5638  0.3014
 6965TIP3   OH242385   1.451   3.618  10.554 -0.4126  0.3112  0.2032
 6965TIP3    H142386   1.442   3.712  10.565 -1.8849  0.6578 -2.7784
 6965TIP3    H242387   1.365   3.582  10.574 -0.7715  0.0502 -1.5847
 6966TIP3   OH242388   0.088   2.403   1.201  0.4394  0.2574  0.5675
 6966TIP3    H142389   0.058   2.320   1.239  0.8800 -0.3463 -0.3506
 6966TIP3    H242390   0.037   2.411   1.120 -0.3955  1.4528  1.1905
 6967TIP3   OH242391   0.019   3.619   0.362 -0.1793 -0.1643  0.6083
 6967TIP3    H142392   0.080   3.545   0.369  0.5712  0.3426 -0.3221
 6967TIP3    H242393  -0.042   3.594   0.293 -0.4886 -0.3010  0.9314
 6968TIP3   OH242394   3.604   4.895  14.628 -0.3851  0.1015 -0.3456
 6968TIP3    H142395   3.680   4.953  14.640  1.3394 -2.3786  1.9927
 6968TIP3    H242396   3.637   4.822  14.576 -1.3788 -0.6730  0.0764
 6969TIP3   OH242397   3.848   2.566   0.642 -0.4061  0.0463 -0.3098
 6969TIP3    H142398   3.816   2.651   0.673 -2.4940 -0.6927 -0.2444
 6969TIP3    H242399   3.828   2.506   0.714  1.8172 -0.4040  0.0001
 6970TIP3   OH242400   4.742   6.701  11.986 -0.3503  0.2860 -0.5605
 6970TIP3    H142401   4.821   6.754  11.992 -1.2526  1.5542  0.7268
 6970TIP3    H242402   4.758   6.626  12.043  0.9359 -0.9086 -2.3961
 6971TIP3   OH242403   4.929   6.185   6.278 -0.1202  0.6570 -0.3007
 6971TIP3    H142404   4.978   6.169   6.358 -0.8996  1.0511  0.2601
 6971TIP3    H242405   4.840   6.155   6.296 -0.3107  0.7582 -1.0101
 6972TIP3   OH242406   5.856   3.361  13.289 -0.0130  0.2218  0.6545
 6972TIP3    H142407   5.859   3.312  13.207  1.8107 -0.7248  1.2149
 6972TIP3    H242408   5.765   3.353  13.318 -0.6126  0.3040 -1.0875
 6973TIP3   OH242409   0.413   0.622  13.683  0.3748  0.3139 -0.2559
 6973TIP3    H142410   0.489   0.597  13.735 -1.4135 -1.4308  1.6889
 6973TIP3    H242411   0.380   0.701  13.725  1.6448  1.7439 -1.7837
 6974TIP3   OH242412   5.547   3.976  13.477 -0.8576  0.4212  0.6352
 6974TIP3    H142413   5.621   4.034  13.457  0.1602 -0.7443  0.8875
 6974TIP3    H242414   5.483   4.033  13.519  0.4337  1.2320  1.5863
 6975TIP3   OH242415   1.917   1.932   2.182  0.2778  0.1380  0.3727
 6975TIP3    H142416   1.983   1.887   2.129  1.4322 -1.5359  3.0224
 6975TIP3    H242417   1.838   1.877   2.174 -0.2860  1.1206 -1.2983
 6976TIP3   OH242418   4.627   4.581  12.302 -0.2911 -0.5453 -0.0231
 6976TIP3    H142419   4.714   4.620  12.307 -0.2405 -0.5978 -0.4918
 6976TIP3    H242420   4.568   4.656  12.298 -0.2845 -0.5074  0.4961
 6977TIP3   OH242421   2.081   5.447   1.282 -0.6619 -0.7703 -0.3667
 6977TIP3    H142422   2.099   5.511   1.213 -0.4238  0.2087  0.5729
 6977TIP3    H242423   2.012   5.391   1.246 -0.6721 -0.1697 -1.3207
 6978TIP3   OH242424   6.723   5.157   0.207 -0.0905 -0.1190  0.5272
 6978TIP3    H142425   6.806   5.116   0.183 -0.3350 -0.3442  0.0473
 6978TIP3    H242426   6.657   5.093   0.180 -0.4071 -0.0381  1.1130
 6979TIP3   OH242427   3.114   1.371  11.617  0.4391 -0.4815 -0.6808
 6979TIP3    H142428   3.183   1.358  11.552  1.5883 -1.3848  0.6450
 6979TIP3    H242429   3.157   1.352  11.701 -1.7845 -2.5823  0.0914
 6980TIP3   OH242430   6.638   4.310  14.148  0.1003  0.5034 -0.5922
 6980TIP3    H142431   6.700   4.342  14.214  0.0487 -0.1029 -0.2490
 6980TIP3    H242432   6.577   4.254  14.196  1.7059 -2.2429 -1.5430
 6981TIP3   OH242433   1.505   4.133  11.769  0.3518  1.0822 -0.3284
 6981TIP3    H142434   1.546   4.215  11.741 -0.4428  1.0636 -1.6582
 6981TIP3    H242435   1.444   4.112  11.698 -0.0333 -0.2482  0.3695
 6982TIP3   OH242436   1.433   3.831  15.353 -0.0582 -0.1730  0.3863
 6982TIP3    H142437   1.441   3.886  15.431  0.1553 -0.6293  0.6882
 6982TIP3    H242438   1.523   3.809  15.329 -0.0684  0.6360 -0.4842
 6983TIP3   OH242439   5.723   6.311   5.938 -0.2738  0.2460 -0.1173
 6983TIP3    H142440   5.674   6.335   6.016  1.5411  1.2085  0.7841
 6983TIP3    H242441   5.787   6.381   5.928 -1.0592  0.6869 -3.0634
 6984TIP3   OH242442   1.110   5.409   2.080  0.2072  0.1891  0.1151
 6984TIP3    H142443   1.110   5.504   2.090 -0.6589  0.8054 -4.0011
 6984TIP3    H242444   1.018   5.384   2.086  0.4440 -0.4683  1.3188
 6985TIP3   OH242445   5.963   3.663  13.035 -0.5450  0.0961 -0.6072
 6985TIP3    H142446   5.896   3.728  13.052  0.4475  0.9922  0.0204
 6985TIP3    H242447   6.031   3.681  13.101 -0.0339 -1.2576 -0.7398
 6986TIP3   OH242448   6.148   5.283   4.696  0.2580 -0.1768  0.0899
 6986TIP3    H142449   6.053   5.295   4.700  0.1747 -0.1977 -1.3502
 6986TIP3    H242450   6.178   5.299   4.786 -1.1671 -0.8296  0.7067
 6987TIP3   OH242451   5.226   0.738  16.566 -0.4591 -0.2747 -0.1553
 6987TIP3    H142452   5.136   0.746  16.535 -0.2255 -1.1723 -1.1155
 6987TIP3    H242453   5.230   0.795  16.643 -2.1711 -1.0923  0.6035
 6988TIP3   OH242454   0.598   2.122   6.394 -0.1830 -0.0153  0.2438
 6988TIP3    H142455   0.572   2.042   6.438 -0.8897  0.2793  0.3780
 6988TIP3    H242456   0.603   2.098   6.301  1.9412 -0.7979  0.4962
 6989TIP3   OH242457   2.680   4.859  10.923 -0.4175  0.6989  0.6058
 6989TIP3    H142458   2.686   4.950  10.894  0.4667  0.2821 -0.5785
 6989TIP3    H242459   2.713   4.860  11.013 -0.7566  1.5892  0.7311
 6990TIP3   OH242460   6.049   3.233   2.641  0.5209  0.1671 -0.0988
 6990TIP3    H142461   5.957   3.245   2.619  0.6533  1.6808  0.0572
 6990TIP3    H242462   6.075   3.315   2.684  1.4389 -0.9689  1.6491
 6991TIP3   OH242463   5.998   3.762   3.539 -0.1895  0.2578 -0.0471
 6991TIP3    H142464   5.927   3.771   3.476  1.7560  0.1546 -2.4203
 6991TIP3    H242465   6.035   3.675   3.521  2.3797  1.4453 -1.0949
 6992TIP3   OH242466   1.236   1.739   3.826 -0.4580  0.1700 -0.4898
 6992TIP3    H142467   1.193   1.825   3.822 -0.5290  0.2746  1.4901
 6992TIP3    H242468   1.318   1.751   3.779  0.4222  1.9289  1.3625
 6993TIP3   OH242469   6.125   6.692  11.755 -0.7425 -0.2348  0.2559
 6993TIP3    H142470   6.121   6.599  11.734  0.4058  0.1164 -1.8203
 6993TIP3    H242471   6.188   6.728  11.692  0.1266  1.6669  2.0872
 6994TIP3   OH242472   3.020   2.631   5.118 -0.5405  0.1422  0.2878
 6994TIP3    H142473   3.050   2.545   5.089 -0.7600  0.0702  0.2683
 6994TIP3    H242474   3.097   2.671   5.157 -0.8948 -0.8602  2.1596
 6995TIP3   OH242475   6.412   1.903  12.623  0.8716 -0.5353  0.7152
 6995TIP3    H142476   6.362   1.885  12.544 -0.5109  1.0808  1.1726
 6995TIP3    H242477   6.484   1.840  12.621 -0.8109 -2.5307 -0.2907
 6996TIP3   OH242478   5.257   4.917  16.817 -0.9891  0.4898 -0.3784
 6996TIP3    H142479   5.249   5.011  16.799 -0.6455  0.7301  0.6527
 6996TIP3    H242480   5.198   4.876  16.754 -1.5334  1.4254 -0.5107
 6997TIP3   OH242481   3.026   1.067  12.532  0.4131 -0.4200 -0.6659
 6997TIP3    H142482   2.956   1.009  12.503  0.7282 -2.3379  2.0409
 6997TIP3    H242483   2.983   1.151  12.546 -0.8893 -0.9839 -1.0958
 6998TIP3   OH242484   4.143   2.151  12.192 -0.1675  0.4956 -0.0787
 6998TIP3    H142485   4.123   2.078  12.133 -1.1591  1.2768 -0.7554
 6998TIP3    H242486   4.112   2.121  12.278 -1.0250  0.2936 -0.4450
 6999TIP3   OH242487   5.535   2.722   2.592  0.4015  0.4041  0.2913
 6999TIP3    H142488   5.625   2.755   2.602  0.6870 -0.8526  2.8165
 6999TIP3    H242489   5.545   2.639   2.546  0.6982 -0.1522  1.3075
 7000TIP3   OH242490   1.517   5.587  16.318 -0.2195 -0.0902 -0.4429
 7000TIP3    H142491   1.587   5.638  16.277  0.3501  0.1147  0.7458
 7000TIP3    H242492   1.444   5.649  16.326  0.4566  0.5799  0.9629
 7001TIP3   OH242493   2.167   1.588   0.463  0.1092  0.0112  0.1465
 7001TIP3    H142494   2.153   1.680   0.486 -0.7334 -0.4273  1.5372
 7001TIP3    H242495   2.154   1.585   0.369 -0.4146  1.2347  0.1520
 7002TIP3   OH242496   6.538   0.770  10.930  0.3004 -0.3239  0.3791
 7002TIP3    H142497   6.507   0.817  11.008 -1.8859  0.0374 -0.6600
 7002TIP3    H242498   6.600   0.705  10.965 -0.6911 -0.2465  2.4240
 7003TIP3   OH242499   4.742   6.181   1.839 -0.5200 -0.3997  0.0321
 7003TIP3    H142500   4.807   6.251   1.831 -0.7934 -0.2180 -0.6899
 7003TIP3    H242501   4.677   6.215   1.900  0.9364 -1.2746  2.1866
 7004TIP3   OH242502   5.089   5.222  17.223 -0.0028 -0.6217  0.5520
 7004TIP3    H142503   5.040   5.276  17.161  1.9790 -0.4475 -0.9577
 7004TIP3    H242504   5.039   5.228  17.305 -0.2847  2.8768  0.2634
 7005TIP3   OH242505   4.386   4.169  17.108 -0.3286 -0.2928  0.1554
 7005TIP3    H142506   4.467   4.185  17.157 -0.5139  0.4966  0.2036
 7005TIP3    H242507   4.412   4.182  17.016  0.0268 -1.7995  0.0070
 7006TIP3   OH242508   1.059   0.220  12.023  0.2534  0.1323  0.0775
 7006TIP3    H142509   1.089   0.246  12.110 -0.6528 -1.4453  0.8870
 7006TIP3    H242510   1.010   0.296  11.992  0.6582  0.7449  0.8844
 7007TIP3   OH242511   6.532   3.005  16.683 -0.3014  0.1959  0.3197
 7007TIP3    H142512   6.608   3.062  16.696  0.7972 -1.2308  0.4305
 7007TIP3    H242513   6.554   2.950  16.608 -0.6745 -1.0640  1.0815
 7008TIP3   OH242514   3.208   5.205  11.270  0.0784 -0.7600 -0.4394
 7008TIP3    H142515   3.293   5.203  11.314  0.2092  1.8779 -0.4195
 7008TIP3    H242516   3.229   5.204  11.177  0.0783 -1.2441 -0.4334
 7009TIP3   OH242517   2.677   5.739  14.768 -0.3185  0.1817 -0.4970
 7009TIP3    H142518   2.593   5.692  14.774 -0.4676  0.4629 -0.4028
 7009TIP3    H242519   2.743   5.671  14.780 -0.4873 -0.3709 -2.3363
 7010TIP3   OH242520   0.949   0.584   2.798  0.2981 -0.5734  0.1208
 7010TIP3    H142521   0.965   0.539   2.881  1.5233  1.1472  0.8749
 7010TIP3    H242522   0.866   0.630   2.812 -0.1001 -1.2316 -0.0477
 7011TIP3   OH242523   1.009   5.283   4.461  0.2834 -0.8076 -0.3984
 7011TIP3    H142524   1.057   5.320   4.535  0.6810  0.6268 -1.3314
 7011TIP3    H242525   0.920   5.316   4.471  0.3459 -0.5823 -0.5498
 7012TIP3   OH242526   4.051   4.255   1.896  0.2778 -0.5792 -0.2222
 7012TIP3    H142527   3.962   4.289   1.904  0.2405 -1.0685  2.0742
 7012TIP3    H242528   4.048   4.170   1.940  1.9770 -0.3892  0.3132
 7013TIP3   OH242529   0.062   6.365  12.628  0.4095  0.1312 -0.1860
 7013TIP3    H142530  -0.020   6.327  12.596 -0.8489  1.4837  1.2535
 7013TIP3    H242531   0.100   6.408  12.551 -0.2423 -0.4688 -0.8635
 7014TIP3   OH242532   3.332   5.362  14.479 -0.0603 -0.0402  0.1073
 7014TIP3    H142533   3.344   5.303  14.553 -1.5721  0.7809  1.0480
 7014TIP3    H242534   3.253   5.329  14.434 -0.7694  1.0613  0.4910
 7015TIP3   OH242535   6.454   2.192   6.231  0.4013  0.4156  0.5888
 7015TIP3    H142536   6.498   2.142   6.299  1.6609  1.6292  0.7194
 7015TIP3    H242537   6.430   2.274   6.274  0.1578  0.7256 -0.1194
 7016TIP3   OH242538   0.314   3.987   5.365 -0.1107  0.3375 -0.0214
 7016TIP3    H142539   0.293   3.995   5.458 -0.9810  1.2484 -0.2869
 7016TIP3    H242540   0.359   3.902   5.359  1.3492  0.9409  1.4561
 7017TIP3   OH242541   5.321   2.911   1.558 -0.4720  0.0639 -0.1001
 7017TIP3    H142542   5.264   2.868   1.493 -0.5568  1.1055 -0.7266
 7017TIP3    H242543   5.322   2.849   1.632 -1.0019 -0.7828 -0.7702
 7018TIP3   OH242544   0.975   0.956  16.426  0.3429 -0.0880  0.0409
 7018TIP3    H142545   0.928   0.923  16.349  1.4453 -1.2050 -0.1851
 7018TIP3    H242546   0.968   1.052  16.419 -2.2278 -0.1964  0.2573
 7019TIP3   OH242547   0.133   6.323  14.352 -0.0971  0.4536 -0.3094
 7019TIP3    H142548   0.124   6.391  14.420 -0.6142 -0.7484  0.8702
 7019TIP3    H242549   0.044   6.313  14.317  0.0139  0.4900 -0.6069
 7020TIP3   OH242550   3.012   0.192  13.424 -0.4462  0.4772 -0.3419
 7020TIP3    H142551   3.097   0.234  13.435 -0.6296  0.7117  0.1994
 7020TIP3    H242552   2.999   0.142  13.504 -0.8629  0.5262 -0.3756
 7021TIP3   OH242553   4.022   4.686   5.340 -0.0464  0.1337  0.0360
 7021TIP3    H142554   4.000   4.774   5.310  2.1037  0.5297 -0.5455
 7021TIP3    H242555   4.015   4.691   5.435 -1.2202  0.5365 -0.0565
 7022TIP3   OH242556   3.023   4.316  13.737  0.2994 -0.2870 -0.6136
 7022TIP3    H142557   3.048   4.318  13.830  1.1806  1.6519 -0.8524
 7022TIP3    H242558   2.985   4.229  13.725 -0.0176 -0.5247  1.6095
 7023TIP3   OH242559   4.436   0.502   0.440 -0.2641 -0.2240  0.4443
 7023TIP3    H142560   4.426   0.593   0.413 -0.7670 -1.1081 -2.7480
 7023TIP3    H242561   4.353   0.461   0.415 -0.5228 -1.3870  2.9092
 7024TIP3   OH242562   6.789   4.531   2.548  0.2139 -0.1765 -0.3235
 7024TIP3    H142563   6.751   4.485   2.622  4.4469  0.4920  2.6004
 7024TIP3    H242564   6.737   4.611   2.540  0.0719  0.0978  2.5151
 7025TIP3   OH242565   4.233   3.925  14.491  0.0396  0.4007 -0.2492
 7025TIP3    H142566   4.252   3.892  14.579  2.3988 -0.2553 -0.9183
 7025TIP3    H242567   4.305   3.985  14.473 -1.2009  1.6668 -1.2077
 7026TIP3   OH242568   1.904   5.930  12.561  0.1539  0.6107  0.2330
 7026TIP3    H142569   1.931   6.006  12.510 -0.5713  1.7843  1.5517
 7026TIP3    H242570   1.809   5.924  12.547  0.0836  0.4299  0.7532
 7027TIP3   OH242571   0.072   4.186   3.348  0.2262  0.4427  0.3970
 7027TIP3    H142572   0.013   4.248   3.307  0.2635 -0.1190 -0.5246
 7027TIP3    H242573   0.115   4.142   3.275  0.6954 -0.1847  1.0437
 7028TIP3   OH242574   0.061   6.159   4.694 -0.5307  0.0397  0.1867
 7028TIP3    H142575  -0.014   6.106   4.721 -1.1892 -1.1136 -3.3012
 7028TIP3    H242576   0.137   6.115   4.732 -1.1764 -2.7418 -1.4174
 7029TIP3   OH242577   6.189   2.105   6.238 -0.0734 -0.2068 -0.4582
 7029TIP3    H142578   6.281   2.130   6.235 -0.0384 -0.4120 -2.6793
 7029TIP3    H242579   6.190   2.011   6.255  0.0023  0.1236  1.6436
 7030TIP3   OH242580   4.336   0.584  12.420  0.0218 -0.5152  0.8525
 7030TIP3    H142581   4.334   0.518  12.351  1.6269 -0.4002  0.6524
 7030TIP3    H242582   4.319   0.667  12.376 -0.3643 -0.6000  0.8375
 7031TIP3   OH242583   1.146   5.802  15.916 -0.4311  0.1260 -0.1202
 7031TIP3    H142584   1.161   5.886  15.872 -1.0070  0.3085  0.0206
 7031TIP3    H242585   1.060   5.812  15.956 -0.2825 -0.3544  0.3237
 7032TIP3   OH242586   4.455   4.225   1.487  0.2282 -0.0725 -0.0181
 7032TIP3    H142587   4.398   4.246   1.413  0.9102  1.6372 -0.0911
 7032TIP3    H242588   4.419   4.274   1.560 -0.1919 -1.4292  0.7310
 7033TIP3   OH242589   1.810   2.803   1.647 -0.9187 -0.0281 -0.4710
 7033TIP3    H142590   1.785   2.892   1.674  0.7253 -0.0372  1.3153
 7033TIP3    H242591   1.794   2.749   1.725 -1.7748 -1.2997 -1.4895
 7034TIP3   OH242592   3.012   6.068  17.141  0.5184 -0.2353  0.8311
 7034TIP3    H142593   3.036   6.042  17.052  2.0026  2.3678  0.3639
 7034TIP3    H242594   3.088   6.045  17.194  1.0572  1.2876  0.7537
 7035TIP3   OH242595   2.810   3.050  13.586 -0.7657 -0.3952 -0.0229
 7035TIP3    H142596   2.757   3.108  13.531  0.4400  0.5641 -0.2143
 7035TIP3    H242597   2.794   2.963  13.550 -0.8000  0.0901 -1.2573
 7036TIP3   OH242598   4.569   3.446  13.019 -0.2676  0.3711  0.0533
 7036TIP3    H142599   4.533   3.358  13.007 -1.3014  0.6403  0.9841
 7036TIP3    H242600   4.531   3.497  12.947 -1.4293  0.5423  0.7603
 7037TIP3   OH242601   1.071   0.492   3.415 -0.6375 -0.0498  0.1184
 7037TIP3    H142602   0.997   0.547   3.391 -1.0328 -0.3736  0.5608
 7037TIP3    H242603   1.113   0.470   3.332  0.7446  2.5219  0.0200
 7038TIP3   OH242604   5.258   2.230   2.262 -0.2531  0.5607 -0.2252
 7038TIP3    H142605   5.323   2.161   2.248 -0.9744  0.0873 -1.4529
 7038TIP3    H242606   5.256   2.242   2.356  0.8951 -0.1107 -0.0884
 7039TIP3   OH242607   3.038   6.393   5.411  0.1868 -0.1397  0.1762
 7039TIP3    H142608   2.998   6.327   5.468  0.4356 -0.2226  0.2570
 7039TIP3    H242609   3.127   6.360   5.396  0.9779  1.1010  1.7594
 7040TIP3   OH242610   2.499   5.621   2.372  0.2203 -0.3427 -0.4000
 7040TIP3    H142611   2.439   5.684   2.330  0.7320  0.3461 -0.1154
 7040TIP3    H242612   2.489   5.637   2.465  1.0254 -0.0558 -0.3590
 7041TIP3   OH242613   4.142   2.650   5.982  0.2900  0.9083 -0.5617
 7041TIP3    H142614   4.209   2.672   6.047 -0.3779  0.6496  0.2247
 7041TIP3    H242615   4.154   2.557   5.966 -1.3388  0.3052  1.3336
 7042TIP3   OH242616   0.155   6.034   6.213  0.8565 -0.2202  0.4646
 7042TIP3    H142617   0.189   5.965   6.156  1.7892  0.0198  0.7271
 7042TIP3    H242618   0.061   6.035   6.195  1.3829  1.5882 -2.9746
 7043TIP3   OH242619   6.483   0.563   1.818  0.2827  0.0413 -0.1592
 7043TIP3    H142620   6.563   0.510   1.819  0.2694  0.0216 -0.1402
 7043TIP3    H242621   6.485   0.611   1.901  0.3024  0.0824 -0.1833
 7044TIP3   OH242622   3.817   6.236   5.873 -0.5421  0.3036  0.6717
 7044TIP3    H142623   3.839   6.157   5.822 -0.1633  1.4599 -1.0621
 7044TIP3    H242624   3.744   6.209   5.929 -1.6175 -0.8472 -1.1633
 7045TIP3   OH242625   1.715   3.037   3.663  0.3488 -0.1602  0.6052
 7045TIP3    H142626   1.687   2.949   3.688  1.6623 -0.4524  1.1388
 7045TIP3    H242627   1.668   3.055   3.582  0.5735 -1.6368  0.1142
 7046TIP3   OH242628   6.479   4.109  14.295  0.1774 -0.0978 -0.2968
 7046TIP3    H142629   6.479   4.164  14.373 -1.1057 -0.7144  0.1646
 7046TIP3    H242630   6.539   4.037  14.315 -2.1451 -1.7364  1.2653
 7047TIP3   OH242631   6.091   2.604  13.308 -0.0575  0.3999 -0.3347
 7047TIP3    H142632   6.025   2.601  13.239  0.4870 -2.2031 -0.8814
 7047TIP3    H242633   6.045   2.575  13.386  0.5033 -2.2763 -0.8969
 7048TIP3   OH242634   6.410   3.612  15.263  0.3839 -0.4023 -0.8895
 7048TIP3    H142635   6.441   3.540  15.318  1.3191  0.9378  0.3954
 7048TIP3    H242636   6.485   3.635  15.209  0.4420  0.3186 -0.5085
 7049TIP3   OH242637   0.271   0.574   4.691  0.2432  0.0515  0.2304
 7049TIP3    H142638   0.351   0.573   4.638  0.3716 -2.9063  0.2977
 7049TIP3    H242639   0.210   0.628   4.641  2.3894  2.9276  0.4790
 7050TIP3   OH242640   3.231   4.418   0.054  0.3763 -0.1229 -0.0915
 7050TIP3    H142641   3.289   4.383   0.121 -0.7596 -0.2937  0.8376
 7050TIP3    H242642   3.152   4.444   0.102 -0.1200  0.5643 -1.2410
 7051TIP3   OH242643   0.550   0.760   4.571  0.1117 -0.2352  0.0587
 7051TIP3    H142644   0.611   0.814   4.521  0.5929  0.4083  1.3082
 7051TIP3    H242645   0.489   0.726   4.505 -0.5370  2.2576 -0.7169
 7052TIP3   OH242646   2.515   4.333  17.276 -0.8641 -0.1017  0.5366
 7052TIP3    H142647   2.584   4.288  17.325 -0.9144  1.3755  2.0697
 7052TIP3    H242648   2.442   4.271  17.275 -0.2913 -0.7971  0.8768
 7053TIP3   OH242649   2.391   4.786  14.054  0.0845  0.4586  0.1271
 7053TIP3    H142650   2.353   4.716  14.000  3.1925 -0.8358 -0.5787
 7053TIP3    H242651   2.421   4.852  13.991  2.3724 -0.3638  0.2630
 7054TIP3   OH242652   0.479   3.523  12.465 -0.4153  0.0521  0.1891
 7054TIP3    H142653   0.394   3.506  12.504 -0.4887 -3.2817 -1.0302
 7054TIP3    H242654   0.459   3.554  12.377 -0.3815  0.1633  0.2213
 7055TIP3   OH242655   1.190   3.315  16.792 -0.5891  0.0618  0.3350
 7055TIP3    H142656   1.263   3.354  16.840  0.1905  0.2053 -0.9313
 7055TIP3    H242657   1.217   3.225  16.776 -0.6917  0.1120 -0.1271
 7056TIP3   OH242658   1.704   3.781  15.274 -0.4328  0.2532 -0.0864
 7056TIP3    H142659   1.742   3.804  15.189 -0.5464  1.7394  0.2367
 7056TIP3    H242660   1.682   3.688  15.266  1.3763 -0.1396 -0.9829
 7057TIP3   OH242661   0.397   5.902   4.033 -0.2538  0.1315  0.2251
 7057TIP3    H142662   0.403   5.964   3.959  0.1988  0.0151  0.1603
 7057TIP3    H242663   0.413   5.816   3.993 -0.1287  0.0561  0.4373
 7058TIP3   OH242664   1.728   2.018   6.123 -0.7234  0.1916 -0.0649
 7058TIP3    H142665   1.666   1.982   6.186 -0.9276  0.1045 -0.3118
 7058TIP3    H242666   1.792   2.064   6.176 -1.2903  0.7260  0.1691
 7059TIP3   OH242667   5.793   5.640   2.118 -0.3387 -0.2771 -0.2578
 7059TIP3    H142668   5.735   5.617   2.046  1.6096 -0.0644 -1.9671
 7059TIP3    H242669   5.788   5.565   2.177 -1.3626 -0.7945 -0.9666
 7060TIP3   OH242670   4.867   4.751  14.156  0.5619  0.4360 -0.2153
 7060TIP3    H142671   4.873   4.822  14.093  0.9364  0.6004  0.0003
 7060TIP3    H242672   4.774   4.741  14.174  0.3775 -0.1985 -1.4636
 7061TIP3   OH242673   4.334   5.491  14.197 -0.3579  0.3869 -0.3462
 7061TIP3    H142674   4.341   5.550  14.272 -0.4983  1.5319 -1.2021
 7061TIP3    H242675   4.425   5.464  14.180 -0.3032  0.2813  0.1147
 7062TIP3   OH242676   5.035   3.081  12.258  0.4762 -0.1351  0.5001
 7062TIP3    H142677   5.093   3.057  12.330  2.1932  0.3468 -0.6662
 7062TIP3    H242678   5.083   3.056  12.179 -0.2902  1.5583 -0.5568
 7063TIP3   OH242679   4.352   5.862   2.514  1.1784  0.3634 -0.2211
 7063TIP3    H142680   4.285   5.804   2.550  1.5622 -0.0002 -0.0771
 7063TIP3    H242681   4.316   5.950   2.525  0.8887  0.1978  0.2112
 7064TIP3   OH242682   0.290   3.056   3.558 -0.4890  0.1247 -0.0343
 7064TIP3    H142683   0.292   3.141   3.515  0.0959 -0.7239 -1.7946
 7064TIP3    H242684   0.354   3.003   3.510 -0.0216 -0.9952  1.7126
 7065TIP3   OH242685   1.849   3.312   0.482  0.2622  0.8380  0.0605
 7065TIP3    H142686   1.800   3.343   0.406 -0.7346  2.6061  1.3570
 7065TIP3    H242687   1.829   3.375   0.551 -0.3072 -1.6679  2.3244
 7066TIP3   OH242688   3.032   5.206   1.780  0.1512 -0.0458  0.3950
 7066TIP3    H142689   3.084   5.166   1.710  1.1453 -0.0139  1.0899
 7066TIP3    H242690   3.022   5.297   1.752 -0.0861 -0.2069 -0.0561
 7067TIP3   OH242691   6.078   1.410   3.698  0.0285 -0.2374  0.4001
 7067TIP3    H142692   6.002   1.357   3.720  0.3242  0.3008  3.0312
 7067TIP3    H242693   6.151   1.365   3.740  0.5456  1.2354  1.1482
 7068TIP3   OH242694   5.129   2.809  15.181  0.0622  0.1104 -0.0443
 7068TIP3    H142695   5.052   2.856  15.149  1.7835  2.2252 -1.3689
 7068TIP3    H242696   5.174   2.872  15.237  2.7993  0.4738 -2.3837
 7069TIP3   OH242697   2.062   4.632   2.903 -1.0257  0.7029  0.3723
 7069TIP3    H142698   2.023   4.547   2.883  0.6831 -0.7885  2.8228
 7069TIP3    H242699   2.126   4.646   2.833 -0.5415 -0.6221  0.5172
 7070TIP3   OH242700   5.796   3.651   0.494  0.0151 -0.4472  0.1983
 7070TIP3    H142701   5.886   3.685   0.494 -0.2454  0.2506  0.3316
 7070TIP3    H242702   5.743   3.724   0.526 -0.4929 -1.1410  0.9609
 7071TIP3   OH242703   4.222   0.410   5.859 -0.3100  0.4464  0.5549
 7071TIP3    H142704   4.135   0.418   5.898 -0.5633 -1.9101  0.6553
 7071TIP3    H242705   4.270   0.353   5.920  1.4713  1.9733  0.6894
 7072TIP3   OH242706   4.373   6.006   1.107  0.2475  0.1358  0.0395
 7072TIP3    H142707   4.453   5.987   1.058  1.1186 -0.8132  1.7269
 7072TIP3    H242708   4.402   6.055   1.184 -0.4480 -1.8505  1.6828
 7073TIP3   OH242709   0.705   3.894   1.005  0.3550 -0.1920 -0.1242
 7073TIP3    H142710   0.674   3.805   1.023 -1.0869  0.3074 -0.0219
 7073TIP3    H242711   0.766   3.883   0.932  0.8447 -1.3571  0.4235
 7074TIP3   OH242712   0.854   2.607  15.152 -0.0118 -0.2801 -0.1260
 7074TIP3    H142713   0.794   2.681  15.151  1.4674  0.9996  0.9169
 7074TIP3    H242714   0.941   2.646  15.155  0.9443 -2.0579 -2.0865
 7075TIP3   OH242715   0.992   6.359  11.687  0.1169  0.0757 -0.2173
 7075TIP3    H142716   1.017   6.276  11.727  0.0013 -0.3090 -0.9232
 7075TIP3    H242717   1.033   6.425  11.742  1.1368 -0.4840 -0.2749
 7076TIP3   OH242718   4.343   1.658  11.798  0.8033  0.2114  0.1824
 7076TIP3    H142719   4.286   1.717  11.749 -0.1995 -1.1618 -0.3442
 7076TIP3    H242720   4.312   1.570  11.776  0.9969 -0.4844  2.4576
 7077TIP3   OH242721   6.639   3.535  14.795 -0.8340 -0.1168  0.5126
 7077TIP3    H142722   6.656   3.585  14.876 -0.1931  2.5563 -1.1349
 7077TIP3    H242723   6.545   3.543  14.781 -0.6546  1.3740 -0.0967
 7078TIP3   OH242724   2.181   6.208   2.692 -0.0003  0.2093  0.0520
 7078TIP3    H142725   2.130   6.263   2.633  0.8193  0.7317 -0.1784
 7078TIP3    H242726   2.176   6.252   2.777 -1.5948 -0.8032  0.5194
 7079TIP3   OH242727   5.184   0.128  11.815 -0.7243  0.4785  0.2165
 7079TIP3    H142728   5.191   0.082  11.731 -0.2019  0.6192  0.1784
 7079TIP3    H242729   5.194   0.221  11.792  1.5640  0.3906  0.6488
 7080TIP3   OH242730   0.410   2.957  12.624 -0.7707 -0.4748 -0.1138
 7080TIP3    H142731   0.375   3.034  12.580  0.4723  0.2065  0.0616
 7080TIP3    H242732   0.448   2.990  12.705  0.2552 -1.1815 -0.2834
 7081TIP3   OH242733   3.739   1.795   3.720  0.1761  0.3760  0.3426
 7081TIP3    H142734   3.780   1.744   3.790 -0.2250  1.1094  1.1376
 7081TIP3    H242735   3.668   1.842   3.764 -0.5236  0.3370 -0.6939
 7082TIP3   OH242736   0.255   1.280   4.411 -0.0965 -0.0288  0.1358
 7082TIP3    H142737   0.160   1.285   4.418  0.0206  2.1175  0.7536
 7082TIP3    H242738   0.282   1.367   4.382  1.6083 -0.9465 -1.2413
 7083TIP3   OH242739   4.981   5.901  13.587 -0.4207  0.0269  0.6586
 7083TIP3    H142740   5.016   5.812  13.586 -1.3232 -0.3378  0.0916
 7083TIP3    H242741   5.058   5.957  13.600  0.4113 -0.7318 -0.7821
 7084TIP3   OH242742   2.533   6.386   3.508 -0.3674  0.4786 -0.2225
 7084TIP3    H142743   2.495   6.430   3.584  2.2453 -1.9064  2.7100
 7084TIP3    H242744   2.603   6.445   3.479 -0.8817  1.0402 -0.3573
 7085TIP3   OH242745   5.983   3.993  14.922 -0.4356 -0.8876 -0.3016
 7085TIP3    H142746   5.944   4.018  14.838  0.5986  0.0914 -0.5074
 7085TIP3    H242747   6.026   4.073  14.953  0.2675 -1.5846  0.5557
 7086TIP3   OH242748   1.235   0.139  11.819  0.3598 -0.2353  0.1881
 7086TIP3    H142749   1.303   0.206  11.808 -1.2044  1.4379  0.2720
 7086TIP3    H242750   1.172   0.179  11.879 -0.8178 -1.6717 -0.0382
 7087TIP3   OH242751   4.411   6.510  16.679  0.3372  0.3811  0.2683
 7087TIP3    H142752   4.377   6.532  16.592  0.3337  0.0803  0.1900
 7087TIP3    H242753   4.503   6.488  16.664  0.2641  0.0510  0.2944
 7088TIP3   OH242754   2.415   6.600   5.469  0.4003  0.0363  0.3447
 7088TIP3    H142755   2.326   6.595   5.505  1.3290  1.0096  2.9801
 7088TIP3    H242756   2.402   6.613   5.375 -2.2757  1.4334  0.8177
 7089TIP3   OH242757   4.074   5.016  13.574  0.3983  0.7541 -0.0271
 7089TIP3    H142758   4.086   5.110  13.591 -0.3684  0.7383  0.6179
 7089TIP3    H242759   4.010   5.013  13.503 -0.4791  0.7042  0.7493
 7090TIP3   OH242760   6.608   1.493  10.967 -0.0176  0.3218  0.3086
 7090TIP3    H142761   6.568   1.479  10.881 -1.5800 -0.4258  1.1123
 7090TIP3    H242762   6.671   1.422  10.976 -0.7121 -0.3133  0.2476
 7091TIP3   OH242763   2.853   3.649  15.975  0.1325 -0.3926  0.6996
 7091TIP3    H142764   2.918   3.720  15.976  0.0079 -0.2522 -0.0368
 7091TIP3    H242765   2.899   3.575  15.935 -0.5459  0.1395 -1.2069
 7092TIP3   OH242766   4.875   2.787   3.773  0.2943  0.5361 -0.3497
 7092TIP3    H142767   4.817   2.718   3.804 -0.4453  0.9255 -0.8448
 7092TIP3    H242768   4.939   2.798   3.844  0.3999 -0.6255 -0.2577
 7093TIP3   OH242769   5.389   3.350   5.639  0.2325  0.0810 -0.2304
 7093TIP3    H142770   5.420   3.337   5.728  1.5993  0.1348 -0.6778
 7093TIP3    H242771   5.433   3.429   5.609 -1.5649  1.0786 -0.3786
 7094TIP3   OH242772   4.685   0.070  16.160  0.1398 -0.3520  0.3565
 7094TIP3    H142773   4.706   0.157  16.194 -1.4896  0.5858 -0.8466
 7094TIP3    H242774   4.590   0.073  16.144  0.4744 -1.3469 -2.3245
 7095TIP3   OH242775   6.037   0.358   0.013  0.3974  0.0373  0.6381
 7095TIP3    H142776   6.130   0.336   0.006  0.6421  1.2755 -0.1943
 7095TIP3    H242777   5.997   0.280   0.052  1.9608 -0.0636  2.1399
 7096TIP3   OH242778   3.152   2.513   1.756 -0.6560  0.2078 -0.4446
 7096TIP3    H142779   3.097   2.435   1.747 -1.4468  0.6694  0.2018
 7096TIP3    H242780   3.157   2.549   1.668 -0.0298 -0.7305 -0.8075
 7097TIP3   OH242781   1.714   2.928   2.691  0.1007  0.1363  0.3034
 7097TIP3    H142782   1.707   2.845   2.643  1.7413  0.4901 -0.5933
 7097TIP3    H242783   1.743   2.992   2.626  0.9112  0.9579  1.4277
 7098TIP3   OH242784   2.944   4.669   2.772  0.0514  0.0779  0.1676
 7098TIP3    H142785   2.953   4.652   2.678  1.7586  1.3792  0.0555
 7098TIP3    H242786   2.953   4.583   2.813  3.5175 -0.1067 -0.6600
 7099TIP3   OH242787   1.765   5.655   2.442  0.3532 -0.4389  0.0189
 7099TIP3    H142788   1.792   5.564   2.430 -2.3299 -1.2753 -0.2074
 7099TIP3    H242789   1.848   5.703   2.451  1.8462 -2.9386  0.6962
 7100TIP3   OH242790   5.601   2.173  14.954  0.3140  0.1382 -0.0833
 7100TIP3    H142791   5.606   2.242  15.020  0.5688  0.2229 -0.1892
 7100TIP3    H242792   5.568   2.217  14.875 -1.0789 -0.1857  0.2872
 7101TIP3   OH242793   3.139   6.783  11.818  0.5063  0.1907 -0.1576
 7101TIP3    H142794   3.139   6.868  11.774  1.4255  1.1921  1.6469
 7101TIP3    H242795   3.117   6.720  11.749 -0.1642  1.8730 -1.5541
 7102TIP3   OH242796   3.090   3.351   6.079  0.7932 -0.0244 -0.1644
 7102TIP3    H142797   3.123   3.342   6.168  0.0757  0.3331  0.1444
 7102TIP3    H242798   3.157   3.310   6.024  0.5567 -1.5887  0.6548
 7103TIP3   OH242799   6.137   3.476  13.701 -0.6453 -0.4631 -0.3622
 7103TIP3    H142800   6.149   3.551  13.643  1.3582 -0.5762 -0.1495
 7103TIP3    H242801   6.089   3.412  13.648 -3.3074  1.2753 -0.2195
 7104TIP3   OH242802   5.762   0.366   0.928 -0.2368  0.2049 -0.1251
 7104TIP3    H142803   5.842   0.390   0.975 -0.8188  1.8556  0.0790
 7104TIP3    H242804   5.780   0.278   0.894  1.1230 -0.0349  1.0980
 7105TIP3   OH242805   2.040   5.050  11.916  0.2991  0.1801  0.3052
 7105TIP3    H142806   2.006   4.967  11.885  1.1248 -0.1912  0.3807
 7105TIP3    H242807   2.134   5.047  11.897  0.0977  1.7543 -1.1729
 7106TIP3   OH242808   5.109   5.508  13.904  0.2370 -0.3372 -0.2490
 7106TIP3    H142809   5.024   5.463  13.899  0.3154 -0.5056 -0.0992
 7106TIP3    H242810   5.087   5.600  13.913  0.0742 -0.2989 -0.9878
 7107TIP3   OH242811   5.195   4.500  14.654 -0.0014 -0.5711 -0.6304
 7107TIP3    H142812   5.227   4.419  14.693  1.2037 -0.0122 -0.3945
 7107TIP3    H242813   5.226   4.497  14.564  0.0488 -0.3755 -0.6203
 7108TIP3   OH242814   1.688   1.796   2.208  0.4285 -0.4829  0.1343
 7108TIP3    H142815   1.610   1.830   2.165  1.3375 -0.2781 -1.4318
 7108TIP3    H242816   1.654   1.737   2.276 -1.1382  1.9181  1.6001
 7109TIP3   OH242817   4.421   0.336   1.765  0.0364  0.4534 -0.4763
 7109TIP3    H142818   4.349   0.388   1.800  0.0104 -0.9958  1.8775
 7109TIP3    H242819   4.406   0.334   1.671 -2.0911  1.5202 -0.2164
 7110TIP3   OH242820   0.342   1.779   5.929 -0.1175 -0.2881 -0.5667
 7110TIP3    H142821   0.280   1.777   6.001  1.9405 -1.5350  1.3194
 7110TIP3    H242822   0.396   1.857   5.945  0.4130 -0.6230 -0.6802
 7111TIP3   OH242823   3.618   2.545   1.347  0.6289  0.1185  0.0327
 7111TIP3    H142824   3.627   2.450   1.332  1.9975  0.0682  0.9643
 7111TIP3    H242825   3.536   2.568   1.304  0.2385 -1.5021 -0.1800
 7112TIP3   OH242826   2.313   1.511  10.548 -0.5572  0.1683 -0.2828
 7112TIP3    H142827   2.258   1.568  10.601 -0.1080 -0.1507  0.5476
 7112TIP3    H242828   2.385   1.567  10.519 -0.1195  0.0337  0.5266
 7113TIP3   OH242829   3.561   4.127   1.990 -0.6001  1.1726  0.1128
 7113TIP3    H142830   3.468   4.131   2.013 -0.5153 -1.3503  1.2191
 7113TIP3    H242831   3.605   4.104   2.072  0.4597 -1.8311 -1.1423
 7114TIP3   OH242832   2.870   2.953   0.335 -0.1038  0.2595  0.2138
 7114TIP3    H142833   2.813   3.010   0.386 -0.7224  1.1739 -1.4093
 7114TIP3    H242834   2.930   2.914   0.399  0.1677  2.5164  1.4109
 7115TIP3   OH242835   1.651   1.164  15.829 -0.1790 -0.3308  0.3142
 7115TIP3    H142836   1.738   1.174  15.791 -0.5792  1.2595 -0.2870
 7115TIP3    H242837   1.618   1.083  15.791  0.6736 -0.4412 -0.2218
 7116TIP3   OH242838   6.718   4.005  15.656  0.1348  0.1043 -0.1360
 7116TIP3    H142839   6.771   4.082  15.635 -0.5793 -0.0128 -2.7190
 7116TIP3    H242840   6.630   4.039  15.673 -0.2593 -0.0846 -1.5939
 7117TIP3   OH242841   1.147   0.139  12.659 -0.0735  0.7483 -0.0079
 7117TIP3    H142842   1.188   0.219  12.627  2.2494 -0.2400  0.2884
 7117TIP3    H242843   1.078   0.120  12.596  1.1796  1.4805 -1.6836
 7118TIP3   OH242844   6.292   4.474   0.503 -0.2095  0.7781 -0.5982
 7118TIP3    H142845   6.298   4.393   0.452  1.0546  0.9383 -0.7228
 7118TIP3    H242846   6.207   4.511   0.478 -0.1231  0.2709 -1.6998
 7119TIP3   OH242847   1.045   4.366  14.270 -0.6912 -0.2949  0.5334
 7119TIP3    H142848   1.028   4.277  14.302 -0.3361 -0.4294  0.3533
 7119TIP3    H242849   1.045   4.420  14.349 -0.0848 -0.5864  0.7451
 7120TIP3   OH242850   6.776   5.169  14.507 -0.8840 -0.4423 -0.9565
 7120TIP3    H142851   6.824   5.221  14.442  3.2987 -0.4742  1.7290
 7120TIP3    H242852   6.714   5.230  14.546  1.0968  1.5016 -0.6614
 7121TIP3   OH242853   6.092   3.484  11.752  0.4776 -0.3406 -0.2518
 7121TIP3    H142854   6.012   3.534  11.768  1.4468  1.4735 -0.7770
 7121TIP3    H242855   6.063   3.394  11.744 -1.3312  0.0856  0.9671
 7122TIP3   OH242856   1.155   6.428  11.448 -0.4644  0.1358 -0.0194
 7122TIP3    H142857   1.246   6.399  11.458 -0.6089 -0.1703  0.4445
 7122TIP3    H242858   1.107   6.381  11.516 -1.0517 -0.0470 -0.5449
 7123TIP3   OH242859   1.300   2.876  17.159 -0.5008 -0.7632 -0.4911
 7123TIP3    H142860   1.316   2.814  17.230 -1.8411 -0.4462  0.1130
 7123TIP3    H242861   1.353   2.952  17.180  2.2025 -2.1277 -1.9151
 7124TIP3   OH242862   0.717   2.346   3.596  0.0187 -0.3533  0.0899
 7124TIP3    H142863   0.745   2.328   3.506 -0.7881 -0.9172 -0.0522
 7124TIP3    H242864   0.788   2.400   3.631  0.4329 -0.2645 -0.8244
 7125TIP3   OH242865   6.112   0.740   1.713 -0.8879 -0.1511  0.2151
 7125TIP3    H142866   6.155   0.655   1.702 -2.1750 -0.9854  1.2579
 7125TIP3    H242867   6.061   0.730   1.793 -0.5067  1.8716  0.7572
 7126TIP3   OH242868   6.386   1.670   4.561 -0.5810 -0.3582 -0.0980
 7126TIP3    H142869   6.315   1.620   4.520 -0.7202  0.6601 -1.1890
 7126TIP3    H242870   6.465   1.620   4.543 -0.8666 -0.8508 -0.0048
 7127TIP3   OH242871   4.123   0.827   1.969 -0.3824  0.1949 -0.2590
 7127TIP3    H142872   4.105   0.752   1.913 -0.0203  0.6876 -1.0464
 7127TIP3    H242873   4.171   0.790   2.044 -2.0382 -0.6634  0.4133
 7128TIP3   OH242874   0.240   3.419   0.742 -0.1575  0.2628 -0.3812
 7128TIP3    H142875   0.223   3.511   0.759  0.0047  0.2461 -0.1161
 7128TIP3    H242876   0.171   3.372   0.789  0.5269  0.2010  0.5837
 7129TIP3   OH242877   0.966   5.994  15.023  0.1462 -0.1931  0.2119
 7129TIP3    H142878   1.060   6.006  15.019 -0.0536  1.4863 -0.3314
 7129TIP3    H242879   0.940   5.974  14.933  0.0158 -1.0921  0.4369
 7130TIP3   OH242880   1.797   0.517  12.477 -0.4091 -0.8236  0.0206
 7130TIP3    H142881   1.840   0.438  12.445  0.8906 -0.2566  0.3249
 7130TIP3    H242882   1.834   0.532  12.564  0.5632  0.9950 -0.6608
 7131TIP3   OH242883   1.524   0.960   1.568  0.2551 -0.3774  0.1296
 7131TIP3    H142884   1.563   1.028   1.512  0.2004 -0.7953 -0.4261
 7131TIP3    H242885   1.520   1.000   1.655  0.3863  0.2689 -0.1530
 7132TIP3   OH242886   5.094   4.622  16.691  0.3740  0.1246  0.3464
 7132TIP3    H142887   5.033   4.565  16.739  1.2869 -0.4971  0.8106
 7132TIP3    H242888   5.055   4.630  16.604 -0.9745  0.7304  0.9708
 7133TIP3   OH242889   3.656   5.559  15.678  0.3341  0.5871  0.1463
 7133TIP3    H142890   3.612   5.474  15.677 -1.0543  1.2243 -2.6221
 7133TIP3    H242891   3.695   5.565  15.765 -1.0382 -2.0856  1.0478
 7134TIP3   OH242892   2.178   5.982   0.401 -0.3622 -0.0270 -0.1788
 7134TIP3    H142893   2.170   5.911   0.466 -0.9973  0.9829  0.8795
 7134TIP3    H242894   2.201   6.059   0.452  0.1949  0.5775 -1.3060
 7135TIP3   OH242895   1.766   3.449   5.023 -0.3099 -0.0483 -0.5556
 7135TIP3    H142896   1.827   3.392   4.977  0.2344  1.8223 -2.2666
 7135TIP3    H242897   1.700   3.471   4.958 -1.7149 -0.4020  0.6921
 7136TIP3   OH242898   6.496   4.200   0.073 -0.6957 -0.7663  0.7006
 7136TIP3    H142899   6.424   4.263   0.070  0.2552  0.2893 -0.8181
 7136TIP3    H242900   6.467   4.129   0.016 -0.5819 -0.3898  0.1685
 7137TIP3   OH242901   3.406   6.129   4.240 -0.5882 -0.0219  0.5628
 7137TIP3    H142902   3.341   6.091   4.181 -0.4747 -0.1344  0.5097
 7137TIP3    H242903   3.361   6.204   4.280 -0.6999 -0.0077  0.4132
 7138TIP3   OH242904   2.965   3.482   2.784 -0.4634  0.4072 -0.6126
 7138TIP3    H142905   2.876   3.459   2.758 -0.8386  0.5830  0.4660
 7138TIP3    H242906   2.976   3.442   2.870  0.3857  0.6777 -0.5836
 7139TIP3   OH242907   1.272   4.549   3.144 -0.4606 -0.1642 -0.0968
 7139TIP3    H142908   1.255   4.599   3.064 -1.4536  0.9244  0.7780
 7139TIP3    H242909   1.338   4.485   3.117 -1.2032 -0.2210 -1.9379
 7140TIP3   OH242910   3.969   4.293   4.406  0.0674 -0.3940  0.4838
 7140TIP3    H142911   3.996   4.266   4.318 -0.5304 -0.4471  0.3091
 7140TIP3    H242912   4.051   4.313   4.451  0.3033  1.6824 -0.7203
 7141TIP3   OH242913   6.134   4.906   1.685 -0.2431  0.3259 -0.4460
 7141TIP3    H142914   6.076   4.937   1.616 -0.4531 -3.2003 -2.0984
 7141TIP3    H242915   6.075   4.878   1.755 -0.1856  1.3892  0.0434
 7142TIP3   OH242916   0.473   5.768   4.777 -0.3347  0.0217 -0.0380
 7142TIP3    H142917   0.455   5.845   4.830  2.4664 -0.2458  1.4919
 7142TIP3    H242918   0.405   5.705   4.802 -1.1317  1.0930  0.5701
 7143TIP3   OH242919   4.759   2.730  14.085  0.1537 -0.1211  0.9427
 7143TIP3    H142920   4.713   2.654  14.120 -0.6200 -1.0185 -1.7909
 7143TIP3    H242921   4.848   2.724  14.122 -0.4663 -1.1908  2.3384
 7144TIP3   OH242922   2.716   6.664   4.798 -0.0113  0.1767 -0.4272
 7144TIP3    H142923   2.689   6.591   4.854  2.6424  0.1138  0.9355
 7144TIP3    H242924   2.721   6.626   4.710  2.3916 -1.7199  0.4079
 7145TIP3   OH242925   3.974   4.405  12.877 -0.0068 -0.1329 -0.0199
 7145TIP3    H142926   3.937   4.486  12.910 -1.8253 -0.5504 -0.9208
 7145TIP3    H242927   3.913   4.337  12.905  0.5138 -0.9545 -0.8098
 7146TIP3   OH242928   4.265   0.036   5.481  0.6529 -0.3248  0.4978
 7146TIP3    H142929   4.212   0.017   5.403 -0.4657 -0.3320  1.2306
 7146TIP3    H242930   4.256   0.131   5.493 -1.2358 -0.6253  1.9950
 7147TIP3   OH242931   4.450   3.223   0.557  0.1357  0.2791  0.3540
 7147TIP3    H142932   4.395   3.243   0.632  0.3628 -0.6581  0.7848
 7147TIP3    H242933   4.480   3.133   0.572  2.3535  0.9807  0.5107
 7148TIP3   OH242934   2.050   1.427  12.919  0.1381 -0.7556 -0.0731
 7148TIP3    H142935   2.050   1.474  13.003  0.8425  1.1442 -1.0828
 7148TIP3    H242936   1.964   1.444  12.881 -0.0692 -1.3654  0.1046
 7149TIP3   OH242937   1.543   1.488   3.515  0.0953  0.1502  0.2408
 7149TIP3    H142938   1.561   1.410   3.463 -0.6185 -0.8813  1.4819
 7149TIP3    H242939   1.448   1.484   3.532 -0.1230  1.7582 -0.3863
 7150TIP3   OH242940   1.025   1.931   3.850  0.4937 -0.3136 -0.0293
 7150TIP3    H142941   1.004   2.016   3.890  1.2536  1.0570 -2.3269
 7150TIP3    H242942   0.964   1.924   3.777 -0.4353 -2.4347  0.8817
 7151TIP3   OH242943   3.548   0.606  11.808  0.1475  0.1157 -0.6417
 7151TIP3    H142944   3.469   0.626  11.858  1.2010 -1.4644  1.8176
 7151TIP3    H242945   3.556   0.511  11.814  2.6008  0.2907 -0.1882
 7152TIP3   OH242946   4.018   0.660  13.421 -0.3081 -0.3436  0.0590
 7152TIP3    H142947   4.105   0.652  13.382 -0.3223 -0.5231  0.0599
 7152TIP3    H242948   3.960   0.680  13.347 -0.6054 -2.3240 -0.3227
 7153TIP3   OH242949   3.351   2.690  15.197  0.1405 -0.4424 -0.4512
 7153TIP3    H142950   3.412   2.651  15.135  0.9250 -0.0963  0.0958
 7153TIP3    H242951   3.362   2.639  15.277 -0.2928 -0.3730 -0.3421
 7154TIP3   OH242952   1.998   2.551  14.892 -0.1379 -0.5968 -0.3520
 7154TIP3    H142953   2.039   2.549  14.805 -0.2412  0.4037 -0.4440
 7154TIP3    H242954   1.952   2.468  14.899 -0.5216 -0.4963 -1.4543
 7155TIP3   OH242955   1.078   2.085  13.283 -0.1868  0.3354 -0.2380
 7155TIP3    H142956   1.071   2.022  13.355 -0.1526  0.3162 -0.2518
 7155TIP3    H242957   1.160   2.063  13.240 -0.9963 -0.7585 -1.3120
 7156TIP3   OH242958   4.876   0.298  14.811  0.9764  0.2306  0.1473
 7156TIP3    H142959   4.782   0.290  14.828  0.9461  0.9012  0.3238
 7156TIP3    H242960   4.882   0.352  14.732  1.2306  1.1607  0.7830
 7157TIP3   OH242961   1.844   4.798  17.141 -0.8816  0.3354  0.5172
 7157TIP3    H142962   1.862   4.856  17.214  0.0746  0.3357  0.2968
 7157TIP3    H242963   1.809   4.855  17.072 -2.1506  0.2766  1.0814
 7158TIP3   OH242964   0.020   3.503  14.614  0.4866 -0.1787  0.1704
 7158TIP3    H142965  -0.070   3.501  14.649 -0.0917 -0.1916 -1.2760
 7158TIP3    H242966   0.048   3.594  14.627 -0.8204  0.5902 -1.9389
 7159TIP3   OH242967   4.862   0.360   3.674 -0.0895  0.1394  0.5659
 7159TIP3    H142968   4.955   0.354   3.693 -0.4055 -1.2093  1.7956
 7159TIP3    H242969   4.835   0.270   3.656 -1.2519  0.4422  0.7299
 7160TIP3   OH242970   3.835   3.459   0.313  0.3779 -0.1853 -0.5436
 7160TIP3    H142971   3.792   3.398   0.373 -0.9713  0.0108 -1.2700
 7160TIP3    H242972   3.866   3.403   0.241 -0.6340 -0.0600 -1.0865
 7161TIP3   OH242973   3.443   3.335  15.495 -0.1376  0.1532  0.4814
 7161TIP3    H142974   3.480   3.399  15.435 -0.3204 -0.2983 -0.1164
 7161TIP3    H242975   3.368   3.298  15.449  0.8304 -1.5522  0.2023
 7162TIP3   OH242976   5.540   5.625   4.237  0.5493  0.1013 -0.1710
 7162TIP3    H142977   5.619   5.601   4.189  1.0234 -0.9725  1.0640
 7162TIP3    H242978   5.548   5.579   4.320 -0.9750  0.6680  0.3293
 7163TIP3   OH242979   2.902   0.985   5.718 -0.0835 -0.3895 -0.0605
 7163TIP3    H142980   2.962   0.961   5.789 -1.0406 -0.4421  0.7413
 7163TIP3    H242981   2.911   0.914   5.654  0.6964 -0.4034  0.0559
 7164TIP3   OH242982   5.157   4.509   5.786 -0.5654  0.5244  0.2636
 7164TIP3    H142983   5.221   4.533   5.720  0.2739 -1.4042  0.3080
 7164TIP3    H242984   5.208   4.484   5.863 -1.4554  0.8856  1.0059
 7165TIP3   OH242985   6.273   5.302   5.375  0.0093 -0.1812  0.5715
 7165TIP3    H142986   6.290   5.363   5.303 -3.7779  0.3307 -0.0769
 7165TIP3    H242987   6.274   5.357   5.454  1.5199 -0.2724  0.6503
 7166TIP3   OH242988   2.024   1.077  11.989  0.0592  0.2057  0.6255
 7166TIP3    H142989   1.964   1.051  12.059  0.7755 -1.1952  0.7310
 7166TIP3    H242990   2.073   0.998  11.968  1.3399  1.1339 -0.0014
 7167TIP3   OH242991   0.261   5.803  13.270 -0.8080 -0.0908  0.3668
 7167TIP3    H142992   0.263   5.857  13.191  0.2210 -0.1055  0.3641
 7167TIP3    H242993   0.247   5.714  13.238  0.2830 -0.1924  0.1228
 7168TIP3   OH242994   6.495   2.796   1.732  0.2136 -0.3384  0.1895
 7168TIP3    H142995   6.557   2.854   1.778 -0.9975  1.3164 -0.1687
 7168TIP3    H242996   6.483   2.722   1.792  1.6353 -0.1395  0.7669
 7169TIP3   OH242997   3.159   3.815   4.864  0.0525  0.2566 -0.1508
 7169TIP3    H142998   3.067   3.795   4.882 -0.0522  0.4269 -0.4973
 7169TIP3    H242999   3.158   3.867   4.784  0.3319  1.5408  0.6407
 7170TIP3   OH243000   4.286   0.663  13.336  0.0281 -0.4145 -0.4996
 7170TIP3    H143001   4.277   0.744  13.286 -2.3781  0.7457  1.5802
 7170TIP3    H243002   4.371   0.671  13.380 -0.7525  1.7178  0.7587
 7171TIP3   OH243003   5.913   0.626   4.416 -0.9266  0.0161 -0.1473
 7171TIP3    H143004   5.851   0.690   4.381 -1.6820 -1.6882 -2.0855
 7171TIP3    H243005   5.893   0.622   4.510 -0.3159  3.1175  0.2510
 7172TIP3   OH243006   6.567   3.367   3.528  0.2181 -0.2631 -0.4303
 7172TIP3    H143007   6.511   3.314   3.584  1.3462  0.4430  1.4314
 7172TIP3    H243008   6.507   3.415   3.471 -1.6099  3.6775  4.1742
 7173TIP3   OH243009   1.379   0.608  16.117 -0.1897 -0.2239  0.2026
 7173TIP3    H143010   1.375   0.517  16.086  0.3950 -0.1290 -0.1581
 7173TIP3    H243011   1.459   0.611  16.169 -0.1463  0.1201  0.1152
 7174TIP3   OH243012   4.877   4.787   3.145  0.1234 -0.6218 -0.0678
 7174TIP3    H143013   4.954   4.736   3.170  0.7004  0.7521  1.1581
 7174TIP3    H243014   4.803   4.732   3.169  0.7113 -1.8467 -0.9851
 7175TIP3   OH243015   2.460   4.012   2.878  0.2288 -0.4984  0.1738
 7175TIP3    H143016   2.449   3.943   2.944 -0.2766 -0.1045  0.5038
 7175TIP3    H243017   2.507   4.082   2.924  0.7452 -0.6196 -0.1624
 7176TIP3   OH243018   4.346   2.720  15.312 -0.2544  0.2417 -0.1761
 7176TIP3    H143019   4.340   2.632  15.276  0.6941 -0.1616  0.6038
 7176TIP3    H243020   4.435   2.748  15.291  0.2034  0.1439  1.4502
 7177TIP3   OH243021   1.483   3.131  16.887  0.2495 -0.3717  0.5791
 7177TIP3    H143022   1.536   3.154  16.963 -0.7435  0.3245  1.0894
 7177TIP3    H243023   1.526   3.176  16.814  0.2903  0.3238  1.0147
 7178TIP3   OH243024   4.054   2.850  12.353 -0.2848 -0.1318  0.1767
 7178TIP3    H143025   4.127   2.790  12.371 -0.1650 -0.2951 -0.8093
 7178TIP3    H243026   4.013   2.815  12.274 -0.5865  0.7454 -0.0659
 7179TIP3   OH243027   4.463   1.679   1.581  0.0615  0.1551 -0.0766
 7179TIP3    H143028   4.375   1.671   1.546  0.6938  0.2440 -1.7734
 7179TIP3    H243029   4.514   1.719   1.511  0.8517  2.9053  1.9077
 7180TIP3   OH243030   3.867   0.957   2.250 -0.3562 -0.5373 -0.3167
 7180TIP3    H143031   3.833   1.010   2.322  0.0923 -2.4289  1.3951
 7180TIP3    H243032   3.799   0.960   2.183 -0.9817  0.9343  0.3507
 7181TIP3   OH243033   2.978   2.755  17.227  0.3714 -0.0869  0.3415
 7181TIP3    H143034   3.028   2.721  17.301 -0.9256 -0.3873  1.1044
 7181TIP3    H243035   2.929   2.829  17.263 -0.7509 -0.6145 -0.0370
 7182TIP3   OH243036   1.951   0.850  14.442 -0.2852  0.4018 -0.4202
 7182TIP3    H143037   1.870   0.877  14.486 -0.2963 -0.1062 -0.1198
 7182TIP3    H243038   1.927   0.772  14.392 -0.1273  0.6223 -0.8409
 7183TIP3   OH243039   4.104   0.333   1.308 -0.0947 -0.4632 -0.6836
 7183TIP3    H143040   4.097   0.354   1.214 -0.8407 -1.2493 -0.8096
 7183TIP3    H243041   4.138   0.413   1.347 -3.1422  1.1938 -1.0962
 7184TIP3   OH243042   6.063   3.351  13.939 -0.0113 -0.1722  0.1807
 7184TIP3    H143043   6.114   3.381  13.864 -0.3879 -0.1491 -0.0723
 7184TIP3    H243044   6.000   3.422  13.955 -0.5737 -0.6050 -0.1019
 7185TIP3   OH243045   1.149   2.068  14.407 -0.1205 -0.3104  0.2129
 7185TIP3    H143046   1.204   2.139  14.439 -0.1902  0.3676 -1.0886
 7185TIP3    H243047   1.191   2.040  14.326 -1.2751 -0.2644 -0.4279
 7186TIP3   OH243048   3.916   2.867  13.689  0.2876  0.7203 -0.0530
 7186TIP3    H143049   3.890   2.918  13.765  1.6175 -0.4264  1.2376
 7186TIP3    H243050   3.996   2.909  13.657  0.9212 -0.0303  0.5076
 7187TIP3   OH243051   4.933   6.199   4.306 -0.2635  0.5745  0.7490
 7187TIP3    H143052   5.021   6.162   4.292 -1.3640 -1.4248 -1.6825
 7187TIP3    H243053   4.895   6.145   4.375 -1.0197 -1.5440 -1.1841
 7188TIP3   OH243054   2.282   1.881  12.011  0.2068  0.1671  0.1528
 7188TIP3    H143055   2.361   1.936  12.007  0.2802  0.1778  1.3745
 7188TIP3    H243056   2.270   1.850  11.921  1.0064  1.0027 -0.2587
 7189TIP3   OH243057   3.623   4.017  16.496  0.1556  0.5940 -0.0477
 7189TIP3    H143058   3.546   3.960  16.489  1.3005 -1.1065  0.5945
 7189TIP3    H243059   3.594   4.100  16.457 -0.5404 -1.4265 -4.5970
 7190TIP3   OH243060   1.264   0.383   2.529 -0.0032  0.5656 -0.2562
 7190TIP3    H143061   1.288   0.298   2.491 -1.1183  0.1329 -0.0168
 7190TIP3    H243062   1.169   0.382   2.532 -0.0167  0.1500  3.4700
 7191TIP3   OH243063   5.785   3.433   5.546 -0.5629 -0.5062 -0.2416
 7191TIP3    H143064   5.767   3.361   5.606 -1.5175 -0.8966 -0.9673
 7191TIP3    H243065   5.743   3.509   5.586  0.3091 -0.3790  0.4470
 7192TIP3   OH243066   6.349   2.013  16.470 -0.0008 -0.1642 -0.5452
 7192TIP3    H143067   6.361   1.922  16.495 -1.8080 -0.1683  0.4966
 7192TIP3    H243068   6.375   2.017  16.378 -0.4518 -1.8587 -0.7709
 7193TIP3   OH243069   6.004   6.351  14.046 -0.5127 -0.2622  0.0613
 7193TIP3    H143070   5.975   6.335  13.956 -1.2623  1.8777 -0.1193
 7193TIP3    H243071   5.929   6.391  14.089  0.1692 -0.3512  1.3797
 7194TIP3   OH243072   0.837   5.163   5.948 -0.5896 -0.0229  0.4643
 7194TIP3    H143073   0.846   5.068   5.954 -1.2450 -0.1617 -0.5193
 7194TIP3    H243074   0.924   5.197   5.967  0.2059 -0.9350 -1.3560
 7195TIP3   OH243075   5.622   0.791   2.818  0.4495  0.1502  0.3155
 7195TIP3    H143076   5.548   0.812   2.762  0.6483  0.5634  0.2032
 7195TIP3    H243077   5.589   0.803   2.907  0.0199 -0.8842  0.3076
 7196TIP3   OH243078   2.917   4.755  13.426 -0.5339  0.1863  0.0811
 7196TIP3    H143079   2.946   4.664  13.439 -0.2900  0.0674 -1.1665
 7196TIP3    H243080   2.999   4.805  13.422 -0.5702  0.1546 -1.3178
 7197TIP3   OH243081   1.700   3.239  12.512  0.3643 -0.5729  0.0562
 7197TIP3    H143082   1.670   3.304  12.575  0.4486 -0.5864  0.1106
 7197TIP3    H243083   1.662   3.157  12.542 -0.1019 -0.4736 -0.2613
 7198TIP3   OH243084   1.158   2.250   1.388  0.3481  0.5243  0.9505
 7198TIP3    H143085   1.064   2.245   1.409  0.1695 -1.5245 -0.1415
 7198TIP3    H243086   1.161   2.291   1.302  0.4539  0.4230  0.9068
 7199TIP3   OH243087   2.463   2.996  11.800  0.0532 -0.5820 -0.1077
 7199TIP3    H143088   2.373   2.964  11.805  0.2848 -1.3178 -0.4393
 7199TIP3    H243089   2.513   2.934  11.855  0.0333  1.1244  1.9788
 7200TIP3   OH243090   1.893   3.372  16.484 -0.3163  0.3308  0.1416
 7200TIP3    H143091   1.964   3.362  16.420  0.0878  0.8481  0.4997
 7200TIP3    H243092   1.824   3.418  16.435  0.0598  0.8813  0.1112
 7201TIP3   OH243093   0.736   6.443   4.916 -0.0912  0.0950  0.1757
 7201TIP3    H143094   0.670   6.430   4.848 -1.2767  1.6923  0.9446
 7201TIP3    H243095   0.702   6.397   4.992  0.3696 -0.2360  0.1826
 7202TIP3   OH243096   3.286   5.468  10.802  0.1330  0.4446  0.2474
 7202TIP3    H143097   3.355   5.530  10.779 -0.3140  0.6185 -0.6575
 7202TIP3    H243098   3.267   5.488  10.894  0.0747  1.5765  0.0101
 7203TIP3   OH243099   0.929   2.057  13.020 -0.2989 -0.0635 -0.2512
 7203TIP3    H143100   0.835   2.038  13.019 -0.3598  0.0852  1.1014
 7203TIP3    H243101   0.950   2.071  13.112  1.1675 -0.6333 -0.4643
 7204TIP3   OH243102   2.614   5.626   2.101 -0.2322  0.1463 -0.0669
 7204TIP3    H143103   2.580   5.609   2.189 -0.8706 -1.6300 -0.6240
 7204TIP3    H243104   2.571   5.562   2.045  2.1773 -0.5682 -1.2415
 7205TIP3   OH243105   6.245   5.169  12.734  0.1944  0.3174  0.3004
 7205TIP3    H143106   6.288   5.084  12.742 -2.1677 -0.9037  1.0151
 7205TIP3    H243107   6.224   5.194  12.824 -1.2565  0.4564 -0.0528
 7206TIP3   OH243108   5.830   1.296   3.758 -0.3786 -0.0849 -0.6587
 7206TIP3    H143109   5.785   1.312   3.675 -1.4135 -2.2901 -0.5936
 7206TIP3    H243110   5.803   1.370   3.813 -1.5659  0.1997 -1.5600
 7207TIP3   OH243111   0.458   1.418  15.009  0.3113  0.5581  0.4285
 7207TIP3    H143112   0.472   1.508  15.039  0.1799  0.5334  0.5652
 7207TIP3    H243113   0.502   1.414  14.924 -0.0666  0.8829  0.2145
 7208TIP3   OH243114   4.355   2.581  17.148  0.7243 -0.4167  0.9730
 7208TIP3    H143115   4.303   2.607  17.072  1.8299  1.0232  0.6671
 7208TIP3    H243116   4.307   2.616  17.223 -0.1628 -1.5079  0.9541
 7209TIP3   OH243117   3.786   3.601  17.233 -0.3660 -0.1269 -0.0113
 7209TIP3    H143118   3.857   3.550  17.272 -0.2048 -0.4913 -0.7463
 7209TIP3    H243119   3.813   3.692  17.242 -1.0107 -0.0979  2.0055
 7210TIP3   OH243120   4.226   1.690  13.452  0.4447 -0.4351  0.0924
 7210TIP3    H143121   4.138   1.658  13.473  0.6736  0.0197  1.8666
 7210TIP3    H243122   4.214   1.738  13.370 -0.4654 -2.4259 -1.0035
 7211TIP3   OH243123   1.825   3.157   5.366  0.0567  0.1867  0.4422
 7211TIP3    H143124   1.812   3.066   5.394  0.9811 -0.0683  0.0632
 7211TIP3    H243125   1.736   3.192   5.358 -0.3026 -0.6170  0.8088
 7212TIP3   OH243126   0.431   4.395   5.634  0.3077  0.2823 -0.0210
 7212TIP3    H143127   0.415   4.472   5.578  0.3530  2.3190  2.5669
 7212TIP3    H243128   0.345   4.375   5.671  0.4133 -0.5834 -0.2294
 7213TIP3   OH243129   6.164   5.578  10.547 -0.7629 -0.1103  0.2253
 7213TIP3    H143130   6.129   5.666  10.559  0.7171  1.0824 -2.9484
 7213TIP3    H243131   6.099   5.533  10.493 -0.0387  0.2557 -1.0080
 7214TIP3   OH243132   5.264   5.736   6.752  0.0449  0.7471 -0.0994
 7214TIP3    H143133   5.199   5.667   6.766  1.5073 -0.8531 -0.7812
 7214TIP3    H243134   5.214   5.807   6.712 -1.3018 -0.4315 -0.6354
 7215TIP3   OH243135   3.703   5.665   4.732  0.1355 -0.3896 -0.1992
 7215TIP3    H143136   3.617   5.647   4.769  0.2985 -0.8996 -0.0606
 7215TIP3    H243137   3.722   5.589   4.678  0.6275 -0.4186  0.0087
 7216TIP3   OH243138   4.828   1.303  11.124 -0.1357  0.2392 -0.0423
 7216TIP3    H143139   4.895   1.236  11.107 -1.5140 -0.6772 -2.2891
 7216TIP3    H243140   4.865   1.384  11.089  0.5208  0.1343  0.3966
 7217TIP3   OH243141   0.235   3.179  11.488  0.5388  0.1205 -0.6160
 7217TIP3    H143142   0.165   3.238  11.518 -1.9524 -2.6839 -0.4683
 7217TIP3    H243143   0.251   3.204  11.397 -0.4556  0.9980 -0.5641
 7218TIP3   OH243144   1.054   4.435  16.514 -0.6111 -0.1247 -0.1502
 7218TIP3    H143145   0.963   4.455  16.493 -1.3913 -1.3178  1.8800
 7218TIP3    H243146   1.092   4.520  16.537 -1.0878  0.4284 -1.3077
 7219TIP3   OH243147   2.073   2.624   0.719 -0.4430  0.1990  0.5385
 7219TIP3    H143148   1.993   2.662   0.681  1.7257  2.6222 -2.0966
 7219TIP3    H243149   2.129   2.699   0.736  1.6966 -1.4779  1.3135
 7220TIP3   OH243150   5.183   0.529   5.666 -0.3125  0.4914  0.0044
 7220TIP3    H143151   5.097   0.488   5.666 -1.0690  2.0057 -1.1442
 7220TIP3    H243152   5.217   0.513   5.578 -0.6147  2.2708 -0.4614
 7221TIP3   OH243153   5.052   1.406   1.841  0.1367  0.7668  0.0734
 7221TIP3    H143154   5.071   1.483   1.894  0.2522  1.5703 -1.0994
 7221TIP3    H243155   5.055   1.333   1.903  1.8973  1.4731  0.8726
 7222TIP3   OH243156   1.978   2.282  12.758  0.3992  0.8083 -0.2054
 7222TIP3    H143157   2.005   2.252  12.671  0.5487  2.4111 -0.7484
 7222TIP3    H243158   1.884   2.264  12.761  0.9472 -2.4983  0.7256
 7223TIP3   OH243159   5.275   5.890  13.699 -0.2742 -0.0126  0.5172
 7223TIP3    H143160   5.310   5.890  13.789  0.4568 -1.1629  0.2542
 7223TIP3    H243161   5.342   5.937  13.648  0.0454 -0.6790  0.3182
 7224TIP3   OH243162   5.123   0.906  16.757 -0.1702  0.0122 -0.6285
 7224TIP3    H143163   5.114   0.857  16.838  0.8435 -2.3729 -1.8368
 7224TIP3    H243164   5.034   0.931  16.733 -0.7672 -1.4175 -0.0174
 7225TIP3   OH243165   3.627   4.012   0.645 -0.2324  0.3840 -0.4874
 7225TIP3    H143166   3.574   3.936   0.621 -0.2061 -0.0364  0.7452
 7225TIP3    H243167   3.605   4.029   0.736  0.4813  1.2704 -0.4692
 7226TIP3   OH243168   5.587   3.200  10.909  0.2157  0.4922 -0.0745
 7226TIP3    H143169   5.507   3.228  10.953 -0.1955 -0.8159  0.0353
 7226TIP3    H243170   5.636   3.282  10.894 -1.5574  1.4440 -1.0422
 7227TIP3   OH243171   4.768   4.906  16.806  0.5342  0.1903  0.0024
 7227TIP3    H143172   4.782   4.813  16.824 -2.4886 -0.3306  0.2205
 7227TIP3    H243173   4.720   4.908  16.724  1.2163  1.6309 -0.3994
 7228TIP3   OH243174   2.593   0.935   2.499  0.4765  0.0359  0.2072
 7228TIP3    H143175   2.553   0.946   2.586  0.2288  0.4359  0.0493
 7228TIP3    H243176   2.650   1.012   2.490  0.4956 -0.0027  0.0120
 7229TIP3   OH243177   6.442   1.396  16.337 -0.1930 -0.7253  0.3035
 7229TIP3    H143178   6.353   1.429  16.346 -0.5553 -1.5711 -0.0923
 7229TIP3    H243179   6.434   1.301  16.346  0.6926 -0.7942  0.4707
 7230TIP3   OH243180   5.518   5.373   0.649  0.0777  0.0924 -0.1481
 7230TIP3    H143181   5.587   5.437   0.664 -0.4625  0.7865 -0.5546
 7230TIP3    H243182   5.541   5.299   0.706  2.3063 -0.6228 -1.8377
 7231TIP3   OH243183   6.642   2.338   5.441 -0.4507  0.1757 -0.0310
 7231TIP3    H143184   6.621   2.420   5.396 -0.9985  0.9063  1.4521
 7231TIP3    H243185   6.655   2.274   5.371 -1.8285  1.0981 -1.1964
 7232TIP3   OH243186   4.874   5.827   9.942  0.1498 -1.0439 -0.0189
 7232TIP3    H143187   4.934   5.822  10.016 -2.5148  1.5315  2.5919
 7232TIP3    H243188   4.788   5.807   9.979 -1.6326  2.2720 -1.8362
 7233TIP3   OH243189   5.113   1.142  14.231  0.3864  0.3229 -0.4058
 7233TIP3    H143190   5.128   1.212  14.295 -3.1779  0.3612  0.5968
 7233TIP3    H243191   5.115   1.187  14.146 -1.2911  1.6164  0.1887
 7234TIP3   OH243192   5.316   0.469  13.753 -0.0479  0.1947  0.0532
 7234TIP3    H143193   5.229   0.481  13.791 -0.1993  0.8951 -0.5069
 7234TIP3    H243194   5.376   0.504  13.819 -0.3992  2.8793 -0.9479
 7235TIP3   OH243195   2.592   1.713   3.243  0.0399  0.6562 -0.2178
 7235TIP3    H143196   2.591   1.809   3.246  2.4372  0.7746 -0.9032
 7235TIP3    H243197   2.628   1.687   3.328  0.2804  0.4142 -0.3938
 7236TIP3   OH243198   2.166   6.682  11.111 -0.6040 -0.4443  0.0246
 7236TIP3    H143199   2.193   6.700  11.201 -0.6568  0.0197 -0.0474
 7236TIP3    H243200   2.204   6.754  11.060 -1.0959 -0.3525 -0.2282
 7237TIP3   OH243201   5.689   4.885   0.692 -0.2471  0.1333 -0.7074
 7237TIP3    H143202   5.649   4.851   0.773 -1.3947 -2.6084 -2.2947
 7237TIP3    H243203   5.772   4.925   0.721 -0.2971 -1.3514  1.7438
 7238TIP3   OH243204   1.661   6.699  12.265 -0.2541 -0.3990  0.4290
 7238TIP3    H143205   1.730   6.748  12.311 -0.2773 -0.8463  0.9397
 7238TIP3    H243206   1.635   6.631  12.326 -0.2111 -1.0680 -0.2871
 7239TIP3   OH243207   2.614   5.571   4.399  0.5773 -0.0306 -0.0023
 7239TIP3    H143208   2.641   5.497   4.454 -0.6893 -0.4615  0.0761
 7239TIP3    H243209   2.639   5.546   4.310 -0.2897 -0.7834 -0.0416
 7240TIP3   OH243210   2.697   0.565  11.083  0.0048 -0.4789 -0.4044
 7240TIP3    H143211   2.672   0.552  11.174  1.1902 -1.2463 -0.1685
 7240TIP3    H243212   2.784   0.604  11.086 -1.0600  2.1480 -1.2102
 7241TIP3   OH243213   5.316   5.371  15.424  0.6641  0.3435  0.3505
 7241TIP3    H143214   5.299   5.277  15.429 -0.3898  0.5503  0.9253
 7241TIP3    H243215   5.229   5.411  15.428  1.1818  1.4134  2.2783
 7242TIP3   OH243216   2.293   4.013   6.536  0.1034  0.7127 -0.0835
 7242TIP3    H143217   2.332   3.929   6.513  0.0682  0.8627 -0.7047
 7242TIP3    H243218   2.346   4.045   6.609  0.1035  0.1452  0.1722
 7243TIP3   OH243219   4.601   4.131  14.786  0.4264 -0.3989 -0.5953
 7243TIP3    H143220   4.668   4.089  14.841 -1.8173  1.4310  4.1241
 7243TIP3    H243221   4.586   4.215  14.829 -1.3505  1.5005 -4.5162
 7244TIP3   OH243222   2.786   2.706  15.326 -0.1838  0.3012  0.2180
 7244TIP3    H143223   2.849   2.635  15.334 -1.5144 -0.8602  0.8102
 7244TIP3    H243224   2.838   2.785  15.340  1.5274 -0.4437 -1.5077
 7245TIP3   OH243225   3.881   1.840   4.440 -0.4017 -0.7402 -0.0775
 7245TIP3    H143226   3.907   1.850   4.348 -0.9391 -1.9716 -0.3868
 7245TIP3    H243227   3.818   1.768   4.439 -0.0168 -1.1241  1.3381
 7246TIP3   OH243228   5.024   4.701   1.337  0.6364  0.6424  0.4958
 7246TIP3    H143229   5.016   4.738   1.249  0.3750 -1.5464 -0.4547
 7246TIP3    H243230   4.951   4.740   1.385  0.0652  0.9831 -0.5999
 7247TIP3   OH243231   6.680   6.007  14.243 -0.7554  0.3465  0.1170
 7247TIP3    H143232   6.719   6.094  14.253 -0.3212  0.0162  1.5991
 7247TIP3    H243233   6.600   6.011  14.296 -1.5343  0.2861 -1.0196
 7248TIP3   OH243234   1.591   3.615  16.167 -0.4583  0.3577  0.1459
 7248TIP3    H143235   1.550   3.701  16.159  0.3475  0.8147  0.7487
 7248TIP3    H243236   1.658   3.615  16.099 -0.9193 -0.0742 -0.3129
 7249TIP3   OH243237   1.293   1.445   3.625  0.0345 -0.3440 -0.8026
 7249TIP3    H143238   1.278   1.365   3.675 -0.5679 -0.1839 -0.7220
 7249TIP3    H243239   1.210   1.493   3.630  0.2730  0.1164 -1.1535
 7250TIP3   OH243240   5.745   0.550   0.589 -0.2100  0.0753  0.3338
 7250TIP3    H143241   5.701   0.634   0.602 -1.0310 -0.2495 -0.3117
 7250TIP3    H243242   5.688   0.486   0.632  0.4793 -0.1418  0.9413
 7251TIP3   OH243243   1.619   2.481   3.687 -0.1766 -0.0285  0.0238
 7251TIP3    H143244   1.712   2.458   3.689 -0.5099 -1.4673  1.3677
 7251TIP3    H243245   1.592   2.477   3.779 -1.3216  1.5384 -0.2105
 7252TIP3   OH243246   4.067   0.700   0.759 -0.3010  0.6514 -0.0868
 7252TIP3    H143247   4.140   0.752   0.791  1.6324  0.8275 -4.1351
 7252TIP3    H243248   3.990   0.756   0.771  0.9356  2.3479  0.2614
 7253TIP3   OH243249   3.629   0.806  13.025  0.0108 -0.6062  0.4924
 7253TIP3    H143250   3.535   0.786  13.024  0.0286 -0.7859 -1.5400
 7253TIP3    H243251   3.633   0.899  13.046 -0.4972 -0.9383  2.2560
 7254TIP3   OH243252   4.891   0.664   4.957  0.0822  0.1009  0.5303
 7254TIP3    H143253   4.799   0.659   4.929  0.5645 -2.0405 -0.9376
 7254TIP3    H243254   4.935   0.596   4.906  2.4901  1.0029  1.2785
 7255TIP3   OH243255   2.056   6.057  10.776  0.1716  0.2409 -0.2299
 7255TIP3    H143256   2.014   6.120  10.717  0.4840 -0.0208 -0.7430
 7255TIP3    H243257   2.006   5.977  10.765  0.4999  0.0658 -0.4776
 7256TIP3   OH243258   4.807   1.165   5.920  0.5809 -0.0218  0.0814
 7256TIP3    H143259   4.877   1.099   5.927  0.0918 -0.4816  0.7765
 7256TIP3    H243260   4.735   1.128   5.971 -1.3850 -1.1090 -3.1617
 7257TIP3   OH243261   2.460   5.317  12.806 -0.0880 -0.5288  0.0410
 7257TIP3    H143262   2.457   5.292  12.713  0.1164  0.7447 -0.3259
 7257TIP3    H243263   2.497   5.241  12.850 -0.4577 -1.2636 -0.8806
 7258TIP3   OH243264   5.354   0.136   5.984  0.4199  0.3379 -0.4798
 7258TIP3    H143265   5.352   0.043   5.961  1.0636  0.2440 -0.1783
 7258TIP3    H243266   5.309   0.142   6.067 -0.0841  0.3728 -0.7550
 7259TIP3   OH243267   4.624   2.539   5.454 -0.4866 -0.7369  0.4182
 7259TIP3    H143268   4.686   2.546   5.382  0.9858  0.4520  1.7546
 7259TIP3    H243269   4.575   2.621   5.452 -0.0339 -0.4467  1.1261
 7260TIP3   OH243270   5.411   6.175   1.561  0.1084  0.0449 -0.1606
 7260TIP3    H143271   5.330   6.135   1.591  1.2642 -1.2916  1.4117
 7260TIP3    H243272   5.390   6.268   1.551 -2.4823 -0.7039 -3.2171
 7261TIP3   OH243273   5.627   1.788  15.210  0.0612  0.3165  0.9735
 7261TIP3    H143274   5.672   1.862  15.169  0.4549  0.0418  0.9016
 7261TIP3    H243275   5.537   1.818  15.222 -0.4738 -0.1095 -1.4652
 7262TIP3   OH243276   2.123   5.957   1.509 -0.4000  0.0943 -0.5971
 7262TIP3    H143277   2.045   5.954   1.565 -0.7046  0.9992 -0.9524
 7262TIP3    H243278   2.193   5.990   1.566 -0.6557  0.7961 -0.6759
 7263TIP3   OH243279   1.375   6.735   0.160 -0.1552 -0.4648 -0.3142
 7263TIP3    H143280   1.396   6.644   0.182  0.4158 -0.3211 -0.2338
 7263TIP3    H243281   1.381   6.739   0.065  0.1334 -0.4387 -0.2952
 7264TIP3   OH243282   2.442   3.746  12.581 -0.1569 -0.5329  0.2829
 7264TIP3    H143283   2.438   3.817  12.645 -1.9678 -0.5442  0.2421
 7264TIP3    H243284   2.468   3.789  12.499 -0.8704  0.0296  0.3461
 7265TIP3   OH243285   0.166   1.755  16.371  0.3643 -0.2145  0.0037
 7265TIP3    H143286   0.214   1.751  16.453  1.0083  0.9643 -0.2900
 7265TIP3    H243287   0.097   1.689  16.380  0.0219  0.3225  1.7371
 7266TIP3   OH243288   5.829   5.589   3.588  0.1140  0.2344  0.1623
 7266TIP3    H143289   5.865   5.637   3.663 -1.0791 -0.1086  0.9839
 7266TIP3    H243290   5.766   5.650   3.550 -0.7031 -0.3078  0.6280
 7267TIP3   OH243291   5.167   4.381  15.025  0.2053  0.0241 -0.1553
 7267TIP3    H143292   5.175   4.329  15.105 -0.9988 -1.4503 -0.9332
 7267TIP3    H243293   5.081   4.357  14.990 -0.4382  2.6266 -0.5484
 7268TIP3   OH243294   1.505   2.159  12.868  0.8042  0.0305 -0.2438
 7268TIP3    H143295   1.504   2.096  12.940  1.3185 -1.3522 -1.3890
 7268TIP3    H243296   1.517   2.244  12.910  1.1750 -0.7429  1.2863
 7269TIP3   OH243297   5.520   3.941  15.052 -0.4854 -0.3180  0.2297
 7269TIP3    H143298   5.426   3.959  15.061 -0.4917 -0.3783  0.2799
 7269TIP3    H243299   5.534   3.860  15.101 -0.9151 -1.8630 -2.0464
 7270TIP3   OH243300   1.229   1.950  14.646  0.3825  0.9954 -0.8371
 7270TIP3    H143301   1.186   1.999  14.576 -1.3112  1.4292  0.4227
 7270TIP3    H243302   1.209   1.858  14.627  0.9378  1.0071 -1.5319
 7271TIP3   OH243303   0.821   4.828   5.443  0.4961  0.3360 -0.3450
 7271TIP3    H143304   0.845   4.787   5.360  0.8466  0.1031 -0.1295
 7271TIP3    H243305   0.766   4.763   5.487  1.3544 -0.0699  0.1593
 7272TIP3   OH243306   3.060   6.481  12.100 -0.0311 -0.0036 -0.3848
 7272TIP3    H143307   3.014   6.514  12.023 -0.4879  1.6973  0.5725
 7272TIP3    H243308   3.048   6.549  12.166  0.7916 -1.1844  1.0350
 7273TIP3   OH243309   1.128   6.152  12.371 -0.2949 -0.5157  0.1145
 7273TIP3    H143310   1.042   6.142  12.329  0.4787 -1.5276 -1.3263
 7273TIP3    H243311   1.163   6.063  12.374  0.4760 -0.1852  1.2032
 7274TIP3   OH243312   0.919   3.222  17.076 -0.0899 -0.0220 -0.7029
 7274TIP3    H143313   0.831   3.186  17.072 -0.4621  0.9747 -2.0350
 7274TIP3    H243314   0.976   3.150  17.051 -0.5167 -0.6213 -0.0036
 7275TIP3   OH243315   2.610   5.841   4.347  0.3450  0.3445 -0.6724
 7275TIP3    H143316   2.555   5.852   4.269 -0.3124 -0.3196 -0.3180
 7275TIP3    H243317   2.578   5.760   4.388  0.1020  1.1046  0.7292
 7276TIP3   OH243318   2.004   2.329   3.364  0.1558 -0.5076  0.1654
 7276TIP3    H143319   2.048   2.300   3.444  0.3085  0.7776  0.5671
 7276TIP3    H243320   1.912   2.305   3.376 -0.2207  1.4208  1.6404
 7277TIP3   OH243321   4.703   4.109  11.507  0.5136 -0.1438  1.3111
 7277TIP3    H143322   4.618   4.130  11.545  0.0740  1.9031 -0.5590
 7277TIP3    H243323   4.683   4.051  11.433  0.6148  0.9583  0.3948
 7278TIP3   OH243324   4.994   4.373   4.282  0.7156 -0.3759 -0.0785
 7278TIP3    H143325   4.997   4.438   4.213 -0.1164 -0.2111  0.0398
 7278TIP3    H243326   4.981   4.423   4.363  1.3881 -0.5903  0.1771
 7279TIP3   OH243327   0.230   3.944  12.689 -0.3061  0.3032 -0.9718
 7279TIP3    H143328   0.154   3.994  12.720  0.7045 -0.1817  2.7541
 7279TIP3    H243329   0.297   4.011  12.674  0.2114  0.3720  1.3574
 7280TIP3   OH243330   1.646   5.703   4.344  1.2693 -0.2203  0.0090
 7280TIP3    H143331   1.659   5.744   4.259  3.9264  0.4198  0.6294
 7280TIP3    H243332   1.651   5.775   4.407 -2.1448 -0.4592  0.7242
 7281TIP3   OH243333   2.955   3.776  15.684  0.2996 -0.2851  0.2348
 7281TIP3    H143334   2.939   3.863  15.646 -4.6229 -0.5735  0.9718
 7281TIP3    H243335   2.988   3.794  15.772  0.8299  0.7406 -0.1543
 7282TIP3   OH243336   2.184   6.640   5.627 -0.0099 -0.0479 -0.3793
 7282TIP3    H143337   2.217   6.730   5.632 -0.1857 -0.0448  3.0940
 7282TIP3    H243338   2.089   6.650   5.625 -0.0291 -0.1608 -0.0119
 7283TIP3   OH243339   4.303   3.920  12.833  0.4341 -0.4138  0.4514
 7283TIP3    H143340   4.213   3.954  12.837  0.9353  1.4139 -1.7734
 7283TIP3    H243341   4.300   3.855  12.763  0.9576  0.0877 -0.0441
 7284TIP3   OH243342   0.883   0.895   4.332 -0.4578  0.0726 -0.5305
 7284TIP3    H143343   0.812   0.843   4.294 -1.1600  1.2183 -0.8228
 7284TIP3    H243344   0.840   0.967   4.377  0.4229 -0.4745  1.3226
 7285TIP3   OH243345   4.743   5.604  16.143 -0.2342 -0.0429 -0.6974
 7285TIP3    H143346   4.684   5.649  16.204  1.8301 -0.7663  2.0302
 7285TIP3    H243347   4.686   5.545  16.095 -1.7144 -1.7674  2.7751
 7286TIP3   OH243348   3.288   0.398   4.977 -0.4910  0.3314 -0.2593
 7286TIP3    H143349   3.347   0.448   4.920 -0.0678  1.4629  1.1189
 7286TIP3    H243350   3.214   0.376   4.920  0.9137 -0.5765 -1.8628
 7287TIP3   OH243351   5.513   4.947  13.812  0.1268  0.4243 -0.2764
 7287TIP3    H143352   5.552   5.008  13.875 -1.2215  1.3788 -0.3198
 7287TIP3    H243353   5.558   4.966  13.730 -0.3111  1.4118 -0.2998
 7288TIP3   OH243354   1.271   4.465   2.508  0.3177  0.7240  0.2570
 7288TIP3    H143355   1.360   4.436   2.489 -0.1399 -0.3749 -0.2724
 7288TIP3    H243356   1.251   4.529   2.440  0.2285 -0.0293 -0.4376
 7289TIP3   OH243357   4.708   2.366  13.420  0.2718 -0.2169 -0.1835
 7289TIP3    H143358   4.699   2.278  13.459 -0.4755 -0.6500 -1.2976
 7289TIP3    H243359   4.682   2.355  13.329 -0.7650  1.3688 -0.1085
 7290TIP3   OH243360   3.276   5.878   4.705 -0.1961 -0.3019  0.1963
 7290TIP3    H143361   3.232   5.794   4.698 -2.1120  0.7018 -0.4497
 7290TIP3    H243362   3.341   5.878   4.634 -0.6549 -0.9629 -0.2286
 7291TIP3   OH243363   4.628   5.094  12.794 -0.1610 -0.5590  0.0995
 7291TIP3    H143364   4.579   5.031  12.742 -1.0647 -0.3368  0.6542
 7291TIP3    H243365   4.627   5.175  12.743 -1.0587 -0.3364  0.4641
 7292TIP3   OH243366   1.876   3.681  13.837 -0.5309  0.2534 -0.6860
 7292TIP3    H143367   1.961   3.693  13.795  0.3325 -1.2186  0.5223
 7292TIP3    H243368   1.853   3.768  13.869  0.3076  0.7650 -1.4214
 7293TIP3   OH243369   5.162   1.187  14.693  0.1753  0.4137  0.2272
 7293TIP3    H143370   5.115   1.109  14.665  0.6059  0.3536 -0.3344
 7293TIP3    H243371   5.102   1.259  14.675 -0.2098  0.2211  0.7184
 7294TIP3   OH243372   4.919   5.476   1.158  0.4202 -0.2885 -0.3946
 7294TIP3    H143373   4.962   5.400   1.118  0.8006 -0.3993  0.2161
 7294TIP3    H243374   4.829   5.447   1.172  0.3096 -0.2872 -1.0615
 7295TIP3   OH243375   6.673   5.418   2.989 -0.2760  0.7093 -0.1302
 7295TIP3    H143376   6.622   5.456   2.917  1.6704  2.7207 -0.5684
 7295TIP3    H243377   6.614   5.422   3.065 -0.7757  3.2477 -0.5419
 7296TIP3   OH243378   4.473   5.205   3.187 -0.8130 -0.1591 -0.2693
 7296TIP3    H143379   4.511   5.231   3.103  1.3821 -0.2997  0.6046
 7296TIP3    H243380   4.525   5.129   3.214 -1.7721 -0.3959  1.0018
 7297TIP3   OH243381   1.439   6.637  16.310 -0.2247 -0.2340  0.4617
 7297TIP3    H143382   1.515   6.660  16.256  0.7348 -1.1412  1.3754
 7297TIP3    H243383   1.413   6.550  16.279  0.1900 -0.6599  1.2781
 7298TIP3   OH243384   2.299   3.433   1.864 -0.2678  0.3049  0.2101
 7298TIP3    H143385   2.267   3.522   1.846 -1.5139 -0.2484 -0.4202
 7298TIP3    H243386   2.372   3.446   1.925 -1.2781  1.6739  1.1954
 7299TIP3   OH243387   6.768   4.721  14.381 -0.3017 -0.0368  0.4527
 7299TIP3    H143388   6.695   4.783  14.381  1.8440  2.6747  0.9943
 7299TIP3    H243389   6.802   4.725  14.291 -0.4585 -0.8898  0.3452
 7300TIP3   OH243390   6.141   0.147  11.805 -0.2802  0.0800  0.4395
 7300TIP3    H143391   6.071   0.174  11.864 -0.9460  0.1811 -0.3769
 7300TIP3    H243392   6.119   0.057  11.781  0.2535 -0.1334  0.7154
 7301TIP3   OH243393   6.508   3.892   6.037  0.6218  0.0223 -0.4987
 7301TIP3    H143394   6.456   3.966   6.068  3.3388  1.2224  1.5838
 7301TIP3    H243395   6.540   3.850   6.117  0.4899 -2.4887 -1.6659
 7302TIP3   OH243396   3.881   1.779   5.253  0.0607 -0.1116  0.2899
 7302TIP3    H143397   3.904   1.813   5.166  0.3038  0.6606  0.6474
 7302TIP3    H243398   3.786   1.767   5.250  0.1115 -0.4092 -0.1932
 7303TIP3   OH243399   3.915   3.780  12.545  0.6928  0.0169  0.2645
 7303TIP3    H143400   3.913   3.703  12.602  1.3635 -0.6713 -0.6058
 7303TIP3    H243401   3.967   3.752  12.470 -3.3062 -0.4781 -2.6046
 7304TIP3   OH243402   5.067   3.497  12.722 -0.4165  0.3848 -0.0472
 7304TIP3    H143403   5.045   3.413  12.761  0.2216 -0.3661 -1.2469
 7304TIP3    H243404   5.003   3.558  12.757 -1.1084 -0.6799  0.5607
 7305TIP3   OH243405   5.782   4.001  12.961  0.2749  0.1269  0.6579
 7305TIP3    H143406   5.866   4.021  13.002  0.2866  0.5630  0.4353
 7305TIP3    H243407   5.752   3.921  13.004  1.2186 -0.5313  0.1282
 7306TIP3   OH243408   2.733   5.130  15.903  0.0973  0.4436  0.3743
 7306TIP3    H143409   2.755   5.039  15.882  0.1101  0.5579 -0.1082
 7306TIP3    H243410   2.755   5.139  15.996 -0.8424 -0.3272  0.6852
 7307TIP3   OH243411   6.624   4.474   5.473  0.4776 -0.3079  0.0633
 7307TIP3    H143412   6.715   4.493   5.451  1.1120 -2.3603  0.7062
 7307TIP3    H243413   6.628   4.402   5.536 -1.5643  0.3209  1.0303
 7308TIP3   OH243414   0.665   6.519  12.510 -0.7185  0.1999  0.1148
 7308TIP3    H143415   0.633   6.473  12.432  1.0377  2.1782 -1.9473
 7308TIP3    H243416   0.716   6.454  12.557 -1.9443 -1.0886 -0.2727
 7309TIP3   OH243417   1.501   5.419  11.536  0.1737  0.1863 -0.1522
 7309TIP3    H143418   1.547   5.339  11.561  1.6099  0.7659 -0.7853
 7309TIP3    H243419   1.570   5.485  11.530 -0.6536  0.9835 -1.6744
 7310TIP3   OH243420   3.163   4.390   5.703 -0.6382  0.1303 -0.2071
 7310TIP3    H143421   3.142   4.384   5.610 -0.3887 -0.8524 -0.2043
 7310TIP3    H243422   3.142   4.304   5.739 -1.5799  0.7600  0.8350
 7311TIP3   OH243423   6.527   5.586   6.940  0.6141  0.0546  0.1491
 7311TIP3    H143424   6.596   5.527   6.908  0.3313  0.3467 -1.0520
 7311TIP3    H243425   6.569   5.671   6.946  1.3436 -0.4019  2.9893
 7312TIP3   OH243426   5.674   4.502   5.552  0.3591 -0.8904  0.5772
 7312TIP3    H143427   5.613   4.431   5.575  1.1762 -1.4374  1.1157
 7312TIP3    H243428   5.617   4.574   5.525 -0.5716 -1.0425  2.0290
 7313TIP3   OH243429   5.089   4.734   1.909  0.1015 -0.2480  0.6690
 7313TIP3    H143430   5.105   4.679   1.985  0.2783 -0.9410  0.1395
 7313TIP3    H243431   5.114   4.822   1.937  1.8486 -0.7765  0.8670
 7314TIP3   OH243432   1.263   4.107   0.448  0.3558 -0.0886  0.3435
 7314TIP3    H143433   1.196   4.172   0.428  0.7253 -0.2427 -1.5651
 7314TIP3    H243434   1.268   4.053   0.369  1.6026 -1.0763  1.0637
 7315TIP3   OH243435   1.739   1.526   5.304 -0.6301 -0.5245  0.1287
 7315TIP3    H143436   1.800   1.505   5.233  0.8088 -0.2245  1.2427
 7315TIP3    H243437   1.791   1.520   5.384 -1.6489  1.2744  1.0043
 7316TIP3   OH243438   2.208   0.967  14.501  0.3354  0.2877  0.1222
 7316TIP3    H143439   2.138   0.908  14.472  0.0005  0.1904  1.0976
 7316TIP3    H243440   2.203   1.040  14.439  0.7570 -0.6784 -1.0978
 7317TIP3   OH243441   1.377   6.203  14.782  0.8307  0.3238 -0.3539
 7317TIP3    H143442   1.460   6.184  14.739  0.4899  1.7117 -1.7420
 7317TIP3    H243443   1.316   6.218  14.710 -0.6493 -0.6681  0.6347
 7318TIP3   OH243444   6.372   1.124   1.630 -0.1565  0.6395 -0.5429
 7318TIP3    H143445   6.446   1.124   1.568 -0.4764  0.8406 -0.9268
 7318TIP3    H243446   6.322   1.202   1.607  0.4214  1.4423  0.8175
 7319TIP3   OH243447   0.661   1.202  12.745 -0.3798 -0.1983 -0.3283
 7319TIP3    H143448   0.736   1.186  12.688 -0.9747 -0.1018 -1.1658
 7319TIP3    H243449   0.696   1.253  12.818  0.2831  0.2099 -0.9213
 7320TIP3   OH243450   0.638   0.550   2.591  0.0792  0.0633  0.0213
 7320TIP3    H143451   0.557   0.522   2.634  0.7120 -2.1164 -0.1154
 7320TIP3    H243452   0.694   0.580   2.663 -0.5169  0.7632  0.2054
 7321TIP3   OH243453   4.084   5.036   6.110  0.1724 -0.2840  0.1437
 7321TIP3    H143454   4.026   5.063   6.181  0.2748  0.8572 -0.1861
 7321TIP3    H243455   4.171   5.030   6.151  0.3042  0.7782  0.0339
 7322TIP3   OH243456   4.128   3.328  16.180 -1.0917  0.0728 -0.6089
 7322TIP3    H143457   4.157   3.356  16.093  2.4152 -1.4692 -0.0900
 7322TIP3    H243458   4.174   3.386  16.241  1.0900 -2.4013  0.2739
 7323TIP3   OH243459   0.553   4.625  10.469  0.1092  0.2934 -0.8581
 7323TIP3    H143460   0.470   4.580  10.480 -1.0090  1.7965 -2.4785
 7323TIP3    H243461   0.584   4.643  10.558 -0.9470 -0.8599 -0.2342
 7324TIP3   OH243462   2.418   0.365   1.823 -0.0047 -0.1841  0.4334
 7324TIP3    H143463   2.398   0.443   1.876 -1.1168 -1.4304  1.9467
 7324TIP3    H243464   2.395   0.391   1.733 -3.4237  0.3102  1.3145
 7325TIP3   OH243465   6.291   1.656   0.832  0.3532 -0.0149 -0.2954
 7325TIP3    H143466   6.346   1.732   0.846  2.2758 -1.2338 -0.8890
 7325TIP3    H243467   6.255   1.667   0.744 -0.4085  0.7753  0.0917
 7326TIP3   OH243468   2.139   1.663   5.850 -1.2654  0.1326  0.2680
 7326TIP3    H143469   2.052   1.639   5.883 -1.2291  1.8183  1.7672
 7326TIP3    H243470   2.198   1.643   5.922 -0.9118  2.1441  0.5979
 7327TIP3   OH243471   4.553   4.955   2.105  0.3145 -0.5088 -0.2116
 7327TIP3    H143472   4.619   4.918   2.048 -0.0173 -1.8394  0.2454
 7327TIP3    H243473   4.506   5.018   2.050  1.7384  0.2362 -0.6174
 7328TIP3   OH243474   5.171   0.009   2.427  0.9222  0.1577  0.0863
 7328TIP3    H143475   5.203  -0.071   2.467 -1.9335 -1.9197 -1.3636
 7328TIP3    H243476   5.096   0.034   2.480 -0.7339 -0.6168 -1.7439
 7329TIP3   OH243477   4.649   0.785   1.501 -0.0451  0.4112  0.4918
 7329TIP3    H143478   4.637   0.880   1.494 -0.2683  0.2662 -1.7763
 7329TIP3    H243479   4.566   0.753   1.536 -0.6839  0.8708 -0.5688
 7330TIP3   OH243480   2.271   0.643   0.542  0.2080 -0.0634  0.3487
 7330TIP3    H143481   2.243   0.712   0.482 -0.9586 -0.1375  0.7901
 7330TIP3    H243482   2.348   0.680   0.586 -0.3443  0.9203  0.5148
 7331TIP3   OH243483   4.002   3.305   5.259  0.5267 -0.2472  0.3002
 7331TIP3    H143484   4.086   3.334   5.224  1.3230 -1.3875  1.1749
 7331TIP3    H243485   4.007   3.209   5.258 -1.0021 -0.3572 -0.1671
 7332TIP3   OH243486   4.211   4.070   5.328  0.9216  0.1241  0.0066
 7332TIP3    H143487   4.186   4.030   5.244 -0.5402  0.8263  0.0767
 7332TIP3    H243488   4.307   4.073   5.325  0.9164 -0.2456 -1.4619
 7333TIP3   OH243489   2.315   4.936   4.064  0.0720  0.2269  0.4319
 7333TIP3    H143490   2.272   5.020   4.045  0.0917  0.0752 -0.3445
 7333TIP3    H243491   2.257   4.871   4.025  0.1839 -0.1044  0.8165
 7334TIP3   OH243492   0.774   1.779  10.720 -0.4113 -0.9373 -0.2014
 7334TIP3    H143493   0.811   1.852  10.769  1.4164 -2.5549  0.9962
 7334TIP3    H243494   0.697   1.752  10.770 -2.7488  1.7391 -2.0925
 7335TIP3   OH243495   2.372   2.702   3.705 -0.6027 -0.1265  0.4760
 7335TIP3    H143496   2.434   2.636   3.674  0.2641  0.6302  0.5666
 7335TIP3    H243497   2.419   2.747   3.775 -1.0552  0.8315  0.1686
 7336TIP3   OH243498   2.593   0.012  10.382 -0.0961  0.2719 -0.2404
 7336TIP3    H143499   2.627   0.088  10.430  0.0127 -1.1552  2.0954
 7336TIP3    H243500   2.563   0.048  10.299  1.7185  2.5555 -0.0209
 7337TIP3   OH243501   1.089   0.029  11.609 -0.3323 -0.3911  0.2940
 7337TIP3    H143502   1.062   0.099  11.550 -0.2549  0.8477  1.6888
 7337TIP3    H243503   1.127   0.074  11.685 -0.2462 -1.9421  1.2129
 7338TIP3   OH243504   2.333   2.160   1.669  0.5533  0.7201 -0.3888
 7338TIP3    H143505   2.273   2.171   1.595 -1.1330 -0.9246  0.6588
 7338TIP3    H243506   2.293   2.210   1.740  0.5225 -0.2492  0.2788
 7339TIP3   OH243507   1.498   3.216  12.807  0.5394 -0.0722 -0.2993
 7339TIP3    H143508   1.529   3.156  12.739 -2.0596 -1.7828 -0.1235
 7339TIP3    H243509   1.417   3.252  12.772 -0.0727  0.1598  1.2918
 7340TIP3   OH243510   2.466   5.415  13.148  0.9506 -0.2490 -0.5973
 7340TIP3    H143511   2.493   5.327  13.173 -0.4070 -0.2270  1.1143
 7340TIP3    H243512   2.522   5.473  13.199  0.2744 -0.1645  0.0607
 7341TIP3   OH243513   0.673   3.732  11.485 -0.5966  0.3297  0.1503
 7341TIP3    H143514   0.646   3.759  11.397 -0.0775 -0.4042 -0.2479
 7341TIP3    H243515   0.693   3.638  11.476 -3.5788 -0.5892  1.7610
 7342TIP3   OH243516   0.316   4.497   4.230 -0.1841  0.0820 -0.0679
 7342TIP3    H143517   0.319   4.592   4.246  2.6043 -0.3075  2.6637
 7342TIP3    H243518   0.407   4.473   4.210 -0.8888 -2.0171 -1.0498
 7343TIP3   OH243519   3.844   0.030  12.649 -0.2583  0.7262 -0.1421
 7343TIP3    H143520   3.852  -0.013  12.563  1.6749  2.5525 -0.9841
 7343TIP3    H243521   3.766  -0.008  12.688 -1.4641  0.1002 -2.9064
 7344TIP3   OH243522   6.638   2.064   0.356  0.1444  0.4846  0.2213
 7344TIP3    H143523   6.673   2.129   0.417 -0.7729  2.3142 -1.1024
 7344TIP3    H243524   6.565   2.024   0.404  0.1827  1.0496  0.7678
 7345TIP3   OH243525   0.112   6.242  14.077  0.4727  0.5568  0.3527
 7345TIP3    H143526   0.134   6.323  14.031 -0.4704  0.7318  0.1814
 7345TIP3    H243527   0.162   6.246  14.159  0.5413  1.2496  0.2806
 7346TIP3   OH243528   6.500   2.828   3.421  0.3717 -0.8544  0.4237
 7346TIP3    H143529   6.579   2.775   3.409 -0.1367 -1.5025 -0.1310
 7346TIP3    H243530   6.434   2.785   3.366  0.5155  1.5775 -1.8757
 7347TIP3   OH243531   0.104   1.656   4.938 -0.2715 -0.9235  0.5875
 7347TIP3    H143532   0.199   1.669   4.935 -0.0638 -2.2669  0.7262
 7347TIP3    H243533   0.093   1.574   4.987 -1.4163 -1.5823 -0.7192
 7348TIP3   OH243534   6.494   3.835   4.941 -0.0992 -0.7329 -0.1146
 7348TIP3    H143535   6.571   3.876   4.981  0.4108 -1.5241 -0.2632
 7348TIP3    H243536   6.437   3.909   4.918 -0.3150 -0.2126  1.8467
 7349TIP3   OH243537   2.030   5.356   5.286  0.1851  0.2842  0.1895
 7349TIP3    H143538   2.119   5.367   5.321  0.0835 -0.5373  0.7350
 7349TIP3    H243539   1.995   5.281   5.334  0.3789 -1.5716 -2.3501
 7350TIP3   OH243540   6.820   6.308   4.289 -0.0660 -0.9304  0.0869
 7350TIP3    H143541   6.864   6.286   4.207 -0.1701  1.2066 -0.5870
 7350TIP3    H243542   6.891   6.319   4.352  0.3066  0.6810 -0.5552
 7351TIP3   OH243543   2.198   0.576  11.290  0.2167 -0.0558  0.3517
 7351TIP3    H143544   2.250   0.505  11.252  1.8110  1.4535 -0.4301
 7351TIP3    H243545   2.157   0.619  11.215  0.5186  0.7793  0.6526
 7352TIP3   OH243546   5.707   0.574  16.446  0.3845  0.3668 -0.2200
 7352TIP3    H143547   5.739   0.527  16.369 -1.5295 -0.8245 -0.3443
 7352TIP3    H243548   5.752   0.533  16.520  1.4888  0.8596 -0.5910
 7353TIP3   OH243549   4.622   4.526   4.757  0.3307  0.2324  0.1627
 7353TIP3    H143550   4.682   4.456   4.783  0.0927 -0.1749 -0.3643
 7353TIP3    H243551   4.535   4.494   4.781  0.1714  0.1225 -0.5304
 7354TIP3   OH243552   5.468   6.398   0.274  0.3930  0.3705  0.2510
 7354TIP3    H143553   5.443   6.356   0.192  0.5973  1.8619 -0.6204
 7354TIP3    H243554   5.405   6.366   0.338 -0.1380 -0.3647 -0.6166
 7355TIP3   OH243555   4.300   1.390  14.332  0.2244 -0.1387 -0.8720
 7355TIP3    H143556   4.238   1.325  14.297 -0.8306  0.7204 -0.6560
 7355TIP3    H243557   4.299   1.460  14.267  0.7854 -0.0075 -0.7383
 7356TIP3   OH243558   1.934   3.063  11.245 -0.4250  0.7397 -0.2635
 7356TIP3    H143559   1.914   3.097  11.332 -1.3935 -0.8127  0.1545
 7356TIP3    H243560   2.026   3.088  11.231 -0.8278  2.7590  0.3201
 7357TIP3   OH243561   4.633   3.503   2.884  0.0139 -0.1535  0.1935
 7357TIP3    H143562   4.728   3.500   2.888  0.0137  0.8737  1.5971
 7357TIP3    H243563   4.610   3.592   2.911 -1.3372 -0.2460 -0.5265
 7358TIP3   OH243564   1.840   0.504  12.078  0.2211 -0.4336  0.5450
 7358TIP3    H143565   1.748   0.481  12.066 -0.7333  2.7361  0.7204
 7358TIP3    H243566   1.870   0.528  11.990  0.3835  0.1055  0.7456
 7359TIP3   OH243567   1.643   3.477   2.226 -0.4309  0.0608  0.2990
 7359TIP3    H143568   1.565   3.498   2.277 -0.2437  1.8406 -0.0743
 7359TIP3    H243569   1.673   3.561   2.192  2.0948 -0.4174  1.0559
 7360TIP3   OH243570   2.361   3.742   1.715  0.1935 -0.2138  0.4833
 7360TIP3    H143571   2.403   3.827   1.722 -2.3308  1.1342  0.6216
 7360TIP3    H243572   2.335   3.721   1.804 -1.3167  0.0800  0.1383
 7361TIP3   OH243573   0.218   1.746   0.504 -0.8902 -0.3643 -0.0098
 7361TIP3    H143574   0.302   1.778   0.471  0.1225 -1.4589  1.3606
 7361TIP3    H243575   0.153   1.798   0.459  0.5288  0.5080 -1.1385
 7362TIP3   OH243576   5.546   0.199  11.556  0.0534  0.0553 -0.4365
 7362TIP3    H143577   5.622   0.178  11.501  0.6464 -0.4102  0.5132
 7362TIP3    H243578   5.578   0.267  11.615 -0.2767 -0.0984 -0.0746
 7363TIP3   OH243579   6.664   3.413   1.849 -0.2277 -0.3306  0.2361
 7363TIP3    H143580   6.569   3.425   1.844 -0.2213 -0.1749  0.4645
 7363TIP3    H243581   6.699   3.478   1.789 -0.1625  1.3466  1.9787
 7364TIP3   OH243582   4.153   6.210   5.734  0.2631 -0.2255  0.1582
 7364TIP3    H143583   4.109   6.295   5.741  0.7443 -0.0588  1.5344
 7364TIP3    H243584   4.085   6.146   5.755 -0.2436 -0.2418 -1.4320
 7365TIP3   OH243585   6.384   4.299   3.312 -0.0062  0.9320 -0.4156
 7365TIP3    H143586   6.336   4.240   3.255  0.0363  0.6179 -0.1272
 7365TIP3    H243587   6.456   4.246   3.347  0.4117  1.3299 -0.6584
 7366TIP3   OH243588   4.807   0.992   3.658 -0.3051 -0.6641  0.6055
 7366TIP3    H143589   4.806   0.919   3.720  2.2658 -2.1190 -0.8499
 7366TIP3    H243590   4.900   1.014   3.649 -0.7398  0.6741 -1.3740
 7367TIP3   OH243591   2.405   5.958  12.694 -0.0929  0.2187  0.2936
 7367TIP3    H143592   2.316   5.975  12.724  0.2036 -0.5059  1.6479
 7367TIP3    H243593   2.397   5.876  12.645 -0.0440 -0.3170  1.1546
 7368TIP3   OH243594   4.676   2.567  12.533 -0.6148  0.0102 -0.0835
 7368TIP3    H143595   4.699   2.591  12.623 -0.9702  1.5991 -0.3878
 7368TIP3    H243596   4.703   2.642  12.480 -0.7878 -0.7276 -1.2562
 7369TIP3   OH243597   6.533   0.708   0.297  0.0741  0.3694  0.1575
 7369TIP3    H143598   6.447   0.750   0.289  0.0473  0.2209 -0.4398
 7369TIP3    H243599   6.590   0.775   0.334 -0.2868  0.4838  0.5167
 7370TIP3   OH243600   1.597   2.397  14.412  0.2683  0.0057  0.2957
 7370TIP3    H143601   1.581   2.477  14.362  0.8548  0.1623  0.3460
 7370TIP3    H243602   1.610   2.330  14.346  1.0323  0.2107  0.2294
 7371TIP3   OH243603   0.023   6.434  12.363 -0.0986  0.3895 -0.4466
 7371TIP3    H143604  -0.057   6.414  12.315 -0.2070 -1.4283  0.4034
 7371TIP3    H243605   0.028   6.530  12.364 -1.3062  0.4976 -2.0310
 7372TIP3   OH243606   0.250   0.330   2.981  0.1231 -0.1502  0.4097
 7372TIP3    H143607   0.259   0.235   2.982 -1.6117 -0.3705 -0.5715
 7372TIP3    H243608   0.190   0.347   2.908  1.5881  1.8232 -0.4128
 7373TIP3   OH243609   3.853   6.137  16.170  0.2127 -0.3431  0.3053
 7373TIP3    H143610   3.811   6.076  16.230  0.3452 -1.2358 -0.4839
 7373TIP3    H243611   3.812   6.120  16.085  1.0290 -0.1084 -0.1475
 7374TIP3   OH243612   3.636   4.099   4.166 -0.1442  0.2224  0.1408
 7374TIP3    H143613   3.644   4.194   4.174 -0.5586  0.2395  0.3760
 7374TIP3    H243614   3.638   4.067   4.256 -2.9762  0.2562  0.3131
 7375TIP3   OH243615   5.294   0.067   5.160 -0.0696 -0.1276 -0.0373
 7375TIP3    H143616   5.343   0.024   5.231  0.0347 -0.5250 -0.3494
 7375TIP3    H243617   5.326   0.025   5.080  0.7965  1.2382 -0.4360
 7376TIP3   OH243618   2.798   2.088  10.828 -0.1202 -0.0940 -0.0434
 7376TIP3    H143619   2.789   2.151  10.756 -0.9443 -0.7971 -0.5796
 7376TIP3    H243620   2.808   2.003  10.785  3.8857 -0.1378  0.5848
 7377TIP3   OH243621   6.148   4.418   1.671  0.3562 -0.1552  0.1897
 7377TIP3    H143622   6.241   4.426   1.649  0.1173  0.0810 -0.8086
 7377TIP3    H243623   6.139   4.329   1.707  1.2406  0.3978  1.8554
 7378TIP3   OH243624   1.758   2.193  13.643  0.4034 -0.0970 -0.0101
 7378TIP3    H143625   1.775   2.214  13.735  1.9598 -1.1081 -0.0478
 7378TIP3    H243626   1.774   2.099  13.636 -0.2731 -0.1479 -1.2113
 7379TIP3   OH243627   5.255   4.382   6.051  0.2002  0.0995  0.0229
 7379TIP3    H143628   5.242   4.364   6.144 -0.8197 -3.4716 -0.6551
 7379TIP3    H243629   5.320   4.317   6.023  0.0849  0.7346 -1.8734
 7380TIP3   OH243630   1.500   1.894   4.791  0.1806  0.6208 -0.8457
 7380TIP3    H143631   1.419   1.849   4.816 -0.6701  1.1250 -2.5469
 7380TIP3    H243632   1.475   1.986   4.784  0.7781  0.7134 -1.8647
 7381TIP3   OH243633   3.662   0.583   5.509  0.2288 -0.0027 -0.4601
 7381TIP3    H143634   3.603   0.610   5.438  0.5348  0.9482 -0.3753
 7381TIP3    H243635   3.742   0.635   5.494  0.4462 -0.0934  0.3491
 7382TIP3   OH243636   4.387   5.114  11.312 -0.6306 -0.5544  0.2962
 7382TIP3    H143637   4.468   5.106  11.261 -0.2558  1.0482  0.6040
 7382TIP3    H243638   4.343   5.191  11.276 -1.7652 -1.0879  0.5017
 7383TIP3   OH243639   3.160   5.253  16.288 -0.2107 -0.3441 -0.1244
 7383TIP3    H143640   3.143   5.171  16.242  1.9845 -0.9222 -0.0179
 7383TIP3    H243641   3.197   5.311  16.221  1.6745 -0.7207  0.5182
 7384TIP3   OH243642   5.163   4.656   2.199  0.0733 -0.4309 -0.0349
 7384TIP3    H143643   5.250   4.643   2.162 -0.0264  1.4680 -1.1350
 7384TIP3    H243644   5.175   4.724   2.265 -0.1851 -2.0051  1.6868
 7385TIP3   OH243645   1.540   4.702  11.304 -0.4307 -0.4004 -0.2857
 7385TIP3    H143646   1.578   4.755  11.235 -0.5844 -1.2842 -1.0708
 7385TIP3    H243647   1.616   4.667  11.352 -0.2543 -1.2530 -1.1549
 7386TIP3   OH243648   6.729   5.874   2.214  0.0247 -0.1335 -0.5971
 7386TIP3    H143649   6.764   5.928   2.285 -0.4474 -1.1714  0.4631
 7386TIP3    H243650   6.656   5.925   2.179 -2.5327 -1.3191  2.5229
 7387TIP3   OH243651   2.706   1.111   5.408 -0.7812 -0.0722  0.0446
 7387TIP3    H143652   2.722   1.155   5.491 -1.1121  0.8580 -0.3654
 7387TIP3    H243653   2.784   1.128   5.356 -0.5046 -0.7928  0.2212
 7388TIP3   OH243654   5.909   2.123   0.716 -0.0640  0.3882 -0.6864
 7388TIP3    H143655   5.832   2.112   0.772  0.0589  2.9941  0.1602
 7388TIP3    H243656   5.888   2.074   0.637 -2.8087  1.3036 -0.6488
 7389TIP3   OH243657   4.314   4.809   4.615 -0.3771  0.1789 -0.0977
 7389TIP3    H143658   4.288   4.753   4.688  0.6511 -1.1110 -0.6730
 7389TIP3    H243659   4.321   4.750   4.540 -0.3187  1.2741 -0.9842
 7390TIP3   OH243660   2.107   4.422  15.216 -0.7562 -0.2538  0.0997
 7390TIP3    H143661   2.077   4.433  15.306 -0.8309 -0.4665  0.1006
 7390TIP3    H243662   2.150   4.505  15.194 -1.7155  0.2129 -0.0439
 7391TIP3   OH243663   2.793   1.165   2.530 -0.7361  0.5369 -0.3241
 7391TIP3    H143664   2.815   1.257   2.543 -1.0220  0.4010  1.2273
 7391TIP3    H243665   2.807   1.151   2.436  1.0499  1.6910 -0.2830
 7392TIP3   OH243666   1.298   0.811   3.231 -1.0342 -0.0831 -0.3126
 7392TIP3    H143667   1.240   0.883   3.254 -0.7576 -0.1728  0.6920
 7392TIP3    H243668   1.321   0.770   3.314 -2.2229 -2.1440 -0.8966
 7393TIP3   OH243669   5.700   4.479  15.372  0.2980 -0.1726  0.2996
 7393TIP3    H143670   5.672   4.409  15.313 -1.4951 -0.0974  1.0034
 7393TIP3    H243671   5.696   4.559  15.319 -0.3496 -0.2376  0.2473
 7394TIP3   OH243672   4.463   0.636   3.145 -0.0858 -0.4305  0.0569
 7394TIP3    H143673   4.377   0.678   3.148  0.6721  1.1770  0.1922
 7394TIP3    H243674   4.525   0.708   3.137  1.3899 -1.4123  1.7835
 7395TIP3   OH243675   3.138   3.016  15.686  0.7815 -0.2524  0.4222
 7395TIP3    H143676   3.129   3.006  15.780 -0.9348  3.8434  0.9360
 7395TIP3    H243677   3.053   2.990  15.651  1.0716 -0.7789  0.0894
 7396TIP3   OH243678   3.301   6.281   2.059 -0.0270 -0.2796 -0.0124
 7396TIP3    H143679   3.260   6.278   1.972 -1.6714  0.3002  0.7186
 7396TIP3    H243680   3.362   6.355   2.054  1.5302 -1.5541 -1.3216
 7397TIP3   OH243681   5.645   3.442   1.695 -0.1350 -0.1138 -0.3205
 7397TIP3    H143682   5.631   3.375   1.627 -0.4002 -0.6175  0.2214
 7397TIP3    H243683   5.696   3.510   1.651 -3.1250  1.2407 -2.0478
 7398TIP3   OH243684   5.061   2.261  12.858  0.5006  0.0747 -0.7691
 7398TIP3    H143685   5.060   2.352  12.888 -2.1781  0.1286 -0.8180
 7398TIP3    H243686   5.011   2.213  12.925 -2.0049 -0.5298 -2.9151
 7399TIP3   OH243687   2.900   1.844  10.742  0.0564  0.2749  0.4475
 7399TIP3    H143688   2.938   1.757  10.755 -0.4474 -0.4397 -2.2281
 7399TIP3    H243689   2.971   1.897  10.707  0.1061  0.6743  1.1393
 7400TIP3   OH243690   1.188   1.086  14.400 -0.0724 -0.0357  0.0961
 7400TIP3    H143691   1.281   1.066  14.399  0.9112  3.9352 -0.9368
 7400TIP3    H243692   1.157   1.065  14.312  1.2044  3.4945 -1.3520
 7401TIP3   OH243693   5.962   3.864   4.997  0.0545 -0.2762 -0.2302
 7401TIP3    H143694   5.937   3.793   4.938 -0.1862  0.0739 -0.5536
 7401TIP3    H243695   5.949   3.827   5.085 -0.3219 -0.5451 -0.3935
 7402TIP3   OH243696   2.935   5.086   4.472  0.4202 -0.1339  0.1145
 7402TIP3    H143697   2.923   4.992   4.460  0.7593 -0.5620  2.5869
 7402TIP3    H243698   2.847   5.122   4.469  0.3550 -0.3441 -1.7949
 7403TIP3   OH243699   1.761   3.660   1.512  0.0415  0.0524  0.2363
 7403TIP3    H143700   1.685   3.715   1.530 -0.2515 -0.3011  0.0965
 7403TIP3    H243701   1.787   3.682   1.423  1.3380  1.6216  0.9484
 7404TIP3   OH243702   1.426   2.082   1.109 -0.6549 -0.3508  0.1084
 7404TIP3    H143703   1.451   2.174   1.099 -1.2398  0.5856  4.9269
 7404TIP3    H243704   1.332   2.081   1.091 -0.5243 -0.1505 -0.6110
 7405TIP3   OH243705   2.831   6.015   4.588 -0.1420 -0.2657  0.1871
 7405TIP3    H143706   2.745   5.988   4.555 -0.6617  1.2265  0.2476
 7405TIP3    H243707   2.812   6.080   4.655  1.0337  0.1425  0.1540
 7406TIP3   OH243708   5.957   2.910  16.526 -0.2296  0.4562  0.9029
 7406TIP3    H143709   6.040   2.957  16.532 -0.2547  0.4451  1.3942
 7406TIP3    H243710   5.978   2.820  16.550 -0.4747  0.5608  1.5258
 7407TIP3   OH243711   5.763   5.391   1.175 -0.6636  0.2202 -0.0509
 7407TIP3    H143712   5.853   5.360   1.175 -0.7921 -0.1536 -0.4150
 7407TIP3    H243713   5.763   5.462   1.110 -0.9207 -0.6510 -1.0370
 7408TIP3   OH243714   0.941   0.260  14.846  0.6476 -0.2039 -0.2021
 7408TIP3    H143715   0.948   0.169  14.876  2.9642 -0.4799 -1.3221
 7408TIP3    H243716   1.021   0.301  14.880  0.2096  1.1068 -0.7241
 7409TIP3   OH243717   6.723   1.970   6.617  0.3042 -0.2624  0.0539
 7409TIP3    H143718   6.810   1.978   6.659  0.4293 -0.9413 -0.0711
 7409TIP3    H243719   6.738   1.914   6.541 -0.3112 -0.6555  0.2193
 7410TIP3   OH243720   4.825   1.366   3.314  0.3756 -0.2559 -0.6381
 7410TIP3    H143721   4.810   1.272   3.314 -2.5534  0.0926  0.5978
 7410TIP3    H243722   4.856   1.385   3.403  0.5548 -0.0034 -0.7535
 7411TIP3   OH243723   2.928   2.723  13.266 -0.3384  0.0536  0.1536
 7411TIP3    H143724   2.951   2.632  13.284  2.1188  0.7774  1.1014
 7411TIP3    H243725   2.951   2.736  13.174 -0.6471 -0.2605  0.0295
 7412TIP3   OH243726   5.682   0.191  15.024 -0.3181  0.9981  0.3732
 7412TIP3    H143727   5.704   0.200  14.932 -1.2882  2.1085  0.2257
 7412TIP3    H243728   5.758   0.147  15.063 -0.7443 -1.4554 -1.3049
 7413TIP3   OH243729   1.687   5.841   6.372  0.5558 -0.1341  0.0047
 7413TIP3    H143730   1.615   5.877   6.320  0.5746  0.3060  0.2745
 7413TIP3    H243731   1.680   5.746   6.361 -1.5492 -0.2788  1.9452
 7414TIP3   OH243732   5.443   2.310   6.765 -0.3497  0.0768  0.0717
 7414TIP3    H143733   5.498   2.310   6.844 -0.5778 -0.3898  0.2358
 7414TIP3    H243734   5.425   2.218   6.748  1.2457  0.0237 -1.6399
 7415TIP3   OH243735   4.562   3.356   2.675 -0.2726  0.1128  0.2983
 7415TIP3    H143736   4.591   3.404   2.597  1.2308 -0.0946  0.6986
 7415TIP3    H243737   4.581   3.416   2.748 -0.1887 -0.3211  0.6363
 7416TIP3   OH243738   2.936   3.813   1.331  0.2795  0.3475 -0.0512
 7416TIP3    H143739   2.885   3.734   1.351 -0.9624  1.2152  0.3044
 7416TIP3    H243740   3.025   3.791   1.358 -0.0154 -0.9896 -0.1049
 7417TIP3   OH243741   5.456   5.520   5.942  0.4291  0.2677 -0.0305
 7417TIP3    H143742   5.388   5.453   5.936  0.2713  0.4810 -0.6958
 7417TIP3    H243743   5.527   5.488   5.887  0.6582  0.2905  0.2508
 7418TIP3   OH243744   0.142   5.900   4.742  0.1254  0.6085  0.0623
 7418TIP3    H143745   0.094   5.860   4.815  0.7696 -2.0780 -0.8604
 7418TIP3    H243746   0.233   5.898   4.770  0.4763 -1.1752 -1.0177
 7419TIP3   OH243747   6.164   2.739  16.351 -0.0039  0.2847  0.4544
 7419TIP3    H143748   6.122   2.659  16.381 -1.2396 -0.2756 -2.3919
 7419TIP3    H243749   6.099   2.781  16.294  3.1020 -0.9200 -4.7052
 7420TIP3   OH243750   5.068   4.345  13.010  0.0264  0.2251 -0.3259
 7420TIP3    H143751   5.052   4.269  13.066 -1.1047  1.3357  0.9231
 7420TIP3    H243752   5.157   4.333  12.979 -0.1866 -1.7060 -0.3136
 7421TIP3   OH243753   5.098   1.243  10.863  0.0504  0.3716 -0.0208
 7421TIP3    H143754   5.047   1.165  10.881  0.6938  0.1382  0.8502
 7421TIP3    H243755   5.184   1.225  10.899  0.0402  1.7148  0.7674
 7422TIP3   OH243756   3.716   6.323   4.306  0.5162 -0.0681 -0.1363
 7422TIP3    H143757   3.682   6.266   4.375  1.8286 -0.6654  0.0366
 7422TIP3    H243758   3.811   6.318   4.315  0.6891  0.4693 -1.4901
 7423TIP3   OH243759   5.967   2.002   1.756 -0.2632 -0.8880  0.1108
 7423TIP3    H143760   5.886   1.964   1.790 -1.1395 -0.3510 -1.3024
 7423TIP3    H243761   5.972   2.089   1.797 -0.2813 -1.0069  0.3673
 7424TIP3   OH243762   6.711   5.488   1.885 -0.2561  0.5607 -0.1128
 7424TIP3    H143763   6.671   5.403   1.902  0.7088  0.1623  0.2274
 7424TIP3    H243764   6.685   5.542   1.959  0.3907  0.1003  0.4598
 7425TIP3   OH243765   4.894   3.225  13.164 -0.2983 -0.2808  0.1939
 7425TIP3    H143766   4.813   3.270  13.189  0.7068  2.5393 -1.2581
 7425TIP3    H243767   4.947   3.225  13.244 -1.1168 -0.8640  0.7653
 7426TIP3   OH243768   0.389   0.863  16.999  0.2367  0.1949 -0.4915
 7426TIP3    H143769   0.436   0.838  16.920  0.1514 -0.9122 -0.2140
 7426TIP3    H243770   0.405   0.791  17.060 -0.6565  0.4703  0.0882
 7427TIP3   OH243771   3.338   6.232   3.129 -0.4982  0.4769  0.7132
 7427TIP3    H143772   3.407   6.285   3.089 -1.1139  0.9904  0.3060
 7427TIP3    H243773   3.304   6.178   3.058  0.9920 -1.4843  1.3796
 7428TIP3   OH243774   2.572   1.511   1.802 -0.2197 -0.2128 -0.5160
 7428TIP3    H143775   2.578   1.485   1.710 -0.5268 -1.6027 -0.1731
 7428TIP3    H243776   2.517   1.589   1.801 -0.5032 -0.4054 -1.4915
 7429TIP3   OH243777   6.659   0.375  12.385  0.2984  0.0675  0.1851
 7429TIP3    H143778   6.689   0.291  12.417  0.2144  0.0477  0.2140
 7429TIP3    H243779   6.685   0.377  12.293  4.6213  1.9799  1.1912
 7430TIP3   OH243780   0.969   3.544   4.919  0.6365 -0.0574 -0.1668
 7430TIP3    H143781   0.954   3.611   4.853 -2.2448 -1.4461 -1.1017
 7430TIP3    H243782   0.942   3.462   4.877  0.1633 -1.2169  2.1949
 7431TIP3   OH243783   2.324   3.303  16.925  0.1009 -0.0093  0.3864
 7431TIP3    H143784   2.261   3.343  16.985  0.3677  0.2239  0.5133
 7431TIP3    H243785   2.308   3.348  16.841 -1.3807 -1.4490 -0.1694
 7432TIP3   OH243786   2.904   3.232  16.000 -0.0649 -0.3572 -0.0010
 7432TIP3    H143787   2.895   3.311  15.946 -0.4566 -1.0559 -0.9901
 7432TIP3    H243788   2.998   3.222  16.012  0.1000 -0.7281 -1.4187
 7433TIP3   OH243789   2.855   0.420  10.658 -0.4425  0.0171 -0.3452
 7433TIP3    H143790   2.900   0.399  10.740 -0.6533  0.6484 -0.0611
 7433TIP3    H243791   2.900   0.498  10.625 -2.7176  2.1395  1.1342
 7434TIP3   OH243792   5.692   6.305  15.951  0.0324  0.5686  0.6650
 7434TIP3    H143793   5.600   6.288  15.972  0.1683 -1.4408 -0.1365
 7434TIP3    H243794   5.741   6.259  16.019  0.4224 -0.1030 -0.0467
 7435TIP3   OH243795   5.573   3.112  13.744 -0.8801 -0.4231 -0.6304
 7435TIP3    H143796   5.634   3.186  13.752 -0.8117 -0.4239 -1.1278
 7435TIP3    H243797   5.540   3.099  13.833  0.3940 -0.8927 -0.2125
 7436TIP3   OH243798   4.702   1.716   5.025 -0.1179  0.2500 -0.4923
 7436TIP3    H143799   4.678   1.729   5.117 -0.7712  2.6568 -0.9278
 7436TIP3    H243800   4.797   1.707   5.026 -0.2032 -0.6965  0.4902
 7437TIP3   OH243801   5.755   4.650  11.525 -0.0060  0.0343  0.1508
 7437TIP3    H143802   5.749   4.742  11.552  0.4507 -0.0106  0.4028
 7437TIP3    H243803   5.780   4.603  11.604  2.3492  0.0274 -0.5372
 7438TIP3   OH243804   6.810   6.206   0.644  0.3248  0.2992 -0.1694
 7438TIP3    H143805   6.894   6.205   0.599  0.0435  1.9497 -0.7967
 7438TIP3    H243806   6.803   6.294   0.681 -0.8651 -0.0009  0.3875
 7439TIP3   OH243807   3.166   2.898   4.636 -0.1510  0.2571  0.2680
 7439TIP3    H143808   3.113   2.836   4.685 -0.3239  0.4279  0.2969
 7439TIP3    H243809   3.171   2.976   4.691  1.0610 -0.1489  0.7692
 7440TIP3   OH243810   1.607   1.704   0.884  0.2093 -0.8371  0.4132
 7440TIP3    H143811   1.616   1.625   0.938 -0.7494 -0.0096  1.8618
 7440TIP3    H243812   1.621   1.776   0.945  1.0970  0.1402 -0.8959
 7441TIP3   OH243813   2.087   3.458   5.026 -0.5797 -1.0140 -0.7136
 7441TIP3    H143814   2.037   3.536   5.053  0.3688 -0.4324 -0.6135
 7441TIP3    H243815   2.133   3.486   4.947  0.4768 -1.1915 -0.1677
 7442TIP3   OH243816   3.253   2.573   0.012  0.3593 -0.4431  1.3986
 7442TIP3    H143817   3.175   2.517   0.011  0.7820 -1.1503  3.3241
 7442TIP3    H243818   3.286   2.566   0.102  0.7896  2.4411  1.5497
 7443TIP3   OH243819   1.500   3.465  11.381 -0.2928 -0.2593 -0.0074
 7443TIP3    H143820   1.490   3.414  11.301  1.2803  1.2696 -1.2868
 7443TIP3    H243821   1.411   3.490  11.406 -0.9880 -2.5636  0.0107
 7444TIP3   OH243822   0.681   6.539  14.459 -0.2080 -0.0310 -0.5691
 7444TIP3    H143823   0.613   6.598  14.492  1.5906  1.4513  0.6438
 7444TIP3    H243824   0.639   6.453  14.458 -2.0461  0.7963  0.2694
 7445TIP3   OH243825   5.955   4.800   0.533  0.2228  0.4562 -0.6698
 7445TIP3    H143826   5.862   4.777   0.538  0.3507  0.0630  0.1719
 7445TIP3    H243827   5.985   4.794   0.624  1.3119 -0.4569 -1.0772
 7446TIP3   OH243828   4.366   2.520   2.923 -0.0828 -0.1437  0.1039
 7446TIP3    H143829   4.330   2.517   2.834  0.0635 -0.2876  0.0498
 7446TIP3    H243830   4.327   2.444   2.967 -0.2875  0.0242  0.2121
 7447TIP3   OH243831   1.245   5.840  13.981 -0.4026 -0.4038  0.1211
 7447TIP3    H143832   1.271   5.916  14.033 -1.0680 -1.2826  1.8418
 7447TIP3    H243833   1.269   5.765  14.035  0.0096 -1.4281 -1.4193
 7448TIP3   OH243834   6.804   1.055  15.874  0.2929  0.5639  0.2769
 7448TIP3    H143835   6.803   1.085  15.783  1.2723  0.0345  0.0772
 7448TIP3    H243836   6.752   1.120  15.921 -1.2356  0.2077 -0.8487
 7449TIP3   OH243837   1.377   1.881  13.494  0.4845 -0.2748  0.6745
 7449TIP3    H143838   1.317   1.860  13.422 -0.4388  0.8291  1.0726
 7449TIP3    H243839   1.464   1.882  13.454  0.2483 -1.8575  0.0670
 7450TIP3   OH243840   5.341   5.373  11.749 -0.2415 -0.4006  0.3782
 7450TIP3    H143841   5.351   5.288  11.708 -0.5944 -0.2987  0.0810
 7450TIP3    H243842   5.295   5.354  11.831  0.4693 -0.6030  0.7412
 7451TIP3   OH243843   3.796   6.125  11.822 -0.2796  0.3116  0.0105
 7451TIP3    H143844   3.846   6.119  11.741 -0.7212  0.7442 -0.2937
 7451TIP3    H243845   3.778   6.034  11.846  0.7250  0.1346  0.1740
 7452TIP3   OH243846   6.350   5.754   3.418  0.6006 -0.1493 -0.2119
 7452TIP3    H143847   6.386   5.808   3.489  0.5555  0.0036 -0.3049
 7452TIP3    H243848   6.388   5.791   3.338  0.9751 -0.5834 -0.2343
 7453TIP3   OH243849   5.904   6.169   3.067 -0.3139  0.1256  0.1961
 7453TIP3    H143850   5.946   6.090   3.098 -1.2866 -0.4501  0.1044
 7453TIP3    H243851   5.886   6.220   3.146  1.0372  0.6440  0.1872
 7454TIP3   OH243852   6.654   1.262  16.024 -0.3608  0.1092 -0.0738
 7454TIP3    H143853   6.654   1.208  16.103  0.3511  0.0521 -0.1130
 7454TIP3    H243854   6.656   1.352  16.057  0.7224  0.0775 -0.0243
 7455TIP3   OH243855   2.849   0.144   1.364  0.0506  0.0103  0.1427
 7455TIP3    H143856   2.810   0.167   1.448 -0.5556 -2.2323  0.5461
 7455TIP3    H243857   2.787   0.177   1.299 -1.7376 -1.9594  0.7354
 7456TIP3   OH243858   0.823   3.494   0.055  0.4216  0.0534 -0.1537
 7456TIP3    H143859   0.811   3.402   0.080  0.6733 -0.2290 -1.0164
 7456TIP3    H243860   0.834   3.540   0.138 -3.1945 -0.1374  0.5585
 7457TIP3   OH243861   2.921   5.952  13.908  0.4011  0.3624  0.6308
 7457TIP3    H143862   2.864   5.926  13.980  0.1312  0.2248  0.3676
 7457TIP3    H243863   2.884   6.034  13.876 -0.1546 -0.1461 -0.0818
 7458TIP3   OH243864   1.774   6.758   3.745 -0.1275  0.4719  0.6233
 7458TIP3    H143865   1.775   6.801   3.659  0.7213 -0.9520 -0.1156
 7458TIP3    H243866   1.682   6.744   3.764 -0.3698  1.7291  0.4326
 7459TIP3   OH243867   2.619   2.468   4.298  0.1743  0.0011 -0.1143
 7459TIP3    H143868   2.590   2.496   4.211 -0.1592  0.5653  0.1774
 7459TIP3    H243869   2.652   2.379   4.284  0.6690  0.2938 -0.9341
 7460TIP3   OH243870   6.192   5.194   4.071 -0.3929 -0.1916  0.3859
 7460TIP3    H143871   6.177   5.126   4.006  0.4179 -0.2992  0.2938
 7460TIP3    H243872   6.176   5.151   4.155 -1.0332 -0.1655  0.2806
 7461TIP3   OH243873   1.476   1.881   5.098 -0.0754  0.0965  0.3653
 7461TIP3    H143874   1.422   1.809   5.066 -1.3086  0.5835  1.2747
 7461TIP3    H243875   1.530   1.906   5.023  0.5395 -1.8901  0.0885
 7462TIP3   OH243876   6.755   3.233   2.666  0.0070  0.3852  0.0616
 7462TIP3    H143877   6.773   3.302   2.602  0.1695 -0.3979 -0.7571
 7462TIP3    H243878   6.807   3.256   2.742  2.0954 -0.1697 -1.1158
 7463TIP3   OH243879   1.912   0.291  11.845  0.1543  0.1064  0.1931
 7463TIP3    H143880   1.994   0.320  11.885  0.2929  0.5701 -0.4151
 7463TIP3    H243881   1.938   0.217  11.790  0.0077 -0.3532  0.7304
 7464TIP3   OH243882   2.534   0.512   0.613  0.7037 -0.0861  0.0699
 7464TIP3    H143883   2.519   0.605   0.627 -1.4291 -0.3051 -0.4089
 7464TIP3    H243884   2.561   0.505   0.522  0.9709  0.0780  0.1380
 7465TIP3   OH243885   5.185   4.412   0.731  0.0638 -0.1788  0.4339
 7465TIP3    H143886   5.162   4.433   0.822 -0.9051 -1.1979  0.4480
 7465TIP3    H243887   5.191   4.317   0.729  1.5185 -0.0984 -0.2672
 7466TIP3   OH243888   4.940   1.222   4.360  0.2482 -0.0940  0.1553
 7466TIP3    H143889   4.885   1.180   4.426  1.7023 -0.2589  1.3079
 7466TIP3    H243890   4.971   1.150   4.305  0.3994 -0.1687  0.3380
 7467TIP3   OH243891   3.158   3.117   5.373 -0.6159 -0.1028 -0.1073
 7467TIP3    H143892   3.249   3.097   5.394 -0.6232 -0.1511 -0.1232
 7467TIP3    H243893   3.123   3.036   5.336 -0.4785  0.1179 -0.7245
 7468TIP3   OH243894   1.931   0.446  16.027 -0.2496  0.0222 -0.1310
 7468TIP3    H143895   1.938   0.402  16.111 -3.1608 -0.6162 -0.1281
 7468TIP3    H243896   1.991   0.521  16.034  0.5732 -0.7651  1.9539
 7469TIP3   OH243897   2.264   0.373   5.107  0.2399  0.0741  0.2106
 7469TIP3    H143898   2.204   0.318   5.058  0.5718  0.2732 -0.4344
 7469TIP3    H243899   2.210   0.445   5.140 -0.0591 -0.2648  0.4565
 7470TIP3   OH243900   4.873   1.337   4.783 -0.6273 -0.3806  0.1294
 7470TIP3    H143901   4.917   1.330   4.868 -0.1044  0.8843 -0.0187
 7470TIP3    H243902   4.783   1.362   4.803 -1.3704 -2.9546  0.4338
 7471TIP3   OH243903   2.160   5.147   1.496 -0.0018  0.0318 -1.0148
 7471TIP3    H143904   2.112   5.113   1.572  1.1845 -1.7009 -0.9698
 7471TIP3    H243905   2.231   5.199   1.533  0.8636 -1.2072 -0.8786
 7472TIP3   OH243906   1.520   0.525  14.524 -0.6540 -0.1757 -0.2435
 7472TIP3    H143907   1.499   0.512  14.432  0.5727  1.7460 -0.8584
 7472TIP3    H243908   1.541   0.437  14.556 -1.0073 -0.8709 -1.8140
 7473TIP3   OH243909   5.576   3.009   3.313 -0.7052 -0.2016  0.3630
 7473TIP3    H143910   5.565   2.994   3.407 -0.3595  0.7854  0.5756
 7473TIP3    H243911   5.493   2.981   3.274 -0.8121 -0.7144  0.9492
 7474TIP3   OH243912   6.813   2.540   0.279 -0.0683  0.5081 -0.5801
 7474TIP3    H143913   6.745   2.501   0.335  1.7455 -1.0187  0.7047
 7474TIP3    H243914   6.862   2.598   0.338 -0.5456  1.9727 -1.6085
 7475TIP3   OH243915   4.423   3.988   0.652 -0.1817 -0.3888 -0.1319
 7475TIP3    H143916   4.358   3.990   0.581 -0.1020  0.0437 -0.1961
 7475TIP3    H243917   4.490   3.927   0.621 -0.2988 -0.4325 -0.3009
 7476TIP3   OH243918   0.158   3.440  12.486  0.5710 -0.4894  0.0675
 7476TIP3    H143919   0.175   3.534  12.496  1.5838 -0.8099  1.9381
 7476TIP3    H243920   0.124   3.413  12.572  0.3134 -1.8360 -0.4408
 7477TIP3   OH243921   1.361   6.276  15.143 -0.2297 -0.0199  0.3154
 7477TIP3    H143922   1.278   6.282  15.189 -0.5563 -1.1110 -0.0871
 7477TIP3    H243923   1.426   6.262  15.212 -0.4672  0.1717  0.5797
 7478TIP3   OH243924   5.734   5.517   4.006  0.2152 -0.6009  0.2630
 7478TIP3    H143925   5.678   5.538   3.931  0.2965 -2.9412 -0.5344
 7478TIP3    H243926   5.822   5.512   3.970  0.3352 -1.1596  0.6191
 7479TIP3   OH243927   1.314   4.891   0.329 -0.2023  0.2416  0.2867
 7479TIP3    H143928   1.255   4.941   0.272 -0.9609  0.2672  1.0815
 7479TIP3    H243929   1.316   4.940   0.411  2.0036  0.9813 -0.1317
 7480TIP3   OH243930   4.737   3.517   4.314 -0.5236  0.5184  0.3455
 7480TIP3    H143931   4.713   3.540   4.224  1.5427  1.3869 -0.0251
 7480TIP3    H243932   4.791   3.590   4.345  0.3407 -0.6077  1.6418
 7481TIP3   OH243933   3.574   1.304  10.753  0.0115 -0.1523 -0.3895
 7481TIP3    H143934   3.609   1.334  10.670 -2.4628 -1.2689 -1.9671
 7481TIP3    H243935   3.490   1.350  10.762 -0.6763 -1.5089  0.4875
 7482TIP3   OH243936   6.490   0.857   4.293  0.0767 -0.0118  0.2865
 7482TIP3    H143937   6.486   0.833   4.200 -0.2841 -2.5305  0.8615
 7482TIP3    H243938   6.408   0.903   4.309  0.7179  1.6269 -0.8886
 7483TIP3   OH243939   3.962   6.275   5.280 -0.8135 -0.3923 -0.1630
 7483TIP3    H143940   3.985   6.186   5.252  2.4704  0.2059  0.2812
 7483TIP3    H243941   4.003   6.284   5.366 -1.0776  1.5786 -0.2077
 7484TIP3   OH243942   6.370   0.933  16.489 -0.4508  0.6138  0.3236
 7484TIP3    H143943   6.389   0.842  16.465  1.8864  1.1599 -0.1506
 7484TIP3    H243944   6.296   0.927  16.549 -1.2735 -1.4649 -0.8044
 7485TIP3   OH243945   6.233   2.479   0.416  0.4481 -0.3838  0.0858
 7485TIP3    H143946   6.303   2.539   0.390  1.2779 -0.9992  0.8106
 7485TIP3    H243947   6.257   2.395   0.376  0.2431 -0.6505  0.5093
 7486TIP3   OH243948   4.138   5.515   6.304 -0.1963 -0.0916 -0.4276
 7486TIP3    H143949   4.195   5.445   6.275 -0.9799 -1.0022  0.1641
 7486TIP3    H243950   4.051   5.489   6.276 -0.8742 -0.6269  1.9154
 7487TIP3   OH243951   0.687   0.967   4.915 -0.1425  0.2998 -0.6141
 7487TIP3    H143952   0.618   0.918   4.870 -0.5935  0.3541  0.0046
 7487TIP3    H243953   0.649   0.990   5.000  0.9596 -0.4902  0.1192
 7488TIP3   OH243954   6.707   5.170   2.429 -0.3389  0.9369 -0.0976
 7488TIP3    H143955   6.761   5.092   2.444 -0.2301  1.3041  1.5911
 7488TIP3    H243956   6.617   5.138   2.431 -0.2634  0.6753 -0.6652
 7489TIP3   OH243957   3.495   6.817   4.871  0.5762 -0.2899  0.3935
 7489TIP3    H143958   3.487   6.850   4.782 -2.6287  1.2730  1.0915
 7489TIP3    H243959   3.520   6.894   4.923 -0.8202 -0.3399  1.2062
 7490TIP3   OH243960   2.663   3.232   0.187 -0.1312  0.3597  0.0029
 7490TIP3    H143961   2.650   3.168   0.116  4.1928 -1.7062  0.7383
 7490TIP3    H243962   2.729   3.292   0.153  0.7181  0.3972  1.6217
 7491TIP3   OH243963   1.426   6.638   0.776  0.4268 -0.3081  0.0520
 7491TIP3    H143964   1.519   6.618   0.773  0.7706  0.5897  2.8064
 7491TIP3    H243965   1.420   6.725   0.814 -1.5391  0.0444 -0.8964
 7492TIP3   OH243966   5.154   5.776  17.241  0.0011  0.4709 -0.6389
 7492TIP3    H143967   5.169   5.690  17.201 -0.9453 -0.9407  1.7749
 7492TIP3    H243968   5.060   5.777  17.261  0.0215  2.0177 -0.4846
 7493TIP3   OH243969   5.906   1.925   0.048  0.1768  0.5477  0.0815
 7493TIP3    H143970   5.870   1.860  -0.011  0.3738 -0.8707  1.4508
 7493TIP3    H243971   5.830   1.964   0.092  0.1190  0.1901  0.3026
 7494TIP3   OH243972   5.932   4.950  15.523  0.0893 -0.0860  0.0499
 7494TIP3    H143973   6.024   4.976  15.531  0.2224 -0.1173 -1.2893
 7494TIP3    H243974   5.899   4.955  15.613  0.9660  1.5229  0.3243
 7495TIP3   OH243975   3.685   3.606  16.650 -0.0847  0.1522  0.3691
 7495TIP3    H143976   3.591   3.590  16.656 -0.3609  1.1286 -0.8906
 7495TIP3    H243977   3.693   3.680  16.590  1.4552  0.6158  1.0894
 7496TIP3   OH243978   5.496   2.939   0.485  0.0124 -0.1107 -0.2224
 7496TIP3    H143979   5.456   2.861   0.446  0.0667 -0.6738  0.8018
 7496TIP3    H243980   5.460   3.012   0.435  0.2801 -0.8155 -1.4658
 7497TIP3   OH243981   4.365   0.199   0.407  0.0424 -0.7976 -0.2251
 7497TIP3    H143982   4.347   0.170   0.496 -0.1778 -0.2217 -0.0811
 7497TIP3    H243983   4.314   0.139   0.352 -0.9699 -0.2706  0.1066
 7498TIP3   OH243984   5.343   3.107  16.295 -0.5211  0.3752 -0.5995
 7498TIP3    H143985   5.360   3.017  16.322 -0.3402  0.8456  0.9893
 7498TIP3    H243986   5.422   3.155  16.322 -0.6139  1.0151 -1.4228
 7499TIP3   OH243987   0.267   0.415   3.492 -0.3318  0.2898 -0.2154
 7499TIP3    H143988   0.254   0.447   3.581  1.6343 -0.4170  0.3691
 7499TIP3    H243989   0.322   0.337   3.502 -0.7394 -0.2696 -1.9890
 7500TIP3   OH243990   3.068   5.290  11.796 -0.2990 -0.2090 -1.0404
 7500TIP3    H143991   3.096   5.199  11.784 -0.8686 -0.4290 -0.6977
 7500TIP3    H243992   3.051   5.298  11.889 -0.3974  0.2101 -1.0914
 7501TIP3   OH243993   4.459   3.573   5.414 -0.2439 -0.3834 -0.2803
 7501TIP3    H143994   4.454   3.662   5.447  0.4091 -0.0026 -1.1450
 7501TIP3    H243995   4.553   3.553   5.414 -0.3341 -0.8267 -0.7036
 7502TIP3   OH243996   1.216   3.419  13.716 -0.3393 -0.0266  0.0519
 7502TIP3    H143997   1.189   3.331  13.744  0.4059  0.2158  1.6386
 7502TIP3    H243998   1.311   3.420  13.731 -0.1526  0.6541 -1.0976
 7503TIP3   OH243999   1.862   6.369   4.543  0.1719 -0.1413 -0.4249
 7503TIP3    H144000   1.784   6.335   4.501 -0.9515  0.6645  0.9090
 7503TIP3    H244001   1.829   6.429   4.610  1.9553  0.7710 -0.2935
 7504TIP3   OH244002   0.013   4.360   6.807  0.0758 -0.1018 -0.0618
 7504TIP3    H144003   0.049   4.420   6.741  0.0803  1.4419  1.2825
 7504TIP3    H244004  -0.082   4.363   6.792  0.0477  0.5042  0.1889
 7505TIP3   OH244005   1.559   0.873  15.039  0.0844 -0.2086 -0.0510
 7505TIP3    H144006   1.558   0.786  15.078  1.9821 -0.5543 -0.6423
 7505TIP3    H244007   1.489   0.920  15.082  0.6537 -1.2449  2.1452
 7506TIP3   OH244008   1.880   5.730  12.778  0.1726  0.1720  0.0908
 7506TIP3    H144009   1.834   5.648  12.761  2.5539 -1.1453 -0.3580
 7506TIP3    H244010   1.909   5.760  12.692  1.3296  0.2245  0.4818
 7507TIP3   OH244011   4.681   5.539   6.185  0.7982  0.0478  0.4964
 7507TIP3    H144012   4.634   5.456   6.175  0.7189  0.1244  0.2245
 7507TIP3    H244013   4.652   5.573   6.270 -0.5734  0.6803 -0.1910
 7508TIP3   OH244014   2.609   3.302  10.725  0.4172  0.1434 -0.3717
 7508TIP3    H144015   2.588   3.209  10.719  0.8781 -0.0786  1.0688
 7508TIP3    H244016   2.695   3.310  10.684  0.7070 -0.1982  0.1637
 7509TIP3   OH244017   3.608   5.647   2.159 -0.0377  0.2824  0.5494
 7509TIP3    H144018   3.582   5.565   2.201  0.8103  0.1128  0.7687
 7509TIP3    H244019   3.529   5.701   2.159 -0.8607 -0.8830 -0.4662
 7510TIP3   OH244020   0.853   3.080  11.963 -0.3435 -0.1604 -0.1685
 7510TIP3    H144021   0.947   3.063  11.958 -0.2424 -0.2990  1.6093
 7510TIP3    H244022   0.844   3.170  11.931  0.6807  0.5796  1.5040
 7511TIP3   OH244023   4.999   0.545  12.817 -0.6080  0.1703  0.2054
 7511TIP3    H144024   5.060   0.471  12.809 -0.8727 -0.3351  2.1191
 7511TIP3    H244025   4.937   0.533  12.745  0.3722 -0.4850 -0.5474
 7512TIP3   OH244026   0.032   2.758   5.238  0.1722  0.2529  0.2330
 7512TIP3    H144027   0.032   2.783   5.330  1.5843  0.2961  0.2385
 7512TIP3    H244028   0.083   2.678   5.235 -1.4833 -0.8354 -0.2699
 7513TIP3   OH244029   1.240   0.691  12.917 -0.2620  0.0200  0.1732
 7513TIP3    H144030   1.166   0.728  12.965 -1.8518 -2.3290 -0.2799
 7513TIP3    H244031   1.208   0.607  12.884  2.1070 -0.3649 -1.4541
 7514TIP3   OH244032   3.646   3.302  13.995  0.5943 -0.2551 -0.1774
 7514TIP3    H144033   3.645   3.243  13.920  1.4706  0.3556 -0.6893
 7514TIP3    H244034   3.728   3.350  13.987 -0.1459  1.1377  0.1437
 7515TIP3   OH244035   5.575   4.765   2.409  0.5692  0.7597  0.1606
 7515TIP3    H144036   5.536   4.712   2.479  0.3169 -1.2847 -1.4131
 7515TIP3    H244037   5.669   4.753   2.418  0.4953 -0.8737 -0.7556
 7516TIP3   OH244038   0.751   4.356  11.072 -1.0955 -0.6397  0.0135
 7516TIP3    H144039   0.757   4.445  11.036 -1.7089  0.4311  2.3615
 7516TIP3    H244040   0.842   4.325  11.073 -0.8271  0.0821 -0.4947
 7517TIP3   OH244041   4.182   0.588  11.823  0.3720  0.3053  0.3422
 7517TIP3    H144042   4.101   0.620  11.782 -0.1967 -0.4744  0.8293
 7517TIP3    H244043   4.152   0.525  11.888  1.5111 -2.3797 -1.5710
 7518TIP3   OH244044   0.822   1.341  14.835 -0.8390  0.0939  0.0490
 7518TIP3    H144045   0.844   1.408  14.901 -0.7666  0.6390 -0.5190
 7518TIP3    H244046   0.746   1.296  14.872 -0.8041  0.4020  0.5059
 7519TIP3   OH244047   6.527   5.694  11.091  0.1408 -0.1258  0.2327
 7519TIP3    H144048   6.461   5.758  11.119 -0.4306 -0.3221 -0.6329
 7519TIP3    H244049   6.583   5.683  11.168  0.5066  1.7293  0.2760
 7520TIP3   OH244050   6.525   3.383  16.395 -0.2157 -0.4242 -0.5041
 7520TIP3    H144051   6.612   3.347  16.409  0.4290  1.6811  1.4189
 7520TIP3    H244052   6.539   3.460  16.341 -0.6882  0.6025  0.7852
 7521TIP3   OH244053   5.203   0.238   3.285 -0.7521  0.1363  0.3558
 7521TIP3    H144054   5.195   0.146   3.259  0.0303 -0.4036  1.9159
 7521TIP3    H244055   5.126   0.254   3.340 -1.5054  0.7893 -0.8237
 7522TIP3   OH244056   2.840   6.065  12.098  0.3241 -0.5833  0.0201
 7522TIP3    H144057   2.799   6.150  12.111  1.9887  0.0048  2.1418
 7522TIP3    H244058   2.931   6.078  12.127  0.6003 -3.0792  0.4790
 7523TIP3   OH244059   0.647   0.555   3.908  0.2236 -0.1953 -0.6515
 7523TIP3    H144060   0.597   0.616   3.854  0.5258  0.4173 -0.2526
 7523TIP3    H244061   0.588   0.533   3.980 -0.0123 -0.6518 -0.9808
 7524TIP3   OH244062   2.738   3.104   0.983 -0.2739  0.5968  0.5417
 7524TIP3    H144063   2.766   3.105   1.075  1.8376  1.3020 -0.0372
 7524TIP3    H244064   2.782   3.180   0.945 -3.5158  2.1389 -0.4326
 7525TIP3   OH244065   5.743   2.976  11.485 -0.0245 -0.0531  0.4259
 7525TIP3    H144066   5.716   2.887  11.465 -0.6674  0.5020 -1.3662
 7525TIP3    H244067   5.823   2.966  11.536 -1.1915 -1.6624  2.0997
 7526TIP3   OH244068   4.291   5.599   5.749  0.1353 -0.5355  0.6252
 7526TIP3    H144069   4.355   5.533   5.774  1.8063  0.2201 -1.4003
 7526TIP3    H244070   4.320   5.631   5.664 -2.4862  0.4657 -0.0083
 7527TIP3   OH244071   2.180   1.506   1.987  0.6142 -0.3984  0.4058
 7527TIP3    H144072   2.208   1.421   1.954 -0.8716 -0.1237 -1.7326
 7527TIP3    H244073   2.171   1.560   1.909 -1.5473  0.7947  1.4028
 7528TIP3   OH244074   2.398   3.824  13.051  0.4117 -0.0250 -0.2456
 7528TIP3    H144075   2.459   3.867  12.991  1.5692 -0.3984  0.6255
 7528TIP3    H244076   2.454   3.788  13.120 -0.6756 -1.5396 -0.1162
 7529TIP3   OH244077   0.862   3.935  11.327  0.3203  0.2408 -0.4824
 7529TIP3    H144078   0.835   3.994  11.257  1.2261 -0.0333 -1.0816
 7529TIP3    H244079   0.895   3.857  11.282  3.2707  1.0271  0.1065
 7530TIP3   OH244080   0.128   3.755   2.696  0.3951  0.2288  0.4090
 7530TIP3    H144081   0.039   3.732   2.669  1.3302 -0.0733 -2.7531
 7530TIP3    H244082   0.120   3.844   2.731 -1.1733  0.1358  0.3540
 7531TIP3   OH244083   4.930   5.153  14.780 -0.1811  0.0940  0.4073
 7531TIP3    H144084   4.910   5.061  14.796 -3.8026  1.0156  2.2324
 7531TIP3    H244085   4.937   5.160  14.685 -0.9206 -1.8741  0.1658
 7532TIP3   OH244086   6.030   2.493  11.614  0.1610  0.1175 -0.2043
 7532TIP3    H144087   5.955   2.551  11.602 -1.3138 -2.0144 -2.2492
 7532TIP3    H244088   6.048   2.496  11.708 -1.7746  1.5505  0.1872
 7533TIP3   OH244089   5.763   3.081   1.858 -0.8363 -0.3549  0.6612
 7533TIP3    H144090   5.705   3.133   1.802  1.1124 -0.3983 -1.5938
 7533TIP3    H244091   5.735   2.991   1.845 -0.9682 -0.2845  0.4557
 7534TIP3   OH244092   1.731   6.387  12.750  0.2864  0.2482  0.3263
 7534TIP3    H144093   1.639   6.367  12.734  0.3893  0.7424 -1.0256
 7534TIP3    H244094   1.733   6.426  12.837 -0.6679 -0.4538  0.6796
 7535TIP3   OH244095   5.906   4.710   2.724 -0.0661 -0.2814  0.0461
 7535TIP3    H144096   5.924   4.616   2.721  1.2831 -0.0768  0.6869
 7535TIP3    H244097   5.811   4.717   2.732 -0.4323 -1.5181 -2.2938
 7536TIP3   OH244098   6.091   6.132   1.216 -0.5500  0.2217  0.4295
 7536TIP3    H144099   6.172   6.111   1.262  0.4173  1.1379 -0.8133
 7536TIP3    H244100   6.022   6.103   1.276  0.5765  2.6463  3.1781
 7537TIP3   OH244101   0.474   5.648   6.280 -0.5248 -0.5446 -0.1165
 7537TIP3    H144102   0.494   5.713   6.347  1.8322  0.8523 -2.0018
 7537TIP3    H244103   0.560   5.625   6.243 -1.5641 -2.6624 -1.3918
 7538TIP3   OH244104   1.230   5.510   3.706  0.3544  0.2196 -0.5713
 7538TIP3    H144105   1.253   5.446   3.773  2.4700  1.9317  0.4633
 7538TIP3    H244106   1.309   5.518   3.653 -0.5156  0.6078 -1.8513
 7539TIP3   OH244107   1.983   2.377  13.875  0.2015 -0.6517 -1.1487
 7539TIP3    H144108   1.992   2.293  13.831 -1.3494 -1.7579  0.4886
 7539TIP3    H244109   1.910   2.364  13.936  0.0421  1.8341 -0.7110
 7540TIP3   OH244110   1.758   0.364   3.592  0.0406  0.0209 -0.3020
 7540TIP3    H144111   1.668   0.344   3.617 -0.3876  1.4461 -0.6002
 7540TIP3    H244112   1.783   0.294   3.532 -0.3862 -1.1280  0.8233
 7541TIP3   OH244113   1.553   6.280   2.776  0.0962  0.7453  0.0073
 7541TIP3    H144114   1.510   6.244   2.853  1.0348  0.2149  0.2915
 7541TIP3    H244115   1.596   6.205   2.735 -2.0453  0.5814 -2.2091
 7542TIP3   OH244116   5.400   0.602  16.914 -0.3266  0.4822 -0.2870
 7542TIP3    H144117   5.370   0.527  16.966 -1.6325  1.8254  0.9943
 7542TIP3    H244118   5.437   0.563  16.834 -0.7696 -1.5154  0.4337
 7543TIP3   OH244119   2.719   6.026   1.984  0.3061 -0.3317 -0.7414
 7543TIP3    H144120   2.693   6.095   2.044  0.1722 -1.9126  1.0963
 7543TIP3    H244121   2.732   5.949   2.039  2.0793 -1.3912 -2.4848
 7544TIP3   OH244122   3.574   3.719   5.439 -0.1000  0.2838  0.0943
 7544TIP3    H144123   3.578   3.770   5.520 -1.1267 -0.4316  0.6127
 7544TIP3    H244124   3.486   3.734   5.405 -0.4691 -1.1955  0.3140
 7545TIP3   OH244125   2.315   6.596  16.716 -0.2000 -0.4542  0.4482
 7545TIP3    H144126   2.222   6.618  16.715 -0.0067  0.4753 -1.6453
 7545TIP3    H244127   2.353   6.656  16.780 -0.9237 -0.3250  0.7650
 7546TIP3   OH244128   2.632   3.054  15.269 -0.5155  0.0746  0.0809
 7546TIP3    H144129   2.693   3.043  15.196  0.9588  0.6437  1.1987
 7546TIP3    H244130   2.587   3.136  15.250  1.3375  1.3205  0.7981
 7547TIP3   OH244131   2.780   2.430   4.662 -0.7278  0.2109  0.1749
 7547TIP3    H144132   2.823   2.345   4.665 -0.3416  0.3939 -0.0156
 7547TIP3    H244133   2.686   2.410   4.664 -0.7188 -0.3535 -2.1108
 7548TIP3   OH244134   6.144   3.339   4.825 -0.1778 -0.2632  0.1521
 7548TIP3    H144135   6.106   3.358   4.739  0.8690 -1.2724 -0.5597
 7548TIP3    H244136   6.221   3.396   4.830 -0.3958  0.0034  0.5567
 7549TIP3   OH244137   5.612   4.068   1.203  0.3110 -0.8380 -0.3588
 7549TIP3    H144138   5.559   4.111   1.137  0.8888  0.7445  0.1642
 7549TIP3    H244139   5.572   4.094   1.286  1.9962  0.6238  0.0625
 7550TIP3   OH244140   2.835   4.930   5.349 -0.5438 -0.0233 -0.0872
 7550TIP3    H144141   2.793   4.894   5.270  0.5113  1.4103 -1.3612
 7550TIP3    H244142   2.919   4.885   5.353 -0.9237 -0.6845  0.7164
 7551TIP3   OH244143   3.044   1.383  12.831  0.3678  0.0823 -0.1908
 7551TIP3    H144144   3.101   1.331  12.888  0.8077  0.1207 -0.5837
 7551TIP3    H244145   3.095   1.394  12.751 -0.8719 -1.4058 -1.2664
 7552TIP3   OH244146   1.142   3.962   3.584 -0.1235  0.5313  0.0586
 7552TIP3    H144147   1.048   3.978   3.585  0.0498  1.9084  2.1837
 7552TIP3    H244148   1.180   4.043   3.551  0.3092 -0.7521 -2.8551
 7553TIP3   OH244149   1.347   5.728  12.148  0.3341  0.0167 -0.4422
 7553TIP3    H144150   1.389   5.741  12.063  1.1613  0.3390  0.0017
 7553TIP3    H244151   1.321   5.636  12.148 -0.4889  0.2216 -1.3881
 7554TIP3   OH244152   2.623   4.840  14.252  0.5519 -0.1742  0.1061
 7554TIP3    H144153   2.624   4.775  14.323  0.0255  0.8160  1.0371
 7554TIP3    H244154   2.558   4.806  14.190  0.3410 -0.5856  0.5453
 7555TIP3   OH244155   5.957   5.710   2.559 -0.1517 -0.0444  0.6506
 7555TIP3    H144156   5.964   5.619   2.587 -0.6180 -1.0175 -2.1630
 7555TIP3    H244157   6.026   5.720   2.493 -0.5710  1.4310  0.4071
 7556TIP3   OH244158   3.693   3.366   3.444  0.3159 -0.2702 -0.6656
 7556TIP3    H144159   3.621   3.421   3.413  0.8841  0.6080 -0.4570
 7556TIP3    H244160   3.760   3.373   3.376  0.3200 -0.8590 -0.7268
 7557TIP3   OH244161   4.582   6.399   5.025 -0.7950 -0.2320  0.2262
 7557TIP3    H144162   4.510   6.349   5.065  0.6798 -1.0581  1.9837
 7557TIP3    H244163   4.633   6.334   4.978 -1.8369  0.5544 -2.1676
 7558TIP3   OH244164   0.587   3.171   4.281 -0.0361 -0.3891 -0.1456
 7558TIP3    H144165   0.552   3.254   4.249 -3.2476 -1.3394  0.5319
 7558TIP3    H244166   0.588   3.114   4.204  1.6283  0.0585 -0.4900
 7559TIP3   OH244167   4.422   5.533  15.109  0.2006 -0.2785  0.0480
 7559TIP3    H144168   4.425   5.609  15.052 -1.7811  0.5061  0.9199
 7559TIP3    H244169   4.461   5.563  15.191 -2.1132  0.4043  0.9728
 7560TIP3   OH244170   2.926   2.980   3.461  0.2285 -0.2374 -0.5140
 7560TIP3    H144171   2.906   2.903   3.408 -0.7542 -0.0603 -0.4111
 7560TIP3    H244172   2.927   2.948   3.551  0.0243 -0.1639 -0.4868
 7561TIP3   OH244173   0.257   1.208   3.300  0.1303  0.6012 -0.6342
 7561TIP3    H144174   0.224   1.146   3.234 -3.0024  2.0595 -0.6395
 7561TIP3    H244175   0.255   1.159   3.382 -0.1782  0.0197 -0.9778
 7562TIP3   OH244176   3.524   0.608  14.860 -0.4936 -0.0109 -0.2320
 7562TIP3    H144177   3.564   0.537  14.911 -0.3198  0.2229 -0.0400
 7562TIP3    H244178   3.438   0.622  14.901 -0.7382 -0.4493 -0.5869
 7563TIP3   OH244179   5.257   0.126   3.632 -0.8151  0.4019  0.2348
 7563TIP3    H144180   5.231   0.218   3.629 -2.7290 -0.0379  1.2554
 7563TIP3    H244181   5.182   0.082   3.673  0.5896 -1.4221  0.9843
 7564TIP3   OH244182   4.731   1.106  11.325  0.2198 -0.0001 -0.4528
 7564TIP3    H144183   4.681   1.063  11.256  1.0351 -1.0014 -0.4340
 7564TIP3    H244184   4.810   1.054  11.334  1.0368  1.2468 -0.1156
 7565TIP3   OH244185   3.759   4.442  12.185  0.3293 -0.0901  0.6147
 7565TIP3    H144186   3.685   4.395  12.146 -0.3893  0.5565  1.1658
 7565TIP3    H244187   3.759   4.527  12.141  1.3258 -0.4077 -0.0359
 7566TIP3   OH244188   0.082   5.383  15.884 -0.2746  0.2709  0.3557
 7566TIP3    H144189   0.168   5.341  15.895 -0.5118 -0.4635 -0.4657
 7566TIP3    H244190   0.063   5.375  15.791 -0.9751  0.9528  0.4346
 7567TIP3   OH244191   6.442   3.394  15.418 -0.1554 -0.0177  0.5148
 7567TIP3    H144192   6.520   3.364  15.371  0.0148 -1.6220  1.7317
 7567TIP3    H244193   6.369   3.375  15.358  0.1640 -0.9857  0.4149
 7568TIP3   OH244194   0.276   1.337   5.824  0.0367  0.2572 -0.3688
 7568TIP3    H144195   0.212   1.406   5.805 -0.7863  0.3028  2.1578
 7568TIP3    H244196   0.348   1.382   5.868 -1.1302 -0.5239  2.6045
 7569TIP3   OH244197   1.172   3.865  14.135 -0.5469 -0.0175  0.1522
 7569TIP3    H144198   1.251   3.847  14.084 -0.2181  0.1801  0.5910
 7569TIP3    H244199   1.102   3.870  14.069 -0.3002 -0.7915 -0.1804
 7570TIP3   OH244200   3.838   5.382   4.706  0.2466  0.0135 -0.6416
 7570TIP3    H144201   3.926   5.420   4.699  0.2245  0.2978  0.3790
 7570TIP3    H244202   3.829   5.328   4.628  1.5502 -0.4762 -0.4931
 7571TIP3   OH244203   0.709   4.108  11.166 -0.3329 -0.3139 -0.3121
 7571TIP3    H144204   0.719   4.187  11.112 -0.8980 -0.5892 -0.8296
 7571TIP3    H244205   0.618   4.110  11.194  0.1630  0.2991  1.4147
 7572TIP3   OH244206   5.733   5.679  12.442  0.3231  0.0131  0.2044
 7572TIP3    H144207   5.740   5.629  12.524 -1.3638  0.6687  0.8023
 7572TIP3    H244208   5.817   5.666  12.398  1.6751  0.4567  2.4951
 7573TIP3   OH244209   4.703   1.395  15.362  0.1723 -0.2100 -0.3245
 7573TIP3    H144210   4.792   1.418  15.390 -0.4547  1.6181  0.3021
 7573TIP3    H244211   4.672   1.473  15.316 -1.7352 -0.1104  1.0437
 7574TIP3   OH244212   3.610   3.522   1.695 -0.1574  0.1169 -0.3200
 7574TIP3    H144213   3.604   3.430   1.723 -0.2698  0.0893 -0.4328
 7574TIP3    H244214   3.652   3.567   1.769  1.6468 -0.3606 -1.0148
 7575TIP3   OH244215   3.956   1.956   0.845  0.4796  0.1327  0.2039
 7575TIP3    H144216   3.979   2.047   0.862  1.1095 -0.0700  0.5010
 7575TIP3    H244217   3.861   1.953   0.850  0.4099  0.9054 -0.4864
 7576TIP3   OH244218   6.058   2.488   2.965  0.1536 -0.7672 -0.1752
 7576TIP3    H144219   5.970   2.452   2.962 -0.6641  1.1181 -0.2970
 7576TIP3    H244220   6.046   2.580   2.991  1.8824  0.0962 -2.1142
 7577TIP3   OH244221   4.936   2.050   3.423 -0.2632  0.4343 -0.0168
 7577TIP3    H144222   4.981   1.981   3.375 -0.5588 -0.7348  1.3105
 7577TIP3    H244223   4.939   2.021   3.514 -3.4927  0.3349  0.1836
 7578TIP3   OH244224   6.085   4.603  14.017 -0.0744  0.3458  0.4129
 7578TIP3    H144225   6.052   4.556  14.094 -1.6981  1.4309  0.4466
 7578TIP3    H244226   6.010   4.606  13.958  0.6707  0.9360 -0.5222
 7579TIP3   OH244227   6.585   1.505  16.120  0.2670  0.1767 -0.3111
 7579TIP3    H144228   6.550   1.457  16.195  1.6017 -0.2232  0.0859
 7579TIP3    H244229   6.585   1.596  16.148  0.3694  0.0775  0.0212
 7580TIP3   OH244230   0.924   6.041   2.741  0.7038  0.1954  0.2413
 7580TIP3    H144231   0.977   6.060   2.663  0.7884  0.6636  0.4131
 7580TIP3    H244232   0.834   6.048   2.711  0.7345 -0.0028  0.0951
 7581TIP3   OH244233   4.933   3.770  14.746 -0.1491 -0.3902 -0.1976
 7581TIP3    H144234   4.873   3.700  14.720 -0.5486  0.3666 -1.3661
 7581TIP3    H244235   5.011   3.756  14.692 -0.1594 -0.0414 -0.3007
 7582TIP3   OH244236   5.751   4.094   3.493  0.4880  0.0568 -0.3516
 7582TIP3    H144237   5.800   4.128   3.418 -0.0958 -0.5670 -1.0355
 7582TIP3    H244238   5.805   4.116   3.569  1.0566  0.7677 -0.9413
 7583TIP3   OH244239   1.196   6.346   3.057  0.1001  0.6369  0.4340
 7583TIP3    H144240   1.217   6.254   3.043  0.2708  0.7039  0.2574
 7583TIP3    H244241   1.133   6.367   2.988 -0.7425  0.3733  1.0981
 7584TIP3   OH244242   1.930   3.319  16.755  0.1023 -0.5313  0.2117
 7584TIP3    H144243   1.950   3.348  16.666  2.2837  0.6311  1.0054
 7584TIP3    H244244   1.950   3.225  16.755  1.0545 -0.3403 -0.2811
 7585TIP3   OH244245   1.928   3.005  16.040 -0.0747  0.0103 -0.2733
 7585TIP3    H144246   1.889   3.088  16.067  0.9975  0.0480  1.3017
 7585TIP3    H244247   1.925   2.951  16.119  0.5585 -0.9477 -0.8864
 7586TIP3   OH244248   3.701   1.897   2.082 -0.0739 -0.1521  0.3453
 7586TIP3    H144249   3.708   1.985   2.120 -0.2873 -0.3500  0.8518
 7586TIP3    H244250   3.627   1.903   2.021  0.1805  0.1300  0.0610
 7587TIP3   OH244251   2.550   1.258   1.937  0.0278  0.0080  0.4116
 7587TIP3    H144252   2.608   1.211   1.876  0.2503  0.5183  0.2275
 7587TIP3    H244253   2.547   1.347   1.903 -0.3806  0.1327  0.7743
 7588TIP3   OH244254   3.359   0.845   4.657 -0.2644  0.7229 -0.1927
 7588TIP3    H144255   3.305   0.786   4.709  0.1363  1.3058  0.9256
 7588TIP3    H244256   3.449   0.824   4.683  0.1230 -0.4274 -2.2211
 7589TIP3   OH244257   0.545   1.332   0.716  0.2518 -0.2145 -0.0463
 7589TIP3    H144258   0.545   1.412   0.663  1.0371 -0.0768  0.1396
 7589TIP3    H244259   0.482   1.348   0.786 -0.8695 -0.4304 -0.9719
 7590TIP3   OH244260   0.495   0.831   0.724 -0.1234  0.6586  0.3933
 7590TIP3    H144261   0.582   0.850   0.688 -0.0241 -0.9134 -0.3022
 7590TIP3    H244262   0.435   0.858   0.654 -0.1053  0.4602  0.2994
 7591TIP3   OH244263   4.002   1.130  12.134  0.0383  0.3064 -0.1640
 7591TIP3    H144264   4.095   1.115  12.147  0.1835  0.4978 -0.9185
 7591TIP3    H244265   3.995   1.166  12.046 -0.9144 -1.4415 -0.8669
 7592TIP3   OH244266   6.793   3.418   5.846 -0.1321 -0.7249 -0.4765
 7592TIP3    H144267   6.807   3.348   5.782 -1.3560 -2.1905  0.7854
 7592TIP3    H244268   6.749   3.487   5.796  0.7174 -0.9971 -1.6471
 7593TIP3   OH244269   2.216   4.656  12.320  0.1456 -0.0160  0.2769
 7593TIP3    H144270   2.294   4.705  12.346 -0.5997  0.8739  0.9050
 7593TIP3    H244271   2.204   4.591  12.390 -1.6974  2.1925  2.1694
 7594TIP3   OH244272   3.995   4.616  14.103  0.9056  0.0722  0.2451
 7594TIP3    H144273   4.032   4.528  14.113  0.2305 -0.1442  0.9766
 7594TIP3    H244274   3.943   4.629  14.182 -0.7433  0.2799 -0.8121
 7595TIP3   OH244275   4.307   0.889   1.728  0.1465  0.1374 -0.2728
 7595TIP3    H144276   4.251   0.923   1.799  0.7643  0.2054  0.1898
 7595TIP3    H244277   4.362   0.964   1.703  0.0996  0.0438 -0.6610
 7596TIP3   OH244278   3.940   3.011  15.494  0.0079  0.3673  0.2970
 7596TIP3    H144279   3.910   3.086  15.545  0.0563 -0.0704  0.9855
 7596TIP3    H244280   3.862   2.979  15.450  0.0969  1.1593 -0.4511
 7597TIP3   OH244281   1.825   3.020   4.871 -0.1397 -0.1541 -0.2851
 7597TIP3    H144282   1.753   3.027   4.809 -0.3783 -0.0069  0.0070
 7597TIP3    H244283   1.878   2.947   4.839 -1.3923 -1.4385  0.4957
 7598TIP3   OH244284   1.759   0.940  13.773 -0.1875 -0.1692  0.5978
 7598TIP3    H144285   1.851   0.918  13.754  0.3029  0.3390  2.2152
 7598TIP3    H244286   1.720   0.859  13.803 -0.0650 -0.2175  0.6259
 7599TIP3   OH244287   3.664   1.407   5.490 -0.7093  0.9034  0.2047
 7599TIP3    H144288   3.628   1.383   5.575 -1.2166  1.6504  0.2138
 7599TIP3    H244289   3.714   1.487   5.507  1.4819 -0.4212  0.3080
 7600TIP3   OH244290   1.105   0.217  14.488 -0.1626  0.0198 -1.1566
 7600TIP3    H144291   1.083   0.290  14.546  1.2281  0.8692 -1.6502
 7600TIP3    H244292   1.078   0.139  14.536  0.8925  0.6983  0.6425
 7601TIP3   OH244293   1.416   4.100   0.801 -0.3762  0.3809  0.0892
 7601TIP3    H144294   1.445   4.041   0.870  0.9086  0.1274 -0.6375
 7601TIP3    H244295   1.341   4.056   0.761 -0.0528 -0.2795  0.2101
 7602TIP3   OH244296   0.603   4.391   0.997  0.4288  0.6023  0.1697
 7602TIP3    H144297   0.585   4.320   0.936  0.1206 -0.8309  1.8422
 7602TIP3    H244298   0.519   4.437   1.005  1.1595  2.6369 -2.6076
 7603TIP3   OH244299   6.089   0.316  13.546  0.8332 -0.0429 -0.3261
 7603TIP3    H144300   6.165   0.267  13.579  0.5012 -1.1469 -1.1546
 7603TIP3    H244301   6.119   0.407  13.545  1.7598 -0.3185  0.4277
 7604TIP3   OH244302   3.807   0.436  13.166  0.0267 -1.1926  0.1213
 7604TIP3    H144303   3.848   0.489  13.098 -0.6149 -1.1425 -0.2357
 7604TIP3    H244304   3.715   0.461  13.164  0.2996  0.3030  2.3802
 7605TIP3   OH244305   5.143   1.594   2.038  0.0905 -0.3167  0.1476
 7605TIP3    H144306   5.203   1.531   2.078  1.1622 -0.7767 -2.0295
 7605TIP3    H244307   5.162   1.676   2.083  1.1433 -0.8283  0.6869
 7606TIP3   OH244308   6.309   3.607   0.746 -0.0527  0.1144 -0.3012
 7606TIP3    H144309   6.317   3.543   0.675 -0.3319  0.3059 -0.5036
 7606TIP3    H244310   6.271   3.685   0.705  1.2338  0.7826 -0.2703
 7607TIP3   OH244311   5.044   0.299   0.594 -0.3274  0.1380 -0.1199
 7607TIP3    H144312   5.111   0.230   0.597 -0.9706 -0.4705  0.6543
 7607TIP3    H244313   5.062   0.354   0.669 -1.6756 -1.0028  1.1123
 7608TIP3   OH244314   4.336   4.215   4.251  0.1889  0.1311 -0.4297
 7608TIP3    H144315   4.381   4.250   4.328  0.3774 -1.8946  0.4697
 7608TIP3    H244316   4.404   4.201   4.186  0.7048 -1.5610  0.4067
 7609TIP3   OH244317   0.456   5.525  10.519 -0.1839 -0.2711 -0.2084
 7609TIP3    H144318   0.507   5.599  10.552 -0.0613 -0.1304 -0.7051
 7609TIP3    H244319   0.367   5.560  10.509 -0.2649 -0.3674  0.1448
 7610TIP3   OH244320   2.300   1.367  12.798  0.4301 -0.2630 -0.6784
 7610TIP3    H144321   2.216   1.375  12.842 -0.0656  1.5071 -1.8039
 7610TIP3    H244322   2.282   1.395  12.708  2.3714  1.0441 -0.7289
 7611TIP3   OH244323   0.119   2.747  15.721  0.4524  0.2326  0.1092
 7611TIP3    H144324   0.167   2.830  15.711  1.2463 -0.2380 -0.0876
 7611TIP3    H244325   0.038   2.760  15.671  1.4074  0.2597 -1.4928
 7612TIP3   OH244326   1.036   5.712  14.939  0.2110 -0.8015  0.1697
 7612TIP3    H144327   1.064   5.803  14.949 -0.3102 -0.4265 -1.4442
 7612TIP3    H244328   0.947   5.710  14.974  0.2010 -0.6827  0.1502
 7613TIP3   OH244329   6.272   0.469  15.161  0.0794  0.8063 -0.4680
 7613TIP3    H144330   6.210   0.521  15.211 -0.8689 -0.7417  0.0285
 7613TIP3    H244331   6.232   0.459  15.074 -0.7390 -0.7535  0.0550
 7614TIP3   OH244332   4.225   0.536   5.261 -0.6004  0.4049 -0.2681
 7614TIP3    H144333   4.298   0.595   5.282  0.9005 -1.5010  0.1858
 7614TIP3    H244334   4.158   0.558   5.326 -0.1785  1.7096 -0.2286
 7615TIP3   OH244335   2.913   4.220   5.318 -0.2463 -0.0473  0.0866
 7615TIP3    H144336   2.917   4.266   5.234  1.4978 -0.5688 -0.1500
 7615TIP3    H244337   2.842   4.264   5.365 -1.1665  0.3668 -1.5757
 7616TIP3   OH244338   5.601   2.694  12.594  0.3079  0.0191 -0.4078
 7616TIP3    H144339   5.684   2.681  12.641  0.1921 -1.5387 -0.5987
 7616TIP3    H244340   5.571   2.606  12.572 -1.1896  0.5799 -0.7373
 7617TIP3   OH244341   2.545   3.050  13.041 -0.5605  0.1208 -0.1592
 7617TIP3    H144342   2.516   2.966  13.005  3.4866 -0.8381 -1.6668
 7617TIP3    H244343   2.575   3.029  13.130 -0.7249  0.2595 -0.0692
 7618TIP3   OH244344   0.763   6.103   1.885 -0.4845 -0.0472 -0.3651
 7618TIP3    H144345   0.775   6.021   1.836 -2.0635 -0.0811 -0.7478
 7618TIP3    H244346   0.771   6.172   1.819  1.7418  0.2107  0.1029
 7619TIP3   OH244347   6.035   3.842  10.898  0.1889 -0.1824 -0.0692
 7619TIP3    H144348   6.035   3.924  10.946  1.6492 -0.5242  0.5930
 7619TIP3    H244349   5.985   3.781  10.953 -0.7958  0.2215 -0.5063
 7620TIP3   OH244350   5.332   4.527  13.921  0.0651  0.1282 -0.1051
 7620TIP3    H144351   5.343   4.615  13.956 -2.0956  0.0833  0.7986
 7620TIP3    H244352   5.295   4.540  13.834  1.2391  0.1224 -0.6232
 7621TIP3   OH244353   4.769   4.940   6.839  0.6271  0.8063 -0.8980
 7621TIP3    H144354   4.788   4.930   6.933 -0.5926  0.4937 -0.6670
 7621TIP3    H244355   4.741   5.031   6.830 -0.8823  0.4115 -0.6187
 7622TIP3   OH244356   2.513   0.369  14.911  0.0442 -0.2938  0.4785
 7622TIP3    H144357   2.429   0.324  14.896 -0.6341  0.8093  0.8226
 7622TIP3    H244358   2.492   0.436  14.976  1.2080  0.0113  0.5498
 7623TIP3   OH244359   4.820   6.689  13.275 -0.2381  0.6587 -0.0517
 7623TIP3    H144360   4.765   6.731  13.209 -0.1133  1.1237  0.1383
 7623TIP3    H244361   4.899   6.742  13.279  1.0362 -0.9919 -1.5856
 7624TIP3   OH244362   3.972   4.490  13.503  0.7432  0.4905  0.0214
 7624TIP3    H144363   3.924   4.527  13.577  0.8057 -2.4672  1.7023
 7624TIP3    H244364   4.063   4.487  13.532  0.7768 -0.6832 -0.1455
 7625TIP3   OH244365   3.388   0.201   1.084  0.3554  0.0335  0.1868
 7625TIP3    H144366   3.461   0.222   1.026 -0.4957  0.5729 -0.7329
 7625TIP3    H244367   3.421   0.131   1.140  1.6074  0.3419 -0.1279
 7626TIP3   OH244368   3.624   3.813  12.673 -0.3002  0.0170  0.0547
 7626TIP3    H144369   3.719   3.802  12.674 -0.4685 -1.8317 -0.8242
 7626TIP3    H244370   3.604   3.842  12.584 -0.6061 -0.0930  0.0857
 7627TIP3   OH244371   4.557   1.865   2.567 -0.2240  0.2533 -0.1753
 7627TIP3    H144372   4.496   1.796   2.593  0.4400  0.1130  1.0739
 7627TIP3    H244373   4.609   1.827   2.497 -0.8348  0.0005 -0.4994
 7628TIP3   OH244374   6.312   3.442   3.042 -0.2912  0.3606 -0.1321
 7628TIP3    H144375   6.337   3.371   2.983 -0.5444 -0.2805  0.5177
 7628TIP3    H244376   6.344   3.521   2.999 -0.7488 -0.0617 -1.2746
 7629TIP3   OH244377   0.160   5.827   1.068 -0.2755 -0.2863 -0.0594
 7629TIP3    H144378   0.127   5.890   1.132  1.5923  0.9362 -0.2537
 7629TIP3    H244379   0.133   5.742   1.104 -2.0990  0.5334  0.6412
 7630TIP3   OH244380   1.534   3.051  12.591  0.3510 -0.2050 -0.1559
 7630TIP3    H144381   1.505   3.022  12.505 -2.0423  2.4468 -0.4134
 7630TIP3    H244382   1.570   2.973  12.633 -1.0242 -2.2126 -2.4897
 7631TIP3   OH244383   4.829   2.264   5.825 -0.1763  0.3167  0.0221
 7631TIP3    H144384   4.825   2.257   5.730  1.4923 -1.1292  0.0050
 7631TIP3    H244385   4.800   2.354   5.844  0.6404  1.0446 -1.9341
 7632TIP3   OH244386   4.014   2.422   2.218 -0.0494 -0.2678 -0.1094
 7632TIP3    H144387   4.022   2.509   2.179 -0.6613 -0.3662 -0.4773
 7632TIP3    H244388   3.920   2.411   2.234 -0.0692 -1.1263 -0.7136
 7633TIP3   OH244389   0.483   6.446  14.130  0.0516 -0.7651 -0.4065
 7633TIP3    H144390   0.547   6.468  14.062 -0.6595 -0.2452 -0.9125
 7633TIP3    H244391   0.426   6.522  14.136  0.5006 -0.5267  1.2581
 7634TIP3   OH244392   3.259   5.572  12.386 -0.4229 -0.1273 -0.4742
 7634TIP3    H144393   3.312   5.534  12.315  1.2200  0.4613  0.3872
 7634TIP3    H244394   3.283   5.664  12.387 -0.2823 -0.1664  0.9715
 7635TIP3   OH244395   4.853   5.618  16.481 -0.3083  0.0537  0.2357
 7635TIP3    H144396   4.926   5.635  16.422  0.3326 -0.4343  0.8650
 7635TIP3    H244397   4.775   5.643  16.431  0.0549 -1.9861 -1.4646
 7636TIP3   OH244398   1.426   2.727  14.805  0.0603  0.2177  0.5663
 7636TIP3    H144399   1.502   2.683  14.769  0.0238  0.3626  0.3094
 7636TIP3    H244400   1.400   2.674  14.880  1.0892  0.7861  1.3383
 7637TIP3   OH244401   2.312   2.211  11.580 -0.1949  0.2566  0.5273
 7637TIP3    H144402   2.293   2.125  11.618 -1.2485 -0.1736 -0.8714
 7637TIP3    H244403   2.396   2.200  11.537 -0.5063 -0.2105  0.0223
 7638TIP3   OH244404   0.469   5.209  14.296  0.1644 -0.6262 -0.0317
 7638TIP3    H144405   0.560   5.197  14.269 -0.0540  0.4245 -1.3521
 7638TIP3    H244406   0.467   5.295  14.337 -0.3181 -0.4308 -0.4517
 7639TIP3   OH244407   5.100   3.756   3.178  0.0253  0.1589  0.3197
 7639TIP3    H144408   5.170   3.741   3.114  0.0835  0.8356  0.2150
 7639TIP3    H244409   5.138   3.818   3.240  0.0748 -0.7240  1.1919
 7640TIP3   OH244410   6.781   5.613   4.196  0.1123 -0.0416 -0.2751
 7640TIP3    H144411   6.802   5.531   4.151 -0.4600 -0.3700  0.0409
 7640TIP3    H244412   6.863   5.662   4.197 -0.0142  0.3272 -2.3771
 7641TIP3   OH244413   5.051   3.981   3.656  0.3755  0.0399 -0.0870
 7641TIP3    H144414   5.047   3.923   3.731  2.1554 -0.4874 -0.3481
 7641TIP3    H244415   5.003   3.935   3.587  0.9239 -0.6860  0.0017
 7642TIP3   OH244416   4.614   3.255  14.462 -0.1079 -0.2198  0.0354
 7642TIP3    H144417   4.658   3.334  14.432 -1.3722  1.2619  1.8129
 7642TIP3    H244418   4.562   3.283  14.538 -1.1515 -2.6181  0.3343
 7643TIP3   OH244419   4.100   2.963   1.255 -0.0296  0.4299 -0.0034
 7643TIP3    H144420   4.100   2.986   1.162  1.3956  1.6724  0.2642
 7643TIP3    H244421   4.181   2.913   1.267 -0.3415  0.0424  0.5238
 7644TIP3   OH244422   6.295   2.277   5.924  0.5064 -0.0821 -0.2799
 7644TIP3    H144423   6.326   2.212   5.861 -1.5126 -2.0536  0.5923
 7644TIP3    H244424   6.232   2.330   5.875 -0.1500 -0.8282 -0.2690
 7645TIP3   OH244425   1.196   3.961   2.429 -0.1664  0.0089  0.1970
 7645TIP3    H144426   1.174   4.043   2.386 -0.8819 -1.0800 -1.6297
 7645TIP3    H244427   1.290   3.951   2.415 -0.1235  0.3887  0.1980
 7646TIP3   OH244428   5.546   2.495   2.408  0.3359  0.7115  0.4484
 7646TIP3    H144429   5.484   2.447   2.463 -0.1119  1.5712  0.6985
 7646TIP3    H244430   5.493   2.527   2.335  0.4475  1.5775  0.7379
 7647TIP3   OH244431   4.602   2.998   6.170  0.7247  0.0068 -0.0258
 7647TIP3    H144432   4.580   3.022   6.261  1.9694 -1.0307  0.5802
 7647TIP3    H244433   4.697   2.999   6.167  0.7140 -0.6408 -1.1439
 7648TIP3   OH244434   0.632   5.052  15.316  0.1684 -0.0951  0.1523
 7648TIP3    H144435   0.546   5.047  15.358  0.3429 -1.2728  0.4300
 7648TIP3    H244436   0.689   5.004  15.376  0.7670 -0.3597 -0.6146
 7649TIP3   OH244437   0.534   4.274   2.844 -0.4107  0.7020  0.4736
 7649TIP3    H144438   0.566   4.351   2.891 -1.4037  1.2731  0.2517
 7649TIP3    H244439   0.471   4.309   2.781 -1.4033 -0.3503  0.8473
 7650TIP3   OH244440   1.628   2.876   4.001 -0.2414 -0.0640 -0.2332
 7650TIP3    H144441   1.563   2.931   4.045 -0.5211 -1.3407  0.9919
 7650TIP3    H244442   1.589   2.789   4.001  0.7185 -0.5117 -1.1012
 7651TIP3   OH244443   4.047   6.053  15.111 -0.1499  0.0973  0.0794
 7651TIP3    H144444   4.072   6.140  15.083 -0.4749  0.2032  0.1092
 7651TIP3    H244445   4.047   6.057  15.207  0.2300 -0.0496  0.0863
 7652TIP3   OH244446   4.657   0.599  17.003  0.0210 -0.3125  0.4126
 7652TIP3    H144447   4.748   0.601  17.032 -0.2255 -0.4300  1.2246
 7652TIP3    H244448   4.657   0.540  16.928  0.2952 -1.8854  1.5998
 7653TIP3   OH244449   1.766   6.674  16.679 -0.6246 -0.0783  0.0423
 7653TIP3    H144450   1.697   6.642  16.620  0.5824 -1.9351 -0.4473
 7653TIP3    H244451   1.759   6.617  16.756 -0.1790  0.2777  0.3462
 7654TIP3   OH244452   3.672   5.145  12.938  0.7166  0.3312  0.7763
 7654TIP3    H144453   3.680   5.235  12.905  1.6359 -0.4117 -1.1962
 7654TIP3    H244454   3.605   5.105  12.882  1.3828 -0.6165  0.6255
 7655TIP3   OH244455   6.371   5.264  17.234  0.1675 -0.4629 -0.2394
 7655TIP3    H144456   6.321   5.345  17.222  4.0236  2.1550 -0.2051
 7655TIP3    H244457   6.304   5.197  17.247 -3.2742  2.6918 -0.0077
 7656TIP3   OH244458   5.985   4.948  13.165  0.5793 -0.1432 -0.5163
 7656TIP3    H144459   5.919   4.883  13.143  0.9265 -0.5685 -0.3027
 7656TIP3    H244460   5.940   5.010  13.223  0.4143 -0.5190 -0.2424
 7657TIP3   OH244461   5.166   3.951   5.999 -0.2011 -0.1086 -0.1187
 7657TIP3    H144462   5.184   3.884   6.065  0.9598 -0.2532 -0.5695
 7657TIP3    H244463   5.092   4.001   6.035 -0.9547 -1.4929  0.3102
 7658TIP3   OH244464   4.859   4.146  15.932 -0.1857 -0.0840  0.6765
 7658TIP3    H144465   4.851   4.122  16.025 -1.6151 -0.7636  0.3984
 7658TIP3    H244466   4.824   4.071  15.884 -0.5015  0.7082 -0.3781
 7659TIP3   OH244467   2.333   2.367  11.805 -0.2523 -0.1582  0.3907
 7659TIP3    H144468   2.310   2.312  11.731  0.7796  0.7475 -0.6409
 7659TIP3    H244469   2.309   2.456  11.779  0.4869  0.2292  0.9673
 7660TIP3   OH244470   3.138   3.905  10.647  0.5879  0.6740 -0.8508
 7660TIP3    H144471   3.083   3.932  10.720  1.2634 -0.7607  0.2535
 7660TIP3    H244472   3.147   3.983  10.592 -2.0155  1.1133 -0.7705
 7661TIP3   OH244473   1.656   1.181  16.098  0.2907  0.0425 -0.1204
 7661TIP3    H144474   1.632   1.174  16.005 -1.0327  2.3384 -0.0400
 7661TIP3    H244475   1.725   1.116  16.110 -2.1593 -3.1719 -1.7345
 7662TIP3   OH244476   6.246   5.813  12.639  0.2830 -0.4463 -0.1281
 7662TIP3    H144477   6.231   5.791  12.731 -0.3108 -1.1771 -0.3900
 7662TIP3    H244478   6.295   5.739  12.604 -0.6088 -0.7793 -0.7078
 7663TIP3   OH244479   2.129   4.868  12.720 -0.1709  0.7171  0.6302
 7663TIP3    H144480   2.053   4.912  12.757 -0.9991 -0.2846  0.1466
 7663TIP3    H244481   2.157   4.806  12.788 -0.3169  0.4712  0.4665
 7664TIP3   OH244482   4.017   3.066  12.087 -0.3077  0.0922  0.4829
 7664TIP3    H144483   4.053   3.139  12.137  0.1833 -0.5632  1.1232
 7664TIP3    H244484   4.087   3.000  12.089  0.2450  0.4816 -2.1229
 7665TIP3   OH244485   1.608   4.768  15.405 -0.7047  0.1765  0.3597
 7665TIP3    H144486   1.679   4.772  15.341  0.2267 -1.1853  1.2630
 7665TIP3    H244487   1.578   4.678  15.402 -0.1815 -0.1078  2.2908
 7666TIP3   OH244488   1.038   0.033  12.325  0.2594  0.2045  0.1698
 7666TIP3    H144489   1.108   0.094  12.304  0.4264  0.1711  0.6323
 7666TIP3    H244490   0.972   0.048  12.256  1.5607 -1.1729 -1.4650
 7667TIP3   OH244491   6.793   3.624  16.670 -0.2000 -0.0970  0.4021
 7667TIP3    H144492   6.720   3.563  16.657 -0.2796 -0.3307  1.8007
 7667TIP3    H244493   6.866   3.583  16.624 -0.4234 -0.9340  0.7745
 7668TIP3   OH244494   0.476   5.253  12.735 -0.2005 -0.4225  0.7716
 7668TIP3    H144495   0.505   5.222  12.821  0.1459 -0.0156  0.8048
 7668TIP3    H244496   0.547   5.230  12.676 -0.7120 -1.2758  0.4644
 7669TIP3   OH244497   4.842   1.336   1.216 -0.5025  0.5136  0.0277
 7669TIP3    H144498   4.812   1.349   1.126 -0.2411  0.5348 -0.0586
 7669TIP3    H244499   4.830   1.242   1.232  0.6856  0.2563 -0.4931
 7670TIP3   OH244500   5.098   6.570  13.876 -0.0585  0.2853 -0.4920
 7670TIP3    H144501   5.075   6.583  13.968 -0.3909 -1.0116 -0.3701
 7670TIP3    H244502   5.187   6.604  13.868  1.1377 -2.1966  1.0354
 7671TIP3   OH244503   6.731   1.952  17.028 -0.3318  0.0403  0.8483
 7671TIP3    H144504   6.809   1.939  17.082 -0.3196 -0.5029  0.7055
 7671TIP3    H244505   6.689   2.029  17.065  0.1843  0.2358  1.0336
 7672TIP3   OH244506   4.614   6.059   5.479 -0.5348 -0.0702  0.6318
 7672TIP3    H144507   4.579   5.996   5.542 -0.2812 -0.4429  0.4071
 7672TIP3    H244508   4.695   6.091   5.520 -0.4075 -0.2588  0.5329
 7673TIP3   OH244509   2.322   3.008   5.673 -0.7001  0.7137  0.5994
 7673TIP3    H144510   2.411   2.982   5.695 -1.4556 -2.0062  0.8154
 7673TIP3    H244511   2.311   2.983   5.581 -0.4433  3.6633 -0.3545
 7674TIP3   OH244512   3.332   0.683  12.796  0.2829 -0.3541  0.0266
 7674TIP3    H144513   3.278   0.604  12.786  0.0807 -0.3104  0.7149
 7674TIP3    H244514   3.269   0.755  12.793  0.3049 -0.2974  0.7246
 7675TIP3   OH244515   0.974   0.696   2.021 -0.2287 -0.2737 -0.3662
 7675TIP3    H144516   1.014   0.671   2.105  0.0789  0.0035 -0.4229
 7675TIP3    H244517   0.933   0.617   1.989  0.7771 -0.7267 -0.5756
 7676TIP3   OH244518   2.141   5.910   5.004  0.0102 -0.2937  0.1046
 7676TIP3    H144519   2.138   5.961   4.923 -1.8330 -0.6447 -0.0762
 7676TIP3    H244520   2.230   5.875   5.007 -0.0116 -0.6134 -1.9889
 7677TIP3   OH244521   5.030   6.340   6.592 -0.3019 -0.4699 -0.7960
 7677TIP3    H144522   4.941   6.376   6.586 -0.3548 -0.2663  0.7089
 7677TIP3    H244523   5.020   6.247   6.571 -0.8939 -0.4689 -0.5293
 7678TIP3   OH244524   2.278   1.230   4.749  0.4941 -0.0796  0.2464
 7678TIP3    H144525   2.183   1.221   4.756  0.2908  1.7427  0.2985
 7678TIP3    H244526   2.311   1.141   4.756 -1.4164 -1.3169 -3.5466
 7679TIP3   OH244527   4.385   6.168   2.572  0.5940  0.0917  0.0768
 7679TIP3    H144528   4.428   6.151   2.488  1.8427 -0.7281  0.8419
 7679TIP3    H244529   4.456   6.165   2.636 -0.3598  0.5100  1.1926
 7680TIP3   OH244530   1.783   0.147   6.424 -0.1279  0.4127 -0.3209
 7680TIP3    H144531   1.771   0.052   6.432 -1.8126  0.6986  1.0639
 7680TIP3    H244532   1.873   0.157   6.392  0.4268 -1.6092  0.4665
 7681TIP3   OH244533   3.288   0.460  15.765 -0.6981  0.6654 -0.3895
 7681TIP3    H144534   3.355   0.475  15.832 -0.9320 -0.1042  0.0344
 7681TIP3    H244535   3.331   0.484  15.682  1.6205 -3.4536 -0.7064
 7682TIP3   OH244536   3.191   5.793   0.307 -0.3244 -0.0819 -0.3922
 7682TIP3    H144537   3.162   5.703   0.290  0.2745 -0.6985  1.5782
 7682TIP3    H244538   3.115   5.835   0.348  0.8766 -1.2995  3.5036
 7683TIP3   OH244539   4.484   4.319   2.060 -0.8945  0.3597  0.7836
 7683TIP3    H144540   4.542   4.340   1.987 -0.0311  0.7568  1.5542
 7683TIP3    H244541   4.399   4.356   2.035 -0.9375 -0.5806 -0.5425
 7684TIP3   OH244542   0.788   5.777   6.366 -0.4531 -0.3676 -0.0189
 7684TIP3    H144543   0.714   5.812   6.414 -2.1127 -1.8450 -1.3633
 7684TIP3    H244544   0.804   5.691   6.405 -0.4580 -0.6991 -0.7280
 7685TIP3   OH244545   3.871   2.600  13.186  0.2691 -0.2496 -0.0043
 7685TIP3    H144546   3.936   2.669  13.172  1.6986 -1.5186  0.1199
 7685TIP3    H244547   3.898   2.529  13.128 -0.0539 -1.4166  1.2259
 7686TIP3   OH244548   4.474   2.885  11.542 -0.0635  0.3891 -0.2408
 7686TIP3    H144549   4.545   2.932  11.586  1.2014 -1.2839 -0.4136
 7686TIP3    H244550   4.475   2.798  11.580  0.3225 -0.7836 -2.7340
 7687TIP3   OH244551   1.500   2.609  14.258  0.3598 -0.5997  0.3235
 7687TIP3    H144552   1.489   2.693  14.304  0.7874  0.2244 -1.0144
 7687TIP3    H244553   1.489   2.631  14.165  1.2049 -1.9004 -0.1123
 7688TIP3   OH244554   6.269   1.871   5.198  0.2838 -0.4677  0.2108
 7688TIP3    H144555   6.236   1.786   5.225  1.7605 -1.4986 -1.0568
 7688TIP3    H244556   6.216   1.934   5.247 -1.3310 -2.0736  0.6543
 7689TIP3   OH244557   3.283   6.775   2.411  0.4296  0.1983 -0.1753
 7689TIP3    H144558   3.335   6.775   2.331  0.1543  1.7776 -0.3861
 7689TIP3    H244559   3.340   6.814   2.477  0.1187  0.3457  0.0092
 7690TIP3   OH244560   0.831   4.972   1.519 -0.0028 -0.0561  0.7170
 7690TIP3    H144561   0.840   5.030   1.594 -0.3270 -1.8321  2.2209
 7690TIP3    H244562   0.921   4.948   1.496  0.1837  1.6429 -0.4679
 7691TIP3   OH244563   6.527   5.614  14.707 -0.7872  0.0757 -0.5545
 7691TIP3    H144564   6.449   5.560  14.720 -0.6319 -0.0187  0.0245
 7691TIP3    H244565   6.517   5.651  14.620 -1.0134 -0.7119 -0.8746
 7692TIP3   OH244566   5.828   5.467  16.375 -0.0273  0.0950 -0.0611
 7692TIP3    H144567   5.735   5.445  16.367 -0.0542  0.8999 -3.6067
 7692TIP3    H244568   5.873   5.384  16.359 -0.1212  0.0046  0.1368
 7693TIP3   OH244569   2.822   2.630   1.057  0.5533 -0.1589 -0.4304
 7693TIP3    H144570   2.735   2.605   1.086 -0.6222  1.7962 -1.9736
 7693TIP3    H244571   2.849   2.698   1.119 -0.4416  1.4786 -1.6960
 7694TIP3   OH244572   4.119   3.357   0.666  0.1271  0.2896 -0.4348
 7694TIP3    H144573   4.082   3.420   0.603 -1.0337  0.5084  0.4399
 7694TIP3    H244574   4.158   3.411   0.735  0.2893  0.0429 -0.3297
 7695TIP3   OH244575   1.798   4.872  11.992  0.4191 -0.3339 -0.1376
 7695TIP3    H144576   1.839   4.862  11.906 -1.0255  0.6041 -0.9889
 7695TIP3    H244577   1.728   4.806  11.992  0.7624 -0.7098  0.5634
 7696TIP3   OH244578   5.924   0.438  13.308 -1.4395  0.7731 -0.4899
 7696TIP3    H144579   5.945   0.521  13.352 -1.2963  1.5542 -1.9764
 7696TIP3    H244580   5.951   0.451  13.218 -0.5720 -1.2294 -0.5870
 7697TIP3   OH244581   3.395   5.479   1.151  0.3797 -0.3667 -1.1565
 7697TIP3    H144582   3.354   5.564   1.136 -2.8281 -0.7153  3.4332
 7697TIP3    H244583   3.336   5.416   1.109  0.9406 -0.5109 -1.7427
 7698TIP3   OH244584   0.052   2.397   2.066  0.0758 -0.6406 -0.8121
 7698TIP3    H144585   0.076   2.348   2.144 -0.7701  1.2266  0.6937
 7698TIP3    H244586   0.133   2.441   2.040  0.2230 -0.8247 -0.6678
 7699TIP3   OH244587   0.758   6.091   1.173 -0.1231  0.6165  0.1045
 7699TIP3    H144588   0.838   6.040   1.178 -0.3705  0.1765 -0.3063
 7699TIP3    H244589   0.722   6.089   1.262  0.5327  1.1772  0.3909
 7700TIP3   OH244590   6.034   2.976   4.983  0.2197 -0.4443 -0.0981
 7700TIP3    H144591   6.065   2.922   5.054 -1.0239 -2.8052 -1.2328
 7700TIP3    H244592   6.077   2.941   4.905 -0.2313  0.5310 -0.8109
 7701TIP3   OH244593   5.701   3.628  17.250  0.6959 -0.2281  0.3896
 7701TIP3    H144594   5.647   3.694  17.294 -0.0213 -1.0597  0.7904
 7701TIP3    H244595   5.658   3.545  17.270  1.8094 -0.8643  0.2266
 7702TIP3   OH244596   3.106   0.722  13.175 -0.3666 -0.1265 -0.0916
 7702TIP3    H144597   3.028   0.777  13.180 -0.0490  0.3184 -0.0230
 7702TIP3    H244598   3.123   0.697  13.266 -1.5278 -1.7952 -0.2767
 7703TIP3   OH244599   6.197   2.576  15.846 -0.4228 -0.3403 -0.1680
 7703TIP3    H144600   6.141   2.590  15.769 -1.4368  0.5303  0.6893
 7703TIP3    H244601   6.210   2.664  15.882 -2.1904 -0.9466  2.1536
 7704TIP3   OH244602   3.552   2.572  11.663 -0.3457 -0.0546 -0.0231
 7704TIP3    H144603   3.458   2.585  11.670 -0.4076  0.5476 -1.5863
 7704TIP3    H244604   3.562   2.489  11.616 -0.1051  0.0693 -0.1968
 7705TIP3   OH244605   4.768   3.167   4.692  0.4326 -0.2427  0.2841
 7705TIP3    H144606   4.787   3.094   4.633 -0.9465 -1.9703  1.8682
 7705TIP3    H244607   4.680   3.195   4.668  0.8413  0.7645 -0.1225
 7706TIP3   OH244608   5.173   4.789   2.434 -0.0730 -0.4959  0.0778
 7706TIP3    H144609   5.086   4.801   2.472 -0.6250  0.0856 -1.3111
 7706TIP3    H244610   5.229   4.769   2.509 -1.4291 -1.0741  0.9799
 7707TIP3   OH244611   4.605   5.039  12.250  0.3808 -0.3546  0.0280
 7707TIP3    H144612   4.601   5.059  12.343  1.8487 -0.7035  0.1999
 7707TIP3    H244613   4.587   4.945  12.245 -1.8088  0.0411 -0.2874
 7708TIP3   OH244614   0.462   1.414   2.289 -0.1424  0.0692  0.2006
 7708TIP3    H144615   0.499   1.475   2.353  0.2841 -0.6134  0.6097
 7708TIP3    H244616   0.394   1.367   2.337  0.3806 -0.6560  0.2507
 7709TIP3   OH244617   0.853   0.064  16.065  0.1052  0.0634  0.4644
 7709TIP3    H144618   0.775   0.040  16.014 -0.9056 -1.1327  2.4516
 7709TIP3    H244619   0.819   0.090  16.151  1.8718  0.1088  1.1910
 7710TIP3   OH244620   1.562   4.255   5.319 -0.1321 -0.1275 -0.2015
 7710TIP3    H144621   1.573   4.345   5.350 -0.8847  0.1949 -0.8420
 7710TIP3    H244622   1.562   4.262   5.223 -2.5460 -0.4762 -0.2833
 7711TIP3   OH244623   5.877   6.148  16.076 -0.0079 -0.0380  0.4181
 7711TIP3    H144624   5.944   6.189  16.131  1.6463 -1.2750 -0.5800
 7711TIP3    H244625   5.874   6.057  16.107  0.0829 -0.4423 -0.7251
 7712TIP3   OH244626   3.272   5.768  16.603 -0.5484 -0.0568  0.1401
 7712TIP3    H144627   3.248   5.797  16.691 -0.5456  0.0510  0.1059
 7712TIP3    H244628   3.278   5.849  16.552  1.5014  0.1116  0.5419
 7713TIP3   OH244629   4.336   4.293  14.896  0.1185 -0.4583  0.1739
 7713TIP3    H144630   4.270   4.363  14.896 -1.5092 -1.7781  3.1186
 7713TIP3    H244631   4.420   4.339  14.900 -0.7651  1.3035 -0.6256
 7714TIP3   OH244632   6.442   5.502   1.100  0.0177 -0.0355  0.4156
 7714TIP3    H144633   6.464   5.543   1.184 -0.3989  0.0535  0.4793
 7714TIP3    H244634   6.515   5.442   1.083  0.8240  0.9787  0.1494
 7715TIP3   OH244635   3.628   6.669  14.906 -0.5002  0.2240 -0.0587
 7715TIP3    H144636   3.562   6.687  14.973  0.5910  0.5811  0.9527
 7715TIP3    H244637   3.613   6.734  14.839 -1.8801 -0.3972 -0.3869
 7716TIP3   OH244638   0.067   6.639  15.495 -0.3910  0.1847  0.3030
 7716TIP3    H144639   0.128   6.692  15.546 -0.0957  0.4993 -0.3767
 7716TIP3    H244640  -0.005   6.622  15.556  0.7121 -0.8752  1.3871
 7717TIP3   OH244641   3.919   0.918  14.012  0.0583  0.1238 -0.3320
 7717TIP3    H144642   3.949   0.964  14.091  0.3007 -0.3941 -0.1153
 7717TIP3    H244643   3.975   0.840  14.008 -1.2603 -0.8656  0.0683
 7718TIP3   OH244644   6.334   6.491   0.484 -0.1227  0.0918 -0.5284
 7718TIP3    H144645   6.322   6.428   0.555 -1.0434  1.5636  0.7155
 7718TIP3    H244646   6.246   6.500   0.446  0.4295 -0.9182 -2.0981
 7719TIP3   OH244647   4.592   5.778  15.573 -0.0887  0.1294 -0.3303
 7719TIP3    H144648   4.615   5.761  15.664 -0.5060 -0.8380 -0.3999
 7719TIP3    H244649   4.648   5.852  15.547 -0.5187  0.9280  0.9408
 7720TIP3   OH244650   6.637   1.924  14.218 -0.3797 -0.0385 -0.1587
 7720TIP3    H144651   6.690   1.983  14.271 -0.2536  0.2599 -0.6201
 7720TIP3    H244652   6.682   1.840  14.223 -0.0499  0.1326 -0.2705
 7721TIP3   OH244653   1.012   5.428   0.300  0.0791  0.3555 -0.0793
 7721TIP3    H144654   1.073   5.500   0.288  0.2710  0.2052 -0.0001
 7721TIP3    H244655   0.945   5.443   0.233  0.7545 -0.0595 -0.8680
 7722TIP3   OH244656   0.999   6.785   3.447  0.1714 -0.2742 -0.2599
 7722TIP3    H144657   0.956   6.862   3.484 -1.2584 -0.3060 -1.7187
 7722TIP3    H244658   1.085   6.783   3.488 -0.8645  0.3429  2.0729
 7723TIP3   OH244659   6.355   2.076  17.251  0.5329  0.1463  0.3797
 7723TIP3    H144660   6.317   2.112  17.331  1.2820  0.5393  0.5634
 7723TIP3    H244661   6.352   2.147  17.187 -2.1640 -0.8170 -0.6928
 7724TIP3   OH244662   2.448   0.719   5.226 -0.0962  0.0724  0.2983
 7724TIP3    H144663   2.474   0.680   5.142  0.7596  1.3887 -0.0712
 7724TIP3    H244664   2.372   0.667   5.254  0.1641 -0.9612 -0.8415
 7725TIP3   OH244665   0.307   6.048   0.966  0.0894  0.6724 -0.4495
 7725TIP3    H144666   0.315   6.001   0.883  1.2867  0.1855 -0.0808
 7725TIP3    H244667   0.246   5.994   1.017  0.6976  0.0173 -0.3904
 7726TIP3   OH244668   6.772   1.978  16.763 -0.5588  0.4288  0.4078
 7726TIP3    H144669   6.787   1.963  16.857  0.6005  2.7995  0.6704
 7726TIP3    H244670   6.824   2.055  16.742 -0.8050 -0.0143 -2.2229
 7727TIP3   OH244671   0.976   2.274   2.300  0.4547 -0.3078  0.0054
 7727TIP3    H144672   0.991   2.343   2.365  1.2616 -0.7757  0.3193
 7727TIP3    H244673   1.010   2.195   2.341 -0.3400 -0.8753 -0.4147
 7728TIP3   OH244674   1.592   2.143   0.565  0.5844  0.3367  0.1891
 7728TIP3    H144675   1.503   2.129   0.599  1.2771 -1.3082  1.4792
 7728TIP3    H244676   1.639   2.063   0.589  1.6279 -0.2012 -3.2176
 7729TIP3   OH244677   0.016   4.430  11.975  0.4750  0.0602  0.1775
 7729TIP3    H144678   0.094   4.477  11.947  1.2779 -1.4570 -0.2298
 7729TIP3    H244679  -0.051   4.498  11.987  1.7366  1.3326  0.1552
 7730TIP3   OH244680   2.674   1.516   3.605 -0.5668 -0.1017 -0.0002
 7730TIP3    H144681   2.714   1.461   3.537 -1.2965 -1.1647  0.3881
 7730TIP3    H244682   2.687   1.605   3.575  2.5912 -0.3252  0.3921
 7731TIP3   OH244683   3.712   0.089  17.086 -0.2950 -0.5534 -0.8321
 7731TIP3    H144684   3.727   0.151  17.015  0.9386  1.3308  0.9447
 7731TIP3    H244685   3.795   0.042  17.096 -0.3483 -0.5737 -0.4386
 7732TIP3   OH244686   3.310   4.444  11.337  0.2448 -0.0265 -0.0852
 7732TIP3    H144687   3.392   4.482  11.307 -0.0432 -0.3849 -1.3535
 7732TIP3    H244688   3.261   4.426  11.258 -0.3088 -1.5152  0.5590
 7733TIP3   OH244689   2.803   5.469   0.702  0.4059 -0.3144 -0.5852
 7733TIP3    H144690   2.890   5.479   0.741 -0.8858  0.6428  2.2716
 7733TIP3    H244691   2.796   5.543   0.642  2.0467 -1.2356 -2.0367
 7734TIP3   OH244692   3.457   2.787   0.317 -0.9395 -0.0740  0.1035
 7734TIP3    H144693   3.412   2.704   0.300 -1.4640 -0.0118  1.0813
 7734TIP3    H244694   3.418   2.818   0.399  0.7162  0.1210  0.8413
 7735TIP3   OH244695   4.342   3.698  12.148  0.4347  0.5308  0.6424
 7735TIP3    H144696   4.278   3.633  12.118  0.8026  1.0026 -1.2973
 7735TIP3    H244697   4.294   3.752  12.210 -0.0085 -1.2765  1.9714
 7736TIP3   OH244698   6.182   3.066   2.938 -0.2131 -0.0754 -0.0486
 7736TIP3    H144699   6.101   3.039   2.895 -1.3944  2.4534  0.3651
 7736TIP3    H244700   6.156   3.140   2.992  2.6375  1.8921 -1.1338
 7737TIP3   OH244701   4.856   3.878   2.114 -0.3777  0.5541  0.2913
 7737TIP3    H144702   4.910   3.829   2.177 -1.8824 -0.4972  0.8449
 7737TIP3    H244703   4.783   3.910   2.166 -1.5463 -0.1480 -0.8560
 7738TIP3   OH244704   2.239   2.412  15.281 -0.0457 -0.6111 -0.2904
 7738TIP3    H144705   2.278   2.428  15.195  0.9811 -0.1815  0.2318
 7738TIP3    H244706   2.151   2.378  15.262 -0.4317  0.9371 -1.5006
 7739TIP3   OH244707   0.987   4.007  13.221  0.0304 -0.3302  0.0701
 7739TIP3    H144708   0.949   3.956  13.293 -0.2186 -0.6207 -0.2612
 7739TIP3    H244709   0.969   4.098  13.244 -0.7803 -0.4589 -0.0305
 7740TIP3   OH244710   3.374   1.172   2.344 -0.0355 -0.0196 -0.5060
 7740TIP3    H144711   3.442   1.235   2.321 -0.8233  1.1395  0.1818
 7740TIP3    H244712   3.300   1.227   2.371 -0.2279 -1.2518  1.6641
 7741TIP3   OH244713   0.894   6.003   5.006  0.0959 -0.0618  0.2529
 7741TIP3    H144714   0.975   5.957   5.029 -0.2868 -0.7422  0.2836
 7741TIP3    H244715   0.898   6.085   5.054  1.9393  1.0682 -1.6633
 7742TIP3   OH244716   2.286   6.715  17.169 -0.5492 -0.2355  0.5890
 7742TIP3    H144717   2.282   6.742  17.260 -0.9614 -0.3511  0.6073
 7742TIP3    H244718   2.379   6.700  17.152 -0.5146 -0.6412  1.1181
 7743TIP3   OH244719   1.522   4.554  11.054 -0.3157 -0.2267  0.0665
 7743TIP3    H144720   1.616   4.568  11.069 -0.1250 -0.9881 -0.3576
 7743TIP3    H244721   1.482   4.639  11.070  0.1435 -0.4057  2.6614
 7744TIP3   OH244722   0.156   5.418  11.810 -0.2604 -0.0332  0.0524
 7744TIP3    H144723   0.244   5.444  11.782 -0.9085  1.8885 -0.3213
 7744TIP3    H244724   0.146   5.453  11.898 -0.0291 -1.8593  0.8672
 7745TIP3   OH244725   2.290   2.425   0.060 -0.1358 -0.1208 -0.0597
 7745TIP3    H144726   2.271   2.448   0.151 -1.3819 -0.0058 -0.3266
 7745TIP3    H244727   2.204   2.427   0.017  0.4713  0.1026 -1.2962
 7746TIP3   OH244728   3.181   5.474  11.056  0.5381 -0.0795  0.1627
 7746TIP3    H144729   3.089   5.455  11.038  0.5214 -1.4055  1.4743
 7746TIP3    H244730   3.183   5.504  11.147  1.3229  0.7420 -0.0999
 7747TIP3   OH244731   4.692   4.990   1.326 -0.5269  0.1848  0.1826
 7747TIP3    H144732   4.687   4.904   1.284 -0.5905  0.6602 -0.7913
 7747TIP3    H244733   4.710   4.970   1.418 -2.1948 -0.9307  0.3080
 7748TIP3   OH244734   0.321   1.038   1.805  0.2737 -0.2412  0.6651
 7748TIP3    H144735   0.320   0.943   1.797 -0.5897 -0.4279  2.6190
 7748TIP3    H244736   0.230   1.062   1.824  0.1159  1.1805 -1.5099
 7749TIP3   OH244737   4.593   3.080   5.830 -0.1085  1.0243 -0.3534
 7749TIP3    H144738   4.605   3.124   5.745  0.2848  0.2227 -0.7333
 7749TIP3    H244739   4.605   2.987   5.810 -1.6326  0.6632  0.2984
 7750TIP3   OH244740   4.237   5.437  13.522 -0.0253 -0.2659  0.1133
 7750TIP3    H144741   4.252   5.352  13.481  0.8327 -0.0776  0.0350
 7750TIP3    H244742   4.171   5.420  13.589  1.6856 -1.4360  1.5639
 7751TIP3   OH244743   6.535   1.728   1.118 -0.4318  0.3198 -0.8429
 7751TIP3    H144744   6.477   1.718   1.043 -0.5192 -0.7424 -0.6448
 7751TIP3    H244745   6.544   1.640   1.154 -0.9372  0.9084  0.8098
 7752TIP3   OH244746   1.543   6.173  10.993  0.2135  0.3232  0.1365
 7752TIP3    H144747   1.588   6.179  10.909  0.8154 -1.9945  0.2329
 7752TIP3    H244748   1.486   6.250  10.996  1.8504  1.6669 -1.3647
 7753TIP3   OH244749   0.785   1.025   2.213 -0.0934  0.0501  0.0164
 7753TIP3    H144750   0.703   1.031   2.163 -2.2279  1.3816  3.3474
 7753TIP3    H244751   0.783   0.937   2.251 -0.2097  0.2413  0.4556
 7754TIP3   OH244752   0.796   1.995   4.139 -0.2703  0.0013  0.0007
 7754TIP3    H144753   0.741   2.053   4.191  0.3227 -0.4690  1.2083
 7754TIP3    H244754   0.778   2.018   4.048 -2.2639  0.0121  0.3630
 7755TIP3   OH244755   4.539   3.934   5.579  0.2612 -0.4195 -0.3563
 7755TIP3    H144756   4.570   3.883   5.654 -1.6643  0.2813  0.9976
 7755TIP3    H244757   4.596   3.908   5.507  3.0226 -0.2421  1.5896
 7756TIP3   OH244758   3.820   4.254  10.360 -0.4921  0.2295 -0.1082
 7756TIP3    H144759   3.784   4.309  10.429 -0.5813 -0.2857  0.2636
 7756TIP3    H244760   3.809   4.164  10.393 -0.0678  0.0059 -0.5665
 7757TIP3   OH244761   1.667   4.503   4.150 -0.2144 -0.2337 -0.3573
 7757TIP3    H144762   1.742   4.519   4.207 -0.7516  0.0939  0.2650
 7757TIP3    H244763   1.695   4.431   4.093  1.5839  1.6374 -2.0110
 7758TIP3   OH244764   4.833   0.947  15.680  0.4476  0.1014  0.2179
 7758TIP3    H144765   4.854   1.039  15.666  1.7245 -0.1645  0.2542
 7758TIP3    H244766   4.760   0.929  15.620  1.3937  0.6738 -1.1616
 7759TIP3   OH244767   0.627   6.327   3.836  0.4765  0.5787  0.4842
 7759TIP3    H144768   0.649   6.347   3.745  2.2823 -0.6623  0.6011
 7759TIP3    H244769   0.711   6.319   3.880 -0.0068 -4.1893  1.0777
 7760TIP3   OH244770   0.312   2.408  16.480 -0.2725 -0.2942  0.1042
 7760TIP3    H144771   0.366   2.344  16.526  0.7415  0.7821  0.4477
 7760TIP3    H244772   0.300   2.479  16.543 -0.0518  0.5553 -0.7862
 7761TIP3   OH244773   5.598   1.753  14.115 -0.1897  0.9624  0.4021
 7761TIP3    H144774   5.593   1.660  14.138  0.7148  0.7582 -0.1978
 7761TIP3    H244775   5.550   1.797  14.186 -0.0073  0.1035  1.0791
 7762TIP3   OH244776   3.905   0.425   3.329 -0.2688 -0.2793 -0.1204
 7762TIP3    H144777   3.896   0.330   3.322  0.2693 -0.7855  3.8162
 7762TIP3    H244778   3.815   0.458   3.334 -0.4881 -1.0511  1.8464
 7763TIP3   OH244779   5.203   6.029  16.057 -0.2651  0.1659 -0.2829
 7763TIP3    H144780   5.177   6.046  15.967  0.2455 -2.3479 -0.9597
 7763TIP3    H244781   5.253   5.948  16.054  2.6180  1.6687  1.8280
 7764TIP3   OH244782   3.393   4.212   2.668 -0.6883  0.3071 -0.2335
 7764TIP3    H144783   3.332   4.286   2.672 -0.4968  0.6120 -2.2092
 7764TIP3    H244784   3.460   4.239   2.605 -0.1341 -1.2210 -0.3498
 7765TIP3   OH244785   0.382   5.230  14.906 -0.0729  0.4509 -0.1835
 7765TIP3    H144786   0.424   5.315  14.890 -0.0249  0.3495 -0.6098
 7765TIP3    H244787   0.455   5.168  14.913 -0.1553  0.2228 -1.2400
 7766TIP3   OH244788   0.040   6.443   1.315 -0.0262 -0.4409 -0.3029
 7766TIP3    H144789   0.016   6.352   1.297  1.8835 -1.3176  1.2314
 7766TIP3    H244790  -0.039   6.493   1.295 -0.9963 -2.3640 -1.6190
 7767TIP3   OH244791   5.312   1.359   2.131 -0.5395  0.0724  0.2905
 7767TIP3    H144792   5.225   1.325   2.112  0.2062 -0.8195 -1.8370
 7767TIP3    H244793   5.341   1.399   2.049  1.5112 -0.7312  0.5489
 7768TIP3   OH244794   2.168   0.350   3.368 -0.6865 -0.2860  0.0418
 7768TIP3    H144795   2.099   0.327   3.430 -0.5435 -0.9386 -0.0348
 7768TIP3    H244796   2.195   0.438   3.394 -1.4283 -0.0940  0.1733
 7769TIP3   OH244797   6.576   6.368  15.166 -0.1058  0.0496 -0.1066
 7769TIP3    H144798   6.513   6.380  15.237  2.0995 -1.3127  2.2667
 7769TIP3    H244799   6.542   6.421  15.094 -2.6380  1.2888  1.8553
 7770TIP3   OH244800   3.466   2.686   2.362  0.0930 -0.1687  0.0212
 7770TIP3    H144801   3.457   2.651   2.451  0.3065 -0.9270 -0.2542
 7770TIP3    H244802   3.535   2.752   2.370  0.1305 -0.2519  0.4118
 7771TIP3   OH244803   2.178   2.953  11.796 -0.0546  0.4864 -0.0776
 7771TIP3    H144804   2.162   2.859  11.797  0.1939  0.4287 -0.6730
 7771TIP3    H244805   2.161   2.979  11.705  1.0764  0.7937 -0.2139
 7772TIP3   OH244806   3.765   1.166  14.697  0.0085 -0.3465  1.0927
 7772TIP3    H144807   3.716   1.194  14.774 -0.6926 -2.6440  1.5546
 7772TIP3    H244808   3.784   1.074  14.713  1.2311 -0.4706 -0.7904
 7773TIP3   OH244809   2.242   2.579  11.588 -0.3264 -0.0467  0.0274
 7773TIP3    H144810   2.260   2.495  11.546  2.8115 -1.1068  2.9852
 7773TIP3    H244811   2.295   2.642  11.539  3.0604 -1.2083  1.8147
 7774TIP3   OH244812   3.510   2.628  15.663 -0.2661  0.2575 -0.3789
 7774TIP3    H144813   3.496   2.605  15.755  0.6338 -0.4536 -0.4137
 7774TIP3    H244814   3.572   2.564  15.630 -2.0688 -0.7512 -2.0562
 7775TIP3   OH244815   5.449   4.695  11.380  0.0071 -0.1808  0.5923
 7775TIP3    H144816   5.494   4.763  11.431  2.6309 -0.8809 -0.6218
 7775TIP3    H244817   5.451   4.728  11.290 -1.4273 -0.5484  0.3973
 7776TIP3   OH244818   5.431   3.318  14.652  0.1836  0.2367 -0.5391
 7776TIP3    H144819   5.458   3.401  14.613  0.5506 -0.5574 -2.0517
 7776TIP3    H244820   5.392   3.268  14.580 -1.8424 -0.1725  0.7519
 7777TIP3   OH244821   6.563   3.451  16.742  0.1530 -0.4261 -0.1176
 7777TIP3    H144822   6.538   3.528  16.793  0.2406 -0.7676  0.4550
 7777TIP3    H244823   6.516   3.460  16.659 -0.6034 -0.2508  0.3243
 7778TIP3   OH244824   3.119   6.629   6.578 -0.4759 -0.2227  0.3448
 7778TIP3    H144825   3.107   6.724   6.570 -0.7791 -0.4318 -2.5807
 7778TIP3    H244826   3.205   6.612   6.541  0.4233 -0.9658  2.5908
 7779TIP3   OH244827   3.207   4.666  13.700 -0.1199 -0.2308 -0.0687
 7779TIP3    H144828   3.151   4.727  13.652 -1.2965 -1.3639 -0.1922
 7779TIP3    H244829   3.214   4.590  13.643  0.4496 -0.6411  0.5375
 7780TIP3   OH244830   6.805   1.148   3.473 -0.4864  0.3483  0.3550
 7780TIP3    H144831   6.850   1.144   3.557  0.3039  0.2235 -0.0666
 7780TIP3    H244832   6.848   1.081   3.419 -2.2078 -0.8834  0.4304
 7781TIP3   OH244833   1.830   6.348  12.485 -0.2812 -0.6501 -0.1005
 7781TIP3    H144834   1.892   6.417  12.460 -0.9741  0.2458  0.5972
 7781TIP3    H244835   1.838   6.343  12.580 -1.4339 -0.3726  0.0207
 7782TIP3   OH244836   1.877   5.263   1.452  0.0355 -0.6038 -0.0086
 7782TIP3    H144837   1.822   5.335   1.421  0.4686  0.5000  1.6269
 7782TIP3    H244838   1.966   5.300   1.452  0.7381 -2.1217 -1.9440
 7783TIP3   OH244839   6.754   0.922  17.256 -0.5622 -0.2279 -0.2591
 7783TIP3    H144840   6.827   0.903  17.196 -0.4760 -1.1060  0.1099
 7783TIP3    H244841   6.792   0.979  17.323 -0.1261 -0.9188  0.0951
 7784TIP3   OH244842   2.095   1.468   4.649 -0.3247  0.0439  0.4199
 7784TIP3    H144843   2.065   1.412   4.722 -1.3107  0.2894  0.2151
 7784TIP3    H244844   2.017   1.481   4.596  0.4811 -0.4982 -0.9431
 7785TIP3   OH244845   3.576   4.794  16.646  0.2912  0.3335  0.1462
 7785TIP3    H144846   3.586   4.802  16.741  0.0807 -0.6069  0.2578
 7785TIP3    H244847   3.605   4.706  16.627 -0.4959  0.2152 -0.5468
 7786TIP3   OH244848   1.948   6.306  12.103 -0.4112 -0.3184  0.7343
 7786TIP3    H144849   1.949   6.399  12.128  1.8292  0.0936 -0.6256
 7786TIP3    H244850   1.855   6.282  12.105 -0.9488  1.6014  2.2750
 7787TIP3   OH244851   1.413   3.164   5.224  0.5764  0.6009 -0.1175
 7787TIP3    H144852   1.402   3.176   5.318  0.9841  0.5989 -0.0666
 7787TIP3    H244853   1.493   3.211   5.202 -0.2065  1.7006 -0.7003
 7788TIP3   OH244854   0.495   1.797   3.373 -0.1143  0.3180 -0.4643
 7788TIP3    H144855   0.409   1.833   3.352  0.0674  1.7154  0.9818
 7788TIP3    H244856   0.557   1.854   3.327  0.1062  0.5836  0.1530
 7789TIP3   OH244857   2.593   0.221   2.253  0.6272  0.6337  0.0093
 7789TIP3    H144858   2.554   0.138   2.227  1.8846 -0.4844  1.4519
 7789TIP3    H244859   2.553   0.241   2.338 -1.0166  2.5117 -1.1318
 7790TIP3   OH244860   0.460   2.327   0.615 -0.1883  0.3168 -0.4256
 7790TIP3    H144861   0.404   2.397   0.581  1.0967  1.6006  0.0018
 7790TIP3    H244862   0.490   2.360   0.700  1.6987 -0.0302 -0.9207
 7791TIP3   OH244863   0.881   3.619  11.794 -0.5351  0.0361  0.3709
 7791TIP3    H144864   0.820   3.668  11.849 -0.2993  0.7652 -0.0088
 7791TIP3    H244865   0.894   3.674  11.717  0.2807 -0.3008  0.2563
 7792TIP3   OH244866   3.647   2.478   3.599  0.0749  0.4593 -0.3994
 7792TIP3    H144867   3.565   2.497   3.552 -0.8074  0.2236  0.9835
 7792TIP3    H244868   3.704   2.438   3.533 -0.0721  2.6228 -1.9818
 7793TIP3   OH244869   2.765   3.614  14.241 -0.4120  0.1812 -0.3326
 7793TIP3    H144870   2.681   3.630  14.198  0.0219  0.8458 -0.9480
 7793TIP3    H244871   2.822   3.684  14.210  0.9544 -1.3507 -1.4848
 7794TIP3   OH244872   0.209   5.272  13.953  0.0333  0.1957  0.1369
 7794TIP3    H144873   0.145   5.318  13.898  1.6057  0.5892 -1.4527
 7794TIP3    H244874   0.261   5.342  13.993  0.1908 -0.1445  0.5331
 7795TIP3   OH244875   3.678   2.190   1.523  0.7749 -0.3446  0.6817
 7795TIP3    H144876   3.638   2.212   1.439 -0.0904  2.1356  1.6294
 7795TIP3    H244877   3.765   2.158   1.502 -0.0357 -1.5025 -1.2048
 7796TIP3   OH244878   0.740   3.565  16.906  0.4248  0.0490  0.3292
 7796TIP3    H144879   0.699   3.590  16.989 -0.2968  1.4916 -0.4100
 7796TIP3    H244880   0.828   3.537  16.930  0.1279  0.1580  1.6138
 7797TIP3   OH244881   0.972   5.930   3.320 -0.1697  0.1103  0.1838
 7797TIP3    H144882   1.035   5.864   3.291  1.0977  1.0078  0.7715
 7797TIP3    H244883   0.966   5.918   3.414 -0.1795  0.6163  0.2487
 7798TIP3   OH244884   1.896   5.778   2.944  0.3268 -0.6154 -0.1371
 7798TIP3    H144885   1.985   5.746   2.962  1.1602  0.8488 -1.3974
 7798TIP3    H244886   1.877   5.836   3.017  1.3565  0.7975 -0.9309
 7799TIP3   OH244887   2.531   4.406  12.173  0.2054  0.3396 -0.0752
 7799TIP3    H144888   2.496   4.404  12.262 -2.0615 -2.4609 -0.8313
 7799TIP3    H244889   2.454   4.392  12.118  1.7933 -0.0280 -2.3339
 7800TIP3   OH244890   0.414   4.355   1.367 -0.2854  0.5224  0.4240
 7800TIP3    H144891   0.359   4.373   1.292  0.9237  0.8721 -0.4187
 7800TIP3    H244892   0.373   4.404   1.439 -1.7965 -0.3199  0.1643
 7801TIP3   OH244893   3.147   0.846   4.057 -0.0230  0.5293  0.0148
 7801TIP3    H144894   3.235   0.814   4.078 -0.3722 -1.0036 -0.7148
 7801TIP3    H244895   3.155   0.879   3.968  0.1730  1.9123  0.5262
 7802TIP3   OH244896   1.520   6.502   2.994  0.5675  0.1354  0.1207
 7802TIP3    H144897   1.475   6.427   3.032  1.0843 -0.0436  0.3828
 7802TIP3    H244898   1.531   6.480   2.902  0.2706  0.1113  0.0886
 7803TIP3   OH244899   1.027   2.535  11.364 -0.0584 -0.3394 -0.4437
 7803TIP3    H144900   1.068   2.595  11.427  0.3321 -2.1846  1.1314
 7803TIP3    H244901   1.101   2.499  11.315 -0.1852 -0.4393 -0.5607
 7804TIP3   OH244902   6.488   6.031  12.651  0.6330 -0.0492 -0.2829
 7804TIP3    H144903   6.489   5.980  12.570  0.0340 -1.8447  0.7667
 7804TIP3    H244904   6.396   6.037  12.674  0.8889 -1.3056  1.2434
 7805TIP3   OH244905   2.011   4.413  12.320 -0.2642 -0.0459  0.6507
 7805TIP3    H144906   1.948   4.418  12.248  1.2017 -1.7641 -0.8674
 7805TIP3    H244907   1.965   4.447  12.396 -1.5551  2.8657 -1.2980
 7806TIP3   OH244908   3.592   5.433   5.643 -0.5771  0.3912  0.4721
 7806TIP3    H144909   3.539   5.377   5.700 -0.8971  0.6486  0.4325
 7806TIP3    H244910   3.536   5.449   5.567 -0.6440  1.0858  0.6631
 7807TIP3   OH244911   1.317   6.744  14.650 -0.2923 -0.3712 -0.1649
 7807TIP3    H144912   1.354   6.782  14.729  0.1002 -1.3552  0.1400
 7807TIP3    H244913   1.287   6.819  14.598 -2.0441  0.2421  1.6166
 7808TIP3   OH244914   0.726   1.594   0.316  0.0559  0.5999  0.4347
 7808TIP3    H144915   0.776   1.558   0.242  0.0155  1.8103 -0.1996
 7808TIP3    H244916   0.783   1.579   0.392 -0.5258 -2.0002  0.4622
 7809TIP3   OH244917   2.764   4.336  17.071 -0.1850 -0.3768  0.0012
 7809TIP3    H144918   2.743   4.244  17.081  0.3421 -0.3920  1.0899
 7809TIP3    H244919   2.695   4.383  17.118  0.0353 -0.2644  0.2193
 7810TIP3   OH244920   3.048   6.717  14.416 -0.3014 -0.1540  0.1909
 7810TIP3    H144921   3.046   6.677  14.503  0.2489 -1.3297 -0.3232
 7810TIP3    H244922   3.072   6.646  14.357  0.0808  0.8007 -0.8366
 7811TIP3   OH244923   4.841   3.691   0.472  0.0108 -0.5479 -0.3071
 7811TIP3    H144924   4.910   3.626   0.485  0.1811 -1.0018 -3.0296
 7811TIP3    H244925   4.782   3.651   0.408 -1.2705  0.9756 -0.1363
 7812TIP3   OH244926   2.331   2.750  14.645  0.7464 -0.4237 -0.2378
 7812TIP3    H144927   2.328   2.798  14.562 -0.6744  1.2432  0.6982
 7812TIP3    H244928   2.296   2.664  14.625 -0.6146  0.3196 -1.1729
 7813TIP3   OH244929   2.382   6.189   3.412 -0.1094  0.4664  0.0316
 7813TIP3    H144930   2.293   6.170   3.443 -0.5110  1.6645 -0.3086
 7813TIP3    H244931   2.407   6.268   3.460  0.3523  0.7428 -0.6449
 7814TIP3   OH244932   0.139   5.744   5.294  0.1113 -0.0434  0.1206
 7814TIP3    H144933   0.135   5.756   5.389  1.9009  1.2927  0.0676
 7814TIP3    H244934   0.227   5.712   5.277 -0.1763 -0.2426 -1.1242
 7815TIP3   OH244935   4.186   3.875   4.804 -0.0861 -0.0395  0.1196
 7815TIP3    H144936   4.110   3.931   4.789 -0.3770 -0.0839  1.3362
 7815TIP3    H244937   4.149   3.795   4.843  0.2835 -1.2302 -1.8610
 7816TIP3   OH244938   3.591   6.812   3.746 -0.4141 -0.9685 -0.1033
 7816TIP3    H144939   3.513   6.866   3.758  0.0763  0.2410 -2.0003
 7816TIP3    H244940   3.644   6.831   3.824  0.1012  1.9924 -1.0565
 7817TIP3   OH244941   4.628   2.486  11.957  0.5510  0.5316  0.0792
 7817TIP3    H144942   4.588   2.572  11.972  0.7546  0.4298  1.3135
 7817TIP3    H244943   4.673   2.466  12.039 -4.6483 -3.5106  2.5395
 7818TIP3   OH244944   0.328   5.240   3.790 -0.7189 -0.3813  0.0880
 7818TIP3    H144945   0.349   5.172   3.726 -1.5764 -0.8567  0.3034
 7818TIP3    H244946   0.299   5.314   3.736  1.1194  0.1826 -0.1984
 7819TIP3   OH244947   0.014   3.763   3.709  0.1288 -0.3121  0.8153
 7819TIP3    H144948   0.093   3.732   3.752 -0.5214 -0.5745  1.8630
 7819TIP3    H244949  -0.046   3.688   3.712  0.1796 -0.4669 -0.9031
 7820TIP3   OH244950   4.041   3.711  11.128  0.4976  0.1880 -0.4311
 7820TIP3    H144951   3.969   3.774  11.125 -0.3160 -0.7055 -0.4941
 7820TIP3    H244952   4.062   3.694  11.036  0.4180  0.0495 -0.4250
 7821TIP3   OH244953   2.948   3.707  15.232 -0.3865 -0.2862  0.0814
 7821TIP3    H144954   2.887   3.678  15.164 -0.0082 -3.8110  1.0249
 7821TIP3    H244955   2.892   3.743  15.301 -1.0527  0.2510 -0.7302
 7822TIP3   OH244956   3.274   3.201  13.128 -0.0156 -0.1177  0.2566
 7822TIP3    H144957   3.214   3.221  13.056 -1.1371 -2.6779  0.3763
 7822TIP3    H244958   3.359   3.188  13.085 -0.5024 -0.8172 -0.5302
 7823TIP3   OH244959   4.125   5.454   5.433  0.6286 -0.2318  0.3831
 7823TIP3    H144960   4.097   5.436   5.523  1.1575 -2.8613  0.1139
 7823TIP3    H244961   4.209   5.409   5.425 -0.0876 -1.3284 -1.8165
 7824TIP3   OH244962   1.347   4.859   3.680 -0.1046  0.2420 -0.0735
 7824TIP3    H144963   1.337   4.886   3.589  0.0845 -1.9309 -0.7838
 7824TIP3    H244964   1.274   4.798   3.695 -0.2920  0.7652  1.3282
 7825TIP3   OH244965   6.634   6.045  14.886 -0.2485 -0.2196  0.0906
 7825TIP3    H144966   6.576   6.008  14.952  1.3327 -2.0106  0.5450
 7825TIP3    H244967   6.648   5.975  14.823  1.9484 -0.1131  0.3673
 7826TIP3   OH244968   5.260   0.963  11.982 -0.4561  0.1812  0.0569
 7826TIP3    H144969   5.229   1.042  12.026  0.5465 -0.1618  1.4651
 7826TIP3    H244970   5.334   0.993  11.929  0.5977  0.0730  1.4001
 7827TIP3   OH244971   1.422   1.611  12.640  0.1103  0.3481 -0.3126
 7827TIP3    H144972   1.337   1.599  12.596 -0.4712 -0.9937  1.0721
 7827TIP3    H244973   1.440   1.705  12.632 -1.2236  0.5624 -1.1418
 7828TIP3   OH244974   4.510   1.521  11.586 -0.5969 -0.3157  0.5968
 7828TIP3    H144975   4.538   1.552  11.672 -1.9623 -0.7840  1.2305
 7828TIP3    H244976   4.438   1.461  11.604  0.1526 -1.6949 -0.7812
 7829TIP3   OH244977   0.321   0.045  14.915  0.6674 -0.4093 -0.0593
 7829TIP3    H144978   0.243   0.019  14.866 -0.1448  0.4156  0.7581
 7829TIP3    H244979   0.317  -0.005  14.996  1.1858 -0.6354 -0.1697
 7830TIP3   OH244980   2.801   0.256  14.627  0.3659 -0.1144  0.4269
 7830TIP3    H144981   2.740   0.195  14.585  0.8651 -0.9737  0.9284
 7830TIP3    H244982   2.886   0.238  14.586  1.0364 -1.5199  2.2738
 7831TIP3   OH244983   6.539   1.544  15.391  0.9013  0.6013  0.4038
 7831TIP3    H144984   6.537   1.457  15.432 -0.0285  0.3436 -0.1441
 7831TIP3    H244985   6.522   1.604  15.464 -1.9897  0.0679  0.3213
 7832TIP3   OH244986   4.992   5.091   1.487 -0.2691 -0.2227  0.2857
 7832TIP3    H144987   4.962   5.180   1.510  1.2014  0.7943 -1.4964
 7832TIP3    H244988   5.046   5.065   1.562 -0.5728  0.4430  0.7551
 7833TIP3   OH244989   4.335   3.471  16.934  0.4312 -0.3126  0.4461
 7833TIP3    H144990   4.414   3.513  16.967 -0.1086  0.3362  0.9228
 7833TIP3    H244991   4.347   3.378  16.956  0.5507 -0.0518  1.5380
 7834TIP3   OH244992   6.346   4.914   3.134  0.5156  0.0263  0.0172
 7834TIP3    H144993   6.324   4.821   3.144  1.2533 -0.0878  0.6811
 7834TIP3    H244994   6.262   4.956   3.115 -0.0990 -0.5497  1.3311
 7835TIP3   OH244995   0.909   6.142   5.250  0.5629 -0.1193  0.4762
 7835TIP3    H144996   0.915   6.081   5.324  2.0490  0.3618  0.7830
 7835TIP3    H244997   0.903   6.228   5.291  0.4524  0.0794  0.0403
 7836TIP3   OH244998   4.037   6.297  14.579  0.0342  0.3527 -0.1629
 7836TIP3    H144999   4.105   6.327  14.518 -1.6435 -0.0007 -2.3383
 7836TIP3    H245000   4.010   6.212  14.545 -2.1601  0.9094  0.0207
 7837TIP3   OH245001   4.533   0.597   1.114  0.6234 -0.3011 -0.1533
 7837TIP3    H145002   4.454   0.596   1.060  0.9786 -1.6388 -0.7033
 7837TIP3    H245003   4.569   0.684   1.102  0.2266 -0.2847 -1.3929
 7838TIP3   OH245004   0.498   5.471  14.878  0.6758  0.0752 -0.0974
 7838TIP3    H145005   0.594   5.468  14.875  0.6509 -0.6283 -0.3730
 7838TIP3    H245006   0.479   5.538  14.944  1.3706 -0.9105  1.1530
 7839TIP3   OH245007   3.573   5.188   0.370  0.4016 -0.2699  0.8301
 7839TIP3    H145008   3.596   5.153   0.284 -0.1601  0.1885  0.4842
 7839TIP3    H245009   3.577   5.112   0.429  0.5339 -0.6396  0.3514
 7840TIP3   OH245010   5.808   0.517   1.354 -0.2502  0.0563  0.5143
 7840TIP3    H145011   5.893   0.476   1.341  0.6875  2.3826 -1.6545
 7840TIP3    H245012   5.827   0.594   1.407 -1.2236 -0.0244  0.9909
 7841TIP3   OH245013   4.449   6.605   3.736  0.2485 -0.7927  0.4765
 7841TIP3    H145014   4.476   6.579   3.648  1.7762  0.6471  0.4697
 7841TIP3    H245015   4.426   6.523   3.780  1.3545 -1.7309 -0.6575
 7842TIP3   OH245016   6.244   1.635   5.636 -0.4823 -0.4503  0.0339
 7842TIP3    H145017   6.226   1.565   5.573  1.4896 -2.0047  1.0647
 7842TIP3    H245018   6.326   1.674   5.605 -0.4231 -0.0592  0.6677
 7843TIP3   OH245019   0.879   3.405   0.677 -0.1940  0.3281  0.0422
 7843TIP3    H145020   0.804   3.450   0.717  0.0112  2.1516 -1.4305
 7843TIP3    H245021   0.843   3.323   0.645 -1.5329  1.0288 -0.3618
 7844TIP3   OH245022   1.819   2.711  12.288 -0.2272  0.2420 -0.4847
 7844TIP3    H145023   1.894   2.653  12.305 -0.4429 -0.3110 -1.3673
 7844TIP3    H245024   1.750   2.652  12.259 -0.9805  0.7634  0.2128
 7845TIP3   OH245025   4.413   4.700  16.176  0.1425  0.4054 -0.1234
 7845TIP3    H145026   4.414   4.630  16.242  0.7578 -2.0347 -2.5664
 7845TIP3    H245027   4.332   4.748  16.194  0.9708  0.8248  3.2660
 7846TIP3   OH245028   3.880   3.968   6.090 -0.0320  0.5110  0.1162
 7846TIP3    H145029   3.898   4.060   6.067  0.1102  0.6406  0.7391
 7846TIP3    H245030   3.898   3.963   6.184  1.3010 -0.4852 -0.1714
 7847TIP3   OH245031   4.912   5.652   6.253  0.1840 -0.5010  0.0321
 7847TIP3    H145032   4.835   5.597   6.234  0.1447 -0.2920 -0.4371
 7847TIP3    H245033   4.920   5.708   6.176  0.1540  0.2336  0.5642
 7848TIP3   OH245034   1.302   1.591   4.671 -0.4164  0.5112 -0.0228
 7848TIP3    H145035   1.208   1.602   4.681 -0.7843 -1.7122 -0.3912
 7848TIP3    H245036   1.328   1.661   4.611 -1.1713  3.2455  2.5969
 7849TIP3   OH245037   5.681   2.435  13.529 -0.6802 -0.1325 -0.0016
 7849TIP3    H145038   5.611   2.442  13.594 -3.3567  1.8540 -2.7646
 7849TIP3    H245039   5.676   2.518  13.481  1.2575 -1.3827 -2.5622
 7850TIP3   OH245040   6.325   4.084  13.823 -0.2997 -0.0043 -0.2523
 7850TIP3    H145041   6.410   4.066  13.782 -0.0113 -1.1314  0.7957
 7850TIP3    H245042   6.313   4.014  13.887 -1.0074  1.3785  1.1956
 7851TIP3   OH245043   2.540   1.665  12.499  0.2776 -0.1257 -0.7440
 7851TIP3    H145044   2.569   1.575  12.513  1.3484  0.0095 -1.8947
 7851TIP3    H245045   2.500   1.664  12.412  1.1887  0.7036 -1.1860
 7852TIP3   OH245046   5.406   5.451  12.785  0.0736 -0.2841 -0.0647
 7852TIP3    H145047   5.350   5.508  12.733  1.0660 -1.1746 -2.2144
 7852TIP3    H245048   5.344   5.394  12.832 -0.8495  0.5794 -0.2058
 7853TIP3   OH245049   3.200   1.739   0.685 -0.3648  0.0366  0.3583
 7853TIP3    H145050   3.234   1.671   0.743 -0.8007 -0.7090 -0.2400
 7853TIP3    H245051   3.107   1.720   0.678 -0.7081  1.3727  1.0658
 7854TIP3   OH245052   5.510   6.395  15.202  0.1789  0.2239 -0.2083
 7854TIP3    H145053   5.581   6.394  15.138  1.0837 -0.0748  0.7801
 7854TIP3    H245054   5.460   6.474  15.181  0.7249  0.3734 -0.9939
 7855TIP3   OH245055   4.528   0.969   2.821 -0.4387  0.1189 -0.3177
 7855TIP3    H145056   4.498   0.974   2.912  0.2637  0.7647 -0.1061
 7855TIP3    H245057   4.494   1.049   2.781 -0.7156 -0.1483 -0.6156
 7856TIP3   OH245058   4.570   3.936  11.896  0.1932  0.3914  0.3024
 7856TIP3    H145059   4.570   3.888  11.979  0.7546  1.9406  1.2378
 7856TIP3    H245060   4.509   3.887  11.841  0.1191 -0.9175  1.4668
 7857TIP3   OH245061   4.194   5.840   2.165  0.4618 -0.2925 -0.1631
 7857TIP3    H145062   4.140   5.806   2.237 -0.8986 -0.0972 -1.0443
 7857TIP3    H245063   4.252   5.767   2.142  0.0680 -0.7787  0.3426
 7858TIP3   OH245064   1.212   2.457  15.662  0.4649  0.3860 -0.0675
 7858TIP3    H145065   1.199   2.552  15.661 -0.0524  0.3304  0.4623
 7858TIP3    H245066   1.128   2.422  15.693  0.8850 -0.1972  0.4389
 7859TIP3   OH245067   4.404   6.155   4.524  0.6823  0.2751 -0.2742
 7859TIP3    H145068   4.454   6.081   4.558 -0.1333  1.6265  4.6302
 7859TIP3    H245069   4.443   6.232   4.565 -2.8144  1.7541  0.7065
 7860TIP3   OH245070   6.430   1.116  10.949  0.3488  0.2690 -0.1274
 7860TIP3    H145071   6.516   1.140  10.914  0.5708  0.8867  0.7871
 7860TIP3    H245072   6.431   1.150  11.039 -0.4125 -0.7502  0.2835
 7861TIP3   OH245073   6.196   1.164   6.041 -0.0670 -0.2618  0.2818
 7861TIP3    H145074   6.179   1.252   6.073 -1.2708 -0.1161 -0.6957
 7861TIP3    H245075   6.271   1.173   5.982  0.2773 -0.0283  0.7535
 7862TIP3   OH245076   6.302   6.691   0.726 -0.2076 -0.3622  0.7609
 7862TIP3    H145077   6.337   6.662   0.810  1.7707 -2.3351 -0.6241
 7862TIP3    H245078   6.263   6.613   0.688 -1.0363  0.4828 -0.1856
 7863TIP3   OH245079   4.534   0.686   5.601  0.1466  0.1946  0.0485
 7863TIP3    H145080   4.462   0.684   5.664 -0.0831  0.9433 -0.1789
 7863TIP3    H245081   4.577   0.601   5.611 -1.5470 -0.8281 -0.7114
 7864TIP3   OH245082   2.002   5.767   0.784 -1.0009  0.4956  0.0376
 7864TIP3    H145083   1.993   5.768   0.689  0.6471 -1.6378 -0.2272
 7864TIP3    H245084   1.912   5.753   0.816 -1.5094  0.7564 -1.2222
 7865TIP3   OH245085   4.008   3.914   4.476 -0.5919  0.2400 -0.2021
 7865TIP3    H145086   3.991   3.969   4.553 -1.9789 -0.1385 -0.2111
 7865TIP3    H245087   3.964   3.831   4.496 -1.4679  0.3304 -1.6200
 7866TIP3   OH245088   2.068   6.765   5.402  0.6160  0.7212  0.0738
 7866TIP3    H145089   2.035   6.788   5.489  0.3553 -0.7113  0.3646
 7866TIP3    H245090   2.091   6.673   5.408 -1.0256  0.1090 -1.8434
 7867TIP3   OH245091   5.421   3.311  12.576  0.7781 -0.4502  0.0298
 7867TIP3    H145092   5.363   3.279  12.507 -0.7213  0.4027  0.8593
 7867TIP3    H245093   5.365   3.364  12.632  2.5783  1.2734  0.2931
 7868TIP3   OH245094   4.884   1.226  15.679  0.3866 -0.4839  0.5469
 7868TIP3    H145095   4.956   1.288  15.692  0.0750  0.0413 -0.1320
 7868TIP3    H245096   4.811   1.263  15.727  0.0675 -0.0631 -0.2334
 7869TIP3   OH245097   1.940   3.833  12.497  0.2798 -0.4986  0.2417
 7869TIP3    H145098   1.904   3.888  12.567 -1.0336 -0.2345 -0.6210
 7869TIP3    H245099   1.973   3.755  12.543 -0.3842 -0.2465  1.1793
 7870TIP3   OH245100   4.368   5.158   0.970  0.1392 -0.0406  0.1067
 7870TIP3    H145101   4.445   5.198   0.929 -0.3573  0.1445 -0.6682
 7870TIP3    H245102   4.350   5.212   1.047  1.9966 -1.2664  1.4944
 7871TIP3   OH245103   0.965   5.872   5.731 -0.3963 -0.2148  0.3491
 7871TIP3    H145104   0.911   5.880   5.653  0.3203 -1.6513 -0.3293
 7871TIP3    H245105   0.918   5.810   5.787 -0.4302  0.0640  0.6336
 7872TIP3   OH245106   5.226   6.045  14.788  0.5244 -0.7074  0.5554
 7872TIP3    H145107   5.153   5.995  14.824  2.2866 -2.5031  1.8665
 7872TIP3    H245108   5.203   6.137  14.806 -1.4154 -1.2043  0.8254
 7873TIP3   OH245109   0.032   3.925   6.696  0.0717  0.9745 -0.1262
 7873TIP3    H145110   0.037   3.978   6.617  0.3871  2.3589  0.7844
 7873TIP3    H245111   0.064   3.983   6.766 -0.1339 -0.2254  1.0036
 7874TIP3   OH245112   3.404   6.719  11.914 -0.4665  0.0430 -0.6124
 7874TIP3    H145113   3.398   6.678  12.000  1.9271  2.0561  0.6324
 7874TIP3    H245114   3.313   6.734  11.889 -1.2441 -0.1295  1.8215
 7875TIP3   OH245115   0.958   2.516   3.746  0.0924 -0.0923  0.1587
 7875TIP3    H145116   0.906   2.595   3.731  0.7982  0.5236  0.8654
 7875TIP3    H245117   1.023   2.542   3.811 -0.1714 -1.4764  1.0231
 7876TIP3   OH245118   6.792   0.299   1.266 -0.0819 -0.0317 -0.1690
 7876TIP3    H145119   6.807   0.365   1.198  0.3981 -0.2199 -0.2526
 7876TIP3    H245120   6.851   0.324   1.337 -0.1018 -0.2123 -0.0888
 7877TIP3   OH245121   4.350   0.289  12.573  0.0878 -0.4168  0.3105
 7877TIP3    H145122   4.367   0.208  12.621 -1.5097  0.1149  1.8733
 7877TIP3    H245123   4.427   0.343  12.587  0.5854 -1.1361  0.3886
 7878TIP3   OH245124   4.297   3.800  16.356  0.2609  0.1982  0.0959
 7878TIP3    H145125   4.390   3.779  16.362 -0.4585 -3.1002  2.6674
 7878TIP3    H245126   4.283   3.861  16.429  0.1583 -0.5440  0.7043
 7879TIP3   OH245127   2.605   1.685   0.267  0.2084  0.2976 -0.2041
 7879TIP3    H145128   2.621   1.779   0.277 -1.4411  0.6561 -0.7050
 7879TIP3    H245129   2.550   1.678   0.189  0.7783 -1.1439 -0.5026
 7880TIP3   OH245130   4.545   5.948  12.658  0.5610 -0.6232 -0.1136
 7880TIP3    H145131   4.462   5.952  12.610  0.8716  1.2136 -0.5697
 7880TIP3    H245132   4.591   6.027  12.633  1.6904 -0.7042  1.5389
 7881TIP3   OH245133   6.371   3.144  14.786 -0.7217  0.7644 -0.3003
 7881TIP3    H145134   6.307   3.155  14.716  0.4712  0.9528 -1.4003
 7881TIP3    H245135   6.323   3.100  14.856 -2.3891  2.0978 -0.5574
 7882TIP3   OH245136   4.966   1.266  16.708  0.6318 -0.1019 -0.1623
 7882TIP3    H145137   5.003   1.228  16.629  1.5814 -0.1164  0.2670
 7882TIP3    H245138   4.946   1.357  16.684 -1.0314 -0.6594 -0.9994
 7883TIP3   OH245139   4.383   0.419  13.669 -0.2694 -0.2581  0.6366
 7883TIP3    H145140   4.292   0.445  13.668  0.3644  2.1571  0.1997
 7883TIP3    H245141   4.407   0.411  13.576 -0.0943 -1.2023  0.7490
 7884TIP3   OH245142   5.212   2.123  12.509  0.7120 -0.0211 -0.0362
 7884TIP3    H145143   5.192   2.199  12.455  1.9091  0.3479 -0.0065
 7884TIP3    H245144   5.131   2.073  12.512 -0.2448  1.4984  0.3491
 7885TIP3   OH245145   5.608   3.222   5.072  0.2755  0.1616  0.3037
 7885TIP3    H145146   5.576   3.311   5.089  0.8795  0.4492 -0.0323
 7885TIP3    H245147   5.645   3.193   5.155 -1.1391 -0.3083  0.8011
 7886TIP3   OH245148   2.025   6.794   1.495 -0.0002  0.3296 -0.0516
 7886TIP3    H145149   2.011   6.700   1.491 -0.8104  0.3736  1.3446
 7886TIP3    H245150   1.984   6.827   1.415 -0.2780 -0.4340 -0.2313
 7887TIP3   OH245151   4.129   4.435  14.344  0.0992 -0.4560 -0.2642
 7887TIP3    H145152   4.124   4.360  14.285 -0.3495 -0.3014 -0.4286
 7887TIP3    H245153   4.161   4.400  14.426  0.4459 -0.7271 -0.5129
 7888TIP3   OH245154   0.680   5.910  13.956 -0.2204 -0.1757 -0.6312
 7888TIP3    H145155   0.656   6.002  13.966  1.7871  0.5638 -2.0694
 7888TIP3    H245156   0.776   5.909  13.956 -0.1749 -2.3400 -0.2416
 7889TIP3   OH245157   4.760   5.046   5.777  0.0575  0.2614 -0.4397
 7889TIP3    H145158   4.756   5.141   5.766  0.2398  0.5036  1.2953
 7889TIP3    H245159   4.694   5.027   5.844 -0.2407 -0.8817 -1.0431
 7890TIP3   OH245160   5.486   3.467   6.227 -0.4082 -0.2663 -0.6869
 7890TIP3    H145161   5.454   3.507   6.307  1.2433  1.3101 -0.7554
 7890TIP3    H245162   5.444   3.381   6.224 -1.2097  0.0149  1.3757
 7891TIP3   OH245163   3.889   1.734   1.207 -0.3057 -0.4617  0.2023
 7891TIP3    H145164   3.922   1.669   1.270  0.0626 -1.0624 -0.5987
 7891TIP3    H245165   3.796   1.715   1.200 -0.0514 -1.5163 -0.6962
 7892TIP3   OH245166   2.724   3.478  16.435 -0.2898 -0.8785 -0.3626
 7892TIP3    H145167   2.810   3.435  16.439  0.9393  1.3903 -0.4174
 7892TIP3    H245168   2.713   3.517  16.521 -1.8153 -2.0088  0.0001
 7893TIP3   OH245169   5.966   3.470   5.853  0.4031 -0.2952  0.3792
 7893TIP3    H145170   5.997   3.552   5.815 -1.7068  1.8491  2.9487
 7893TIP3    H245171   6.013   3.462   5.936 -1.1889 -0.3664  1.2982
 7894TIP3   OH245172   5.186   4.579   1.499 -0.0992 -0.5916 -0.2042
 7894TIP3    H145173   5.253   4.589   1.432  0.3752 -0.0698  0.3365
 7894TIP3    H245174   5.114   4.635   1.471  0.2027 -0.1727 -0.1513
 7895TIP3   OH245175   4.338   3.129   4.972 -0.1560 -0.4016 -0.0347
 7895TIP3    H145176   4.396   3.074   4.919  0.7973  0.2953  0.2412
 7895TIP3    H245177   4.274   3.164   4.910  2.0580  1.9271 -1.2142
 7896TIP3   OH245178   2.487   3.045  14.854  0.1474  0.3867 -0.2198
 7896TIP3    H145179   2.531   3.026  14.771 -1.8267 -0.3701 -1.1702
 7896TIP3    H245180   2.476   2.960  14.896 -0.4596  0.5490 -0.0371
 7897TIP3   OH245181   4.487   4.820  10.704  0.4357  0.2578  0.3264
 7897TIP3    H145182   4.445   4.739  10.731  1.7400 -0.6720 -0.3083
 7897TIP3    H245183   4.423   4.863  10.647  0.0321 -0.7298  0.0183
 7898TIP3   OH245184   5.978   1.951  11.856  0.3518 -0.6306  0.2152
 7898TIP3    H145185   6.041   1.985  11.793  0.3320 -0.0826  0.4880
 7898TIP3    H245186   5.995   1.857  11.858  1.1020 -0.5018  0.2272
 7899TIP3   OH245187   6.114   1.281  12.470  0.3026  0.1928 -0.2898
 7899TIP3    H145188   6.198   1.269  12.427 -0.1735 -0.1290 -1.1702
 7899TIP3    H245189   6.135   1.320  12.555  1.2596  0.9782 -0.8667
 7900TIP3   OH245190   0.350   6.191  12.497 -0.8705  0.6429 -0.1030
 7900TIP3    H145191   0.359   6.253  12.424 -1.9927  1.0638  0.1086
 7900TIP3    H245192   0.409   6.119  12.474 -0.2412  1.3597 -0.7975
 7901TIP3   OH245193   6.734   1.038  12.593  0.7746 -0.0647 -0.2882
 7901TIP3    H145194   6.649   0.994  12.597  1.0993 -0.5998  2.1079
 7901TIP3    H245195   6.722   1.107  12.528 -1.5596 -0.0013  0.1121
 7902TIP3   OH245196   5.292   3.528   3.368  0.2969 -0.1465 -0.3296
 7902TIP3    H145197   5.305   3.555   3.459 -1.2431 -1.5376  0.3454
 7902TIP3    H245198   5.345   3.448   3.359 -2.1597 -1.9761  0.4363
 7903TIP3   OH245199   2.334   2.162  13.903 -0.3297  0.2671  0.5751
 7903TIP3    H145200   2.388   2.206  13.968  1.7014 -0.8764 -0.2457
 7903TIP3    H245201   2.275   2.230  13.871  0.1073  1.3821  2.0233
 7904TIP3   OH245202   6.001   4.596  10.884  0.0010 -0.2290 -0.0171
 7904TIP3    H145203   6.055   4.673  10.868  0.5140 -0.7877 -1.0385
 7904TIP3    H245204   5.916   4.631  10.910  0.4535  0.6652  0.2857
 7905TIP3   OH245205   4.700   5.350  15.752 -0.4573 -0.2583  0.2823
 7905TIP3    H145206   4.661   5.410  15.687 -0.8481  0.5678  1.2554
 7905TIP3    H245207   4.771   5.400  15.791 -0.0648 -0.8447  0.3231
 7906TIP3   OH245208   2.517   1.897  12.665 -0.2753 -0.3021  0.0772
 7906TIP3    H145209   2.512   1.826  12.600  2.0384 -1.3844  0.9733
 7906TIP3    H245210   2.585   1.869  12.726 -0.5837  1.8771  1.5345
 7907TIP3   OH245211   0.052   3.836  15.964  0.2685  0.0045 -0.5357
 7907TIP3    H145212   0.030   3.826  15.871  0.6695 -0.5121 -0.5804
 7907TIP3    H245213   0.140   3.798  15.972 -0.3501 -1.2806  0.3315
 7908TIP3   OH245214   6.667   2.327  12.827 -0.1544  0.1752 -0.7048
 7908TIP3    H145215   6.617   2.264  12.775 -0.1617  0.4149 -0.9934
 7908TIP3    H245216   6.742   2.350  12.771 -0.2263  0.5253 -0.6587
 7909TIP3   OH245217   3.939   6.505  12.149  0.0532 -0.3088 -0.1702
 7909TIP3    H145218   4.032   6.486  12.153  0.2498  0.8012  1.9434
 7909TIP3    H245219   3.913   6.482  12.059  1.8451 -2.7295 -0.1573
 7910TIP3   OH245220   2.069   5.569  15.205 -0.8473  0.3419  0.2636
 7910TIP3    H145221   2.092   5.477  15.217 -2.1245 -0.3633 -1.9919
 7910TIP3    H245222   1.974   5.572  15.223 -1.0006  0.9971 -0.6115
 7911TIP3   OH245223   5.960   3.161   6.368 -0.0783  0.1469  0.0012
 7911TIP3    H145224   5.940   3.223   6.438 -0.0757  0.5753 -0.3801
 7911TIP3    H245225   6.033   3.201   6.320 -0.3626  0.0570 -0.5079
 7912TIP3   OH245226   4.542   4.941  11.604  0.7805  0.2393 -0.1980
 7912TIP3    H145227   4.587   5.010  11.556  1.0289  0.8933  0.9385
 7912TIP3    H245228   4.457   4.979  11.626  1.5231  0.8403  1.8425
 7913TIP3   OH245229   0.781   5.473   0.109 -0.3165  0.0489 -0.1921
 7913TIP3    H145230   0.714   5.429   0.056  0.2094 -1.4588  0.3405
 7913TIP3    H245231   0.782   5.563   0.076 -0.1436 -0.7721 -2.6218
 7914TIP3   OH245232   1.734   2.772  13.186  0.0467  0.4810 -0.4042
 7914TIP3    H145233   1.646   2.777  13.149 -0.0185  0.2321 -0.2780
 7914TIP3    H245234   1.776   2.699  13.140 -0.9428 -1.7003  1.9407
 7915TIP3   OH245235   3.427   3.797  13.769 -0.2351 -0.0723  0.0265
 7915TIP3    H145236   3.499   3.857  13.747 -0.0348 -0.6115 -0.8539
 7915TIP3    H245237   3.470   3.719  13.802 -0.5316  0.6658  2.3222
 7916TIP3   OH245238   3.371   3.320  13.851 -0.2004  0.7469  0.6619
 7916TIP3    H145239   3.322   3.341  13.930  0.6745  2.6349  0.7723
 7916TIP3    H245240   3.355   3.395  13.793  1.2673  0.6655  0.1061
 7917TIP3   OH245241   4.798   1.591   1.294 -0.2146 -0.1346  0.1905
 7917TIP3    H145242   4.828   1.501   1.306  0.2692  0.1608  1.4401
 7917TIP3    H245243   4.854   1.626   1.225 -0.8332 -0.9662 -0.7504
 7918TIP3   OH245244   5.560   1.863  16.062  0.1965 -0.2033  0.1098
 7918TIP3    H145245   5.581   1.770  16.069 -0.6561 -0.4906 -0.9542
 7918TIP3    H245246   5.637   1.902  16.020 -0.3197 -0.8260 -1.4800
 7919TIP3   OH245247   2.163   2.789  16.377  0.3863 -0.2518  0.1813
 7919TIP3    H145248   2.112   2.745  16.309 -0.6464  0.1274  0.6908
 7919TIP3    H245249   2.253   2.790  16.342  0.1450 -1.3250 -0.5338
 7920TIP3   OH245250   4.858   1.450   5.424  0.2665 -0.1797 -0.2970
 7920TIP3    H145251   4.842   1.540   5.452 -0.0190  0.0425 -1.1492
 7920TIP3    H245252   4.797   1.398   5.477 -0.9720  0.3295 -1.1703
 7921TIP3   OH245253   6.726   0.647  15.908  0.1892  0.1896  0.6440
 7921TIP3    H145254   6.750   0.607  15.992 -0.3955  1.8518  1.6374
 7921TIP3    H245255   6.786   0.721  15.898  0.0703  0.1738 -0.2862
 7922TIP3   OH245256   0.635   2.491  11.966  0.1900  0.3651  0.2512
 7922TIP3    H145257   0.689   2.430  11.916  0.1191  0.8309 -0.4107
 7922TIP3    H245258   0.697   2.551  12.007  0.3071 -0.5756  1.5133
 7923TIP3   OH245259   1.297   0.480  15.307  0.0387  0.2523  0.6913
 7923TIP3    H145260   1.326   0.570  15.296  0.3081  0.2689  1.5163
 7923TIP3    H245261   1.335   0.452  15.390 -0.7299 -0.3531  0.8498
 7924TIP3   OH245262   0.774   2.857   4.967  0.2147 -0.0577  0.3501
 7924TIP3    H145263   0.737   2.944   4.950 -0.0675  0.0788  1.5737
 7924TIP3    H245264   0.811   2.863   5.055  0.6124 -1.0456  0.2675
 7925TIP3   OH245265   2.451   4.165  12.569 -0.2821 -0.6727  0.3503
 7925TIP3    H145266   2.383   4.109  12.530  1.0731 -1.5696 -0.8273
 7925TIP3    H245267   2.447   4.246  12.518 -1.7823  0.1208  1.6136
 7926TIP3   OH245268   4.617   4.721   4.291 -0.1112 -0.1969  0.3792
 7926TIP3    H145269   4.676   4.658   4.250 -0.2512 -0.6659  0.8865
 7926TIP3    H245270   4.666   4.753   4.367 -0.0242  0.3397  0.0984
 7927TIP3   OH245271   3.589   3.935  14.605 -0.2411  0.4339 -0.1536
 7927TIP3    H145272   3.635   3.951  14.523 -2.2678  1.3866 -1.1829
 7927TIP3    H245273   3.590   3.839  14.615  2.9166  0.4487  0.5426
 7928TIP3   OH245274   6.380   4.980  16.683 -0.2713 -0.0366  0.3323
 7928TIP3    H145275   6.310   4.985  16.749  0.0296  0.5007  0.6161
 7928TIP3    H245276   6.461   4.981  16.734 -0.0443 -1.8102  0.0808
 7929TIP3   OH245277   6.335   2.105   3.029 -0.2878  0.4043  0.0884
 7929TIP3    H145278   6.269   2.087   3.096 -0.0825 -0.0543  0.1704
 7929TIP3    H245279   6.316   2.041   2.960  0.1637  0.1698  0.1785
 7930TIP3   OH245280   6.167   2.728   2.143 -0.2935 -0.7982  0.1608
 7930TIP3    H145281   6.161   2.813   2.101  0.2226 -0.2800  1.1123
 7930TIP3    H245282   6.257   2.722   2.173 -0.6516 -1.1441  1.1983
 7931TIP3   OH245283   5.518   5.035  16.717  0.4205 -0.2375  0.0325
 7931TIP3    H145284   5.437   4.995  16.749  1.0837 -1.1711  0.6154
 7931TIP3    H245285   5.568   5.056  16.796  1.3530 -0.9981 -0.3278
 7932TIP3   OH245286   5.054   2.198  13.148 -0.1813  0.6354  0.2680
 7932TIP3    H145287   5.134   2.218  13.100  0.4233  1.9297  1.7649
 7932TIP3    H245288   5.065   2.240  13.233 -1.9783 -0.1103  0.9158
 7933TIP3   OH245289   5.296   5.129  15.088  0.4052 -0.0748  0.4759
 7933TIP3    H145290   5.210   5.087  15.091  0.1456  0.5298  2.5773
 7933TIP3    H245291   5.319   5.144  15.179  1.3883  2.5291 -0.1127
 7934TIP3   OH245292   4.311   5.823   1.632 -0.0480  0.0028  0.5760
 7934TIP3    H145293   4.370   5.842   1.706  0.8649  0.2306 -0.1969
 7934TIP3    H245294   4.270   5.907   1.612  0.0266  0.0316  0.5443
 7935TIP3   OH245295   1.165   3.948   6.389  0.0951 -0.3416 -0.2852
 7935TIP3    H145296   1.117   3.906   6.461 -0.0555  0.4090  0.0653
 7935TIP3    H245297   1.169   4.041   6.414  2.1862 -0.4470 -0.0273
 7936TIP3   OH245298   1.547   4.840   5.336 -0.2156 -0.1492 -0.6028
 7936TIP3    H145299   1.532   4.934   5.345 -2.3076 -0.5920  1.5699
 7936TIP3    H245300   1.464   4.805   5.306  0.3431 -1.3820 -0.7865
 7937TIP3   OH245301   5.660   5.785  13.562 -0.4178  0.6186 -0.3754
 7937TIP3    H145302   5.607   5.864  13.554 -0.3600  0.5782 -1.2686
 7937TIP3    H245303   5.609   5.728  13.618 -0.2922  1.4222  0.5859
 7938TIP3   OH245304   6.152   2.001   3.244 -0.6315  0.1644  0.5961
 7938TIP3    H145305   6.098   2.074   3.274  0.7523  0.1422  3.5167
 7938TIP3    H245306   6.222   1.995   3.309 -0.4163 -3.4874  0.2417
 7939TIP3   OH245307   2.238   3.077  13.955 -0.6280 -0.2370 -0.1569
 7939TIP3    H145308   2.328   3.101  13.976 -0.6681  0.6005 -0.8942
 7939TIP3    H245309   2.195   3.160  13.934 -0.9282 -0.8688 -2.1990
 7940TIP3   OH245310   5.708   6.097  11.799  0.1033  0.0894  0.5388
 7940TIP3    H145311   5.702   6.149  11.879  1.4805  0.7167  0.2626
 7940TIP3    H245312   5.622   6.056  11.791 -0.1919  0.3112  2.1285
 7941TIP3   OH245313   0.377   3.403   1.606  0.7546  0.7302 -0.0298
 7941TIP3    H145314   0.436   3.337   1.643 -0.4374 -0.8255 -0.7825
 7941TIP3    H245315   0.323   3.431   1.680  0.3124 -0.2214  0.0215
 7942TIP3   OH245316   0.170   0.701  15.571 -0.3913 -0.0520  0.3833
 7942TIP3    H145317   0.078   0.681  15.553 -0.3772 -0.4822  0.7597
 7942TIP3    H245318   0.166   0.765  15.642 -0.4123  0.3114  0.0523
 7943TIP3   OH245319   1.524   0.191  15.255 -0.3403  0.2845 -0.3424
 7943TIP3    H145320   1.550   0.121  15.315  0.4276  0.0158 -0.9574
 7943TIP3    H245321   1.480   0.146  15.183  0.0386  0.4360 -0.6771
 7944TIP3   OH245322   6.736   5.598   4.849  0.6193  0.1182  0.4317
 7944TIP3    H145323   6.699   5.511   4.864 -1.2253  0.8642  0.4554
 7944TIP3    H245324   6.761   5.598   4.757 -0.1793 -0.1659  0.2060
 7945TIP3   OH245325   1.779   1.656   3.268  0.2963 -0.1957 -0.0677
 7945TIP3    H145326   1.699   1.612   3.239  1.2590 -0.8030 -1.9668
 7945TIP3    H245327   1.800   1.717   3.197  0.4968  1.3797  1.2821
 7946TIP3   OH245328   2.848   1.333  14.104 -0.0483 -0.0779  0.3500
 7946TIP3    H145329   2.938   1.353  14.130 -0.3009 -0.0326  1.2321
 7946TIP3    H245330   2.857   1.281  14.024  0.6824  1.9652 -0.9740
 7947TIP3   OH245331   5.641   5.880   5.271 -0.2495 -0.2972  0.3625
 7947TIP3    H145332   5.663   5.967   5.306 -1.1750 -0.2786  0.9164
 7947TIP3    H245333   5.619   5.895   5.180 -1.7345  0.2671  0.7989
 7948TIP3   OH245334   0.182   5.315  14.308 -0.0550  0.5224  0.1988
 7948TIP3    H145335   0.224   5.231  14.290  1.3827  1.0844  0.8041
 7948TIP3    H245336   0.141   5.340  14.226  0.6553 -0.1364 -0.3688
 7949TIP3   OH245337   4.187   3.646   5.807 -0.1804  0.2793  0.3616
 7949TIP3    H145338   4.146   3.707   5.868  0.9324  0.9987  0.4089
 7949TIP3    H245339   4.198   3.696   5.726  1.2134  0.3249  0.5564
 7950TIP3   OH245340   1.566   3.391   0.532  0.5282 -0.6123  0.4702
 7950TIP3    H145341   1.580   3.429   0.618 -0.4788  0.0320  0.3626
 7950TIP3    H245342   1.556   3.466   0.474  1.2200 -1.0362 -0.2287
 7951TIP3   OH245343   0.693   3.060   1.399  0.1202 -0.0565  1.0935
 7951TIP3    H145344   0.639   3.114   1.342  1.5788 -0.3429 -0.6466
 7951TIP3    H245345   0.782   3.092   1.386  0.5998 -0.6409  2.6561
 7952TIP3   OH245346   0.659   1.098  12.442 -0.0544  0.2417 -0.1891
 7952TIP3    H145347   0.646   1.190  12.421 -0.1044  0.4535  0.7207
 7952TIP3    H245348   0.583   1.054  12.403 -0.9730  0.8251  0.8713
 7953TIP3   OH245349   0.617   5.996  16.828 -0.6069 -0.3756 -0.0859
 7953TIP3    H145350   0.632   6.079  16.784  0.1668  0.4873  1.7301
 7953TIP3    H245351   0.695   5.981  16.881 -1.3835 -1.4762  0.8157
 7954TIP3   OH245352   6.471   6.345  16.908  0.1809 -0.1874 -0.3609
 7954TIP3    H145353   6.387   6.301  16.894 -0.6434  1.3887 -0.5800
 7954TIP3    H245354   6.478   6.353  17.003  0.1578 -0.4349 -0.3363
 7955TIP3   OH245355   2.669   1.532   0.513 -0.2082  0.0654  0.0247
 7955TIP3    H145356   2.596   1.555   0.456  1.3869  0.4329 -1.9992
 7955TIP3    H245357   2.676   1.437   0.506 -0.0539  0.1038 -0.3444
 7956TIP3   OH245358   0.230   6.268   3.217 -0.1589  0.7454 -0.7066
 7956TIP3    H145359   0.301   6.208   3.194  1.7410  1.9720  1.4861
 7956TIP3    H245360   0.240   6.341   3.157 -1.3305 -0.2291 -2.1655
 7957TIP3   OH245361   3.023   3.386  14.769  0.0587 -0.5840 -0.8238
 7957TIP3    H145362   3.071   3.337  14.701  0.8496 -0.5658 -0.2976
 7957TIP3    H245363   2.987   3.462  14.723  1.6648  0.1201 -0.9933
 7958TIP3   OH245364   2.062   2.111   0.033  0.3017 -0.2373  0.1396
 7958TIP3    H145365   2.005   2.124  -0.042  0.9256  0.7719 -0.1759
 7958TIP3    H245366   2.041   2.183   0.093  1.3838  0.2880 -0.0838
 7959TIP3   OH245367   6.429   0.720   3.295 -0.0625  0.0999  0.3363
 7959TIP3    H145368   6.436   0.795   3.236 -1.2840  0.3367  0.4775
 7959TIP3    H245369   6.446   0.644   3.240 -1.3549  0.3035 -0.3698
 7960TIP3   OH245370   0.007   5.362  12.091  0.6510  0.0347  0.0765
 7960TIP3    H145371   0.090   5.408  12.098  0.9130 -0.2585 -0.9969
 7960TIP3    H245372  -0.057   5.430  12.069  0.6221  0.2378  0.7681
 7961TIP3   OH245373   0.327   5.094   1.416 -0.4083 -0.6367 -0.4151
 7961TIP3    H145374   0.409   5.055   1.385  0.8615  2.7570 -1.7544
 7961TIP3    H245375   0.259   5.042   1.374  1.0599 -2.5427 -0.5929
 7962TIP3   OH245376   6.562   2.176  16.601 -0.3831  0.6733 -0.3856
 7962TIP3    H145377   6.647   2.158  16.560  0.2344 -0.5814  1.3182
 7962TIP3    H245378   6.508   2.100  16.579 -0.7679  1.0238 -0.6702
 7963TIP3   OH245379   6.633   6.348  13.957 -0.1961 -0.3210  0.8350
 7963TIP3    H145380   6.717   6.363  13.914 -0.8445 -0.4977 -0.5704
 7963TIP3    H245381   6.596   6.272  13.911 -0.8304 -0.6866  1.8953
 7964TIP3   OH245382   2.873   6.445  12.993 -0.4632 -0.4119  0.5401
 7964TIP3    H145383   2.849   6.378  13.057  1.2998 -1.1888  0.4565
 7964TIP3    H245384   2.818   6.520  13.014 -1.0537 -1.2081  1.9297
 7965TIP3   OH245385   6.603   6.245   1.852  0.8022 -0.0682 -0.2140
 7965TIP3    H145386   6.648   6.166   1.825  1.6254  0.7271 -1.2793
 7965TIP3    H245387   6.666   6.315   1.836 -0.3691  0.9452 -0.5486
 7966TIP3   OH245388   1.571   0.368  13.928  0.1112 -0.8377 -0.4668
 7966TIP3    H145389   1.566   0.454  13.887 -4.1775  0.1843  1.6044
 7966TIP3    H245390   1.634   0.379  14.000  0.2968  0.2825 -0.7779
 7967TIP3   OH245391   1.212   5.124   5.181 -0.0308 -0.2457 -0.5973
 7967TIP3    H145392   1.185   5.037   5.209  0.9902 -0.7956 -1.2440
 7967TIP3    H245393   1.308   5.122   5.187 -0.0324  1.4017  1.0310
 7968TIP3   OH245394   5.946   1.318   2.977 -0.2780  0.1847 -0.1274
 7968TIP3    H145395   5.984   1.291   2.893 -0.6787 -1.3567  0.1567
 7968TIP3    H245396   5.964   1.412   2.982  3.0064 -0.3134 -0.2643
 7969TIP3   OH245397   5.006   1.234   5.342  0.3215  0.3998  0.1855
 7969TIP3    H145398   4.960   1.315   5.363  0.9907  0.7480  0.3446
 7969TIP3    H245399   4.984   1.175   5.414  1.0508  0.9531  0.8892
 7970TIP3   OH245400   2.629   5.545   5.305 -0.3939 -0.0008 -0.1396
 7970TIP3    H145401   2.718   5.576   5.323 -0.7987  0.9567  0.2982
 7970TIP3    H245402   2.580   5.625   5.285 -1.3962 -0.3836  0.6804
 7971TIP3   OH245403   1.366   2.025   1.423  0.1076  0.0621  0.4084
 7971TIP3    H145404   1.409   2.089   1.366  2.3908 -1.7695 -0.0663
 7971TIP3    H245405   1.412   1.943   1.406 -1.2301 -1.2435  2.6295
 7972TIP3   OH245406   6.465   2.457   1.013 -0.1273  0.3786 -0.4941
 7972TIP3    H145407   6.448   2.422   0.926  1.3273 -0.4050 -0.5049
 7972TIP3    H245408   6.382   2.449   1.060 -0.6447 -0.1452 -1.4893
 7973TIP3   OH245409   4.914   6.327   4.783 -0.1017 -0.1813  0.3578
 7973TIP3    H145410   4.979   6.290   4.843 -0.9268 -1.0211  0.7518
 7973TIP3    H245411   4.939   6.419   4.775  0.1403 -0.0944  1.8443
 7974TIP3   OH245412   1.161   3.520   6.156  0.2634 -0.3337 -0.0327
 7974TIP3    H145413   1.102   3.447   6.141  0.5498 -0.5541 -0.0839
 7974TIP3    H245414   1.120   3.570   6.227 -0.7880  0.3756 -1.0967
 7975TIP3   OH245415   5.670   2.235   2.687  0.4168 -0.1457 -0.5120
 7975TIP3    H145416   5.642   2.250   2.597  0.8859 -1.2047 -0.8472
 7975TIP3    H245417   5.598   2.185   2.727  0.8497 -0.9758 -0.7451
 7976TIP3   OH245418   2.384   3.514  15.674 -0.2163 -0.1748  1.1478
 7976TIP3    H145419   2.314   3.533  15.612  0.9276  0.9504  0.1486
 7976TIP3    H245420   2.411   3.424  15.653 -1.1344 -0.5021  1.3359
 7977TIP3   OH245421   0.391   0.524   1.368 -0.1679 -0.2357  0.0746
 7977TIP3    H145422   0.415   0.608   1.328  0.6530  0.1959  1.4057
 7977TIP3    H245423   0.413   0.459   1.302 -2.0324  0.6318 -1.5121
 7978TIP3   OH245424   5.265   4.000  15.110  0.1488 -0.3448  0.1455
 7978TIP3    H145425   5.222   3.917  15.132 -1.1032  0.8790  2.7819
 7978TIP3    H245426   5.204   4.067  15.141  1.6200  1.5550 -0.8791
 7979TIP3   OH245427   5.528   4.836  11.598 -0.0576 -0.1444 -0.2137
 7979TIP3    H145428   5.549   4.924  11.631  0.4729 -0.0223 -0.8560
 7979TIP3    H245429   5.459   4.805  11.656 -0.9299  1.0845 -0.5514
 7980TIP3   OH245430   4.048   1.606  15.424 -0.3424  0.3860 -0.1432
 7980TIP3    H145431   4.054   1.542  15.353 -2.4261 -1.0732  0.8676
 7980TIP3    H245432   3.955   1.607  15.447  0.3401 -0.1405  3.3032
 7981TIP3   OH245433   0.799   6.553   3.861  0.0463  0.3118 -0.5861
 7981TIP3    H145434   0.857   6.492   3.908 -0.2264 -0.1226 -0.8023
 7981TIP3    H245435   0.808   6.527   3.769 -0.9750 -0.1925 -0.5629
 7982TIP3   OH245436   5.127   0.087  16.238  0.6263  0.2310  0.1895
 7982TIP3    H145437   5.054   0.055  16.185  0.3512 -1.0939  1.3298
 7982TIP3    H245438   5.086   0.137  16.308  1.0440  3.4451 -1.6224
 7983TIP3   OH245439   4.384   1.614   5.875 -0.4559  0.6364  0.6302
 7983TIP3    H145440   4.391   1.706   5.901  2.6744  1.3275 -1.9742
 7983TIP3    H245441   4.449   1.570   5.930  0.8041  0.7604 -0.7004
 7984TIP3   OH245442   0.385   1.710  12.430 -0.7839 -0.0398 -0.4904
 7984TIP3    H145443   0.302   1.689  12.386 -2.1917 -1.6727  2.5749
 7984TIP3    H245444   0.359   1.763  12.506  0.7899 -1.2717  1.0016
 7985TIP3   OH245445   2.247   4.233  12.323 -0.1094  0.5867  0.4627
 7985TIP3    H145446   2.239   4.169  12.394 -1.8344 -0.7146 -0.7858
 7985TIP3    H245447   2.186   4.303  12.346 -3.3938 -1.4575 -1.1846
 7986TIP3   OH245448   1.877   0.889  15.303 -0.0190 -0.1592  0.2004
 7986TIP3    H145449   1.874   0.883  15.208 -0.5907 -1.6939  0.2795
 7986TIP3    H245450   1.966   0.919  15.323 -0.1233  0.8803 -0.8197
 7987TIP3   OH245451   0.910   2.353   1.476  0.0911 -0.2589  0.3972
 7987TIP3    H145452   0.839   2.307   1.521  0.2438 -0.6978  0.1891
 7987TIP3    H245453   0.967   2.384   1.546 -0.8848  1.0919  0.6568
 7988TIP3   OH245454   3.956   6.316   2.962 -0.3854  0.3257  0.1073
 7988TIP3    H145455   3.893   6.290   2.895 -1.6231  1.3649  0.8373
 7988TIP3    H245456   3.945   6.411   2.969  1.4146  0.5688  0.1138
 7989TIP3   OH245457   6.456   0.362  17.189  0.1370 -0.0190  0.0623
 7989TIP3    H145458   6.397   0.289  17.170 -2.7354  1.5036  2.3367
 7989TIP3    H245459   6.467   0.360  17.284  0.4168  2.1447  0.1210
 7990TIP3   OH245460   2.961   2.996   2.693 -0.7067 -0.0295 -0.4748
 7990TIP3    H145461   2.921   3.072   2.652  1.4149  0.9533 -0.8342
 7990TIP3    H245462   2.895   2.964   2.754 -1.6458  2.0951 -0.3134
 7991TIP3   OH245463   1.733   3.592   3.556  0.1784  0.2127  0.4084
 7991TIP3    H145464   1.714   3.659   3.622 -3.0327 -1.3031  1.2663
 7991TIP3    H245465   1.707   3.631   3.473 -0.0740  0.6181  0.6744
 7992TIP3   OH245466   1.809   5.913   2.719  0.1849  0.0172  0.4948
 7992TIP3    H145467   1.819   5.984   2.781 -0.6477  0.7071 -0.1277
 7992TIP3    H245468   1.834   5.834   2.767  1.4789  0.7665  1.0763
 7993TIP3   OH245469   6.571   5.810  14.525  0.1520  0.4555 -0.1623
 7993TIP3    H145470   6.535   5.826  14.438  2.1345  1.6015 -0.8479
 7993TIP3    H245471   6.651   5.759  14.509 -0.6304 -1.3374  1.2197
 7994TIP3   OH245472   3.129   6.365   4.715  0.2828  0.1668 -0.0667
 7994TIP3    H145473   3.153   6.275   4.694  1.9183  0.5297  0.1159
 7994TIP3    H245474   3.060   6.386   4.652  0.8218 -0.7802 -1.0169
 7995TIP3   OH245475   2.181   4.865   5.145 -0.1661  0.0351  0.8187
 7995TIP3    H145476   2.183   4.771   5.133  0.0080  0.1138  0.2287
 7995TIP3    H245477   2.168   4.877   5.240  3.2142 -0.5663  1.4590
 7996TIP3   OH245478   3.465   1.321  14.818  0.2608  0.4686 -0.0411
 7996TIP3    H145479   3.448   1.285  14.731  0.8163  1.4304 -0.5576
 7996TIP3    H245480   3.448   1.414  14.810  0.3090  0.5683  0.8911
 7997TIP3   OH245481   0.500   5.489  15.716 -0.4266  0.6350 -0.0102
 7997TIP3    H145482   0.481   5.571  15.670  0.4123  1.1360  0.5036
 7997TIP3    H245483   0.590   5.468  15.690 -0.1419  0.6356  0.9534
 7998TIP3   OH245484   1.825   6.201   0.806 -0.7867 -0.2336  0.2405
 7998TIP3    H145485   1.784   6.120   0.834 -1.3442 -0.5410 -1.3258
 7998TIP3    H245486   1.759   6.269   0.821 -1.0757 -0.3924 -0.2951
 7999TIP3   OH245487   3.152   4.666  15.683  0.0825 -0.2153  0.3691
 7999TIP3    H145488   3.118   4.622  15.605  0.5630 -1.2055  0.7011
 7999TIP3    H245489   3.103   4.627  15.756 -0.7762  1.1159  0.5334
 8000TIP3   OH245490   2.694   5.349   3.696  0.1140  0.1049  0.0149
 8000TIP3    H145491   2.712   5.347   3.602  0.9586 -1.5612  0.1717
 8000TIP3    H245492   2.781   5.352   3.737 -0.2547  1.6924  0.7713
 8001TIP3   OH245493   2.750   6.322  17.167  0.3352  0.0641  0.3589
 8001TIP3    H145494   2.835   6.318  17.122 -0.4008  2.4547 -1.5110
 8001TIP3    H245495   2.689   6.351  17.099 -1.6532  0.0889  2.0663
 8002TIP3   OH245496   4.906   3.538  15.978 -0.7470  0.7108  0.4918
 8002TIP3    H145497   4.962   3.463  15.956 -0.3528  0.6198  1.7314
 8002TIP3    H245498   4.923   3.554  16.070 -1.5765  1.7140  0.4861
 8003TIP3   OH245499   5.509   3.862  16.046  0.2979 -0.5824 -0.0818
 8003TIP3    H145500   5.458   3.865  15.964 -0.7192 -0.8240  0.5155
 8003TIP3    H245501   5.445   3.883  16.114  0.5886 -2.6186  0.8794
 8004TIP3   OH245502   5.100   5.898   4.308 -0.4227 -0.4105  0.1397
 8004TIP3    H145503   5.130   5.988   4.297 -0.8690 -0.3762 -0.9317
 8004TIP3    H245504   5.006   5.906   4.327 -0.5498 -0.6582 -0.3675
 8005TIP3   OH245505   6.431   1.514   4.880  0.5460  0.2454 -0.0656
 8005TIP3    H145506   6.348   1.489   4.920  1.1774  0.6359  1.5432
 8005TIP3    H245507   6.435   1.609   4.890  2.2860  0.0108  2.2099
 8006TIP3   OH245508   4.881   3.284  14.622 -0.3063  0.1398 -0.0588
 8006TIP3    H145509   4.968   3.294  14.660  0.2506 -0.4917 -1.1287
 8006TIP3    H245510   4.886   3.205  14.569 -0.4868  1.8438 -2.8501
 8007TIP3   OH245511   0.624   0.099   3.753 -0.1148  0.3428 -0.3609
 8007TIP3    H145512   0.530   0.101   3.772 -0.5153 -0.8983 -2.0790
 8007TIP3    H245513   0.648   0.192   3.748 -1.5120  0.6956 -1.1465
 8008TIP3   OH245514   2.120   4.405  13.928  0.6733  0.2821  0.5041
 8008TIP3    H145515   2.204   4.451  13.928  0.1949  1.1574  0.7279
 8008TIP3    H245516   2.055   4.472  13.949 -0.0002 -0.5430  1.1500
 8009TIP3   OH245517   6.308   1.243   1.928 -0.5101 -0.0332  0.0771
 8009TIP3    H145518   6.239   1.294   1.885  1.0406  2.3080  0.2363
 8009TIP3    H245519   6.390   1.285   1.903  0.7429 -1.2554  1.8210
 8010TIP3   OH245520   1.008   2.964  14.559 -0.5140 -0.2407  0.2794
 8010TIP3    H145521   1.056   3.023  14.501 -0.7948  0.6228  0.9144
 8010TIP3    H245522   0.967   2.901  14.500  0.0243  0.0263 -0.3890
 8011TIP3   OH245523   1.065   1.873   1.112 -0.1506  0.4199 -0.1861
 8011TIP3    H145524   1.107   1.787   1.120  1.4001  0.9821 -1.7672
 8011TIP3    H245525   1.039   1.895   1.202  0.0033 -1.3848  0.3486
 8012TIP3   OH245526   0.002   3.226   0.146 -0.6203 -0.2186  0.3290
 8012TIP3    H145527  -0.028   3.290   0.082 -1.5253 -0.1994  0.7558
 8012TIP3    H245528   0.017   3.146   0.095  0.2999  0.2607 -0.1653
 8013TIP3   OH245529   6.801   4.673   5.813  0.0818  0.4587  0.2437
 8013TIP3    H145530   6.888   4.650   5.783 -0.0693  0.7313 -0.4212
 8013TIP3    H245531   6.751   4.690   5.733 -0.9659 -1.0200  0.5299
 8014TIP3   OH245532   4.152   2.705   4.623  0.7511 -0.1113 -0.1778
 8014TIP3    H145533   4.084   2.743   4.567  1.1933 -0.3844 -0.9188
 8014TIP3    H245534   4.202   2.648   4.564  1.4114 -0.1750  0.4336
 8015TIP3   OH245535   0.773   6.725  13.585  0.1910 -0.1302  0.2772
 8015TIP3    H145536   0.843   6.711  13.648 -1.5950 -0.6821  2.2316
 8015TIP3    H245537   0.735   6.638  13.571 -0.0463  0.1320 -0.8691
 8016TIP3   OH245538   0.083   2.571  13.464  0.2160 -0.0035  0.0801
 8016TIP3    H145539   0.124   2.528  13.390  2.7155  0.4732  1.0796
 8016TIP3    H245540   0.086   2.507  13.535 -0.4632  0.1673  0.2734
 8017TIP3   OH245541   1.720   5.709   1.685  0.8142  0.1927  0.0093
 8017TIP3    H145542   1.701   5.764   1.761  0.6008  0.3147 -0.1288
 8017TIP3    H245543   1.803   5.666   1.706  1.0995  0.7476  0.0191
 8018TIP3   OH245544   0.775   1.016   5.716 -0.0549 -0.0853  0.7579
 8018TIP3    H145545   0.687   1.018   5.679 -0.8188 -1.1858  2.3914
 8018TIP3    H245546   0.771   1.073   5.792  1.0627  0.9491  0.0848
 8019TIP3   OH245547   4.286   4.380  16.927  0.2126  0.6316  0.2510
 8019TIP3    H145548   4.238   4.462  16.942 -0.5049  0.1622  0.5980
 8019TIP3    H245549   4.222   4.323  16.884  1.1941  0.7838 -1.4912
 8020TIP3   OH245550   1.184   2.362  12.677  0.0664 -0.2887  0.0548
 8020TIP3    H145551   1.126   2.305  12.727  2.9537 -1.8419  1.8952
 8020TIP3    H245552   1.163   2.450  12.708  0.3681 -1.0378  2.5666
 8021TIP3   OH245553   6.221   1.089   3.292  0.1020  0.0662  0.2870
 8021TIP3    H145554   6.290   1.153   3.309  0.3807  0.1855 -1.1899
 8021TIP3    H245555   6.227   1.028   3.365  1.4494  0.3626  0.4497
 8022TIP3   OH245556   4.866   2.202   1.171  0.4405 -0.0943 -0.2575
 8022TIP3    H145557   4.776   2.220   1.143 -0.0843  0.2477  1.4650
 8022TIP3    H245558   4.917   2.274   1.136 -0.3782  0.9310  0.6031
 8023TIP3   OH245559   3.483   6.755   5.781  0.4006 -0.0203 -0.0578
 8023TIP3    H145560   3.489   6.812   5.704  0.5070 -1.6278 -1.2934
 8023TIP3    H245561   3.441   6.675   5.749  1.2419 -1.0872  1.3550
 8024TIP3   OH245562   3.950   1.525  11.728  0.3213  0.0327  0.1001
 8024TIP3    H145563   3.947   1.511  11.633  1.4640  3.1649 -0.5059
 8024TIP3    H245564   3.866   1.492  11.759 -1.0827  0.9918 -2.3509
 8025TIP3   OH245565   2.085   6.192  11.681  0.3465 -0.1869 -0.1652
 8025TIP3    H145566   2.013   6.256  11.679  0.0922 -0.3660  1.4052
 8025TIP3    H245567   2.043   6.109  11.659  0.8848  0.2678 -3.3511
 8026TIP3   OH245568   1.602   5.664   5.396 -0.2118  0.1595 -0.0221
 8026TIP3    H145569   1.656   5.585   5.394 -0.0574  0.2737 -0.7284
 8026TIP3    H245570   1.584   5.683   5.304 -1.0337  0.4192  0.1863
 8027TIP3   OH245571   4.778   3.379   5.199 -0.2549 -0.2371 -0.4299
 8027TIP3    H145572   4.751   3.457   5.248 -0.1758 -1.3481  1.4817
 8027TIP3    H245573   4.814   3.413   5.117  0.2385  1.7521  0.5587
 8028TIP3   OH245574   5.683   0.980  14.349 -0.1337  0.2820 -0.0293
 8028TIP3    H145575   5.668   0.969  14.255  0.5066 -0.2942 -0.0744
 8028TIP3    H245576   5.737   1.059  14.355  0.1187  0.1248 -0.1820
 8029TIP3   OH245577   0.643   2.471  16.418 -0.7463 -1.0402 -0.0297
 8029TIP3    H145578   0.700   2.396  16.406  0.4215 -0.0911 -0.6795
 8029TIP3    H245579   0.654   2.495  16.510 -0.5183 -1.1934 -0.0169
 8030TIP3   OH245580   5.144   2.919   6.988 -0.7296  0.2346 -0.6112
 8030TIP3    H145581   5.209   2.982   6.955 -1.1631  0.9550 -0.1243
 8030TIP3    H245582   5.173   2.834   6.954 -0.1748  0.7047 -1.3487
 8031TIP3   OH245583   5.950   2.561  16.337 -0.1630 -0.7072  0.9353
 8031TIP3    H145584   5.956   2.519  16.251  0.6377 -1.6114  1.4118
 8031TIP3    H245585   5.974   2.492  16.399  0.4393  0.2535  1.8007
 8032TIP3   OH245586   0.276   1.359   6.166 -0.2099 -0.2331  0.6161
 8032TIP3    H145587   0.298   1.267   6.150  1.8992  0.3801 -0.3753
 8032TIP3    H245588   0.342   1.408   6.118 -2.0180  1.8557  0.1029
 8033TIP3   OH245589   3.638   1.578  14.775 -0.8280 -0.0262  0.2984
 8033TIP3    H145590   3.630   1.577  14.870  0.2755  0.2159  0.4023
 8033TIP3    H245591   3.732   1.573  14.758 -0.9931  0.1662 -0.7764
 8034TIP3   OH245592   1.268   4.866  13.992 -0.1070 -0.5981 -0.1889
 8034TIP3    H145593   1.200   4.798  13.990 -2.4295  1.5726 -1.1319
 8034TIP3    H245594   1.227   4.942  13.951  1.8207  1.8370  2.0209
 8035TIP3   OH245595   6.541   3.764   1.958 -0.2371  0.2842  0.5153
 8035TIP3    H145596   6.495   3.712   2.024 -2.9687  1.3662 -0.4213
 8035TIP3    H245597   6.502   3.851   1.964 -0.3294  0.5211 -2.2561
 8036TIP3   OH245598   2.136   3.601  12.312 -0.0859  0.3840  0.2578
 8036TIP3    H145599   2.168   3.691  12.305 -1.6384  1.1729  2.4170
 8036TIP3    H245600   2.113   3.590  12.404  0.5232 -2.4276  0.1646
 8037TIP3   OH245601   3.964   0.401   2.916 -0.2823  0.0770 -0.4568
 8037TIP3    H145602   3.956   0.306   2.907 -1.7104  0.2705 -1.4662
 8037TIP3    H245603   4.051   0.414   2.954  0.1788 -1.6015 -0.8599
 8038TIP3   OH245604   3.648   1.496   1.591  0.5712  0.7039  0.1116
 8038TIP3    H145605   3.589   1.554   1.639 -1.4598 -2.0716  1.2041
 8038TIP3    H245606   3.604   1.481   1.507  0.9960  0.5724 -0.0931
 8039TIP3   OH245607   6.467   6.538  16.434 -0.1119 -0.2559 -0.1543
 8039TIP3    H145608   6.461   6.556  16.527  0.1789  1.4460 -0.4410
 8039TIP3    H245609   6.418   6.456  16.422 -0.8286 -0.0712  1.3586
 8040TIP3   OH245610   1.372   3.752  13.983  0.1169 -0.0221  0.1163
 8040TIP3    H145611   1.453   3.788  14.021  0.9358  0.4031 -1.8815
 8040TIP3    H245612   1.381   3.658  13.992  1.1726 -0.0192 -0.6123
 8041TIP3   OH245613   5.412   1.259  15.287 -0.5330 -0.3928  0.1512
 8041TIP3    H145614   5.405   1.353  15.273  0.0335 -0.5503 -1.3318
 8041TIP3    H245615   5.371   1.220  15.210  2.6909 -1.3150 -1.2502
 8042TIP3   OH245616   0.467   4.916  14.999 -0.1037 -0.4037 -0.0607
 8042TIP3    H145617   0.529   4.981  14.966 -1.9368  1.1268 -0.7044
 8042TIP3    H245618   0.440   4.867  14.921 -0.8577  0.0095 -0.0715
 8043TIP3   OH245619   2.519   3.188   3.333  0.1317 -0.5668  0.2259
 8043TIP3    H145620   2.486   3.146   3.253 -1.4752 -0.5816  0.8554
 8043TIP3    H245621   2.576   3.258   3.301 -1.8158  0.5437 -1.0453
 8044TIP3   OH245622   2.053   3.827   6.492  0.3157  0.1211  0.1754
 8044TIP3    H145623   2.080   3.770   6.564 -3.8185 -0.6482  1.4180
 8044TIP3    H245624   2.062   3.772   6.414  2.2221  0.0049  0.4300
 8045TIP3   OH245625   0.722   4.300   2.415 -0.6230  0.2077 -0.0089
 8045TIP3    H145626   0.738   4.252   2.496  0.6583  0.4604 -0.0774
 8045TIP3    H245627   0.795   4.363   2.411 -2.3217  2.3062  0.1928
 8046TIP3   OH245628   2.211   3.111  11.262  0.2787  0.8756  0.6300
 8046TIP3    H145629   2.270   3.185  11.246 -1.2659  2.1876  0.7595
 8046TIP3    H245630   2.225   3.053  11.187  0.6122  1.9127 -0.1427
 8047TIP3   OH245631   4.457   2.867  12.547 -0.5238 -0.0561  0.3271
 8047TIP3    H145632   4.515   2.820  12.607 -1.6593 -2.2214 -0.1779
 8047TIP3    H245633   4.491   2.956  12.546  2.5377 -1.1083  0.3795
 8048TIP3   OH245634   6.617   2.672   2.439 -0.4992  0.8037  0.2796
 8048TIP3    H145635   6.633   2.757   2.398  1.0534  0.0272 -0.8655
 8048TIP3    H245636   6.681   2.667   2.510 -0.2372  0.4116  0.0240
 8049TIP3   OH245637   2.032   3.731  14.151  0.2325  0.0829  0.5820
 8049TIP3    H145638   2.026   3.801  14.216 -1.1100  0.8890 -0.3719
 8049TIP3    H245639   2.006   3.652  14.200  2.4627  0.0426  1.8501
 8050TIP3   OH245640   6.224   3.858  16.240 -0.2890  0.3152 -0.0262
 8050TIP3    H145641   6.174   3.934  16.210  0.2587  0.8344  0.3783
 8050TIP3    H245642   6.256   3.882  16.326 -0.0536 -0.3512  0.0765
 8051TIP3   OH245643   4.067   2.041   4.545  0.1801 -0.4601  0.1742
 8051TIP3    H145644   4.053   2.068   4.454 -0.0224  0.2000  0.3971
 8051TIP3    H245645   4.147   1.988   4.542 -0.4022 -1.3217 -0.5500
 8052TIP3   OH245646   3.228   5.787   2.152  0.0844 -0.0626  0.4042
 8052TIP3    H145647   3.187   5.762   2.234 -1.2649 -0.8965 -0.4802
 8052TIP3    H245648   3.232   5.883   2.155  0.3727 -0.0982  1.5626
 8053TIP3   OH245649   3.769   3.733  10.983 -0.5505 -0.0985  0.2611
 8053TIP3    H145650   3.799   3.661  10.927 -1.1148 -1.4919  1.7055
 8053TIP3    H245651   3.766   3.809  10.924 -1.0206 -1.4750 -1.5803
 8054TIP3   OH245652   1.947   0.391   4.373 -0.1171 -0.2515  0.0515
 8054TIP3    H145653   2.012   0.446   4.328  0.3065  0.4603  1.4829
 8054TIP3    H245654   1.863   0.423   4.340  0.1227  1.2149  0.7402
 8055TIP3   OH245655   1.017   2.482   5.500 -0.3053 -0.0193  0.0799
 8055TIP3    H145656   0.938   2.524   5.467 -0.6097  0.9383  1.8896
 8055TIP3    H245657   1.088   2.539   5.472 -0.3333 -0.3506 -0.6951
 8056TIP3   OH245658   2.386   5.621   4.783 -0.8185 -0.5265  0.2539
 8056TIP3    H145659   2.343   5.539   4.762 -0.2605 -0.6890 -0.2535
 8056TIP3    H245660   2.375   5.676   4.706  0.3075 -0.7501 -0.0930
 8057TIP3   OH245661   2.470   1.420   3.388 -0.7067  0.1560 -0.3791
 8057TIP3    H145662   2.532   1.366   3.437 -0.7643  1.3738  1.0890
 8057TIP3    H245663   2.413   1.356   3.344 -0.0819 -0.9786  0.3929
 8058TIP3   OH245664   5.256   1.367  13.792 -0.7946  0.5317  0.2392
 8058TIP3    H145665   5.266   1.462  13.781 -2.9274  0.7197 -0.6187
 8058TIP3    H245666   5.334   1.340  13.841  1.1397  2.3243 -1.6227
 8059TIP3   OH245667   0.982   4.887  14.384 -0.1316 -0.3232 -0.1289
 8059TIP3    H145668   1.031   4.935  14.317 -2.6617  0.2195 -1.7029
 8059TIP3    H245669   1.042   4.883  14.459  2.0356  0.8596 -1.6901
 8060TIP3   OH245670   2.895   3.803  14.078  0.2643  0.2267 -0.2124
 8060TIP3    H145671   2.903   3.829  13.986  1.4281 -0.6767 -0.3868
 8060TIP3    H245672   2.877   3.884  14.124  2.1277  1.1185 -0.9464
 8061TIP3   OH245673   0.409   6.423   5.727 -0.6713 -0.1221 -0.4706
 8061TIP3    H145674   0.450   6.505   5.700 -0.9934 -0.0719 -0.8357
 8061TIP3    H245675   0.315   6.439   5.716 -0.8052 -0.1891  0.4615
 8062TIP3   OH245676   1.739   0.337   4.902 -0.4146 -0.3249  0.2780
 8062TIP3    H145677   1.679   0.362   4.832  0.9887 -0.9196 -1.1750
 8062TIP3    H245678   1.681   0.319   4.977 -1.8793  1.1970 -0.4222
 8063TIP3   OH245679   1.429   0.199   1.833 -0.4146  0.5438 -0.2691
 8063TIP3    H145680   1.464   0.137   1.897 -0.3801 -1.2096 -1.8839
 8063TIP3    H245681   1.455   0.285   1.866  1.9843 -0.4424  0.6552
 8064TIP3   OH245682   0.526   5.793   0.182 -0.4741  0.5734 -0.3286
 8064TIP3    H145683   0.511   5.880   0.221  1.7251  0.8459  0.0508
 8064TIP3    H245684   0.488   5.732   0.245  2.0506  1.0716  1.8748
 8065TIP3   OH245685   3.678   4.691   3.245  0.5370 -0.3148  0.5306
 8065TIP3    H145686   3.623   4.769   3.232  1.3958  0.3174  0.5990
 8065TIP3    H245687   3.755   4.707   3.191  0.8138 -1.0247  0.7157
 8066TIP3   OH245688   2.418   3.240  12.040 -0.1791 -0.5164  0.2787
 8066TIP3    H145689   2.513   3.231  12.050 -0.0092  0.1788 -0.5030
 8066TIP3    H245690   2.391   3.294  12.114 -0.2173 -1.9702  1.3588
 8067TIP3   OH245691   6.134   5.671  11.292 -0.2739 -0.2492  0.0566
 8067TIP3    H145692   6.205   5.735  11.285  0.5353 -0.8158  2.2206
 8067TIP3    H245693   6.055   5.724  11.302  0.1999  0.4130  0.3988
 8068TIP3   OH245694   1.058   5.708  11.901  0.3641  0.4777 -0.3838
 8068TIP3    H145695   1.064   5.789  11.951 -2.7004  0.3386  0.3826
 8068TIP3    H245696   1.061   5.639  11.967 -0.8477  0.1661 -0.6365
 8069TIP3   OH245697   0.508   5.307   6.482  0.3895 -0.4672  0.2781
 8069TIP3    H145698   0.531   5.395   6.514 -2.0919  0.5347 -0.4238
 8069TIP3    H245699   0.424   5.288   6.525  0.5604 -2.2250 -0.1101
 8070TIP3   OH245700   6.026   2.326  12.026 -0.1114 -0.1970  0.3049
 8070TIP3    H145701   6.108   2.281  12.046  0.8562  2.6000  3.8411
 8070TIP3    H245702   6.053   2.408  11.984 -1.5796 -1.2980 -3.1167
 8071TIP3   OH245703   5.570   3.399   0.082  0.0500  0.0855  0.4778
 8071TIP3    H145704   5.605   3.323   0.036  0.1877  0.8594 -0.7610
 8071TIP3    H245705   5.610   3.396   0.168  1.3560 -0.3202 -0.1219
 8072TIP3   OH245706   5.337   3.233  13.148  0.2486  0.2647 -0.1669
 8072TIP3    H145707   5.325   3.249  13.054  3.1860  0.0194 -0.6858
 8072TIP3    H245708   5.364   3.317  13.183 -1.1709  0.4387  0.5905
 8073TIP3   OH245709   5.541   1.730  12.177 -0.1040  0.4076 -0.0209
 8073TIP3    H145710   5.519   1.664  12.112 -1.3245 -0.7268  1.4533
 8073TIP3    H245711   5.549   1.811  12.127  0.7493 -0.7094 -1.7828
 8074TIP3   OH245712   0.187   5.764   0.112  0.7828  0.3536 -0.5021
 8074TIP3    H145713   0.217   5.853   0.128  1.8151 -0.1723  0.6145
 8074TIP3    H245714   0.186   5.722   0.198  0.4083 -0.7388 -1.0167
 8075TIP3   OH245715   0.528   2.584   1.516  0.3087 -0.3852  0.2312
 8075TIP3    H145716   0.455   2.523   1.509 -0.7844  1.0593 -2.3969
 8075TIP3    H245717   0.488   2.670   1.525  1.7547  0.2825  0.6826
 8076TIP3   OH245718   4.216   4.172  13.879  0.2757 -0.2347  0.3255
 8076TIP3    H145719   4.268   4.120  13.941 -0.0839 -0.7255  0.2280
 8076TIP3    H245720   4.142   4.114  13.856  0.2042  0.0840 -0.2686
 8077TIP3   OH245721   4.462   2.976  16.584 -0.0115 -0.7802  0.4417
 8077TIP3    H145722   4.451   2.970  16.489 -2.4833 -0.3134  0.6359
 8077TIP3    H245723   4.464   2.885  16.613  0.3746 -0.9196  0.0098
 8078TIP3   OH245724   3.800   3.795   0.523  0.2131  0.2418 -0.3432
 8078TIP3    H145725   3.762   3.878   0.551 -0.9816 -0.7988  1.2973
 8078TIP3    H245726   3.725   3.743   0.493  0.4999 -1.1704  1.1921
 8079TIP3   OH245727   0.866   2.680  16.125 -0.4464  0.1634  0.1896
 8079TIP3    H145728   0.854   2.715  16.213 -0.6597 -1.3347  0.7800
 8079TIP3    H245729   0.934   2.613  16.134 -1.2136 -0.7559 -0.5543
 8080TIP3   OH245730   0.980   2.741   5.742 -0.2202  0.1043 -0.3949
 8080TIP3    H145731   0.924   2.666   5.724  0.9462 -0.4441 -1.9160
 8080TIP3    H245732   0.921   2.816   5.737 -1.1394 -0.5892 -0.2171
 8081TIP3   OH245733   1.181   5.502  14.995 -0.1396  0.1218  0.1250
 8081TIP3    H145734   1.189   5.488  14.900 -0.3130  1.0405 -0.0263
 8081TIP3    H245735   1.128   5.581  15.004 -0.6641 -0.3109  1.0043
 8082TIP3   OH245736   0.497   3.641   3.880 -0.1187 -0.4479 -0.0360
 8082TIP3    H145737   0.540   3.591   3.811 -0.3041  0.3022 -0.7134
 8082TIP3    H245738   0.547   3.620   3.959  0.8137 -0.4508 -0.6044
 8083TIP3   OH245739   3.789   6.383   2.728  0.0016  0.7948 -0.0473
 8083TIP3    H145740   3.733   6.305   2.735  0.5800  0.4587  1.0444
 8083TIP3    H245741   3.733   6.455   2.760  0.1267  0.4799  0.9192
 8084TIP3   OH245742   3.931   4.757  15.300 -0.0342 -0.2951  0.1752
 8084TIP3    H145743   3.924   4.779  15.207  3.4770  0.2478 -0.0896
 8084TIP3    H245744   3.873   4.820  15.343  0.3871  1.3048 -1.4720
 8085TIP3   OH245745   2.459   6.011   5.895  0.3800 -0.4123  0.0169
 8085TIP3    H145746   2.382   6.064   5.917  0.6509  0.8249 -1.8380
 8085TIP3    H245747   2.534   6.067   5.916  0.6830 -0.2766 -1.3486
 8086TIP3   OH245748   6.342   2.934   2.398 -0.0715  0.4497  0.3547
 8086TIP3    H145749   6.410   2.980   2.446  0.3761 -0.4720  0.6231
 8086TIP3    H245750   6.281   3.003   2.370  0.5689  1.1886  0.7568
 8087TIP3   OH245751   6.819   3.600   4.536 -0.2689  0.0789  0.3413
 8087TIP3    H145752   6.843   3.684   4.497  0.1844 -0.4941 -0.6366
 8087TIP3    H245753   6.903   3.557   4.553 -0.5101 -0.3851  0.3677
 8088TIP3   OH245754   2.936   1.650   0.695  0.2933  0.0706  0.2545
 8088TIP3    H145755   2.925   1.741   0.723  0.1521  0.0965  0.1163
 8088TIP3    H245756   2.928   1.653   0.600  3.4131  0.3952 -0.1219
 8089TIP3   OH245757   4.115   0.486   3.127  0.6932 -0.0173  0.5530
 8089TIP3    H145758   4.054   0.466   3.198  0.1851  0.0059  0.1264
 8089TIP3    H245759   4.168   0.558   3.161 -0.5195  0.9810  0.3697
 8090TIP3   OH245760   1.285   2.421  11.533 -0.7429  0.2218  0.1234
 8090TIP3    H145761   1.247   2.333  11.527 -1.5359  0.6355 -1.6965
 8090TIP3    H245762   1.253   2.466  11.454 -1.0423  2.4097  1.4165
 8091TIP3   OH245763   1.984   0.589  10.863 -0.3184 -0.0332  0.3591
 8091TIP3    H145764   1.901   0.573  10.817 -0.4304  2.1881 -0.3473
 8091TIP3    H245765   2.032   0.648  10.805  1.2399 -0.2917  1.3379
 8092TIP3   OH245766   5.295   1.144  16.610 -0.1588  0.1546 -0.5727
 8092TIP3    H145767   5.378   1.099  16.594  0.2773  0.3419  0.9837
 8092TIP3    H245768   5.229   1.075  16.611  0.0674 -0.0737 -1.1313
 8093TIP3   OH245769   1.602   6.040  14.164 -0.6248  0.0633 -0.3468
 8093TIP3    H145770   1.607   6.134  14.182  1.6687 -0.1025  0.2858
 8093TIP3    H245771   1.562   6.003  14.242 -0.3902  0.4043 -0.0601
 8094TIP3   OH245772   2.242   4.912   2.679 -0.4666 -0.8886  0.0978
 8094TIP3    H145773   2.191   4.961   2.743  0.1881 -1.9270  1.4559
 8094TIP3    H245774   2.331   4.946   2.689 -0.4399 -0.7344 -0.6014
 8095TIP3   OH245775   5.131   1.882  15.839  0.3387  0.2387  0.1778
 8095TIP3    H145776   5.204   1.844  15.888  0.4747 -0.9434 -0.9094
 8095TIP3    H245777   5.154   1.870  15.747 -0.6024  1.0819 -0.1838
 8096TIP3   OH245778   2.002   0.569   0.432  0.2737  0.3715 -0.2551
 8096TIP3    H145779   1.994   0.633   0.362 -0.4649 -1.2679 -1.7333
 8096TIP3    H245780   2.094   0.542   0.430  0.1947  0.1362 -0.7817
 8097TIP3   OH245781   2.398   6.649   5.178  0.4261  0.0745  0.3047
 8097TIP3    H145782   2.306   6.658   5.153  0.5848 -1.2102 -0.9462
 8097TIP3    H245783   2.443   6.721   5.134  0.0688  0.4388  0.5440
 8098TIP3   OH245784   1.515   1.188   1.749 -0.2573  0.3872 -0.1184
 8098TIP3    H145785   1.503   1.265   1.694 -1.2922 -0.3951 -1.0329
 8098TIP3    H245786   1.608   1.166   1.739  0.1296  1.6935  0.4348
 8099TIP3   OH245787   5.848   0.232   5.799 -0.0589  0.1178 -0.3278
 8099TIP3    H145788   5.809   0.277   5.724 -0.7418  0.1689  0.0440
 8099TIP3    H245789   5.834   0.292   5.872  1.2614  0.4059 -0.2785
 8100TIP3   OH245790   1.512   2.290  11.434 -0.4904  0.2956  0.5800
 8100TIP3    H145791   1.526   2.346  11.358 -1.4016 -1.0989 -0.6629
 8100TIP3    H245792   1.451   2.340  11.489 -1.7333  0.3313 -0.7695
 8101TIP3   OH245793   4.105   2.592   1.215 -0.6101  0.2189 -0.1314
 8101TIP3    H145794   4.137   2.662   1.272  0.9331  0.7135 -1.5236
 8101TIP3    H245795   4.062   2.639   1.143 -0.0671 -0.2813 -0.7857
 8102TIP3   OH245796   5.004   5.291  16.172 -0.5374  0.2454  0.2055
 8102TIP3    H145797   4.996   5.256  16.260  1.4397 -0.6667  0.0660
 8102TIP3    H245798   4.967   5.223  16.115  1.6011 -0.8779  0.0818
 8103TIP3   OH245799   2.345   5.102   3.638  0.2672  0.0521  0.4964
 8103TIP3    H145800   2.366   5.125   3.547  1.1594  0.0755  0.7027
 8103TIP3    H245801   2.256   5.136   3.651  1.1436  2.5593  0.4950
 8104TIP3   OH245802   3.795   0.755   2.002 -0.0543 -0.3475 -0.1301
 8104TIP3    H145803   3.729   0.817   1.972  0.2477  0.3006  0.5078
 8104TIP3    H245804   3.777   0.742   2.094  0.7984 -0.0242  0.0985
 8105TIP3   OH245805   4.271   5.134   5.401 -0.8886  0.0205 -0.0713
 8105TIP3    H145806   4.315   5.192   5.463 -0.4103  1.0180 -1.2767
 8105TIP3    H245807   4.234   5.064   5.454  3.0367 -1.5462  0.9900
 8106TIP3   OH245808   2.913   3.702   1.038  0.0765  0.4411 -0.1718
 8106TIP3    H145809   2.970   3.776   1.060  3.0500 -1.6478 -0.2520
 8106TIP3    H245810   2.936   3.680   0.947  0.3681 -1.4430  0.3140
 8107TIP3   OH245811   3.477   3.320  12.374 -0.4753 -0.4389  0.1213
 8107TIP3    H145812   3.510   3.276  12.296 -1.1800 -0.1649 -0.3503
 8107TIP3    H245813   3.484   3.255  12.443  1.1734 -0.3339  0.0870
 8108TIP3   OH245814   5.809   1.475   5.685 -0.2180  0.7378  0.2560
 8108TIP3    H145815   5.885   1.532   5.694  0.2543  0.0529  0.6787
 8108TIP3    H245816   5.796   1.437   5.772  0.1665 -0.6552 -0.2599
 8109TIP3   OH245817   4.258   6.688  14.732  0.0725 -0.0805  0.4865
 8109TIP3    H145818   4.172   6.645  14.726 -0.4113  0.6019  1.9860
 8109TIP3    H245819   4.319   6.625  14.695 -1.0941 -0.5007 -0.8279
 8110TIP3   OH245820   4.743   0.892   4.198  0.2774  0.0928 -0.1272
 8110TIP3    H145821   4.826   0.856   4.169  0.9236  0.1439  1.5221
 8110TIP3    H245822   4.715   0.832   4.268 -1.4649 -0.3517 -1.1583
 8111TIP3   OH245823   2.763   1.856   2.988 -0.1248  0.6388  0.2528
 8111TIP3    H145824   2.787   1.764   3.001 -0.4371  0.2740 -1.4615
 8111TIP3    H245825   2.836   1.906   3.025 -0.2471 -0.2747  1.7665
 8112TIP3   OH245826   1.546   0.234  12.488  0.2542 -0.1023  0.4332
 8112TIP3    H145827   1.504   0.148  12.490 -1.3819  0.6714  2.3906
 8112TIP3    H245828   1.628   0.221  12.536  0.0549 -0.5923  0.6539
 8113TIP3   OH245829   2.309   5.373  16.773  0.1009 -0.7013  0.0070
 8113TIP3    H145830   2.296   5.467  16.756  0.6277 -0.5482  0.4319
 8113TIP3    H245831   2.372   5.370  16.844 -1.8869 -1.3440  1.8546
 8114TIP3   OH245832   0.709   1.159  15.509  0.4147  0.3848  0.3698
 8114TIP3    H145833   0.776   1.211  15.467 -1.4892  2.4489 -0.2778
 8114TIP3    H245834   0.631   1.170  15.454 -1.3542  0.7804  2.7741
 8115TIP3   OH245835   5.840   1.383   5.423 -0.1953 -0.2175 -0.2950
 8115TIP3    H145836   5.817   1.392   5.515  1.4108 -0.0305  0.1082
 8115TIP3    H245837   5.920   1.331   5.423  0.7492  1.1690 -1.4751
 8116TIP3   OH245838   2.498   2.610   2.506 -0.0502  0.3873 -0.3502
 8116TIP3    H145839   2.422   2.666   2.521 -0.4864 -0.3698  0.3832
 8116TIP3    H245840   2.570   2.670   2.490 -0.6205  1.1392 -0.1348
 8117TIP3   OH245841   3.634   2.937   5.888 -0.2649  0.2311  0.3179
 8117TIP3    H145842   3.718   2.909   5.852 -2.0815 -2.8148 -2.0186
 8117TIP3    H245843   3.608   3.012   5.835 -0.1176 -0.4078 -0.6749
 8118TIP3   OH245844   2.157   3.018   1.184  0.3818  0.3247 -0.2097
 8118TIP3    H145845   2.243   3.058   1.190 -0.0894  1.2849  0.3247
 8118TIP3    H245846   2.175   2.926   1.165  1.5612  0.3096  0.8153
 8119TIP3   OH245847   4.413   3.253   6.752 -0.0503 -0.0767  0.4039
 8119TIP3    H145848   4.480   3.290   6.810 -1.1485 -0.9767  2.3368
 8119TIP3    H245849   4.422   3.158   6.764 -1.0001 -0.2365 -0.0977
 8120TIP3   OH245850   5.573   0.175  12.494  0.0121  0.6039 -0.5940
 8120TIP3    H145851   5.563   0.126  12.575 -1.7618  0.7500 -0.6826
 8120TIP3    H245852   5.629   0.120  12.439 -0.8692 -0.7238 -0.2108
 8121TIP3   OH245853   4.057   1.546   0.866  0.2225 -0.0929 -0.0367
 8121TIP3    H145854   4.039   1.452   0.858  0.6885 -0.1387 -0.6609
 8121TIP3    H245855   4.076   1.560   0.959  0.2383 -0.6379  0.0419
 8122TIP3   OH245856   5.674   6.335   3.451  0.0035  0.4312 -0.2105
 8122TIP3    H145857   5.587   6.296   3.447 -0.7246  1.4424  2.8382
 8122TIP3    H245858   5.663   6.424   3.416 -0.4459  0.8457  0.9311
 8123TIP3   OH245859   2.193   3.546   2.394 -0.4001  0.5685 -0.3334
 8123TIP3    H145860   2.123   3.524   2.332  0.5701  0.0744 -1.2777
 8123TIP3    H245861   2.247   3.468   2.398 -0.2003  0.7591  0.8079
 8124TIP3   OH245862   1.862   5.250   2.951  0.0957  0.4444  0.3621
 8124TIP3    H145863   1.792   5.187   2.969 -1.9860  2.3194 -0.7479
 8124TIP3    H245864   1.871   5.299   3.033  1.0707 -0.6058  0.9213
 8125TIP3   OH245865   3.078   2.853   0.473 -0.4456  0.5824 -0.1206
 8125TIP3    H145866   3.157   2.906   0.480 -0.0149  0.1841 -1.6421
 8125TIP3    H245867   3.052   2.835   0.563  2.5299 -1.2801  0.4793
 8126TIP3   OH245868   2.335   4.978   0.757 -0.0844  0.3973  0.3085
 8126TIP3    H145869   2.394   5.044   0.722 -1.0720  1.3941  0.4489
 8126TIP3    H245870   2.314   4.922   0.682 -0.5061  1.2352 -0.2203
 8127TIP3   OH245871   2.991   4.096  12.550 -0.8667  0.1864  0.2515
 8127TIP3    H145872   2.910   4.107  12.500 -1.0092 -0.3748  0.3506
 8127TIP3    H245873   2.979   4.150  12.628 -2.0415 -1.4815  1.3125
 8128TIP3   OH245874   3.863   3.585   1.814 -0.7182  0.6339 -0.7966
 8128TIP3    H145875   3.944   3.572   1.765 -0.3998  1.2265 -0.4370
 8128TIP3    H245876   3.876   3.668   1.861 -0.0125 -1.0406  2.2139
 8129TIP3   OH245877   5.187   6.249   0.891 -0.4488  0.0409 -0.3340
 8129TIP3    H145878   5.211   6.166   0.930  0.9207  0.2362 -0.7050
 8129TIP3    H245879   5.108   6.230   0.839 -0.2689 -0.9694 -0.2534
 8130TIP3   OH245880   3.654   2.709  13.301 -0.3316  0.2576  0.1504
 8130TIP3    H145881   3.730   2.653  13.286  0.4858  1.2562  0.4595
 8130TIP3    H245882   3.598   2.694  13.224 -1.5608 -3.1192  1.5072
 8131TIP3   OH245883   3.830   1.236   1.490  0.8683  0.0170  0.8245
 8131TIP3    H145884   3.745   1.240   1.533  0.4337 -1.1834  0.1200
 8131TIP3    H245885   3.891   1.276   1.553 -0.3461  1.7988  0.9309
 8132TIP3   OH245886   2.224   4.183  14.393 -0.0204  0.2264  0.4022
 8132TIP3    H145887   2.247   4.102  14.439 -0.3393 -0.1974 -0.1793
 8132TIP3    H245888   2.145   4.214  14.438  0.3704  0.4813  0.9342
 8133TIP3   OH245889   2.801   5.752   3.294 -0.6196  0.2189  0.0584
 8133TIP3    H145890   2.811   5.717   3.383  0.8391 -0.5627 -0.3801
 8133TIP3    H245891   2.875   5.715   3.246 -0.2078  2.2480 -0.9746
 8134TIP3   OH245892   1.633   4.802   0.638 -0.1627 -0.3446  0.5199
 8134TIP3    H145893   1.552   4.786   0.685 -0.8269  2.2164  0.3622
 8134TIP3    H245894   1.607   4.849   0.559  1.4427  0.4326  0.4105
 8135TIP3   OH245895   4.808   3.362  11.581  0.5232 -0.3288  0.1624
 8135TIP3    H145896   4.829   3.342  11.672 -1.3789 -0.7629  0.5511
 8135TIP3    H245897   4.780   3.453  11.582 -2.0040 -1.0459  0.5408
 8136TIP3   OH245898   0.785   4.587  15.744  0.1279  0.4113 -0.0528
 8136TIP3    H145899   0.731   4.559  15.670  1.2964 -2.5964  0.0980
 8136TIP3    H245900   0.874   4.560  15.720  0.4077 -1.5749  2.7765
 8137TIP3   OH245901   5.532   1.686   4.162 -0.0093  0.7822  0.1148
 8137TIP3    H145902   5.626   1.673   4.153  0.1469  0.6123  1.7404
 8137TIP3    H245903   5.493   1.608   4.122  0.3747  1.9698 -2.8743
 8138TIP3   OH245904   4.619   1.367  15.640  0.5706  0.7325  0.8647
 8138TIP3    H145905   4.603   1.359  15.546 -0.3721  0.6342  1.0297
 8138TIP3    H245906   4.671   1.447  15.649  0.5105  0.8393  0.2819
 8139TIP3   OH245907   6.667   4.603   1.119 -0.3669 -0.5261 -0.5228
 8139TIP3    H145908   6.671   4.526   1.062  0.9630  0.3178 -1.6086
 8139TIP3    H245909   6.640   4.674   1.061 -2.6011 -0.3113  0.6751
 8140TIP3   OH245910   1.145   0.092   4.971 -0.2040 -0.1844  0.4906
 8140TIP3    H145911   1.056   0.106   5.002 -0.4365 -0.8265  0.1331
 8140TIP3    H245912   1.193   0.063   5.048 -0.3881 -0.1795  0.6070
 8141TIP3   OH245913   6.696   2.256  13.578 -0.2162 -0.2814 -0.6736
 8141TIP3    H145914   6.680   2.316  13.506  0.2455 -0.6006 -1.0400
 8141TIP3    H245915   6.611   2.251  13.624  0.1231  1.8506  0.3023
 8142TIP3   OH245916   1.994   0.297   3.813 -0.3649 -0.2277  0.3053
 8142TIP3    H145917   2.039   0.271   3.732 -0.2558  0.2244  0.2204
 8142TIP3    H245918   1.989   0.392   3.808  0.8974 -0.0790  1.5053
 8143TIP3   OH245919   0.249   5.531  16.885 -0.1909 -0.1124 -0.6677
 8143TIP3    H145920   0.191   5.486  16.946  1.6201  0.3189  1.4948
 8143TIP3    H245921   0.298   5.593  16.939  3.4876 -1.5763 -1.9623
 8144TIP3   OH245922   2.430   5.553  16.259 -0.3039 -0.5316  0.1427
 8144TIP3    H145923   2.497   5.572  16.324 -0.7809 -1.6279  0.9808
 8144TIP3    H245924   2.407   5.639  16.223  0.6515 -0.0120  0.7142
 8145TIP3   OH245925   5.671   4.379  16.653 -0.4271 -0.0329  0.2834
 8145TIP3    H145926   5.735   4.406  16.587 -0.5882 -3.3029 -1.4461
 8145TIP3    H245927   5.586   4.389  16.610 -0.5885 -1.4163  0.2086
 8146TIP3   OH245928   2.987   5.070  11.366  0.0930  0.0838 -0.1716
 8146TIP3    H145929   3.049   5.141  11.347  0.2818 -0.0398 -0.0243
 8146TIP3    H245930   2.989   5.062  11.461 -1.1823  1.0007 -0.0449
 8147TIP3   OH245931   0.761   0.893   0.643  0.0753  0.2238  0.6580
 8147TIP3    H145932   0.807   0.832   0.700  0.2186  0.6246  0.9788
 8147TIP3    H245933   0.773   0.978   0.684 -0.9875  0.3356  0.7642
 8148TIP3   OH245934   5.521   0.199   1.920 -0.0566 -0.5538  0.3802
 8148TIP3    H145935   5.607   0.209   1.960 -0.4329  1.1908  0.8104
 8148TIP3    H245936   5.499   0.106   1.933  1.1525 -0.7088  1.4813
 8149TIP3   OH245937   1.406   5.781  15.983  0.3430 -0.6048 -0.0881
 8149TIP3    H145938   1.313   5.799  16.000  0.4519  0.4534 -0.5209
 8149TIP3    H245939   1.453   5.829  16.051  0.6049 -0.2634 -0.5034
 8150TIP3   OH245940   2.042   1.800   0.793 -0.4425  1.1261  0.0940
 8150TIP3    H145941   2.126   1.792   0.838  0.1134 -0.1552 -1.0824
 8150TIP3    H245942   2.030   1.715   0.751 -3.0674  0.7230  1.4399
 8151TIP3   OH245943   3.640   4.945  11.267 -0.4513 -0.0724  0.4021
 8151TIP3    H145944   3.609   4.931  11.177  0.8702 -0.5713 -0.0146
 8151TIP3    H245945   3.656   4.857  11.300  0.3878  0.1429  0.6117
 8152TIP3   OH245946   1.590   0.223   1.593  0.1839  0.3222  0.0078
 8152TIP3    H145947   1.530   0.190   1.661  0.0199 -2.6525 -1.4213
 8152TIP3    H245948   1.570   0.317   1.587 -1.3606  0.2518  2.4582
 8153TIP3   OH245949   6.772   0.827   4.314 -0.0700  0.3047  0.0418
 8153TIP3    H145950   6.678   0.826   4.293 -0.1156  1.5673  0.1361
 8153TIP3    H245951   6.800   0.737   4.299 -0.9197  0.2866 -1.7234
 8154TIP3   OH245952   5.148   3.637  14.907 -0.3671 -0.5766 -0.2595
 8154TIP3    H145953   5.070   3.674  14.866 -0.8222 -1.5863 -0.3310
 8154TIP3    H245954   5.138   3.659  15.000  0.7434  1.8431 -0.6487
 8155TIP3   OH245955   3.257   3.650   4.273  0.5753  0.2928  0.5407
 8155TIP3    H145956   3.248   3.582   4.340  3.1192 -1.0070 -0.2891
 8155TIP3    H245957   3.331   3.703   4.302 -0.2872  1.6823  0.2925
 8156TIP3   OH245958   1.795   4.446  12.169 -0.5093 -0.3006 -0.5486
 8156TIP3    H145959   1.706   4.417  12.152  0.0758 -2.0376 -0.8120
 8156TIP3    H245960   1.786   4.510  12.240 -1.8110 -1.7465  0.6567
 8157TIP3   OH245961   1.001   0.033   5.506  0.4238  0.0288  0.2412
 8157TIP3    H145962   0.995   0.119   5.547 -1.9288 -0.3712  0.8959
 8157TIP3    H245963   0.955  -0.025   5.566 -1.7522 -0.8846 -2.1286
 8158TIP3   OH245964   6.666   2.971   5.253  0.5909  0.0963 -0.2718
 8158TIP3    H145965   6.712   2.933   5.178 -0.3560  1.0813 -1.3807
 8158TIP3    H245966   6.722   3.043   5.282  1.5665 -1.0427  0.7864
 8159TIP3   OH245967   0.764   4.229  14.142 -0.1355  0.0809  0.3142
 8159TIP3    H145968   0.707   4.198  14.072 -0.4915 -0.3171  0.7703
 8159TIP3    H245969   0.845   4.253  14.098 -0.0176 -1.0510 -0.1241
 8160TIP3   OH245970   2.270   1.889   5.607 -0.1983  0.0445  0.0936
 8160TIP3    H145971   2.290   1.858   5.695  1.8679 -0.7050 -0.5788
 8160TIP3    H245972   2.184   1.851   5.587 -0.6061  0.0698  1.6816
 8161TIP3   OH245973   5.089   6.709  13.039 -0.2677 -0.2586  0.2424
 8161TIP3    H145974   5.024   6.673  12.979 -0.2375  0.4510 -0.2246
 8161TIP3    H245975   5.087   6.803  13.022 -2.1245  0.3435  3.1673
 8162TIP3   OH245976   0.047   2.774  11.975  0.0574 -0.1972 -0.6201
 8162TIP3    H145977  -0.030   2.826  11.996  0.1844 -0.4352  0.4803
 8162TIP3    H245978   0.104   2.834  11.926  0.3247  0.8198  0.8629
 8163TIP3   OH245979   3.488   4.513   0.236 -0.3393  0.1204 -0.4093
 8163TIP3    H145980   3.444   4.580   0.183  0.6756  1.5621  0.4778
 8163TIP3    H245981   3.419   4.453   0.262 -0.9575 -0.3443 -2.9031
 8164TIP3   OH245982   2.797   3.418   5.468  1.0264 -0.6511  0.0801
 8164TIP3    H145983   2.848   3.375   5.400 -0.6916 -1.9009 -0.4857
 8164TIP3    H245984   2.726   3.463   5.422  0.8270 -0.0751  0.9144
 8165TIP3   OH245985   3.245   1.409  16.143  0.8432 -0.2142  0.1982
 8165TIP3    H145986   3.288   1.398  16.059 -0.3440  2.1426 -0.7962
 8165TIP3    H245987   3.180   1.338  16.146  0.1856  0.2889 -1.3531
 8166TIP3   OH245988   1.356   5.797  16.719 -0.2730 -0.4275  0.1326
 8166TIP3    H145989   1.329   5.885  16.745 -1.4927  0.1745 -2.7209
 8166TIP3    H245990   1.451   5.803  16.708 -0.4148  0.7912 -0.7054
 8167TIP3   OH245991   6.788   4.800  10.680 -0.0517 -0.0323  0.6868
 8167TIP3    H145992   6.695   4.786  10.699 -0.4784  1.5183 -0.0790
 8167TIP3    H245993   6.815   4.867  10.743 -0.0421  1.1000 -0.4862
 8168TIP3   OH245994   2.141   0.044   5.101 -0.2067 -0.4929  0.1841
 8168TIP3    H145995   2.134   0.038   5.197  0.0242  0.2091  0.2531
 8168TIP3    H245996   2.065   0.095   5.074  0.1318 -0.0317  0.0796
 8169TIP3   OH245997   4.385   4.160   6.619  0.1093 -0.4044  0.6961
 8169TIP3    H145998   4.434   4.085   6.584  0.4831  0.5799 -1.0096
 8169TIP3    H245999   4.435   4.188   6.695  2.2836  0.5428 -0.9714
 8170TIP3   OH246000   4.864   4.083   3.238  0.1003  0.0148  0.1066
 8170TIP3    H146001   4.836   4.008   3.291 -0.5868  0.5652  0.5471
 8170TIP3    H246002   4.959   4.080   3.241  0.0794  0.0588  1.4441
 8171TIP3   OH246003   3.731   3.862  15.275 -0.4662 -0.2827 -0.1251
 8171TIP3    H146004   3.710   3.773  15.303  0.5392 -0.5218 -0.0846
 8171TIP3    H246005   3.819   3.855  15.238 -0.2733  0.7384  0.1067
 8172TIP3   OH246006   0.653   1.695  12.711  0.1051 -0.0069 -0.6158
 8172TIP3    H146007   0.665   1.666  12.802 -1.5261  1.0650 -0.0107
 8172TIP3    H246008   0.597   1.628  12.672 -0.9255  0.5899 -0.1939
 8173TIP3   OH246009   1.209   5.483  12.353 -0.6886 -0.1391 -0.4136
 8173TIP3    H146010   1.180   5.450  12.268  1.6122 -0.7558 -1.0474
 8173TIP3    H246011   1.287   5.431  12.373 -0.0357  1.3376  1.1126
 8174TIP3   OH246012   4.122   3.725   3.078 -0.6504 -0.1980 -0.5818
 8174TIP3    H146013   4.168   3.785   3.137 -0.5312  1.2002 -2.0222
 8174TIP3    H246014   4.130   3.640   3.119  0.6664  0.4972  0.6926
 8175TIP3   OH246015   6.784   0.746   6.173 -0.3295  0.3476  0.1452
 8175TIP3    H146016   6.705   0.702   6.204 -0.2058  1.2777  1.8946
 8175TIP3    H246017   6.780   0.833   6.212  2.9297 -0.4458  2.7215
 8176TIP3   OH246018   4.031   1.880   5.447  0.2154 -0.1506  0.4616
 8176TIP3    H146019   4.052   1.967   5.412  0.0117  0.7405  2.4332
 8176TIP3    H246020   3.991   1.834   5.373  2.9403  0.3776 -1.4791
 8177TIP3   OH246021   1.701   0.762   1.796 -0.0712 -0.5349 -0.2307
 8177TIP3    H146022   1.772   0.710   1.760  0.6357  0.5142 -0.4149
 8177TIP3    H246023   1.733   0.852   1.794 -1.1987 -0.0907  0.1880
 8178TIP3   OH246024   1.186   6.536   0.873 -0.3384 -0.1941  0.7183
 8178TIP3    H146025   1.143   6.614   0.907  0.3018  0.7400 -0.5417
 8178TIP3    H246026   1.274   6.565   0.850  0.3805 -1.6284  1.5019
 8179TIP3   OH246027   4.177   4.001   1.964 -0.0358  0.2573  0.2129
 8179TIP3    H146028   4.248   4.030   1.906 -0.7580  1.2800 -0.1741
 8179TIP3    H246029   4.223   3.962   2.039  0.9735  1.3921  0.2316
 8180TIP3   OH246030   1.078   6.641   1.273  0.3898  0.2899 -0.2364
 8180TIP3    H146031   1.170   6.641   1.247  0.7658  0.3245  0.9839
 8180TIP3    H246032   1.081   6.650   1.369 -0.8232 -1.3944  0.0148
 8181TIP3   OH246033   6.273   5.453   3.919 -0.4665 -0.1079 -0.9682
 8181TIP3    H146034   6.316   5.393   3.981 -0.7842 -1.1408 -1.7151
 8181TIP3    H246035   6.332   5.528   3.913  0.8226 -1.1075 -1.3054
 8182TIP3   OH246036   1.967   1.378   5.164  0.2846 -0.2013 -0.1634
 8182TIP3    H146037   1.958   1.289   5.131  1.1281 -0.3731  0.0375
 8182TIP3    H246038   2.034   1.371   5.233  0.7088  0.6625 -0.4766
 8183TIP3   OH246039   6.263   4.857  11.633  0.0259 -0.3448 -0.6426
 8183TIP3    H146040   6.172   4.851  11.605  0.1840 -0.4132 -1.1520
 8183TIP3    H246041   6.275   4.949  11.656  0.3184  0.0842 -2.3437
 8184TIP3   OH246042   6.295   2.705   3.974 -0.6669 -0.0785  0.2447
 8184TIP3    H146043   6.371   2.750   4.011 -1.6153  0.5888  1.4714
 8184TIP3    H246044   6.268   2.761   3.901  0.4791 -0.7556 -0.7382
 8185TIP3   OH246045   0.076   5.091  12.172  0.0365  1.6035 -0.1108
 8185TIP3    H146046   0.049   5.169  12.123  1.2778  0.8011 -2.1987
 8185TIP3    H246047  -0.004   5.038  12.178 -0.0621  1.5501 -1.6452
 8186TIP3   OH246048   6.801   0.950  16.639  0.0802 -0.1072 -0.1480
 8186TIP3    H146049   6.864   1.006  16.684 -3.1972  2.4936  1.6446
 8186TIP3    H246050   6.765   1.005  16.569 -2.2857 -0.3304  0.8010
 8187TIP3   OH246051   0.361   2.438   5.120 -0.1573 -0.2057  0.0426
 8187TIP3    H146052   0.389   2.369   5.180 -1.5788 -0.3982  0.5152
 8187TIP3    H246053   0.318   2.503   5.176  1.1324  1.0719 -0.3955
 8188TIP3   OH246054   5.118   2.985   0.056 -0.6495  0.1555 -0.5384
 8188TIP3    H146055   5.106   2.957  -0.035  1.4160 -1.1484 -0.4776
 8188TIP3    H246056   5.073   2.918   0.108  0.3313 -0.5256 -0.5449
 8189TIP3   OH246057   5.242   4.239  16.963  0.5022  0.3634  0.4958
 8189TIP3    H146058   5.296   4.161  16.966  0.3676  0.1713 -1.3010
 8189TIP3    H246059   5.297   4.305  16.921  0.1548  0.8544  0.7947
 8190TIP3   OH246060   5.276   2.863   0.962  0.0947  0.6514  0.5693
 8190TIP3    H146061   5.270   2.823   0.875  0.3949 -0.9461  1.2456
 8190TIP3    H246062   5.186   2.861   0.995 -0.1453  1.8973  0.0577
 8191TIP3   OH246063   6.065   2.213  14.356 -0.0748  0.3120 -0.0284
 8191TIP3    H146064   6.134   2.217  14.423 -0.3367  2.1477  0.1893
 8191TIP3    H246065   6.000   2.153  14.392 -0.0517  1.0147  1.2273
 8192TIP3   OH246066   5.997   0.435   4.070 -0.6918  0.5265 -0.3522
 8192TIP3    H146067   5.974   0.390   4.151  2.5686 -2.2850 -0.7640
 8192TIP3    H246068   5.987   0.528   4.089 -2.5840 -0.1212  2.3337
 8193TIP3   OH246069   4.265   2.034   3.365 -0.2973 -0.8847  0.4558
 8193TIP3    H146070   4.225   1.959   3.408  0.7845 -0.8124  1.6646
 8193TIP3    H246071   4.349   2.045   3.410  0.4891 -0.2367 -1.1039
 8194TIP3   OH246072   1.263   0.203   5.234  0.0671  0.1480  0.6391
 8194TIP3    H146073   1.347   0.247   5.233  0.0117  0.2512  0.5172
 8194TIP3    H246074   1.280   0.119   5.276  0.4054 -0.1895 -0.1665
 8195TIP3   OH246075   5.464   3.628  15.664  0.2344  0.5220  0.2054
 8195TIP3    H146076   5.460   3.598  15.755  0.4618  1.8030  0.6496
 8195TIP3    H246077   5.412   3.564  15.616 -0.6269  0.3151  1.3740
 8196TIP3   OH246078   3.839   1.913  12.163  0.0517  0.2653 -0.0216
 8196TIP3    H146079   3.925   1.919  12.123 -0.4624 -0.9633 -1.3959
 8196TIP3    H246080   3.794   1.994  12.136 -0.7443 -1.0945 -3.2112
 8197TIP3   OH246081   0.985   6.651   1.712 -0.6971  0.2041  0.8457
 8197TIP3    H146082   0.924   6.589   1.752 -0.4099 -0.2909  0.5393
 8197TIP3    H246083   0.940   6.735   1.715 -1.9493 -0.3710 -0.5347
 8198TIP3   OH246084   6.449   2.560   1.563 -0.2443  0.3068 -0.1331
 8198TIP3    H146085   6.529   2.561   1.510 -0.7073  0.9173 -0.8506
 8198TIP3    H246086   6.420   2.469   1.561  0.0258  0.2228 -0.5039
 8199TIP3   OH246087   3.868   2.045  16.731 -0.1945  0.0858 -0.0627
 8199TIP3    H146088   3.791   2.022  16.782  0.1112 -1.9563 -0.4368
 8199TIP3    H246089   3.919   1.964  16.727  1.8346  1.2930 -0.0839
 8200TIP3   OH246090   4.184   4.146  16.048  0.1468 -0.1204 -0.0537
 8200TIP3    H146091   4.171   4.052  16.035  1.1445 -0.0250 -2.2614
 8200TIP3    H246092   4.160   4.186  15.964 -2.6175  1.9442  1.5361
 8201TIP3   OH246093   2.067   3.318  16.277 -0.4000 -0.4667 -0.3936
 8201TIP3    H146094   2.100   3.236  16.241 -1.9984 -1.0392 -0.6234
 8201TIP3    H246095   2.140   3.380  16.266  0.5956 -1.6757 -0.8077
 8202TIP3   OH246096   5.938   6.413  15.475  0.5177  0.4500 -0.5269
 8202TIP3    H146097   5.844   6.428  15.474  0.4575  0.2386  0.7236
 8202TIP3    H246098   5.948   6.318  15.472  0.5546  0.2722  2.1813
 8203TIP3   OH246099   6.588   3.900   3.069  0.4530  0.2312 -0.6357
 8203TIP3    H146100   6.587   3.914   3.164  2.0862  0.1140 -0.5796
 8203TIP3    H246101   6.590   3.988   3.031 -1.6402  0.3274 -0.6392
 8204TIP3   OH246102   0.252   1.295   4.094  0.3752  0.2921 -0.3503
 8204TIP3    H146103   0.328   1.337   4.133 -1.0484  0.4787  2.4819
 8204TIP3    H246104   0.178   1.350   4.119 -1.1158 -1.8478  0.2778
 8205TIP3   OH246105   4.146   4.186   6.512 -0.6551 -0.1621  0.0044
 8205TIP3    H146106   4.099   4.222   6.586 -0.2460 -1.6912  1.0527
 8205TIP3    H246107   4.237   4.182   6.540 -0.3930 -0.1967 -0.8086
 8206TIP3   OH246108   5.072   1.071   3.614  0.4046 -0.8324 -0.2158
 8206TIP3    H146109   5.067   1.165   3.597 -2.0264 -1.0385 -0.9592
 8206TIP3    H246110   5.098   1.065   3.706 -0.7334  0.6082  0.2348
 8207TIP3   OH246111   6.422   6.207  11.151  0.1742  0.8589  0.3936
 8207TIP3    H146112   6.495   6.166  11.105 -0.0340 -0.3130  1.0612
 8207TIP3    H246113   6.454   6.220  11.240  0.1255  1.9024  0.2776
 8208TIP3   OH246114   3.117   2.688   1.975  0.3219 -0.6003  0.0800
 8208TIP3    H146115   3.131   2.614   1.915 -0.2131 -0.0815 -0.7091
 8208TIP3    H246116   3.085   2.758   1.918 -0.4766 -0.1838  1.0212
 8209TIP3   OH246117   1.563   6.021   5.163 -0.1951 -0.2174 -0.2084
 8209TIP3    H146118   1.657   6.037   5.170 -0.1475 -0.5059 -0.1898
 8209TIP3    H246119   1.524   6.109   5.165  0.2011  0.0731 -2.3517
 8210TIP3   OH246120   2.955   6.322  14.524 -0.6693  0.3656 -0.2395
 8210TIP3    H146121   2.950   6.269  14.604 -1.9558  0.7731 -0.0292
 8210TIP3    H246122   3.049   6.336  14.510 -0.4424  1.5303  2.0382
 8211TIP3   OH246123   0.460   6.573   0.647  0.3228 -0.2612 -0.3018
 8211TIP3    H146124   0.486   6.661   0.674 -0.9551 -0.1519  0.6491
 8211TIP3    H246125   0.423   6.533   0.726  1.3116 -1.8367 -0.5934
 8212TIP3   OH246126   2.721   5.089   3.409 -0.4135 -0.0635  0.0663
 8212TIP3    H146127   2.652   5.140   3.368 -1.2576 -2.0651 -1.1510
 8212TIP3    H246128   2.755   5.033   3.339  1.3829 -0.2305  1.0148
 8213TIP3   OH246129   0.052   2.119   5.783  0.3366  0.4771 -0.0387
 8213TIP3    H146130  -0.010   2.121   5.711  0.1803 -0.0807  0.0719
 8213TIP3    H246131   0.095   2.204   5.781 -0.6083  0.9725  0.0358
 8214TIP3   OH246132   5.215   6.771  12.688 -0.4516 -0.3483  0.4536
 8214TIP3    H146133   5.263   6.792  12.608  0.2555 -0.1445  0.9251
 8214TIP3    H246134   5.264   6.815  12.758 -1.3954 -0.0281  0.9328
 8215TIP3   OH246135   6.359   4.931   1.214  0.6996 -0.4187 -0.3260
 8215TIP3    H146136   6.299   4.881   1.269  0.0964  0.1729 -0.4333
 8215TIP3    H246137   6.322   4.924   1.126  0.6548  0.1443 -0.3544
 8216TIP3   OH246138   2.693   4.090  17.150  0.5793 -0.8522 -0.1806
 8216TIP3    H146139   2.625   4.108  17.214  1.3877  1.2328  0.1711
 8216TIP3    H246140   2.702   3.994  17.150 -1.3895 -1.0825  0.7130
 8217TIP3   OH246141   5.026   2.468  12.627  0.3024 -0.2318  0.2961
 8217TIP3    H146142   4.993   2.386  12.591 -1.2751  0.8172 -0.8239
 8217TIP3    H246143   5.037   2.451  12.720  0.1934 -1.7605  0.0517
 8218TIP3   OH246144   1.249   1.925  13.058  0.1863  0.7891 -0.5866
 8218TIP3    H146145   1.222   1.850  13.113  1.2889  0.0486 -1.0164
 8218TIP3    H246146   1.311   1.973  13.113 -0.5158  1.4117 -0.3141
 8219TIP3   OH246147   4.408   3.277   4.537 -0.3042 -0.3431  0.2294
 8219TIP3    H146148   4.396   3.355   4.484 -0.4441 -0.5261 -0.0135
 8219TIP3    H246149   4.326   3.267   4.585 -0.6416 -0.8649 -0.4484
 8220TIP3   OH246150   1.353   2.360  13.208 -0.0553 -0.1022 -0.1572
 8220TIP3    H146151   1.369   2.359  13.113  3.4509  2.3416  0.2248
 8220TIP3    H246152   1.316   2.446  13.225  3.8950  1.5919  1.0334
 8221TIP3   OH246153   3.325   4.768   4.270  0.1635 -0.2822 -0.3866
 8221TIP3    H146154   3.270   4.717   4.211 -0.8640 -1.4320  1.4744
 8221TIP3    H246155   3.389   4.705   4.304  0.2262  0.1547  0.3390
 8222TIP3   OH246156   2.262   0.779   1.449 -0.5753  0.2834  0.6430
 8222TIP3    H146157   2.320   0.735   1.386 -1.2343  0.6394 -0.2336
 8222TIP3    H246158   2.181   0.793   1.400 -1.4088 -0.1996  1.8441
 8223TIP3   OH246159   6.663   2.196  17.133  0.2040 -0.2650  0.3427
 8223TIP3    H146160   6.611   2.273  17.108  1.6364  0.9964  1.0896
 8223TIP3    H246161   6.662   2.196  17.228 -0.0849 -1.4175  0.3546
 8224TIP3   OH246162   4.548   3.214  15.166  0.3999 -0.2077 -0.0913
 8224TIP3    H146163   4.494   3.261  15.229  0.8361 -0.9493  0.8755
 8224TIP3    H246164   4.596   3.150  15.219  0.8174 -0.8254 -1.1800
 8225TIP3   OH246165   0.837   5.999  15.264  0.0705 -0.2998  0.4220
 8225TIP3    H146166   0.886   5.971  15.186  0.3417  0.7048  0.2124
 8225TIP3    H246167   0.754   5.953  15.258  0.1426 -0.3431 -0.3977
 8226TIP3   OH246168   1.123   5.256   4.735 -0.1440  0.2974 -0.5893
 8226TIP3    H146169   1.118   5.177   4.789  1.9651  0.2166 -0.3949
 8226TIP3    H246170   1.072   5.321   4.781  1.1254  0.0638  1.2329
 8227TIP3   OH246171   6.612   6.441   4.501  0.1481  0.0577 -0.1457
 8227TIP3    H146172   6.677   6.372   4.491  0.8897  0.8500 -0.9863
 8227TIP3    H246173   6.558   6.436   4.423 -0.9542 -0.7184  0.6368
 8228TIP3   OH246174   4.116   4.966   1.317 -0.0447  0.0727  0.2672
 8228TIP3    H146175   4.178   4.893   1.324 -0.2098 -0.0081  1.0004
 8228TIP3    H246176   4.041   4.929   1.270  1.5360  0.9178 -3.1588
 8229TIP3   OH246177   2.726   2.534   4.959 -1.0444 -0.2848 -0.1985
 8229TIP3    H146178   2.745   2.564   4.870 -1.2810  0.0300 -0.1457
 8229TIP3    H246179   2.736   2.439   4.954 -0.8458 -0.2516 -0.5085
 8230TIP3   OH246180   6.211   5.220   6.461  1.0490  0.3560 -0.1123
 8230TIP3    H146181   6.140   5.158   6.446 -0.5863  2.3499 -1.0331
 8230TIP3    H246182   6.291   5.168   6.452 -0.2418 -2.0716  1.4928
 8231TIP3   OH246183   4.339   2.785   0.379 -0.2127 -0.8609 -0.1005
 8231TIP3    H146184   4.286   2.832   0.444  1.0163  1.6346 -0.8117
 8231TIP3    H246185   4.306   2.815   0.295  0.5711 -1.3626 -0.5945
 8232TIP3   OH246186   6.603   4.152   4.994 -0.2511  0.3947  0.5189
 8232TIP3    H146187   6.598   4.229   5.051 -0.5403 -0.5905  1.8793
 8232TIP3    H246188   6.533   4.165   4.930 -0.6866  0.9749  1.0964
 8233TIP3   OH246189   0.138   0.018   5.528 -0.0837  0.5592 -0.4500
 8233TIP3    H146190   0.172  -0.015   5.611  0.1912  0.3495 -0.6475
 8233TIP3    H246191   0.123   0.112   5.545  0.3923  0.6121 -0.2970
 8234TIP3   OH246192   4.627   6.079   3.802  0.1275  0.4996 -0.6889
 8234TIP3    H146193   4.680   6.103   3.878 -0.2595 -0.1765 -0.1963
 8234TIP3    H246194   4.636   5.984   3.795 -0.0977  0.5186 -1.2949
 8235TIP3   OH246195   2.062   1.987  17.042 -0.2786 -0.2125  0.0083
 8235TIP3    H146196   1.979   2.031  17.026  0.6217  1.1770 -1.0045
 8235TIP3    H246197   2.060   1.910  16.985 -1.1605 -0.5940  0.5421
 8236TIP3   OH246198   3.934   1.979  14.425 -0.0938 -0.1348 -0.4563
 8236TIP3    H146199   3.839   1.975  14.415 -0.1673  0.9753 -0.3029
 8236TIP3    H246200   3.963   1.888  14.417 -0.9821 -0.3003 -2.3433
 8237TIP3   OH246201   4.590   2.052   4.400  0.0040 -0.2771 -0.2161
 8237TIP3    H146202   4.515   2.100   4.365 -0.9394 -2.0085 -0.6529
 8237TIP3    H246203   4.554   1.969   4.431  1.4607 -0.4137  1.2631
 8238TIP3   OH246204   1.045   3.032   0.089  0.2786  0.4178 -0.3756
 8238TIP3    H146205   1.001   3.103   0.136  1.5358  0.7865  0.2904
 8238TIP3    H246206   1.131   3.025   0.132 -0.1314 -2.1007  0.1768
 8239TIP3   OH246207   0.392   1.375   3.139 -0.3038  0.0071  0.7328
 8239TIP3    H146208   0.332   1.446   3.118 -1.1387 -0.9474 -0.2467
 8239TIP3    H246209   0.347   1.325   3.207 -0.7156 -0.7878 -0.0986
 8240TIP3   OH246210   1.099   4.210   1.901 -0.2633 -0.2477 -0.6267
 8240TIP3    H146211   1.059   4.222   1.987 -0.6317  0.5702 -0.9081
 8240TIP3    H246212   1.052   4.135   1.863 -0.9627  0.1852 -0.6249
 8241TIP3   OH246213   0.999   0.941   5.585 -0.5588  0.0506 -0.7197
 8241TIP3    H146214   0.909   0.953   5.615  0.0711  1.2377  0.9207
 8241TIP3    H246215   1.045   0.909   5.663  1.1375  3.0568 -0.3344
 8242TIP3   OH246216   1.648   4.119   0.284 -0.5544  0.7680 -0.1571
 8242TIP3    H146217   1.677   4.115   0.376 -0.7520  1.6284 -0.0479
 8242TIP3    H246218   1.603   4.203   0.277 -0.1183  0.9336 -1.1661
 8243TIP3   OH246219   1.700   4.894  11.128  0.4464 -0.5142 -0.0716
 8243TIP3    H146220   1.645   4.940  11.066 -0.8401 -0.7723  0.8478
 8243TIP3    H246221   1.786   4.888  11.085 -0.2341 -0.1087 -1.5194
 8244TIP3   OH246222   2.899   3.614  13.659  0.0039  0.4435  0.1658
 8244TIP3    H146223   2.871   3.524  13.674  0.5739 -0.1729 -2.0601
 8244TIP3    H246224   2.828   3.667  13.695 -0.1475 -0.8378  1.9166
 8245TIP3   OH246225   0.156   5.864   4.176 -0.1563 -0.0044  0.2022
 8245TIP3    H146226   0.219   5.901   4.115  0.6366  0.2637  1.1739
 8245TIP3    H246227   0.097   5.936   4.197  0.3245  0.2446  0.7175
 8246TIP3   OH246228   0.035   6.315  13.631  0.0433 -0.3909 -0.6433
 8246TIP3    H146229  -0.024   6.383  13.599  0.4791  0.2852 -0.0598
 8246TIP3    H246230  -0.014   6.234  13.622  0.3632 -0.3535 -3.5756
 8247TIP3   OH246231   2.290   0.241  10.706 -0.3045 -0.5361  0.1149
 8247TIP3    H146232   2.310   0.300  10.633  0.0510 -1.5880 -0.6727
 8247TIP3    H246233   2.213   0.192  10.676 -1.0171 -0.0102  1.0450
 8248TIP3   OH246234   5.294   0.787  13.813 -0.2500  0.0919 -0.2354
 8248TIP3    H146235   5.215   0.809  13.763 -0.5486 -0.3325  0.0450
 8248TIP3    H246236   5.293   0.849  13.886 -0.0231  0.4511 -0.5284
 8249TIP3   OH246237   0.412   0.027  16.811 -0.4282 -0.1611  0.3139
 8249TIP3    H146238   0.469  -0.013  16.746  2.8151  1.0189  2.1674
 8249TIP3    H246239   0.387   0.111  16.772  1.2029  0.3896  0.3748
 8250TIP3   OH246240   0.918   4.978  17.022 -0.1954 -0.2936  0.7498
 8250TIP3    H146241   0.876   4.980  16.936  0.8036 -1.9252  0.1757
 8250TIP3    H246242   0.988   5.043  17.016 -0.7783  0.3284  0.6846
 8251TIP3   OH246243   4.431   5.673   0.421 -0.1113  0.3246  0.3524
 8251TIP3    H146244   4.402   5.718   0.501  0.5819  1.8277 -0.1930
 8251TIP3    H246245   4.462   5.588   0.451 -1.0773  0.3384  1.4951
 8252TIP3   OH246246   1.248   3.356  16.049 -0.4544  0.9108  0.1035
 8252TIP3    H146247   1.341   3.335  16.054 -0.6054  0.0037 -0.5655
 8252TIP3    H246248   1.204   3.283  16.093 -0.8965  0.7876 -0.5178
 8253TIP3   OH246249   2.032   4.539   6.177  0.8363 -0.2236  0.3811
 8253TIP3    H146250   2.084   4.525   6.256 -0.0217  0.3404  1.0511
 8253TIP3    H246251   1.953   4.485   6.190  0.5179  0.1633  0.0794
 8254TIP3   OH246252   6.230   4.194   4.157  0.0450 -0.2922 -0.3141
 8254TIP3    H146253   6.254   4.263   4.095 -1.4500  0.3090 -0.2796
 8254TIP3    H246254   6.242   4.112   4.108 -0.8088  0.1551 -1.3152
 8255TIP3   OH246255   2.149   1.726  11.789  0.3591 -0.3192 -0.8316
 8255TIP3    H146256   2.190   1.650  11.748  0.4882  0.2776 -1.8577
 8255TIP3    H246257   2.059   1.700  11.804  0.7082 -1.0948 -0.0362
 8256TIP3   OH246258   6.124   2.921   5.739 -0.3549  0.2965  0.4403
 8256TIP3    H146259   6.127   2.832   5.703  0.2478  0.3234  0.4213
 8256TIP3    H246260   6.084   2.911   5.825 -0.2867  0.0098  0.4393
 8257TIP3   OH246261   2.863   5.912   4.284 -0.1445  0.1682  0.5259
 8257TIP3    H146262   2.771   5.896   4.306 -0.5452  2.2754  0.6497
 8257TIP3    H246263   2.900   5.825   4.268 -2.0297 -0.7628  0.9501
 8258TIP3   OH246264   0.543   4.823  17.095 -0.0826  0.1523  0.0021
 8258TIP3    H146265   0.481   4.849  17.028  1.0827  1.6915 -0.5369
 8258TIP3    H246266   0.582   4.905  17.125  1.2136 -0.7064  0.7715
 8259TIP3   OH246267   2.880   1.626   1.580  0.0564 -0.1564  0.5293
 8259TIP3    H146268   2.846   1.537   1.573 -1.6172  0.4164  0.8425
 8259TIP3    H246269   2.802   1.681   1.578  1.1032  1.3565 -0.4539
 8260TIP3   OH246270   6.344   6.288  16.345  0.4006 -0.1191  0.2113
 8260TIP3    H146271   6.401   6.252  16.277 -0.8418 -0.5195 -0.6469
 8260TIP3    H246272   6.335   6.216  16.408  0.9611  0.0065  0.4482
 8261TIP3   OH246273   5.964   3.794  13.832  0.1434  0.0683  0.7119
 8261TIP3    H146274   5.911   3.796  13.752  0.3227  1.8736  0.6081
 8261TIP3    H246275   6.041   3.847  13.811  0.5662 -0.0853  1.8308
 8262TIP3   OH246276   5.239   2.601   2.963 -0.0856 -0.0613  0.6107
 8262TIP3    H146277   5.318   2.656   2.961  0.0891 -0.3182  0.4446
 8262TIP3    H246278   5.272   2.511   2.955 -0.5504 -0.0701 -3.0039
 8263TIP3   OH246279   2.781   1.304  15.602 -0.5213  0.3103 -0.5487
 8263TIP3    H146280   2.781   1.393  15.569 -0.0323  0.0432 -1.2990
 8263TIP3    H246281   2.819   1.252  15.531 -0.1373 -0.3908  0.1534
 8264TIP3   OH246282   1.308   5.893   5.401 -0.1993  0.4714  0.2725
 8264TIP3    H146283   1.387   5.910   5.451 -0.4659  0.4994  0.6916
 8264TIP3    H246284   1.336   5.892   5.310  0.4366 -0.3811  0.4707
 8265TIP3   OH246285   2.153   6.689   0.712 -0.2854 -0.1836  0.3862
 8265TIP3    H146286   2.139   6.704   0.805 -0.0764 -0.1180  0.4084
 8265TIP3    H246287   2.104   6.759   0.668  0.5707  0.4873  0.4843
 8266TIP3   OH246288   2.503   3.950  15.493 -0.5646 -0.1100  0.0309
 8266TIP3    H146289   2.542   3.976  15.410  0.0589  1.3637  0.7508
 8266TIP3    H246290   2.511   3.855  15.495  0.2619 -0.0828 -1.1709
 8267TIP3   OH246291   3.802   5.262  16.076  0.4371  0.2904 -0.6447
 8267TIP3    H146292   3.832   5.317  16.148  1.0204 -2.2158  1.1715
 8267TIP3    H246293   3.869   5.272  16.008  2.5656 -0.9056  1.1223
 8268TIP3   OH246294   5.462   1.073  13.557  0.4958  0.3051  0.5837
 8268TIP3    H146295   5.506   1.158  13.549 -0.4870  0.7088 -0.6928
 8268TIP3    H246296   5.533   1.012  13.579  1.3382  1.3033  0.7235
 8269TIP3   OH246297   1.065   1.594  15.426 -0.1001  0.6681 -0.1008
 8269TIP3    H146298   1.119   1.667  15.455  0.8686 -1.0781  3.0278
 8269TIP3    H246299   1.119   1.547  15.362  1.1892  0.2551  1.2348
 8270TIP3   OH246300   2.278   0.472   0.286 -0.1269 -0.1060  0.3662
 8270TIP3    H146301   2.281   0.439   0.376 -1.2224 -0.8146  0.1679
 8270TIP3    H246302   2.336   0.548   0.287 -0.8513  0.4951  1.9328
 8271TIP3   OH246303   5.906   6.498  13.377  0.6283 -0.4111  0.5002
 8271TIP3    H146304   5.911   6.520  13.470  0.3012 -0.3084  0.4943
 8271TIP3    H246305   5.964   6.560  13.334  1.1077 -0.7265  0.6792
 8272TIP3   OH246306   3.931   6.307  15.890 -0.5170 -0.4567  0.3399
 8272TIP3    H146307   3.951   6.218  15.919  2.0018 -0.3426 -0.7269
 8272TIP3    H246308   3.955   6.307  15.797  0.8109  1.6201  0.6091
 8273TIP3   OH246309   1.046   6.143   6.283  0.4444  0.2361  0.1864
 8273TIP3    H146310   1.116   6.133   6.347  0.2966  0.9444  0.4738
 8273TIP3    H246311   1.077   6.211   6.223 -0.4435  1.3791  0.9765
 8274TIP3   OH246312   2.977   4.941  17.207  0.2243 -0.1116  0.5924
 8274TIP3    H146313   2.969   4.954  17.302 -0.4944 -0.2545  0.5568
 8274TIP3    H246314   2.944   4.853  17.192 -0.9904  0.4133  0.0475
 8275TIP3   OH246315   4.750   6.283   3.271  0.1451  0.2642 -0.1082
 8275TIP3    H146316   4.790   6.331   3.344  0.3353 -0.8263  0.5353
 8275TIP3    H246317   4.705   6.350   3.220  0.0958  1.0770  0.9540
 8276TIP3   OH246318   3.713   2.420   4.464 -0.1824 -0.3397 -0.3140
 8276TIP3    H146319   3.729   2.326   4.455  2.5947  0.1540 -2.0441
 8276TIP3    H246320   3.744   2.442   4.552 -1.1221 -1.0515  0.2092
 8277TIP3   OH246321   3.290   0.565   5.425  0.0826 -0.0395 -0.5167
 8277TIP3    H146322   3.378   0.574   5.390 -0.3716  1.2442 -1.4103
 8277TIP3    H246323   3.234   0.606   5.358 -1.1948 -0.9169 -0.0200
 8278TIP3   OH246324   6.522   1.509  14.203  0.4361  0.1549 -0.0876
 8278TIP3    H146325   6.440   1.556  14.189  0.0477 -0.6323 -0.5593
 8278TIP3    H246326   6.509   1.461  14.284  1.3271  1.8511  1.1243
 8279TIP3   OH246327   3.961   3.019   5.278  0.0019 -0.2256 -0.2852
 8279TIP3    H146328   3.963   2.950   5.212 -1.2206 -0.8002  0.2442
 8279TIP3    H246329   3.873   3.014   5.315  1.8375 -3.1346  4.7285
 8280TIP3   OH246330   3.791   1.252  15.094  0.5911  0.0733  0.3589
 8280TIP3    H146331   3.827   1.224  15.178  0.5358 -1.9843 -0.2498
 8280TIP3    H246332   3.831   1.193  15.030 -0.2254  0.8676 -0.9207
 8281TIP3   OH246333   6.400   1.116  16.277  0.1251 -0.1653  0.1131
 8281TIP3    H146334   6.394   1.035  16.327  0.2579  0.0264  0.4448
 8281TIP3    H246335   6.327   1.112  16.216 -0.3458 -0.1721  0.6671
 8282TIP3   OH246336   1.761   2.091   5.188 -0.0800  0.5511 -0.2221
 8282TIP3    H146337   1.736   2.008   5.228 -0.0112 -0.6907 -2.6107
 8282TIP3    H246338   1.838   2.070   5.135 -0.4854  1.9724 -1.4291
 8283TIP3   OH246339   2.910   1.871  16.251 -0.4655 -0.1337  0.1046
 8283TIP3    H146340   2.997   1.910  16.257 -0.0302 -0.8834 -1.0172
 8283TIP3    H246341   2.885   1.851  16.341  0.2175  0.7369  0.4912
 8284TIP3   OH246342   2.858   6.133  15.074  0.2261  0.3260  0.4128
 8284TIP3    H146343   2.894   6.044  15.075  1.7492  0.8708 -0.8954
 8284TIP3    H246344   2.818   6.143  15.160  2.8887 -0.5441  1.8826
 8285TIP3   OH246345   1.781   5.041   1.614  0.2186 -0.2462 -0.3920
 8285TIP3    H146346   1.718   5.013   1.549  1.0563 -1.4350 -0.7232
 8285TIP3    H246347   1.821   5.120   1.577 -0.7083  0.2317 -0.3958
 8286TIP3   OH246348   6.566   1.477  10.701  0.7466  0.1822 -0.6776
 8286TIP3    H146349   6.623   1.454  10.627 -0.9088  0.6968 -2.1776
 8286TIP3    H246350   6.534   1.565  10.680  0.3208  0.3923  0.7364
 8287TIP3   OH246351   3.100   4.638  14.440 -0.4630  0.3963  0.7250
 8287TIP3    H146352   3.189   4.671  14.427 -0.8509  0.7090 -1.5547
 8287TIP3    H246353   3.111   4.558  14.491  1.2425 -0.0627 -0.2956
 8288TIP3   OH246354   2.977   0.588   2.736  0.2335  0.6605  0.1740
 8288TIP3    H146355   2.932   0.668   2.763 -2.0873  0.1317 -1.7181
 8288TIP3    H246356   2.986   0.596   2.641  2.0117 -0.3731  0.1981
 8289TIP3   OH246357   1.119   1.808  12.163 -0.5464  0.2915 -0.2670
 8289TIP3    H146358   1.171   1.777  12.238 -0.4656  2.1422  0.4893
 8289TIP3    H246359   1.029   1.809  12.194 -0.2049  4.1779  1.0492
 8290TIP3   OH246360   1.728   4.659  12.329 -0.0839  0.4665 -0.3467
 8290TIP3    H146361   1.736   4.738  12.275  1.0099  0.1184 -0.7183
 8290TIP3    H246362   1.686   4.690  12.409 -0.8184  1.1833 -0.9875
 8291TIP3   OH246363   4.114   6.361   6.526  0.3714 -0.0330  0.5444
 8291TIP3    H146364   4.031   6.314   6.532  0.6771 -0.4736  1.3033
 8291TIP3    H246365   4.095   6.447   6.563 -0.2225  0.5295 -0.9641
 8292TIP3   OH246366   6.596   6.244  11.373  0.5926 -1.1026 -0.4444
 8292TIP3    H146367   6.608   6.149  11.370  1.6439 -1.0057  0.1302
 8292TIP3    H246368   6.682   6.278  11.398  0.1527 -0.0184 -0.3632
 8293TIP3   OH246369   5.357   4.182   5.869 -0.3119  0.1239 -0.2345
 8293TIP3    H146370   5.323   4.099   5.903  1.5154 -0.4762  0.2258
 8293TIP3    H246371   5.289   4.213   5.809 -1.0441 -1.6903 -0.4030
 8294TIP3   OH246372   6.586   0.282  12.129  0.4830  0.2266 -0.3188
 8294TIP3    H146373   6.509   0.304  12.077 -0.9600  2.4632  2.4933
 8294TIP3    H246374   6.571   0.191  12.157 -0.7281  0.3484 -0.5180
 8295TIP3   OH246375   3.601   5.130  11.680 -0.7032 -0.1903  0.1488
 8295TIP3    H146376   3.639   5.186  11.612  1.2200  0.4080  1.6252
 8295TIP3    H246377   3.580   5.049  11.635  0.7224  0.1082 -1.1373
 8296TIP3   OH246378   6.746   5.442  13.866  0.3847  0.4982 -0.1643
 8296TIP3    H146379   6.687   5.411  13.798  0.2755  1.2627 -0.4285
 8296TIP3    H246380   6.699   5.516  13.907  0.5579  0.2160  0.5659
 8297TIP3   OH246381   0.323   6.695  15.129  0.3761 -0.0076  0.0206
 8297TIP3    H146382   0.248   6.639  15.150  0.7596 -0.7152 -0.4518
 8297TIP3    H246383   0.354   6.726  15.214 -0.2547  0.0309  0.2410
 8298TIP3   OH246384   0.857   3.421   5.887 -0.1337 -0.4263  0.3082
 8298TIP3    H146385   0.889   3.469   5.810 -0.7005 -1.2579 -0.4608
 8298TIP3    H246386   0.768   3.454   5.899 -0.2544 -0.7302  0.2423
 8299TIP3   OH246387   0.753   1.368  12.156 -0.3491  0.0279  0.3847
 8299TIP3    H146388   0.664   1.348  12.129  0.1205 -0.2431 -1.0612
 8299TIP3    H246389   0.749   1.456  12.191 -1.0497  0.3371 -0.4414
 8300TIP3   OH246390   0.435   0.596  16.418  0.0825  0.1984  0.8351
 8300TIP3    H146391   0.436   0.692  16.413  0.1014  0.2645  2.0110
 8300TIP3    H246392   0.510   0.569  16.364 -0.8434  0.7520 -0.8191
 8301TIP3   OH246393   0.040   3.558  14.346  0.0850  0.6365 -0.4149
 8301TIP3    H146394   0.084   3.643  14.351  0.3477  0.5590 -1.2353
 8301TIP3    H246395   0.018   3.537  14.437  0.1667  1.4999 -0.1850
 8302TIP3   OH246396   4.453   3.394  10.574 -0.0508  0.1168 -0.0813
 8302TIP3    H146397   4.511   3.445  10.631  1.4346 -1.6966  0.1303
 8302TIP3    H246398   4.389   3.457  10.543  1.3072  1.9632  0.6647
 8303TIP3   OH246399   1.400   0.582   3.103 -0.0183 -0.0020 -0.2700
 8303TIP3    H146400   1.341   0.647   3.141  1.0606  1.7025 -1.3016
 8303TIP3    H246401   1.488   0.616   3.121  0.6050 -1.4376 -0.4524
 8304TIP3   OH246402   0.988   6.262   3.676 -0.3774 -0.4526  0.2624
 8304TIP3    H146403   0.999   6.325   3.605 -0.3969 -0.2221  0.4626
 8304TIP3    H246404   0.915   6.207   3.649  0.4773 -1.2355 -0.5353
 8305TIP3   OH246405   3.170   4.075  14.200 -0.4214 -0.0526 -0.2579
 8305TIP3    H146406   3.223   4.008  14.156  1.6040  0.9667  0.5203
 8305TIP3    H246407   3.168   4.048  14.291  1.8982  1.7133  0.4268
 8306TIP3   OH246408   2.713   0.876  14.962  0.0485 -0.0001  0.7000
 8306TIP3    H146409   2.747   0.965  14.952  1.5771 -0.4910  1.2603
 8306TIP3    H246410   2.720   0.837  14.875 -1.8492  0.8011  0.1421
 8307TIP3   OH246411   1.950   1.559  11.617  0.3148  0.4809 -0.2361
 8307TIP3    H146412   1.955   1.552  11.522 -1.6850 -1.0328 -0.3049
 8307TIP3    H246413   2.030   1.515  11.648 -1.0945 -3.1322 -1.2332
 8308TIP3   OH246414   1.693   2.695   4.433 -0.3277 -0.5001 -0.8782
 8308TIP3    H146415   1.620   2.746   4.467 -0.8631 -0.8439 -1.4810
 8308TIP3    H246416   1.651   2.622   4.386  0.3511  0.3829 -2.9513
 8309TIP3   OH246417   6.563   1.903   4.586  0.6759 -0.4263 -0.1081
 8309TIP3    H146418   6.504   1.827   4.583 -0.2216  0.2465  0.0859
 8309TIP3    H246419   6.539   1.955   4.510  2.3027 -1.0331 -1.1019
 8310TIP3   OH246420   3.217   1.191   3.739 -0.8354 -0.1083  0.2300
 8310TIP3    H146421   3.151   1.261   3.736  0.9092  1.6645  0.7819
 8310TIP3    H246422   3.269   1.204   3.660 -0.1234 -0.3734  0.6433
 8311TIP3   OH246423   4.430   2.991   1.192 -0.3550  0.1105 -0.0425
 8311TIP3    H146424   4.514   3.024   1.160 -0.3970  0.4998  0.2444
 8311TIP3    H246425   4.398   3.058   1.252  0.4092 -1.2387  2.0028
 8312TIP3   OH246426   0.044   2.362  12.635 -0.7841 -0.0529  0.2772
 8312TIP3    H146427   0.020   2.355  12.542  2.1778 -1.1160 -0.5118
 8312TIP3    H246428   0.088   2.447  12.642  1.1936 -0.9991  0.0597
 8313TIP3   OH246429   3.163   6.000   4.909  0.2138 -0.3965 -0.1503
 8313TIP3    H146430   3.218   6.011   4.986  0.8533  2.0305 -0.8737
 8313TIP3    H246431   3.216   5.950   4.847  1.3252  1.1667 -0.5089
 8314TIP3   OH246432   3.516   6.262   0.693 -0.4484 -1.1909 -0.2490
 8314TIP3    H146433   3.566   6.184   0.718  1.3892  0.2049  0.7571
 8314TIP3    H246434   3.521   6.319   0.771 -2.7500 -0.5324 -0.5146
 8315TIP3   OH246435   6.251   6.486   6.790  0.5615 -0.1047  0.0594
 8315TIP3    H146436   6.254   6.399   6.831  2.0685  0.5914  1.5108
 8315TIP3    H246437   6.305   6.477   6.711 -1.0111 -1.0101 -0.9697
 8316TIP3   OH246438   0.796   1.250  13.360  0.2530 -0.3923  0.0180
 8316TIP3    H146439   0.711   1.294  13.356  1.0343  1.1880 -0.0618
 8316TIP3    H246440   0.806   1.225  13.452 -1.2042 -2.5507 -0.3517
 8317TIP3   OH246441   4.215   2.297  16.037 -0.4439  0.3654 -0.0090
 8317TIP3    H146442   4.246   2.283  15.947  0.1527 -2.1069  0.5112
 8317TIP3    H246443   4.257   2.379  16.063  1.7476 -0.3448 -1.0281
 8318TIP3   OH246444   0.635   3.475  13.831  0.6884 -0.6221  0.7531
 8318TIP3    H146445   0.583   3.400  13.802  0.2536 -0.5777  1.4071
 8318TIP3    H246446   0.645   3.463  13.925 -0.3520  0.7178  1.0659
 8319TIP3   OH246447   5.958   4.720   3.006 -0.1601  0.2707 -0.2443
 8319TIP3    H146448   5.894   4.792   3.005 -0.7381 -0.2331 -0.5100
 8319TIP3    H246449   5.945   4.676   2.922  2.0231  1.4300 -1.2768
 8320TIP3   OH246450   3.334   5.138  15.657  0.3844 -0.4846 -0.5895
 8320TIP3    H146451   3.255   5.120  15.606  0.4008  0.5766 -1.0007
 8320TIP3    H246452   3.305   5.134  15.748  0.2248 -1.7735 -0.6758
 8321TIP3   OH246453   5.718   5.339   6.598 -0.0624  0.1216 -0.3537
 8321TIP3    H146454   5.673   5.422   6.585 -1.5838 -0.8547 -1.7549
 8321TIP3    H246455   5.811   5.361   6.597 -0.4223  1.7127 -1.4402
 8322TIP3   OH246456   5.903   2.275   1.809 -0.5108  0.0900  0.2581
 8322TIP3    H146457   5.826   2.260   1.754  0.7468 -0.2098 -1.5058
 8322TIP3    H246458   5.897   2.367   1.834 -0.7409  0.4586 -1.0419
 8323TIP3   OH246459   0.226   5.798  12.958  0.9372 -0.5977 -0.0801
 8323TIP3    H146460   0.156   5.859  12.933  1.8936  0.1805 -0.9366
 8323TIP3    H246461   0.242   5.747  12.878  0.6689 -1.4602  0.4085
 8324TIP3   OH246462   0.118   6.383   4.557 -0.2487  0.5218  0.0264
 8324TIP3    H146463   0.080   6.296   4.572  0.0145  0.2922 -0.5885
 8324TIP3    H246464   0.151   6.410   4.643  0.0312 -0.1711  0.1456
 8325TIP3   OH246465   3.619   4.877  13.743 -0.1762  0.1474 -0.1574
 8325TIP3    H146466   3.633   4.837  13.657 -0.5519 -2.1485  0.7570
 8325TIP3    H246467   3.707   4.885  13.780  0.2613  3.4501 -1.5999
 8326TIP3   OH246468   0.623   2.851   1.255 -0.3324  0.2391 -0.1213
 8326TIP3    H146469   0.663   2.917   1.312  0.4075  0.6671 -1.1161
 8326TIP3    H246470   0.628   2.770   1.306 -1.1922  0.9126  1.0841
 8327TIP3   OH246471   2.719   0.735   4.996  0.3132 -0.1502  0.6454
 8327TIP3    H146472   2.629   0.708   4.978  0.3537  0.4037 -0.5326
 8327TIP3    H246473   2.740   0.697   5.081 -1.4814  0.7962  1.5605
 8328TIP3   OH246474   0.395   5.289  15.201  0.2265 -0.3112  0.3534
 8328TIP3    H146475   0.361   5.286  15.112  0.5889 -0.9201  0.2284
 8328TIP3    H246476   0.490   5.292  15.190  0.2587  0.0178  0.7134
 8329TIP3   OH246477   4.615   3.890  16.854  0.5736 -0.2777  1.0187
 8329TIP3    H146478   4.709   3.895  16.840  0.1239 -0.0709 -2.7976
 8329TIP3    H246479   4.588   3.808  16.813 -0.9937 -0.2134  1.8297
 8330TIP3   OH246480   3.316   1.087  11.391 -0.2570  0.3068  0.2319
 8330TIP3    H146481   3.248   1.064  11.455 -1.5036  2.0676 -0.3749
 8330TIP3    H246482   3.293   1.176  11.363  1.9554  0.7155 -0.4838
 8331TIP3   OH246483   2.351   3.039   0.343  0.2374  0.1256 -0.4333
 8331TIP3    H146484   2.268   3.081   0.366 -0.5042 -0.8630 -1.2085
 8331TIP3    H246485   2.348   3.031   0.248  2.1795  1.9651 -0.7381
 8332TIP3   OH246486   2.029   5.736   0.501 -0.1819 -0.1328 -0.3893
 8332TIP3    H146487   1.947   5.707   0.460  0.0153 -0.0075 -0.8794
 8332TIP3    H246488   2.095   5.675   0.468 -0.2292 -0.8072  0.7363
 8333TIP3   OH246489   0.431   2.516  13.084  0.3367 -0.2593 -0.5267
 8333TIP3    H146490   0.373   2.502  13.009  1.1150  3.1088 -1.9634
 8333TIP3    H246491   0.382   2.574  13.142  1.1264  0.1986 -0.3011
 8334TIP3   OH246492   1.665   2.919  11.391  0.0914 -0.0372  0.4934
 8334TIP3    H146493   1.740   2.978  11.393  0.6179 -0.6920  0.3802
 8334TIP3    H246494   1.701   2.834  11.364 -0.0401 -1.3026  3.7842
 8335TIP3   OH246495   4.750   0.402  17.267  0.0107  0.0803  0.0817
 8335TIP3    H146496   4.813   0.452  17.318  0.1377  2.3121 -2.0776
 8335TIP3    H246497   4.673   0.459  17.260 -1.4679 -1.6992  0.8391
 8336TIP3   OH246498   5.595   3.528  12.847 -0.4684  0.7115  0.7283
 8336TIP3    H146499   5.597   3.544  12.752  0.3703 -3.0869 -0.0366
 8336TIP3    H246500   5.502   3.513  12.866 -0.4693 -0.0267  0.1782
 8337TIP3   OH246501   1.816   1.875  11.271 -1.2755  1.1844  0.8464
 8337TIP3    H146502   1.886   1.918  11.221 -1.5168 -0.7690 -1.3679
 8337TIP3    H246503   1.859   1.845  11.351  0.2162  0.9128 -0.0156
 8338TIP3   OH246504   1.065   6.143   1.759 -0.1058 -0.2155 -0.2834
 8338TIP3    H146505   1.085   6.233   1.737  0.3946 -0.2312  0.0954
 8338TIP3    H246506   0.990   6.149   1.819 -0.8243 -0.1252 -1.1567
 8339TIP3   OH246507   5.602   3.143   3.880 -0.2986 -0.1859  0.1983
 8339TIP3    H146508   5.628   3.149   3.972  0.5121 -0.2551 -0.0159
 8339TIP3    H246509   5.651   3.069   3.846  1.2512  1.2589 -0.8631
 8340TIP3   OH246510   1.887   5.093  13.750  0.3989  0.2809 -0.1690
 8340TIP3    H146511   1.831   5.063  13.822 -0.8231 -0.3433 -1.3173
 8340TIP3    H246512   1.886   5.189  13.757 -0.6183  0.2726  0.0029
 8341TIP3   OH246513   6.424   6.717   3.842 -0.1196 -0.0566  0.5240
 8341TIP3    H146514   6.399   6.624   3.844 -0.9755  0.1740  0.8072
 8341TIP3    H246515   6.341   6.764   3.844  0.3350  0.7264  1.4526
 8342TIP3   OH246516   1.184   3.005  15.228 -0.4873 -0.3814  0.1090
 8342TIP3    H146517   1.202   3.085  15.277  1.8829  1.3305 -3.2127
 8342TIP3    H246518   1.251   2.943  15.257  0.1860  0.2278 -0.1223
 8343TIP3   OH246519   2.207   3.537  15.133  0.4026 -0.0035 -0.7361
 8343TIP3    H146520   2.176   3.607  15.190 -0.5199 -1.3673  0.4961
 8343TIP3    H246521   2.155   3.546  15.054 -0.4859  0.0311 -0.1586
 8344TIP3   OH246522   5.355   5.658  16.874  0.0959  0.2426  0.2836
 8344TIP3    H146523   5.378   5.748  16.850  1.9011  0.3687  2.2210
 8344TIP3    H246524   5.296   5.629  16.804 -0.7674  2.9898 -0.2549
 8345TIP3   OH246525   3.636   0.980  15.749 -0.0254  0.1485  0.1197
 8345TIP3    H146526   3.615   0.924  15.675 -2.2236  1.6887 -0.5299
 8345TIP3    H246527   3.724   1.014  15.731  0.0296 -0.6006 -1.0482
 8346TIP3   OH246528   0.308   3.012   1.335 -0.8593  0.1077  0.4867
 8346TIP3    H146529   0.284   3.087   1.389 -0.6678 -0.2569  1.0949
 8346TIP3    H246530   0.367   3.048   1.269 -1.5721  0.6680  0.1436
 8347TIP3   OH246531   4.016   6.718   4.245 -0.0642 -0.4430  0.3653
 8347TIP3    H146532   3.964   6.652   4.199  0.7906 -0.7219 -0.2132
 8347TIP3    H246533   4.099   6.674   4.265  0.6671  0.5515 -0.3661
 8348TIP3   OH246534   4.199   0.270   2.158  0.3516 -1.2053  0.3110
 8348TIP3    H146535   4.271   0.318   2.200 -0.1192  0.2472 -0.4682
 8348TIP3    H246536   4.239   0.231   2.080  0.4708 -1.0482  0.2929
 8349TIP3   OH246537   4.588   5.493  15.537 -0.1915  0.2064  0.3729
 8349TIP3    H146538   4.568   5.485  15.443  0.3191  0.6651  0.2217
 8349TIP3    H246539   4.606   5.586  15.549 -2.1074  0.5090  1.3052
 8350TIP3   OH246540   4.778   0.117  12.437 -0.2506  0.2535 -0.3809
 8350TIP3    H146541   4.728   0.044  12.402  0.1607  0.0209 -0.4914
 8350TIP3    H246542   4.722   0.154  12.506  0.9803 -2.3898  2.2694
 8351TIP3   OH246543   1.284   6.389  16.258 -0.0922 -0.1044  0.1063
 8351TIP3    H146544   1.274   6.380  16.163  0.1542 -2.9968  0.2859
 8351TIP3    H246545   1.199   6.423  16.287 -1.0033 -1.3835 -0.9262
 8352TIP3   OH246546   5.386   3.584  10.707 -0.3138 -0.0107 -0.3751
 8352TIP3    H146547   5.363   3.505  10.658 -0.1866  0.3812 -1.0802
 8352TIP3    H246548   5.317   3.647  10.685  0.2336  0.4593 -0.7537
 8353TIP3   OH246549   6.603   4.457   0.542  0.3511  0.1552 -0.8928
 8353TIP3    H146550   6.552   4.399   0.485 -0.2598  0.5283 -0.7229
 8353TIP3    H246551   6.572   4.545   0.522 -1.1775  0.1722  1.3067
 8354TIP3   OH246552   0.181   0.753  11.918 -0.6178  0.1383 -0.8022
 8354TIP3    H146553   0.264   0.800  11.917 -0.1519 -0.6125  0.6219
 8354TIP3    H246554   0.165   0.730  11.827  2.5072 -2.7428 -0.8042
 8355TIP3   OH246555   2.263   4.532   0.709 -0.0509 -0.6461  0.5987
 8355TIP3    H146556   2.232   4.622   0.700 -0.7382 -1.0302 -1.3534
 8355TIP3    H246557   2.354   4.534   0.678 -0.1654 -0.6650  0.2544
 8356TIP3   OH246558   5.729   5.050  13.653  0.6760  0.1344  0.1979
 8356TIP3    H146559   5.732   5.144  13.671  1.1328  0.3741 -1.0124
 8356TIP3    H246560   5.719   5.045  13.558 -1.6006 -1.0348  0.4423
 8357TIP3   OH246561   4.983   3.349  15.027  0.3968 -0.1394 -0.3055
 8357TIP3    H146562   4.905   3.302  14.996  0.4517 -2.2523  2.3702
 8357TIP3    H246563   4.948   3.421  15.079  0.1797 -1.0077  0.7844
 8358TIP3   OH246564   4.332   6.333  15.744 -0.2555  0.3312  0.0504
 8358TIP3    H146565   4.322   6.262  15.680 -0.2084  1.2530 -1.0139
 8358TIP3    H246566   4.275   6.403  15.711 -1.3122  0.3307  1.7759
 8359TIP3   OH246567   3.678   0.191   0.432  0.1515 -0.2676  0.1312
 8359TIP3    H146568   3.601   0.247   0.443 -0.3264 -1.0851  1.1754
 8359TIP3    H246569   3.752   0.251   0.439 -0.3653  0.4052  0.0221
 8360TIP3   OH246570   4.660   6.193  12.572  0.8014 -0.0144  0.6355
 8360TIP3    H146571   4.755   6.179  12.566  0.4545 -2.4604 -0.5618
 8360TIP3    H246572   4.630   6.192  12.481 -0.6301 -1.9716  1.0593
 8361TIP3   OH246573   1.826   4.345  11.797 -0.1203  0.5693  0.2031
 8361TIP3    H146574   1.742   4.380  11.766 -0.4941  0.5294  1.1202
 8361TIP3    H246575   1.877   4.332  11.718 -1.3157 -0.2583 -0.4701
 8362TIP3   OH246576   6.792   1.281   4.584 -0.0198  0.2187 -0.2894
 8362TIP3    H146577   6.706   1.306   4.617  0.3991  1.0547  0.2237
 8362TIP3    H246578   6.842   1.363   4.583  1.4534 -0.5771  1.5554
 8363TIP3   OH246579   5.110   5.510  16.009  0.0418 -0.0246  0.1498
 8363TIP3    H146580   5.113   5.415  16.018  1.3944  0.1955  2.9203
 8363TIP3    H246581   5.104   5.543  16.098  1.6396  2.5551 -0.5729
 8364TIP3   OH246582   1.732   5.978  14.815  0.1282 -0.1274 -0.1357
 8364TIP3    H146583   1.707   5.899  14.766  0.9377 -0.8205  0.5278
 8364TIP3    H246584   1.828   5.974  14.818  0.1165  0.2490  0.9309
 8365TIP3   OH246585   2.561   2.222   5.715 -0.0130 -0.4569  0.4905
 8365TIP3    H146586   2.656   2.213   5.702  0.1250 -0.2162  1.2640
 8365TIP3    H246587   2.551   2.231   5.810 -0.7737  0.0008  0.3736
 8366TIP3   OH246588   4.270   3.088  11.742 -0.1635  0.3680  0.0655
 8366TIP3    H146589   4.267   3.141  11.821  0.0744  2.2218 -1.1275
 8366TIP3    H246590   4.310   3.144  11.676  0.8631 -1.5773 -1.0641
 8367TIP3   OH246591   3.870   4.236   6.037 -0.5085 -0.3509 -0.0562
 8367TIP3    H146592   3.852   4.306   6.100  1.5663  0.2552 -0.0490
 8367TIP3    H246593   3.916   4.280   5.965  0.7775 -1.6565 -0.0810
 8368TIP3   OH246594   4.227   5.418  16.033 -0.0624 -0.1506 -0.1053
 8368TIP3    H146595   4.146   5.444  15.989 -1.7282  1.9744  3.6391
 8368TIP3    H246596   4.207   5.333  16.072  0.1593 -0.4389 -0.6171
 8369TIP3   OH246597   1.016   4.333   5.739  0.0465 -0.0941 -0.2015
 8369TIP3    H146598   0.967   4.268   5.689  1.1464 -0.5780 -0.6743
 8369TIP3    H246599   1.107   4.304   5.734  0.2928  0.3023  1.3902
 8370TIP3   OH246600   0.736   1.459  15.928 -0.6167 -0.1716  0.1850
 8370TIP3    H146601   0.698   1.426  15.847  0.2435 -1.5133  0.2939
 8370TIP3    H246602   0.830   1.455  15.913 -0.3828  3.2300 -0.1525
 8371TIP3   OH246603   2.618   0.080  14.524 -0.3501 -0.4700 -0.5913
 8371TIP3    H146604   2.536   0.129  14.523 -0.5673 -0.7700  0.6746
 8371TIP3    H246605   2.592  -0.011  14.540  0.1735 -0.6952 -0.9844
 8372TIP3   OH246606   6.466   6.467  12.380  0.0485  0.5754  0.3714
 8372TIP3    H146607   6.439   6.400  12.443 -2.3740  0.0062 -1.1363
 8372TIP3    H246608   6.513   6.419  12.312 -1.2687  0.4318 -0.4677
 8373TIP3   OH246609   0.620   2.333   0.867 -0.5637 -0.1981  0.6335
 8373TIP3    H146610   0.654   2.418   0.842 -0.6446 -0.2025  0.5062
 8373TIP3    H246611   0.573   2.349   0.949  0.3405 -0.3264  1.1816
 8374TIP3   OH246612   6.623   6.452  13.613 -0.2484  0.1722  0.3809
 8374TIP3    H146613   6.594   6.542  13.621  0.6433  0.6742 -1.5807
 8374TIP3    H246614   6.546   6.404  13.583 -0.5079  0.4079  0.6637
 8375TIP3   OH246615   1.804   2.555  10.873 -0.5455  0.4712  0.0293
 8375TIP3    H146616   1.822   2.639  10.832  1.6720  0.3406  0.6116
 8375TIP3    H246617   1.823   2.490  10.806  0.8959  0.3411  0.5408
 8376TIP3   OH246618   4.124   0.457  14.809 -0.5386 -0.8365 -0.2858
 8376TIP3    H146619   4.055   0.492  14.753 -0.9100 -0.7863  0.1977
 8376TIP3    H246620   4.193   0.432  14.748 -1.0729 -1.1035 -0.7973
 8377TIP3   OH246621   2.578   5.449   5.943  0.5021 -0.0396  0.0170
 8377TIP3    H146622   2.575   5.527   5.997  2.9266  2.3288 -2.9390
 8377TIP3    H246623   2.492   5.445   5.902  0.9193  2.3140 -1.2466
 8378TIP3   OH246624   1.209   3.971  16.266 -0.0589  0.1818 -0.0949
 8378TIP3    H146625   1.271   3.922  16.319 -1.1176 -1.2427 -0.1338
 8378TIP3    H246626   1.231   4.063  16.282  2.0862 -0.2729 -0.1682
 8379TIP3   OH246627   2.049   2.116  13.787 -0.1882  0.7206  0.4974
 8379TIP3    H146628   2.096   2.032  13.791  2.4427  2.1373  1.9457
 8379TIP3    H246629   2.058   2.143  13.695 -2.9635 -1.4499 -0.5600
 8380TIP3   OH246630   1.097   5.685  16.645  0.3741 -0.7545 -0.4150
 8380TIP3    H146631   1.089   5.590  16.635  0.6146 -0.6378 -2.1278
 8380TIP3    H246632   1.185   5.698  16.681  0.5725 -1.1727 -0.7312
 8381TIP3   OH246633   5.814   3.741  14.893  0.1765  0.2310 -0.2014
 8381TIP3    H146634   5.804   3.835  14.908 -0.2199  0.1557  0.0169
 8381TIP3    H246635   5.909   3.728  14.890  0.2609  0.4499  1.0086
 8382TIP3   OH246636   6.172   3.361   0.161 -0.3026 -0.8794 -0.6602
 8382TIP3    H146637   6.177   3.376   0.255 -0.5500 -0.8094 -0.6570
 8382TIP3    H246638   6.094   3.410   0.133 -0.9760 -1.9445 -0.6911
 8383TIP3   OH246639   5.300   6.811   1.416 -0.6009  0.6268 -0.1080
 8383TIP3    H146640   5.353   6.850   1.346 -0.7067  0.6370 -0.1830
 8383TIP3    H246641   5.359   6.806   1.491 -0.2184 -0.1679 -0.4450
 8384TIP3   OH246642   2.500   3.896   0.634 -0.6743 -0.1030  0.0728
 8384TIP3    H146643   2.530   3.976   0.592 -1.4559 -0.5281 -1.3836
 8384TIP3    H246644   2.565   3.878   0.702  1.9250 -0.5646 -2.3869
 8385TIP3   OH246645   3.111   0.722  16.677 -0.2949 -0.5254 -0.1915
 8385TIP3    H146646   3.147   0.811  16.677 -2.3267  0.4019  2.2330
 8385TIP3    H246647   3.169   0.673  16.619  0.3966  2.5438 -2.3368
 8386TIP3   OH246648   5.984   3.078  14.684  0.5391  0.1674 -0.5155
 8386TIP3    H146649   5.905   3.035  14.650 -0.0479  1.8180 -1.3477
 8386TIP3    H246650   5.952   3.149  14.738  1.4260  1.0905 -1.1577
 8387TIP3   OH246651   0.519   2.732  16.336  0.3591  0.1785  0.0656
 8387TIP3    H146652   0.535   2.749  16.429  1.8196 -1.2213  0.1292
 8387TIP3    H246653   0.541   2.639  16.325 -2.5870 -0.4915 -1.1186
 8388TIP3   OH246654   2.109   5.781  12.945  0.0558  0.7069 -0.0730
 8388TIP3    H146655   2.038   5.768  12.881 -1.8501 -1.5872  2.2734
 8388TIP3    H246656   2.179   5.724  12.913  0.4067  1.9508 -1.6898
 8389TIP3   OH246657   5.951   6.118  14.661  0.8816 -0.0901  0.6194
 8389TIP3    H146658   5.957   6.023  14.660 -1.6751 -0.3126 -0.0743
 8389TIP3    H246659   6.042   6.148  14.652  1.5332 -2.4341 -1.6974
 8390TIP3   OH246660   2.260   1.394  12.530 -0.0599 -0.0295 -0.4844
 8390TIP3    H146661   2.244   1.327  12.465 -0.3646 -0.3550 -0.0810
 8390TIP3    H246662   2.233   1.476  12.488 -1.1982 -0.3550 -0.4313
 8391TIP3   OH246663   6.471   6.546  14.059 -0.3495 -0.0759 -0.0999
 8391TIP3    H146664   6.544   6.490  14.034 -1.1821 -1.6678  0.9021
 8391TIP3    H246665   6.399   6.486  14.075 -1.7249  1.4173 -0.4663
 8392TIP3   OH246666   3.646   1.679   4.309 -0.0159  0.4898  0.1391
 8392TIP3    H146667   3.597   1.745   4.359 -0.5615 -1.1872  1.9527
 8392TIP3    H246668   3.623   1.596   4.351  1.6853 -0.7262 -1.2119
 8393TIP3   OH246669   4.635   1.940  13.314  0.0541  0.0178 -0.0110
 8393TIP3    H146670   4.613   1.850  13.340  0.4057 -0.5392 -1.5722
 8393TIP3    H246671   4.661   1.933  13.222  0.7688  1.6181  0.0420
 8394TIP3   OH246672   1.727   3.483   5.539 -0.0587 -1.0572  0.0342
 8394TIP3    H146673   1.669   3.408   5.554 -1.1832 -0.2002  0.1117
 8394TIP3    H246674   1.764   3.502   5.625 -0.9582 -0.5842  0.3249
 8395TIP3   OH246675   6.540   4.751  12.336 -0.2341 -0.0323 -0.2292
 8395TIP3    H146676   6.595   4.675  12.352 -1.9365 -0.8375  2.5723
 8395TIP3    H246677   6.466   4.717  12.286 -0.3431  0.0450 -0.1224
 8396TIP3   OH246678   3.169   3.058   6.289 -0.3931 -0.4423  0.6513
 8396TIP3    H146679   3.161   3.153   6.293  0.4238 -0.3371  0.0700
 8396TIP3    H246680   3.125   3.026   6.368  1.6281  0.5762  2.2837
 8397TIP3   OH246681   5.208   5.683   3.445 -0.5248  0.3110 -0.0582
 8397TIP3    H146682   5.152   5.606   3.436 -1.0699  0.8442 -1.3544
 8397TIP3    H246683   5.230   5.708   3.356  1.9055  0.0614  0.4071
 8398TIP3   OH246684   0.545   2.237  15.773 -0.2745 -0.3847 -0.4059
 8398TIP3    H146685   0.463   2.232  15.724  0.2635 -1.4604 -1.2401
 8398TIP3    H246686   0.518   2.256  15.863 -1.4311 -0.7403 -0.6641
 8399TIP3   OH246687   0.366   0.803  11.600  0.2100  0.0213 -0.0241
 8399TIP3    H146688   0.284   0.758  11.618  0.1664  0.1208  0.0295
 8399TIP3    H246689   0.435   0.743  11.630  0.2467 -0.9504 -1.9049
 8400TIP3   OH246690   0.065   2.721  15.989  0.1705 -0.4445 -0.3135
 8400TIP3    H146691   0.119   2.642  15.983  0.1727 -0.3497 -3.5806
 8400TIP3    H246692   0.068   2.758  15.901 -2.0445  1.7331  0.4231
 8401TIP3   OH246693   2.009   6.567  12.555 -0.2967 -0.3423  0.0469
 8401TIP3    H146694   1.977   6.627  12.622 -0.7237  1.1696 -1.4208
 8401TIP3    H246695   2.073   6.619  12.505  1.0685 -1.8684  0.1361
 8402TIP3   OH246696   1.301   2.363  16.808 -0.7380  0.6382  0.3983
 8402TIP3    H146697   1.367   2.317  16.859 -0.8319 -1.4184 -1.2382
 8402TIP3    H246698   1.346   2.441  16.775 -0.2455  1.2049  2.2760
 8403TIP3   OH246699   5.230   0.336   4.241  0.6859  0.2843 -0.2243
 8403TIP3    H146700   5.208   0.420   4.281  0.6192 -0.3286  1.0613
 8403TIP3    H246701   5.303   0.303   4.292  0.1317 -0.8538 -0.1450
 8404TIP3   OH246702   1.488   1.358  10.917  0.3506  0.3785  0.0213
 8404TIP3    H146703   1.426   1.345  10.845 -0.6153  1.3579  0.6311
 8404TIP3    H246704   1.451   1.431  10.967  0.1791 -1.1614  2.3368
 8405TIP3   OH246705   5.770   3.967  16.031 -0.0070 -0.7302  0.4702
 8405TIP3    H146706   5.705   3.919  15.981 -1.5675  0.3235  1.3814
 8405TIP3    H246707   5.811   3.902  16.088  0.4704 -1.5886 -0.8351
 8406TIP3   OH246708   2.148   5.318  12.481 -0.0468 -0.1122  0.2131
 8406TIP3    H146709   2.075   5.336  12.421  0.3045  1.8367  0.2879
 8406TIP3    H246710   2.162   5.224  12.475 -1.0797 -0.1986 -1.5455
 8407TIP3   OH246711   1.271   5.977  15.229  0.0872 -0.0953 -0.1112
 8407TIP3    H146712   1.202   5.987  15.295 -0.1890 -3.1425  0.1845
 8407TIP3    H246713   1.339   5.926  15.273 -0.4258 -2.8800 -2.2639
 8408TIP3   OH246714   1.390   3.429  13.956  0.0351 -0.2921 -0.0725
 8408TIP3    H146715   1.324   3.360  13.958  0.2829 -0.5479 -0.4756
 8408TIP3    H246716   1.467   3.390  13.997  0.2946 -0.3898 -0.6409
 8409TIP3   OH246717   2.493   5.516   3.826  0.1344 -0.4719  0.2591
 8409TIP3    H146718   2.480   5.545   3.735  0.4438  1.7683  0.8712
 8409TIP3    H246719   2.583   5.482   3.827 -0.4026 -2.0296 -0.5930
 8410TIP3   OH246720   1.743   5.878   4.728 -0.2263 -0.1036  0.1300
 8410TIP3    H146721   1.690   5.922   4.795  1.6871 -0.7812  2.2267
 8410TIP3    H246722   1.730   5.785   4.746  0.1238 -0.3054 -0.6448
 8411TIP3   OH246723   3.403   0.137   0.129 -0.4294  0.3420  0.0042
 8411TIP3    H146724   3.403   0.141   0.034 -0.4966 -2.6353 -0.2199
 8411TIP3    H246725   3.313   0.156   0.154 -0.3275  1.5170 -0.4695
 8412TIP3   OH246726   5.652   1.388  15.735  0.0427 -0.3997  0.1661
 8412TIP3    H146727   5.742   1.398  15.766  0.5974 -0.7786 -1.2436
 8412TIP3    H246728   5.660   1.336  15.655 -1.0913  1.9979 -1.6389
 8413TIP3   OH246729   2.505   2.923  13.754  0.2364  0.2588  0.3490
 8413TIP3    H146730   2.501   3.003  13.701 -1.7980  1.4597  2.1638
 8413TIP3    H246731   2.599   2.913  13.773  0.7899  0.9091 -1.7233
 8414TIP3   OH246732   1.484   3.976  12.257  0.7300 -0.1826  0.3350
 8414TIP3    H146733   1.578   3.995  12.253  0.3694  1.6993 -1.6588
 8414TIP3    H246734   1.474   3.890  12.215  1.5601 -0.3313  0.4370
 8415TIP3   OH246735   6.256   4.045   3.024 -0.0591  0.2880 -0.1682
 8415TIP3    H146736   6.336   4.091   3.002 -0.4046  0.5349 -0.9210
 8415TIP3    H246737   6.274   3.953   3.005 -0.1845  0.4328 -1.0250
 8416TIP3   OH246738   0.298   1.879   4.854 -0.1936 -0.2929  0.0292
 8416TIP3    H146739   0.215   1.925   4.838  0.3386  0.7269  0.1655
 8416TIP3    H246740   0.312   1.829   4.774 -0.8402 -0.3088 -0.0812
 8417TIP3   OH246741   3.217   4.372   1.634 -0.6935 -0.5865 -0.1412
 8417TIP3    H146742   3.235   4.294   1.581  0.9420  0.4108 -1.1460
 8417TIP3    H246743   3.165   4.340   1.708 -0.2951 -2.5624 -0.6744
 8418TIP3   OH246744   3.537   5.678  12.863 -0.2276  0.2866 -0.0304
 8418TIP3    H146745   3.466   5.723  12.817 -0.2163  0.8464  0.4825
 8418TIP3    H246746   3.560   5.737  12.935 -0.4081 -0.6706  0.8388
 8419TIP3   OH246747   3.489   2.813  16.412  0.2657 -0.4349 -0.0473
 8419TIP3    H146748   3.517   2.896  16.373 -1.6081 -0.0280 -0.6012
 8419TIP3    H246749   3.546   2.803  16.489  1.5675  0.5692 -0.8335
 8420TIP3   OH246750   1.051   5.140   0.145 -0.6164  0.2003  0.0145
 8420TIP3    H146751   1.146   5.140   0.153 -0.3565 -0.8706 -2.3145
 8420TIP3    H246752   1.021   5.188   0.223  1.9266  3.2089 -0.6344
 8421TIP3   OH246753   6.371   6.408   6.394  0.6284  0.1574 -0.0287
 8421TIP3    H146754   6.433   6.381   6.327  0.2984 -1.1400  0.1638
 8421TIP3    H246755   6.415   6.389   6.477 -0.5639 -2.3090  0.1384
 8422TIP3   OH246756   2.565   3.672  13.211  0.2677  0.1313 -0.3117
 8422TIP3    H146757   2.527   3.585  13.215 -1.1147  0.6832 -0.7769
 8422TIP3    H246758   2.658   3.659  13.225 -0.1833 -1.1799  2.0217
 8423TIP3   OH246759   5.008   4.505   3.641 -0.7855 -0.2791 -0.5051
 8423TIP3    H146760   5.028   4.532   3.551  1.7115 -0.1454  0.0083
 8423TIP3    H246761   5.027   4.412   3.642 -1.3376 -0.3875 -0.2454
 8424TIP3   OH246762   4.585   5.463  11.026  0.1369  0.3994 -0.0618
 8424TIP3    H146763   4.661   5.521  11.024 -1.0070  1.9391 -1.1506
 8424TIP3    H246764   4.511   5.520  11.047 -0.9213 -0.8127 -0.3561
 8425TIP3   OH246765   0.957   3.908  14.515  0.1231 -0.2022 -0.1378
 8425TIP3    H146766   0.970   3.950  14.600  0.3390 -2.2561  0.9039
 8425TIP3    H246767   0.868   3.932  14.489  0.3690  1.1478  0.2306
 8426TIP3   OH246768   2.069   5.939  17.262 -0.1518  0.5884 -0.1061
 8426TIP3    H146769   2.104   5.850  17.255  0.7733  1.0406 -2.2909
 8426TIP3    H246770   1.978   5.932  17.232  0.7859  0.7492 -3.4615
 8427TIP3   OH246771   3.941   0.978  12.529  0.0783 -0.4539  0.2854
 8427TIP3    H146772   3.870   0.935  12.482 -0.5445 -0.5720  1.3241
 8427TIP3    H246773   3.987   0.906  12.574 -2.2552  0.0168  3.8051
 8428TIP3   OH246774   5.115   2.988   5.600 -0.0429 -0.6593 -0.1285
 8428TIP3    H146775   5.193   2.949   5.638 -0.1520 -2.1255 -1.3094
 8428TIP3    H246776   5.148   3.061   5.547  0.4042 -0.6048  0.2169
 8429TIP3   OH246777   4.147   6.752  12.460 -0.5764 -0.4127  0.0672
 8429TIP3    H146778   4.062   6.732  12.422  0.3882 -0.8313 -2.0341
 8429TIP3    H246779   4.165   6.842  12.432  0.3801 -0.9096 -0.9944
 8430TIP3   OH246780   6.421   0.109  12.633 -0.2222  0.5542 -0.7271
 8430TIP3    H146781   6.425   0.197  12.594  0.8326  0.5779 -0.5996
 8430TIP3    H246782   6.450   0.051  12.563 -3.1689 -0.0229 -1.6156
 8431TIP3   OH246783   3.652   0.620  14.215 -0.2596  0.4647 -0.3274
 8431TIP3    H146784   3.623   0.546  14.268  0.4671  0.6528  0.3402
 8431TIP3    H246785   3.583   0.686  14.226 -0.6090  0.1216 -0.4407
 8432TIP3   OH246786   0.344   6.394  11.793  0.0416  0.0671  0.2077
 8432TIP3    H146787   0.280   6.324  11.782  0.1628  0.0738 -0.6015
 8432TIP3    H246788   0.294   6.466  11.833 -0.8948  0.6568 -1.8641
 8433TIP3   OH246789   4.822   2.682  15.128 -0.1514  0.0400 -0.3455
 8433TIP3    H146790   4.796   2.740  15.056 -0.2914 -0.5571 -0.7819
 8433TIP3    H246791   4.897   2.634  15.094  1.3220  1.4277  0.7512
 8434TIP3   OH246792   1.789   4.608  13.354 -0.3777 -0.2950  0.0738
 8434TIP3    H146793   1.848   4.548  13.308 -0.0120 -0.9480  1.3437
 8434TIP3    H246794   1.836   4.692  13.354  1.2946 -1.1238  2.2924
 8435TIP3   OH246795   3.175   3.213  11.305 -0.5199  0.4398  0.6428
 8435TIP3    H146796   3.193   3.146  11.239 -1.2707  0.8408  0.0128
 8435TIP3    H246797   3.090   3.249  11.280  0.1613  2.0982  0.5800
 8436TIP3   OH246798   3.280   0.246   3.404 -0.5642 -0.0653 -0.2264
 8436TIP3    H146799   3.375   0.244   3.391 -0.7422  1.2551 -2.2089
 8436TIP3    H246800   3.269   0.251   3.499  1.5184  3.7673  0.0082
 8437TIP3   OH246801   6.618   3.235  13.346 -0.0696 -0.3261 -0.2163
 8437TIP3    H146802   6.632   3.276  13.261 -1.6747 -0.1920 -0.4565
 8437TIP3    H246803   6.527   3.204  13.343  0.1652 -1.2188  1.0754
 8438TIP3   OH246804   2.290   2.739  12.682 -0.5328 -0.3715  0.1391
 8438TIP3    H146805   2.290   2.833  12.662 -0.3117 -0.3750  0.1190
 8438TIP3    H246806   2.263   2.735  12.774  2.6939 -0.0208  1.2560
 8439TIP3   OH246807   3.276   1.725   1.036  0.6290 -0.1396  0.0245
 8439TIP3    H146808   3.284   1.714   1.131  0.0907  1.3941  0.2668
 8439TIP3    H246809   3.335   1.658   1.000 -0.0160 -1.5099  1.3965
 8440TIP3   OH246810   5.558   4.103   2.423  0.3381 -0.1053  0.0356
 8440TIP3    H146811   5.545   4.189   2.384  0.0413 -0.3294 -0.3663
 8440TIP3    H246812   5.487   4.094   2.487  1.3443  0.6339  1.3155
 8441TIP3   OH246813   5.547   1.869   0.309  0.2305  0.1071 -0.2477
 8441TIP3    H146814   5.635   1.835   0.291  0.3745 -0.6937  1.7698
 8441TIP3    H246815   5.495   1.792   0.330 -0.5014  0.7499  0.3477
 8442TIP3   OH246816   2.453   0.626   1.336  0.4031 -0.3224 -0.3659
 8442TIP3    H146817   2.542   0.633   1.371  0.6163  1.5613 -1.1713
 8442TIP3    H246818   2.463   0.577   1.254  0.5801 -0.7150 -0.1144
 8443TIP3   OH246819   4.226   2.450  16.414  0.7428  0.5988 -0.5510
 8443TIP3    H146820   4.205   2.536  16.376  1.1988  1.1870  0.4905
 8443TIP3    H246821   4.194   2.455  16.504 -2.0012 -1.4241 -1.2916
 8444TIP3   OH246822   6.342   2.620  14.527  0.6476 -0.0907 -0.0844
 8444TIP3    H146823   6.385   2.633  14.442  1.0557 -1.9898 -0.2131
 8444TIP3    H246824   6.358   2.528  14.548 -1.9825 -0.4462  0.6453
 8445TIP3   OH246825   6.573   3.620  16.249 -0.4055  0.1937 -0.2864
 8445TIP3    H146826   6.666   3.627  16.230 -0.1469 -1.4413  0.2279
 8445TIP3    H246827   6.530   3.650  16.168  0.5448  0.7162 -0.6209
 8446TIP3   OH246828   3.109   0.027  16.149  0.2996  0.6142 -0.0879
 8446TIP3    H146829   3.069  -0.053  16.183 -0.0705  1.4033  1.4248
 8446TIP3    H246830   3.200   0.002  16.131  1.3163  0.6500  3.9459
 8447TIP3   OH246831   3.602   5.954  17.075  0.4803 -0.6456  0.0757
 8447TIP3    H146832   3.526   6.006  17.103  1.4488 -0.0424  1.7051
 8447TIP3    H246833   3.600   5.960  16.980 -0.0099  1.5960  0.1580
 8448TIP3   OH246834   2.105   2.910   0.394 -0.9451  0.4529 -0.3665
 8448TIP3    H146835   2.094   2.825   0.352 -1.6048  0.7529 -0.8449
 8448TIP3    H246836   2.153   2.893   0.475  1.8298  0.0390 -1.9745
 8449TIP3   OH246837   3.608   2.593  13.056 -0.1413  0.1234  0.1510
 8449TIP3    H146838   3.602   2.653  12.981 -0.1073  0.5005  0.4440
 8449TIP3    H246839   3.639   2.511  13.019 -0.9532  0.0474 -0.3883
 8450TIP3   OH246840   5.483   3.192  15.378  0.1567 -0.1112  0.1912
 8450TIP3    H146841   5.470   3.099  15.400 -0.8625 -0.3470 -1.3048
 8450TIP3    H246842   5.558   3.192  15.319 -1.2578 -0.2943 -1.6785
 8451TIP3   OH246843   6.735   5.065  17.019  0.4680  0.6537 -0.0080
 8451TIP3    H146844   6.719   5.117  17.099 -0.0654  2.1363 -1.0308
 8451TIP3    H246845   6.662   5.004  17.016  0.5183  0.5459  0.6607
 8452TIP3   OH246846   3.940   3.937   1.396  0.2605  0.0813  0.2244
 8452TIP3    H146847   3.950   4.015   1.342 -2.2879 -0.8437 -1.7966
 8452TIP3    H246848   4.029   3.903   1.407  1.0387  1.2466 -1.9863
 8453TIP3   OH246849   0.745   5.185  11.862  0.1230  0.0484  0.2651
 8453TIP3    H146850   0.783   5.223  11.782  0.2275  0.0797  0.3296
 8453TIP3    H246851   0.651   5.194  11.850  0.1574  0.7671  0.4907
 8454TIP3   OH246852   5.518   5.175   6.512 -0.7521 -0.1463 -0.1606
 8454TIP3    H146853   5.575   5.235   6.561 -1.5771  1.9134 -1.6172
 8454TIP3    H246854   5.571   5.147   6.438 -0.3545 -1.3529  0.5329
 8455TIP3   OH246855   5.106   6.201   4.006 -0.0961  0.2405  0.1669
 8455TIP3    H146856   5.123   6.118   3.962 -1.1503  0.4481 -0.6917
 8455TIP3    H246857   5.114   6.182   4.099 -0.3949 -0.8433 -0.0214
 8456TIP3   OH246858   5.158   5.731  15.614 -0.0405  0.3329 -0.1278
 8456TIP3    H146859   5.089   5.670  15.589 -0.4047  1.4860 -2.0967
 8456TIP3    H246860   5.112   5.811  15.637  0.5339  0.4296  0.7248
 8457TIP3   OH246861   0.370   5.323  15.870  0.1794 -0.1121 -0.2377
 8457TIP3    H146862   0.405   5.299  15.955  1.8926 -2.0033 -1.3667
 8457TIP3    H246863   0.434   5.385  15.834 -0.5143  0.6545 -0.1613
 8458TIP3   OH246864   0.426   4.940  11.390 -0.0713 -0.1494  0.6812
 8458TIP3    H146865   0.386   4.927  11.476  1.3819  0.1690  1.4273
 8458TIP3    H246866   0.355   4.978  11.337 -0.4929  1.4808  2.2870
 8459TIP3   OH246867   1.521   0.928  12.472 -0.0401  0.2215 -0.3716
 8459TIP3    H146868   1.449   0.883  12.428  1.3475 -1.0708 -1.4137
 8459TIP3    H246869   1.538   1.005  12.416  0.7564 -0.6312 -1.3486
 8460TIP3   OH246870   4.736   0.924  12.959  0.0316 -0.8280 -0.0769
 8460TIP3    H146871   4.726   0.849  12.900  1.0378 -1.7763  0.9071
 8460TIP3    H246872   4.757   0.998  12.901  1.2744 -1.7944 -0.9112
 8461TIP3   OH246873   2.944   2.702  13.808 -0.1968  0.0126 -0.6269
 8461TIP3    H146874   2.977   2.778  13.856  0.0936  0.7608 -1.9373
 8461TIP3    H246875   2.983   2.711  13.721 -0.8704 -1.1627 -1.0646
 8462TIP3   OH246876   0.266   4.806  16.940  0.5745  0.2387 -0.1414
 8462TIP3    H146877   0.278   4.874  16.873  0.3611  0.3162 -0.1017
 8462TIP3    H246878   0.307   4.728  16.903 -2.3750 -0.6692 -1.8524
 8463TIP3   OH246879   1.698   5.755   0.671  0.6138 -0.2665  0.3011
 8463TIP3    H146880   1.744   5.750   0.587  1.0963  0.3891  0.5205
 8463TIP3    H246881   1.618   5.704   0.657 -0.5038  1.7955 -1.3293
 8464TIP3   OH246882   3.049   0.760  17.278  0.0636  0.2462  0.2456
 8464TIP3    H146883   3.085   0.706  17.207 -2.6160  1.5419 -2.3489
 8464TIP3    H246884   3.089   0.725  17.358  5.3772  0.3279 -1.9506
 8465TIP3   OH246885   5.256   5.324   6.570 -0.0870 -0.1810 -0.0466
 8465TIP3    H146886   5.278   5.409   6.532  0.7541 -0.6509 -0.6503
 8465TIP3    H246887   5.333   5.300   6.622 -0.4776 -0.3931  0.4382
 8466TIP3   OH246888   3.861   5.530  13.606  0.1217 -0.2639 -0.9451
 8466TIP3    H146889   3.801   5.519  13.680 -1.7657  1.4391 -2.1432
 8466TIP3    H246890   3.928   5.590  13.638 -1.3148  1.3745 -0.9187
 8467TIP3   OH246891   3.416   3.121   5.446  0.8868  0.6350  0.3476
 8467TIP3    H146892   3.406   3.060   5.519 -1.0228  0.5059  0.0321
 8467TIP3    H246893   3.448   3.202   5.486  2.2137 -0.1409  0.9468
 8468TIP3   OH246894   3.817   1.951  16.204  0.0808 -0.7679  0.0181
 8468TIP3    H146895   3.807   1.873  16.149 -1.1433 -0.5914 -0.0503
 8468TIP3    H246896   3.910   1.955  16.224  0.2248 -2.0385 -0.2882
 8469TIP3   OH246897   4.634   4.945  14.618 -0.7871 -0.2797 -0.2490
 8469TIP3    H146898   4.605   4.858  14.645 -0.0958 -0.3535  0.3067
 8469TIP3    H246899   4.554   4.992  14.597 -1.4750 -0.0631  2.4398
 8470TIP3   OH246900   1.190   5.414  16.558  0.4867 -0.4243 -0.5372
 8470TIP3    H146901   1.117   5.434  16.500  0.7779 -0.3452 -0.8833
 8470TIP3    H246902   1.188   5.319  16.569  1.6742 -0.7039 -2.3739
 8471TIP3   OH246903   4.652   5.122   5.151 -0.2615  0.2102 -0.4699
 8471TIP3    H146904   4.614   5.043   5.113 -3.5976  1.2782  0.3186
 8471TIP3    H246905   4.627   5.193   5.091  0.6308  0.9995  0.0488
 8472TIP3   OH246906   4.161   2.137   5.725  0.0279 -0.5623  0.5667
 8472TIP3    H146907   4.171   2.187   5.806  0.0225 -0.1004  0.2837
 8472TIP3    H246908   4.070   2.150   5.699 -0.7244 -2.7773  1.8285
 8473TIP3   OH246909   4.218   3.434   6.284 -0.1510 -0.2233  0.0114
 8473TIP3    H146910   4.137   3.384   6.297 -0.1651  0.2053  1.9421
 8473TIP3    H246911   4.201   3.517   6.330  0.4878  0.9076 -1.6824
 8474TIP3   OH246912   5.353   4.666   2.983  0.1578  0.6731  0.3982
 8474TIP3    H146913   5.331   4.696   2.895  0.5598  0.0286  0.0704
 8474TIP3    H246914   5.316   4.578   2.989 -2.4276  1.7645  1.9191
 8475TIP3   OH246915   6.700   0.856  12.993 -0.0278 -0.5975  0.1600
 8475TIP3    H146916   6.702   0.811  12.908 -1.8534  0.1605 -0.3254
 8475TIP3    H246917   6.645   0.800  13.048  1.2051 -1.1200  0.9024
 8476TIP3   OH246918   1.160   0.433   3.667  0.0208 -0.2340  0.6397
 8476TIP3    H146919   1.109   0.378   3.727 -0.9869 -0.7399 -0.6355
 8476TIP3    H246920   1.113   0.428   3.584  1.3834  0.4394 -0.2098
 8477TIP3   OH246921   4.358   4.432   2.732 -0.2204  0.0322  0.1230
 8477TIP3    H146922   4.281   4.385   2.699 -0.0615 -0.3703  0.3158
 8477TIP3    H246923   4.427   4.366   2.735  0.2001  0.4524 -0.2732
 8478TIP3   OH246924   0.902   0.922   2.591  0.0882  0.1269 -0.1185
 8478TIP3    H146925   0.865   0.962   2.670 -0.4757  1.7968 -1.1704
 8478TIP3    H246926   0.898   0.992   2.525 -0.8553 -1.6552 -2.0562
 8479TIP3   OH246927   1.767   3.372  11.211  0.0386 -0.3383 -0.0380
 8479TIP3    H146928   1.815   3.292  11.233  2.3854  0.7427 -0.9177
 8479TIP3    H246929   1.754   3.416  11.295  0.5520 -0.6762  0.2212
 8480TIP3   OH246930   4.707   5.223  12.077  0.6100  0.1698 -0.1196
 8480TIP3    H146931   4.672   5.154  12.133 -0.9875  1.2897  0.3278
 8480TIP3    H246932   4.686   5.195  11.988 -1.0661  0.5910  0.1185
 8481TIP3   OH246933   3.381   0.995  15.997  0.2798  0.3548  0.4043
 8481TIP3    H146934   3.321   1.055  15.953  0.0070 -0.1349  0.1088
 8481TIP3    H246935   3.466   1.040  15.994  0.3523  0.1649 -0.9475
 8482TIP3   OH246936   3.770   4.562  10.755 -0.0758 -0.3026  0.2719
 8482TIP3    H146937   3.701   4.628  10.761 -0.8934 -1.1427  0.3659
 8482TIP3    H246938   3.822   4.575  10.835  0.1878  0.6664 -0.0475
 8483TIP3   OH246939   0.572   5.880   2.843  0.5748  0.3174  0.7077
 8483TIP3    H146940   0.635   5.947   2.868  1.8350 -0.6679  0.2789
 8483TIP3    H246941   0.499   5.893   2.903  1.7419  0.6538  2.1121
 8484TIP3   OH246942   5.645   6.737  16.094  0.2873 -0.0403  0.0731
 8484TIP3    H146943   5.712   6.789  16.139  0.6470 -0.5189  0.0913
 8484TIP3    H246944   5.573   6.731  16.157 -0.1465  1.2159 -0.2707
 8485TIP3   OH246945   6.281   5.041   3.693  0.6479  0.0376  0.3710
 8485TIP3    H146946   6.326   4.968   3.651  0.9787  0.4075  0.0729
 8485TIP3    H246947   6.335   5.062   3.770  0.7423  0.1923  0.2628
 8486TIP3   OH246948   3.443   1.067  13.910  0.1309 -0.2569  0.1655
 8486TIP3    H146949   3.353   1.055  13.942  0.0153  2.4151  1.1601
 8486TIP3    H246950   3.477   0.979  13.898 -2.4298 -1.3522  0.3251
 8487TIP3   OH246951   3.644   0.041  11.953  0.3016  0.4259 -0.2882
 8487TIP3    H146952   3.574  -0.024  11.947  0.3497  0.4570 -1.3655
 8487TIP3    H246953   3.686   0.039  11.867  1.4365  0.6247  0.2519
 8488TIP3   OH246954   3.932   2.152  13.514  0.2103  0.0475  0.2222
 8488TIP3    H146955   3.953   2.227  13.569  1.0361 -0.0363  0.0423
 8488TIP3    H246956   4.012   2.099  13.515 -0.5255 -1.0792  0.7342
 8489TIP3   OH246957   4.593   4.116   5.904  0.3418  0.2193  0.1455
 8489TIP3    H146958   4.505   4.109   5.867  0.0131 -0.9256  1.0895
 8489TIP3    H246959   4.651   4.121   5.828 -0.5321  1.1576 -0.4839
 8490TIP3   OH246960   5.956   1.342  15.218 -0.2190 -0.0581 -0.2289
 8490TIP3    H146961   5.949   1.372  15.128  0.9615 -1.7933 -0.9555
 8490TIP3    H246962   5.912   1.256  15.218  0.0154 -0.1916  0.7838
 8491TIP3   OH246963   1.646   2.589   0.342 -0.0162  0.0828 -0.1435
 8491TIP3    H146964   1.725   2.615   0.388 -0.4281 -0.5923  0.9929
 8491TIP3    H246965   1.574   2.617   0.399 -0.5584 -0.3239 -0.6056
 8492TIP3   OH246966   1.016   4.983  11.697  0.2663 -0.1119  0.2078
 8492TIP3    H146967   1.084   5.050  11.689  0.6883 -0.6384 -0.9628
 8492TIP3    H246968   0.940   5.021  11.653 -0.0448  0.2649  1.0510
 8493TIP3   OH246969   5.912   1.114   2.147 -0.2369  0.1145  0.5255
 8493TIP3    H146970   5.996   1.158   2.158 -0.1341 -0.3768  1.9114
 8493TIP3    H246971   5.922   1.064   2.066  0.9627 -0.2416  0.8607
 8494TIP3   OH246972   3.893   0.680   5.190  0.4780 -0.2675  0.5249
 8494TIP3    H146973   3.901   0.613   5.122  1.2820 -0.1439  0.4865
 8494TIP3    H246974   3.803   0.713   5.180  0.8781  0.4553 -1.1644
 8495TIP3   OH246975   3.438   2.778   4.040 -0.0835  0.1036 -0.2457
 8495TIP3    H146976   3.483   2.697   4.061 -1.4208 -0.6369 -0.1598
 8495TIP3    H246977   3.480   2.808   3.959  1.2842  0.0365  0.4054
 8496TIP3   OH246978   6.251   4.016  11.399 -0.0585 -0.2196  0.4944
 8496TIP3    H146979   6.155   4.017  11.395 -0.1363 -1.4410  1.2808
 8496TIP3    H246980   6.278   4.008  11.307 -0.6281  1.5701  0.1262
 8497TIP3   OH246981   5.456   2.190  11.444  0.5836  0.0978 -0.5460
 8497TIP3    H146982   5.371   2.162  11.410 -1.1279  2.2711  1.5668
 8497TIP3    H246983   5.497   2.109  11.476 -0.8317 -0.9658 -1.2944
 8498TIP3   OH246984   3.720   5.669  12.619 -0.0710 -0.1729  0.0046
 8498TIP3    H146985   3.724   5.639  12.710  1.9869 -1.5689 -0.4817
 8498TIP3    H246986   3.642   5.725  12.616 -0.0909  0.0680  2.6479
 8499TIP3   OH246987   4.031   1.711  11.920 -0.0525  0.2800  0.1796
 8499TIP3    H146988   4.029   1.664  12.003  1.1389  0.6443  0.4307
 8499TIP3    H246989   4.013   1.644  11.854 -1.0852  0.0016  0.7180
 8500TIP3   OH246990   1.274   1.639  14.283  0.3480 -0.2047 -0.6058
 8500TIP3    H146991   1.369   1.646  14.273  0.4247 -0.6499 -0.2260
 8500TIP3    H246992   1.239   1.718  14.241  0.8872 -0.0166 -0.7018
 8501TIP3   OH246993   4.481   0.030   1.231 -0.7333 -0.0185 -0.2671
 8501TIP3    H146994   4.544  -0.027   1.275 -1.0276 -1.2813 -1.4068
 8501TIP3    H246995   4.461   0.098   1.295  1.9104  0.5406  0.0708
 8502TIP3   OH246996   2.981   6.179  14.760 -0.0332 -0.5146 -0.1929
 8502TIP3    H146997   2.923   6.216  14.827  1.7162  0.4381  0.8692
 8502TIP3    H246998   3.038   6.120  14.808 -0.7140 -2.2038 -1.3853
 8503TIP3   OH246999   1.797   5.173   4.309 -0.6259  0.0183 -0.2484
 8503TIP3    H147000   1.793   5.259   4.351 -1.5210  0.2787 -0.8461
 8503TIP3    H247001   1.882   5.172   4.264 -0.1617  0.1755  0.6121
 8504TIP3   OH247002   1.277   4.250   5.725  0.3082 -0.4753  0.0279
 8504TIP3    H147003   1.324   4.227   5.645 -0.7206 -0.3119 -0.6314
 8504TIP3    H247004   1.346   4.257   5.791  1.2415 -0.0543 -0.9594
 8505TIP3   OH247005   2.938   4.372   5.077  0.3301  0.5206  0.3271
 8505TIP3    H147006   3.012   4.419   5.038  1.3592 -0.1055  1.4297
 8505TIP3    H247007   2.877   4.441   5.104  0.6410  1.0663 -0.3477
 8506TIP3   OH247008   1.912   5.251  15.417 -0.0943 -0.0602  0.4592
 8506TIP3    H147009   1.904   5.172  15.471 -1.3932 -0.3846 -0.1574
 8506TIP3    H247010   1.861   5.232  15.338 -1.7654  1.9306  0.9475
 8507TIP3   OH247011   0.167   2.248   5.133  0.0473  0.3615  0.6033
 8507TIP3    H147012   0.216   2.324   5.103  0.4976  0.1708  0.8372
 8507TIP3    H247013   0.229   2.200   5.188  0.0534 -0.6318 -0.2435
 8508TIP3   OH247014   6.190   3.810  16.969 -0.1254 -0.2241  0.1453
 8508TIP3    H147015   6.149   3.725  16.983  1.9683 -1.2719  0.2402
 8508TIP3    H247016   6.157   3.864  17.041 -3.3079 -0.1442 -1.1867
 8509TIP3   OH247017   6.435   1.947   0.546 -0.0090  0.4928 -0.2772
 8509TIP3    H147018   6.370   1.985   0.605  0.0004  2.3025 -1.3481
 8509TIP3    H247019   6.383   1.894   0.485 -0.4059  1.2264 -0.5954
 8510TIP3   OH247020   5.017   5.874  11.589 -0.0644 -0.2683 -0.2291
 8510TIP3    H147021   4.926   5.856  11.613 -0.0433 -1.3685 -0.8789
 8510TIP3    H247022   5.012   5.947  11.528 -0.5851 -0.7529 -0.7778
 8511TIP3   OH247023   5.526   0.188  14.430  0.5851  0.1821 -0.2299
 8511TIP3    H147024   5.461   0.227  14.488 -0.4001 -0.6906 -0.6901
 8511TIP3    H247025   5.481   0.111  14.394  2.1351 -0.8634 -0.0156
 8512TIP3   OH247026   1.759   3.117  14.446  0.0906 -0.0501  0.1153
 8512TIP3    H147027   1.773   3.032  14.405  1.0014 -0.3442  0.9962
 8512TIP3    H247028   1.790   3.180  14.381  0.4646 -0.4489 -0.0967
 8513TIP3   OH247029   4.768   5.050   3.951 -0.2230 -0.0164  0.4340
 8513TIP3    H147030   4.862   5.066   3.939 -0.5281  1.4714 -0.3112
 8513TIP3    H247031   4.746   4.987   3.882  0.1256  0.0728  0.2356
 8514TIP3   OH247032   1.803   0.733  13.489 -0.5664  0.2454  0.4736
 8514TIP3    H147033   1.720   0.692  13.512 -0.8218 -0.5495 -1.6862
 8514TIP3    H247034   1.841   0.676  13.423  0.8327  1.5855  0.0517
 8515TIP3   OH247035   5.259   1.965   2.058 -0.3703  0.3161  0.2992
 8515TIP3    H147036   5.219   1.906   1.994  0.5052  0.1038 -0.0748
 8515TIP3    H247037   5.283   1.907   2.131  1.3994 -0.0050 -0.4888
 8516TIP3   OH247038   6.501   0.875  15.545 -0.2954 -0.3801 -0.0314
 8516TIP3    H147039   6.525   0.811  15.477 -0.5638 -1.6226  0.9932
 8516TIP3    H247040   6.412   0.902  15.522 -0.9173 -1.8344  0.5447
 8517TIP3   OH247041   4.552   4.451  16.859 -0.2221 -0.2364  0.4519
 8517TIP3    H147042   4.589   4.375  16.814  0.5689 -0.7135  1.8499
 8517TIP3    H247043   4.473   4.418  16.902  0.3456 -0.3977  1.4042
 8518TIP3   OH247044   5.707   0.522   1.769 -0.1808 -0.0227  0.4651
 8518TIP3    H147045   5.756   0.443   1.745  0.1726  0.9382 -2.2851
 8518TIP3    H247046   5.763   0.567   1.832  0.8716 -0.6634  0.0052
 8519TIP3   OH247047   4.753   4.470   4.069  0.3122  0.0867  0.4201
 8519TIP3    H147048   4.820   4.521   4.116 -0.5676  0.6801  1.0552
 8519TIP3    H247049   4.683   4.533   4.053 -0.8094 -0.9219  1.2348
 8520TIP3   OH247050   2.277   3.822  14.939 -0.0623 -0.3243 -0.3409
 8520TIP3    H147051   2.321   3.809  15.023 -0.1412 -1.1291 -0.4146
 8520TIP3    H247052   2.186   3.799  14.955 -0.1613 -0.0776 -0.5443
 8521TIP3   OH247053   4.578   5.670  16.525 -0.0616 -0.3613  0.0006
 8521TIP3    H147054   4.547   5.704  16.608 -0.4173  0.1292 -0.3288
 8521TIP3    H247055   4.518   5.597  16.505  2.0129 -2.7292  1.7841
 8522TIP3   OH247056   5.548   0.305  16.816 -0.4279  0.0292 -0.2521
 8522TIP3    H147057   5.590   0.259  16.743 -0.9640 -0.9332  0.0212
 8522TIP3    H247058   5.466   0.337  16.779 -1.7216 -2.2699  0.3810
 8523TIP3   OH247059   4.213   0.763   3.986  0.4535 -0.1171  0.7695
 8523TIP3    H147060   4.263   0.844   3.979  1.5415 -0.6194  2.1918
 8523TIP3    H247061   4.136   0.786   4.038  0.5452  0.0959  0.8085
 8524TIP3   OH247062   0.377   4.592   1.863 -0.2307 -0.6126 -0.3940
 8524TIP3    H147063   0.291   4.607   1.903  0.0551  0.2996 -0.0836
 8524TIP3    H247064   0.387   4.663   1.800  1.0971  0.5105  0.9832
 8525TIP3   OH247065   1.949   1.481  14.783 -0.2894 -0.3623 -0.0323
 8525TIP3    H147066   2.022   1.468  14.722 -1.0853  3.2306 -2.0518
 8525TIP3    H247067   1.872   1.448  14.737 -0.7000  1.0851 -0.4192
 8526TIP3   OH247068   2.953   0.813   2.083 -0.2274 -0.3195  0.0947
 8526TIP3    H147069   2.963   0.825   1.989 -1.3597 -3.2327 -0.5168
 8526TIP3    H247070   2.859   0.796   2.095 -0.5244  2.1377  2.1347
 8527TIP3   OH247071   0.813   0.789  17.274  0.0789 -0.1040  0.0518
 8527TIP3    H147072   0.829   0.818  17.364  0.5397  0.6429 -0.2655
 8527TIP3    H247073   0.783   0.867  17.228 -1.4266 -0.7780 -0.1467
 8528TIP3   OH247074   1.352   6.092  12.567 -0.2801 -0.5535 -0.3819
 8528TIP3    H147075   1.295   6.119  12.495 -2.1562 -2.5421  0.2418
 8528TIP3    H247076   1.305   6.117  12.646  1.1031  0.3261  0.2120
 8529TIP3   OH247077   2.935   5.635   3.842  0.3807 -0.1496 -0.3851
 8529TIP3    H147078   2.854   5.684   3.829 -0.4977 -1.0911  1.2790
 8529TIP3    H247079   2.909   5.543   3.835  1.2302 -0.4686  0.4481
 8530TIP3   OH247080   0.319   5.310  12.491 -0.0203 -0.0484 -0.3852
 8530TIP3    H147081   0.335   5.240  12.429  0.0409 -0.2352 -0.1621
 8530TIP3    H247082   0.363   5.281  12.571  0.7024  0.6189 -0.5339
 8531TIP3   OH247083   2.034   1.437  10.748  0.0469 -0.0004  0.2997
 8531TIP3    H147084   2.017   1.404  10.660  0.1666  1.3723 -0.2713
 8531TIP3    H247085   2.039   1.359  10.803  0.1914 -0.8956 -0.9454
 8532TIP3   OH247086   0.113   4.688  12.947  0.4132 -0.3624 -0.3396
 8532TIP3    H147087   0.041   4.744  12.977  0.6180 -1.0676  1.6288
 8532TIP3    H247088   0.113   4.698  12.852 -1.5695  0.5240 -0.3048
 8533TIP3   OH247089   5.383   2.124  12.986  0.4245 -0.0325 -0.0136
 8533TIP3    H147090   5.388   2.192  12.918 -0.7554  0.4823  0.3780
 8533TIP3    H247091   5.379   2.173  13.068  0.0234 -0.5847  0.3048
 8534TIP3   OH247092   3.279   1.102  15.229 -0.0588  0.1485 -0.0326
 8534TIP3    H147093   3.274   1.034  15.296 -1.0189  0.0030 -0.2409
 8534TIP3    H247094   3.318   1.058  15.154  1.5371  0.4489  0.5694
 8535TIP3   OH247095   6.598   3.581   3.707 -0.0790 -0.0689 -0.3627
 8535TIP3    H147096   6.625   3.499   3.666 -1.6309 -0.2079 -1.1710
 8535TIP3    H247097   6.512   3.599   3.670  0.8713  2.7701 -1.4677
 8536TIP3   OH247098   0.639   2.866  15.118 -0.0626 -0.1938 -0.0470
 8536TIP3    H147099   0.570   2.893  15.179 -0.1180  0.3082 -0.3314
 8536TIP3    H247100   0.704   2.936  15.123 -0.1849 -0.0298 -0.7535
 8537TIP3   OH247101   4.849   1.281   2.676  0.3295 -0.0220  0.4109
 8537TIP3    H147102   4.804   1.366   2.672  0.3822  0.0169  0.6169
 8537TIP3    H247103   4.888   1.279   2.763  0.9888  0.0738  0.1204
 8538TIP3   OH247104   1.609   1.874   1.113 -0.1131  0.4361  0.8825
 8538TIP3    H147105   1.670   1.933   1.069  0.6617  0.1544  1.5519
 8538TIP3    H247106   1.543   1.931   1.153 -0.6388  0.7152 -0.3270
 8539TIP3   OH247107   1.613   6.360  15.227  0.6102  0.0341 -0.8283
 8539TIP3    H147108   1.706   6.358  15.251  0.5057  0.8288 -0.3430
 8539TIP3    H247109   1.614   6.368  15.131  1.0419  0.4708 -0.7917
 8540TIP3   OH247110   4.931   6.353  11.960  0.1973  0.7587  0.7032
 8540TIP3    H147111   4.949   6.259  11.966 -1.6886  0.1171 -2.1042
 8540TIP3    H247112   5.013   6.392  11.931  0.4614 -0.3187 -0.0193
 8541TIP3   OH247113   6.186   0.378  12.133 -0.8536 -0.0310  0.2170
 8541TIP3    H147114   6.145   0.318  12.195 -1.7808 -1.2120 -1.4612
 8541TIP3    H247115   6.249   0.324  12.085  0.3978  1.0374  0.5771
 8542TIP3   OH247116   6.040   2.851   4.478  0.2380 -0.0631  0.5549
 8542TIP3    H147117   6.003   2.788   4.416 -1.5158  0.9513  0.5095
 8542TIP3    H247118   6.003   2.935   4.451  1.8210  0.8664  1.1647
 8543TIP3   OH247119   3.340   2.104  12.236 -0.1802  0.1862  0.0215
 8543TIP3    H147120   3.359   2.163  12.309 -0.7961  0.2969  0.0994
 8543TIP3    H247121   3.420   2.053  12.225  0.5171  1.3238 -0.3215
 8544TIP3   OH247122   1.213   0.417  12.802 -0.0942  0.2398 -0.4231
 8544TIP3    H147123   1.263   0.400  12.722 -0.7986 -0.9266 -0.6306
 8544TIP3    H247124   1.122   0.410  12.776 -0.3351 -0.0732  0.4711
 8545TIP3   OH247125   1.994   3.895  16.621  0.2088  0.3590 -0.2054
 8545TIP3    H147126   2.014   3.894  16.715  0.8571 -3.0517 -0.2221
 8545TIP3    H247127   1.908   3.852  16.614 -0.4960  1.8383 -1.1217
 8546TIP3   OH247128   6.760   5.719   1.422  0.4995 -0.0535  0.5092
 8546TIP3    H147129   6.856   5.720   1.418  0.4614  0.4215 -0.4734
 8546TIP3    H247130   6.740   5.652   1.488  1.5173  0.3294  1.2418
 8547TIP3   OH247131   5.610   6.583  13.611  0.1761  0.0102 -0.3588
 8547TIP3    H147132   5.588   6.607  13.521 -0.6708  1.3914  0.1781
 8547TIP3    H247133   5.561   6.646  13.665 -0.1079 -1.3879  1.0913
 8548TIP3   OH247134   2.206   3.544  14.659 -0.0639  0.3603  0.0310
 8548TIP3    H147135   2.284   3.513  14.705  0.1629  1.1240  0.1734
 8548TIP3    H247136   2.133   3.507  14.708  0.1935  0.3843  0.4362
 8549TIP3   OH247137   0.282   6.773   2.081  0.2870 -0.4049  0.3063
 8549TIP3    H147138   0.294   6.852   2.134 -1.1418  0.4256 -0.5425
 8549TIP3    H247139   0.324   6.704   2.132  2.7579  1.0794  0.4733
 8550TIP3   OH247140   4.885   4.875  14.744 -0.2828  0.0917 -0.1825
 8550TIP3    H147141   4.920   4.786  14.734 -1.8180 -0.5426 -0.1724
 8550TIP3    H247142   4.836   4.891  14.664  0.8127  1.3716 -0.6433
 8551TIP3   OH247143   1.652   6.541   4.691 -0.0584  0.0421 -0.2792
 8551TIP3    H147144   1.573   6.591   4.671  1.0027  1.1172 -2.1450
 8551TIP3    H247145   1.692   6.585   4.765 -0.1681  0.7747 -0.6505
 8552TIP3   OH247146   1.700   0.658   5.567 -0.3174  0.3353 -0.4863
 8552TIP3    H147147   1.782   0.705   5.553 -0.0619 -0.0080 -0.1716
 8552TIP3    H247148   1.684   0.612   5.484  1.2915 -1.8560  0.3261
 8553TIP3   OH247149   1.979   2.412  11.828  0.1416  0.3983  0.2085
 8553TIP3    H147150   2.025   2.372  11.901 -2.5411 -1.6943  0.8828
 8553TIP3    H247151   1.993   2.352  11.755 -1.9499 -0.6438  0.6019
 8554TIP3   OH247152   1.835   0.436   2.703  0.3775 -0.2351 -0.4113
 8554TIP3    H147153   1.790   0.516   2.675 -0.2128 -0.6319 -0.6198
 8554TIP3    H247154   1.862   0.454   2.793 -0.9199 -0.2645  0.0139
 8555TIP3   OH247155   6.088   3.762  13.242 -0.0508  0.3584  0.1522
 8555TIP3    H147156   6.000   3.761  13.281  0.0037  1.1356  0.2986
 8555TIP3    H247157   6.136   3.695  13.290 -0.0268  1.1943  1.3394
 8556TIP3   OH247158   6.225   6.779  13.862 -0.5502 -0.1242 -0.4289
 8556TIP3    H147159   6.267   6.699  13.830 -1.8031 -0.4842 -1.2201
 8556TIP3    H247160   6.134   6.754  13.878 -0.4832  0.6198  1.3549
 8557TIP3   OH247161   0.835   0.456   4.066  0.5226  0.2955  0.1957
 8557TIP3    H147162   0.825   0.363   4.085 -0.8561  0.6051  1.1198
 8557TIP3    H247163   0.747   0.485   4.041  1.2279  1.0468 -1.6275
 8558TIP3   OH247164   1.166   0.899   4.205 -0.5220  0.6393  0.1917
 8558TIP3    H147165   1.102   0.829   4.216  0.2958 -0.3988 -1.2611
 8558TIP3    H247166   1.209   0.907   4.290 -0.7076 -0.5747  0.4064
 8559TIP3   OH247167   3.181   5.715   0.626  0.8052  0.0625 -0.7308
 8559TIP3    H147168   3.119   5.679   0.689  2.4513 -1.5177  0.0781
 8559TIP3    H247169   3.129   5.731   0.548 -0.6756 -0.8898  0.0151
 8560TIP3   OH247170   3.225   3.098   1.951 -0.2579 -0.3027 -0.4462
 8560TIP3    H147171   3.293   3.117   1.886 -0.3268 -0.1477 -0.4739
 8560TIP3    H247172   3.236   3.166   2.017 -1.5034  0.7955 -1.3140
 8561TIP3   OH247173   5.169   0.868  13.203  0.1841 -0.1573 -0.1829
 8561TIP3    H147174   5.265   0.862  13.205  0.1274 -2.0547 -0.4374
 8561TIP3    H247175   5.146   0.835  13.116 -0.6281  2.9192 -1.2397
 8562TIP3   OH247176   2.665   1.692  10.778  0.2631  0.4714  0.2276
 8562TIP3    H147177   2.680   1.644  10.860 -1.0872 -0.2244  0.1035
 8562TIP3    H247178   2.749   1.732  10.757  1.6350 -2.3109  0.0193
 8563TIP3   OH247179   4.540   6.353   5.461 -0.4824 -0.0302 -0.4976
 8563TIP3    H147180   4.619   6.328   5.509  0.0452  0.6622 -0.9901
 8563TIP3    H247181   4.521   6.278   5.405  0.2321  0.0808 -0.8921
 8564TIP3   OH247182   3.492   1.572   0.134 -0.5271  0.1237 -0.0064
 8564TIP3    H147183   3.527   1.590   0.047  1.4029  0.0786  0.7273
 8564TIP3    H247184   3.514   1.650   0.186 -2.1934  0.4136  0.3240
 8565TIP3   OH247185   6.755   3.667   2.491 -0.1254  0.0323 -0.9579
 8565TIP3    H147186   6.850   3.666   2.482  0.0175 -1.2140  0.3380
 8565TIP3    H247187   6.728   3.577   2.474 -0.7412 -0.2700  1.2456
 8566TIP3   OH247188   3.264   0.258  16.413 -0.2665 -0.3514  0.0254
 8566TIP3    H147189   3.234   0.217  16.332  2.3572 -1.3232 -0.5421
 8566TIP3    H247190   3.309   0.188  16.460  0.2517  0.7654  1.2403
 8567TIP3   OH247191   4.674   5.530  12.859  0.2522 -0.0067  0.2684
 8567TIP3    H147192   4.761   5.545  12.897  0.2780  1.7645 -0.3793
 8567TIP3    H247193   4.617   5.592  12.906 -0.9522 -1.9666  1.5360
 8568TIP3   OH247194   0.980   3.273   2.806  0.1910 -0.1709 -0.4896
 8568TIP3    H147195   0.975   3.313   2.893 -1.5962 -0.7668 -0.2770
 8568TIP3    H247196   0.984   3.347   2.745 -3.9224  0.5124 -0.1628
 8569TIP3   OH247197   1.713   4.028  14.962  0.0311 -0.1006  0.6664
 8569TIP3    H147198   1.760   4.069  15.034 -1.1078 -1.5184  2.2985
 8569TIP3    H247199   1.625   4.014  14.996 -0.5247 -0.8810 -0.9854
 8570TIP3   OH247200   2.865   2.498   2.590  0.4619 -0.2150 -0.5879
 8570TIP3    H147201   2.892   2.439   2.660 -2.5384  1.3719  2.2100
 8570TIP3    H247202   2.781   2.463   2.560  0.9143  0.0694 -2.3372
 8571TIP3   OH247203   2.607   0.612  12.354 -0.6950 -0.2951  0.3936
 8571TIP3    H147204   2.612   0.706  12.335  0.6188 -0.5726 -0.7737
 8571TIP3    H247205   2.547   0.578  12.288  0.4750 -0.5852 -0.5437
 8572TIP3   OH247206   1.473   6.367  12.995 -0.0636  0.1010 -0.3358
 8572TIP3    H147207   1.503   6.361  13.086  0.6361 -1.5840 -0.6246
 8572TIP3    H247208   1.391   6.417  12.999  0.5326  1.0289  1.0561
 8573TIP3   OH247209   2.002   0.038  16.259  0.6596  0.3871 -0.1495
 8573TIP3    H147210   1.936   0.047  16.328  1.6762 -0.2578  0.9598
 8573TIP3    H247211   1.989   0.114  16.203 -1.0535  0.2487 -0.0057
 8574TIP3   OH247212   5.770   0.975   5.616 -0.4223  0.3882 -0.5182
 8574TIP3    H147213   5.723   0.922   5.552  1.5526  0.2276 -1.8906
 8574TIP3    H247214   5.850   0.926   5.634 -0.9829  0.3181  2.2907
 8575TIP3   OH247215   0.121   2.151   0.046  0.5510 -0.1609  0.5276
 8575TIP3    H147216   0.058   2.223   0.054 -1.3991 -1.7341  0.3728
 8575TIP3    H247217   0.153   2.138   0.136  1.7509  1.5155  0.3905
 8576TIP3   OH247218   0.794   2.514   5.752 -0.5219 -0.7729 -0.4208
 8576TIP3    H147219   0.733   2.440   5.754  0.6252 -1.7946  2.6401
 8576TIP3    H247220   0.854   2.497   5.824  0.6362  2.5109 -0.4627
 8577TIP3   OH247221   3.845   6.242   1.021  0.0930  0.1213  0.0169
 8577TIP3    H147222   3.870   6.178   0.954 -1.0545  1.6762 -1.9762
 8577TIP3    H247223   3.922   6.246   1.079  0.0380 -3.3753  0.5714
 8578TIP3   OH247224   4.383   2.945  16.964 -0.2568  0.4835  0.4178
 8578TIP3    H147225   4.331   2.991  16.899 -1.7198  3.7710  3.5452
 8578TIP3    H247226   4.327   2.874  16.994  0.1676 -0.6335 -1.2956
 8579TIP3   OH247227   4.316   2.363  13.459  0.2723 -0.2230 -0.1941
 8579TIP3    H147228   4.349   2.357  13.370  0.9697  0.4766  0.0077
 8579TIP3    H247229   4.231   2.406  13.451  0.1809 -0.4694 -0.5499
 8580TIP3   OH247230   5.506   4.509  14.622 -0.2150 -0.3801 -0.1774
 8580TIP3    H147231   5.455   4.466  14.692  1.6615 -0.3458  1.3059
 8580TIP3    H247232   5.478   4.601  14.625  1.5910  0.1944  2.3578
 8581TIP3   OH247233   5.775   3.341   2.118 -0.6250 -0.3996  0.1543
 8581TIP3    H147234   5.688   3.305   2.134 -0.5501 -0.5524  0.2185
 8581TIP3    H247235   5.833   3.265   2.117 -0.2653 -0.1861  1.6999
 8582TIP3   OH247236   5.427   3.797  16.815 -0.0121 -0.2516  0.2770
 8582TIP3    H147237   5.366   3.871  16.815  0.1365 -0.1148  1.6099
 8582TIP3    H247238   5.376   3.723  16.849  0.5171 -0.1555  1.3235
 8583TIP3   OH247239   2.814   0.256   5.671 -0.5642 -0.0440 -0.3243
 8583TIP3    H147240   2.902   0.225   5.652  0.0235  1.1782  0.3040
 8583TIP3    H247241   2.757   0.184   5.644  0.5145 -0.2942 -2.0872
 8584TIP3   OH247242   4.739   3.628   5.048  0.2327  0.4390 -0.5703
 8584TIP3    H147243   4.668   3.586   5.098  1.5745 -2.0825 -0.6257
 8584TIP3    H247244   4.703   3.639   4.960 -0.3438 -0.1517 -0.4182
 8585TIP3   OH247245   6.096   1.353   0.822 -0.0709 -0.2224 -0.2288
 8585TIP3    H147246   6.133   1.368   0.735  0.5395 -2.7140 -0.4687
 8585TIP3    H247247   6.103   1.259   0.835  0.7242  0.1756  2.9364
 8586TIP3   OH247248   6.088   1.041  16.329  0.0835 -0.0001  0.2570
 8586TIP3    H147249   6.146   1.014  16.258  0.7935  1.6023  0.1937
 8586TIP3    H247250   6.000   1.041  16.290  0.5859  1.9592 -0.9921
 8587TIP3   OH247251   4.032   1.309   1.253 -0.2120 -0.4118 -0.1031
 8587TIP3    H147252   4.078   1.297   1.170 -1.2643 -3.0709 -0.4010
 8587TIP3    H247253   3.958   1.248   1.248 -1.7044  1.1156  1.8171
 8588TIP3   OH247254   0.880   2.356  16.497 -0.3329 -0.0783 -0.4932
 8588TIP3    H147255   0.930   2.354  16.578 -0.5309 -1.0065 -0.3809
 8588TIP3    H247256   0.871   2.264  16.472  1.4691  0.2643 -2.6767
 8589TIP3   OH247257   4.314   6.654   2.256 -0.5897  0.2238  0.3330
 8589TIP3    H147258   4.233   6.603   2.253  0.0899 -0.9404  0.9601
 8589TIP3    H247259   4.337   6.669   2.164 -0.6256 -0.9234  0.1191
 8590TIP3   OH247260   5.038   2.722   0.546 -0.4566 -0.0655  0.2791
 8590TIP3    H147261   4.974   2.676   0.491  0.7276  2.2116 -3.3859
 8590TIP3    H247262   4.993   2.801   0.574 -0.8970 -1.0007  2.3967
 8591TIP3   OH247263   3.323   0.294   2.010  0.2995 -0.3417  0.3722
 8591TIP3    H147264   3.398   0.262   2.061  0.9202 -0.2799 -0.4886
 8591TIP3    H247265   3.347   0.383   1.984 -0.1264 -0.2766  0.1831
 8592TIP3   OH247266   2.909   4.128   1.353 -0.2120  0.2371  0.2283
 8592TIP3    H147267   2.870   4.181   1.283  0.1375 -0.5054 -0.5528
 8592TIP3    H247268   2.864   4.043   1.345 -0.4906  0.2866  1.2045
 8593TIP3   OH247269   6.222   6.593   3.576 -0.9496 -0.3895  0.0135
 8593TIP3    H147270   6.132   6.565   3.561 -1.2389 -0.3617  1.5713
 8593TIP3    H247271   6.214   6.676   3.623 -0.0943  0.2813 -0.9593
 8594TIP3   OH247272   0.406   3.942   4.537  0.3556 -0.8855 -0.0426
 8594TIP3    H147273   0.353   4.021   4.552  1.3735 -0.2725  0.4735
 8594TIP3    H247274   0.421   3.906   4.624 -2.3646 -3.2525 -0.4316
 8595TIP3   OH247275   5.304   6.447   1.400 -0.4761  0.0743 -0.3772
 8595TIP3    H147276   5.282   6.529   1.355 -2.7374 -0.3093 -0.0893
 8595TIP3    H247277   5.331   6.388   1.330  0.8680  0.9494 -0.6255
 8596TIP3   OH247278   5.511   0.127   1.269  0.2715 -0.3109 -0.5785
 8596TIP3    H147279   5.537   0.049   1.219  0.5834  0.2360 -1.2756
 8596TIP3    H247280   5.592   0.157   1.311 -0.1336 -1.2530  0.9909
 8597TIP3   OH247281   4.362   0.748  12.790 -0.1536 -0.3201  0.0258
 8597TIP3    H147282   4.332   0.717  12.876 -0.4332 -0.2711 -0.0526
 8597TIP3    H247283   4.288   0.732  12.732 -0.8253  1.6725  0.2477
 8598TIP3   OH247284   4.436   0.187  16.035 -0.1334  0.2972 -0.9973
 8598TIP3    H147285   4.393   0.101  16.035 -0.4780  0.4524  0.1538
 8598TIP3    H247286   4.412   0.225  15.951  0.3442 -0.8811 -1.6972
 8599TIP3   OH247287   4.917   4.617   0.088  0.2347 -0.4531 -0.3569
 8599TIP3    H147288   4.945   4.612   0.180  0.0856 -0.7793 -0.3292
 8599TIP3    H247289   4.963   4.694   0.054 -1.6911  1.2626  0.6816
 8600TIP3   OH247290   4.740   1.445   3.064 -0.0153 -0.2046  0.2896
 8600TIP3    H147291   4.817   1.494   3.035  0.2938  0.1920  1.7017
 8600TIP3    H247292   4.765   1.408   3.148 -0.3930 -2.4802 -0.5339
 8601TIP3   OH247293   3.267   1.388  14.200  0.2611  0.4647  0.2334
 8601TIP3    H147294   3.283   1.476  14.236 -1.7085  1.5343 -1.3305
 8601TIP3    H247295   3.349   1.366  14.156  0.9166  1.3371  0.9665
 8602TIP3   OH247296   4.594   2.338  13.147  0.1049  0.1779 -0.3430
 8602TIP3    H147297   4.520   2.285  13.177  0.7898 -0.7913 -0.3547
 8602TIP3    H247298   4.555   2.398  13.082 -0.8616  0.4248  0.4442
 8603TIP3   OH247299   6.730   0.919  10.469  0.2564 -0.4505 -0.7699
 8603TIP3    H147300   6.803   0.902  10.529  0.0337 -3.1055 -1.1370
 8603TIP3    H247301   6.704   1.009  10.488  0.8355 -0.8281  2.4357
 8604TIP3   OH247302   0.829   4.394   4.799 -0.0763 -0.4092 -0.4337
 8604TIP3    H147303   0.885   4.321   4.771 -0.0017 -0.4986 -0.0602
 8604TIP3    H247304   0.889   4.453   4.846  0.4203  1.1520 -2.8357
 8605TIP3   OH247305   4.375   3.728  12.606  0.5036  0.0633  0.6160
 8605TIP3    H147306   4.347   3.636  12.612 -0.0076  0.1642 -0.1760
 8605TIP3    H247307   4.380   3.745  12.512 -0.4562  1.1692  0.7524
 8606TIP3   OH247308   0.963   1.516   1.334  0.6178  0.5083 -0.3264
 8606TIP3    H147309   1.018   1.528   1.411 -1.6198  1.4864  1.2274
 8606TIP3    H247310   0.911   1.439   1.353  0.6651  0.2300 -1.2748
 8607TIP3   OH247311   4.242   3.471   5.184  0.0229  0.8533  1.0945
 8607TIP3    H147312   4.335   3.447   5.180  0.3003  1.8812  1.0835
 8607TIP3    H247313   4.207   3.446   5.098  0.2157  0.1941  1.2031
 8608TIP3   OH247314   5.960   0.975  12.242  0.5786 -0.0612  0.0155
 8608TIP3    H147315   6.023   1.016  12.183  0.5351  0.2889  0.2128
 8608TIP3    H247316   5.875   0.992  12.201  0.4769  0.9046  0.6006
 8609TIP3   OH247317   0.534   0.156   4.068 -0.3638  0.3347 -0.2636
 8609TIP3    H147318   0.463   0.177   4.007  0.4299  2.5334 -0.5202
 8609TIP3    H247319   0.505   0.194   4.151  0.0939  0.4354 -0.1481
 8610TIP3   OH247320   4.779   2.170  13.013 -0.2786  0.2383  0.5895
 8610TIP3    H147321   4.755   2.079  13.031  1.6376 -1.4080 -3.8848
 8610TIP3    H247322   4.708   2.222  13.051 -1.5492 -3.0385  3.1377
 8611TIP3   OH247323   4.993   6.124  16.913 -0.6134  0.3448 -0.4140
 8611TIP3    H147324   5.032   6.037  16.923  0.4541  0.7858 -0.5889
 8611TIP3    H247325   4.905   6.115  16.949 -0.2021 -0.5757  0.4144
 8612TIP3   OH247326   2.703   5.227   4.429 -0.1820  0.4625 -0.7587
 8612TIP3    H147327   2.654   5.160   4.382  0.0994 -1.5053  1.5401
 8612TIP3    H247328   2.646   5.251   4.502  0.3747  1.5844 -0.6803
 8613TIP3   OH247329   0.360   5.366   5.269  0.0391  0.3001  0.1598
 8613TIP3    H147330   0.319   5.419   5.338 -0.2356 -0.9477  1.0072
 8613TIP3    H247331   0.363   5.277   5.306  0.3749 -0.3069 -1.2408
 8614TIP3   OH247332   1.751   6.341   1.257 -0.4211  0.5803 -0.0492
 8614TIP3    H147333   1.663   6.306   1.243 -0.4364  0.6186 -0.0472
 8614TIP3    H247334   1.809   6.264   1.247 -0.3918  0.6880 -0.7466
 8615TIP3   OH247335   4.873   0.251  11.927  0.4850  0.0461 -0.1061
 8615TIP3    H147336   4.916   0.239  12.012  0.2994 -1.7725 -0.2430
 8615TIP3    H247337   4.935   0.215  11.864 -0.3295 -0.6681 -0.5108
 8616TIP3   OH247338   6.548   1.378   4.683  0.3743 -0.3527  0.1230
 8616TIP3    H147339   6.484   1.308   4.666  0.0798  0.0786 -0.6095
 8616TIP3    H247340   6.503   1.437   4.744 -0.6088  0.8126 -1.6304
 8617TIP3   OH247341   0.321   1.014  17.226 -0.0184  0.0111 -0.3682
 8617TIP3    H147342   0.314   0.948  17.158  0.0719 -0.5474  0.1570
 8617TIP3    H247343   0.270   0.979  17.299  0.2700  0.3843  0.0197
 8618TIP3   OH247344   0.867   6.474  15.331 -1.2697  0.2031  0.3052
 8618TIP3    H147345   0.880   6.537  15.260  1.5251  2.0700  2.2744
 8618TIP3    H247346   0.920   6.398  15.305 -1.6032  0.1899 -0.3532
 8619TIP3   OH247347   1.809   3.604   2.494  0.4704  0.0150 -0.1984
 8619TIP3    H147348   1.834   3.697   2.489  0.9234 -0.1213 -0.5494
 8619TIP3    H247349   1.825   3.580   2.585  1.0545  0.0888 -0.2779
 8620TIP3   OH247350   5.258   5.434   2.596 -0.0691 -0.0399  0.3632
 8620TIP3    H147351   5.170   5.465   2.617  0.0280  1.3041 -1.0409
 8620TIP3    H247352   5.244   5.358   2.540 -0.3134 -0.2620  0.7161
 8621TIP3   OH247353   1.357   2.173   2.749  0.5334 -0.0246 -0.4946
 8621TIP3    H147354   1.381   2.248   2.695 -0.2617  0.4166 -0.2536
 8621TIP3    H247355   1.385   2.097   2.699  0.7956  0.4125 -1.0192
 8622TIP3   OH247356   2.044   6.171   4.473 -0.2588 -0.2840  0.4318
 8622TIP3    H147357   1.978   6.240   4.488 -0.7012 -0.4966 -0.4323
 8622TIP3    H247358   1.992   6.093   4.452  0.2079 -1.1391  2.2469
 8623TIP3   OH247359   6.055   6.732  14.932  0.6889  0.1747  0.0145
 8623TIP3    H147360   6.034   6.644  14.964 -0.5169  0.6922  0.7167
 8623TIP3    H247361   6.013   6.737  14.847 -1.4878  0.9180  1.0612
 8624TIP3   OH247362   1.484   4.965   2.607 -0.6075  0.2461 -0.2895
 8624TIP3    H147363   1.534   5.016   2.544 -0.5217 -0.6183 -0.9512
 8624TIP3    H247364   1.545   4.899   2.639 -1.3825 -1.0555 -1.3869
 8625TIP3   OH247365   5.166   5.648  13.492  0.2578 -0.2019  0.1776
 8625TIP3    H147366   5.225   5.608  13.556 -0.7794 -1.5151  0.3511
 8625TIP3    H247367   5.079   5.633  13.527 -0.2370  4.0644  1.3394
 8626TIP3   OH247368   2.072   5.907  11.647  0.3379  0.2117  0.0741
 8626TIP3    H147369   2.131   5.839  11.680  0.4175  0.5613  0.6655
 8626TIP3    H247370   1.996   5.903  11.704 -0.0594  0.0077 -0.4643
 8627TIP3   OH247371   5.053   3.254  10.712 -0.1673  0.4553 -0.5540
 8627TIP3    H147372   5.096   3.189  10.767 -0.1948  1.0784  0.2101
 8627TIP3    H247373   5.018   3.203  10.639  2.8923  0.0457 -1.8906
 8628TIP3   OH247374   1.970   3.768  16.362  0.5110  0.0565  0.6989
 8628TIP3    H147375   1.989   3.821  16.439 -1.0275  0.0235  1.1479
 8628TIP3    H247376   1.976   3.678  16.393  1.4960 -0.0131  0.3484
 8629TIP3   OH247377   1.801   4.521  16.789  0.1870 -0.0489 -0.2469
 8629TIP3    H147378   1.733   4.588  16.798  0.2975  0.0028  0.2024
 8629TIP3    H247379   1.866   4.560  16.731  3.0959  2.5617  4.2555
 8630TIP3   OH247380   6.032   1.354   4.171 -0.1794  0.0884  0.3562
 8630TIP3    H147381   6.122   1.385   4.163 -0.3183  0.0174 -2.1777
 8630TIP3    H247382   5.980   1.434   4.175 -0.2921  0.3248 -3.0483
 8631TIP3   OH247383   4.342   3.884   3.595 -0.0766 -0.4501 -0.2446
 8631TIP3    H147384   4.256   3.857   3.627  0.1130 -0.5860  0.1582
 8631TIP3    H247385   4.383   3.802   3.567 -1.2579 -0.0835 -3.4426
 8632TIP3   OH247386   1.542   6.536   5.701  0.0586  0.6339  0.4461
 8632TIP3    H147387   1.451   6.550   5.727 -0.0575  0.1577  0.2996
 8632TIP3    H247388   1.537   6.494   5.615  0.3524 -1.3962  1.3487
 8633TIP3   OH247389   6.797   4.032   3.591  0.6237  0.1910  0.1972
 8633TIP3    H147390   6.800   3.943   3.627 -0.6146  0.5105  1.1834
 8633TIP3    H247391   6.883   4.069   3.611  1.6260 -1.1483 -1.3235
 8634TIP3   OH247392   0.719   5.095  11.551  0.1214 -0.3482  0.3212
 8634TIP3    H147393   0.691   5.026  11.611 -0.1231  0.0696  0.6922
 8634TIP3    H247394   0.760   5.161  11.607  0.3248 -0.1746 -0.0259
 8635TIP3   OH247395   3.184   1.115   5.235 -1.3377 -0.2181  0.2031
 8635TIP3    H147396   3.166   1.049   5.302  0.8077 -2.1943 -0.9911
 8635TIP3    H247397   3.187   1.065   5.153  1.3548  1.1070 -0.6176
 8636TIP3   OH247398   6.194   3.474   1.571 -0.2752  0.0980  0.2200
 8636TIP3    H147399   6.255   3.522   1.515 -0.9412  2.2095  1.2086
 8636TIP3    H247400   6.156   3.408   1.513  0.1765  1.2042 -1.4227
 8637TIP3   OH247401   4.985   1.283   6.557  0.0885 -0.9901  0.4765
 8637TIP3    H147402   4.968   1.287   6.463 -1.7891  2.1404  0.8082
 8637TIP3    H247403   4.929   1.212   6.588  0.9713 -2.2799 -0.7398
 8638TIP3   OH247404   3.183   1.925  14.059 -0.7271 -0.5131  0.3340
 8638TIP3    H147405   3.224   1.839  14.050 -1.7997 -1.0938  0.7165
 8638TIP3    H247406   3.143   1.941  13.973  2.6381  1.3896 -1.0449
 8639TIP3   OH247407   3.521   2.798   5.348 -0.1899  0.5444 -0.6184
 8639TIP3    H147408   3.486   2.806   5.436 -0.1083  1.0732 -0.6320
 8639TIP3    H247409   3.477   2.721   5.312 -0.6092  0.6271 -0.2952
 8640TIP3   OH247410   2.513   0.335   5.544  0.2286  0.2592 -0.1121
 8640TIP3    H147411   2.518   0.253   5.593  2.3280  0.0035 -0.6493
 8640TIP3    H247412   2.550   0.314   5.458  0.6433  1.7263 -0.3267
 8641TIP3   OH247413   3.194   6.657   1.086 -0.3772  0.0641 -0.3856
 8641TIP3    H147414   3.239   6.684   1.167 -0.1919 -0.0423 -0.4543
 8641TIP3    H247415   3.111   6.620   1.117 -1.1034  1.6536 -0.3374
 8642TIP3   OH247416   5.497   4.866   6.183  0.7329  0.4596 -0.1420
 8642TIP3    H147417   5.438   4.902   6.117  0.5650  1.2856  0.4404
 8642TIP3    H247418   5.502   4.773   6.163  0.8517  0.7350 -1.4407
 8643TIP3   OH247419   4.848   5.858   2.940  0.2245  0.0521 -0.1877
 8643TIP3    H147420   4.940   5.840   2.961  0.2779 -0.5069 -0.8436
 8643TIP3    H247421   4.851   5.936   2.885  0.2503  0.3762  0.2659
 8644TIP3   OH247422   3.362   4.779  14.705 -0.4025  0.0828  0.3739
 8644TIP3    H147423   3.439   4.825  14.674 -0.7846  1.7084  1.6483
 8644TIP3    H247424   3.386   4.687  14.704  1.1761  0.4780 -0.2416
 8645TIP3   OH247425   2.836   1.791  16.501 -0.1638 -0.6862 -0.6976
 8645TIP3    H147426   2.894   1.715  16.504  0.1221 -0.4479  0.0443
 8645TIP3    H247427   2.830   1.820  16.592  0.0102  0.3876 -1.0173
 8646TIP3   OH247428   4.857   0.072  13.921 -0.7331 -0.3301  0.4049
 8646TIP3    H147429   4.900   0.156  13.905  1.1370 -1.5709 -1.8328
 8646TIP3    H247430   4.902   0.036  13.997 -2.6745  1.2936  2.4439
 8647TIP3   OH247431   3.468   0.273  10.625 -0.6057 -0.2373 -0.4271
 8647TIP3    H147432   3.391   0.300  10.574 -0.4411 -0.1033 -0.6046
 8647TIP3    H247433   3.501   0.354  10.664 -0.7993 -0.3565 -0.0102
 8648TIP3   OH247434   2.859   4.039   1.931  0.2633  0.4313  0.4231
 8648TIP3    H147435   2.855   4.015   1.838 -3.2919  0.0645  0.5319
 8648TIP3    H247436   2.816   4.124   1.936  0.0721  0.2782  1.7727
 8649TIP3   OH247437   3.139   1.150  14.195 -0.0869  0.4654 -0.1421
 8649TIP3    H147438   3.199   1.105  14.136  0.6565  0.1149  0.8501
 8649TIP3    H247439   3.182   1.234  14.215 -0.8391  1.0557 -0.9317
 8650TIP3   OH247440   1.146   0.304  10.647  0.3348 -0.1859  0.2342
 8650TIP3    H147441   1.055   0.278  10.658  0.0043 -1.9377 -4.4349
 8650TIP3    H247442   1.142   0.397  10.625 -0.5472 -0.4799 -0.9796
 8651TIP3   OH247443   3.345   2.708   0.757 -0.1142  0.1814 -0.0546
 8651TIP3    H147444   3.299   2.630   0.789 -0.3064 -0.8997 -2.6492
 8651TIP3    H247445   3.278   2.777   0.758 -0.4598 -0.1533  0.5782
 8652TIP3   OH247446   5.843   4.264  14.086 -0.1314 -0.4619 -0.7934
 8652TIP3    H147447   5.791   4.203  14.034  0.5451 -1.3409 -0.4729
 8652TIP3    H247448   5.929   4.221  14.094 -0.0018 -0.0168  0.4168
 8653TIP3   OH247449   0.656   3.805  16.095  0.9495  0.1710  0.1078
 8653TIP3    H147450   0.686   3.795  16.005  1.1370 -0.6415  0.2584
 8653TIP3    H247451   0.620   3.720  16.118  1.9800  0.0026  1.1906
 8654TIP3   OH247452   1.653   2.634  11.634  0.1649 -0.0534  0.1294
 8654TIP3    H147453   1.681   2.543  11.647 -0.0562 -0.0488  0.6485
 8654TIP3    H247454   1.714   2.669  11.569  1.0694 -0.1889  0.8876
 8655TIP3   OH247455   0.914   5.377   1.067  0.1983 -0.5572 -0.7013
 8655TIP3    H147456   0.875   5.454   1.110  0.7823 -0.3118 -0.6034
 8655TIP3    H247457   0.888   5.386   0.975  3.7444  2.1244 -1.6619
 8656TIP3   OH247458   2.999   0.816  12.288 -0.1887 -0.3648 -0.1472
 8656TIP3    H147459   2.926   0.835  12.348  0.2935 -0.5328  0.5017
 8656TIP3    H247460   3.064   0.772  12.342 -0.1062 -1.3365 -0.9999
 8657TIP3   OH247461   6.764   6.167  14.619 -0.3100 -0.2546  0.5283
 8657TIP3    H147462   6.698   6.137  14.557  0.8174 -0.2614 -0.7170
 8657TIP3    H247463   6.797   6.248  14.581  2.8622 -1.9970 -0.8037
 8658TIP3   OH247464   6.538   1.319  11.855  0.3427  0.1899  0.8321
 8658TIP3    H147465   6.580   1.404  11.841 -0.0111  0.0775 -1.2128
 8658TIP3    H247466   6.611   1.258  11.864  0.6215  0.3348 -0.3591
 8659TIP3   OH247467   3.650   6.297   0.279  0.3933 -0.3420 -0.5009
 8659TIP3    H147468   3.659   6.207   0.249  0.3797 -0.8744  1.0221
 8659TIP3    H247469   3.739   6.334   0.271  0.3253 -0.3616 -1.4627
 8660TIP3   OH247470   5.422   2.895   2.296  0.0163 -0.7107  0.0465
 8660TIP3    H147471   5.350   2.929   2.349 -0.4518 -0.5630 -0.6699
 8660TIP3    H247472   5.404   2.928   2.208  0.8135 -0.9048 -0.1945
 8661TIP3   OH247473   2.811   5.855  15.282 -0.1050 -0.0530 -0.0632
 8661TIP3    H147474   2.754   5.925  15.250 -0.3956 -0.7328 -1.0812
 8661TIP3    H247475   2.867   5.834  15.207  2.0523  1.1263  1.1334
 8662TIP3   OH247476   0.316   2.332   2.514 -0.4094  0.3505 -0.6672
 8662TIP3    H147477   0.276   2.321   2.601  1.2614  0.7852  0.1872
 8662TIP3    H247478   0.255   2.288   2.454  0.3258 -3.6623  1.1916
 8663TIP3   OH247479   6.420   2.709   2.234  0.1753  0.6294  0.3927
 8663TIP3    H147480   6.403   2.761   2.312 -0.8385 -0.7230  1.0997
 8663TIP3    H247481   6.497   2.657   2.256 -0.5927 -0.3516  0.8206
 8664TIP3   OH247482   0.670   3.028   3.498 -0.4341  0.0902  0.3109
 8664TIP3    H147483   0.742   3.072   3.452 -0.8691  0.2487 -0.2258
 8664TIP3    H247484   0.659   3.080   3.578  1.5031 -1.2164  1.5247
 8665TIP3   OH247485   0.194   0.085  14.356  0.3467  0.5352  0.3034
 8665TIP3    H147486   0.205  -0.003  14.321  4.6402  0.9472  0.0465
 8665TIP3    H247487   0.185   0.141  14.279 -0.2313  0.5306  0.3647
 8666TIP3   OH247488   1.840   6.518  15.619 -0.1640  0.1759 -0.2268
 8666TIP3    H147489   1.796   6.444  15.577  1.0272 -0.6965  0.0019
 8666TIP3    H247490   1.890   6.479  15.691  1.6990  0.9611 -1.0252
 8667TIP3   OH247491   5.594   3.955   2.128 -0.5685  0.6118  0.7251
 8667TIP3    H147492   5.508   3.913   2.124 -1.6195  2.7211 -1.2198
 8667TIP3    H247493   5.585   4.020   2.198 -0.0258 -0.1304  1.5080
 8668TIP3   OH247494   5.426   0.987   2.662  0.0977  0.3312 -0.0987
 8668TIP3    H147495   5.511   1.027   2.681  0.7740 -0.6989 -0.8705
 8668TIP3    H247496   5.421   0.986   2.566 -0.0148 -1.1567 -0.1009
 8669TIP3   OH247497   5.603   6.163  14.337 -0.4771 -0.4395  0.1043
 8669TIP3    H147498   5.534   6.205  14.285 -2.3864 -1.4565  1.6943
 8669TIP3    H247499   5.606   6.215  14.417 -0.1551 -1.0518  0.4907
 8670TIP3   OH247500   4.722   5.309  16.746 -0.2141 -0.4606  0.1736
 8670TIP3    H147501   4.722   5.299  16.651  1.8683  0.5583  0.0249
 8670TIP3    H247502   4.674   5.232  16.778 -2.2996 -0.0488 -1.7238
 8671TIP3   OH247503   1.088   1.625   4.464  0.2293 -0.1125  0.9976
 8671TIP3    H147504   1.010   1.580   4.498 -0.2438 -1.0521 -1.1515
 8671TIP3    H247505   1.055   1.709   4.433  0.1568 -0.3168  0.5181
 8672TIP3   OH247506   0.434   3.757   0.005 -0.2454 -0.2828 -0.2181
 8672TIP3    H147507   0.434   3.824  -0.064  0.5077 -0.3005 -0.2414
 8672TIP3    H247508   0.419   3.806   0.086  2.0512  0.1863 -0.0119
 8673TIP3   OH247509   0.054   6.413  15.162  0.3932  0.5262  0.5787
 8673TIP3    H147510  -0.026   6.364  15.179  0.7663 -0.6966 -0.9633
 8673TIP3    H247511   0.033   6.503  15.186 -1.5049  0.2684  0.0333
 8674TIP3   OH247512   0.541   6.447   1.203 -0.1992  0.3241 -0.0474
 8674TIP3    H147513   0.609   6.447   1.136 -1.4604  1.9941 -1.4412
 8674TIP3    H247514   0.481   6.377   1.175 -0.0090  0.0922  0.1252
 8675TIP3   OH247515   3.594   3.142  15.611  0.2805  0.6089  0.6196
 8675TIP3    H147516   3.534   3.207  15.575  1.1137  0.8058 -0.4797
 8675TIP3    H247517   3.542   3.062  15.617 -0.7199  1.3146  1.8708
 8676TIP3   OH247518   5.713   1.130  11.636 -0.5190  0.5571  0.3560
 8676TIP3    H147519   5.763   1.052  11.660  0.1497  0.9091  0.1165
 8676TIP3    H247520   5.639   1.097  11.585 -0.1901  0.0890  0.1853
 8677TIP3   OH247521   1.381   4.654   1.226 -0.5642  0.6112 -0.0936
 8677TIP3    H147522   1.349   4.634   1.139 -1.7283  0.7216  0.2985
 8677TIP3    H247523   1.440   4.582   1.248  0.8805  1.2907 -1.5150
 8678TIP3   OH247524   4.938   0.666   1.921 -0.7257 -0.1239 -0.4054
 8678TIP3    H147525   5.016   0.618   1.893  0.1493  0.3986  1.0471
 8678TIP3    H247526   4.881   0.667   1.843  0.1898 -1.5319 -1.1332
 8679TIP3   OH247527   5.386   5.959   2.014 -0.1908  0.1312  0.1598
 8679TIP3    H147528   5.384   5.964   2.109 -2.2205  0.8045  0.1290
 8679TIP3    H247529   5.396   6.049   1.985 -0.0041 -0.0249 -0.2708
 8680TIP3   OH247530   5.477   2.558   5.451 -0.2209 -0.6921  0.2506
 8680TIP3    H147531   5.464   2.530   5.542  0.8857 -0.3026  0.5614
 8680TIP3    H247532   5.412   2.627   5.438 -2.0066 -2.3521 -0.0680
 8681TIP3   OH247533   0.576   2.465  15.141 -0.0552 -0.2566 -0.4676
 8681TIP3    H147534   0.526   2.491  15.064  0.1572  1.1195 -0.1592
 8681TIP3    H247535   0.666   2.492  15.121 -0.1162  0.7335  0.5341
 8682TIP3   OH247536   1.918   6.230   3.885  0.9775 -0.0594  0.4767
 8682TIP3    H147537   1.836   6.183   3.875  1.2187 -1.1321  2.7920
 8682TIP3    H247538   1.899   6.319   3.854 -0.6140 -0.6512 -0.3528
 8683TIP3   OH247539   0.335   4.463  17.043 -0.4973  0.0106 -0.2677
 8683TIP3    H147540   0.249   4.443  17.080  0.0675  0.5394  1.4244
 8683TIP3    H247541   0.397   4.415  17.099  0.5163  2.2988  0.7087
 8684TIP3   OH247542   2.497   6.411  12.030 -0.0693 -0.3813 -0.2436
 8684TIP3    H147543   2.582   6.369  12.015  0.1647 -1.7064  3.6274
 8684TIP3    H247544   2.434   6.340  12.023 -0.9593  0.5200 -2.6633
 8685TIP3   OH247545   6.611   0.794  16.207 -0.0639  0.4810 -0.2157
 8685TIP3    H147546   6.580   0.859  16.144 -0.1794  2.8936  2.1620
 8685TIP3    H247547   6.541   0.729  16.212 -0.2814  0.5272 -2.1078
 8686TIP3   OH247548   6.742   6.597  16.474 -0.7399 -0.4518  0.2378
 8686TIP3    H147549   6.785   6.511  16.472  0.3941  0.0274  1.7025
 8686TIP3    H247550   6.649   6.578  16.462 -0.8226 -2.1914  2.8112
 8687TIP3   OH247551   6.425   1.171   6.301  0.2629 -0.4466  0.8408
 8687TIP3    H147552   6.424   1.080   6.331  1.5585 -0.4953  0.7635
 8687TIP3    H247553   6.332   1.194   6.295 -0.1486 -2.2346 -0.5905
 8688TIP3   OH247554   4.427   6.659  16.946 -0.5070 -0.3741 -0.0014
 8688TIP3    H147555   4.342   6.657  16.989 -1.1687  0.4638 -1.2177
 8688TIP3    H247556   4.408   6.642  16.853  0.5378  0.5708 -0.4175
 8689TIP3   OH247557   3.349   6.386  15.859 -0.0703 -0.0226 -0.6524
 8689TIP3    H147558   3.327   6.327  15.932 -0.9203  0.0740 -0.8183
 8689TIP3    H247559   3.417   6.339  15.811  0.0731 -0.3586 -0.1381
 8690TIP3   OH247560   1.210   2.710  11.456  0.2794  0.6403  0.6034
 8690TIP3    H147561   1.174   2.765  11.385  0.9755 -1.6416 -1.6719
 8690TIP3    H247562   1.295   2.749  11.476 -0.2308  1.7351  0.7646
 8691TIP3   OH247563   2.216   6.272  12.176  0.3910  0.5583 -0.0187
 8691TIP3    H147564   2.127   6.279  12.142 -0.2696 -0.5984  1.3832
 8691TIP3    H247565   2.263   6.222  12.109 -0.5905 -0.6914  0.1869
 8692TIP3   OH247566   4.726   3.274  13.606  0.1331  0.2613  0.4152
 8692TIP3    H147567   4.759   3.339  13.668 -1.7199  0.2296  1.5285
 8692TIP3    H247568   4.655   3.231  13.652  0.1528 -1.3523 -0.9542
 8693TIP3   OH247569   0.887   4.223   5.525 -0.0371  0.0628 -0.5324
 8693TIP3    H147570   0.867   4.215   5.432 -0.4671 -1.9381 -0.3122
 8693TIP3    H247571   0.802   4.222   5.569  0.1953  0.1461 -0.0669
 8694TIP3   OH247572   4.658   1.797   3.529  0.1638  0.1091  0.6387
 8694TIP3    H147573   4.643   1.710   3.492  2.1490 -0.1001  0.2058
 8694TIP3    H247574   4.664   1.855   3.453 -1.5934  0.7485  0.9423
 8695TIP3   OH247575   5.017   6.526   2.418  0.9284  0.5159  0.2936
 8695TIP3    H147576   5.091   6.524   2.478  1.1112  0.2999  0.0595
 8695TIP3    H247577   5.054   6.553   2.334  0.7858  0.1650  0.1146
 8696TIP3   OH247578   5.487   0.219  15.963  0.0493  0.2344 -0.4789
 8696TIP3    H147579   5.429   0.240  16.037 -1.0860  1.6826 -1.7280
 8696TIP3    H247580   5.562   0.176  16.004 -1.0533 -0.0322  1.4005
 8697TIP3   OH247581   2.373   1.096  15.082  0.6135 -0.1713  0.5870
 8697TIP3    H147582   2.351   1.105  14.989 -0.8982 -0.5318  0.8737
 8697TIP3    H247583   2.466   1.074  15.083  0.5607 -0.5820 -0.8624
 8698TIP3   OH247584   0.710   4.111  15.661  0.2896 -0.0782 -0.7076
 8698TIP3    H147585   0.627   4.065  15.655 -0.5379  0.9883  1.4421
 8698TIP3    H247586   0.731   4.109  15.755  1.4204  1.7992 -0.8835
 8699TIP3   OH247587   2.583   3.703  15.946  0.2980  0.4882  0.0462
 8699TIP3    H147588   2.674   3.679  15.968  0.3136 -0.5703 -1.0354
 8699TIP3    H247589   2.530   3.640  15.994  0.2242 -0.0487 -0.7206
 8700TIP3   OH247590   2.802   1.633  11.718 -0.1861 -0.0576  0.5370
 8700TIP3    H147591   2.816   1.576  11.793 -0.8680  1.4203  1.8381
 8700TIP3    H247592   2.888   1.642  11.678  0.2818 -0.4744  1.4278
 8701TIP3   OH247593   6.031   3.485   6.125  0.3927 -0.8326  0.1445
 8701TIP3    H147594   6.068   3.409   6.171 -0.2154 -1.0395  0.3048
 8701TIP3    H247595   5.941   3.489   6.155  1.2340  2.0034  2.8390
 8702TIP3   OH247596   0.620   0.554  13.841  0.3255 -0.4538  0.1686
 8702TIP3    H147597   0.685   0.621  13.863 -0.1269  0.2141 -0.4634
 8702TIP3    H247598   0.671   0.483  13.802  0.4911  1.4711 -3.6586
 8703TIP3   OH247599   5.603   6.020   1.679  0.0613 -0.2391 -0.2442
 8703TIP3    H147600   5.540   6.092   1.677  1.0169  0.6180 -0.2810
 8703TIP3    H247601   5.681   6.055   1.636  0.4019 -1.4438 -0.6475
 8704TIP3   OH247602   1.307   5.879   0.982 -0.2036 -0.1058 -0.6208
 8704TIP3    H147603   1.227   5.831   1.002 -1.0462  1.8420  1.0797
 8704TIP3    H247604   1.280   5.945   0.918 -0.2083  1.1330  0.6178
 8705TIP3   OH247605   5.403   3.466  11.270 -0.7427  0.3506  0.0957
 8705TIP3    H147606   5.313   3.434  11.268 -0.4227 -0.6443  0.6426
 8705TIP3    H247607   5.451   3.408  11.211 -0.3758  0.5950  0.1481
 8706TIP3   OH247608   1.404   0.405  10.684  0.1545 -0.2660 -0.7290
 8706TIP3    H147609   1.382   0.399  10.777 -0.7281  0.3552 -0.8821
 8706TIP3    H247610   1.329   0.366  10.639 -0.0238  0.6068 -1.2175
 8707TIP3   OH247611   4.923   3.325   3.530 -0.4334  0.0592  0.0216
 8707TIP3    H147612   4.835   3.355   3.554  0.0354  0.3773  1.4218
 8707TIP3    H247613   4.954   3.389   3.466 -2.4552 -1.8505 -3.1344
 8708TIP3   OH247614   2.937   3.172  12.390 -0.3417 -0.4260  0.1891
 8708TIP3    H147615   2.951   3.105  12.322  2.9863 -0.5605  0.8777
 8708TIP3    H247616   2.999   3.149  12.459 -2.6308  0.5433  2.7269
 8709TIP3   OH247617   4.749   3.332  14.071  0.2822  0.3354 -0.2059
 8709TIP3    H147618   4.661   3.370  14.080  0.7162  1.7460 -1.5315
 8709TIP3    H247619   4.809   3.403  14.091  1.2390 -1.2083  3.0708
 8710TIP3   OH247620   0.489   1.883  16.073 -0.0082 -0.2613 -0.0880
 8710TIP3    H147621   0.470   1.834  16.153 -1.7917 -1.1751 -1.0089
 8710TIP3    H247622   0.508   1.816  16.007 -0.9685  0.3385 -1.0052
 8711TIP3   OH247623   4.990   5.952  13.867  0.0585  0.0370 -0.1541
 8711TIP3    H147624   5.041   6.009  13.809  0.2347  0.5500  0.4946
 8711TIP3    H247625   4.966   5.878  13.812  2.3799 -0.7411 -0.2192
 8712TIP3   OH247626   0.105   2.316   4.857 -0.1119  1.0716  0.0751
 8712TIP3    H147627   0.071   2.380   4.794  0.4577  1.6403  0.3283
 8712TIP3    H247628   0.060   2.337   4.939 -0.9954  0.2077 -0.1746
 8713TIP3   OH247629   5.396   6.291   0.002  0.0854 -0.0216  0.3360
 8713TIP3    H147630   5.401   6.307  -0.092  0.7646  0.8421  0.5039
 8713TIP3    H247631   5.302   6.289   0.022 -0.0520  0.3681 -0.2657
 8714TIP3   OH247632   5.985   6.463  11.114 -0.4082 -0.5965  0.4609
 8714TIP3    H147633   5.927   6.415  11.055 -0.8037 -0.7021  0.9296
 8714TIP3    H247634   6.042   6.513  11.056 -0.3744 -1.1838 -0.0247
 8715TIP3   OH247635   0.301   3.832  13.084  0.0344  0.2433 -1.0121
 8715TIP3    H147636   0.375   3.892  13.099 -2.4673  3.1122  1.0864
 8715TIP3    H247637   0.320   3.756  13.138  1.5081  0.8486 -0.6207
 8716TIP3   OH247638   2.525   0.907  16.693  0.0194  0.2181 -0.2024
 8716TIP3    H147639   2.481   0.845  16.635 -0.5148  0.4792 -0.0824
 8716TIP3    H247640   2.574   0.964  16.633 -0.3182  0.3227 -0.3841
 8717TIP3   OH247641   0.146   5.757   4.474 -0.1008 -0.3471 -0.0690
 8717TIP3    H147642   0.143   5.801   4.389 -1.3649  2.1940  1.1715
 8717TIP3    H247643   0.151   5.829   4.538 -0.5379 -2.0980  2.0654
 8718TIP3   OH247644   6.026   2.069  17.095 -0.5970  0.2126 -0.4167
 8718TIP3    H147645   5.983   2.048  17.178 -0.3603 -0.7447 -0.5305
 8718TIP3    H247646   5.962   2.046  17.028 -0.7545  0.9037 -0.5140
 8719TIP3   OH247647   6.637   5.078  15.542  0.1068 -0.2803 -0.9676
 8719TIP3    H147648   6.693   5.003  15.523  0.5701  0.1655 -1.3818
 8719TIP3    H247649   6.557   5.062  15.492 -1.4824 -2.4766  1.9965
 8720TIP3   OH247650   4.291   3.089   3.956 -0.3466 -1.0048 -0.5940
 8720TIP3    H147651   4.356   3.158   3.967 -2.6097  0.8868  2.6873
 8720TIP3    H247652   4.207   3.135   3.962 -2.0106 -4.0077  2.0002
 8721TIP3   OH247653   2.551   2.351   5.144 -0.4654  0.3584 -0.5729
 8721TIP3    H147654   2.460   2.326   5.128 -0.3744  0.2195 -0.8890
 8721TIP3    H247655   2.597   2.327   5.063 -0.0910  0.1373 -0.2996
 8722TIP3   OH247656   0.055   3.219   4.713  0.1262  0.2212 -0.0597
 8722TIP3    H147657   0.117   3.165   4.760 -0.5685 -1.7315 -1.2642
 8722TIP3    H247658   0.088   3.221   4.623 -1.3378 -0.6032 -0.6555
 8723TIP3   OH247659   2.619   2.648  14.531 -0.5575  0.1061 -0.8755
 8723TIP3    H147660   2.561   2.656  14.608 -0.1985  0.4736 -0.6421
 8723TIP3    H247661   2.560   2.622  14.460 -0.8185 -0.7233 -0.3697
 8724TIP3   OH247662   3.592   6.728  16.092  0.6718 -0.0969  0.2115
 8724TIP3    H147663   3.650   6.712  16.017 -0.0818 -1.5145 -0.1050
 8724TIP3    H247664   3.589   6.644  16.139 -0.8365  0.0353  0.4042
 8725TIP3   OH247665   3.636   4.144   1.681 -0.3841  0.1125 -0.7365
 8725TIP3    H147666   3.581   4.215   1.649 -0.1609 -0.1272 -1.6789
 8725TIP3    H247667   3.638   4.157   1.776 -1.0129  0.8747 -0.8125
 8726TIP3   OH247668   0.110   4.127  13.327  0.8910  0.5527 -0.3373
 8726TIP3    H147669   0.144   4.105  13.414 -0.7662 -0.3834  0.1183
 8726TIP3    H247670   0.066   4.047  13.298 -1.0701  1.7337 -0.7787
 8727TIP3   OH247671   4.429   5.118  13.912 -0.0856 -0.4680 -0.3200
 8727TIP3    H147672   4.351   5.160  13.949 -0.5800 -0.6523 -1.1192
 8727TIP3    H247673   4.491   5.115  13.984 -1.5336 -2.1405  0.9626
 8728TIP3   OH247674   6.440   0.162  15.965 -0.1779  0.3901 -0.2577
 8728TIP3    H147675   6.446   0.256  15.981 -0.5523  0.3670  0.0262
 8728TIP3    H247676   6.524   0.128  15.996 -0.2099  0.5758  0.0373
 8729TIP3   OH247677   4.507   2.311   5.546  0.1960 -0.0783 -0.4934
 8729TIP3    H147678   4.541   2.393   5.511 -0.1101  0.3178  0.1000
 8729TIP3    H247679   4.414   2.311   5.523  0.2706 -0.4251 -0.7953
 8730TIP3   OH247680   3.925   4.721   0.295  0.5665 -0.7490  0.7187
 8730TIP3    H147681   3.908   4.726   0.389  0.6634  1.5080  0.6545
 8730TIP3    H247682   4.007   4.767   0.282 -0.1224  0.1669 -0.6181
 8731TIP3   OH247683   0.052   0.781   5.077  0.4525  0.1086 -0.2301
 8731TIP3    H147684   0.026   0.694   5.048 -2.2768  1.2487 -1.5063
 8731TIP3    H247685   0.086   0.823   4.998 -0.2913  0.8905 -0.1412
 8732TIP3   OH247686   4.972   1.329   3.630 -0.0641  0.1009  0.1816
 8732TIP3    H147687   4.887   1.331   3.675 -0.2673 -0.1913 -0.1896
 8732TIP3    H247688   4.998   1.421   3.626 -0.5684  0.2369 -0.0916
 8733TIP3   OH247689   1.564   6.586   5.001  0.2715 -0.0030  0.2210
 8733TIP3    H147690   1.489   6.611   4.947 -1.2434  0.8765  2.5509
 8733TIP3    H247691   1.606   6.670   5.024 -0.9677  0.0273  2.7919
 8734TIP3   OH247692   3.091   5.006  15.543  0.3118 -0.5561 -0.4679
 8734TIP3    H147693   3.082   4.928  15.488 -0.2348 -0.5310 -0.4208
 8734TIP3    H247694   3.049   4.982  15.626  0.7920 -0.4613 -0.1924
 8735TIP3   OH247695   5.160   1.757  12.573  0.3254 -0.4077  0.1614
 8735TIP3    H147696   5.200   1.754  12.486  1.4191  0.6691  0.6083
 8735TIP3    H247697   5.229   1.790  12.631  0.0397 -2.2939  1.6988
 8736TIP3   OH247698   5.545   4.639  13.169 -0.2608  0.2362 -0.6450
 8736TIP3    H147699   5.506   4.657  13.084 -1.1410 -0.0919 -0.3167
 8736TIP3    H247700   5.478   4.591  13.218  0.1347  0.6243  0.3183
 8737TIP3   OH247701   3.303   5.255  16.991  0.4120  0.2207  0.1651
 8737TIP3    H147702   3.387   5.262  17.038  0.7973 -1.3646 -0.2391
 8737TIP3    H247703   3.242   5.222  17.057  0.4110  0.1317  0.1185
 8738TIP3   OH247704   6.089   4.304  17.112 -0.0144  0.1927 -0.1279
 8738TIP3    H147705   6.032   4.331  17.040  0.6102  1.2500 -0.2490
 8738TIP3    H247706   6.030   4.290  17.186 -0.4807  0.8634 -0.3631
 8739TIP3   OH247707   1.731   5.684   3.863 -0.1937  0.7765  0.3897
 8739TIP3    H147708   1.669   5.693   3.935 -1.2038  0.2445 -0.3837
 8739TIP3    H247709   1.686   5.724   3.788  0.0102 -0.4305 -0.3920
 8740TIP3   OH247710   4.682   5.130  11.822  0.0785  0.2483 -0.7338
 8740TIP3    H147711   4.692   5.216  11.782  0.0439  0.1971 -0.8532
 8740TIP3    H247712   4.593   5.103  11.800 -0.7079  1.1238  1.1720
 8741TIP3   OH247713   6.722   5.444   2.528 -0.4580  0.0539 -0.3652
 8741TIP3    H147714   6.781   5.370   2.536 -2.5183 -1.5094  1.9949
 8741TIP3    H247715   6.708   5.453   2.433  2.2477 -0.4712 -0.8961
 8742TIP3   OH247716   2.594   1.440  14.089 -0.3111 -0.2279  0.1042
 8742TIP3    H147717   2.683   1.434  14.125  0.0899  0.5011 -0.7379
 8742TIP3    H247718   2.603   1.496  14.012 -1.0446 -2.0650 -1.4108
 8743TIP3   OH247719   4.154   0.423   1.857 -0.2629 -0.6302  0.2795
 8743TIP3    H147720   4.073   0.474   1.855  0.1335  0.0134  0.2407
 8743TIP3    H247721   4.132   0.344   1.905 -0.4692  0.3295  1.8171
 8744TIP3   OH247722   2.579   6.062  15.511  0.3404  0.0039  0.1809
 8744TIP3    H147723   2.560   5.969  15.501 -0.4853  0.0900  0.8240
 8744TIP3    H247724   2.513   6.094  15.573  0.1249  1.1639 -0.5997
 8745TIP3   OH247725   1.239   1.624  13.529 -0.0828  0.6837 -0.4737
 8745TIP3    H147726   1.237   1.683  13.453 -2.9566  0.1979 -0.8921
 8745TIP3    H247727   1.184   1.550  13.502  0.1763 -0.2786  1.5167
 8746TIP3   OH247728   4.336   3.597   3.429  0.2103  0.1622 -0.2929
 8746TIP3    H147729   4.245   3.595   3.459 -0.5473  1.0418 -2.3574
 8746TIP3    H247730   4.359   3.504   3.417  0.3114 -0.1831  2.1054
 8747TIP3   OH247731   4.352   4.075   4.727 -0.1757  0.1011 -0.0408
 8747TIP3    H147732   4.288   4.141   4.700 -0.5844 -1.1202 -2.3045
 8747TIP3    H247733   4.302   4.012   4.779  0.1568  1.3273  1.8742
 8748TIP3   OH247734   0.237   6.011  14.261  0.5749  0.0778  0.1088
 8748TIP3    H147735   0.316   6.059  14.285  1.8644 -1.8195 -0.1398
 8748TIP3    H247736   0.165   6.069  14.285  2.0369  2.5337 -1.0861
 8749TIP3   OH247737   5.692   5.452   2.350  0.5223 -0.0282  0.3153
 8749TIP3    H147738   5.779   5.417   2.372  0.5147  0.1523  0.6411
 8749TIP3    H247739   5.687   5.535   2.398 -0.0951 -0.3565  0.8322
 8750TIP3   OH247740   2.928   2.219   5.295  0.3260 -0.1324 -0.2361
 8750TIP3    H147741   2.870   2.145   5.312 -0.3659  0.6762  1.0498
 8750TIP3    H247742   2.907   2.282   5.363  2.0483  0.5898 -0.3285
 8751TIP3   OH247743   2.464   2.060   6.177 -0.3985 -0.2162  0.0396
 8751TIP3    H147744   2.489   2.055   6.269  1.8975 -0.2386 -0.5282
 8751TIP3    H247745   2.468   1.970   6.145 -0.3517 -0.1061 -0.2746
 8752TIP3   OH247746   3.781   6.736   2.311 -0.7105  0.0844 -0.1603
 8752TIP3    H147747   3.854   6.779   2.354 -0.1725 -0.2293 -0.7367
 8752TIP3    H247748   3.703   6.783   2.342 -0.3218  0.0450  0.9123
 8753TIP3   OH247749   1.883   2.864  11.673 -0.2339  0.5701  0.5104
 8753TIP3    H147750   1.809   2.869  11.734 -0.1301  1.3575  0.5815
 8753TIP3    H247751   1.887   2.772  11.649 -1.0640  0.4626  0.7271
 8754TIP3   OH247752   4.824   4.116   2.323  0.3933  0.3717 -0.4656
 8754TIP3    H147753   4.850   4.038   2.371  0.0065 -0.8917 -2.1889
 8754TIP3    H247754   4.734   4.098   2.294  0.7055  0.9427 -1.8718
 8755TIP3   OH247755   1.305   4.613   0.129 -0.2932  0.0534  0.5265
 8755TIP3    H147756   1.327   4.695   0.173 -0.6665  0.7594 -0.5790
 8755TIP3    H247757   1.210   4.607   0.135 -0.3556  0.2038 -0.2563
 8756TIP3   OH247758   0.635   5.673   1.638 -0.1044  0.4322 -0.1720
 8756TIP3    H147759   0.547   5.686   1.603 -0.2080  1.3829  0.4234
 8756TIP3    H247760   0.641   5.579   1.654 -2.0784  0.6384  2.4775
 8757TIP3   OH247761   1.904   6.589  11.221 -0.2553  0.2402  0.2944
 8757TIP3    H147762   1.964   6.662  11.203 -2.3509  1.9718 -0.1255
 8757TIP3    H247763   1.938   6.517  11.168  2.5821  0.4467  1.6322
 8758TIP3   OH247764   5.132   4.033   1.411 -0.2711 -0.1131 -0.2192
 8758TIP3    H147765   5.075   3.956   1.411 -1.9882  1.1005 -1.3349
 8758TIP3    H247766   5.178   4.029   1.495  1.2589 -3.4057 -1.0581
 8759TIP3   OH247767   5.492   2.736  12.305  0.0686 -0.0629  0.6106
 8759TIP3    H147768   5.564   2.710  12.248 -0.7439 -2.2153  0.4887
 8759TIP3    H247769   5.531   2.740  12.392  0.5006 -0.5368  0.4435
 8760TIP3   OH247770   4.970   4.032  17.228  0.4824 -0.1067  0.3963
 8760TIP3    H147771   4.910   4.100  17.260 -1.5905 -2.1564  1.0971
 8760TIP3    H247772   5.007   3.994  17.308  1.0832 -0.2718  0.0393
 8761TIP3   OH247773   5.052   3.573  13.316 -0.0481  0.1654 -0.4327
 8761TIP3    H147774   4.981   3.524  13.274 -2.6215  4.1812 -1.3729
 8761TIP3    H247775   5.092   3.622  13.245  0.1504  1.8748  0.7907
 8762TIP3   OH247776   6.654   6.580  14.815  0.2339  0.6578 -0.5071
 8762TIP3    H147777   6.657   6.484  14.824 -0.8055  0.5863 -0.7103
 8762TIP3    H247778   6.611   6.609  14.895  0.2720  0.9286 -0.5862
 8763TIP3   OH247779   6.000   5.369   6.561 -0.1231  0.7400 -0.2893
 8763TIP3    H147780   6.035   5.457   6.543  1.5421  0.1032 -0.3382
 8763TIP3    H247781   6.077   5.312   6.559 -1.3262 -0.9438 -1.6240
 8764TIP3   OH247782   0.425   5.565   1.832  0.6132 -0.2997 -0.1567
 8764TIP3    H147783   0.496   5.520   1.785  0.0077 -1.4891  0.0250
 8764TIP3    H247784   0.353   5.502   1.831 -0.4581  0.9053 -0.3604
 8765TIP3   OH247785   4.560   1.155   6.079 -0.7105 -0.4295  0.9429
 8765TIP3    H147786   4.594   1.106   6.154 -0.9548 -2.0911  0.0273
 8765TIP3    H247787   4.516   1.089   6.025  0.7458  0.3849 -1.4177
 8766TIP3   OH247788   4.158   2.217  15.363 -0.0363 -0.1082  0.1625
 8766TIP3    H147789   4.107   2.149  15.407 -1.0658  0.7095  0.2986
 8766TIP3    H247790   4.099   2.251  15.295 -0.0951  1.5674  0.9928
 8767TIP3   OH247791   0.917   3.015   2.285  0.0359  0.5091 -0.1290
 8767TIP3    H147792   0.994   3.069   2.269  0.0374  0.9812  1.2803
 8767TIP3    H247793   0.951   2.927   2.301  0.1837  0.4759 -0.6240
 8768TIP3   OH247794   4.154   1.499  13.165  0.3509 -0.1061  0.2161
 8768TIP3    H147795   4.131   1.440  13.236  0.3475 -0.1964  0.1392
 8768TIP3    H247796   4.197   1.444  13.100 -1.4794 -0.4212 -0.7927
 8769TIP3   OH247797   4.104   6.555  13.702 -0.0290 -0.2925 -0.7785
 8769TIP3    H147798   4.044   6.497  13.656 -0.0558 -1.1844  0.3268
 8769TIP3    H247799   4.182   6.558  13.647 -0.2553 -0.9038 -1.1373
 8770TIP3   OH247800   5.643   5.457   3.753 -0.2562  0.0650  0.2486
 8770TIP3    H147801   5.548   5.453   3.743 -0.3335  0.3899  0.8622
 8770TIP3    H247802   5.675   5.478   3.665 -0.8305  1.2515  0.3142
 8771TIP3   OH247803   6.299   4.027   2.215 -0.4204  0.0724  0.4176
 8771TIP3    H147804   6.273   4.119   2.211 -0.6236  0.0502  1.1321
 8771TIP3    H247805   6.290   4.003   2.307 -1.9600 -1.1212  0.0042
 8772TIP3   OH247806   0.359   5.610  11.501 -0.2696  0.1451 -0.2608
 8772TIP3    H147807   0.271   5.644  11.482  0.6801  2.4821 -0.8157
 8772TIP3    H247808   0.352   5.573  11.589 -2.4664 -2.3994 -1.3578
 8773TIP3   OH247809   0.618   2.001  14.358  0.5230 -0.0988 -0.4333
 8773TIP3    H147810   0.688   1.992  14.293 -0.8855 -1.9157 -1.8286
 8773TIP3    H247811   0.621   1.918  14.407  0.9728  0.8762  1.2673
 8774TIP3   OH247812   6.498   0.582   5.211 -0.3794  0.4009 -0.5327
 8774TIP3    H147813   6.479   0.669   5.175  0.3747  0.2201 -1.4103
 8774TIP3    H247814   6.510   0.527   5.133  0.5206 -0.1758  0.0001
 8775TIP3   OH247815   3.586   3.790   2.599 -0.5599  0.1380  0.8822
 8775TIP3    H147816   3.554   3.823   2.683 -1.8645 -1.5116  1.0979
 8775TIP3    H247817   3.509   3.791   2.542 -0.5566 -1.9350  0.7522
 8776TIP3   OH247818   4.514   1.811   3.179 -0.1252  0.3977 -0.6692
 8776TIP3    H147819   4.540   1.738   3.235 -0.7730  0.3516 -0.4261
 8776TIP3    H247820   4.419   1.804   3.172 -0.1028  0.6776 -1.3987
 8777TIP3   OH247821   5.018   2.595   6.027 -0.9546 -0.4941 -0.0217
 8777TIP3    H147822   5.037   2.685   6.004 -1.1357 -0.3726  0.2923
 8777TIP3    H247823   4.933   2.577   5.985 -1.2244 -0.3129  0.4449
 8778TIP3   OH247824   6.219   5.746   5.168  0.5264 -0.2871  0.4418
 8778TIP3    H147825   6.226   5.699   5.085  1.2049 -0.7733  0.7632
 8778TIP3    H247826   6.197   5.835   5.143 -0.0742 -0.6112 -0.2176
 8779TIP3   OH247827   5.705   4.788  14.665  0.1807 -0.1090  0.0582
 8779TIP3    H147828   5.769   4.822  14.728 -0.0101 -2.1054  1.4026
 8779TIP3    H247829   5.621   4.820  14.698  0.2559  0.6346 -0.4379
 8780TIP3   OH247830   6.785   3.735  17.214  0.2542 -0.2382 -0.0695
 8780TIP3    H147831   6.772   3.672  17.144  1.6409 -0.5760 -0.0558
 8780TIP3    H247832   6.852   3.795  17.181  0.7503 -0.2560  0.8536
 8781TIP3   OH247833   0.803   1.504  15.091  0.6038  0.3527  0.5188
 8781TIP3    H147834   0.721   1.549  15.112  0.5376  0.1200  0.7666
 8781TIP3    H247835   0.871   1.569  15.107  0.3643  1.2090 -1.5947
 8782TIP3   OH247836   0.872   3.875   0.377  0.3243  0.3157  0.4149
 8782TIP3    H147837   0.866   3.842   0.467  0.0661  0.6647  0.5271
 8782TIP3    H247838   0.919   3.958   0.385  1.3831 -0.2302  0.0795
 8783TIP3   OH247839   1.857   1.351  17.102 -0.4957 -0.2540  0.0454
 8783TIP3    H147840   1.892   1.297  17.173 -2.1904 -1.1648  0.2315
 8783TIP3    H247841   1.787   1.298  17.064 -0.8354  0.9803 -1.1157
 8784TIP3   OH247842   2.387   1.545  16.650  0.6742  0.0186  0.6690
 8784TIP3    H147843   2.391   1.531  16.745  0.4889 -1.0875  0.5282
 8784TIP3    H247844   2.308   1.498  16.623  0.2681  1.0052  0.0657
 8785TIP3   OH247845   4.047   5.559  10.769  0.2524  0.3402 -0.2788
 8785TIP3    H147846   4.001   5.484  10.733 -3.2367  2.9351 -1.9039
 8785TIP3    H247847   4.031   5.554  10.864 -2.9520  0.6649 -0.6889
 8786TIP3   OH247848   6.501   6.375   0.912  0.1703 -0.4460 -0.2384
 8786TIP3    H147849   6.592   6.402   0.906 -0.2457  1.8408  1.9559
 8786TIP3    H247850   6.501   6.304   0.977  0.5336 -1.4935 -1.3622
 8787TIP3   OH247851   1.618   3.120   0.614 -1.0816  0.1666  0.4043
 8787TIP3    H147852   1.667   3.201   0.602 -1.4854  0.5660  1.3525
 8787TIP3    H247853   1.531   3.148   0.643 -1.1673 -0.5997  0.9272
 8788TIP3   OH247854   3.432   1.283  13.426 -0.0575  0.7238  0.1768
 8788TIP3    H147855   3.426   1.252  13.517 -2.1306  0.3443 -0.0374
 8788TIP3    H247856   3.501   1.348  13.428 -1.3621  2.1851  2.4949
 8789TIP3   OH247857   5.302   6.572  12.542  0.0996  0.2599  0.2520
 8789TIP3    H147858   5.261   6.605  12.462 -1.4963 -0.9594  0.5349
 8789TIP3    H247859   5.249   6.608  12.613  0.7916  0.3564  0.7347
 8790TIP3   OH247860   6.155   1.175  13.048 -0.1245 -0.7117 -0.0843
 8790TIP3    H147861   6.087   1.163  12.982 -0.4111 -0.3018  0.1310
 8790TIP3    H247862   6.164   1.270  13.056  1.5424 -0.7282 -1.2078
 8791TIP3   OH247863   6.555   5.378  11.453 -0.3254 -0.1712  0.5916
 8791TIP3    H147864   6.596   5.348  11.372 -1.0791  0.8520 -0.1976
 8791TIP3    H247865   6.605   5.335  11.523  0.8157 -0.4901 -0.3867
 8792TIP3   OH247866   0.692   4.956  16.817  0.1844  0.2101 -0.1276
 8792TIP3    H147867   0.600   4.983  16.814  0.0054 -0.4065 -0.3300
 8792TIP3    H247868   0.689   4.860  16.823  0.8138  0.1855 -0.1271
 8793TIP3   OH247869   3.763   1.421   0.046  0.1034  0.0006  0.2100
 8793TIP3    H147870   3.788   1.416  -0.046 -0.4068 -1.6066  0.1236
 8793TIP3    H247871   3.714   1.340   0.062  0.6911 -0.0422  2.0502
 8794TIP3   OH247872   4.271   1.225  12.728 -0.5609 -0.8156 -0.3199
 8794TIP3    H147873   4.334   1.297  12.726 -1.8427  0.3752 -2.1119
 8794TIP3    H247874   4.310   1.160  12.786  3.1438 -0.9358 -2.6311
 8795TIP3   OH247875   4.353   3.726   4.156 -0.0327  0.6238  0.5085
 8795TIP3    H147876   4.370   3.800   4.097  1.3176  0.0453  0.1276
 8795TIP3    H247877   4.272   3.688   4.123  0.5314  0.4964 -0.8292
 8796TIP3   OH247878   6.240   0.487   3.318 -0.4085 -0.3678 -0.0291
 8796TIP3    H147879   6.262   0.395   3.336 -1.0338 -0.2532  1.4301
 8796TIP3    H247880   6.170   0.482   3.253 -0.7462 -0.9340  0.3720
 8797TIP3   OH247881   0.171   5.968   3.722 -0.3174 -0.0308 -0.1643
 8797TIP3    H147882   0.246   5.952   3.664  0.2132  0.1097  0.4726
 8797TIP3    H247883   0.158   6.063   3.719  0.4384  0.1273  0.8054
 8798TIP3   OH247884   0.230   5.048  15.106  0.0270  0.3154  0.5631
 8798TIP3    H147885   0.323   5.055  15.127  0.5519 -0.1628 -1.4302
 8798TIP3    H247886   0.223   5.079  15.016 -1.5093 -0.9989  0.1833
 8799TIP3   OH247887   3.384   5.039  13.690  0.3772 -0.3730  0.2292
 8799TIP3    H147888   3.469   4.994  13.690  1.1634  1.0553  0.8421
 8799TIP3    H247889   3.374   5.072  13.779  0.7993  2.3992 -0.6765
 8800TIP3   OH247890   6.099   6.171  13.222  0.2502 -0.3134  0.0766
 8800TIP3    H147891   6.004   6.159  13.221  0.1640  0.2150  1.0368
 8800TIP3    H247892   6.122   6.176  13.314  1.0184  1.0023 -0.1490
 8801TIP3   OH247893   3.818   0.183   1.809 -0.2531  0.0172 -0.2658
 8801TIP3    H147894   3.849   0.268   1.777 -0.9367  0.5445  0.4297
 8801TIP3    H247895   3.754   0.155   1.742  0.8820 -0.5703 -1.1457
 8802TIP3   OH247896   5.012   5.609  15.200  0.1065 -0.5777  0.0772
 8802TIP3    H147897   5.023   5.699  15.231 -1.2830 -1.3193  3.1314
 8802TIP3    H247898   5.099   5.583  15.171  0.6678  1.5489 -0.2806
 8803TIP3   OH247899   2.035   5.741   2.592 -0.2687 -0.6749  0.0670
 8803TIP3    H147900   2.006   5.669   2.647 -0.8749 -0.4304  0.0773
 8803TIP3    H247901   2.046   5.815   2.652  2.8361 -1.3580  0.5066
 8804TIP3   OH247902   4.325   3.609  14.855  0.1894 -0.2350  0.0071
 8804TIP3    H147903   4.331   3.608  14.760  0.6252  0.8038  0.0096
 8804TIP3    H247904   4.383   3.539  14.884  0.8944  0.1420 -0.4612
 8805TIP3   OH247905   2.652   0.921   1.247  0.0463 -0.1839  0.2197
 8805TIP3    H147906   2.564   0.888   1.230  0.0337 -0.5833  1.0030
 8805TIP3    H247907   2.698   0.847   1.286  0.9597 -0.2003 -0.8608
 8806TIP3   OH247908   2.277   4.214  15.389  0.3948 -0.0199 -0.1205
 8806TIP3    H147909   2.224   4.254  15.320  2.9806 -1.7665 -3.4760
 8806TIP3    H247910   2.231   4.133  15.411 -0.4415  0.5310  0.1643
 8807TIP3   OH247911   1.645   2.449  15.239  0.3233 -0.0607 -0.2189
 8807TIP3    H147912   1.603   2.419  15.159  0.3533 -0.5923 -0.0459
 8807TIP3    H247913   1.574   2.456  15.303  0.4206 -0.4849 -0.0592
 8808TIP3   OH247914   6.538   1.564  11.494 -0.0171  0.0832 -0.3509
 8808TIP3    H147915   6.512   1.559  11.402 -0.8570 -1.0497 -0.0843
 8808TIP3    H247916   6.580   1.480  11.511 -0.4316  0.0270  0.4495
 8809TIP3   OH247917   5.712   0.207   4.565 -0.7363  0.7994  0.2366
 8809TIP3    H147918   5.771   0.222   4.639 -2.7630  1.5446  1.8135
 8809TIP3    H247919   5.649   0.142   4.598 -0.7290 -0.1223 -1.4521
 8810TIP3   OH247920   2.721   0.285  15.653 -0.6581 -0.1930  0.0803
 8810TIP3    H147921   2.807   0.282  15.610 -0.6152 -1.3926  0.2335
 8810TIP3    H247922   2.741   0.288  15.746 -0.7808  1.1000  0.0931
 8811TIP3   OH247923   1.750   6.522   5.854  0.1059  0.0019  0.1025
 8811TIP3    H147924   1.812   6.552   5.789 -1.6642 -1.4149 -2.3910
 8811TIP3    H247925   1.664   6.530   5.812 -1.1395 -1.0834  2.2233
 8812TIP3   OH247926   3.467   1.580  14.042  0.3037 -0.2301  0.3022
 8812TIP3    H147927   3.550   1.533  14.038  1.3493  1.6210 -0.9114
 8812TIP3    H247928   3.426   1.565  13.957 -0.9160 -1.6045  1.0964
 8813TIP3   OH247929   2.690   2.890   5.025 -0.0960 -0.3586 -0.9894
 8813TIP3    H147930   2.600   2.915   5.046 -0.3305 -1.2891 -0.8389
 8813TIP3    H247931   2.690   2.795   5.031  1.7838 -0.3038  2.6923
 8814TIP3   OH247932   1.634   5.370   4.633 -0.1222  0.0418  0.4742
 8814TIP3    H147933   1.681   5.287   4.636  1.4617  0.7560 -1.9105
 8814TIP3    H247934   1.544   5.346   4.611  0.3409 -1.0565 -0.3060
 8815TIP3   OH247935   6.405   2.236   2.031 -0.3858  0.0445  0.1468
 8815TIP3    H147936   6.409   2.273   2.120  0.2146  0.4524 -0.0400
 8815TIP3    H247937   6.327   2.275   1.992 -1.3799 -1.1159  0.9105
 8816TIP3   OH247938   4.487   0.955   2.345 -0.8583 -0.1315 -0.1092
 8816TIP3    H147939   4.458   1.046   2.351 -0.3637  0.2482 -2.4022
 8816TIP3    H247940   4.581   0.958   2.364 -1.0264 -0.3307  0.7815
 8817TIP3   OH247941   6.511   3.768  13.142  0.2458 -0.1989  0.2346
 8817TIP3    H147942   6.511   3.822  13.221  0.3390 -1.2877  0.9992
 8817TIP3    H247943   6.421   3.774  13.109  0.4370  0.9998 -0.1227
 8818TIP3   OH247944   1.667   3.295   1.808  0.1283  0.3062 -0.0500
 8818TIP3    H147945   1.735   3.354   1.841  0.5150  1.4898 -2.7180
 8818TIP3    H247946   1.601   3.353   1.770 -2.2334 -0.8402  2.0325
 8819TIP3   OH247947   3.015   0.267  16.031 -0.0262  0.4973 -0.5361
 8819TIP3    H147948   3.048   0.310  16.110 -2.2435  1.0566  0.1842
 8819TIP3    H247949   3.053   0.179  16.034  0.9763  0.9352  0.4413
 8820TIP3   OH247950   5.795   6.754   0.177 -0.2060 -0.1832  0.2792
 8820TIP3    H147951   5.821   6.833   0.129  0.2385 -0.2460  0.4090
 8820TIP3    H247952   5.753   6.787   0.256  0.4347 -0.0679  0.5785
 8821TIP3   OH247953   6.242   3.471  12.652 -0.3030 -0.0832 -0.0165
 8821TIP3    H147954   6.306   3.401  12.659 -0.7253 -0.5155 -0.3766
 8821TIP3    H247955   6.242   3.513  12.738  1.4689  0.8427 -0.4108
 8822TIP3   OH247956   2.820   0.618  13.975  0.5135  0.2784  0.5988
 8822TIP3    H147957   2.744   0.586  14.025 -0.6746  2.4864  0.3165
 8822TIP3    H247958   2.825   0.711  13.996 -0.3230  1.4968 -3.5922
 8823TIP3   OH247959   3.756   5.129   4.122  0.2705  0.0653 -0.1295
 8823TIP3    H147960   3.839   5.151   4.165  1.0246 -0.6236 -1.1539
 8823TIP3    H247961   3.721   5.212   4.092  0.6458  0.3592  0.2425
 8824TIP3   OH247962   5.638   4.602   3.023 -0.3540  0.1344 -0.1215
 8824TIP3    H147963   5.543   4.610   3.011 -0.9933  0.4855  3.7442
 8824TIP3    H247964   5.655   4.509   3.015 -1.0603  0.0399 -0.6518
 8825TIP3   OH247965   0.861   4.885  16.608  0.8263  0.4169 -0.7599
 8825TIP3    H147966   0.797   4.896  16.677  1.0163 -0.5844 -0.4030
 8825TIP3    H247967   0.846   4.958  16.548  0.7713  1.3885  0.4173
 8826TIP3   OH247968   2.919   6.658   1.609 -0.8680  0.5071 -0.5114
 8826TIP3    H147969   2.976   6.580   1.613  1.3508  2.0312 -0.4776
 8826TIP3    H247970   2.830   6.623   1.615  0.0711 -1.9453  0.6951
 8827TIP3   OH247971   1.098   1.295   2.857  0.3903 -0.0003  0.2091
 8827TIP3    H147972   1.119   1.279   2.765 -1.5842  0.2123 -0.3243
 8827TIP3    H247973   1.044   1.374   2.856 -0.3816 -0.4793  1.4394
 8828TIP3   OH247974   3.001   2.119   0.441  0.5897 -0.3743  0.1520
 8828TIP3    H147975   2.921   2.162   0.410 -0.6811 -2.1687  0.8186
 8828TIP3    H247976   3.027   2.169   0.518  1.6305  1.7875 -1.4820
 8829TIP3   OH247977   6.775   5.224  16.393 -0.6852 -0.5840  0.2099
 8829TIP3    H147978   6.728   5.276  16.328 -1.9208  0.2122  1.6493
 8829TIP3    H247979   6.717   5.224  16.469  0.6757 -1.5095  1.2999
 8830TIP3   OH247980   1.519   2.190  13.458 -0.3706  0.2151 -0.2467
 8830TIP3    H147981   1.596   2.235  13.423  0.3084  0.0475  0.9969
 8830TIP3    H247982   1.549   2.150  13.539 -1.9742  0.8401  0.7003
 8831TIP3   OH247983   1.745   6.295  16.655  0.3344  0.2164 -0.3227
 8831TIP3    H147984   1.685   6.336  16.718  0.5473  0.5115 -0.3100
 8831TIP3    H247985   1.730   6.201  16.666 -1.2324  0.3019 -1.4047
 8832TIP3   OH247986   4.010   0.148  15.976  0.1315 -0.2133 -0.0925
 8832TIP3    H147987   3.958   0.077  16.012 -1.3859  0.6164 -0.5284
 8832TIP3    H247988   3.971   0.163  15.889  1.6678 -0.1181 -0.7861
 8833TIP3   OH247989   4.346   0.050  15.667 -0.1582  0.0767  0.5155
 8833TIP3    H147990   4.438   0.023  15.660 -0.5021 -1.2399  0.8290
 8833TIP3    H247991   4.326   0.088  15.581  0.4705 -0.3360  0.1739
 8834TIP3   OH247992   5.730   2.090  15.666 -0.0887 -0.4549  0.0137
 8834TIP3    H147993   5.795   2.153  15.699 -2.2882  0.1193  3.8278
 8834TIP3    H247994   5.783   2.023  15.622  2.8648  1.1830  0.7733
 8835TIP3   OH247995   1.362   0.610   0.129 -0.5163 -0.2838 -0.6985
 8835TIP3    H147996   1.311   0.530   0.143 -0.7885 -0.0366 -0.2573
 8835TIP3    H247997   1.435   0.603   0.191 -1.0841  0.2679  0.0481
 8836TIP3   OH247998   6.588   4.212  10.789  0.4373  0.7091  0.0395
 8836TIP3    H147999   6.651   4.142  10.774  0.0716  0.4525 -0.3156
 8836TIP3    H248000   6.642   4.289  10.809  0.8466 -0.1276  2.6054
 8837TIP3   OH248001   4.181   0.147   1.931  0.1933  0.5393  0.5667
 8837TIP3    H148002   4.130   0.151   2.012 -0.8917  2.4781 -0.1570
 8837TIP3    H248003   4.136   0.081   1.878 -0.6112  1.0898  0.5581
 8838TIP3   OH248004   4.292   0.971  12.514  0.0467  0.2836  0.3886
 8838TIP3    H148005   4.343   1.040  12.556 -0.0292 -0.5113  1.8247
 8838TIP3    H248006   4.225   0.948  12.578 -1.1706  0.2338 -0.8631
 8839TIP3   OH248007   0.219   0.838   3.810  0.1283 -0.3447 -0.1026
 8839TIP3    H148008   0.219   0.855   3.716  1.0383 -1.3083 -0.3120
 8839TIP3    H248009   0.202   0.922   3.851 -2.2088 -0.2480 -1.1499
 8840TIP3   OH248010   5.319   2.657  11.904  0.4156 -0.5039 -0.3494
 8840TIP3    H148011   5.334   2.667  11.810  2.6538 -0.0034 -0.0151
 8840TIP3    H248012   5.238   2.606  11.911 -0.6125  0.7251 -2.4916
 8841TIP3   OH248013   2.626   6.591  13.102 -0.0651 -0.1954  0.5211
 8841TIP3    H148014   2.639   6.622  13.192  1.3332 -3.3269  1.5332
 8841TIP3    H248015   2.531   6.580  13.095 -0.2692  0.8264  1.3188
 8842TIP3   OH248016   6.047   1.757   4.407 -0.2200  0.0883  0.0364
 8842TIP3    H148017   6.070   1.832   4.352  0.7235  0.5848  1.0592
 8842TIP3    H248018   6.126   1.702   4.407 -0.7569 -0.7144 -0.3616
 8843TIP3   OH248019   1.856   0.585   4.582  0.3584 -0.1652 -0.1405
 8843TIP3    H148020   1.834   0.570   4.674  1.3662  1.3768  0.3781
 8843TIP3    H248021   1.864   0.496   4.546  1.1358 -0.8255  1.5414
 8844TIP3   OH248022   3.806   5.746  11.401  0.2376 -0.2900 -0.2800
 8844TIP3    H148023   3.860   5.722  11.325  0.6423  3.7043 -1.4531
 8844TIP3    H248024   3.859   5.721  11.477  1.9342 -0.1657 -1.3624
 8845TIP3   OH248025   5.657   4.745   4.000 -0.2000 -0.4576  0.2233
 8845TIP3    H148026   5.583   4.716   3.947 -0.9473 -0.2460  1.1331
 8845TIP3    H248027   5.728   4.757   3.936 -1.4721  1.2219 -0.9642
 8846TIP3   OH248028   6.729   5.209  16.075  0.4500  0.2926  0.1837
 8846TIP3    H148029   6.804   5.150  16.089 -0.1709 -0.1310  2.0367
 8846TIP3    H248030   6.683   5.171  16.000  0.6265 -1.0163  0.7042
 8847TIP3   OH248031   6.316   0.856   0.239 -0.8380 -0.0376 -0.0272
 8847TIP3    H148032   6.320   0.950   0.255 -0.5452 -0.0987  0.3032
 8847TIP3    H248033   6.225   0.838   0.215 -1.7965 -0.1456  3.1618
 8848TIP3   OH248034   2.862   3.350   0.948  0.2426 -0.1350 -0.7274
 8848TIP3    H148035   2.957   3.344   0.948  0.4189  0.6602  2.7592
 8848TIP3    H248036   2.841   3.403   1.025 -3.0778 -1.8124 -0.2928
 8849TIP3   OH248037   4.912   4.456   5.379 -0.2972 -0.0165  0.6962
 8849TIP3    H148038   4.831   4.498   5.351  0.3736  2.1005  1.6962
 8849TIP3    H248039   4.964   4.527   5.417  2.4632 -1.0552 -0.8072
 8850TIP3   OH248040   2.318   2.711   5.011 -0.0370 -0.7125 -0.5203
 8850TIP3    H148041   2.352   2.668   5.089 -2.9945  0.2468  1.4659
 8850TIP3    H248042   2.345   2.802   5.020  0.3599 -0.7688 -1.0942
 8851TIP3   OH248043   3.094   2.503  12.251 -0.5308 -0.3308 -0.7059
 8851TIP3    H148044   3.062   2.432  12.195 -0.3007 -1.2928  0.3396
 8851TIP3    H248045   3.022   2.520  12.312 -0.4531  0.1136 -0.7311
 8852TIP3   OH248046   0.042   2.009   4.126 -0.5551 -0.4083  0.4965
 8852TIP3    H148047  -0.001   2.065   4.191 -0.7848 -0.3893  0.3265
 8852TIP3    H248048  -0.030   1.970   4.077 -0.4150 -1.1946  0.8978
 8853TIP3   OH248049   2.615   3.468  13.447  0.0009  0.0452 -0.3269
 8853TIP3    H148050   2.625   3.386  13.495  1.0666 -0.3122 -1.1201
 8853TIP3    H248051   2.535   3.507  13.482 -1.3789 -2.0568 -0.9566
 8854TIP3   OH248052   1.084   6.282  13.630 -0.3236 -0.1186 -0.3515
 8854TIP3    H148053   1.106   6.328  13.711  1.3934 -0.8259 -0.3898
 8854TIP3    H248054   1.109   6.191  13.645  0.8652 -0.0997 -1.9614
 8855TIP3   OH248055   2.089   6.076  14.319  0.3307 -0.4151  0.0634
 8855TIP3    H148056   2.126   6.161  14.293  0.8519 -0.5186  0.4480
 8855TIP3    H248057   2.160   6.014  14.303  1.6734 -0.1808  4.0329
 8856TIP3   OH248058   5.458   5.784   5.919  0.3353 -0.0301 -0.4614
 8856TIP3    H148059   5.440   5.692   5.935  0.3766 -0.3683 -2.1086
 8856TIP3    H248060   5.552   5.793   5.932  0.2772 -0.1438  0.0355
 8857TIP3   OH248061   4.883   0.503  15.986  0.0120 -0.5057 -0.2989
 8857TIP3    H148062   4.956   0.442  15.976  1.6396  1.3489 -0.3349
 8857TIP3    H248063   4.851   0.518  15.897  0.1986 -0.5938 -0.3795
 8858TIP3   OH248064   3.695   0.835   5.829 -0.1257  0.1415 -0.3827
 8858TIP3    H148065   3.644   0.916   5.831  2.7188  2.0626  1.4152
 8858TIP3    H248066   3.767   0.853   5.769 -1.3788 -2.5221 -2.9219
 8859TIP3   OH248067   1.390   0.379   1.282 -0.0668  0.1386  0.1003
 8859TIP3    H148068   1.366   0.286   1.277  2.5363 -0.5460 -1.0698
 8859TIP3    H248069   1.436   0.396   1.200  1.4955  1.8512  1.2555
 8860TIP3   OH248070   3.989   0.182   3.669 -0.3962  0.3995  0.3104
 8860TIP3    H148071   4.054   0.207   3.603 -0.3625 -0.4141  0.0197
 8860TIP3    H248072   3.927   0.255   3.670 -1.0625 -0.0794 -1.4971
 8861TIP3   OH248073   2.000   5.429   5.819  0.2402 -0.1164  0.1469
 8861TIP3    H148074   2.078   5.451   5.871  0.9310 -0.1970 -0.8331
 8861TIP3    H248075   2.002   5.489   5.745 -1.5906  1.0565  0.9745
 8862TIP3   OH248076   3.695   1.386   0.436  0.3564 -0.3333 -0.1580
 8862TIP3    H148077   3.777   1.413   0.395 -0.0674 -0.5110 -1.1537
 8862TIP3    H248078   3.629   1.395   0.367 -0.1830 -1.8116  0.1168
 8863TIP3   OH248079   2.716   1.962  14.737 -0.3174  0.2043 -0.1717
 8863TIP3    H148080   2.745   1.933  14.650 -4.7384 -0.9769 -1.5030
 8863TIP3    H248081   2.665   1.889  14.771  0.3165  1.0976  3.0201
 8864TIP3   OH248082   0.004   0.258   5.264 -0.3614  0.7851 -0.2025
 8864TIP3    H148083  -0.071   0.238   5.320 -1.0072  2.0064 -0.5968
 8864TIP3    H248084  -0.034   0.297   5.185  0.5946  0.0101 -1.0823
 8865TIP3   OH248085   5.080   4.785   4.116  0.2970 -0.0388 -0.2871
 8865TIP3    H148086   5.029   4.790   4.036 -2.1938  1.2231  1.2446
 8865TIP3    H248087   5.125   4.869   4.122 -0.2135  0.2180  0.0341
 8866TIP3   OH248088   0.154   0.976   0.972  0.0477  0.2569  0.2898
 8866TIP3    H148089   0.214   0.994   1.044  0.4814 -2.3215  0.6829
 8866TIP3    H248090   0.068   1.003   1.005  0.4395  0.3974  1.2336
 8867TIP3   OH248091   6.473   4.175  15.695 -0.2937  0.0106  0.1916
 8867TIP3    H148092   6.504   4.243  15.636 -0.9864  0.9515  0.8815
 8867TIP3    H248093   6.393   4.141  15.653  0.0230 -0.3504 -0.1261
 8868TIP3   OH248094   1.648   5.939  12.544 -0.4169  0.4602 -0.4802
 8868TIP3    H148095   1.640   5.845  12.559  0.6273  0.6282  1.3610
 8868TIP3    H248096   1.566   5.975  12.576  0.3578  0.4295  1.7397
 8869TIP3   OH248097   6.091   0.245  15.194 -0.0622  0.0662  0.8207
 8869TIP3    H148098   6.098   0.284  15.107 -2.7681  0.7070  0.7824
 8869TIP3    H248099   6.024   0.177  15.184  0.5555 -0.7817  2.1343
 8870TIP3   OH248100   1.924   2.898  16.526 -0.1816 -0.1079 -0.3961
 8870TIP3    H148101   1.848   2.856  16.485  0.2543  0.2109 -1.5928
 8870TIP3    H248102   1.998   2.870  16.472  0.7599 -1.4309  1.4942
 8871TIP3   OH248103   0.910   5.545  13.554  0.3257 -0.2556  0.3418
 8871TIP3    H148104   0.972   5.579  13.489  0.4360  0.4166  0.7897
 8871TIP3    H248105   0.965   5.493  13.614  0.8849  2.0301  1.9661
 8872TIP3   OH248106   3.636   6.649  15.649  0.2518  0.4658 -0.4573
 8872TIP3    H148107   3.551   6.606  15.654  0.2956  0.2592 -1.3925
 8872TIP3    H248108   3.673   6.639  15.737 -0.9887  1.2020  0.1725
 8873TIP3   OH248109   3.354   4.818  15.193 -0.0333 -0.0302 -0.4846
 8873TIP3    H148110   3.278   4.760  15.195 -0.5015  0.5507  1.8553
 8873TIP3    H248111   3.398   4.802  15.277  0.9732  1.5046 -0.6877
 8874TIP3   OH248112   4.040   3.647  14.045 -0.2940  0.1062 -0.4041
 8874TIP3    H148113   4.114   3.707  14.046 -0.0650 -0.0769 -2.1518
 8874TIP3    H248114   4.070   3.571  14.095  0.4378  0.3366 -0.4764
 8875TIP3   OH248115   3.604   2.161  15.330 -0.2400  0.1829 -0.2227
 8875TIP3    H148116   3.600   2.070  15.303  1.3569  0.0144  0.0100
 8875TIP3    H248117   3.513   2.185  15.347 -0.7522 -1.1582 -0.9170
 8876TIP3   OH248118   5.109   4.829   5.057 -0.4873 -0.3785 -0.0325
 8876TIP3    H148119   5.197   4.832   5.092 -0.7455 -0.2299  0.6175
 8876TIP3    H248120   5.119   4.848   4.964  0.0898  0.3685  0.1766
 8877TIP3   OH248121   2.471   3.265  11.781  0.1651 -0.1347 -0.3535
 8877TIP3    H148122   2.493   3.172  11.787  1.2517  0.1491  0.4218
 8877TIP3    H248123   2.412   3.280  11.855 -0.8361 -0.4092 -1.0799
 8878TIP3   OH248124   1.341   1.770  12.375 -0.2269 -0.1191 -0.5939
 8878TIP3    H148125   1.286   1.845  12.399 -0.5913  0.7137 -3.5767
 8878TIP3    H248126   1.418   1.810  12.333 -0.0499 -1.3779 -1.5214
 8879TIP3   OH248127   0.856   0.584   3.282  0.6349 -0.0157  0.4226
 8879TIP3    H148128   0.870   0.670   3.241 -1.3670  0.0697 -0.2051
 8879TIP3    H248129   0.846   0.524   3.208 -2.9657  0.1216  0.6087
 8880TIP3   OH248130   1.094   4.205  11.231 -0.0851 -0.6324 -0.0615
 8880TIP3    H148131   1.096   4.263  11.307  1.5812 -0.0559 -0.5068
 8880TIP3    H248132   1.054   4.257  11.162  0.5720 -0.3273 -0.2140
 8881TIP3   OH248133   3.030   4.354  14.571  0.0596  0.3594 -0.1655
 8881TIP3    H148134   2.952   4.348  14.626  0.4281  2.7749  0.7304
 8881TIP3    H248135   3.080   4.275  14.591 -1.9347 -1.0563 -0.4789
 8882TIP3   OH248136   2.594   2.562  11.735 -0.4521  0.2260 -0.3276
 8882TIP3    H148137   2.547   2.499  11.788  0.8527 -0.3208  0.2271
 8882TIP3    H248138   2.594   2.525  11.647  0.6983 -0.8339  0.0760
 8883TIP3   OH248139   6.449   0.185  15.468 -0.0319  0.1076 -0.2049
 8883TIP3    H148140   6.481   0.272  15.490 -1.1429  0.3325  0.6077
 8883TIP3    H248141   6.363   0.200  15.431 -0.1322 -0.6272 -0.2828
 8884TIP3   OH248142   1.173   4.673  11.858  0.8034 -0.0246  0.4397
 8884TIP3    H148143   1.166   4.735  11.931 -0.3584  0.2461  0.1147
 8884TIP3    H248144   1.087   4.632  11.853  0.5906  0.5668 -1.3100
 8885TIP3   OH248145   6.072   2.942   2.614  0.3706 -0.1333  0.0839
 8885TIP3    H148146   6.078   3.035   2.595  2.5156 -0.3514 -0.6122
 8885TIP3    H248147   6.046   2.937   2.706  0.2227  1.1460  0.1199
 8886TIP3   OH248148   4.786   2.942  14.856  0.2005  0.4242 -0.1122
 8886TIP3    H148149   4.873   2.902  14.854  0.0594  0.1181 -0.3004
 8886TIP3    H248150   4.740   2.901  14.783 -0.8360 -1.1141  1.3246
 8887TIP3   OH248151   6.576   2.613  13.735  0.2086 -0.4573 -0.4795
 8887TIP3    H148152   6.591   2.682  13.670 -0.3578 -0.0930 -0.2338
 8887TIP3    H248153   6.662   2.573  13.748  0.5499  0.2112 -0.6197
 8888TIP3   OH248154   2.210   5.398   4.722 -0.4612 -0.3103  0.0836
 8888TIP3    H148155   2.115   5.408   4.718 -0.5070 -0.9902 -1.4008
 8888TIP3    H248156   2.223   5.303   4.731  0.0737 -0.1593  0.9655
 8889TIP3   OH248157   2.376   1.230  14.661  0.0635 -0.5859 -0.8395
 8889TIP3    H148158   2.442   1.273  14.716  0.9584 -0.8135 -1.7040
 8889TIP3    H248159   2.426   1.193  14.588 -1.0780 -0.4152 -1.7319
 8890TIP3   OH248160   1.042   3.524   1.268 -0.1159 -0.2054  0.5952
 8890TIP3    H148161   0.961   3.477   1.251 -0.9844  1.3302  0.2485
 8890TIP3    H248162   1.109   3.456   1.277 -1.2049 -1.4454 -0.3643
 8891TIP3   OH248163   2.057   6.070  13.402  0.7045  0.2058 -0.1216
 8891TIP3    H148164   2.060   6.127  13.325  1.3395  1.0779  0.5254
 8891TIP3    H248165   2.037   5.983  13.367  0.9797  0.5862 -1.2617
 8892TIP3   OH248166   2.338   3.820   3.460  0.3690  0.0809  0.2834
 8892TIP3    H148167   2.269   3.759   3.435 -2.3342  2.7961  0.5621
 8892TIP3    H248168   2.295   3.905   3.465  3.3108  1.6458  2.5822
 8893TIP3   OH248169   5.120   2.887   4.442 -0.1122 -0.4535 -0.4325
 8893TIP3    H148170   5.054   2.826   4.410 -0.2556 -0.4214 -0.2072
 8893TIP3    H248171   5.139   2.858   4.531 -0.7754  0.3004 -0.0278
 8894TIP3   OH248172   6.658   2.514   2.172  0.1136  0.3400 -0.5933
 8894TIP3    H148173   6.719   2.480   2.107  0.8239  1.9066 -0.7830
 8894TIP3    H248174   6.713   2.550   2.241 -0.5450  2.0879 -0.9250
 8895TIP3   OH248175   0.808   3.332  14.985 -0.0535  0.1123  0.0445
 8895TIP3    H148176   0.790   3.384  15.063 -2.4463  0.6478 -0.7543
 8895TIP3    H248177   0.728   3.341  14.932  0.5322 -2.1600 -1.3663
 8896TIP3   OH248178   6.436   2.765   4.512 -0.7919 -0.3538  0.3637
 8896TIP3    H148179   6.415   2.858   4.509 -1.0037 -0.4243 -1.4980
 8896TIP3    H248180   6.369   2.723   4.458 -1.5678 -1.7983  2.3236
 8897TIP3   OH248181   5.538   0.074  16.973  1.0099 -0.1365  0.7242
 8897TIP3    H148182   5.529   0.153  16.921  3.1187  0.3267  0.9795
 8897TIP3    H248183   5.449   0.042  16.984  0.1316  2.0973  0.4682
 8898TIP3   OH248184   5.036   4.447   4.004 -0.3182 -0.6212 -0.2653
 8898TIP3    H148185   5.056   4.495   3.924  2.0251 -2.0721 -0.6682
 8898TIP3    H248186   4.949   4.409   3.989  0.0206 -0.7556 -2.0858
 8899TIP3   OH248187   3.762   0.226   4.699  0.0475  0.5301  0.4044
 8899TIP3    H148188   3.695   0.161   4.676  0.0914  1.2797 -2.1715
 8899TIP3    H248189   3.714   0.296   4.744 -0.3259 -0.3593  1.4207
 8900TIP3   OH248190   1.527   4.827  13.992  0.0567  0.1120  0.3333
 8900TIP3    H148191   1.440   4.859  13.968 -1.1723 -3.6131 -1.0024
 8900TIP3    H248192   1.511   4.766  14.065  1.1521 -1.9660 -1.0395
 8901TIP3   OH248193   3.169   4.833   5.895  0.0512  0.4394 -0.5937
 8901TIP3    H148194   3.085   4.876   5.879  0.4500  1.4229 -0.1057
 8901TIP3    H248195   3.187   4.847   5.988  0.9923  0.6867 -0.7963
 8902TIP3   OH248196   6.529   5.456  14.276 -0.3974 -0.3161 -0.0236
 8902TIP3    H148197   6.485   5.488  14.197  1.0387 -0.9590 -1.1215
 8902TIP3    H248198   6.592   5.526  14.298  0.1977 -0.7612 -0.2939
 8903TIP3   OH248199   4.680   3.671  14.077 -0.2590  0.4692  0.4345
 8903TIP3    H148200   4.704   3.755  14.115  0.8825 -0.2296  1.3006
 8903TIP3    H248201   4.746   3.610  14.109 -0.9560 -0.7284 -0.3361
 8904TIP3   OH248202   1.518   3.343   3.387 -0.0061  0.5628  0.6398
 8904TIP3    H148203   1.479   3.339   3.474 -1.9899 -0.7893 -0.2498
 8904TIP3    H248204   1.608   3.313   3.400 -0.6444 -0.9186  2.0553
 8905TIP3   OH248205   5.678   0.819  16.231  0.1884 -0.3422  0.2753
 8905TIP3    H148206   5.741   0.757  16.269  0.7382  0.2174  0.2860
 8905TIP3    H248207   5.593   0.792  16.268  0.0117 -2.5682 -1.5266
 8906TIP3   OH248208   3.118   2.116  12.705 -0.2257 -0.4748  0.2538
 8906TIP3    H148209   3.124   2.195  12.651 -0.8999 -0.9655 -0.5573
 8906TIP3    H248210   3.052   2.062  12.662 -1.0824 -0.7208  1.7897
 8907TIP3   OH248211   4.525   1.590   5.290  0.1372  0.1020  0.2001
 8907TIP3    H148212   4.445   1.542   5.311 -0.7385  0.9148 -1.1194
 8907TIP3    H248213   4.526   1.664   5.351 -0.3498  0.3193 -0.0529
 8908TIP3   OH248214   1.482   2.550   0.552 -0.3768  0.2944 -0.4831
 8908TIP3    H148215   1.485   2.624   0.612 -0.3089 -1.5190  1.9039
 8908TIP3    H248216   1.402   2.564   0.502 -0.0476  2.2586 -0.5571
 8909TIP3   OH248217   6.770   0.919   3.919 -0.4091  0.1909 -0.7736
 8909TIP3    H148218   6.800   0.829   3.922  0.5380  0.4974 -0.6988
 8909TIP3    H248219   6.692   0.920   3.975 -0.5502 -0.6137 -0.9439
 8910TIP3   OH248220   4.162   4.991  15.949 -0.0120 -0.2956  0.2841
 8910TIP3    H148221   4.096   4.938  15.905 -0.1437  0.6368 -0.6931
 8910TIP3    H248222   4.200   5.045  15.879 -2.1982  3.3401  1.5949
 8911TIP3   OH248223   6.106   0.744  14.660  0.6082  0.0283 -0.0359
 8911TIP3    H148224   6.103   0.659  14.616  1.5649 -0.5319  0.9161
 8911TIP3    H248225   6.026   0.788  14.633  0.4417 -0.8889 -1.1180
 8912TIP3   OH248226   1.250   0.997  14.134 -0.3904  0.4797 -0.6928
 8912TIP3    H148227   1.322   0.934  14.130 -0.1811  0.5597  0.8760
 8912TIP3    H248228   1.280   1.071  14.082  0.4077  0.2598 -0.5665
 8913TIP3   OH248229   2.816   3.216   2.620  0.2758  0.2461  0.5651
 8913TIP3    H148230   2.732   3.182   2.591 -0.8446 -0.4960  4.1643
 8913TIP3    H248231   2.803   3.310   2.628  0.4180  0.3777 -0.6556
 8914TIP3   OH248232   1.301   3.575  11.717  0.1340  0.5574 -0.1526
 8914TIP3    H148233   1.282   3.668  11.704 -1.4428  0.2029 -0.4632
 8914TIP3    H248234   1.241   3.547  11.786 -0.6477 -0.6467 -1.2982
 8915TIP3   OH248235   5.300   2.241  16.042 -0.2487 -0.4542  0.5281
 8915TIP3    H148236   5.331   2.167  16.094 -0.6111 -2.6760 -2.1387
 8915TIP3    H248237   5.379   2.275  16.000 -0.3793 -0.9459 -0.1308
 8916TIP3   OH248238   0.298   2.549   2.007 -0.7349 -0.4794 -0.1662
 8916TIP3    H148239   0.364   2.539   1.939  1.4550  1.0735  1.5756
 8916TIP3    H248240   0.273   2.642   2.003 -1.4570 -0.6411  0.3891
 8917TIP3   OH248241   0.133   2.074   4.745  0.4062 -0.2504  0.4695
 8917TIP3    H148242   0.132   2.161   4.785 -0.0231  0.1786 -0.4291
 8917TIP3    H248243   0.187   2.085   4.666  0.5672 -0.8680  0.4877
 8918TIP3   OH248244   5.911   0.771   5.786  0.4602  0.0162  0.3409
 8918TIP3    H148245   5.988   0.753   5.840  0.0264 -0.9620  0.6624
 8918TIP3    H248246   5.922   0.715   5.709 -0.6277 -1.2759  1.0832
 8919TIP3   OH248247   3.890   5.348  10.684  0.8089  0.0550  0.2756
 8919TIP3    H148248   3.946   5.283  10.726  2.7510  0.1584 -1.9317
 8919TIP3    H248249   3.901   5.332  10.590 -1.1160  1.5864 -0.2784
 8920TIP3   OH248250   4.732   3.886   3.386 -0.8743  0.5369 -0.6147
 8920TIP3    H148251   4.802   3.837   3.428 -0.8133 -1.5767 -2.8962
 8920TIP3    H248252   4.662   3.889   3.451  0.4635  0.6539  0.8819
 8921TIP3   OH248253   1.989   2.652  13.685  0.2300 -0.2997  0.0996
 8921TIP3    H148254   1.939   2.668  13.766 -0.6558  1.1019 -0.6905
 8921TIP3    H248255   2.041   2.732  13.673  0.5989 -0.6320 -0.5402
 8922TIP3   OH248256   5.761   3.284  12.134  0.2763  0.1147  0.6060
 8922TIP3    H148257   5.669   3.303  12.156  0.0494  0.4807 -0.5766
 8922TIP3    H248258   5.762   3.189  12.118  0.3321 -0.0649  1.5937
 8923TIP3   OH248259   2.403   4.884  12.309  0.0609  0.1793 -0.3692
 8923TIP3    H148260   2.453   4.947  12.360  0.5484  0.1655 -0.8230
 8923TIP3    H248261   2.342   4.937  12.258 -1.5567  0.1161  1.3770
 8924TIP3   OH248262   5.304   6.679  14.004  0.2501 -0.4381 -0.4463
 8924TIP3    H148263   5.321   6.635  14.087  2.4192  1.3373  0.1385
 8924TIP3    H248264   5.249   6.754  14.027 -1.4468 -1.4340 -1.0823
 8925TIP3   OH248265   4.364   0.431  12.993  0.0789 -0.7066  0.8456
 8925TIP3    H148266   4.307   0.355  12.981  0.1095 -0.4375 -1.4488
 8925TIP3    H248267   4.306   0.506  12.984  0.4438 -0.4461  0.6472
 8926TIP3   OH248268   0.463   3.399  12.728  0.3240 -0.1828  0.7832
 8926TIP3    H148269   0.485   3.474  12.673 -1.7066 -0.9150 -1.1941
 8926TIP3    H248270   0.376   3.419  12.763  0.8224 -0.5485  2.2931
 8927TIP3   OH248271   6.621   0.754  15.310 -0.2757  0.1565  0.5728
 8927TIP3    H148272   6.619   0.674  15.258 -0.1478 -1.5512  3.0070
 8927TIP3    H248273   6.605   0.825  15.247  1.0197 -1.6137 -1.9182
 8928TIP3   OH248274   4.794   2.687  12.275 -1.3734  0.8293 -0.3100
 8928TIP3    H148275   4.774   2.594  12.269  0.6057  0.3650 -0.5777
 8928TIP3    H248276   4.846   2.695  12.355 -3.0284  2.0499  0.7129
 8929TIP3   OH248277   3.551   4.817   5.661  0.7219 -0.2060 -0.6411
 8929TIP3    H148278   3.460   4.807   5.686  0.3366  0.9426 -1.5008
 8929TIP3    H248279   3.599   4.822   5.745 -0.0492 -0.3245 -0.1874
 8930TIP3   OH248280   1.892   2.474   1.684  0.0855 -0.0997 -0.1739
 8930TIP3    H148281   1.943   2.543   1.641 -0.7060  1.6040  1.4954
 8930TIP3    H248282   1.950   2.397   1.683  2.0255  1.2788  0.1338
 8931TIP3   OH248283   5.380   5.928  17.227 -0.3534 -0.0275  0.0791
 8931TIP3    H148284   5.401   5.974  17.308 -0.7926  1.8481 -0.7948
 8931TIP3    H248285   5.293   5.890  17.243 -0.7476  0.9237  0.2862
 8932TIP3   OH248286   5.666   1.269  12.938 -0.8054 -0.0744  0.3119
 8932TIP3    H148287   5.632   1.259  12.849 -1.3374 -1.5562  0.6586
 8932TIP3    H248288   5.760   1.248  12.930 -1.0474 -1.2286  0.2480
 8933TIP3   OH248289   4.075   2.793  12.765  0.3549  0.0172 -0.5471
 8933TIP3    H148290   4.046   2.869  12.816  2.3641  0.6922 -0.3221
 8933TIP3    H248291   4.158   2.821  12.726  1.4463 -2.2462  0.0048
 8934TIP3   OH248292   5.347   1.318  11.392  0.2580 -0.5333  0.4256
 8934TIP3    H148293   5.291   1.314  11.315  2.1222 -1.1559 -0.9799
 8934TIP3    H248294   5.412   1.249  11.378  2.3173  1.1163  1.1475
 8935TIP3   OH248295   1.889   1.710  12.288 -0.1978 -0.0465  0.4761
 8935TIP3    H148296   1.877   1.662  12.370  0.9671 -1.5044 -0.1587
 8935TIP3    H248297   1.981   1.738  12.291 -0.6520  1.5381  0.4841
 8936TIP3   OH248298   1.110   5.264  15.753 -0.6204  0.3962  0.4516
 8936TIP3    H148299   1.161   5.187  15.778 -1.0093  0.3590  1.1519
 8936TIP3    H248300   1.099   5.256  15.658 -2.1592 -1.3527  0.7272
 8937TIP3   OH248301   0.993   2.082  15.337 -0.7098  0.0972 -0.0032
 8937TIP3    H148302   1.004   2.166  15.382  1.6376  0.6661 -1.4875
 8937TIP3    H248303   1.078   2.039  15.345 -1.5155 -1.6242 -0.3120
 8938TIP3   OH248304   5.814   5.329  14.789 -0.2344 -0.5915 -0.3279
 8938TIP3    H148305   5.737   5.272  14.784 -1.7241  1.3944 -1.1667
 8938TIP3    H248306   5.794   5.390  14.860  0.0233  0.6338 -1.2699
 8939TIP3   OH248307   0.133   4.105   5.184  0.1534  0.2135  0.0853
 8939TIP3    H148308   0.192   4.042   5.225 -1.3559 -1.2100  0.1860
 8939TIP3    H248309   0.066   4.051   5.141  0.7888  1.6450 -3.0257
 8940TIP3   OH248310   5.092   0.792   3.067 -0.0033  0.9799 -0.5081
 8940TIP3    H148311   5.132   0.719   3.114 -1.1874  0.1107 -0.8042
 8940TIP3    H248312   5.109   0.773   2.975  0.1025  1.3338 -0.5617
 8941TIP3   OH248313   1.179   4.241  12.597  0.2828 -0.1418 -0.2541
 8941TIP3    H148314   1.163   4.335  12.606 -0.0794  0.0274 -2.1985
 8941TIP3    H248315   1.195   4.211  12.686 -1.1368  1.4745  0.6101
 8942TIP3   OH248316   3.468   3.491   4.816 -0.1002  0.4817  0.4053
 8942TIP3    H148317   3.493   3.454   4.901  1.3463  1.1698  0.2986
 8942TIP3    H248318   3.550   3.499   4.767 -0.5435  2.3573 -0.1412
 8943TIP3   OH248319   6.255   5.325   0.545 -0.3906 -1.0168 -0.0904
 8943TIP3    H148320   6.285   5.414   0.565  1.5796 -1.6659  0.0675
 8943TIP3    H248321   6.161   5.327   0.562 -0.7989  1.5574 -1.9494
 8944TIP3   OH248322   5.422   0.121  12.829  0.0353  0.1500 -0.6509
 8944TIP3    H148323   5.410   0.188  12.897 -0.0380 -0.4772 -0.0337
 8944TIP3    H248324   5.508   0.083  12.848  0.5662  0.7883 -1.6540
 8945TIP3   OH248325   3.173   0.722   1.547 -0.3225  0.6991 -0.1863
 8945TIP3    H148326   3.184   0.645   1.492 -2.8476  0.2868 -0.2718
 8945TIP3    H248327   3.249   0.776   1.529  0.1015 -0.4926 -2.3069
 8946TIP3   OH248328   6.200   0.026   3.743  0.3367  0.0475 -0.6598
 8946TIP3    H148329   6.118   0.023   3.792  2.3159  0.0077  2.9568
 8946TIP3    H248330   6.195   0.107   3.692 -1.9186  0.0156 -0.5607
 8947TIP3   OH248331   1.244   1.389  16.884 -0.6515  0.0472  0.1978
 8947TIP3    H148332   1.187   1.326  16.928 -0.0489 -0.7409 -0.1424
 8947TIP3    H248333   1.327   1.384  16.932 -0.5704  0.5224  0.1121
 8948TIP3   OH248334   4.825   4.242  12.325 -0.3761 -0.3910  0.0536
 8948TIP3    H148335   4.743   4.278  12.360  0.2565  0.5624  0.6002
 8948TIP3    H248336   4.822   4.263  12.231  0.4801  2.2521  0.5121
 8949TIP3   OH248337   2.475   1.595   5.709 -0.2731  0.2069 -0.0578
 8949TIP3    H148338   2.514   1.681   5.696  1.0521 -0.4131 -0.3196
 8949TIP3    H248339   2.468   1.585   5.804 -0.2302  0.5204 -0.0218
 8950TIP3   OH248340   4.874   2.464  13.074  0.1906  0.3205 -0.7580
 8950TIP3    H148341   4.899   2.467  13.166  1.7991  1.2811 -1.1855
 8950TIP3    H248342   4.857   2.372  13.056  0.9784 -0.0250  0.2138
 8951TIP3   OH248343   0.619   1.454  11.811  0.1263  0.4462  0.0171
 8951TIP3    H148344   0.634   1.359  11.807  1.3909  0.6093  0.5287
 8951TIP3    H248345   0.648   1.486  11.726 -1.1109  0.2817 -0.4794
 8952TIP3   OH248346   2.060   1.268   2.782 -0.7483  0.1361  0.3779
 8952TIP3    H148347   2.028   1.329   2.849 -0.3664  0.1422  0.5599
 8952TIP3    H248348   2.068   1.321   2.703 -0.4698  0.3164  0.5223
 8953TIP3   OH248349   4.465   5.114  15.934 -0.0553 -0.1636  0.3403
 8953TIP3    H148350   4.406   5.165  15.879  0.5396 -0.6788 -0.8180
 8953TIP3    H248351   4.475   5.031  15.888  1.7818  0.0045  0.3329
 8954TIP3   OH248352   6.151   0.950   2.248 -0.0018 -0.2189 -0.7256
 8954TIP3    H148353   6.056   0.948   2.262  0.1523 -0.2726  0.3985
 8954TIP3    H248354   6.167   1.033   2.204 -0.3775  0.6636  0.7338
 8955TIP3   OH248355   1.261   2.568   4.430 -0.1211 -0.3605  0.2467
 8955TIP3    H148356   1.216   2.607   4.505 -1.0699 -0.4616 -0.2547
 8955TIP3    H248357   1.194   2.517   4.385  0.5272 -0.6210 -0.4612
 8956TIP3   OH248358   1.420   0.747   3.471  0.8883 -0.2985  0.0693
 8956TIP3    H148359   1.438   0.799   3.549  0.0197 -0.4909  0.4189
 8956TIP3    H248360   1.432   0.656   3.499  0.0812 -0.3956  0.1358
 8957TIP3   OH248361   6.332   0.157  16.635 -0.0050  0.1797  0.2990
 8957TIP3    H148362   6.324   0.222  16.704  1.1534 -0.2936  0.9135
 8957TIP3    H248363   6.242   0.132  16.614 -0.5734  2.8400 -0.8278
 8958TIP3   OH248364   0.861   0.240   0.752  0.5166  0.6072  0.0296
 8958TIP3    H148365   0.872   0.254   0.846  0.4463  0.9861 -0.0146
 8958TIP3    H248366   0.811   0.316   0.723  1.1330  0.8464 -0.4314
 8959TIP3   OH248367   1.923   1.996  11.711  1.2142  0.0403 -0.3493
 8959TIP3    H148368   1.970   2.077  11.692  2.9002 -1.0598 -1.0707
 8959TIP3    H248369   1.931   1.986  11.806 -2.2323  2.5490  0.4038
 8960TIP3   OH248370   5.483   4.496   0.405 -0.1725 -0.4508  0.1375
 8960TIP3    H148371   5.553   4.528   0.462  0.5641  0.5258 -1.2611
 8960TIP3    H248372   5.438   4.575   0.377  0.0788 -0.8310 -1.3888
 8961TIP3   OH248373   0.244   1.970   1.116 -0.4213 -0.2159  0.3811
 8961TIP3    H148374   0.181   2.031   1.080 -0.0709 -0.0667  0.0147
 8961TIP3    H248375   0.224   1.967   1.210  0.8408  2.0358  0.7949
 8962TIP3   OH248376   2.094   2.259  12.106 -0.2515  0.8061  0.2291
 8962TIP3    H148377   2.006   2.226  12.084  0.7219 -2.6576  1.0190
 8962TIP3    H248378   2.140   2.183  12.140  3.5008  2.1859 -1.2822
 8963TIP3   OH248379   5.175   3.870  12.234 -0.3859  0.0009  0.8075
 8963TIP3    H148380   5.259   3.847  12.272  0.3780  0.2776 -0.6507
 8963TIP3    H248381   5.113   3.807  12.272  0.8407 -1.5267  0.3771
 8964TIP3   OH248382   0.004   4.902   3.536 -0.2515 -0.0005  0.8638
 8964TIP3    H148383  -0.012   4.809   3.551  0.9949 -0.0161  2.4742
 8964TIP3    H248384  -0.046   4.946   3.604 -1.1847  0.5587 -0.1609
 8965TIP3   OH248385   5.410   6.777  14.324  0.1982  0.4815 -0.3835
 8965TIP3    H148386   5.367   6.697  14.353 -1.2438  0.3904 -2.5490
 8965TIP3    H248387   5.491   6.747  14.282  0.1933  0.2539 -0.2301
 8966TIP3   OH248388   6.658   2.846   6.252 -0.3985 -0.0146  0.0496
 8966TIP3    H148389   6.581   2.791   6.238 -1.0059  0.8246  0.0514
 8966TIP3    H248390   6.677   2.838   6.346 -0.1436 -0.6519 -0.0507
 8967TIP3   OH248391   1.650   0.734   2.533 -0.3692 -0.1192  0.1089
 8967TIP3    H148392   1.707   0.788   2.587 -0.7290 -1.2346  1.6762
 8967TIP3    H248393   1.596   0.796   2.484 -0.6121  0.9425  1.6829
 8968TIP3   OH248394   4.721   0.638  14.610 -0.0739  0.0627 -0.6501
 8968TIP3    H148395   4.673   0.615  14.689  0.9808 -1.1787 -0.3319
 8968TIP3    H248396   4.740   0.731  14.620 -0.5759  0.0840  0.2077
 8969TIP3   OH248397   5.828   4.453  12.715 -0.4613  0.5542  0.8366
 8969TIP3    H148398   5.907   4.486  12.671 -0.4909  0.4810  0.7292
 8969TIP3    H248399   5.760   4.518  12.694 -0.6916  0.0700  0.0511
 8970TIP3   OH248400   2.092   2.465   5.407 -0.4404  0.4852  0.0283
 8970TIP3    H148401   2.125   2.463   5.497 -0.5685  1.8951  0.1348
 8970TIP3    H248402   2.092   2.374   5.379  1.2453  0.1955  0.8564
 8971TIP3   OH248403   2.898   1.315  12.556  0.0584  0.1022  0.6422
 8971TIP3    H148404   2.849   1.318  12.638 -0.6918  0.6666  0.1856
 8971TIP3    H248405   2.863   1.388  12.504  1.7510  0.8736  0.5114
 8972TIP3   OH248406   4.970   0.795   4.077 -0.0252 -0.3341  0.1766
 8972TIP3    H148407   4.990   0.716   4.026  0.6995 -1.5429  2.2141
 8972TIP3    H248408   5.001   0.867   4.023 -0.6965 -1.4047 -1.7577
 8973TIP3   OH248409   6.004   0.096   5.601  0.7981  0.3027 -0.3011
 8973TIP3    H148410   5.954   0.128   5.676  0.1332  0.0247 -0.6221
 8973TIP3    H248411   5.938   0.059   5.542  1.3473  0.2307 -0.8781
 8974TIP3   OH248412   3.746   5.297  11.516 -0.1351 -0.1674  0.3778
 8974TIP3    H148413   3.822   5.321  11.462  0.2109  0.1833  1.0078
 8974TIP3    H248414   3.690   5.374  11.515 -0.1792 -0.1987  0.4197
 8975TIP3   OH248415   3.632   1.714  11.837 -0.9028 -0.1410 -1.1559
 8975TIP3    H148416   3.569   1.669  11.780 -0.3170  0.1687 -2.0823
 8975TIP3    H248417   3.663   1.646  11.896  2.3540 -1.9978 -4.5462
 8976TIP3   OH248418   6.198   4.421  10.979  0.3937  0.0113  0.0488
 8976TIP3    H148419   6.274   4.471  10.950  1.1740 -1.6796 -0.9988
 8976TIP3    H248420   6.125   4.459  10.931  0.8012  0.7430 -0.0110
 8977TIP3   OH248421   0.470   0.752   5.268 -0.5710 -0.7774 -0.0716
 8977TIP3    H148422   0.555   0.724   5.304  0.3902  1.9631  0.0351
 8977TIP3    H248423   0.430   0.801   5.340 -0.8664  0.5006 -1.0840
 8978TIP3   OH248424   2.531   1.078  14.489  0.0784  0.7618 -0.5640
 8978TIP3    H148425   2.489   0.992  14.489  0.5143  0.4915 -2.4968
 8978TIP3    H248426   2.554   1.093  14.397  2.4439  1.7434  0.0960
 8979TIP3   OH248427   2.204   2.186   5.344  0.3407 -0.7695 -0.2740
 8979TIP3    H148428   2.287   2.158   5.383  0.6664 -0.0764 -0.4566
 8979TIP3    H248429   2.139   2.126   5.381  0.8940 -1.2099  0.0049
 8980TIP3   OH248430   3.351   2.185   2.010 -0.4985 -0.2394 -0.2122
 8980TIP3    H148431   3.347   2.278   1.987  2.7255  0.6813  2.1129
 8980TIP3    H248432   3.264   2.164   2.042 -0.9767  2.4141  0.4214
 8981TIP3   OH248433   5.238   1.259  16.894  0.3467 -0.5710 -0.4322
 8981TIP3    H148434   5.286   1.250  16.812 -0.3814 -0.7180 -0.8461
 8981TIP3    H248435   5.150   1.285  16.868  0.7362  1.7777  0.4232
 8982TIP3   OH248436   0.728   5.895   4.393  0.4073  0.4546  0.1402
 8982TIP3    H148437   0.743   5.887   4.487  0.2782  2.8254  0.4163
 8982TIP3    H248438   0.704   5.806   4.365  0.0001 -0.2108  2.4018
 8983TIP3   OH248439   0.394   3.880   3.661 -0.5487 -0.3111  0.5343
 8983TIP3    H148440   0.363   3.834   3.739 -0.2645 -0.2355  0.6938
 8983TIP3    H248441   0.474   3.833   3.636  0.2191  0.5979  1.1948
 8984TIP3   OH248442   4.437   5.927   4.717 -0.3678 -0.4546  0.1981
 8984TIP3    H148443   4.390   5.979   4.782  0.8938 -0.4725  1.1710
 8984TIP3    H248444   4.374   5.862   4.687 -1.0710 -0.2435  1.1807
 8985TIP3   OH248445   4.953   0.599   3.885 -0.5353 -0.1666 -0.3091
 8985TIP3    H148446   4.858   0.604   3.873 -0.3943  0.7313 -1.1644
 8985TIP3    H248447   4.965   0.530   3.949 -1.7912 -0.0776  0.0530
 8986TIP3   OH248448   0.415   2.911  14.556  0.0897 -0.5021  0.2742
 8986TIP3    H148449   0.437   2.896  14.648  0.9517 -0.5080  0.0743
 8986TIP3    H248450   0.486   2.967  14.524 -2.3628  3.2522  0.7153
 8987TIP3   OH248451   3.179   0.986   0.120  0.4053 -0.0939 -0.2789
 8987TIP3    H148452   3.273   0.966   0.120  0.3404 -0.6011 -2.0306
 8987TIP3    H248453   3.141   0.918   0.064 -0.9697  0.2527  0.2213
 8988TIP3   OH248454   6.795   4.821  12.015 -0.2026 -0.0068  0.5383
 8988TIP3    H148455   6.769   4.868  12.095 -1.4669 -0.8791  0.6697
 8988TIP3    H248456   6.740   4.743  12.014  1.1591 -0.9957 -0.1991
 8989TIP3   OH248457   6.638   5.195  11.891 -0.4256 -0.7506 -0.1807
 8989TIP3    H148458   6.709   5.186  11.954 -0.1769  0.1547 -0.3072
 8989TIP3    H248459   6.564   5.227  11.942  0.6750  3.3116 -0.7224
 8990TIP3   OH248460   2.777   1.166   1.330  0.0889 -0.3885  0.0527
 8990TIP3    H148461   2.729   1.219   1.394  0.0244  0.0322 -0.3380
 8990TIP3    H248462   2.712   1.104   1.298 -0.0120 -0.2722  0.0304
 8991TIP3   OH248463   3.472   3.537  14.420  0.3595 -0.0259 -0.5143
 8991TIP3    H148464   3.463   3.461  14.362  0.2622  0.7558 -1.5721
 8991TIP3    H248465   3.488   3.500  14.507 -2.5718 -1.3549 -0.4169
 8992TIP3   OH248466   2.420   0.058   4.961  0.1848  0.2588  0.4346
 8992TIP3    H148467   2.340   0.048   5.011 -0.1138  0.5553  0.0194
 8992TIP3    H248468   2.436   0.152   4.960  1.1180  0.1332  1.4128
 8993TIP3   OH248469   5.856   1.587   4.272  0.3385 -0.3988 -0.1465
 8993TIP3    H148470   5.926   1.605   4.334  0.3832 -0.6185 -0.1311
 8993TIP3    H248471   5.792   1.536   4.322 -0.7821  1.4367  0.4163
 8994TIP3   OH248472   5.133   6.309   4.517 -0.5409  0.8199 -0.0684
 8994TIP3    H148473   5.109   6.394   4.478 -1.3292  0.3405 -0.6702
 8994TIP3    H248474   5.055   6.282   4.565  0.5028  1.5144  2.1213
 8995TIP3   OH248475   5.537   1.393  16.517 -0.4888  0.2525  0.3207
 8995TIP3    H148476   5.598   1.457  16.554 -1.1254  1.5856 -0.8628
 8995TIP3    H248477   5.593   1.326  16.478  0.2170  1.1488 -0.2325
 8996TIP3   OH248478   5.361   3.332   2.157  0.7751 -0.0087 -0.1979
 8996TIP3    H148479   5.442   3.289   2.185  0.8439  0.0588 -0.2922
 8996TIP3    H248480   5.364   3.330   2.061  1.2435  1.0452 -0.2248
 8997TIP3   OH248481   0.765   6.724   0.269 -0.1880 -0.1833  0.0398
 8997TIP3    H148482   0.795   6.695   0.355 -1.8586 -1.1891  0.3271
 8997TIP3    H248483   0.675   6.754   0.285 -0.7695 -1.0441 -1.4720
 8998TIP3   OH248484   3.729   1.927   0.235 -0.8647 -0.2822  0.1305
 8998TIP3    H148485   3.774   2.005   0.267  0.1848 -1.2681  1.1768
 8998TIP3    H248486   3.798   1.861   0.227 -1.9187 -1.5128  0.6765
 8999TIP3   OH248487   0.456   5.574   6.634 -0.0758  0.3524 -0.1096
 8999TIP3    H148488   0.533   5.540   6.680 -0.4056  0.6196  0.6604
 8999TIP3    H248489   0.479   5.663   6.609  0.0225  0.2856 -0.2531
 9000TIP3   OH248490   0.774   4.564  12.200  0.0025  0.1311  0.2145
 9000TIP3    H148491   0.734   4.579  12.286  1.0323  2.2385  0.4010
 9000TIP3    H248492   0.820   4.646  12.181  1.4873 -1.0294 -1.4551
 9001TIP3   OH248493   3.492   1.791  16.937  0.2697 -0.1453  0.6188
 9001TIP3    H148494   3.425   1.849  16.973 -0.2474 -0.3848  0.0617
 9001TIP3    H248495   3.466   1.779  16.845  0.4123 -1.1834  0.7015
 9002TIP3   OH248496   5.001   1.398  14.804  0.0826 -0.0939  0.1810
 9002TIP3    H148497   4.985   1.310  14.839 -1.0382  1.0496  2.7526
 9002TIP3    H248498   5.089   1.420  14.835 -0.6701  0.6780  1.8682
 9003TIP3   OH248499   0.580   4.871   5.836 -0.3129 -0.3695 -0.0795
 9003TIP3    H148500   0.534   4.934   5.780 -1.2952 -0.8296  0.1720
 9003TIP3    H248501   0.668   4.865   5.799  0.2029  2.0050  0.5911
 9004TIP3   OH248502   5.764   0.075  14.475  0.1081  0.5584  0.3691
 9004TIP3    H148503   5.746   0.129  14.398 -0.2590 -1.2704 -0.8938
 9004TIP3    H248504   5.678   0.062  14.515 -0.0212 -0.1849 -0.1225
 9005TIP3   OH248505   5.575   1.924   6.548 -0.0499 -0.1887 -0.0486
 9005TIP3    H148506   5.502   1.967   6.593  1.4166 -1.2054  3.7048
 9005TIP3    H248507   5.638   1.995   6.533 -0.5431  0.1554 -0.5922
 9006TIP3   OH248508   3.582   0.727   4.231  0.4405  0.1469 -0.1372
 9006TIP3    H148509   3.667   0.687   4.213  0.4893 -0.2052  0.8459
 9006TIP3    H248510   3.518   0.657   4.215  0.2912  0.4896 -1.1555
 9007TIP3   OH248511   1.568   4.145  13.605 -0.0649 -0.8011 -0.0209
 9007TIP3    H148512   1.536   4.201  13.675 -3.0381 -2.3676  0.0350
 9007TIP3    H248513   1.514   4.066  13.611  1.2305 -1.9939 -2.5721
 9008TIP3   OH248514   4.760   5.296   0.339 -0.0251 -0.1344  0.3505
 9008TIP3    H148515   4.719   5.262   0.260  0.0875 -1.2477  0.7536
 9008TIP3    H248516   4.787   5.385   0.316  0.5689 -0.6502 -1.0549
 9009TIP3   OH248517   1.119   2.813  12.347 -0.6014 -0.0843  0.1354
 9009TIP3    H148518   1.107   2.841  12.438  1.0512  1.5489 -0.0876
 9009TIP3    H248519   1.108   2.718  12.349  1.3449 -0.3388  2.4395
 9010TIP3   OH248520   0.662   3.629  17.157 -0.1999 -0.0145 -0.1866
 9010TIP3    H148521   0.714   3.579  17.220  1.7571  1.8704 -0.1721
 9010TIP3    H248522   0.597   3.675  17.211 -0.0919 -0.2660  0.1589
 9011TIP3   OH248523   0.748   6.744  12.625  0.1213  0.0508  0.5626
 9011TIP3    H148524   0.693   6.813  12.588  0.2185 -0.6276 -0.9153
 9011TIP3    H248525   0.702   6.663  12.604 -0.1805 -0.3824  2.5999
 9012TIP3   OH248526   1.307   1.958   1.853  0.5303  0.0914 -0.2847
 9012TIP3    H148527   1.226   1.963   1.802  0.1043  0.0856  0.3700
 9012TIP3    H248528   1.365   2.023   1.814 -0.6654  1.8617  0.7231
 9013TIP3   OH248529   6.057   4.127   0.565  0.7475 -0.2947 -0.3942
 9013TIP3    H148530   6.084   4.183   0.638 -0.4307  0.8068 -0.7561
 9013TIP3    H248531   5.962   4.120   0.574  0.4508  0.5641 -2.2480
 9014TIP3   OH248532   2.784   6.331   5.947  0.3566  0.2773 -0.5660
 9014TIP3    H148533   2.817   6.391   6.014 -0.1234  0.7204 -0.7292
 9014TIP3    H248534   2.725   6.273   5.995 -1.5906  1.8665 -0.9436
 9015TIP3   OH248535   0.174   1.413  14.947 -0.1056  0.0135  0.2813
 9015TIP3    H148536   0.265   1.408  14.975 -0.0285  1.0557  0.2513
 9015TIP3    H248537   0.132   1.338  14.988  0.6165 -0.0821  0.8665
 9016TIP3   OH248538   4.633   5.491   2.336  0.0882  0.1713  0.3217
 9016TIP3    H148539   4.543   5.513   2.359 -0.3639 -0.1369 -1.0478
 9016TIP3    H248540   4.679   5.575   2.336  0.0066  0.2422  1.7675
 9017TIP3   OH248541   2.960   2.177  13.618 -0.1485 -0.3554  0.1286
 9017TIP3    H148542   2.923   2.260  13.648 -0.3299  0.2108 -1.5350
 9017TIP3    H248543   2.884   2.122  13.598 -0.2473  0.6911 -2.9703
 9018TIP3   OH248544   0.456   2.550  12.167 -0.2947 -0.2002 -0.1627
 9018TIP3    H148545   0.496   2.552  12.254 -0.8776 -0.3567  0.1110
 9018TIP3    H248546   0.521   2.507  12.112 -0.5729 -1.5782  0.5378
 9019TIP3   OH248547   3.872   4.125  14.502  0.2754 -0.6603  0.5410
 9019TIP3    H148548   3.790   4.110  14.455  0.8910 -2.0940 -0.1487
 9019TIP3    H248549   3.857   4.204  14.554 -1.6255 -1.0626  0.6505
 9020TIP3   OH248550   2.423   2.765  14.890  0.0788  0.4302 -0.2612
 9020TIP3    H148551   2.395   2.773  14.799 -3.9284 -0.3307  0.7129
 9020TIP3    H248552   2.517   2.746  14.885 -0.4584 -2.4202 -4.3664
 9021TIP3   OH248553   0.117   4.041  14.206 -0.4725  0.1734 -0.1453
 9021TIP3    H148554   0.163   4.085  14.134  0.5785 -1.8629 -0.7994
 9021TIP3    H248555   0.038   4.006  14.166  1.0392 -2.6598 -0.9376
 9022TIP3   OH248556   6.456   3.287  12.631 -0.4020  0.2826  0.6567
 9022TIP3    H148557   6.493   3.258  12.714 -0.0941 -0.7467  0.1673
 9022TIP3    H248558   6.405   3.213  12.599  0.6956  0.1017 -0.7858
 9023TIP3   OH248559   1.871   3.677  17.175 -0.6008  0.4690 -0.4167
 9023TIP3    H148560   1.866   3.647  17.084 -1.2795  0.6970 -0.4626
 9023TIP3    H248561   1.846   3.769  17.171  2.8480  1.5382 -0.4756
 9024TIP3   OH248562   0.827   0.322  15.943  0.1961  0.6141 -0.4524
 9024TIP3    H148563   0.844   0.231  15.966  1.2952  0.8533 -0.2683
 9024TIP3    H248564   0.853   0.372  16.020 -1.6967  1.0040 -0.0282
 9025TIP3   OH248565   6.668   5.534   1.590  0.0595  0.0639 -0.1333
 9025TIP3    H148566   6.670   5.535   1.686  0.0259  0.5335 -0.1336
 9025TIP3    H248567   6.678   5.442   1.567  1.1623  0.0586  0.3009
 9026TIP3   OH248568   1.370   3.911   0.998  0.0044  0.0977  0.5066
 9026TIP3    H148569   1.409   3.829   1.029 -2.0286 -0.8545  0.6572
 9026TIP3    H248570   1.284   3.887   0.966  0.3063  1.8016 -1.8212
 9027TIP3   OH248571   0.904   3.547  16.462 -0.4506 -0.2768  0.4621
 9027TIP3    H148572   0.861   3.493  16.528  0.0897 -0.4293  0.6938
 9027TIP3    H248573   0.990   3.506  16.449 -1.4272 -1.7564 -2.1409
 9028TIP3   OH248574   4.424   0.966   3.105 -0.2946  0.6350  0.3184
 9028TIP3    H148575   4.341   0.919   3.108  0.8469 -1.4738  0.7790
 9028TIP3    H248576   4.416   1.032   3.174 -1.3984  0.1298  0.6978
 9029TIP3   OH248577   4.269   1.725   3.031 -0.1222  0.7795  0.8712
 9029TIP3    H148578   4.245   1.646   2.982 -0.0017  0.5106  1.2449
 9029TIP3    H248579   4.190   1.749   3.079 -1.0964  2.5244 -1.3806
 9030TIP3   OH248580   3.198   2.717  14.835  0.2152 -0.1096 -0.2183
 9030TIP3    H148581   3.218   2.770  14.759  0.2794 -1.1845 -0.9712
 9030TIP3    H248582   3.131   2.656  14.805 -0.1302 -0.2197  0.7254
 9031TIP3   OH248583   6.225   2.043  16.885 -0.2786  0.4842 -0.0981
 9031TIP3    H148584   6.320   2.056  16.884 -0.1028 -0.7068  0.1136
 9031TIP3    H248585   6.201   2.055  16.977 -0.1230 -0.5570  0.0884
 9032TIP3   OH248586   4.664   4.615   2.344  0.3238  0.0773  0.1446
 9032TIP3    H148587   4.602   4.549   2.314 -0.0880  0.1818  0.7487
 9032TIP3    H248588   4.750   4.581   2.319  0.1177 -0.6900  0.4594
 9033TIP3   OH248589   1.494   5.104   5.239  0.0646 -0.3474 -0.8645
 9033TIP3    H148590   1.544   5.104   5.157  0.6709  0.0064 -0.4998
 9033TIP3    H248591   1.523   5.182   5.285 -0.4088 -0.4444 -0.3875
 9034TIP3   OH248592   3.550   0.377   0.223  0.0292 -0.5968  0.0457
 9034TIP3    H148593   3.501   0.302   0.189  1.9463 -2.0309  0.2282
 9034TIP3    H248594   3.627   0.381   0.166  0.3471  0.7598  0.5505
 9035TIP3   OH248595   3.524   3.497   2.232  0.0486 -0.1324  0.0073
 9035TIP3    H148596   3.505   3.588   2.208  1.9267  0.3511  0.1461
 9035TIP3    H248597   3.595   3.505   2.297  2.0373 -1.7521 -1.8529
 9036TIP3   OH248598   5.964   3.571  11.050  0.4859 -0.4890 -0.3829
 9036TIP3    H148599   6.055   3.543  11.060  0.0130 -1.6140  1.0958
 9036TIP3    H248600   5.920   3.540  11.128 -1.0990  0.4441 -0.8468
 9037TIP3   OH248601   2.134   4.346   3.263 -0.3183 -0.2389 -0.8652
 9037TIP3    H148602   2.223   4.380   3.274 -0.6043  0.8341 -1.7593
 9037TIP3    H248603   2.097   4.349   3.351 -0.3519  1.8789 -0.9127
 9038TIP3   OH248604   3.372   0.645  11.602  0.1745 -0.2019  0.2712
 9038TIP3    H148605   3.459   0.609  11.619  0.9844  1.7770  0.5907
 9038TIP3    H248606   3.388   0.737  11.585 -2.0133  0.5614  1.9072
 9039TIP3   OH248607   2.396   3.494  10.637  0.1778 -0.0050  0.3005
 9039TIP3    H148608   2.439   3.566  10.683  0.7681  0.0068 -0.2517
 9039TIP3    H248609   2.455   3.419  10.651  0.0659 -0.1404  0.0521
 9040TIP3   OH248610   2.064   4.420   0.377 -0.2745 -0.2853 -0.0275
 9040TIP3    H148611   2.138   4.359   0.378  0.2663  0.3709  1.0245
 9040TIP3    H248612   2.033   4.422   0.467 -0.2315  1.0408 -0.0214
 9041TIP3   OH248613   0.853   4.888  11.023 -0.0810  0.8017 -0.4890
 9041TIP3    H148614   0.852   4.946  10.947 -1.6647  1.0881 -0.2971
 9041TIP3    H248615   0.771   4.909  11.070  0.5259  0.1578  0.9201
 9042TIP3   OH248616   2.480   5.220   4.890 -0.6866  0.1493 -0.4413
 9042TIP3    H148617   2.440   5.135   4.910  1.0836 -0.4673  0.7300
 9042TIP3    H248618   2.523   5.245   4.971 -1.0534  2.1416 -0.8125
 9043TIP3   OH248619   0.643   3.318   1.886  0.2789  0.6936 -0.3153
 9043TIP3    H148620   0.567   3.274   1.848  2.3858 -1.9765 -1.8475
 9043TIP3    H248621   0.666   3.385   1.821  0.4372  0.0740 -0.9148
 9044TIP3   OH248622   3.926   6.398  17.160  0.0583  0.0406  1.0576
 9044TIP3    H148623   3.847   6.370  17.113  0.9244  0.4258 -0.7011
 9044TIP3    H248624   3.906   6.487  17.188 -0.0366  0.2539  0.3374
 9045TIP3   OH248625   2.213   1.814  10.416  0.0387  0.4249 -0.2142
 9045TIP3    H148626   2.280   1.826  10.349  0.2190 -0.2164 -0.1566
 9045TIP3    H248627   2.220   1.892  10.471 -0.3820  1.1471 -1.1659
 9046TIP3   OH248628   1.870   4.871   4.006  0.8957  0.2322  0.2534
 9046TIP3    H148629   1.895   4.861   3.914  1.0212  0.1231  0.2982
 9046TIP3    H248630   1.893   4.961   4.028 -0.8553  0.8568 -0.3432
 9047TIP3   OH248631   3.619   2.132  12.307 -0.0430 -0.5441  0.3439
 9047TIP3    H148632   3.592   2.223  12.318  0.7969 -0.1398 -0.7989
 9047TIP3    H248633   3.679   2.133  12.232 -0.5455 -2.1337 -0.1241
 9048TIP3   OH248634   5.372   0.785  14.982 -0.1110 -0.4275 -0.0363
 9048TIP3    H148635   5.465   0.763  14.979 -0.1945 -0.7189 -1.3297
 9048TIP3    H248636   5.361   0.853  14.915 -0.4480  1.2295  1.6417
 9049TIP3   OH248637   2.536   5.343   2.310 -0.1852  0.0494  0.0863
 9049TIP3    H148638   2.630   5.350   2.293 -0.3420  1.4333 -0.3369
 9049TIP3    H248639   2.505   5.433   2.309 -1.7832 -0.4616 -1.3984
 9050TIP3   OH248640   4.608   3.434   5.789  0.0845 -0.1276  0.1417
 9050TIP3    H148641   4.696   3.472   5.788 -0.1853  0.5459  0.8349
 9050TIP3    H248642   4.595   3.402   5.700 -0.3705  3.0614 -1.0775
 9051TIP3   OH248643   0.684   3.492   4.183  0.0236  0.2926 -0.3093
 9051TIP3    H148644   0.762   3.451   4.220 -0.5944 -0.8854 -0.2625
 9051TIP3    H248645   0.626   3.506   4.258 -0.6878 -0.8772 -0.6140
 9052TIP3   OH248646   5.565   1.989  11.576 -0.0005  0.5238 -0.3568
 9052TIP3    H148647   5.641   2.003  11.631 -2.6917  0.5963  3.7650
 9052TIP3    H248648   5.539   1.898  11.592 -1.6992  0.9819 -0.2656
 9053TIP3   OH248649   2.491   0.525   5.020 -0.2857  0.3872 -0.2782
 9053TIP3    H148650   2.414   0.473   5.044  0.6735 -0.2969  1.4252
 9053TIP3    H248651   2.566   0.471   5.045  0.8073  0.7998 -2.3974
 9054TIP3   OH248652   3.131   0.593  14.492  0.0829 -0.0061  0.3691
 9054TIP3    H148653   3.048   0.623  14.456  0.4833 -0.4601 -0.9932
 9054TIP3    H248654   3.179   0.559  14.417  1.2924 -0.2449  1.2166
 9055TIP3   OH248655   4.062   5.146  16.480  0.0368  0.3095  0.6290
 9055TIP3    H148656   4.026   5.066  16.441 -0.2669  0.7990 -0.1234
 9055TIP3    H248657   4.089   5.120  16.568 -1.6164 -0.2350  1.0134
 9056TIP3   OH248658   0.181   4.929   5.781  0.3805 -0.1340 -0.0662
 9056TIP3    H148659   0.237   4.978   5.719  1.2699 -1.3264 -0.2452
 9056TIP3    H248660   0.204   4.837   5.766 -2.1211 -0.7355 -0.5917
 9057TIP3   OH248661   0.054   5.662  15.059 -0.1838  0.0355  0.6292
 9057TIP3    H148662   0.066   5.757  15.058 -1.6119  0.2488  1.6774
 9057TIP3    H248663  -0.030   5.648  15.016  0.1592 -0.7841  0.2194
 9058TIP3   OH248664   5.238   2.820   4.683 -0.7560  0.1538  0.3762
 9058TIP3    H148665   5.262   2.909   4.707 -1.4796  0.4002  0.1932
 9058TIP3    H248666   5.273   2.765   4.754  0.0779  0.5317  0.2644
 9059TIP3   OH248667   5.324   3.853   4.051 -0.6642  0.2733  0.5972
 9059TIP3    H148668   5.339   3.888   4.138 -1.9230  0.5114  0.7343
 9059TIP3    H248669   5.393   3.788   4.039  1.0891  2.0448  0.7412
 9060TIP3   OH248670   6.556   5.828   1.800 -0.2136  0.6819  0.0426
 9060TIP3    H148671   6.567   5.781   1.883  0.3654 -1.0561 -0.9448
 9060TIP3    H248672   6.511   5.765   1.744  0.4639  1.3807 -1.3138
 9061TIP3   OH248673   5.832   6.592  11.695 -0.5867  0.0454  1.0138
 9061TIP3    H148674   5.802   6.593  11.786  0.5994 -0.2791  1.4252
 9061TIP3    H248675   5.900   6.659  11.692 -0.0367 -0.5217  0.5818
 9062TIP3   OH248676   4.693   3.456  13.784 -0.3307  0.1608  0.1178
 9062TIP3    H148677   4.627   3.410  13.836 -0.7940 -0.4857 -1.0020
 9062TIP3    H248678   4.711   3.536  13.834  1.0252 -1.4777  2.4788
 9063TIP3   OH248679   6.043   2.306  12.399 -0.5797 -0.3419 -0.3378
 9063TIP3    H148680   5.989   2.382  12.421 -0.6825 -0.0821 -1.4602
 9063TIP3    H248681   6.106   2.338  12.335  1.7383 -0.3525  1.7890
 9064TIP3   OH248682   6.591   5.630  16.226  0.7558  0.4871  0.6374
 9064TIP3    H148683   6.511   5.671  16.258  0.7953  1.0037  0.0882
 9064TIP3    H248684   6.657   5.699  16.229  1.0611  0.2050  0.6067
 9065TIP3   OH248685   3.840   2.476  14.910  0.1951  0.1982 -0.3557
 9065TIP3    H148686   3.769   2.435  14.958  0.7100 -1.5512 -1.0349
 9065TIP3    H248687   3.839   2.568  14.939  0.9228 -0.8535  3.5864
 9066TIP3   OH248688   4.235   6.042   3.929  0.4943 -0.2466  0.1152
 9066TIP3    H148689   4.182   6.061   3.851  1.0991  0.8605 -0.0437
 9066TIP3    H248690   4.172   6.043   4.001 -0.0096 -0.9000 -0.2990
 9067TIP3   OH248691   3.604   5.894   5.682  0.1488 -0.5858  0.1218
 9067TIP3    H148692   3.576   5.983   5.659 -0.4841 -0.4329  1.3980
 9067TIP3    H248693   3.569   5.880   5.770  1.2329 -1.6745  0.4002
 9068TIP3   OH248694   0.477   0.492   4.148  0.1942  0.6922 -0.4095
 9068TIP3    H148695   0.402   0.547   4.172 -0.1234  0.1715 -0.1904
 9068TIP3    H248696   0.461   0.409   4.194  3.2007  1.9858  3.4653
 9069TIP3   OH248697   4.646   1.326   0.952  0.8156  0.2930  0.5001
 9069TIP3    H148698   4.562   1.366   0.934  1.0774 -0.0725 -1.9175
 9069TIP3    H248699   4.626   1.252   1.009 -0.0791  1.8391  2.2993
 9070TIP3   OH248700   0.606   0.026   5.022 -0.2650  0.4715 -0.5872
 9070TIP3    H148701   0.543   0.013   4.951  0.2107  2.3977 -1.3974
 9070TIP3    H248702   0.554   0.064   5.093 -0.5386 -0.5231 -0.2371
 9071TIP3   OH248703   0.797   6.395   4.582 -0.1801  0.0441 -0.0703
 9071TIP3    H148704   0.795   6.473   4.637 -2.5400  0.0493 -0.0575
 9071TIP3    H248705   0.787   6.428   4.493 -3.6007 -0.2152  0.0734
 9072TIP3   OH248706   0.861   5.667  10.649  0.6742 -0.0697 -0.2410
 9072TIP3    H148707   0.856   5.619  10.731  4.0131 -2.5626 -1.2519
 9072TIP3    H248708   0.829   5.605  10.583 -2.4871  2.0681 -0.9408
 9073TIP3   OH248709   0.457   1.432  17.244 -0.0359  0.4210  0.0127
 9073TIP3    H148710   0.432   1.468  17.329 -1.9876  0.3966 -0.5005
 9073TIP3    H248711   0.546   1.464  17.230  0.9594 -0.7867  2.7108
 9074TIP3   OH248712   5.114   3.718  16.706  0.8445 -0.1650 -0.1958
 9074TIP3    H148713   5.154   3.659  16.641  0.3760 -1.2485  0.4843
 9074TIP3    H248714   5.020   3.705  16.695  0.6866  1.3953 -0.8804
 9075TIP3   OH248715   1.552   1.086  15.490  0.0009  0.7723 -0.0309
 9075TIP3    H148716   1.557   0.999  15.529 -1.5424  1.6135  2.2731
 9075TIP3    H248717   1.643   1.115  15.484  0.4636 -0.6071  0.0753
 9076TIP3   OH248718   0.121   6.056  12.602  0.0842 -0.3677  0.2515
 9076TIP3    H148719   0.144   6.050  12.695 -0.8012 -1.3811  0.4352
 9076TIP3    H248720   0.171   6.130  12.569  2.8270 -1.8386  0.8186
 9077TIP3   OH248721   3.451   2.236  11.829 -0.3956  0.1058 -0.4016
 9077TIP3    H148722   3.410   2.195  11.753 -1.2993 -0.2130  0.2412
 9077TIP3    H248723   3.474   2.162  11.887 -0.7234  0.4092  0.1225
 9078TIP3   OH248724   6.009   6.508   3.866 -0.0110  0.9962 -0.4719
 9078TIP3    H148725   5.940   6.484   3.804 -2.3097  0.8150  1.9817
 9078TIP3    H248726   5.992   6.600   3.886  0.3694  0.9120  0.2639
 9079TIP3   OH248727   1.788   0.512  10.717  0.3211 -1.1597  0.1983
 9079TIP3    H148728   1.825   0.436  10.671  1.6285 -0.2224 -0.3568
 9079TIP3    H248729   1.828   0.587  10.675  0.6681 -0.2071  2.1316
 9080TIP3   OH248730   3.462   2.045  13.006  0.1523 -0.2120  0.0830
 9080TIP3    H148731   3.409   1.993  12.946 -0.9586 -0.2148  1.0265
 9080TIP3    H248732   3.544   2.059  12.959 -0.2224 -1.2329 -0.9365
 9081TIP3   OH248733   1.575   6.785   0.466  0.0837 -0.3161  0.4495
 9081TIP3    H148734   1.594   6.834   0.546 -1.4241 -1.0424  1.2965
 9081TIP3    H248735   1.519   6.844   0.415 -0.8256 -0.6997  0.9763
 9082TIP3   OH248736   6.719   1.028   2.685  0.5735 -0.4631  0.0019
 9082TIP3    H148737   6.638   0.977   2.683  0.9114 -1.0855  1.1995
 9082TIP3    H248738   6.785   0.969   2.649  0.6036 -0.1583 -0.4480
 9083TIP3   OH248739   1.942   6.277   6.264  0.7044 -0.0839 -0.0637
 9083TIP3    H148740   1.949   6.353   6.322 -0.2422 -0.2168  0.2340
 9083TIP3    H248741   1.858   6.288   6.219  1.5264  0.1461 -1.6126
 9084TIP3   OH248742   0.406   5.957  15.083  0.3576  0.0335  0.0515
 9084TIP3    H148743   0.326   5.967  15.134  0.6145  1.1685  0.2384
 9084TIP3    H248744   0.411   6.036  15.029 -0.7995 -1.8030 -3.0457
 9085TIP3   OH248745   0.627   3.243  15.533  0.2752 -0.1723 -0.2906
 9085TIP3    H148746   0.655   3.334  15.536 -0.5685  0.0570  1.8100
 9085TIP3    H248747   0.681   3.198  15.598 -1.9919 -0.3324  1.5806
 9086TIP3   OH248748   0.707   3.932  16.923  0.3865  0.8812  0.3675
 9086TIP3    H148749   0.663   3.873  16.862 -0.4386  0.5380  1.2642
 9086TIP3    H248750   0.787   3.958  16.878  1.4970 -1.9968  0.4690
 9087TIP3   OH248751   5.108   3.825  15.936  0.3087  0.0104 -0.4277
 9087TIP3    H148752   5.114   3.758  16.004  0.3921  2.6304  2.3688
 9087TIP3    H248753   5.198   3.853  15.921  0.0376  2.0049  1.2615
 9088TIP3   OH248754   4.151   5.882   1.024 -0.4743 -0.0236  0.0295
 9088TIP3    H148755   4.226   5.941   1.017 -0.5022  0.0874  0.6301
 9088TIP3    H248756   4.126   5.865   0.933  0.9770 -0.9792 -0.2240
 9089TIP3   OH248757   3.103   6.097   4.607 -0.1124  0.2496 -0.2366
 9089TIP3    H148758   3.132   6.024   4.661 -1.2243  0.3473  0.5226
 9089TIP3    H248759   3.008   6.091   4.607 -0.1637  0.7134 -1.5636
 9090TIP3   OH248760   4.088   3.355   4.998  0.1528  0.1116  0.1490
 9090TIP3    H148761   4.008   3.313   5.030  0.0007  0.0107 -0.3648
 9090TIP3    H248762   4.118   3.298   4.927  0.4357  0.3894  0.0454
 9091TIP3   OH248763   4.041   3.008   2.104  0.6002 -0.6999 -0.2685
 9091TIP3    H148764   4.074   2.931   2.057  1.8230 -0.2195 -0.2346
 9091TIP3    H248765   4.081   3.002   2.191 -0.2824 -0.6691  0.1525
 9092TIP3   OH248766   4.752   5.398   3.426  0.4282  0.4155  0.4338
 9092TIP3    H148767   4.658   5.409   3.415  0.2950  0.0566  1.0963
 9092TIP3    H248768   4.791   5.477   3.390 -0.0903  0.3290 -0.3367
 9093TIP3   OH248769   0.944   4.428  14.011  0.0987  0.1293  0.0940
 9093TIP3    H148770   1.019   4.427  13.951  0.9462 -1.2963  1.1244
 9093TIP3    H248771   0.982   4.417  14.098 -1.1966  1.0873  0.8191
 9094TIP3   OH248772   1.704   6.707   6.466  0.2038 -0.3618  0.0840
 9094TIP3    H148773   1.640   6.635   6.461  0.6456 -0.7042 -0.7176
 9094TIP3    H248774   1.755   6.687   6.544 -1.3872  0.5373  1.4317
 9095TIP3   OH248775   0.471   1.144  15.382  0.4224 -0.3551 -0.0303
 9095TIP3    H148776   0.400   1.206  15.399  0.2326 -0.0008 -1.9240
 9095TIP3    H248777   0.441   1.063  15.423  0.3040  0.5262  1.7712
 9096TIP3   OH248778   0.981   2.565  12.253 -0.1614 -0.0674 -0.0497
 9096TIP3    H148779   1.034   2.486  12.242 -0.1981 -0.1616  0.4181
 9096TIP3    H248780   0.953   2.588  12.165 -0.2875 -0.6685 -0.1693
 9097TIP3   OH248781   6.790   3.316  14.904 -0.0810  0.4745  0.3275
 9097TIP3    H148782   6.781   3.409  14.882 -0.7321  0.3509  0.0528
 9097TIP3    H248783   6.819   3.275  14.822  0.5250  0.4820  0.5353
 9098TIP3   OH248784   0.950   5.304  13.080 -0.1127  0.4613  0.1932
 9098TIP3    H148785   0.875   5.325  13.136 -0.4860 -1.3251  0.4178
 9098TIP3    H248786   1.026   5.328  13.133 -0.4912  1.4937  0.3014
 9099TIP3   OH248787   0.007   5.566   1.101  0.0677  0.3614  0.6728
 9099TIP3    H148788  -0.030   5.478   1.111  0.2786  0.3278  1.1472
 9099TIP3    H248789   0.068   5.558   1.027 -1.0970  0.4955 -0.3457
 9100TIP3   OH248790   0.117   2.666   2.973  0.3586  0.0007  0.0456
 9100TIP3    H148791   0.109   2.727   3.047 -0.0778 -0.0938  0.0765
 9100TIP3    H248792   0.029   2.632   2.960  0.6404 -0.7704  0.1428
 9101TIP3   OH248793   2.123   6.514  16.496 -0.0849  0.6270 -0.1210
 9101TIP3    H148794   2.110   6.439  16.553 -0.6202  0.0441 -0.9729
 9101TIP3    H248795   2.133   6.588  16.555  1.7090 -0.2718  0.7810
 9102TIP3   OH248796   2.892   4.548   3.160 -0.1325  0.0771 -0.2187
 9102TIP3    H148797   2.809   4.526   3.203 -0.1004 -1.3835 -0.8513
 9102TIP3    H248798   2.921   4.465   3.121  1.2998  0.7202 -0.5555
 9103TIP3   OH248799   2.283   5.415  11.666 -0.5110 -0.1244  0.1523
 9103TIP3    H148800   2.208   5.384  11.718 -0.0868 -0.1865  0.7365
 9103TIP3    H248801   2.245   5.436  11.581 -1.1878 -0.2191  0.4179
 9104TIP3   OH248802   2.314   0.449   2.303  0.4462 -0.0362  0.6047
 9104TIP3    H148803   2.297   0.487   2.389  0.6559  1.2104  0.1245
 9104TIP3    H248804   2.365   0.516   2.257  2.7920 -1.8005  0.4588
 9105TIP3   OH248805   6.614   0.668   3.753 -0.4217  0.1068  0.5552
 9105TIP3    H148806   6.695   0.695   3.796  1.5767 -2.5685 -1.1959
 9105TIP3    H248807   6.569   0.613   3.818  1.0621 -1.4061  0.3760
 9106TIP3   OH248808   1.241   3.750  14.734  0.0212  0.2930  0.4532
 9106TIP3    H148809   1.259   3.721  14.823 -1.0144  0.6441  0.7864
 9106TIP3    H248810   1.269   3.677  14.679 -0.8442 -0.5982  1.1690
 9107TIP3   OH248811   3.391   2.513   3.479 -0.0361 -0.3171  0.2140
 9107TIP3    H148812   3.344   2.588   3.444 -2.2430 -2.7251 -2.5669
 9107TIP3    H248813   3.328   2.470   3.537  0.2680 -1.2413 -0.1073
 9108TIP3   OH248814   2.832   0.486   0.635 -0.4432 -0.1860  0.1146
 9108TIP3    H148815   2.875   0.478   0.720  0.3152  1.0489 -0.1193
 9108TIP3    H248816   2.753   0.433   0.642 -0.3178 -0.2136  1.5396
 9109TIP3   OH248817   5.159   5.833   2.991  0.5095 -0.3906  0.1465
 9109TIP3    H148818   5.228   5.837   2.926  1.2952 -1.3018  0.9094
 9109TIP3    H248819   5.204   5.834   3.076 -0.4815  0.7237  0.7114
 9110TIP3   OH248820   0.760   3.905  17.203 -0.1082  0.4759  0.1797
 9110TIP3    H148821   0.757   3.934  17.112  0.7463  0.1649  0.0371
 9110TIP3    H248822   0.714   3.821  17.203  0.0073  0.4121  0.0028
 9111TIP3   OH248823   5.139   3.222   4.128 -0.1720 -0.1110  0.4624
 9111TIP3    H148824   5.118   3.160   4.059  0.4524  0.1094  0.0620
 9111TIP3    H248825   5.064   3.281   4.132  0.1660  0.4019 -0.6312
 9112TIP3   OH248826   5.638   2.185  12.020 -0.1772  0.1743  0.4059
 9112TIP3    H148827   5.710   2.201  12.081 -1.0279  1.1449  1.1956
 9112TIP3    H248828   5.561   2.176  12.076 -1.0400  1.4211 -0.5377
 9113TIP3   OH248829   1.652   1.767   4.553  0.0657  0.8395 -0.4531
 9113TIP3    H148830   1.696   1.713   4.488  0.3812  3.1424 -2.2937
 9113TIP3    H248831   1.563   1.778   4.519  0.4129  2.5825 -0.9051
 9114TIP3   OH248832   3.622   1.807   5.783  0.9186 -0.1764  0.9927
 9114TIP3    H148833   3.676   1.862   5.726  0.1541 -0.0359  0.3847
 9114TIP3    H248834   3.657   1.719   5.772 -0.6490 -0.5804 -1.5443
 9115TIP3   OH248835   1.839   3.527   5.302  0.7259  0.1144  0.2142
 9115TIP3    H148836   1.773   3.512   5.370  1.7363  0.4398  1.2926
 9115TIP3    H248837   1.797   3.496   5.221 -1.2607  1.5783  0.6113
 9116TIP3   OH248838   3.809   5.990  16.405 -0.3140 -0.3373 -0.4614
 9116TIP3    H148839   3.905   5.983  16.406 -0.2144  0.8162  0.2168
 9116TIP3    H248840   3.785   6.005  16.496 -1.0217  0.6653 -0.7928
 9117TIP3   OH248841   2.474   3.215  12.674 -0.1508 -0.2530 -0.2333
 9117TIP3    H148842   2.475   3.308  12.653  3.1107  0.1612  1.1908
 9117TIP3    H248843   2.554   3.180  12.635 -0.3607 -2.0653  0.8200
 9118TIP3   OH248844   5.296   4.397   3.181  0.1777 -0.4733  0.0420
 9118TIP3    H148845   5.350   4.342   3.124  0.4943  2.0349 -2.2938
 9118TIP3    H248846   5.359   4.452   3.228 -0.1401 -1.8383  2.1705
 9119TIP3   OH248847   5.015   4.020  11.149 -0.2702  0.1373 -0.0421
 9119TIP3    H148848   4.974   4.068  11.221  1.5386 -1.4040  2.1354
 9119TIP3    H248849   5.093   4.071  11.128 -0.2432  0.0382 -0.1829
 9120TIP3   OH248850   0.608   2.488   3.339  0.4426 -0.1540 -0.2821
 9120TIP3    H148851   0.646   2.574   3.357  2.1706 -0.6719 -1.2084
 9120TIP3    H248852   0.624   2.438   3.419 -0.1994  0.2397  0.1049
 9121TIP3   OH248853   5.659   5.011   1.217  0.2068 -0.2245  0.8131
 9121TIP3    H148854   5.582   4.993   1.271 -0.9527  0.8084 -0.4414
 9121TIP3    H248855   5.645   4.961   1.137  1.1404 -0.4960  0.8059
 9122TIP3   OH248856   4.974   4.603   4.945  0.6025 -0.1426  0.2282
 9122TIP3    H148857   4.974   4.669   5.015  1.5411  1.7870 -1.4747
 9122TIP3    H248858   4.928   4.644   4.872  0.0307 -1.9210 -0.4722
 9123TIP3   OH248859   5.400   1.741  12.697  0.0236 -0.1785 -0.0971
 9123TIP3    H148860   5.425   1.782  12.780  0.1230  0.7149 -0.5594
 9123TIP3    H248861   5.479   1.744  12.643 -0.2260 -0.1575 -0.4657
 9124TIP3   OH248862   2.488   2.299  12.482 -0.1802 -0.4961 -0.4896
 9124TIP3    H148863   2.574   2.291  12.522  0.7070  0.5039 -2.0876
 9124TIP3    H248864   2.433   2.340  12.549  1.1285  0.7201 -0.1122
 9125TIP3   OH248865   3.667   0.787  15.078  0.0623 -0.3589 -0.1140
 9125TIP3    H148866   3.662   0.861  15.138 -1.5173  0.6031 -1.3279
 9125TIP3    H248867   3.715   0.719  15.126  0.4497  0.9982  1.4998
 9126TIP3   OH248868   4.540   0.693   1.910 -0.4844 -0.4528  0.1109
 9126TIP3    H148869   4.486   0.620   1.941 -0.6304 -0.4465 -0.1219
 9126TIP3    H248870   4.576   0.732   1.989 -0.4238 -0.7658  0.2382
 9127TIP3   OH248871   0.364   2.030   6.181  0.1631  0.0522 -0.0932
 9127TIP3    H148872   0.294   1.971   6.151  1.1521 -0.6366 -1.1394
 9127TIP3    H248873   0.332   2.065   6.264 -0.8396 -1.2817  0.1190
 9128TIP3   OH248874   1.527   6.363  13.261  0.1408 -0.5694 -0.2792
 9128TIP3    H148875   1.570   6.437  13.304  1.2829 -1.7905  0.7599
 9128TIP3    H248876   1.434   6.375  13.282  0.2497  0.7438 -0.4402
 9129TIP3   OH248877   4.609   5.966   3.011 -0.0635  0.0186  0.0755
 9129TIP3    H148878   4.588   6.049   2.969 -0.2856 -1.1225 -2.2256
 9129TIP3    H248879   4.689   5.936   2.967  0.5206 -0.6043  1.4847
 9130TIP3   OH248880   2.793   2.876   0.779 -0.0613  0.4927 -0.2091
 9130TIP3    H148881   2.727   2.887   0.711  0.2687  2.0963 -0.3067
 9130TIP3    H248882   2.797   2.961   0.823  1.6924  0.3352  0.0103
 9131TIP3   OH248883   3.992   1.696   0.452 -0.0875  0.2707  0.2099
 9131TIP3    H148884   3.940   1.622   0.419  0.8947 -0.7964  0.9902
 9131TIP3    H248885   3.950   1.720   0.534  0.1706 -0.0718  0.4449
 9132TIP3   OH248886   1.084   0.836   0.945  0.9200  0.3767 -0.1576
 9132TIP3    H148887   1.127   0.906   0.993  0.5844  0.1256  0.5204
 9132TIP3    H248888   1.156   0.784   0.908  1.1701  0.9169 -0.4376
 9133TIP3   OH248889   6.089   2.766  14.266  0.0046 -0.1725  0.7542
 9133TIP3    H148890   6.083   2.671  14.250  0.4492 -0.1099  0.1714
 9133TIP3    H248891   6.042   2.805  14.193 -0.1328  0.0614  0.9680
 9134TIP3   OH248892   2.384   1.128  17.152 -0.2738 -0.1591 -0.5696
 9134TIP3    H148893   2.424   1.104  17.069  0.9759  0.8035 -0.2734
 9134TIP3    H248894   2.448   1.103  17.218  0.2310  2.0679 -0.1353
 9135TIP3   OH248895   2.726   4.313  11.591 -0.0196 -0.4649 -0.4554
 9135TIP3    H148896   2.760   4.228  11.617 -0.3811 -0.7266 -0.8338
 9135TIP3    H248897   2.694   4.351  11.673  2.1862  0.2843  0.1420
 9136TIP3   OH248898   2.658   1.779   2.679  0.0233 -0.4128 -0.4786
 9136TIP3    H148899   2.680   1.787   2.586 -1.5986  2.3413 -0.7545
 9136TIP3    H248900   2.740   1.796   2.724  0.5618 -0.3804 -1.4372
 9137TIP3   OH248901   1.783   3.670  15.978  0.0676 -0.1402  0.2277
 9137TIP3    H148902   1.801   3.580  15.952 -0.1825 -0.5382  1.3558
 9137TIP3    H248903   1.845   3.722  15.928  1.1981 -1.0721  0.6092
 9138TIP3   OH248904   3.643   4.540   0.641  0.3236 -0.6791  0.1286
 9138TIP3    H148905   3.678   4.459   0.602 -0.0640 -0.1271 -1.4381
 9138TIP3    H248906   3.589   4.510   0.714  0.7543 -1.7804  0.0213
 9139TIP3   OH248907   5.486   1.394   4.055 -0.0099 -0.1403  0.0418
 9139TIP3    H148908   5.470   1.356   3.968 -4.5037  1.1324  0.0672
 9139TIP3    H248909   5.446   1.333   4.116  0.7201  0.3041  0.9922
 9140TIP3   OH248910   2.787   4.402  14.944 -0.1726  0.1401  0.2147
 9140TIP3    H148911   2.693   4.387  14.938 -0.1471  0.5687 -2.8128
 9140TIP3    H248912   2.798   4.494  14.920  1.0629 -0.1261 -0.3391
 9141TIP3   OH248913   5.872   2.638   1.018 -0.0198  0.0264 -0.2137
 9141TIP3    H148914   5.809   2.566   1.028  1.1089 -1.7164 -3.6635
 9141TIP3    H248915   5.895   2.636   0.925  3.3731  2.0637  0.4031
 9142TIP3   OH248916   0.827   1.037   1.837  0.3776  0.6580  0.1523
 9142TIP3    H148917   0.916   1.004   1.839  0.1935  0.1780  0.7849
 9142TIP3    H248918   0.772   0.959   1.834 -0.0938  0.8234  2.6710
 9143TIP3   OH248919   0.475   0.228  11.679  0.2032  0.0998 -0.1937
 9143TIP3    H148920   0.476   0.292  11.608  0.6155 -0.3646 -0.6019
 9143TIP3    H248921   0.528   0.269  11.748  1.4978 -0.3190 -0.9100
 9144TIP3   OH248922   3.750   5.441   1.814 -0.4664 -0.1095 -0.3946
 9144TIP3    H148923   3.754   5.360   1.763 -0.1523 -1.0336  1.0507
 9144TIP3    H248924   3.738   5.413   1.904 -0.0642  1.4591  0.1880
 9145TIP3   OH248925   5.681   0.799  15.931  0.5473  0.2175  0.2599
 9145TIP3    H148926   5.687   0.705  15.917 -2.2576  0.0082 -0.0453
 9145TIP3    H248927   5.658   0.808  16.024  3.0387  0.7968  0.9048
 9146TIP3   OH248928   5.411   5.357   4.739  0.2033  0.5504 -0.1311
 9146TIP3    H148929   5.357   5.415   4.793 -0.0284  1.7456 -1.5784
 9146TIP3    H248930   5.349   5.300   4.695  0.4116 -0.6201  1.0354
 9147TIP3   OH248931   4.545   2.082   1.909  0.6495  0.1367  0.4419
 9147TIP3    H148932   4.518   2.034   1.830  0.0097  0.7660  0.2657
 9147TIP3    H248933   4.599   2.154   1.876 -1.3003  1.6466  0.3376
 9148TIP3   OH248934   4.848   0.259   0.286 -0.8176  0.5824  0.5002
 9148TIP3    H148935   4.885   0.342   0.316  0.8488 -0.5965  1.9209
 9148TIP3    H248936   4.773   0.244   0.343  0.5730 -0.1956  2.2398
 9149TIP3   OH248937   1.487   6.508  14.409  0.8876  0.0072  0.1397
 9149TIP3    H148938   1.580   6.528  14.419  0.4316  1.9588  0.8132
 9149TIP3    H248939   1.453   6.504  14.498  0.2078 -0.0768 -0.1170
 9150TIP3   OH248940   0.131   0.894   4.816  0.6009  0.3098  0.4430
 9150TIP3    H148941   0.142   0.986   4.792  0.0830  0.3361  0.3066
 9150TIP3    H248942   0.180   0.846   4.749 -0.0821  0.4294 -0.1565
 9151TIP3   OH248943   2.335   0.091  11.530  0.0713  0.2645 -0.1021
 9151TIP3    H148944   2.382   0.171  11.506 -1.3895  1.2880  0.2730
 9151TIP3    H248945   2.372   0.067  11.615  1.6481 -0.4188 -0.9455
 9152TIP3   OH248946   2.894   1.987   2.223 -0.4055  0.2334 -0.5411
 9152TIP3    H148947   2.899   2.015   2.314  1.2238  0.0314 -0.5319
 9152TIP3    H248948   2.818   2.033   2.187  0.0169  1.7723  0.4362
 9153TIP3   OH248949   5.291   4.753  14.558  0.0473  0.5831 -0.0817
 9153TIP3    H148950   5.251   4.681  14.608  2.2743 -1.0914 -0.5179
 9153TIP3    H248951   5.351   4.794  14.620 -1.0381  1.9383  0.0895
 9154TIP3   OH248952   4.864   5.878   1.506  0.5212  0.0016  0.5196
 9154TIP3    H148953   4.949   5.864   1.465  0.4907 -0.1799  0.5153
 9154TIP3    H248954   4.869   5.965   1.545  1.4226 -0.7767  2.2445
 9155TIP3   OH248955   5.087   5.895  16.256 -0.3890  0.8014 -0.0036
 9155TIP3    H148956   5.125   5.824  16.204 -0.1557  0.9712 -0.0701
 9155TIP3    H248957   5.130   5.974  16.222 -0.8313  1.0009 -0.1051
 9156TIP3   OH248958   1.364   4.454   3.448  0.1896 -0.7579  0.1727
 9156TIP3    H148959   1.343   4.482   3.537 -0.0822 -1.1944  0.2495
 9156TIP3    H248960   1.297   4.496   3.393 -0.0570 -1.0378  0.2567
 9157TIP3   OH248961   5.956   3.369   4.280  0.0272  0.8380  0.5516
 9157TIP3    H148962   5.994   3.456   4.277 -0.5953  1.0996 -0.1378
 9157TIP3    H248963   5.863   3.382   4.261 -0.0435  0.0137  0.2513
 9158TIP3   OH248964   0.619   3.328  14.091 -0.2460  0.1855  0.2615
 9158TIP3    H148965   0.550   3.268  14.063 -1.0170 -0.1244  2.5876
 9158TIP3    H248966   0.668   3.278  14.157  0.1159  1.5444  1.0552
 9159TIP3   OH248967   0.227   3.519   2.798  0.0554  0.1003  0.0717
 9159TIP3    H148968   0.288   3.542   2.868 -0.6096  1.4398  0.2324
 9159TIP3    H248969   0.193   3.603   2.766 -0.5339 -0.5400 -1.0699
 9160TIP3   OH248970   1.931   4.076  13.356 -0.3038  0.4107  0.0027
 9160TIP3    H148971   1.979   4.048  13.434 -3.4005 -0.5330  1.7491
 9160TIP3    H248972   1.866   4.138  13.389 -1.0808  0.7428 -2.0245
 9161TIP3   OH248973   4.832   0.678   0.405 -0.3355  0.5865  0.1433
 9161TIP3    H148974   4.840   0.612   0.474 -1.0123 -0.1168 -0.4307
 9161TIP3    H248975   4.761   0.646   0.349 -0.1964  1.4441 -0.5493
 9162TIP3   OH248976   0.652   4.483  11.300 -0.7447  0.0530 -0.2458
 9162TIP3    H148977   0.692   4.438  11.226 -1.3099  0.0191 -0.5289
 9162TIP3    H248978   0.594   4.548  11.261 -2.4311 -1.1683  0.1451
 9163TIP3   OH248979   4.326   5.330  14.956  0.5794 -0.1909  0.1681
 9163TIP3    H148980   4.381   5.363  14.885 -1.9064  1.3786 -1.2002
 9163TIP3    H248981   4.350   5.384  15.031 -1.5981  3.3026 -1.3900
 9164TIP3   OH248982   0.321   1.303   2.492 -0.5924  0.0493  0.5130
 9164TIP3    H148983   0.244   1.345   2.528 -0.3414 -0.9523  2.3609
 9164TIP3    H248984   0.378   1.287   2.568  1.3080  0.4868 -0.7400
 9165TIP3   OH248985   5.334   3.157   0.396  0.4413 -0.4435 -0.1654
 9165TIP3    H148986   5.313   3.207   0.317 -0.3637 -2.1717 -1.0815
 9165TIP3    H248987   5.330   3.222   0.466 -0.9013  0.7236 -1.2587
 9166TIP3   OH248988   2.667   0.728   0.046 -0.3780 -0.0893  0.4102
 9166TIP3    H148989   2.651   0.768  -0.039 -1.8634  0.4850  0.9231
 9166TIP3    H248990   2.588   0.677   0.064  0.0407 -0.4441  1.2982
 9167TIP3   OH248991   1.463   5.287   1.544  0.1152  0.0007  0.0834
 9167TIP3    H148992   1.469   5.371   1.498 -0.3226  0.4164  0.7548
 9167TIP3    H248993   1.516   5.301   1.623  0.8187 -0.6817 -0.2574
 9168TIP3   OH248994   3.081   3.802  15.918 -0.4510 -0.7149  0.3604
 9168TIP3    H148995   3.149   3.868  15.903 -1.5774  0.2179 -0.9416
 9168TIP3    H248996   3.128   3.726  15.953  1.3200 -0.2517 -0.8925
 9169TIP3   OH248997   0.743   1.137   5.966  0.0694 -0.0485  0.2158
 9169TIP3    H148998   0.679   1.162   6.034  0.9346  0.8474  0.7364
 9169TIP3    H248999   0.820   1.111   6.016  0.8039  0.8690 -0.4299
 9170TIP3   OH249000   5.513   5.387   1.728  0.2280 -0.0739  0.3345
 9170TIP3    H149001   5.420   5.399   1.747 -0.6953  1.2294 -3.8447
 9170TIP3    H249002   5.520   5.296   1.701  0.0531 -0.0488  0.2001
 9171TIP3   OH249003   5.552   3.142   1.650  0.1062  0.1165 -0.6022
 9171TIP3    H149004   5.589   3.062   1.613 -0.6144 -1.3726  1.6753
 9171TIP3    H249005   5.473   3.158   1.598 -0.0336 -0.9898 -0.7682
 9172TIP3   OH249006   0.218   1.817  14.037 -0.0890 -0.0566 -0.2303
 9172TIP3    H149007   0.243   1.731  14.072 -1.5993 -0.2307  0.4859
 9172TIP3    H249008   0.127   1.807  14.009 -0.4153  1.3917  0.1974
 9173TIP3   OH249009   5.420   4.798   2.106  0.1431 -0.2643  0.4455
 9173TIP3    H149010   5.501   4.804   2.055  0.0602 -0.4447  0.2922
 9173TIP3    H249011   5.447   4.763   2.190 -0.1820 -3.4329 -0.6297
 9174TIP3   OH249012   3.199   3.387  14.064 -0.1639  0.3313  0.1936
 9174TIP3    H149013   3.148   3.307  14.077 -1.3183  0.9305 -0.3924
 9174TIP3    H249014   3.134   3.457  14.071  1.1741  1.4149  2.9395
 9175TIP3   OH249015   2.592   4.766  12.144 -0.0182 -0.3212  0.1050
 9175TIP3    H149016   2.578   4.827  12.072 -2.0077 -0.6762  0.1298
 9175TIP3    H249017   2.515   4.777  12.200  0.1696 -1.9767  0.7486
 9176TIP3   OH249018   2.509   5.024   4.402  0.3228  0.1088  0.4854
 9176TIP3    H149019   2.449   5.095   4.426 -0.1976 -0.1128 -0.1242
 9176TIP3    H249020   2.510   4.967   4.480  2.1839  1.6968  1.6909
 9177TIP3   OH249021   1.777   5.840   6.636  0.0723 -0.5616  0.0754
 9177TIP3    H149022   1.737   5.824   6.551 -0.1340 -0.6414  0.1859
 9177TIP3    H249023   1.867   5.866   6.616  0.3381 -1.5920 -0.1261
 9178TIP3   OH249024   0.866   4.613   3.574  0.0227 -0.0014 -0.2331
 9178TIP3    H149025   0.871   4.649   3.486  0.9913 -1.9125 -1.0000
 9178TIP3    H249026   0.926   4.667   3.626  1.4056 -0.4311 -1.3409
 9179TIP3   OH249027   3.365   0.900  16.273 -0.1940 -0.5219 -0.2107
 9179TIP3    H149028   3.447   0.905  16.322  1.1886 -1.1712 -2.3151
 9179TIP3    H249029   3.387   0.935  16.186 -1.7932 -1.9086 -1.2440
 9180TIP3   OH249030   1.185   6.564  15.322 -0.1122 -0.2707 -0.5869
 9180TIP3    H149031   1.150   6.475  15.331 -1.2307  0.0862 -1.3273
 9180TIP3    H249032   1.126   6.619  15.373  1.4335 -0.1133  1.1504
 9181TIP3   OH249033   2.158   3.225  14.250  0.0160  0.5526 -0.1296
 9181TIP3    H149034   2.201   3.261  14.328 -1.8677  0.7210  0.8734
 9181TIP3    H249035   2.162   3.130  14.262 -1.5187  0.5883  0.9280
 9182TIP3   OH249036   2.997   5.196   4.058  0.3071  0.2687  0.1342
 9182TIP3    H149037   2.931   5.193   4.127  0.8662 -1.7283  0.6497
 9182TIP3    H249038   3.068   5.248   4.095  0.2773 -0.1366  0.7735
 9183TIP3   OH249039   2.831   0.332   2.627 -0.1472  0.1914  0.4581
 9183TIP3    H149040   2.865   0.387   2.697  0.5654 -0.1098  0.3571
 9183TIP3    H249041   2.906   0.279   2.599 -0.2245  0.7948 -1.0073
 9184TIP3   OH249042   4.657   6.775   3.828 -0.2880 -0.4049 -0.6124
 9184TIP3    H149043   4.698   6.706   3.879 -0.1503  0.7391  0.8905
 9184TIP3    H249044   4.566   6.747   3.818 -0.4024 -0.5021  0.5737
 9185TIP3   OH249045   1.088   4.612  11.038  0.3387  0.0759  0.1536
 9185TIP3    H149046   1.087   4.690  10.982  2.3606  0.4836  0.6204
 9185TIP3    H249047   1.033   4.635  11.113  0.6999  0.9582  0.1558
 9186TIP3   OH249048   4.126   6.242  16.237  0.3331  0.3882  0.1153
 9186TIP3    H149049   4.128   6.286  16.152  1.1036 -0.8088 -0.5094
 9186TIP3    H249050   4.034   6.246  16.263 -0.2031 -0.4976 -1.4812
 9187TIP3   OH249051   5.921   0.983  15.943 -0.0243 -0.1621 -0.0387
 9187TIP3    H149052   5.959   0.933  16.015  0.2572  0.9151  0.5779
 9187TIP3    H249053   5.842   0.934  15.918 -0.7147 -0.0048  1.7213
 9188TIP3   OH249054   1.768   3.755   0.872 -0.0784 -0.5155 -0.2474
 9188TIP3    H149055   1.859   3.726   0.866  0.9472  2.3772 -0.1346
 9188TIP3    H249056   1.765   3.836   0.822 -2.4718 -0.2297  0.2490
 9189TIP3   OH249057   5.573   4.550  14.083  0.0578  0.1850 -0.1790
 9189TIP3    H149058   5.520   4.629  14.073 -0.4806 -0.0619  0.6146
 9189TIP3    H249059   5.549   4.495  14.009 -0.4507  0.2747 -0.0843
 9190TIP3   OH249060   4.458   6.682  14.126  0.0496  0.6785 -0.1711
 9190TIP3    H149061   4.533   6.655  14.073 -0.0349 -1.1464  0.5865
 9190TIP3    H249062   4.390   6.703  14.061  0.4301 -0.0588 -0.8283
 9191TIP3   OH249063   4.777   2.809  13.569  0.3669 -0.6473 -0.7083
 9191TIP3    H149064   4.770   2.775  13.658 -0.8846 -0.1546 -0.5966
 9191TIP3    H249065   4.834   2.885  13.576 -2.3849  1.4903  0.3645
 9192TIP3   OH249066   5.636   2.858   5.617 -0.8507  0.1573  0.3286
 9192TIP3    H149067   5.602   2.773   5.645 -1.1006  0.1907  0.1330
 9192TIP3    H249068   5.658   2.903   5.698  4.0335 -1.9415  0.5577
 9193TIP3   OH249069   0.128   4.036  16.811  0.5478 -0.2867  0.0060
 9193TIP3    H149070   0.149   4.123  16.846  2.0990 -0.3039 -0.7902
 9193TIP3    H249071   0.033   4.031  16.815  0.4931  1.0005  1.1117
 9194TIP3   OH249072   5.811   4.981  11.879  0.0725 -0.0662 -0.1177
 9194TIP3    H149073   5.833   4.899  11.835 -1.8755 -0.1132 -1.0888
 9194TIP3    H249074   5.768   4.954  11.960  0.2929  0.0104  0.0259
 9195TIP3   OH249075   1.156   5.492  10.649 -0.1166  0.3439  0.7047
 9195TIP3    H149076   1.066   5.490  10.616 -0.3249  1.2281  1.1590
 9195TIP3    H249077   1.191   5.405  10.632 -1.0333  0.0197  0.4391
 9196TIP3   OH249078   4.313   0.843  15.601  0.2346 -0.0664 -0.1273
 9196TIP3    H149079   4.334   0.936  15.608  0.3094 -0.1220  0.4757
 9196TIP3    H249080   4.292   0.830  15.509  0.8062  0.4291 -0.3406
 9197TIP3   OH249081   3.568   5.694   1.816 -0.1390 -0.1626  0.5513
 9197TIP3    H149082   3.588   5.614   1.865 -1.6681 -1.5925 -1.0174
 9197TIP3    H249083   3.652   5.722   1.781  0.7918  0.2221  2.8809
 9198TIP3   OH249084   3.797   5.050   3.081  0.3127 -0.0281  0.7062
 9198TIP3    H149085   3.785   4.992   3.006 -0.3239  0.0696  0.7242
 9198TIP3    H249086   3.708   5.064   3.114  0.5404  0.3394  1.1647
 9199TIP3   OH249087   0.405   5.018   6.744 -0.0231  0.3622 -0.1393
 9199TIP3    H149088   0.446   5.104   6.751  0.1861  0.3682 -1.2259
 9199TIP3    H249089   0.426   4.975   6.826  1.3954  0.7042 -0.2875
 9200TIP3   OH249090   6.129   3.517   2.620  0.2955 -0.5626 -0.1037
 9200TIP3    H149091   6.079   3.566   2.555 -0.8490 -0.1467  1.0493
 9200TIP3    H249092   6.113   3.563   2.703  0.6161 -1.8626  0.7143
 9201TIP3   OH249093   2.405   0.969  13.335  0.7895 -0.6690  0.7769
 9201TIP3    H149094   2.383   1.028  13.262  1.6327 -1.3273 -0.0322
 9201TIP3    H249095   2.479   1.011  13.378  1.3993 -1.1299  0.1920
 9202TIP3   OH249096   2.095   1.961  16.555 -0.2041 -0.1104  0.4248
 9202TIP3    H149097   2.145   1.884  16.529  0.9999 -0.4896  3.3670
 9202TIP3    H249098   2.150   2.035  16.530  0.1409 -0.3782  0.3893
 9203TIP3   OH249099   0.341   5.045  13.994 -0.5145 -0.0695 -0.3436
 9203TIP3    H149100   0.387   5.011  14.072  0.6199 -2.1804 -1.8221
 9203TIP3    H249101   0.307   5.130  14.022  0.2465 -0.5160  2.3061
 9204TIP3   OH249102   3.298   1.162   3.259 -0.3680 -0.1950 -0.3440
 9204TIP3    H149103   3.275   1.234   3.200  1.2398  1.4519  0.9245
 9204TIP3    H249104   3.283   1.083   3.207  0.6194  1.1464 -2.8518
 9205TIP3   OH249105   4.865   3.134   3.744  0.4213 -0.0010  0.3160
 9205TIP3    H149106   4.786   3.088   3.716 -1.1857 -0.5698  4.9052
 9205TIP3    H249107   4.865   3.215   3.692 -3.2591  0.0569  0.1196
 9206TIP3   OH249108   6.631   1.172  10.522  0.0055 -0.2380  0.0133
 9206TIP3    H149109   6.678   1.249  10.491  1.2798 -0.8488  0.3791
 9206TIP3    H249110   6.541   1.185  10.491  0.1562  1.4488  0.1896
 9207TIP3   OH249111   3.026   3.276  15.018 -0.0469  0.4738 -0.0540
 9207TIP3    H149112   3.017   3.305  14.927 -0.5903  1.5038  0.2992
 9207TIP3    H249113   3.112   3.307  15.045  1.0222 -1.6617 -0.8110
 9208TIP3   OH249114   3.514   6.541   2.145  0.2625  0.3547  0.1839
 9208TIP3    H149115   3.594   6.593   2.131  0.1508  0.7872  1.0587
 9208TIP3    H249116   3.443   6.604   2.131  0.0291 -0.2064 -1.3378
 9209TIP3   OH249117   4.310   2.278  14.107 -0.7159  0.5045  0.3586
 9209TIP3    H149118   4.367   2.204  14.089  0.3193  1.0501  1.2581
 9209TIP3    H249119   4.285   2.267  14.199  1.0454  2.2611  1.1273
 9210TIP3   OH249120   3.556   5.649  15.155 -0.4177 -0.3434 -0.3069
 9210TIP3    H149121   3.597   5.638  15.241 -0.0961  3.9299  0.2858
 9210TIP3    H249122   3.463   5.631  15.170  0.0487 -2.9195  0.0292
 9211TIP3   OH249123   0.133   6.488   2.323 -0.1951 -0.0301  0.3370
 9211TIP3    H149124   0.050   6.475   2.369 -1.6436  2.4234 -1.3560
 9211TIP3    H249125   0.108   6.491   2.230  1.8037  0.7858 -0.2165
 9212TIP3   OH249126   4.218   2.092  13.801  0.4964 -0.1150  0.1767
 9212TIP3    H149127   4.264   2.078  13.718 -0.5031 -0.8237 -0.2859
 9212TIP3    H249128   4.193   2.184  13.801  3.7655  0.9180  1.4485
 9213TIP3   OH249129   3.070   1.985  13.826  0.2531 -0.0970 -0.2464
 9213TIP3    H149130   2.983   1.987  13.866  0.0193 -2.2544 -0.5195
 9213TIP3    H249131   3.075   2.066  13.775 -0.7045  1.1361  1.5263
 9214TIP3   OH249132   3.082   2.509   4.601 -0.2982  0.2909 -0.6245
 9214TIP3    H149133   3.116   2.512   4.690 -0.7231 -0.1292 -0.4462
 9214TIP3    H249134   2.987   2.498   4.611 -0.6816  2.6155 -1.0830
 9215TIP3   OH249135   1.542   1.866  12.634  0.3459  0.0654 -0.2050
 9215TIP3    H149136   1.538   1.953  12.595 -0.0117 -0.1772 -0.7218
 9215TIP3    H249137   1.635   1.846  12.639  0.4224  0.3936 -0.2684
 9216TIP3   OH249138   2.772   3.373   0.696  0.0217 -1.0588 -0.3853
 9216TIP3    H149139   2.792   3.353   0.787 -0.1022 -1.5517 -0.4661
 9216TIP3    H249140   2.854   3.409   0.661  0.3877 -1.8725 -0.3708
 9217TIP3   OH249141   5.865   3.953  17.251  0.3364 -0.2636 -0.4005
 9217TIP3    H149142   5.778   3.983  17.275  1.5212  3.7708 -0.3543
 9217TIP3    H249143   5.853   3.909  17.167 -1.7549  0.1826 -0.3855
 9218TIP3   OH249144   4.895   1.463  10.650 -0.0170  0.5900  0.8391
 9218TIP3    H149145   4.990   1.456  10.648 -0.0263 -0.8700  2.4594
 9218TIP3    H249146   4.878   1.540  10.704  0.2524  0.5382  0.9985
 9219TIP3   OH249147   0.762   6.109  12.495 -0.4325 -0.3318  0.0796
 9219TIP3    H149148   0.830   6.070  12.441 -0.1000  2.1112 -1.4113
 9219TIP3    H249149   0.715   6.168  12.437 -1.5137  0.7474  1.9314
 9220TIP3   OH249150   3.534   1.329   3.463 -0.0537  0.0272 -0.4090
 9220TIP3    H149151   3.453   1.370   3.434  0.2567 -0.7266 -2.4733
 9220TIP3    H249152   3.603   1.387   3.432  0.2905 -0.7272 -1.0786
 9221TIP3   OH249153   5.321   2.487   5.685  0.3432 -0.3478 -0.0683
 9221TIP3    H149154   5.253   2.490   5.753 -0.5317 -0.4370 -0.9283
 9221TIP3    H249155   5.375   2.564   5.702 -0.6611  0.3807 -0.0775
 9222TIP3   OH249156   4.952   2.193   4.971 -0.3537 -0.5255  0.3334
 9222TIP3    H149157   4.880   2.130   4.972  0.5612 -1.6195  1.9325
 9222TIP3    H249158   5.027   2.144   5.005  0.9434  0.8309 -0.4342
 9223TIP3   OH249159   0.385   4.975   2.166 -0.3359 -0.1294 -0.0351
 9223TIP3    H149160   0.439   5.035   2.114  0.1297 -0.8286 -0.3769
 9223TIP3    H249161   0.328   5.032   2.217  1.1986  0.6577  0.8498
 9224TIP3   OH249162   2.494   3.834   2.664 -0.3940 -0.7142 -0.4063
 9224TIP3    H149163   2.465   3.915   2.708  0.8986  0.5092 -1.6795
 9224TIP3    H249164   2.589   3.841   2.664 -0.2626 -2.3151 -0.4724
 9225TIP3   OH249165   4.303   4.262   1.282  0.3242 -0.4364 -0.1719
 9225TIP3    H149166   4.285   4.347   1.241  2.7188  0.6153  0.7643
 9225TIP3    H249167   4.358   4.216   1.219  0.2558 -0.6941 -0.0470
 9226TIP3   OH249168   4.782   4.382  14.067 -0.1712 -0.0232  0.2716
 9226TIP3    H149169   4.761   4.426  14.149  1.6442 -0.3932  0.9626
 9226TIP3    H249170   4.773   4.289  14.086  1.0159 -0.1428  0.2892
 9227TIP3   OH249171   1.194   2.187  12.956 -0.6051  0.3952 -0.4026
 9227TIP3    H149172   1.202   2.094  12.977 -1.1156  0.3876 -0.2193
 9227TIP3    H249173   1.263   2.204  12.892 -1.0950 -0.3195 -1.1309
 9228TIP3   OH249174   1.199   5.198   0.706 -0.3937  0.0647  0.0246
 9228TIP3    H149175   1.110   5.231   0.722  0.6831  2.3687  1.8309
 9228TIP3    H249176   1.241   5.197   0.792  1.6938  0.2449 -0.9200
 9229TIP3   OH249177   1.186   3.414  12.450  0.1088 -0.1435 -0.0590
 9229TIP3    H149178   1.141   3.438  12.369  0.5239 -0.1302 -0.2830
 9229TIP3    H249179   1.249   3.485  12.464 -0.0603 -0.0703  0.3552
 9230TIP3   OH249180   0.668   2.636   0.784  0.0835 -0.7193  0.3843
 9230TIP3    H149181   0.668   2.644   0.879  0.5483 -1.1898  0.4300
 9230TIP3    H249182   0.595   2.690   0.755  1.5697  1.6628  0.8049
 9231TIP3   OH249183   3.258   3.589   3.792  0.6531 -0.2704 -0.3739
 9231TIP3    H149184   3.195   3.597   3.863 -0.5867  0.2710 -1.4857
 9231TIP3    H249185   3.252   3.497   3.765  0.0885 -0.1459 -0.6855
 9232TIP3   OH249186   6.350   2.064  11.597  0.2577 -0.2905  0.1736
 9232TIP3    H149187   6.357   2.053  11.503  0.8498 -1.0650  0.3023
 9232TIP3    H249188   6.416   2.129  11.619  0.2484 -0.2509  0.0838
 9233TIP3   OH249189   5.203   5.107   5.556  0.1772  0.2565  0.5027
 9233TIP3    H149190   5.155   5.106   5.639  0.6371 -0.4816  0.7784
 9233TIP3    H249191   5.283   5.156   5.575  1.6008 -2.1869  1.3211
 9234TIP3   OH249192   5.073   3.410   3.810  0.0139 -0.0358 -0.3110
 9234TIP3    H149193   5.073   3.366   3.725  0.2117  2.2407 -1.5695
 9234TIP3    H249194   5.038   3.498   3.791  2.0809  1.2695  1.5352
 9235TIP3   OH249195   0.175   2.093   2.102 -0.3856 -0.2941  0.7030
 9235TIP3    H149196   0.087   2.081   2.068  0.4070  0.0355 -1.6387
 9235TIP3    H249197   0.219   2.149   2.038  1.3183  0.1925  2.1867
 9236TIP3   OH249198   4.553   0.253  14.890  0.4265 -0.6206  0.0145
 9236TIP3    H149199   4.468   0.226  14.856  0.0964 -0.0902  0.3861
 9236TIP3    H249200   4.561   0.345  14.863  2.2274 -1.4461 -2.6014
 9237TIP3   OH249201   4.902   2.689  13.805  0.0300  0.4289 -0.0391
 9237TIP3    H149202   4.990   2.687  13.844 -0.6626 -0.9101  1.5907
 9237TIP3    H249203   4.911   2.639  13.724  0.3355 -1.6498  1.2143
 9238TIP3   OH249204   6.817   5.058   2.721 -0.0747  0.3062  0.1280
 9238TIP3    H149205   6.732   5.050   2.763 -0.4408  0.0190 -0.6318
 9238TIP3    H249206   6.868   4.986   2.757 -0.6215 -0.3883 -0.4337
 9239TIP3   OH249207   5.890   4.856  13.811 -0.2758 -0.4560  0.3342
 9239TIP3    H149208   5.819   4.906  13.772  1.2045  0.4393 -1.4071
 9239TIP3    H249209   5.906   4.898  13.895 -1.0629  0.0167  0.2554
 9240TIP3   OH249210   1.254   4.565  15.301 -0.4240 -0.4269 -0.3817
 9240TIP3    H149211   1.286   4.549  15.212 -0.9762 -3.3885 -0.1560
 9240TIP3    H249212   1.332   4.557  15.356 -0.4183 -0.6976 -0.4277
 9241TIP3   OH249213   0.355   2.609   6.104  0.3372 -0.4460  0.2986
 9241TIP3    H149214   0.360   2.544   6.173 -1.0885 -0.2593  0.5968
 9241TIP3    H249215   0.314   2.685   6.145  2.8743  1.0760  0.2518
 9242TIP3   OH249216   1.269   2.432  13.750 -0.3516 -0.1423 -0.8125
 9242TIP3    H149217   1.261   2.359  13.688  1.9643 -1.6908  0.5495
 9242TIP3    H249218   1.271   2.510  13.695 -3.0024 -1.0205 -2.3289
 9243TIP3   OH249219   4.634   0.853  13.793  0.4738 -0.0596  0.1512
 9243TIP3    H149220   4.670   0.936  13.762 -1.4301  0.3007 -1.3563
 9243TIP3    H249221   4.552   0.843  13.743 -0.4178 -1.8052  1.8260
 9244TIP3   OH249222   3.037   4.910   6.930  0.0807 -0.7937  0.4781
 9244TIP3    H149223   3.040   4.821   6.894  0.9409 -0.3227 -0.6944
 9244TIP3    H249224   3.082   4.964   6.864  1.5398  0.1579  2.1567
 9245TIP3   OH249225   2.099   5.183   3.708  0.9622  0.3719 -0.4688
 9245TIP3    H149226   2.008   5.159   3.692  0.7758  0.8872 -0.2331
 9245TIP3    H249227   2.094   5.250   3.776  1.5169  0.4420 -0.4893
 9246TIP3   OH249228   2.472   6.606  15.908 -1.1210  0.2687  0.0702
 9246TIP3    H149229   2.537   6.565  15.850 -2.2387  0.9182 -1.7216
 9246TIP3    H249230   2.392   6.555  15.894 -1.0463 -0.6178  2.3714
 9247TIP3   OH249231   4.466   2.119  14.946 -0.1220 -0.0650 -0.2037
 9247TIP3    H149232   4.413   2.126  15.025 -0.3692  0.1394 -0.3876
 9247TIP3    H249233   4.540   2.178  14.963 -0.3132  0.1851 -0.2348
 9248TIP3   OH249234   5.364   0.597   3.983  0.0616  0.2572  0.0566
 9248TIP3    H149235   5.340   0.653   4.057  0.8244  0.2114  0.3497
 9248TIP3    H249236   5.354   0.508   4.016  1.3340  0.2306  0.4449
 9249TIP3   OH249237   2.339   5.816   5.297  0.2512  0.2645 -0.4868
 9249TIP3    H149238   2.392   5.895   5.295  1.4405 -0.4716  0.4746
 9249TIP3    H249239   2.352   5.777   5.210  1.3201  0.0866 -0.2599
 9250TIP3   OH249240   6.321   0.554  11.107 -0.3756  0.1110 -0.2996
 9250TIP3    H149241   6.345   0.525  11.020 -1.1632  0.2296 -0.5685
 9250TIP3    H249242   6.287   0.643  11.094 -0.1449  0.2755  0.1821
 9251TIP3   OH249243   3.447   3.323  11.412 -0.3985 -0.3744  0.0452
 9251TIP3    H149244   3.530   3.299  11.369  0.5766  1.2848  0.8831
 9251TIP3    H249245   3.380   3.297  11.349  0.8832  0.4735 -1.7794
 9252TIP3   OH249246   5.041   0.010  13.313 -0.6388  0.1512 -0.2952
 9252TIP3    H149247   5.049   0.104  13.333 -0.0138  0.6153 -2.4137
 9252TIP3    H249248   5.070   0.003  13.222  1.2863 -2.4199  0.3919
 9253TIP3   OH249249   1.007   4.185   4.730  0.3418 -0.0096  0.4370
 9253TIP3    H149250   1.097   4.159   4.707  0.5632  0.6513  0.5387
 9253TIP3    H249251   0.954   4.108   4.711  1.0924 -0.8070  1.4712
 9254TIP3   OH249252   3.689   5.328   3.192 -0.2107  0.4336  0.1404
 9254TIP3    H149253   3.630   5.277   3.136 -1.0608 -1.2577  2.4088
 9254TIP3    H249254   3.633   5.395   3.231 -0.4052 -0.3762  1.3183
 9255TIP3   OH249255   0.206   0.504  12.754  0.0226  0.0759 -0.2063
 9255TIP3    H149256   0.196   0.543  12.841  2.7066 -0.3533  0.3803
 9255TIP3    H249257   0.138   0.437  12.750  0.2615 -0.3647  1.8549
 9256TIP3   OH249258   2.375   3.600   4.639  0.1148  0.0290  0.5291
 9256TIP3    H149259   2.460   3.603   4.594 -0.1991 -0.0268 -0.0815
 9256TIP3    H249260   2.325   3.533   4.591 -0.4092  0.3311  0.6427
 9257TIP3   OH249261   1.551   4.166  12.658 -0.3607  0.2588  0.1212
 9257TIP3    H149262   1.566   4.199  12.569  0.7765 -5.3511 -2.2028
 9257TIP3    H249263   1.468   4.120  12.653 -1.0962  1.1813  2.5658
 9258TIP3   OH249264   0.037   0.627  13.965  0.4299  0.5981  0.1133
 9258TIP3    H149265   0.069   0.554  14.019 -1.3521 -0.2882  0.0731
 9258TIP3    H249266   0.102   0.696  13.976  1.8070 -0.7397  0.7489
 9259TIP3   OH249267   1.559   1.923  10.476  0.3048  0.5818  0.8343
 9259TIP3    H149268   1.470   1.912  10.441  0.9398 -1.0329 -0.3833
 9259TIP3    H249269   1.569   2.018  10.487 -1.3109  0.8445  0.3033
 9260TIP3   OH249270   1.537   0.547  11.928  0.3835  0.1256 -0.1719
 9260TIP3    H149271   1.461   0.601  11.905 -0.9372 -1.7637 -0.4458
 9260TIP3    H249272   1.581   0.530  11.845 -0.0945 -0.4999 -0.3002
 9261TIP3   OH249273   1.636   1.595   2.392 -0.2241  0.2652 -0.0631
 9261TIP3    H149274   1.703   1.527   2.401  0.2598  0.8911  1.3105
 9261TIP3    H249275   1.564   1.552   2.345  0.1957 -1.0924  0.4985
 9262TIP3   OH249276   4.303   5.538  14.482 -0.0731 -0.1879  0.0992
 9262TIP3    H149277   4.242   5.592  14.533 -1.4251 -1.6716  0.1192
 9262TIP3    H249278   4.373   5.599  14.457 -1.9245  1.8052 -0.6131
 9263TIP3   OH249279   0.343   0.625   2.299  0.1154  0.4937  0.5530
 9263TIP3    H149280   0.272   0.580   2.344  0.7659  0.0458  1.1444
 9263TIP3    H249281   0.314   0.629   2.207 -0.7990  0.5904  0.8308
 9264TIP3   OH249282   0.830   1.732   4.601  0.5907  0.1929  0.5945
 9264TIP3    H149283   0.793   1.715   4.515  0.6313 -1.6807  0.9075
 9264TIP3    H249284   0.872   1.817   4.593  1.2844 -0.2891 -1.4728
 9265TIP3   OH249285   3.921   1.861   4.769  0.6523 -0.1121  0.0664
 9265TIP3    H149286   3.874   1.782   4.742  0.7717  0.3071 -1.4784
 9265TIP3    H249287   3.975   1.884   4.694  1.1573  1.0423  0.7491
 9266TIP3   OH249288   0.287   0.211  16.095 -0.3710 -0.0847 -0.0933
 9266TIP3    H149289   0.327   0.125  16.098  1.5725  0.7530 -0.5325
 9266TIP3    H249290   0.335   0.258  16.027 -2.0503  1.0449 -0.5592
 9267TIP3   OH249291   1.126   2.238  15.913  0.2448  0.3877 -0.1339
 9267TIP3    H149292   1.044   2.190  15.904  0.2712  0.5443 -1.4789
 9267TIP3    H249293   1.179   2.209  15.838  0.3559  2.2906 -0.8584
 9268TIP3   OH249294   5.103   3.130   0.548 -0.3126  0.0632  0.4300
 9268TIP3    H149295   5.043   3.059   0.572  1.2427 -0.9878  1.4543
 9268TIP3    H249296   5.164   3.089   0.486 -0.1870  0.8955 -0.0126
 9269TIP3   OH249297   2.687   0.027  14.267 -0.1453  0.3916  0.1671
 9269TIP3    H149298   2.674   0.103  14.209 -0.4315  0.2076 -0.0123
 9269TIP3    H249299   2.671   0.061  14.355  1.5276  0.9802  0.2850
 9270TIP3   OH249300   4.170   6.611   4.705 -0.4004  0.3978 -0.3775
 9270TIP3    H149301   4.100   6.552   4.677  0.3755 -0.3778 -0.7170
 9270TIP3    H249302   4.240   6.553   4.735  0.1917  1.1559 -0.2611
 9271TIP3   OH249303   3.887   1.688  15.137  0.1247  0.5783  0.0351
 9271TIP3    H149304   3.907   1.766  15.188  1.0260 -0.3408  1.1484
 9271TIP3    H249305   3.945   1.621  15.173 -0.1030 -0.4158 -1.3965
 9272TIP3   OH249306   6.130   5.688   4.702 -0.8412  0.1514  1.1532
 9272TIP3    H149307   6.041   5.661   4.681 -0.1807 -0.1277 -1.7331
 9272TIP3    H249308   6.176   5.689   4.618  1.8635  0.4420  2.4937
 9273TIP3   OH249309   4.958   3.427  13.704 -0.2800  0.6689  0.0331
 9273TIP3    H149310   4.941   3.485  13.778  2.2923  4.1889 -1.7980
 9273TIP3    H249311   5.025   3.367  13.735 -0.3872  1.0531  1.0294
 9274TIP3   OH249312   4.154   0.049   0.084 -0.0303 -0.2850  0.2989
 9274TIP3    H149313   4.176   0.000   0.163  0.2112  1.1025  1.1264
 9274TIP3    H249314   4.111   0.129   0.115  0.6535  0.6068 -0.9188
 9275TIP3   OH249315   2.654   4.509   2.938  0.0262  0.8016 -0.4272
 9275TIP3    H149316   2.748   4.498   2.932 -0.0558 -1.5261  1.3424
 9275TIP3    H249317   2.638   4.528   3.031 -1.0986  4.0175 -1.1240
 9276TIP3   OH249318   3.596   6.166   2.517  0.2288  0.6545  0.1612
 9276TIP3    H149319   3.581   6.233   2.451 -3.5626  0.1115  0.2717
 9276TIP3    H249320   3.552   6.199   2.595 -0.3560 -1.2275  0.6764
 9277TIP3   OH249321   2.400   4.435   3.097 -0.1333 -0.9187 -0.2243
 9277TIP3    H149322   2.344   4.369   3.138 -0.7428 -1.3727 -1.7313
 9277TIP3    H249323   2.457   4.385   3.038  0.7469 -0.2877  0.0704
 9278TIP3   OH249324   5.969   5.469   2.308 -0.0268 -0.1935  0.4750
 9278TIP3    H149325   5.978   5.550   2.359 -0.8843 -0.5737  1.2646
 9278TIP3    H249326   6.055   5.455   2.269  1.2668 -0.8414  3.2866
 9279TIP3   OH249327   0.069   6.719  17.139 -0.3993  0.0981 -0.2595
 9279TIP3    H149328   0.103   6.688  17.055  0.4285 -1.4371  0.5941
 9279TIP3    H249329   0.146   6.728  17.195 -0.9800  0.6460  0.4715
 9280TIP3   OH249330   6.542   1.101  16.615  0.2378 -0.0278 -0.1210
 9280TIP3    H149331   6.512   1.188  16.591 -1.9026 -0.5338  0.5196
 9280TIP3    H249332   6.489   1.041  16.562  0.3561 -0.9625  0.7816
 9281TIP3   OH249333   0.896   5.201   5.612  0.2716 -0.1795 -0.1942
 9281TIP3    H149334   0.811   5.237   5.586  0.6955  0.4051 -0.8107
 9281TIP3    H249335   0.960   5.258   5.569  0.9681 -1.3071 -0.7021
 9282TIP3   OH249336   0.394   1.797  14.504 -0.7749  0.1582  0.0129
 9282TIP3    H149337   0.482   1.771  14.530 -1.0827  0.3945  1.3984
 9282TIP3    H249338   0.350   1.715  14.483 -0.6818 -0.1244  0.8723
 9283TIP3   OH249339   1.734   4.099  16.521  0.3517 -0.1170 -0.0843
 9283TIP3    H149340   1.774   4.016  16.548  1.1191  0.2082 -0.2025
 9283TIP3    H249341   1.720   4.147  16.603  0.0626 -0.2931 -0.0306
 9284TIP3   OH249342   6.666   1.370  13.499  0.2421  0.0295 -0.2205
 9284TIP3    H149343   6.658   1.387  13.405  2.8141  1.3397 -0.2910
 9284TIP3    H249344   6.744   1.316  13.507 -0.3750 -0.6986  1.1351
 9285TIP3   OH249345   6.079   5.377   3.232 -0.2790 -0.8318 -0.3980
 9285TIP3    H149346   6.013   5.403   3.295  0.9626  1.8378 -0.0579
 9285TIP3    H249347   6.131   5.310   3.278 -2.0253 -2.1823 -0.3007
 9286TIP3   OH249348   1.255   2.290   5.534 -0.0808 -0.9681 -0.0930
 9286TIP3    H149349   1.197   2.258   5.465 -1.5822  1.8936 -0.2852
 9286TIP3    H249350   1.316   2.349   5.488 -0.0308 -0.3284  0.7689
 9287TIP3   OH249351   6.273   6.281  14.422  0.6252 -0.0107  0.0131
 9287TIP3    H149352   6.221   6.226  14.364 -0.0291 -1.5253  1.9520
 9287TIP3    H249353   6.209   6.332  14.472  1.1040  0.0178  0.6139
 9288TIP3   OH249354   2.815   0.333  12.751 -0.3390 -0.1958  0.7363
 9288TIP3    H149355   2.723   0.341  12.726  0.2111  3.1849 -0.8533
 9288TIP3    H249356   2.818   0.363  12.842 -0.5987  2.1194  0.0422
 9289TIP3   OH249357   4.775   2.537   5.954  0.7130 -0.0643  0.2847
 9289TIP3    H149358   4.739   2.509   6.039 -0.6631 -1.2121 -0.6385
 9289TIP3    H249359   4.734   2.621   5.936  0.6086 -0.0673  0.5044
 9290TIP3   OH249360   6.157   4.284  13.825 -0.0476 -0.6373  0.0629
 9290TIP3    H149361   6.238   4.244  13.856  0.8106  0.5529 -0.5757
 9290TIP3    H249362   6.120   4.326  13.903  0.5907 -0.1457  0.1094
 9291TIP3   OH249363   2.483   4.372   2.124  0.3737 -0.1945  0.1461
 9291TIP3    H149364   2.397   4.333   2.117  0.3186 -0.4729  1.9327
 9291TIP3    H249365   2.473   4.443   2.187  1.0077  1.1765 -1.2146
 9292TIP3   OH249366   4.979   6.687  12.355  0.0056  0.1171 -0.3951
 9292TIP3    H149367   4.918   6.726  12.419 -0.0800 -0.4316 -0.1358
 9292TIP3    H249368   4.922   6.639  12.294  0.0881  0.6450 -0.8931
 9293TIP3   OH249369   0.118   0.790  14.233  0.1088 -0.1344 -0.0985
 9293TIP3    H149370   0.129   0.883  14.252 -0.9479  0.2826 -1.3461
 9293TIP3    H249371   0.185   0.746  14.285  0.6490  1.3229  0.4800
 9294TIP3   OH249372   2.280   0.626   1.939  0.3920  0.4830  0.4588
 9294TIP3    H149373   2.229   0.669   1.870  0.1104 -0.8165 -0.1663
 9294TIP3    H249374   2.370   0.656   1.924  0.4515 -0.3155 -0.9191
 9295TIP3   OH249375   5.048   6.720   5.323  0.0800 -0.5242  0.5097
 9295TIP3    H149376   5.025   6.779   5.251  0.5527  0.1390  0.8804
 9295TIP3    H249377   5.102   6.774   5.381  1.2457 -1.5620  0.4410
 9296TIP3   OH249378   2.570   4.720  14.975  0.3149  0.2357  0.1561
 9296TIP3    H149379   2.483   4.761  14.982  1.0107  1.6709  0.8086
 9296TIP3    H249380   2.569   4.678  14.889 -0.4570  1.6596 -0.5821
 9297TIP3   OH249381   4.797   6.445   6.536  0.0326  0.1019 -0.3016
 9297TIP3    H149382   4.735   6.383   6.498 -1.2278 -0.0484  1.8311
 9297TIP3    H249383   4.743   6.519   6.563  0.6781 -0.1414  1.8588
 9298TIP3   OH249384   0.492   1.123   0.516 -0.0975  0.2927 -0.2596
 9298TIP3    H149385   0.550   1.185   0.471  0.1084  0.9614  0.8835
 9298TIP3    H249386   0.482   1.159   0.604  0.4802 -1.5911  0.6254
 9299TIP3   OH249387   4.104   0.344  13.866 -0.3829  0.5602  0.4197
 9299TIP3    H149388   4.108   0.354  13.771 -1.9252 -0.8024  0.1625
 9299TIP3    H249389   4.103   0.433  13.900 -1.4950  1.0973 -0.9477
 9300TIP3   OH249390   4.289   4.465  13.765  0.1117  0.8939 -0.4269
 9300TIP3    H149391   4.372   4.484  13.811 -0.1562 -0.5847  0.7315
 9300TIP3    H249392   4.253   4.390  13.811 -0.5579 -0.2101 -2.6485
 9301TIP3   OH249393   5.655   6.645  15.823  0.4649 -0.2517 -0.1282
 9301TIP3    H149394   5.747   6.630  15.801  1.1636  3.1431 -0.0594
 9301TIP3    H249395   5.654   6.655  15.918 -0.4407 -2.5114  0.1607
 9302TIP3   OH249396   2.100   3.590  13.443  0.3617 -0.3840 -0.2294
 9302TIP3    H149397   2.063   3.547  13.365 -2.5170  0.5858  0.4901
 9302TIP3    H249398   2.117   3.680  13.415  0.8855 -0.4538 -0.1525
 9303TIP3   OH249399   6.772   5.679  14.396 -0.2970 -0.2762  0.2335
 9303TIP3    H149400   6.856   5.641  14.421 -0.4564 -0.8999 -0.1443
 9303TIP3    H249401   6.775   5.682  14.300 -0.4920  0.2018  0.2416
 9304TIP3   OH249402   6.346   4.736   0.679 -0.4680 -0.3481  0.3337
 9304TIP3    H149403   6.257   4.740   0.645 -0.7247 -2.1864  0.6892
 9304TIP3    H249404   6.401   4.713   0.604 -0.2543  0.8264  0.1052
 9305TIP3   OH249405   1.195   0.167   0.990  0.2008 -0.1380  0.3738
 9305TIP3    H149406   1.110   0.123   0.978 -0.8310  1.7882  0.2207
 9305TIP3    H249407   1.174   0.247   1.037  1.9490  0.4322  0.2587
 9306TIP3   OH249408   6.438   3.236   6.939 -0.1942  0.3205  0.2009
 9306TIP3    H149409   6.454   3.242   6.845 -1.7471  0.2885 -0.0995
 9306TIP3    H249410   6.398   3.320   6.961 -2.1863 -0.5782  0.2793
 9307TIP3   OH249411   0.784   3.703  13.779  0.5551  0.1269 -0.0625
 9307TIP3    H149412   0.865   3.684  13.827  0.2376  0.2002  0.5067
 9307TIP3    H249413   0.742   3.618  13.768  0.3468  0.1797  0.3026
 9308TIP3   OH249414   0.142   1.694  14.924 -0.3673  0.0511 -0.1197
 9308TIP3    H149415   0.222   1.713  14.876 -0.2247 -0.5072 -0.1064
 9308TIP3    H249416   0.154   1.605  14.957 -1.3368 -0.3628 -0.8282
 9309TIP3   OH249417   4.038   5.940   3.176  0.2618  0.4480  0.1921
 9309TIP3    H149418   4.052   6.034   3.161  0.8521  0.0706 -1.8401
 9309TIP3    H249419   4.090   5.921   3.255  0.5513  1.7196  0.3315
 9310TIP3   OH249420   3.918   3.721   5.583  0.1000 -0.3308 -0.3998
 9310TIP3    H149421   4.001   3.727   5.535 -0.5815  0.7053 -1.5173
 9310TIP3    H249422   3.925   3.787   5.652 -0.3518  0.8491 -1.4408
 9311TIP3   OH249423   5.160   4.831  15.650 -0.2168 -0.4235 -0.9938
 9311TIP3    H149424   5.144   4.910  15.702 -1.0353 -0.7612 -0.7086
 9311TIP3    H249425   5.130   4.759  15.705 -0.0478 -0.8818 -1.4877
 9312TIP3   OH249426   3.025   2.715   2.247  0.5193  0.6631 -0.3041
 9312TIP3    H149427   3.027   2.717   2.151 -0.6907 -1.1080 -0.4120
 9312TIP3    H249428   2.937   2.684   2.268  1.4788 -1.1895  1.2986
 9313TIP3   OH249429   1.976   6.443  16.736 -0.4715  0.1008  0.7275
 9313TIP3    H149430   1.920   6.380  16.691 -0.3106 -0.0945  0.8015
 9313TIP3    H249431   2.000   6.399  16.818 -1.0020  0.5645  1.1429
 9314TIP3   OH249432   2.130   0.170  13.275 -0.0590  0.6481  0.4308
 9314TIP3    H149433   2.038   0.146  13.281  0.3876 -1.2362  0.6239
 9314TIP3    H249434   2.154   0.200  13.363 -0.2716  0.2520  0.6231
 9315TIP3   OH249435   6.008   6.212   5.156 -0.1356 -0.2893  0.1349
 9315TIP3    H149436   5.913   6.204   5.160 -0.0400 -1.3397  1.2757
 9315TIP3    H249437   6.034   6.226   5.247  1.0125 -3.7691  0.4847
 9316TIP3   OH249438   5.274   4.220   2.077 -0.4439  0.1557 -0.8205
 9316TIP3    H149439   5.194   4.237   2.127 -1.0669 -0.5144 -1.5699
 9316TIP3    H249440   5.268   4.128   2.052  0.2609  0.2653 -1.4323
 9317TIP3   OH249441   3.578   4.088   2.860 -0.3605 -0.4645 -0.2556
 9317TIP3    H149442   3.536   4.123   2.781 -1.6197 -0.0400  0.5697
 9317TIP3    H249443   3.521   4.115   2.932  0.9894 -0.4538  0.8673
 9318TIP3   OH249444   5.911   0.324  11.199  1.2334  0.4183  0.0380
 9318TIP3    H149445   5.963   0.389  11.248  1.6698  0.1538 -0.0679
 9318TIP3    H249446   5.959   0.242  11.210 -0.0605 -0.2073  1.3437
 9319TIP3   OH249447   5.870   6.367  16.293 -0.3757  0.6613  0.0037
 9319TIP3    H149448   5.788   6.416  16.301 -1.6689 -1.1464 -1.2889
 9319TIP3    H249449   5.898   6.383  16.203 -0.2897 -0.1663 -0.1199
 9320TIP3   OH249450   6.563   3.102   0.845  0.0715 -0.4237 -0.0835
 9320TIP3    H149451   6.563   3.043   0.770  0.0312 -0.7852  0.1976
 9320TIP3    H249452   6.553   3.044   0.921 -0.2247 -0.0373  0.1776
 9321TIP3   OH249453   6.270   5.420   4.466 -0.2465 -0.0413 -0.0185
 9321TIP3    H149454   6.247   5.416   4.373 -0.7287  0.5859  0.0630
 9321TIP3    H249455   6.228   5.343   4.504  0.3789 -0.5782 -0.4027
 9322TIP3   OH249456   2.476   5.264  12.214 -0.2737  0.7273 -0.0319
 9322TIP3    H149457   2.396   5.218  12.239  0.0349  1.8072  3.4045
 9322TIP3    H249458   2.546   5.216  12.259  0.4427  2.4333  0.7387
 9323TIP3   OH249459   0.772   3.230  11.152 -0.4933  0.3354 -0.3969
 9323TIP3    H149460   0.800   3.322  11.152 -0.8288  0.4943 -2.4164
 9323TIP3    H249461   0.851   3.180  11.173  0.0327  1.0341 -0.6826
 9324TIP3   OH249462   6.447   1.909   1.774  0.0273  0.1042 -0.3942
 9324TIP3    H149463   6.422   1.942   1.861  0.4121  0.4415 -0.4064
 9324TIP3    H249464   6.409   1.821   1.770  0.1797  0.0050  0.1977
 9325TIP3   OH249465   5.365   0.166  13.479 -0.2191  0.1554 -0.8066
 9325TIP3    H149466   5.428   0.192  13.546 -1.0761  2.2171 -0.7479
 9325TIP3    H249467   5.321   0.089  13.516  0.2774  0.4172  0.3670
 9326TIP3   OH249468   4.702   4.139  14.512  0.1493 -0.0270 -0.5200
 9326TIP3    H149469   4.683   4.180  14.596  0.4894 -0.1058 -0.4060
 9326TIP3    H249470   4.624   4.157  14.459 -0.4131 -0.6473  0.0662
 9327TIP3   OH249471   1.101   6.252   0.064  0.0339 -0.2170  0.7507
 9327TIP3    H149472   1.078   6.330   0.014  1.4661  0.3785  0.9719
 9327TIP3    H249473   1.151   6.285   0.138  0.1843 -1.3076  1.1470
 9328TIP3   OH249474   1.409   6.419  14.012  0.3548  0.0713 -0.3482
 9328TIP3    H149475   1.490   6.469  14.006 -1.2680  3.1886  1.6213
 9328TIP3    H249476   1.426   6.352  14.078  0.9904  1.5189  0.9965
 9329TIP3   OH249477   4.911   4.476  16.518  0.6814 -0.5872 -0.0929
 9329TIP3    H149478   4.826   4.452  16.480  0.3032 -0.3227  0.5792
 9329TIP3    H249479   4.939   4.552  16.467  0.9636 -1.2362 -0.9365
 9330TIP3   OH249480   2.880   1.347   0.340 -0.2350 -0.4435  0.0978
 9330TIP3    H149481   2.937   1.292   0.286  0.3248  0.8755 -0.7021
 9330TIP3    H249482   2.835   1.285   0.398  2.1828 -1.5500  0.9590
 9331TIP3   OH249483   4.022   5.749   5.005  0.2764  0.2075  0.2214
 9331TIP3    H149484   4.103   5.756   4.954 -0.1967 -0.7226 -0.7152
 9331TIP3    H249485   4.049   5.708   5.087  0.8979  0.7977  0.3249
 9332TIP3   OH249486   4.860   4.439  13.193 -0.1798 -0.2499  0.6808
 9332TIP3    H149487   4.866   4.459  13.099 -2.0013 -1.1946  0.3145
 9332TIP3    H249488   4.881   4.521  13.236  0.1239  0.3614 -0.5658
 9333TIP3   OH249489   3.757   5.925  14.734 -0.0960  0.1310 -0.1483
 9333TIP3    H149490   3.683   5.881  14.776 -0.9286  1.1430 -0.5365
 9333TIP3    H249491   3.735   6.018  14.738  0.2729  0.3197 -1.9481
 9334TIP3   OH249492   5.689   1.859   2.816 -0.0407 -0.4808 -0.4015
 9334TIP3    H149493   5.654   1.947   2.802  0.1406 -0.0152  1.6624
 9334TIP3    H249494   5.656   1.808   2.743 -1.7369  0.8623 -0.6326
 9335TIP3   OH249495   2.380   5.504  12.433 -0.2582  0.0114 -0.1371
 9335TIP3    H149496   2.324   5.450  12.489  0.4297 -0.5263  0.0463
 9335TIP3    H249497   2.366   5.469  12.345 -0.2039 -0.1223 -0.0920
 9336TIP3   OH249498   0.176   6.427   4.827  0.2725  0.8066 -0.0829
 9336TIP3    H149499   0.269   6.411   4.841  0.9216  1.6339 -2.7807
 9336TIP3    H249500   0.168   6.522   4.825 -1.0633  0.8040  2.1719
 9337TIP3   OH249501   4.861   0.907   0.531  0.7831  0.5011  0.7298
 9337TIP3    H149502   4.864   0.822   0.487 -0.8356  1.2970 -1.0482
 9337TIP3    H249503   4.944   0.912   0.578  1.8493 -1.1835 -0.8176
 9338TIP3   OH249504   1.959   5.017   1.293  0.2175 -0.2707  0.2278
 9338TIP3    H149505   1.912   5.071   1.229  1.4230 -0.5443 -0.9355
 9338TIP3    H249506   1.969   5.073   1.369 -0.5626  0.3411 -0.0952
 9339TIP3   OH249507   3.809   5.846   3.888 -0.5718 -0.0968  0.1344
 9339TIP3    H149508   3.820   5.797   3.807 -1.0819  0.5182 -0.3150
 9339TIP3    H249509   3.884   5.822   3.941 -0.2812 -0.5751 -0.4862
 9340TIP3   OH249510   1.847   6.484   3.828  0.2729 -0.3473  0.0199
 9340TIP3    H149511   1.915   6.503   3.892 -1.4040  0.1981  1.7412
 9340TIP3    H249512   1.838   6.565   3.777 -0.0751  0.1128  0.7859
 9341TIP3   OH249513   2.758   0.786  14.712 -0.3432  0.4675  0.4182
 9341TIP3    H149514   2.746   0.833  14.629 -5.2678  0.5356  0.8472
 9341TIP3    H249515   2.779   0.697  14.686 -0.9136  0.6904 -0.9088
 9342TIP3   OH249516   0.324   4.807  16.320 -1.1703 -0.0114  0.2230
 9342TIP3    H149517   0.285   4.888  16.351 -1.0905 -0.2210  0.8906
 9342TIP3    H249518   0.276   4.738  16.366 -0.7937 -0.3133  0.1689
 9343TIP3   OH249519   6.251   0.174  17.042  0.3305  0.4128  0.0850
 9343TIP3    H149520   6.316   0.104  17.046  0.7727  0.8373  0.4565
 9343TIP3    H249521   6.169   0.133  17.071 -0.0033 -0.5988 -2.0802
 9344TIP3   OH249522   2.962   5.707  11.943  0.6209 -0.0805  0.2235
 9344TIP3    H149523   2.920   5.666  11.868  0.4489 -0.6806  0.6396
 9344TIP3    H249524   2.897   5.769  11.976 -0.0371 -1.1147  0.9579
 9345TIP3   OH249525   1.630   6.055  15.063 -0.2917  1.2128 -0.2699
 9345TIP3    H149526   1.639   6.150  15.057  1.0669  1.0479 -1.0687
 9345TIP3    H249527   1.668   6.021  14.983 -1.6626  0.0142 -0.4717
 9346TIP3   OH249528   3.711   3.013  16.168  0.2515 -0.1964  0.0194
 9346TIP3    H149529   3.709   3.024  16.073 -2.2145 -0.2044  0.0129
 9346TIP3    H249530   3.621   3.025  16.196  1.1309  1.3552  2.5815
 9347TIP3   OH249531   5.294   0.315  14.911  0.2074  0.3178 -0.6023
 9347TIP3    H149532   5.246   0.328  14.829  0.9797  1.0152 -0.9630
 9347TIP3    H249533   5.364   0.381  14.908 -1.9431  3.0873  2.3318
 9348TIP3   OH249534   2.876   1.537  12.401  0.3421 -0.7275  0.4079
 9348TIP3    H149535   2.849   1.616  12.446  1.7330  0.4975 -0.7854
 9348TIP3    H249536   2.941   1.567  12.336 -1.5340 -2.3240 -2.4453
 9349TIP3   OH249537   5.666   4.312   4.222 -0.0417 -0.0619  0.4817
 9349TIP3    H149538   5.575   4.333   4.202  0.2194  0.6534  0.0432
 9349TIP3    H249539   5.663   4.273   4.310 -0.5909  1.4115  1.1445
 9350TIP3   OH249540   4.721   2.131   6.231 -0.0322 -0.2783 -0.2747
 9350TIP3    H149541   4.739   2.052   6.284  1.6893 -0.4150 -1.0020
 9350TIP3    H249542   4.658   2.102   6.165  0.5128 -1.0333 -0.4753
 9351TIP3   OH249543   0.390   5.623   4.431  0.4056 -0.4065  0.1926
 9351TIP3    H149544   0.445   5.610   4.507 -0.5451 -1.1836  0.7665
 9351TIP3    H249545   0.312   5.667   4.465  0.5825  0.5452 -0.5790
 9352TIP3   OH249546   2.200   3.248   6.356  0.6311  0.3812 -0.7744
 9352TIP3    H149547   2.150   3.311   6.305 -1.4086 -1.2071 -0.8431
 9352TIP3    H249548   2.174   3.163   6.322  0.7828 -0.6469  1.4971
 9353TIP3   OH249549   5.767   1.743   5.088  0.0673  0.3041  0.7880
 9353TIP3    H149550   5.745   1.828   5.126 -2.2019  0.1375 -0.0202
 9353TIP3    H249551   5.803   1.693   5.161 -1.1222  1.0600  1.9312
 9354TIP3   OH249552   6.404   3.413  13.201  0.0056 -0.3503 -0.8388
 9354TIP3    H149553   6.309   3.428  13.200  0.0132  0.5122  2.3114
 9354TIP3    H249554   6.437   3.474  13.266  2.5181 -1.8641 -0.5801
 9355TIP3   OH249555   0.309   1.510   0.966 -0.0617 -0.5492  0.1878
 9355TIP3    H149556   0.269   1.425   0.951 -1.3471  0.3156 -1.7041
 9355TIP3    H249557   0.242   1.561   1.011  0.6831 -0.4954  1.2714
 9356TIP3   OH249558   0.785   1.222  17.042 -0.0279  0.2725  0.2983
 9356TIP3    H149559   0.762   1.240  16.951  0.2281 -2.1792 -0.3063
 9356TIP3    H249560   0.859   1.162  17.037 -0.0466  0.0302  2.1451
 9357TIP3   OH249561   3.342   4.551  17.056  0.5251 -0.4184 -0.5560
 9357TIP3    H149562   3.342   4.513  16.968 -1.1445  0.8316 -1.1351
 9357TIP3    H249563   3.284   4.495  17.107  0.1789 -0.1749 -0.6874
 9358TIP3   OH249564   6.194   2.462   1.102 -0.6392  0.4788 -0.4837
 9358TIP3    H149565   6.165   2.553   1.101 -0.6252  0.5168 -3.2322
 9358TIP3    H249566   6.131   2.416   1.048 -0.1589 -1.0010  0.1720
 9359TIP3   OH249567   3.382   2.166  14.042 -0.1723  0.0714  0.2006
 9359TIP3    H149568   3.332   2.248  14.044 -0.2436  0.0900 -1.0782
 9359TIP3    H249569   3.346   2.114  14.113 -1.7318  0.2538 -0.4154
 9360TIP3   OH249570   4.010   4.729  14.592  0.3332  0.2833  0.1168
 9360TIP3    H149571   3.967   4.701  14.672  0.1065  0.0758 -0.0767
 9360TIP3    H249572   3.955   4.694  14.522  0.8469 -0.0398 -0.1320
 9361TIP3   OH249573   3.521   1.118  10.460  0.6674 -0.7150 -0.4001
 9361TIP3    H149574   3.605   1.157  10.433  0.0824  0.4018 -0.6612
 9361TIP3    H249575   3.543   1.064  10.536  1.3548  1.0354  0.7140
 9362TIP3   OH249576   6.559   4.550  14.648 -0.4251 -0.3038  0.1601
 9362TIP3    H149577   6.560   4.638  14.685  0.1873 -0.2926  0.1176
 9362TIP3    H249578   6.510   4.559  14.566  0.3874  0.1719 -0.2787
 9363TIP3   OH249579   1.820   4.196  13.003  0.3045 -0.2990  0.4763
 9363TIP3    H149580   1.770   4.115  12.993  1.0832 -0.8533  0.9638
 9363TIP3    H249581   1.885   4.193  12.933 -0.3508  0.4506 -0.1926
 9364TIP3   OH249582   0.276   4.228   0.972  0.4012  0.0944  0.6034
 9364TIP3    H149583   0.328   4.149   0.955 -0.0690  0.2688 -2.0242
 9364TIP3    H249584   0.295   4.285   0.898 -1.8526  1.0622  0.7026
 9365TIP3   OH249585   4.089   1.046  13.497 -0.1616  0.2129 -0.5888
 9365TIP3    H149586   4.079   1.093  13.580 -2.5960 -0.0707 -0.6466
 9365TIP3    H249587   4.181   1.057  13.474  0.4170  0.9158  1.7771
 9366TIP3   OH249588   2.492   2.514   4.067 -0.5271 -0.0759  0.5598
 9366TIP3    H149589   2.534   2.539   3.985 -0.6250 -1.0624  0.1912
 9366TIP3    H249590   2.446   2.433   4.046 -1.2119  0.0827  1.3912
 9367TIP3   OH249591   4.982   1.973   3.696  0.6809 -0.5249  0.0565
 9367TIP3    H149592   4.901   2.021   3.678  1.1709 -0.2545 -1.5356
 9367TIP3    H249593   5.016   2.014   3.776 -0.0194  0.3140 -0.0585
 9368TIP3   OH249594   1.911   4.251  15.875  0.6023 -0.6788  0.4145
 9368TIP3    H149595   1.954   4.233  15.791  0.8624 -0.4850  0.5043
 9368TIP3    H249596   1.822   4.276  15.852  0.6073 -0.8471  0.2092
 9369TIP3   OH249597   2.117   0.496  10.221  0.5147  0.4106 -0.2831
 9369TIP3    H149598   2.058   0.571  10.222  0.4925  0.3929 -0.0463
 9369TIP3    H249599   2.202   0.532  10.244  0.6061  0.4429 -0.6664
 9370TIP3   OH249600   3.797   1.285   2.242  0.3075  0.2726 -0.1489
 9370TIP3    H149601   3.879   1.332   2.258  0.5647  0.0046 -0.6343
 9370TIP3    H249602   3.813   1.236   2.161  0.4259 -1.4515  0.8575
 9371TIP3   OH249603   0.328   5.521  14.647 -0.4928 -0.0016 -0.1898
 9371TIP3    H149604   0.387   5.523  14.722 -0.0887  1.4074 -0.5017
 9371TIP3    H249605   0.267   5.593  14.662 -0.8635 -0.1653 -0.8472
 9372TIP3   OH249606   0.614   3.749  16.699  1.3336  0.0189 -0.0537
 9372TIP3    H149607   0.650   3.701  16.773  0.6230 -0.0001  0.2878
 9372TIP3    H249608   0.535   3.701  16.675 -0.8811  2.3805  1.9538
 9373TIP3   OH249609   4.150   5.087   0.586  0.4181  0.1784 -0.2738
 9373TIP3    H149610   4.176   5.027   0.656  0.1836  1.3429  0.8729
 9373TIP3    H249611   4.229   5.100   0.534  1.4944  1.6227  1.5983
 9374TIP3   OH249612   2.991   2.311   6.175  0.0043 -0.8421  0.2228
 9374TIP3    H149613   3.069   2.349   6.216 -0.4157  1.7633 -1.2041
 9374TIP3    H249614   3.025   2.238   6.124  1.6161  0.4393 -0.6579
 9375TIP3   OH249615   4.929   2.081  12.249 -0.5809 -0.0902 -0.3488
 9375TIP3    H149616   4.909   2.041  12.165 -0.9435 -1.6650  0.4587
 9375TIP3    H249617   4.907   2.015  12.314 -0.7396  1.2462  1.0287
 9376TIP3   OH249618   5.730   0.412  12.766 -0.6356 -0.4700 -0.1466
 9376TIP3    H149619   5.636   0.397  12.771 -0.9873  0.3608 -2.8088
 9376TIP3    H249620   5.749   0.420  12.672  2.2592 -1.5549  0.2227
 9377TIP3   OH249621   4.963   1.563  13.817  0.3484  0.5526  0.2040
 9377TIP3    H149622   4.912   1.615  13.755 -0.7913  1.2178  1.6492
 9377TIP3    H249623   5.035   1.528  13.765  0.5471  2.6779 -1.0852
 9378TIP3   OH249624   5.307   2.152   4.059 -0.4545 -0.2372  0.2213
 9378TIP3    H149625   5.286   2.237   4.022  2.6439  0.7425  0.4746
 9378TIP3    H249626   5.241   2.139   4.127 -0.8867  2.0655  0.3264
 9379TIP3   OH249627   0.572   1.916  16.437 -0.0813  0.3272 -0.3313
 9379TIP3    H149628   0.558   2.009  16.425 -1.5179  0.3138  0.8530
 9379TIP3    H249629   0.644   1.894  16.378  0.5623  2.2445 -0.3280
 9380TIP3   OH249630   6.035   1.166   3.946  0.7057 -0.4769 -0.1814
 9380TIP3    H149631   5.955   1.113   3.940 -0.5253  1.4608 -2.1361
 9380TIP3    H249632   6.028   1.210   4.031  0.5589 -1.5642  0.3924
 9381TIP3   OH249633   0.464   2.826   4.444 -0.0900  0.0258 -0.0654
 9381TIP3    H149634   0.452   2.838   4.349 -1.0583 -0.0975  0.0303
 9381TIP3    H249635   0.377   2.803   4.476  0.4787 -1.2013  0.6667
 9382TIP3   OH249636   6.043   0.744  15.701 -0.2477  1.0215 -0.0930
 9382TIP3    H149637   6.072   0.827  15.737 -0.7826  0.8666  0.7354
 9382TIP3    H249638   5.972   0.767  15.640 -0.2644  1.1889 -0.0098
 9383TIP3   OH249639   5.954   4.380   4.838 -0.6384 -0.1852  0.2906
 9383TIP3    H149640   5.954   4.475   4.852  1.7810 -0.2941  1.7791
 9383TIP3    H249641   5.900   4.345   4.909  0.4711  0.0020  1.2613
 9384TIP3   OH249642   6.247   2.451  12.247 -0.0686  0.2727  0.2146
 9384TIP3    H149643   6.257   2.427  12.155 -0.4335  1.2566 -0.0879
 9384TIP3    H249644   6.329   2.425  12.288 -0.0592 -0.5361 -0.3047
 9385TIP3   OH249645   5.427   3.020   4.995 -0.4113 -0.1393  0.0192
 9385TIP3    H149646   5.477   3.102   4.993  0.2658 -0.5534 -0.5661
 9385TIP3    H249647   5.478   2.962   5.051  1.1666 -1.3992 -2.5333
 9386TIP3   OH249648   2.120   2.395   5.669 -0.2158 -0.3542 -0.1742
 9386TIP3    H149649   2.034   2.361   5.692  0.6978 -2.3637  0.5920
 9386TIP3    H249650   2.181   2.339   5.717  1.5134  1.4301 -0.1742
 9387TIP3   OH249651   4.150   0.628   2.890 -0.1447 -0.0136 -0.4830
 9387TIP3    H149652   4.060   0.648   2.918 -0.7181  0.6650 -2.6464
 9387TIP3    H249653   4.171   0.545   2.934 -1.7512 -0.0808  0.2207
 9388TIP3   OH249654   1.094   2.118  12.184 -0.0161 -0.2110  0.3017
 9388TIP3    H149655   1.111   2.031  12.221 -0.5838 -0.1851  0.6346
 9388TIP3    H249656   1.002   2.117  12.161 -0.2993  0.6606  1.3110
 9389TIP3   OH249657   5.909   0.697   3.289 -0.4126 -0.3860 -0.0278
 9389TIP3    H149658   5.993   0.730   3.322 -0.2778 -1.6741  1.0042
 9389TIP3    H249659   5.925   0.676   3.197 -0.5175  2.3459 -0.7667
 9390TIP3   OH249660   5.209   2.106   5.950 -0.2025  0.0701  0.2323
 9390TIP3    H149661   5.127   2.061   5.972  0.3733 -1.3729 -0.4797
 9390TIP3    H249662   5.184   2.198   5.944 -1.8021 -0.3443 -0.0434
 9391TIP3   OH249663   2.880   3.130  17.152 -0.2993 -0.0122 -0.0548
 9391TIP3    H149664   2.786   3.111  17.157 -0.2198 -0.5907 -0.6374
 9391TIP3    H249665   2.919   3.075  17.220 -0.4662  0.8664  0.7681
 9392TIP3   OH249666   1.352   6.805   5.433 -0.2581 -0.1171 -0.4653
 9392TIP3    H149667   1.393   6.729   5.391  1.5095  0.0084  0.9032
 9392TIP3    H249668   1.262   6.776   5.450  0.2230 -1.7326 -0.4416
 9393TIP3   OH249669   1.613   6.178  14.669  0.0469  0.0819  0.3556
 9393TIP3    H149670   1.661   6.119  14.727 -0.6759 -0.0310  0.8570
 9393TIP3    H249671   1.671   6.193  14.595  0.8843  0.0173  0.9926
 9394TIP3   OH249672   6.796   1.748   1.785  0.3841 -0.0216 -0.1503
 9394TIP3    H149673   6.711   1.778   1.752 -1.0271 -2.0436  1.4193
 9394TIP3    H249674   6.850   1.739   1.706 -1.1198  0.4828 -1.2853
 9395TIP3   OH249675   0.359   4.766  13.798  0.2076 -0.1717 -0.0250
 9395TIP3    H149676   0.449   4.764  13.831 -0.6832  0.2243  2.6754
 9395TIP3    H249677   0.315   4.695  13.845 -1.1176  0.2625 -0.5659
 9396TIP3   OH249678   1.880   4.032  15.205  0.4034 -0.4792 -0.0437
 9396TIP3    H149679   1.906   4.002  15.293  2.5961 -1.3343 -0.9038
 9396TIP3    H249680   1.963   4.052  15.162 -0.6601  0.2642 -1.8171
 9397TIP3   OH249681   2.591   1.841   4.263 -0.1000  0.6867 -0.2532
 9397TIP3    H149682   2.524   1.874   4.323  0.0486 -0.4080  0.5381
 9397TIP3    H249683   2.592   1.904   4.191 -0.7693  1.6506  0.5563
 9398TIP3   OH249684   2.753   3.138   0.542  0.2248 -0.2391 -0.0283
 9398TIP3    H149685   2.733   3.200   0.612 -1.1104 -0.2589 -0.3660
 9398TIP3    H249686   2.790   3.192   0.472 -0.6182  0.1504 -0.1909
 9399TIP3   OH249687   2.603   2.213   3.793  0.4824  0.5242 -0.0757
 9399TIP3    H149688   2.669   2.230   3.860  0.0553  2.0567  0.0076
 9399TIP3    H249689   2.519   2.221   3.839  0.2119 -0.4381 -0.3824
 9400TIP3   OH249690   6.195   6.530   6.195  0.4414 -0.2180  0.3542
 9400TIP3    H149691   6.258   6.483   6.251  0.7913 -0.8910 -0.5860
 9400TIP3    H249692   6.238   6.613   6.175 -0.3460  0.7573  2.3573
 9401TIP3   OH249693   3.721   4.841   5.871  0.0505 -0.0595  0.8552
 9401TIP3    H149694   3.713   4.934   5.891 -1.2514  0.0540 -0.1066
 9401TIP3    H249695   3.772   4.806   5.944 -0.5164  1.1726  1.8910
 9402TIP3   OH249696   0.466   4.491  12.453  0.0718 -0.3466 -0.7431
 9402TIP3    H149697   0.393   4.521  12.398  0.7290 -0.5957 -1.7691
 9402TIP3    H249698   0.492   4.407  12.416 -1.5283 -2.1572  1.9086
 9403TIP3   OH249699   1.819   4.967   5.237  0.1085  0.5809  0.0339
 9403TIP3    H149700   1.792   5.056   5.213 -0.0657  0.9301  1.4596
 9403TIP3    H249701   1.886   4.980   5.305  1.6434 -0.3409 -1.2382
 9404TIP3   OH249702   5.773   0.877   0.385  0.3637  0.1178 -0.0547
 9404TIP3    H149703   5.760   0.954   0.440 -1.6853  1.6789 -2.5050
 9404TIP3    H249704   5.689   0.830   0.389  1.5539 -2.0869  1.3705
 9405TIP3   OH249705   1.492   0.618  12.899  0.7145  0.6845  0.2000
 9405TIP3    H149706   1.550   0.679  12.945  1.2866 -0.0466  0.4602
 9405TIP3    H249707   1.405   0.658  12.907  1.2693  2.2624 -0.9691
 9406TIP3   OH249708   0.729   4.830  16.308 -0.7725 -0.6035  0.4806
 9406TIP3    H149709   0.683   4.752  16.276 -1.1237 -0.3447  0.3356
 9406TIP3    H249710   0.665   4.874  16.364 -0.6268 -0.3539  0.4536
 9407TIP3   OH249711   6.597   1.762  13.659  0.0713 -0.5476  0.6611
 9407TIP3    H149712   6.523   1.812  13.627 -0.0527 -0.7912  0.5693
 9407TIP3    H249713   6.573   1.670  13.646  0.3880 -0.6283  0.6278
 9408TIP3   OH249714   5.032   3.509  17.224 -0.2193  0.0570  0.2749
 9408TIP3    H149715   5.070   3.425  17.248 -0.2604 -1.0438 -3.0084
 9408TIP3    H249716   4.952   3.515  17.275 -0.1179 -1.8177  0.7079
 9409TIP3   OH249717   2.706   5.890   2.581  0.6118 -0.3585  0.0424
 9409TIP3    H149718   2.674   5.924   2.664  1.8598 -0.5581  0.6230
 9409TIP3    H249719   2.711   5.967   2.524 -1.9149 -0.4833 -0.4479
 9410TIP3   OH249720   4.660   0.365  16.473 -0.0606  0.1493 -0.0478
 9410TIP3    H149721   4.688   0.294  16.530 -1.1842  0.3399  0.7834
 9410TIP3    H249722   4.689   0.339  16.386  0.1960 -0.9739  0.3570
 9411TIP3   OH249723   0.649   6.221  14.769  0.3997 -0.4495 -0.0058
 9411TIP3    H149724   0.682   6.138  14.803  1.7198 -0.8646 -2.1026
 9411TIP3    H249725   0.558   6.224  14.798  0.0485 -3.0499 -0.5272
 9412TIP3   OH249726   4.889   4.636   4.257 -0.3555  0.3749 -0.2913
 9412TIP3    H149727   4.901   4.639   4.352 -2.9785  0.8330  0.1063
 9412TIP3    H249728   4.943   4.708   4.224  0.7945  0.0438  0.8093
 9413TIP3   OH249729   4.011   5.156  15.119 -0.2562  0.5380  0.2638
 9413TIP3    H149730   3.991   5.184  15.029 -2.8628  1.1752  0.9378
 9413TIP3    H249731   4.016   5.061  15.113 -1.5616  0.4821 -0.4212
 9414TIP3   OH249732   6.311   1.641  11.650  0.2235 -0.0780 -0.0789
 9414TIP3    H149733   6.393   1.623  11.604  0.0903  0.3921 -0.4990
 9414TIP3    H249734   6.243   1.622  11.586  0.0529  1.0279 -0.2383
 9415TIP3   OH249735   2.316   2.547  15.496  0.4560  0.3272 -0.4135
 9415TIP3    H149736   2.324   2.639  15.470 -4.2367  1.5467  1.3641
 9415TIP3    H249737   2.276   2.505  15.420 -0.7319  0.7091 -0.0326
 9416TIP3   OH249738   2.033   4.283   3.518  0.2509 -0.7889 -0.1077
 9416TIP3    H149739   2.015   4.248   3.605  0.3518 -0.7298 -0.0637
 9416TIP3    H249740   1.990   4.369   3.517 -0.7390 -1.2720 -0.5098
 9417TIP3   OH249741   1.933   6.206   0.116 -0.2583  0.1140  0.2853
 9417TIP3    H149742   1.983   6.220   0.196  2.2786 -1.9074 -0.7756
 9417TIP3    H249743   1.926   6.111   0.108  0.4815  0.2015 -2.3321
 9418TIP3   OH249744   4.224   5.878   0.764  0.1080  0.7194 -0.0064
 9418TIP3    H149745   4.190   5.793   0.737 -2.0958  0.4450  3.0688
 9418TIP3    H249746   4.195   5.938   0.696 -2.6686 -0.2931  0.1468
 9419TIP3   OH249747   3.795   4.317   3.186  0.8397  0.1404  0.4393
 9419TIP3    H149748   3.855   4.252   3.224 -0.5307  0.0345  2.5828
 9419TIP3    H249749   3.813   4.398   3.235  1.4206  1.0020 -1.1183
 9420TIP3   OH249750   5.042   3.420  16.348  0.1030 -0.6863 -0.4716
 9420TIP3    H149751   5.047   3.331  16.314 -0.1227 -0.6586 -0.5814
 9420TIP3    H249752   4.951   3.446  16.335  0.1562 -0.4552 -0.4021
 9421TIP3   OH249753   5.487   5.258  16.151  0.9376 -0.7059  0.0567
 9421TIP3    H149754   5.563   5.230  16.201  1.4064 -0.9632 -0.7806
 9421TIP3    H249755   5.522   5.282  16.065 -0.0091 -1.5044 -0.5768
 9422TIP3   OH249756   4.858   3.833  16.049 -0.2449 -0.0656  0.2381
 9422TIP3    H149757   4.941   3.824  16.001 -1.4125  0.1962 -1.9606
 9422TIP3    H249758   4.872   3.783  16.129  1.1055 -2.4526 -1.3535
 9423TIP3   OH249759   5.676   3.019  16.548  0.0402 -0.3599 -0.2255
 9423TIP3    H149760   5.654   3.038  16.639  1.2016 -0.5943  0.1285
 9423TIP3    H249761   5.763   2.979  16.552 -0.0866 -0.8068 -1.4030
 9424TIP3   OH249762   2.424   6.470   0.193 -0.2620  0.1548  0.5918
 9424TIP3    H149763   2.369   6.441   0.266 -0.1210  0.3684  0.7881
 9424TIP3    H249764   2.396   6.417   0.119 -2.5558  2.0329  0.0109
 9425TIP3   OH249765   5.563   4.973  14.267  0.3182  0.5217  0.2249
 9425TIP3    H149766   5.496   4.908  14.245  2.1409 -1.6747  0.7294
 9425TIP3    H249767   5.646   4.929  14.247  1.6640  2.9310  0.0967
 9426TIP3   OH249768   5.035   5.398   1.508 -0.0219  0.1606 -0.1083
 9426TIP3    H149769   4.943   5.373   1.500 -0.0294  0.0979  0.1428
 9426TIP3    H249770   5.057   5.438   1.424 -0.1915 -0.1059 -0.2806
 9427TIP3   OH249771   0.328   5.730   3.061 -0.9912  0.1928 -0.1856
 9427TIP3    H149772   0.296   5.737   2.971 -2.3435 -2.5627 -0.0438
 9427TIP3    H249773   0.249   5.722   3.114 -0.1981 -1.3527  0.8449
 9428TIP3   OH249774   4.351   5.962  12.457 -0.0552  0.2662  0.2493
 9428TIP3    H149775   4.265   5.934  12.488 -0.6796  0.4329 -1.2501
 9428TIP3    H249776   4.387   5.886  12.412 -1.2608  1.3558 -2.8135
 9429TIP3   OH249777   5.731   3.839   5.794  0.6914  0.0521 -0.4149
 9429TIP3    H149778   5.739   3.880   5.881  1.3628  0.8086 -0.8280
 9429TIP3    H249779   5.662   3.889   5.751 -0.1031 -0.7384 -0.1026
 9430TIP3   OH249780   4.419   0.485   2.336  0.4159  0.0212 -0.3533
 9430TIP3    H149781   4.474   0.413   2.304  0.7887  0.4495 -0.7030
 9430TIP3    H249782   4.481   0.545   2.379  0.2891  0.6651 -1.0329
 9431TIP3   OH249783   0.085   3.619  10.434 -0.1272  0.0969 -0.0865
 9431TIP3    H149784   0.163   3.592  10.387  1.4619  2.4630  0.9958
 9431TIP3    H249785   0.065   3.706  10.400 -0.6155  0.6757  1.5696
 9432TIP3   OH249786   4.888   6.522  16.764  0.4913  0.5062  0.0550
 9432TIP3    H149787   4.957   6.536  16.699  1.8380 -0.9192  1.1001
 9432TIP3    H249788   4.828   6.461  16.722  1.3880 -0.4595  0.1515
 9433TIP3   OH249789   3.857   6.037   1.345  0.2782 -0.0014 -0.2776
 9433TIP3    H149790   3.932   5.986   1.317  1.0317  0.9971 -0.1384
 9433TIP3    H249791   3.878   6.127   1.320  0.1359  0.6489  1.7127
 9434TIP3   OH249792   2.246   3.694  11.788  0.3663 -0.1422  0.2669
 9434TIP3    H149793   2.206   3.634  11.851 -0.2564 -0.2245 -0.1957
 9434TIP3    H249794   2.340   3.679  11.796  0.2184 -1.1444  0.1839
 9435TIP3   OH249795   6.151   0.748   3.310 -0.2976  0.3086  0.1475
 9435TIP3    H149796   6.198   0.673   3.274 -0.1396  0.8583 -0.8346
 9435TIP3    H249797   6.220   0.804   3.347 -0.5473 -0.8019  2.4454
 9436TIP3   OH249798   1.603   4.281   0.744 -0.4815  0.1564 -0.2238
 9436TIP3    H149799   1.529   4.242   0.791 -0.5494 -0.0814 -0.5267
 9436TIP3    H249800   1.627   4.357   0.797  0.2742 -0.8379  0.9056
 9437TIP3   OH249801   5.076   1.284  15.184 -0.3608  0.2347  0.6517
 9437TIP3    H149802   5.106   1.366  15.225 -1.5027  1.3770 -0.7064
 9437TIP3    H249803   4.982   1.297  15.170 -0.4784 -1.1585  0.0214
 9438TIP3   OH249804   5.326   4.624   0.062  0.0299  0.3913 -0.0783
 9438TIP3    H149805   5.270   4.699   0.042 -1.0663 -0.4574 -0.2587
 9438TIP3    H249806   5.267   4.549   0.061  1.2221 -0.5687 -0.5256
 9439TIP3   OH249807   5.356   4.150   1.587 -0.3906 -0.1931 -0.0918
 9439TIP3    H149808   5.398   4.109   1.663  1.2142  1.5189  0.0009
 9439TIP3    H249809   5.426   4.199   1.544 -1.9005  1.2004 -1.0530
 9440TIP3   OH249810   1.315   3.220   0.485 -0.2762  0.2191  0.1742
 9440TIP3    H149811   1.400   3.261   0.470 -0.6132  0.2681 -1.9006
 9440TIP3    H249812   1.263   3.289   0.527  0.5554  0.3352  1.0359
 9441TIP3   OH249813   5.380   4.479  12.200 -0.0282 -0.5382 -0.6050
 9441TIP3    H149814   5.421   4.564  12.187  0.1617 -0.5772 -0.2632
 9441TIP3    H249815   5.289   4.492  12.172 -0.0995 -0.1198 -0.1922
 9442TIP3   OH249816   3.400   5.444  12.203  0.0848  0.1755 -0.0113
 9442TIP3    H149817   3.474   5.499  12.179  1.7044 -1.2682  1.3306
 9442TIP3    H249818   3.426   5.356  12.176 -1.2658 -0.3285  0.2419
 9443TIP3   OH249819   6.189   1.136  16.573  0.2429  0.4841  0.3299
 9443TIP3    H149820   6.160   1.102  16.488  0.7974 -1.4275  0.8447
 9443TIP3    H249821   6.243   1.213  16.552  0.9313 -0.3569 -1.1164
 9444TIP3   OH249822   6.755   0.404   5.022 -0.3922 -0.0732  0.0048
 9444TIP3    H149823   6.702   0.455   4.960  0.4513  1.1131  0.2207
 9444TIP3    H249824   6.845   0.421   4.996 -0.0848 -1.2148  0.3013
 9445TIP3   OH249825   0.855   1.884   2.490  0.3775  0.3368  0.2911
 9445TIP3    H149826   0.907   1.855   2.564 -0.4000 -0.3422  0.5922
 9445TIP3    H249827   0.772   1.911   2.528 -0.0864 -0.1605 -0.3342
 9446TIP3   OH249828   4.105   0.107  16.886  0.6307  0.3118 -0.0691
 9446TIP3    H149829   4.058   0.060  16.818  0.8573  0.7445 -0.5342
 9446TIP3    H249830   4.123   0.041  16.953  1.7724 -0.4895 -1.1235
 9447TIP3   OH249831   6.020   2.218  13.667  0.0816  0.0467  0.2451
 9447TIP3    H149832   5.941   2.242  13.714  0.7082  0.6130  1.0476
 9447TIP3    H249833   6.049   2.299  13.625  1.2341  0.3327  1.4986
 9448TIP3   OH249834   6.563   5.916   6.543 -0.1777  0.1000 -0.1293
 9448TIP3    H149835   6.525   5.979   6.604  0.4105 -0.5809  0.9682
 9448TIP3    H249836   6.645   5.957   6.515 -0.4082  0.3763 -0.4102
 9449TIP3   OH249837   1.694   3.181  14.959 -0.8783 -0.3959  0.2805
 9449TIP3    H149838   1.625   3.121  14.928  1.0868 -1.2752 -2.8320
 9449TIP3    H249839   1.742   3.204  14.880  2.4771  0.0833  2.3035
 9450TIP3   OH249840   5.697   6.023  12.360  0.3217 -0.1152  0.3142
 9450TIP3    H149841   5.773   6.015  12.417 -0.3097  0.8101  1.3356
 9450TIP3    H249842   5.677   5.934  12.332 -1.0659 -1.1014  3.8702
 9451TIP3   OH249843   1.907   0.287  16.501  0.6588  0.1672  0.2923
 9451TIP3    H149844   1.824   0.327  16.526  0.5673  1.0502 -1.2903
 9451TIP3    H249845   1.918   0.215  16.563 -1.6482 -0.4265  0.1258
 9452TIP3   OH249846   0.634   0.105   4.539 -0.0848  0.0398  0.1062
 9452TIP3    H149847   0.633   0.190   4.496  0.0808 -0.9168 -1.9590
 9452TIP3    H249848   0.576   0.114   4.614  0.9604  2.3183  0.7133
 9453TIP3   OH249849   3.844   2.808   0.074 -0.1087 -0.3670 -0.3778
 9453TIP3    H149850   3.796   2.753   0.136 -1.5016  2.2124  1.0062
 9453TIP3    H249851   3.916   2.844   0.125 -0.0077  0.1159 -0.8553
 9454TIP3   OH249852   3.383   4.527  15.018  0.2523 -0.1343 -0.2362
 9454TIP3    H149853   3.359   4.528  14.925  0.1839 -0.5031 -0.2234
 9454TIP3    H249854   3.448   4.596  15.026 -1.8127  1.9171  0.0073
 9455TIP3   OH249855   2.843   5.047  12.071  0.5657 -0.5648 -0.1760
 9455TIP3    H149856   2.924   5.021  12.026  0.8485  1.1892 -0.7962
 9455TIP3    H249857   2.777   5.049  12.002  0.3940 -0.3818 -0.0097
 9456TIP3   OH249858   2.966   2.898  12.210  0.2181  0.7472  0.1062
 9456TIP3    H149859   3.060   2.891  12.197  0.6010  1.6881  2.0410
 9456TIP3    H249860   2.936   2.960  12.143  0.8139 -0.1519 -1.0197
 9457TIP3   OH249861   3.676   0.076  15.560 -0.4094  0.6435  0.6236
 9457TIP3    H149862   3.693  -0.013  15.591  0.5716  0.8752  0.7876
 9457TIP3    H249863   3.582   0.079  15.546 -0.4111 -0.5244  0.2980
 9458TIP3   OH249864   3.580   2.651   1.641 -0.3875 -0.1314 -0.0810
 9458TIP3    H149865   3.645   2.583   1.659  0.0380  0.0198 -0.9990
 9458TIP3    H249866   3.632   2.729   1.622 -0.8262 -0.0329 -0.9358
 9459TIP3   OH249867   4.300   0.630   1.297  0.0823 -0.3485  0.2262
 9459TIP3    H149868   4.258   0.692   1.237 -1.0373 -1.4025 -0.1028
 9459TIP3    H249869   4.387   0.616   1.259 -0.5757 -0.9293 -1.1271
 9460TIP3   OH249870   5.495   2.086  14.456  0.2358  0.6402 -0.1367
 9460TIP3    H149871   5.535   2.007  14.493  1.3082  1.2821  0.0983
 9460TIP3    H249872   5.415   2.054  14.413  0.9057 -0.6504 -0.4751
 9461TIP3   OH249873   2.222   3.966  11.486 -0.1058  0.3496 -0.2457
 9461TIP3    H149874   2.135   3.955  11.525 -0.1064  1.0037 -0.0612
 9461TIP3    H249875   2.227   4.059  11.464 -0.5796 -0.1729 -2.9298
 9462TIP3   OH249876   4.253   4.362   5.062 -0.0128 -0.3922  0.2455
 9462TIP3    H149877   4.188   4.322   5.120 -0.0351  0.9265  1.1783
 9462TIP3    H249878   4.265   4.451   5.098 -0.5796  0.7470 -2.1786
 9463TIP3   OH249879   1.522   2.286   0.882  0.0277  0.0574  0.0944
 9463TIP3    H149880   1.519   2.315   0.791 -1.1386 -0.4998 -0.0685
 9463TIP3    H249881   1.448   2.331   0.924 -0.3314 -0.7934  0.4082
 9464TIP3   OH249882   1.394   0.032  14.331 -0.2577 -0.4563  0.0338
 9464TIP3    H149883   1.482   0.032  14.369  0.0406 -0.6843 -0.6510
 9464TIP3    H249884   1.407   0.049  14.238 -0.7988 -1.9834 -0.3678
 9465TIP3   OH249885   2.907   2.055  11.338 -0.2077 -0.5139  0.0684
 9465TIP3    H149886   2.833   2.031  11.281  0.2250 -2.7574  0.3635
 9465TIP3    H249887   2.968   2.101  11.280 -2.3070  2.6290  0.0860
 9466TIP3   OH249888   1.117   0.843  12.016  0.0687  0.5287  0.0498
 9466TIP3    H149889   1.201   0.850  12.061  0.0646  1.5672 -0.0829
 9466TIP3    H249890   1.117   0.916  11.954 -0.3667 -0.2551 -0.9121
 9467TIP3   OH249891   4.039   2.445  14.389 -0.1330 -0.1758  0.4481
 9467TIP3    H149892   4.056   2.539  14.392 -0.9557  0.0780 -1.2866
 9467TIP3    H249893   3.947   2.436  14.411 -0.8697 -0.2046 -2.2841
 9468TIP3   OH249894   2.709   0.113   4.649 -0.4341 -0.2012  0.8199
 9468TIP3    H149895   2.708   0.208   4.640  1.1437  0.0031  2.2645
 9468TIP3    H249896   2.660   0.081   4.573 -2.1116  1.7864  0.9700
 9469TIP3   OH249897   0.964   3.329   5.306  0.2715 -0.1369  0.1724
 9469TIP3    H149898   1.055   3.358   5.314  0.2431  0.6298 -1.8270
 9469TIP3    H249899   0.913   3.399   5.347  0.5063  0.1893 -0.0846
 9470TIP3   OH249900   6.492   1.479  13.675  0.4724  0.4799 -0.0834
 9470TIP3    H149901   6.450   1.487  13.590 -0.6589  1.0656  0.5087
 9470TIP3    H249902   6.570   1.425  13.659  0.6899  1.2182 -1.6146
 9471TIP3   OH249903   6.483   6.146  12.986  0.1809 -0.1854 -0.3660
 9471TIP3    H149904   6.436   6.063  12.996 -1.6028  0.2437 -3.7584
 9471TIP3    H249905   6.572   6.126  13.015 -0.9915 -2.1956  2.3664
 9472TIP3   OH249906   4.318   0.491   6.206 -0.6503 -0.7667  0.6221
 9472TIP3    H149907   4.227   0.516   6.224 -1.1664 -0.7439 -1.6861
 9472TIP3    H249908   4.316   0.396   6.196 -0.2318 -0.8706  1.4743
 9473TIP3   OH249909   0.871   6.050  13.732 -0.0529 -0.3356 -0.7500
 9473TIP3    H149910   0.932   6.041  13.805  0.7858 -1.5801 -1.5614
 9473TIP3    H249911   0.883   5.970  13.681 -1.5122 -0.0545 -1.5835
 9474TIP3   OH249912   5.131   5.626   4.604  0.2401  0.0461 -0.1925
 9474TIP3    H149913   5.141   5.664   4.517 -0.2571  0.3769 -0.1105
 9474TIP3    H249914   5.102   5.699   4.659  0.8629 -0.0853  0.3204
 9475TIP3   OH249915   4.250   4.484  15.522  0.4893 -0.2115 -0.2224
 9475TIP3    H149916   4.306   4.445  15.590 -0.9236 -0.1768  1.0355
 9475TIP3    H249917   4.292   4.460  15.440  2.5670  0.1810  0.6516
 9476TIP3   OH249918   3.090   3.644   2.426  0.2105  0.3298 -0.3472
 9476TIP3    H149919   3.100   3.554   2.456 -1.4403  0.4203  0.6009
 9476TIP3    H249920   3.085   3.638   2.331  0.7464 -0.5033 -0.3293
 9477TIP3   OH249921   2.688   5.254  13.764 -0.3549 -0.7275 -0.2428
 9477TIP3    H149922   2.719   5.200  13.837  0.2607 -0.1326 -0.0489
 9477TIP3    H249923   2.756   5.321  13.754 -0.0602 -1.2399 -1.8465
 9478TIP3   OH249924   2.935   2.383   0.303 -0.0871  0.1938 -0.6271
 9478TIP3    H149925   2.846   2.407   0.276 -0.0352  1.1407 -0.0289
 9478TIP3    H249926   2.973   2.466   0.334 -0.0610 -0.7367  2.0782
 9479TIP3   OH249927   6.380   2.400   0.763 -0.9359 -0.2365 -0.6109
 9479TIP3    H149928   6.321   2.456   0.712  1.1403  2.3629 -0.3778
 9479TIP3    H249929   6.447   2.371   0.701 -0.6784 -0.4813 -0.2255
 9480TIP3   OH249930   5.039   3.607  11.682  0.0156 -0.4736  0.6399
 9480TIP3    H149931   5.076   3.549  11.615 -0.8376  0.5287 -0.7409
 9480TIP3    H249932   5.058   3.695  11.651 -1.1414  0.0295  1.2897
 9481TIP3   OH249933   2.678   2.646   6.046 -0.1200  0.0238 -0.3139
 9481TIP3    H149934   2.600   2.694   6.073 -0.5430 -0.9899  0.3037
 9481TIP3    H249935   2.723   2.625   6.128  1.6721  1.9535 -0.6980
 9482TIP3   OH249936   4.805   1.021   0.282  0.2153 -0.4072 -0.6834
 9482TIP3    H149937   4.797   0.978   0.367  0.7812 -0.6531 -0.7525
 9482TIP3    H249938   4.892   1.061   0.283 -0.2294  0.5844 -0.6944
 9483TIP3   OH249939   1.519   6.270  15.524  0.1714  0.1739  0.2592
 9483TIP3    H149940   1.575   6.315  15.460  0.7964 -0.6626  0.2002
 9483TIP3    H249941   1.499   6.186  15.483  0.5365 -0.3547  1.1351
 9484TIP3   OH249942   5.515   2.180   3.569  0.3080 -0.9312  0.0910
 9484TIP3    H149943   5.460   2.252   3.539  1.0582  0.0190  0.9474
 9484TIP3    H249944   5.532   2.128   3.490  2.1961  1.4593 -1.1855
 9485TIP3   OH249945   3.578   4.247  14.694  0.1034 -0.2553 -0.3410
 9485TIP3    H149946   3.528   4.283  14.620  0.1867 -1.2773 -0.9067
 9485TIP3    H249947   3.559   4.153  14.693  0.0105 -0.2699  1.0246
 9486TIP3   OH249948   1.679   2.161   3.663 -0.0996  0.1189 -0.5094
 9486TIP3    H149949   1.651   2.224   3.730  1.6834  0.5657 -0.1312
 9486TIP3    H249950   1.652   2.076   3.698  1.5895  0.2477  1.2809
 9487TIP3   OH249951   3.123   5.501  14.692  0.4309 -0.7385  0.1287
 9487TIP3    H149952   3.132   5.489  14.597  0.3248  0.9168 -0.1206
 9487TIP3    H249953   3.175   5.429  14.729 -1.9171 -3.2578 -1.0841
 9488TIP3   OH249954   5.807   4.849   3.438  0.2805 -0.2566 -0.0139
 9488TIP3    H149955   5.844   4.935   3.417  1.2871 -0.3965  1.1188
 9488TIP3    H249956   5.732   4.840   3.379  0.3639  1.2565 -0.3770
 9489TIP3   OH249957   4.320   3.149  16.254 -0.1174 -0.5663  0.5999
 9489TIP3    H149958   4.252   3.202  16.213  1.3635  0.9806 -0.0029
 9489TIP3    H249959   4.388   3.141  16.187  0.6421 -1.3829  1.4310
 9490TIP3   OH249960   6.377   1.387   3.240  0.1359 -0.0921 -0.3396
 9490TIP3    H149961   6.443   1.457   3.244  1.4435 -1.3052  2.6767
 9490TIP3    H249962   6.307   1.418   3.297  0.9696 -1.3434  1.4732
 9491TIP3   OH249963   2.007   4.082   1.141  0.4461 -0.1538 -0.2119
 9491TIP3    H149964   2.085   4.138   1.139  0.6455 -0.3989  0.4613
 9491TIP3    H249965   2.004   4.048   1.230 -0.4283 -0.1546 -0.2299
 9492TIP3   OH249966   3.991   0.515  15.441 -0.0885  0.1189 -0.0333
 9492TIP3    H149967   4.079   0.552  15.434  0.2802 -0.7315  0.0476
 9492TIP3    H249968   3.997   0.452  15.512 -0.8813  0.3623  0.2608
 9493TIP3   OH249969   4.331   3.123  16.775 -0.0365 -0.2807 -0.1340
 9493TIP3    H149970   4.281   3.198  16.743  0.9289  0.6408  0.4855
 9493TIP3    H249971   4.367   3.083  16.696  0.0894  0.3686 -0.4108
 9494TIP3   OH249972   5.973   0.203  12.019  0.7293  0.3498  0.2658
 9494TIP3    H149973   5.983   0.119  12.063  0.4451 -1.0733 -2.1865
 9494TIP3    H249974   5.915   0.253  12.076 -0.8803 -1.9537  0.7944
 9495TIP3   OH249975   1.649   3.490  16.933 -0.4860  0.3930 -0.4505
 9495TIP3    H149976   1.740   3.505  16.906  0.1466 -0.7239  1.0039
 9495TIP3    H249977   1.623   3.411  16.886  0.8327 -1.9427  2.4897
 9496TIP3   OH249978   5.793   3.296  16.074  0.4421  0.2361  0.0403
 9496TIP3    H149979   5.883   3.323  16.088  1.5036 -1.9477 -1.9279
 9496TIP3    H249980   5.787   3.209  16.113  0.1458 -0.9488 -2.4528
 9497TIP3   OH249981   3.069   1.928   0.968 -0.0253  0.3583  0.0961
 9497TIP3    H149982   3.145   1.871   0.980 -0.2010 -0.0140 -0.5019
 9497TIP3    H249983   3.002   1.891   1.026  0.5855  1.3534  1.4789
 9498TIP3   OH249984   3.246   4.493   4.295 -0.2173  0.2952 -0.3334
 9498TIP3    H149985   3.151   4.499   4.289 -0.0611  1.8259 -2.2176
 9498TIP3    H249986   3.269   4.412   4.249 -0.5289  0.6492 -1.1204
 9499TIP3   OH249987   1.324   6.385   2.257  0.1730 -0.1097 -0.1559
 9499TIP3    H149988   1.230   6.403   2.266  0.0446 -0.1214 -1.3700
 9499TIP3    H249989   1.338   6.305   2.308 -0.6500 -0.6155 -0.7109
 9500TIP3   OH249990   5.683   3.188  15.148 -0.2209  0.5629 -0.6163
 9500TIP3    H149991   5.666   3.126  15.078 -0.8786 -0.2422  0.2334
 9500TIP3    H249992   5.644   3.270  15.118 -1.5467 -0.0733 -0.6928
 9501TIP3   OH249993   4.795   3.277   2.404 -0.4059  0.1482 -0.0242
 9501TIP3    H149994   4.802   3.184   2.384 -0.6077  0.2677 -0.6692
 9501TIP3    H249995   4.824   3.284   2.495  2.7843 -0.1015 -0.8915
 9502TIP3   OH249996   2.908   0.511   5.663 -0.1462  0.3622  0.7647
 9502TIP3    H149997   2.854   0.433   5.675 -1.8144  1.4604  0.7444
 9502TIP3    H249998   2.990   0.491   5.707 -0.9060 -1.0249  1.6060
 9503TIP3   OH249999   2.661   4.018   5.602  0.5149  0.1150 -0.4334
 9503TIP3    H150000   2.741   3.979   5.567 -0.2149 -1.1506 -0.7681
 9503TIP3    H250001   2.641   3.966   5.680 -1.3277 -1.2882 -1.7531
 9504TIP3   OH250002   3.254   1.947   2.418 -1.0082  0.5523 -0.6798
 9504TIP3    H150003   3.267   1.978   2.507 -1.2144  0.8740 -0.7576
 9504TIP3    H250004   3.299   2.012   2.363  3.0311 -1.8732 -0.6532
 9505TIP3   OH250005   4.193   3.128  17.189 -0.1451 -0.3923  0.4338
 9505TIP3    H150006   4.193   3.115  17.284 -1.9429 -0.5816  0.4466
 9505TIP3    H250007   4.201   3.039  17.153  0.1650 -0.3548  0.4088
 9506TIP3   OH250008   6.650   6.060   2.775 -0.3720  0.3034  0.3364
 9506TIP3    H150009   6.648   5.997   2.847 -0.0132  0.4502  0.4771
 9506TIP3    H250010   6.663   6.145   2.818 -0.8602  0.4766  0.1511
 9507TIP3   OH250011   4.325   6.383  12.730 -0.1629  0.5222 -0.1538
 9507TIP3    H150012   4.399   6.343  12.775 -0.2385  0.2059 -0.3114
 9507TIP3    H250013   4.359   6.403  12.642 -0.9276 -1.7407 -1.0183
 9508TIP3   OH250014   0.824   2.207  15.927  0.5483  0.3500  0.4044
 9508TIP3    H150015   0.818   2.246  16.014  1.6949  1.8319 -0.1327
 9508TIP3    H250016   0.783   2.270  15.869 -0.2319 -0.6417 -0.1543
 9509TIP3   OH250017   1.851   5.676  16.949 -0.2576  0.3273 -0.8468
 9509TIP3    H150018   1.870   5.593  16.906  0.4274  0.1611 -0.2478
 9509TIP3    H250019   1.757   5.690  16.934 -0.6267 -1.0921 -0.0578
 9510TIP3   OH250020   3.664   2.966   6.144 -0.8873  0.0269  0.1621
 9510TIP3    H150021   3.647   2.969   6.050 -3.0381  1.9183  0.4913
 9510TIP3    H250022   3.646   2.876   6.169 -2.5084 -0.0026 -0.9495
 9511TIP3   OH250023   1.790   3.400  15.882 -0.1424  0.0175  0.1995
 9511TIP3    H150024   1.760   3.340  15.814 -1.6012  0.0166  0.8218
 9511TIP3    H250025   1.853   3.349  15.933 -0.9952 -0.8340  0.4207
 9512TIP3   OH250026   1.117   3.258  15.029  0.1787 -0.0006 -0.3054
 9512TIP3    H150027   1.106   3.323  14.960  1.5620 -1.8544 -2.4282
 9512TIP3    H250028   1.044   3.197  15.017  0.8064 -0.7074 -0.6212
 9513TIP3   OH250029   3.488   0.634   0.354 -0.0499 -0.0205 -0.0879
 9513TIP3    H150030   3.396   0.627   0.378  0.5267 -0.7090  2.2263
 9513TIP3    H250031   3.504   0.562   0.293 -0.9822 -0.0318 -0.3232
 9514TIP3   OH250032   1.313   1.073   4.000  0.4876 -0.2344  0.0257
 9514TIP3    H150033   1.290   0.981   4.012 -0.8587  0.0525 -0.1608
 9514TIP3    H250034   1.245   1.121   4.048  1.1357  0.6667  0.0691
 9515TIP3   OH250035   4.583   3.951   3.151 -0.0054 -0.1749 -0.0774
 9515TIP3    H150036   4.599   4.045   3.142 -0.7635  0.0986  1.2208
 9515TIP3    H250037   4.645   3.922   3.218 -0.3542 -0.4256  0.1397
 9516TIP3   OH250038   2.455   4.672  16.611  0.1533  0.2349  0.0706
 9516TIP3    H150039   2.477   4.626  16.530 -1.5618 -0.0678 -0.2533
 9516TIP3    H250040   2.433   4.761  16.584 -0.0159  0.2525  0.2621
 9517TIP3   OH250041   5.223   6.633   2.606  0.5872 -0.0270 -0.0305
 9517TIP3    H150042   5.315   6.619   2.629  0.8026 -0.9113 -1.3464
 9517TIP3    H250043   5.182   6.661   2.688  2.0858  0.7137  0.5023
 9518TIP3   OH250044   6.078   1.530  16.645  1.0958  0.1698  0.0457
 9518TIP3    H150045   5.999   1.519  16.697  0.9904  1.0209  0.0724
 9518TIP3    H250046   6.141   1.569  16.705  1.2510  0.3205 -0.2130
 9519TIP3   OH250047   1.003   2.246   2.672 -0.0063 -0.0349 -0.3648
 9519TIP3    H150048   1.029   2.187   2.743  0.9906  1.2157  0.3578
 9519TIP3    H250049   0.911   2.225   2.655 -0.6924  0.5311  2.2340
 9520TIP3   OH250050   0.983   4.209  12.379 -0.4798 -0.0384  0.3580
 9520TIP3    H150051   0.942   4.123  12.390 -2.3668  0.8224  0.4177
 9520TIP3    H250052   1.059   4.207  12.437  0.2149 -2.0626 -0.5277
 9521TIP3   OH250053   2.704   1.267  16.841 -0.1177 -1.0032  0.0477
 9521TIP3    H150054   2.787   1.315  16.838 -0.2670 -0.7820 -0.4273
 9521TIP3    H250055   2.699   1.221  16.757 -1.2284  0.2314 -0.5909
 9522TIP3   OH250056   6.283   0.752   5.262 -0.2083 -0.2208 -0.3680
 9522TIP3    H150057   6.301   0.738   5.169 -0.8860  0.2929 -0.5858
 9522TIP3    H250058   6.304   0.844   5.278  0.3992 -0.4365  0.1116
 9523TIP3   OH250059   6.281   1.957  12.239 -0.4177 -0.6162  0.2410
 9523TIP3    H150060   6.249   2.027  12.183  1.5085  0.0583 -0.0769
 9523TIP3    H250061   6.295   1.883  12.180  1.1557 -0.0523 -0.1500
 9524TIP3   OH250062   4.958   5.522  17.123 -0.2928  0.4621 -0.0531
 9524TIP3    H150063   4.974   5.483  17.037 -0.0339 -1.0346  0.6346
 9524TIP3    H250064   5.042   5.558  17.150  0.1927 -0.9993  0.4739
 9525TIP3   OH250065   4.242   0.667   2.186  0.3698  0.4369 -0.7348
 9525TIP3    H150066   4.307   0.671   2.257  0.5566  1.9225 -0.9702
 9525TIP3    H250067   4.165   0.628   2.227  1.1127 -0.5722 -0.2357
 9526TIP3   OH250068   4.527   1.587  11.316  0.7032 -0.6994 -0.1000
 9526TIP3    H150069   4.505   1.576  11.408  0.3939 -0.4250 -0.1368
 9526TIP3    H250070   4.535   1.498  11.282  3.0251 -0.8591  0.6865
 9527TIP3   OH250071   0.174   0.163   0.149 -0.3915 -0.6433  0.6762
 9527TIP3    H150072   0.172   0.077   0.192 -1.4324 -0.0857  1.8219
 9527TIP3    H250073   0.180   0.225   0.221 -2.7249  0.3570  0.0991
 9528TIP3   OH250074   2.161   2.262   3.633 -0.3326  0.1123  0.7085
 9528TIP3    H150075   2.152   2.266   3.728  1.9583  0.0534  1.0022
 9528TIP3    H250076   2.217   2.337   3.612 -0.5297 -0.0769 -0.5584
 9529TIP3   OH250077   1.153   5.309   1.464 -0.2171 -0.5428  0.4076
 9529TIP3    H150078   1.248   5.312   1.451 -0.1929 -1.9108  0.0715
 9529TIP3    H250079   1.131   5.216   1.455 -1.7498 -0.1194 -0.6532
 9530TIP3   OH250080   5.839   4.426  16.377 -0.3696 -0.2472 -0.1271
 9530TIP3    H150081   5.873   4.421  16.287 -1.4027 -0.0817 -0.5457
 9530TIP3    H250082   5.857   4.515  16.405  0.8395 -0.5777  0.2127
 9531TIP3   OH250083   5.490   1.288   3.782 -0.4464 -0.1014  0.8322
 9531TIP3    H150084   5.547   1.339   3.725 -1.4313 -0.0570 -0.1321
 9531TIP3    H250085   5.405   1.288   3.738 -1.0057 -0.7973  1.8696
 9532TIP3   OH250086   5.536   1.133   2.308 -0.5725 -0.4980  0.0670
 9532TIP3    H150087   5.452   1.161   2.343 -1.0432 -1.9181  0.1332
 9532TIP3    H250088   5.520   1.046   2.273  0.6737 -0.4428 -0.7158
 9533TIP3   OH250089   3.167   4.483   4.962  0.0581  0.1614 -0.1025
 9533TIP3    H150090   3.241   4.465   4.903 -0.4964  0.4427 -0.8910
 9533TIP3    H250091   3.194   4.560   5.011  1.2093 -1.0018  1.1997
 9534TIP3   OH250092   1.496   2.691  14.001 -0.2399 -0.0803 -0.2419
 9534TIP3    H150093   1.582   2.699  13.960  0.4078 -0.9639  0.8783
 9534TIP3    H250094   1.451   2.772  13.979  1.1685  0.7375 -0.1961
 9535TIP3   OH250095   2.892   2.763   3.992 -0.0765  0.7663  0.3822
 9535TIP3    H150096   2.886   2.667   3.994  0.6015  0.7317  0.9074
 9535TIP3    H250097   2.844   2.792   4.070  1.5918  0.7373  1.4674
 9536TIP3   OH250098   4.320   4.332  11.691  0.0977  0.0220 -0.7051
 9536TIP3    H150099   4.394   4.378  11.652  1.7268 -0.4285  1.6409
 9536TIP3    H250100   4.329   4.242  11.661  2.1514 -0.6401  1.5265
 9537TIP3   OH250101   2.351   0.096  10.998  0.2068  0.0452  0.0585
 9537TIP3    H150102   2.408   0.028  11.036  0.6370  1.2809  1.7263
 9537TIP3    H250103   2.405   0.136  10.930 -0.2629 -1.6166 -1.3793
 9538TIP3   OH250104   4.587   2.837  15.678  0.3773 -0.1492 -0.2780
 9538TIP3    H150105   4.531   2.767  15.645  2.5300 -1.5699 -1.1807
 9538TIP3    H250106   4.675   2.812  15.649  1.4243  2.1946  0.6620
 9539TIP3   OH250107   3.301   4.960  17.211  0.5144  0.2223  0.2305
 9539TIP3    H150108   3.265   4.919  17.290  1.9547 -1.1002  0.2581
 9539TIP3    H250109   3.224   4.978  17.157 -0.3143 -1.3116  0.8191
 9540TIP3   OH250110   0.644   4.392  16.806  0.2240 -0.4412 -0.0065
 9540TIP3    H150111   0.569   4.333  16.792  0.2819 -0.4804 -0.1494
 9540TIP3    H250112   0.713   4.334  16.837  0.0051 -0.3106  0.7507
 9541TIP3   OH250113   5.279   3.956   2.630 -0.1119 -0.0756  0.6553
 9541TIP3    H150114   5.344   3.964   2.700 -0.2213 -0.0740  0.7586
 9541TIP3    H250115   5.306   3.879   2.581  0.5054  0.4754  0.1200
 9542TIP3   OH250116   1.771   0.120   1.860 -0.4501 -0.4336  0.6747
 9542TIP3    H150117   1.805   0.118   1.771 -1.5297  0.6164  0.1988
 9542TIP3    H250118   1.686   0.165   1.852 -1.4517 -1.9813  1.9542
 9543TIP3   OH250119   6.696   2.611   5.635  0.6623 -0.4179 -0.2979
 9543TIP3    H150120   6.634   2.622   5.707  1.6301  1.5005  0.3204
 9543TIP3    H250121   6.659   2.662   5.563 -1.0469 -3.4858 -1.7826
 9544TIP3   OH250122   0.057   0.112   4.145  0.1300  0.5144  0.2518
 9544TIP3    H150123   0.086   0.142   4.231 -0.3463 -0.3111  0.7136
 9544TIP3    H250124  -0.031   0.079   4.159  0.4204 -0.5737 -0.3281
 9545TIP3   OH250125   3.525   2.966  15.949  0.0040  0.5267 -0.0671
 9545TIP3    H150126   3.515   2.882  15.994  2.3739 -0.1425 -0.6696
 9545TIP3    H250127   3.484   2.953  15.864 -4.0737  1.6484  1.4800
 9546TIP3   OH250128   4.282   2.689  12.405  0.3388 -0.3229 -0.0473
 9546TIP3    H150129   4.321   2.660  12.322  0.6294 -1.0320  0.3376
 9546TIP3    H250130   4.337   2.763  12.432 -1.1684  1.5374 -1.6842
 9547TIP3   OH250131   6.701   0.603  11.123  0.4286 -0.2466  0.1487
 9547TIP3    H150132   6.668   0.537  11.184 -0.2290 -0.0977 -0.0400
 9547TIP3    H250133   6.795   0.605  11.138  0.2949 -0.3431  1.0348
 9548TIP3   OH250134   5.095   5.595   3.771 -0.4097  0.2814  0.1249
 9548TIP3    H150135   5.024   5.546   3.812  0.0400  1.2848  2.2249
 9548TIP3    H250136   5.061   5.684   3.762  0.2211  0.5369  0.2046
 9549TIP3   OH250137   3.598   0.219   4.308  0.0810 -0.2445  0.1712
 9549TIP3    H150138   3.554   0.179   4.383 -0.7653  0.5609  0.1300
 9549TIP3    H250139   3.691   0.201   4.322 -0.2691 -2.3293  0.0594
 9550TIP3   OH250140   0.400   3.823  13.438 -0.3626  0.2724  0.3897
 9550TIP3    H150141   0.478   3.846  13.388 -1.0071  2.1708  0.1396
 9550TIP3    H250142   0.399   3.728  13.442 -0.5238 -0.0407 -3.6419
 9551TIP3   OH250143   1.492   2.004  17.150 -0.5492 -0.4971 -0.1169
 9551TIP3    H150144   1.480   2.097  17.130 -2.3190 -0.8672 -1.0354
 9551TIP3    H250145   1.508   2.001  17.244  1.2690  0.8362 -0.3300
 9552TIP3   OH250146   1.802   1.131  16.410 -0.4092 -0.1511  0.3186
 9552TIP3    H150147   1.772   1.206  16.462  1.7473  0.7548  0.3549
 9552TIP3    H250148   1.722   1.081  16.392 -1.8030  1.7420  0.9280
 9553TIP3   OH250149   4.695   4.390  12.732 -0.3987  0.0316 -0.4156
 9553TIP3    H150150   4.684   4.328  12.804 -1.5804 -0.4518 -0.9837
 9553TIP3    H250151   4.692   4.335  12.653 -0.9478  0.7576 -0.9062
 9554TIP3   OH250152   1.857   1.332  12.381 -0.6631 -0.2427 -0.4996
 9554TIP3    H150153   1.921   1.261  12.390  2.1381  2.3035  1.5636
 9554TIP3    H250154   1.872   1.366  12.293  1.0670  0.4661  0.0374
 9555TIP3   OH250155   1.080   2.846   0.361  0.1165  0.2667  0.2179
 9555TIP3    H150156   1.038   2.925   0.327 -1.1638 -0.9789 -1.2824
 9555TIP3    H250157   1.138   2.877   0.431  0.1346  2.5713 -0.7380
 9556TIP3   OH250158   0.547   1.466   4.601  0.0171 -0.3805 -0.3982
 9556TIP3    H150159   0.512   1.451   4.513 -0.2391  1.2505 -0.5935
 9556TIP3    H250160   0.549   1.378   4.641 -2.4222 -0.8148 -1.0682
 9557TIP3   OH250161   0.599   5.720  14.705  0.0861 -0.1062 -0.4595
 9557TIP3    H150162   0.532   5.787  14.695  2.1854  2.2835  0.5006
 9557TIP3    H250163   0.602   5.676  14.620 -1.6416  0.6897 -0.9743
 9558TIP3   OH250164   4.304   4.145   2.269  0.3792  0.0132  0.0523
 9558TIP3    H150165   4.349   4.129   2.352 -0.0242 -0.2304  0.2311
 9558TIP3    H250166   4.299   4.059   2.228  1.2165  0.2489 -0.5664
 9559TIP3   OH250167   2.840   1.475   1.872 -0.4904  0.4404  0.3379
 9559TIP3    H150168   2.875   1.431   1.794 -1.0712 -0.0473  0.3368
 9559TIP3    H250169   2.751   1.499   1.847 -0.5212  0.6959  0.6950
 9560TIP3   OH250170   3.396   1.969  15.444 -0.0579  0.0391  0.3015
 9560TIP3    H150171   3.385   2.058  15.479  0.0763 -0.4495  1.6532
 9560TIP3    H250172   3.332   1.916  15.493 -0.0566 -0.6403 -0.4045
 9561TIP3   OH250173   0.094   6.600   1.700 -0.0783  0.2181  0.4377
 9561TIP3    H150174   0.083   6.676   1.756 -1.0057  0.6339 -0.2896
 9561TIP3    H250175   0.005   6.571   1.680  0.2323  0.0303 -0.7447
 9562TIP3   OH250176   2.451   4.983  11.036 -0.4584 -0.5120 -0.0105
 9562TIP3    H150177   2.513   5.048  11.004  1.1014 -2.1790 -0.5474
 9562TIP3    H250178   2.367   5.008  10.996 -0.1407  1.6100  0.4901
 9563TIP3   OH250179   2.696   5.879  12.807 -0.5401  0.2515  0.0571
 9563TIP3    H150180   2.656   5.792  12.809  0.7201 -0.3721 -0.7006
 9563TIP3    H250181   2.721   5.892  12.716 -0.4763  1.3001  0.2122
 9564TIP3   OH250182   5.405   1.224  17.142 -0.4136 -0.0397  0.2538
 9564TIP3    H150183   5.402   1.131  17.166 -0.7568  0.1331  0.8884
 9564TIP3    H250184   5.353   1.229  17.061 -1.6855 -0.1663  1.0339
 9565TIP3   OH250185   3.628   2.429  12.574 -0.1080  0.3969 -0.4684
 9565TIP3    H150186   3.723   2.423  12.569  0.2725  1.1339  3.2030
 9565TIP3    H250187   3.605   2.502  12.517  1.9733  2.3827  1.0811
 9566TIP3   OH250188   5.629   3.013  16.947  0.3404  0.7862  0.5039
 9566TIP3    H150189   5.607   2.925  16.917  0.5169  1.0615 -0.4629
 9566TIP3    H250190   5.570   3.029  17.021 -1.8018  0.9874 -1.1566
 9567TIP3   OH250191   6.516   3.065   2.634  0.2461 -0.5175  0.2249
 9567TIP3    H150192   6.595   3.114   2.656  1.2153 -1.6800 -0.5920
 9567TIP3    H250193   6.448   3.132   2.626  1.4538  0.6669 -0.4995
 9568TIP3   OH250194   3.983   4.389   5.740  0.3359 -0.0975 -0.7298
 9568TIP3    H150195   4.007   4.352   5.655  0.6599 -1.6338  0.0018
 9568TIP3    H250196   4.035   4.340   5.803  1.0747  1.8821  0.2942
 9569TIP3   OH250197   5.872   6.061   5.969  0.4880  0.0196  0.2480
 9569TIP3    H150198   5.844   6.037   6.057 -2.7094 -0.8231 -0.8646
 9569TIP3    H250199   5.837   6.149   5.955 -0.3485 -0.4421 -0.6626
 9570TIP3   OH250200   4.233   2.999  14.352 -0.1958 -0.5479 -0.3286
 9570TIP3    H150201   4.173   3.017  14.280  0.8162  2.5466 -0.5140
 9570TIP3    H250202   4.314   3.043  14.327  0.6497 -0.6485  2.0381
 9571TIP3   OH250203   6.354   1.870   5.979 -0.5281 -0.6120 -0.4285
 9571TIP3    H150204   6.349   1.965   5.982 -2.2360 -0.6910  0.5210
 9571TIP3    H250205   6.418   1.848   6.047  1.6048 -0.1198 -2.1466
 9572TIP3   OH250206   5.640   6.532  17.102 -0.8944 -0.2389 -0.4004
 9572TIP3    H150207   5.612   6.454  17.056 -0.3150 -1.7255  1.6152
 9572TIP3    H250208   5.720   6.560  17.057 -1.1268 -0.7745 -1.1580
 9573TIP3   OH250209   2.753   0.674   1.318  0.9688  0.5184  0.4118
 9573TIP3    H150210   2.821   0.627   1.271  0.3342  0.1682 -0.1753
 9573TIP3    H250211   2.748   0.631   1.403 -1.2880 -2.2001 -0.9333
 9574TIP3   OH250212   0.839   0.859   0.240  0.7540 -0.7658  0.5068
 9574TIP3    H150213   0.876   0.906   0.315 -0.7553  0.2508  0.6614
 9574TIP3    H250214   0.744   0.868   0.251  0.4802 -1.9117 -0.7167
 9575TIP3   OH250215   6.475   0.691   2.464  0.0378 -0.0701 -0.1202
 9575TIP3    H150216   6.388   0.670   2.428  0.3113 -0.7440 -0.3966
 9575TIP3    H250217   6.511   0.755   2.403 -0.2148  0.1185 -0.0732
 9576TIP3   OH250218   0.305   2.180  13.359  0.0974 -0.4983 -0.1634
 9576TIP3    H150219   0.332   2.145  13.443 -0.2381  2.0473  1.1086
 9576TIP3    H250220   0.387   2.200  13.313  0.3529  0.7245  0.7769
 9577TIP3   OH250221   2.256   5.431   5.992 -0.1413  0.2760  0.3240
 9577TIP3    H150222   2.283   5.516   5.958  3.3795 -1.3866 -1.7267
 9577TIP3    H250223   2.306   5.422   6.073 -0.1555  0.0400  0.3063
 9578TIP3   OH250224   2.294   6.172   6.010 -0.4765 -0.9052 -0.0259
 9578TIP3    H150225   2.301   6.250   6.064 -0.2584 -0.4098 -0.7443
 9578TIP3    H250226   2.239   6.199   5.936  1.8877 -0.5445 -1.7789
 9579TIP3   OH250227   2.627   1.044  15.241  0.2111 -0.1387 -0.0738
 9579TIP3    H150228   2.608   0.950  15.234  0.1676 -0.2208  1.0264
 9579TIP3    H250229   2.717   1.052  15.210  0.1656 -0.5190 -0.3143
 9580TIP3   OH250230   5.616   6.278   3.841 -0.6940  0.0509 -0.3759
 9580TIP3    H150231   5.550   6.344   3.861 -1.0357 -0.4331  0.1304
 9580TIP3    H250232   5.569   6.214   3.787 -0.3190  0.3024 -1.0179
 9581TIP3   OH250233   2.233   6.333   4.096 -0.7171  0.5394 -0.3643
 9581TIP3    H150234   2.244   6.336   4.001  1.3858 -3.5735 -0.5027
 9581TIP3    H250235   2.145   6.297   4.110 -0.6121  0.0979 -0.8294
 9582TIP3   OH250236   5.190   1.525   0.206  0.2669 -0.0254  0.2195
 9582TIP3    H150237   5.112   1.473   0.185  0.5069 -0.1765 -0.3023
 9582TIP3    H250238   5.165   1.615   0.183  0.1267 -0.0232  0.3781
 9583TIP3   OH250239   1.051   1.818   2.193 -0.5640  0.1873  0.1151
 9583TIP3    H150240   1.008   1.900   2.168 -1.8114  0.3841  2.6136
 9583TIP3    H250241   0.979   1.759   2.214  0.3550 -1.0520 -0.1493
 9584TIP3   OH250242   0.638   1.923  13.076 -0.1860 -0.3847  0.0557
 9584TIP3    H150243   0.574   1.863  13.040 -1.0219 -0.0486  0.9532
 9584TIP3    H250244   0.611   1.937  13.166  1.0119 -0.0444  0.3866
 9585TIP3   OH250245   6.607   2.471   4.381  0.1068 -0.2207 -0.2206
 9585TIP3    H150246   6.512   2.463   4.371 -0.2281  0.6555  1.8126
 9585TIP3    H250247   6.638   2.502   4.295 -1.6136  0.8323 -0.5053
 9586TIP3   OH250248   1.706   4.092   1.108 -0.8324  0.0121 -0.4235
 9586TIP3    H150249   1.714   4.062   1.018 -0.1251 -0.4193 -0.2253
 9586TIP3    H250250   1.796   4.111   1.135 -1.2125  1.9350 -0.4063
 9587TIP3   OH250251   0.000   5.989   6.958  0.2639 -0.0650  0.7683
 9587TIP3    H150252   0.092   5.971   6.980  0.6221  1.4226  0.5502
 9587TIP3    H250253   0.004   6.047   6.883 -0.8891 -0.4247  0.4092
 9588TIP3   OH250254   0.555   3.814   4.788 -0.1128 -0.1836 -0.0550
 9588TIP3    H150255   0.485   3.832   4.851  0.3879  0.4576  0.3366
 9588TIP3    H250256   0.636   3.824   4.839  0.4227  2.7671 -1.2922
 9589TIP3   OH250257   4.103   5.828  12.584  0.1802  0.2011  0.1107
 9589TIP3    H150258   4.080   5.883  12.659  1.6462  2.2095 -0.8109
 9589TIP3    H250259   4.184   5.784  12.611 -0.0678 -0.1788  0.2318
 9590TIP3   OH250260   3.548   1.398  16.091 -0.4156  0.2476 -0.3618
 9590TIP3    H150261   3.555   1.303  16.102  0.3695  0.3569  0.1058
 9590TIP3    H250262   3.627   1.433  16.131 -2.3845  1.3465  2.9168
 9591TIP3   OH250263   0.078   2.200  14.096 -0.2695 -0.1891 -0.1600
 9591TIP3    H150264   0.094   2.118  14.143  3.2584 -0.3596 -1.3803
 9591TIP3    H250265   0.025   2.175  14.021  0.6365 -1.3758 -0.4316
 9592TIP3   OH250266   1.461   1.125  14.762 -0.3588 -0.9029 -0.2962
 9592TIP3    H150267   1.431   1.035  14.746  1.1356 -1.0177 -2.9999
 9592TIP3    H250268   1.556   1.120  14.753 -0.2355  0.9076 -0.2211
 9593TIP3   OH250269   6.071   3.123   5.249  0.2472  0.7281  0.5748
 9593TIP3    H150270   6.058   3.029   5.236  0.8266  0.5161  1.4344
 9593TIP3    H250271   6.093   3.131   5.342 -0.3157  1.7778  0.6254
 9594TIP3   OH250272   4.515   1.507  12.387 -0.2828  0.0482 -0.9209
 9594TIP3    H150273   4.503   1.443  12.317  0.1413  0.6300 -1.5506
 9594TIP3    H250274   4.607   1.499  12.411 -0.6324 -0.7670  0.2129
 9595TIP3   OH250275   3.687   2.545   4.927  0.1066 -0.7647  1.0539
 9595TIP3    H150276   3.618   2.563   4.863  1.3276 -0.1044 -0.1446
 9595TIP3    H250277   3.698   2.628   4.974  1.7164 -0.0502 -0.4544
 9596TIP3   OH250278   1.564   5.829  13.125 -0.5465 -0.3190 -1.0515
 9596TIP3    H150279   1.578   5.917  13.090  1.3235  0.0117  0.3470
 9596TIP3    H250280   1.556   5.773  13.048 -0.8363  0.9368 -1.9679
 9597TIP3   OH250281   0.393   4.429   6.389 -0.3583  0.1904  0.8204
 9597TIP3    H150282   0.338   4.486   6.335  0.5069  0.1930 -0.0776
 9597TIP3    H250283   0.482   4.445   6.358  0.0905 -0.2860  1.8247
 9598TIP3   OH250284   3.551   2.102   0.004 -0.2311 -0.2995  0.2255
 9598TIP3    H150285   3.502   2.074  -0.074  0.1753  0.7178 -0.4130
 9598TIP3    H250286   3.584   2.020   0.042  2.0615 -0.7460 -2.3380
 9599TIP3   OH250287   3.295   6.731  14.868 -0.2108  0.5159  0.2950
 9599TIP3    H150288   3.326   6.746  14.957  0.5465 -2.0188  0.5293
 9599TIP3    H250289   3.365   6.764  14.812  0.5279 -0.3072  0.7181
 9600TIP3   OH250290   0.377   3.998  14.325 -0.3947 -0.4934  0.0200
 9600TIP3    H150291   0.327   4.041  14.255 -0.1772 -0.6035 -0.2040
 9600TIP3    H250292   0.429   4.069  14.364  0.0205 -0.5609 -0.3995
 9601TIP3   OH250293   4.586   4.068  16.502 -0.1864  0.5824  0.2741
 9601TIP3    H150294   4.544   4.131  16.444  0.6756  0.5808 -0.3590
 9601TIP3    H250295   4.592   4.114  16.586 -1.8805  0.4058  0.5186
 9602TIP3   OH250296   3.748   1.074   2.906 -0.0117  0.0436 -0.2262
 9602TIP3    H150297   3.825   1.033   2.866  1.2577  0.8674  1.2508
 9602TIP3    H250298   3.727   1.147   2.847  0.2766 -0.2375 -0.6896
 9603TIP3   OH250299   2.069   1.419   2.265  0.3430 -0.2269  0.0479
 9603TIP3    H150300   2.156   1.446   2.236  0.6144  1.0510  1.8743
 9603TIP3    H250301   2.084   1.376   2.349 -0.8208  0.3787  0.5879
 9604TIP3   OH250302   2.998   5.788  16.933  0.7042 -0.0192  0.4692
 9604TIP3    H150303   2.949   5.851  16.880  2.9804  1.1582 -0.3683
 9604TIP3    H250304   2.931   5.737  16.978 -1.2834  0.7366 -1.4651
 9605TIP3   OH250305   1.439   5.025   1.140 -0.0837 -0.1747  0.1790
 9605TIP3    H150306   1.441   5.118   1.119  2.3506 -0.2295 -0.1785
 9605TIP3    H250307   1.467   5.020   1.231  0.9757 -0.5802 -0.1480
 9606TIP3   OH250308   0.229   1.723  11.474  0.0648  0.2215 -0.0553
 9606TIP3    H150309   0.240   1.695  11.565  1.6675  1.2514  0.1094
 9606TIP3    H250310   0.135   1.721  11.459 -0.1755 -0.6508  1.3936
 9607TIP3   OH250311   0.209   4.774   0.584 -0.5287 -0.0996 -0.3447
 9607TIP3    H150312   0.256   4.752   0.504  1.4103 -0.8785  0.9233
 9607TIP3    H250313   0.263   4.737   0.654 -0.9321  2.4579  1.4763
 9608TIP3   OH250314   1.834   4.706  13.078  0.0558  0.8736  0.0897
 9608TIP3    H150315   1.856   4.615  13.097  0.8485  0.6970 -1.5274
 9608TIP3    H250316   1.738   4.707  13.076  0.0316  0.1953  0.6373
 9609TIP3   OH250317   0.699   6.446   0.735  0.0081  0.2444 -0.5915
 9609TIP3    H150318   0.736   6.383   0.673 -0.0580  0.4989 -0.8874
 9609TIP3    H250319   0.653   6.510   0.681 -1.2612 -0.3147 -0.2063
 9610TIP3   OH250320   4.525   2.382  14.528  0.6164  0.3055  0.2455
 9610TIP3    H150321   4.459   2.402  14.595 -0.0110  0.8493 -0.5129
 9610TIP3    H250322   4.522   2.287  14.518 -0.0122  0.3173  0.2692
 9611TIP3   OH250323   6.055   5.671   2.854  0.3910  0.4368  0.1380
 9611TIP3    H150324   5.964   5.672   2.883  0.1687  0.2729 -0.5556
 9611TIP3    H250325   6.061   5.597   2.795  1.0589  0.2478  0.4301
 9612TIP3   OH250326   2.538   4.807   4.193  0.1998 -0.2689  0.0410
 9612TIP3    H150327   2.540   4.892   4.237 -0.6455  0.6668 -1.6280
 9612TIP3    H250328   2.484   4.822   4.116  2.4961 -1.5157 -1.9272
 9613TIP3   OH250329   1.613   5.187  11.631  0.5663 -0.4851  0.3409
 9613TIP3    H150330   1.652   5.144  11.707 -1.5771 -0.0667  1.7883
 9613TIP3    H250331   1.592   5.117  11.571  0.8283 -1.0064  0.8486
 9614TIP3   OH250332   3.115   3.504   5.408  0.0404  0.0918  1.1809
 9614TIP3    H150333   3.045   3.456   5.362  2.0688 -0.9911 -0.9956
 9614TIP3    H250334   3.114   3.591   5.369 -0.2063  0.1452  1.3028
 9615TIP3   OH250335   3.798   3.708  16.390  0.1939  0.0774  0.4523
 9615TIP3    H150336   3.873   3.666  16.348  0.8463  0.7018  0.9755
 9615TIP3    H250337   3.796   3.797  16.352 -1.4894 -0.5203 -1.0509
 9616TIP3   OH250338   4.315   6.732  13.839 -0.3806  0.3305  0.3944
 9616TIP3    H150339   4.291   6.816  13.878 -0.3808  0.9075 -0.8050
 9616TIP3    H250340   4.237   6.704  13.791 -0.7402 -0.8852  1.6335
 9617TIP3   OH250341   0.872   3.310   4.840  0.3388  0.1507  0.0560
 9617TIP3    H150342   0.920   3.230   4.862 -0.4413 -0.1219  0.8590
 9617TIP3    H250343   0.804   3.281   4.779 -1.1527 -0.2173  1.7720
 9618TIP3   OH250344   5.928   0.807  17.208 -0.3811 -0.4661  0.2892
 9618TIP3    H150345   5.943   0.724  17.254  3.0493 -2.4065 -3.6681
 9618TIP3    H250346   5.846   0.793  17.161 -1.0023 -0.6572  1.3948
 9619TIP3   OH250347   6.168   5.409  14.496 -0.3984 -0.1123 -0.5561
 9619TIP3    H150348   6.074   5.406  14.514 -1.0028  1.4025 -2.9523
 9619TIP3    H250349   6.207   5.442  14.576 -1.6990 -1.9784  0.9357
 9620TIP3   OH250350   5.599   0.362   0.297 -0.6881 -0.2000 -0.3702
 9620TIP3    H150351   5.525   0.393   0.350  0.0649  0.8460  0.0877
 9620TIP3    H250352   5.662   0.329   0.360  0.3926  1.4376 -0.5406
 9621TIP3   OH250353   3.662   4.035   2.240 -0.3230  0.2760 -0.0261
 9621TIP3    H150354   3.700   3.954   2.205  1.6859  0.8693  0.6534
 9621TIP3    H250355   3.687   4.035   2.332 -0.3854  1.6270  0.0092
 9622TIP3   OH250356   3.227   6.580  16.877 -0.0430  0.2633 -0.2751
 9622TIP3    H150357   3.294   6.646  16.892  0.7093 -0.3462 -0.8217
 9622TIP3    H250358   3.270   6.515  16.820 -0.6591 -0.8351  0.4722
 9623TIP3   OH250359   4.070   5.486  16.961 -0.3249  0.0642  0.0841
 9623TIP3    H150360   4.002   5.422  16.984  0.5422 -1.2230 -0.8338
 9623TIP3    H250361   4.133   5.481  17.032 -0.1221 -0.3126 -0.1185
 9624TIP3   OH250362   2.721   4.445  12.939 -0.1097  0.4894  0.6225
 9624TIP3    H150363   2.788   4.394  12.984  0.9952  1.0210 -0.3837
 9624TIP3    H250364   2.699   4.393  12.862  1.9068  2.0026 -1.0761
 9625TIP3   OH250365   3.145   4.107  12.268  0.4379  0.7946  0.3365
 9625TIP3    H150366   3.172   4.043  12.203 -0.4961 -0.7496  1.4054
 9625TIP3    H250367   3.113   4.055  12.342 -0.1754  2.4897  1.3344
 9626TIP3   OH250368   6.191   1.321  16.890 -0.3666  0.3823  0.1695
 9626TIP3    H150369   6.246   1.258  16.843 -1.3131  1.0138 -1.9167
 9626TIP3    H250370   6.109   1.274  16.906 -0.0016  0.1271  1.3596
 9627TIP3   OH250371   5.069   2.183   1.405  0.0446  0.3184 -0.2437
 9627TIP3    H150372   5.006   2.213   1.340  1.4199 -1.0723 -2.3574
 9627TIP3    H250373   5.050   2.090   1.416  2.0039 -0.2900 -1.4008
 9628TIP3   OH250374   0.538   4.637   1.335 -0.2769  0.0940 -0.0039
 9628TIP3    H150375   0.573   4.613   1.420 -0.6511 -0.0325  0.1168
 9628TIP3    H250376   0.446   4.657   1.352 -1.3159 -3.2251 -0.8909
 9629TIP3   OH250377   6.661   5.009   3.118  0.0206 -1.4656  0.4124
 9629TIP3    H150378   6.603   4.933   3.117 -1.0153 -0.8219  2.9908
 9629TIP3    H250379   6.674   5.028   3.211  2.0574  0.1777 -0.1340
 9630TIP3   OH250380   6.557   4.951   2.046 -0.0328 -0.4163 -0.3645
 9630TIP3    H150381   6.554   4.861   2.079  0.1040 -0.5248 -0.6386
 9630TIP3    H250382   6.471   4.965   2.007 -0.4079 -0.0744  0.5760
 9631TIP3   OH250383   1.547   0.058   2.039 -0.1545 -0.2365  0.2003
 9631TIP3    H150384   1.593   0.125   2.090 -2.9928  1.3421  0.8852
 9631TIP3    H250385   1.596  -0.023   2.058  0.8674  0.8607  2.8510
 9632TIP3   OH250386   0.048   4.705  16.652 -0.6645  0.4329 -0.1886
 9632TIP3    H150387   0.065   4.672  16.563 -0.2558  1.9991 -0.7225
 9632TIP3    H250388  -0.041   4.674  16.671 -0.4813 -0.5610 -0.8314
 9633TIP3   OH250389   3.833   3.235   5.035 -0.0021  0.0975 -0.2593
 9633TIP3    H150390   3.762   3.173   5.020 -0.5593  0.3299  1.2558
 9633TIP3    H250391   3.861   3.218   5.124  2.3172 -0.4285 -1.0124
 9634TIP3   OH250392   5.524   3.120   1.348  0.0107 -0.2432 -0.0165
 9634TIP3    H150393   5.511   3.045   1.290  0.1134  0.4818 -1.0011
 9634TIP3    H250394   5.441   3.167   1.346  0.7110  1.0307 -1.4303
 9635TIP3   OH250395   4.378   5.039   2.283  0.2972 -0.4080 -0.0014
 9635TIP3    H150396   4.459   5.002   2.247 -0.0873 -1.6509  0.3616
 9635TIP3    H250397   4.391   5.033   2.378 -0.2265 -0.6453  0.0564
 9636TIP3   OH250398   3.031   2.202  13.059  0.2243 -0.5721  0.6471
 9636TIP3    H150399   2.988   2.152  13.129  2.6178 -1.0345  1.9167
 9636TIP3    H250400   3.120   2.165  13.055  0.3933 -0.0710 -2.1934
 9637TIP3   OH250401   0.855   3.167   2.526  0.0108  0.0409 -0.2998
 9637TIP3    H150402   0.851   3.135   2.436 -0.7661 -0.2534 -0.1708
 9637TIP3    H250403   0.868   3.261   2.518  0.0930 -0.0049 -0.7146
 9638TIP3   OH250404   6.672   0.976   1.103  0.2142  0.4478 -0.4880
 9638TIP3    H150405   6.587   0.999   1.140  0.3297  0.1084  0.0052
 9638TIP3    H250406   6.724   0.947   1.178  0.2178 -0.9482 -0.9948
 9639TIP3   OH250407   2.136   4.059   4.922  0.0215 -0.6938  0.2191
 9639TIP3    H150408   2.061   4.045   4.979 -0.3034 -1.1821 -0.3142
 9639TIP3    H250409   2.117   4.007   4.844  0.9886 -0.9619  0.1439
 9640TIP3   OH250410   5.298   1.760   3.701 -0.1075 -0.0620 -0.3632
 9640TIP3    H150411   5.292   1.826   3.769  0.8908  0.5330 -0.8295
 9640TIP3    H250412   5.390   1.734   3.701  0.0170  0.3070 -1.8010
 9641TIP3   OH250413   1.499   1.626  15.610 -0.3133  0.1370 -0.5456
 9641TIP3    H150414   1.561   1.625  15.683  2.7088  0.5972 -2.8638
 9641TIP3    H250415   1.478   1.534  15.594  0.9515 -0.1669 -0.5671
 9642TIP3   OH250416   5.063   5.544   6.771 -1.1485  0.0231  0.2027
 9642TIP3    H150417   5.047   5.505   6.685 -0.6866  0.0505  0.1011
 9642TIP3    H250418   5.067   5.469   6.831 -2.0012  0.0369  0.2959
 9643TIP3   OH250419   4.140   2.439   0.968 -0.7217  0.2039 -0.0882
 9643TIP3    H150420   4.103   2.527   0.958 -0.3949  0.2282 -1.1378
 9643TIP3    H250421   4.159   2.410   0.879  0.3694 -0.4210  0.3258
 9644TIP3   OH250422   3.883   5.128   0.491 -0.3214 -0.2142 -0.1351
 9644TIP3    H150423   3.978   5.122   0.499 -0.3123 -2.4674 -1.1526
 9644TIP3    H250424   3.852   5.151   0.579  1.2037  2.3305 -0.1646
 9645TIP3   OH250425   3.796   5.303  13.394  0.1380  0.6863  0.7511
 9645TIP3    H150426   3.765   5.257  13.472 -0.2019  0.7914  0.6792
 9645TIP3    H250427   3.778   5.395  13.412 -2.5666  0.5057 -0.5982
 9646TIP3   OH250428   1.549   2.683   2.979  0.1611 -0.6378 -0.2257
 9646TIP3    H150429   1.478   2.746   2.990  0.8557  0.0802  0.2897
 9646TIP3    H250430   1.531   2.615   3.044  0.4906  0.0643  0.6145
 9647TIP3   OH250431   6.590   5.044   6.121 -0.7806  0.0359 -0.2482
 9647TIP3    H150432   6.574   4.997   6.203  0.6035  0.6083  0.3842
 9647TIP3    H250433   6.618   5.132   6.149  0.6909 -0.0630 -1.2961
 9648TIP3   OH250434   2.156   1.807  16.135  0.0817 -0.2887 -0.3701
 9648TIP3    H150435   2.226   1.808  16.201 -1.1230 -2.8110  1.0597
 9648TIP3    H250436   2.180   1.735  16.076 -2.0426 -2.3659  1.1334
 9649TIP3   OH250437   2.030   2.166   5.920  0.5204  0.3336  0.3070
 9649TIP3    H150438   2.120   2.175   5.889  1.2116 -2.3835  1.2358
 9649TIP3    H250439   2.035   2.185   6.014  0.4808 -1.1692  0.6502
 9650TIP3   OH250440   4.130   4.357   3.028 -0.2173  0.1111  0.2764
 9650TIP3    H150441   4.111   4.389   3.117 -0.5405 -3.1413  1.4942
 9650TIP3    H250442   4.092   4.424   2.971  0.2341  2.4644  2.5350
 9651TIP3   OH250443   5.885   1.375  12.301 -0.4059  0.1591  0.5399
 9651TIP3    H150444   5.874   1.468  12.322  0.0778  0.8930 -2.0772
 9651TIP3    H250445   5.961   1.347  12.353 -0.1761  1.3989  0.9021
 9652TIP3   OH250446   3.311   5.139   2.274 -0.1157 -0.1490  0.0867
 9652TIP3    H150447   3.403   5.117   2.258 -0.0151 -0.7297  1.2803
 9652TIP3    H250448   3.302   5.131   2.369 -1.0870  1.1637  0.1315
 9653TIP3   OH250449   0.567   4.075   3.404  0.5162 -0.4555  0.1320
 9653TIP3    H150450   0.547   4.146   3.465  1.6574 -0.5680  0.6669
 9653TIP3    H250451   0.634   4.112   3.346 -0.5265 -0.3582 -1.0621
 9654TIP3   OH250452   0.320   6.181   4.273 -0.6260  0.5086  0.1424
 9654TIP3    H150453   0.400   6.155   4.228 -1.4272  0.2995 -1.1898
 9654TIP3    H250454   0.253   6.184   4.205 -1.7282  0.8442  1.2007
 9655TIP3   OH250455   0.406   3.804   2.093 -0.0585  0.4357 -0.3707
 9655TIP3    H150456   0.465   3.815   2.018 -1.7581 -2.0524 -2.2483
 9655TIP3    H250457   0.333   3.863   2.073  1.1497  2.7284  1.4325
 9656TIP3   OH250458   0.484   5.246  11.804  0.0090 -0.5158  0.1471
 9656TIP3    H150459   0.436   5.178  11.852 -0.2679 -0.7048 -0.3914
 9656TIP3    H250460   0.473   5.223  11.712  1.8429 -1.0351  0.0239
 9657TIP3   OH250461   4.090   3.642   4.915  0.1047 -0.1666 -0.1386
 9657TIP3    H150462   4.034   3.621   4.989  0.2654  0.4580  0.1663
 9657TIP3    H250463   4.104   3.558   4.870 -0.7708 -0.3791 -0.0163
 9658TIP3   OH250464   4.085   5.332  14.451 -0.1569  0.0095  0.1491
 9658TIP3    H150465   4.147   5.404  14.448 -0.7505  0.4991 -0.6121
 9658TIP3    H250466   4.001   5.370  14.425 -0.5495 -0.8847  0.0394
 9659TIP3   OH250467   4.252   4.386  12.945  0.0047 -0.2525 -0.0468
 9659TIP3    H150468   4.156   4.384  12.949 -0.0031  0.6204  0.6113
 9659TIP3    H250469   4.273   4.353  12.858 -0.8413 -1.5886  0.2328
 9660TIP3   OH250470   1.945   6.563  12.227  0.1610 -0.0763  0.0261
 9660TIP3    H150471   2.040   6.555  12.219  0.3961  1.2201  1.0558
 9660TIP3    H250472   1.929   6.658  12.225 -1.0914 -0.2699  0.0698
 9661TIP3   OH250473   0.486   6.303  13.235  0.2602  0.0882  0.0848
 9661TIP3    H150474   0.422   6.372  13.254  0.2657  0.9110 -2.4605
 9661TIP3    H250475   0.433   6.230  13.202  0.4898  0.3270 -0.8626
 9662TIP3   OH250476   2.152   4.482   1.776 -0.3085  0.0704  0.0146
 9662TIP3    H150477   2.224   4.544   1.762  0.2515 -0.5917 -0.1325
 9662TIP3    H250478   2.129   4.492   1.868  0.4130 -0.1553  0.2310
 9663TIP3   OH250479   1.065   4.129  14.028  0.1096 -0.7100 -0.5614
 9663TIP3    H150480   1.066   4.141  14.123  0.3673 -1.8610 -0.4021
 9663TIP3    H250481   1.005   4.056  14.013  0.2698 -0.7082 -1.2545
 9664TIP3   OH250482   5.318   6.407  13.394 -0.0387  0.1837  0.4810
 9664TIP3    H150483   5.249   6.473  13.403 -1.1247 -0.6587 -1.1939
 9664TIP3    H250484   5.350   6.418  13.305  0.3430 -0.9990  0.4546
 9665TIP3   OH250485   6.621   6.211   5.176  0.0651  0.0328 -0.3015
 9665TIP3    H150486   6.676   6.235   5.101 -0.0655  0.3735 -0.2883
 9665TIP3    H250487   6.537   6.189   5.136  0.1195 -0.2008 -0.2918
 9666TIP3   OH250488   1.430   0.996   2.207 -0.1646  0.2531 -0.3771
 9666TIP3    H150489   1.418   1.038   2.122  0.2034  1.8586  0.3055
 9666TIP3    H250490   1.485   0.920   2.189  0.7820  1.1509 -1.4596
 9667TIP3   OH250491   1.796   0.955   0.999 -0.3975 -0.7862 -0.3145
 9667TIP3    H150492   1.797   1.046   0.968  1.1096 -1.2200 -1.7345
 9667TIP3    H250493   1.707   0.941   1.031 -1.2907  0.5819 -1.9878
 9668TIP3   OH250494   2.594   2.794  11.922 -0.0852 -0.3626  0.1810
 9668TIP3    H150495   2.537   2.718  11.919 -0.8139  0.1402  0.8775
 9668TIP3    H250496   2.641   2.785  12.005  0.3397 -0.4073 -0.0607
 9669TIP3   OH250497   4.106   0.311  17.102 -0.1448  0.3373  0.2717
 9669TIP3    H150498   4.043   0.252  17.059 -0.2288  0.4915  0.1841
 9669TIP3    H250499   4.176   0.253  17.132 -0.1481  0.2116  0.0389
 9670TIP3   OH250500   4.594   6.273  12.830 -0.1932 -0.0052 -0.1216
 9670TIP3    H150501   4.671   6.255  12.883 -0.1178  0.6877  0.0139
 9670TIP3    H250502   4.619   6.246  12.741 -1.1865 -3.6633  0.5165
 9671TIP3   OH250503   5.256   0.544   6.506  0.1684  0.1680  0.2565
 9671TIP3    H150504   5.319   0.605   6.465 -0.3741 -0.8411 -2.3102
 9671TIP3    H250505   5.171   0.583   6.488 -0.0584  0.1328  1.2519
 9672TIP3   OH250506   6.394   4.332  13.372  0.2189  0.0174 -0.3512
 9672TIP3    H150507   6.403   4.348  13.466  2.0746 -0.3527 -0.4278
 9672TIP3    H250508   6.369   4.417  13.336 -0.8843  0.0746  0.5114
 9673TIP3   OH250509   5.166   3.939   4.892  0.0802  0.0715 -0.3131
 9673TIP3    H150510   5.238   3.927   4.831 -0.2337  3.2233 -1.4713
 9673TIP3    H250511   5.153   3.853   4.932  2.7441 -1.1835 -1.9476
 9674TIP3   OH250512   2.466   4.953  15.507 -0.6882 -0.3959 -0.1585
 9674TIP3    H150513   2.458   5.044  15.481 -1.3533 -0.0760  1.1112
 9674TIP3    H250514   2.526   4.954  15.581  1.2217 -1.2990 -1.6064
 9675TIP3   OH250515   0.246   0.613  16.850 -0.4989 -0.7224 -0.0443
 9675TIP3    H150516   0.183   0.641  16.783 -0.8458 -0.9633  0.1801
 9675TIP3    H250517   0.324   0.589  16.800 -0.3363  0.2389 -0.2763
 9676TIP3   OH250518   2.675   6.214   1.745 -0.1169 -0.3536 -0.3949
 9676TIP3    H150519   2.599   6.272   1.738 -0.2621 -0.4084  0.6377
 9676TIP3    H250520   2.739   6.263   1.795 -0.0005 -0.8335 -0.0637
 9677TIP3   OH250521   0.137   0.421  13.707  0.6744 -0.1450  0.6196
 9677TIP3    H150522   0.092   0.505  13.717  0.3026 -0.1907 -0.4840
 9677TIP3    H250523   0.185   0.430  13.624 -1.2310 -1.8179 -0.7614
 9678TIP3   OH250524   3.754   3.085   4.274 -0.2400  0.2480  0.4878
 9678TIP3    H150525   3.759   3.006   4.221 -0.6718 -0.4247  1.4256
 9678TIP3    H250526   3.846   3.109   4.291 -0.0866 -0.8706  1.3649
 9679TIP3   OH250527   2.568   4.043  14.892  0.0340  0.2661  1.0086
 9679TIP3    H150528   2.660   4.067  14.881 -0.2260  0.4048 -1.5582
 9679TIP3    H250529   2.569   3.952  14.922  1.0871 -0.6208 -1.4690
 9680TIP3   OH250530   2.468   2.943   1.056 -0.3677 -0.2327 -0.2259
 9680TIP3    H150531   2.531   2.996   1.007 -0.1422  0.5672  0.8848
 9680TIP3    H250532   2.515   2.919   1.137 -1.7203  1.0608  1.0043
 9681TIP3   OH250533   5.455   2.517  10.826  0.1229 -0.3849 -0.7831
 9681TIP3    H150534   5.472   2.449  10.892  0.9622  0.6371  0.0806
 9681TIP3    H250535   5.538   2.565  10.819  0.4182 -1.1229 -3.4006
 9682TIP3   OH250536   4.215   3.796   0.205 -0.2388 -0.0633 -0.2051
 9682TIP3    H150537   4.254   3.719   0.247  1.7592  0.5803 -0.7645
 9682TIP3    H250538   4.290   3.849   0.177 -1.5466  1.4729 -0.9869
 9683TIP3   OH250539   1.945   6.738  13.696 -0.0269 -0.3289  0.5712
 9683TIP3    H150540   1.897   6.806  13.651 -0.4929 -0.5583  0.7141
 9683TIP3    H250541   1.900   6.657  13.674  0.8247 -0.6617 -0.0109
 9684TIP3   OH250542   6.261   5.736   5.455  0.4573  0.1859  0.6489
 9684TIP3    H150543   6.357   5.735   5.454  0.5292  2.2897 -0.3040
 9684TIP3    H250544   6.236   5.742   5.363 -0.5958 -0.3029  0.8889
 9685TIP3   OH250545   5.219   5.669   0.219  0.8523  0.2566 -0.2255
 9685TIP3    H150546   5.171   5.586   0.216  0.4813  0.3824  1.2515
 9685TIP3    H250547   5.213   5.703   0.130 -1.9462  0.3161 -0.1213
 9686TIP3   OH250548   5.900   2.804   3.295 -0.1756  0.2150  0.2525
 9686TIP3    H150549   5.910   2.841   3.383 -1.0931  1.0679  0.0138
 9686TIP3    H250550   5.911   2.709   3.308  0.0794  0.3589  1.2157
 9687TIP3   OH250551   0.518   2.610  11.754 -0.0516 -0.1094 -0.0199
 9687TIP3    H150552   0.525   2.553  11.830 -1.3743  0.3368  0.4702
 9687TIP3    H250553   0.600   2.659  11.753  0.6059 -1.1676  0.2337
 9688TIP3   OH250554   3.560   2.247  13.865  0.2465  0.4737 -0.2249
 9688TIP3    H150555   3.505   2.273  13.791 -0.6523 -0.8733 -0.0542
 9688TIP3    H250556   3.500   2.208  13.928  1.3835 -1.0995 -0.0613
 9689TIP3   OH250557   2.017   3.182   2.689  0.2294  0.4796 -0.2741
 9689TIP3    H150558   1.952   3.183   2.619  0.1349  0.1464 -0.1947
 9689TIP3    H250559   2.060   3.268   2.683 -1.6351  1.5687  1.0047
 9690TIP3   OH250560   4.445   0.759  16.906 -0.0637 -0.2048  0.6081
 9690TIP3    H150561   4.498   0.686  16.938  0.7559  0.0321 -0.1540
 9690TIP3    H250562   4.483   0.836  16.948  0.7576  0.0609 -0.5635
 9691TIP3   OH250563   3.326   5.283  11.560  0.0242 -0.2150 -0.7182
 9691TIP3    H150564   3.312   5.190  11.577 -1.5447  0.0652 -0.3374
 9691TIP3    H250565   3.397   5.286  11.495  0.2323 -1.6522 -0.5734
 9692TIP3   OH250566   4.703   1.413   0.458 -0.1780 -0.2166 -0.2101
 9692TIP3    H150567   4.617   1.433   0.496 -0.5231 -0.5045 -0.8278
 9692TIP3    H250568   4.690   1.423   0.363  0.7955  0.9833 -0.2466
 9693TIP3   OH250569   0.841   5.091   2.745 -0.3117 -0.4058  0.0417
 9693TIP3    H150570   0.836   5.183   2.772 -1.2757 -0.4181 -0.0561
 9693TIP3    H250571   0.832   5.042   2.827  0.0355 -0.4088  0.0755
 9694TIP3   OH250572   6.617   2.580  15.405 -0.0312 -0.1882 -0.2518
 9694TIP3    H150573   6.649   2.538  15.325 -0.4090 -1.2150  0.1202
 9694TIP3    H250574   6.685   2.643  15.427 -0.6839  1.3168 -2.2776
 9695TIP3   OH250575   4.918   1.018  12.436  0.3012 -0.2200  0.0765
 9695TIP3    H150576   4.866   1.098  12.427 -1.3936 -0.9084  2.5765
 9695TIP3    H250577   5.006   1.048  12.458 -0.4587  1.0234  1.6270
 9696TIP3   OH250578   2.910   3.003  11.477  0.7336  0.0871 -0.1149
 9696TIP3    H150579   2.890   2.987  11.384 -0.4157 -1.2789  0.3362
 9696TIP3    H250580   2.834   2.968  11.524  0.3213  2.5799  1.2711
 9697TIP3   OH250581   5.636   0.745  11.815  0.3832  0.0440  0.3235
 9697TIP3    H150582   5.616   0.699  11.897  0.2497 -0.8819 -0.2199
 9697TIP3    H250583   5.719   0.708  11.786 -0.7349 -1.4063 -1.1958
 9698TIP3   OH250584   3.454   0.556  13.332  0.2333  0.2581 -0.1157
 9698TIP3    H150585   3.383   0.615  13.308  0.2233  0.5731  0.6434
 9698TIP3    H250586   3.505   0.545  13.252 -0.4140  0.3863 -0.5516
 9699TIP3   OH250587   3.831   3.146   2.317 -0.2431  0.4185 -0.1491
 9699TIP3    H150588   3.890   3.206   2.273 -0.0280  0.5499  0.3118
 9699TIP3    H250589   3.777   3.108   2.247 -1.5533  2.4181 -0.2961
 9700TIP3   OH250590   4.975   1.579   2.565  0.3305 -0.1448 -0.3658
 9700TIP3    H150591   4.955   1.559   2.474 -1.0350 -0.5394 -0.0106
 9700TIP3    H250592   4.898   1.627   2.596 -0.0536 -1.6162  1.0697
 9701TIP3   OH250593   3.130   0.280  11.299  0.0719 -0.2120 -0.0676
 9701TIP3    H150594   3.098   0.227  11.372  0.3354 -1.0212 -0.5219
 9701TIP3    H250595   3.138   0.369  11.335 -0.0771 -0.5377  0.7987
 9702TIP3   OH250596   6.051   0.229  16.819  0.2465 -0.7060  0.0373
 9702TIP3    H150597   6.028   0.315  16.853 -0.7517 -1.5674  1.6703
 9702TIP3    H250598   6.100   0.187  16.890 -1.5475 -2.4224  0.3510
 9703TIP3   OH250599   2.681   3.937  16.513 -0.5310 -0.2220  0.9415
 9703TIP3    H150600   2.753   3.997  16.497 -0.3996 -0.4191  0.7835
 9703TIP3    H250601   2.685   3.874  16.441 -0.6944 -0.3902  1.0756
 9704TIP3   OH250602   0.823   0.745  12.712  0.1562 -0.1151 -0.2076
 9704TIP3    H150603   0.816   0.839  12.700 -0.6872 -0.3879 -2.3256
 9704TIP3    H250604   0.916   0.726  12.700  0.3747  0.4676  0.5190
 9705TIP3   OH250605   4.182   3.958  17.150  0.0522  0.5255 -0.5806
 9705TIP3    H150606   4.247   4.026  17.163 -0.1248  0.6260 -0.2238
 9705TIP3    H250607   4.114   3.976  17.215  1.0819 -1.3179  1.1092
 9706TIP3   OH250608   5.826   4.596   3.512 -0.3228  0.4224  0.4491
 9706TIP3    H150609   5.749   4.561   3.468  0.6194  1.1523 -1.9000
 9706TIP3    H250610   5.831   4.687   3.483  0.7634  0.7433  1.5313
 9707TIP3   OH250611   2.673   6.627  13.383 -0.0290 -0.3837 -0.3991
 9707TIP3    H150612   2.609   6.664  13.443  0.1216  2.2580 -1.7436
 9707TIP3    H250613   2.675   6.534  13.405 -2.8599 -0.2172  0.9764
 9708TIP3   OH250614   4.778   4.302   0.446  0.1028  0.3058 -0.2049
 9708TIP3    H150615   4.692   4.269   0.472  0.9540 -0.2230  2.2146
 9708TIP3    H250616   4.793   4.377   0.503  0.9046  0.9570 -1.2285
 9709TIP3   OH250617   1.533   5.718   0.929 -0.6980  0.0019 -0.2678
 9709TIP3    H150618   1.460   5.779   0.922 -0.5335  0.4538  1.4239
 9709TIP3    H250619   1.497   5.633   0.905 -1.7269  0.2617  0.3187
 9710TIP3   OH250620   0.390   3.655  15.666 -0.7318  0.9955  0.4286
 9710TIP3    H150621   0.391   3.600  15.744 -1.6922  0.1615 -0.1217
 9710TIP3    H250622   0.303   3.640  15.627  0.5814 -0.6476 -2.2072
 9711TIP3   OH250623   3.236   3.560  15.946  1.2996  0.1884  0.4456
 9711TIP3    H150624   3.250   3.542  15.853 -0.4855 -0.4136  0.2590
 9711TIP3    H250625   3.320   3.595  15.976  1.8318  0.6898 -1.4484
 9712TIP3   OH250626   3.807   6.290  11.378 -0.1955 -0.3885 -0.1999
 9712TIP3    H150627   3.737   6.229  11.402 -1.1310 -0.3742 -2.6146
 9712TIP3    H250628   3.888   6.244  11.401 -0.9329 -0.7261  1.9386
 9713TIP3   OH250629   1.369   4.783  11.041 -0.5055 -0.5181  0.2513
 9713TIP3    H150630   1.391   4.876  11.040  0.6438 -0.7697  0.6447
 9713TIP3    H250631   1.286   4.778  11.088 -0.0759  0.2220  1.1103
 9714TIP3   OH250632   4.783   4.949  11.204  0.8823 -0.1077 -0.2982
 9714TIP3    H150633   4.751   5.036  11.227 -0.1356 -0.2955 -0.9217
 9714TIP3    H250634   4.793   4.904  11.288 -0.0136  0.1296 -0.0547
 9715TIP3   OH250635   0.990   0.779  14.772  0.0520 -0.1838  0.1376
 9715TIP3    H150636   1.047   0.746  14.842  0.8995  0.2007 -0.3481
 9715TIP3    H250637   1.049   0.789  14.697 -0.2132  2.0640  0.1516
 9716TIP3   OH250638   6.360   4.582  13.993 -0.4082 -0.1343 -0.0801
 9716TIP3    H150639   6.265   4.588  14.004 -0.3308  0.4467  0.3515
 9716TIP3    H250640   6.394   4.660  14.038  0.4376 -1.7021  2.1715
 9717TIP3   OH250641   4.923   1.190   0.582 -0.0380  0.8382 -0.4302
 9717TIP3    H150642   4.834   1.220   0.565 -0.1044  0.7873 -0.1760
 9717TIP3    H250643   4.966   1.266   0.623  0.6168  1.5551 -2.3283
 9718TIP3   OH250644   4.559   0.902  15.270 -0.2040 -0.0651 -0.0188
 9718TIP3    H150645   4.568   0.913  15.365 -0.0642  0.7575 -0.1244
 9718TIP3    H250646   4.482   0.845  15.260 -1.3985  1.3987  0.5363
 9719TIP3   OH250647   2.064   0.458   4.803  0.2479 -0.4981 -0.1783
 9719TIP3    H150648   2.086   0.429   4.891  0.5933  0.5217  0.0907
 9719TIP3    H250649   2.097   0.388   4.746  0.6390 -0.8482  0.4596
 9720TIP3   OH250650   0.704   0.584  16.315 -0.3293 -0.3081 -0.1477
 9720TIP3    H150651   0.712   0.673  16.349 -0.3065 -0.7740  1.1298
 9720TIP3    H250652   0.787   0.567  16.271 -0.4941  0.4307 -0.7736
 9721TIP3   OH250653   4.047   3.942  13.900 -0.0692 -0.0832 -0.4690
 9721TIP3    H150654   4.106   3.893  13.959  1.0568 -0.1064 -1.5838
 9721TIP3    H250655   4.045   3.890  13.820 -1.9751 -0.3015 -0.3315
 9722TIP3   OH250656   2.371   1.302  13.544 -0.1636 -0.5567 -0.4811
 9722TIP3    H150657   2.420   1.381  13.523  0.1737 -0.7335 -0.3711
 9722TIP3    H250658   2.365   1.302  13.640 -2.1518  0.5231 -0.5569
 9723TIP3   OH250659   2.681   0.275  10.507 -1.2283  0.2925 -0.1311
 9723TIP3    H150660   2.649   0.338  10.443 -3.0162  1.6528  1.9894
 9723TIP3    H250661   2.730   0.327  10.570 -0.2687 -0.8819  0.1281
 9724TIP3   OH250662   5.913   3.497   1.547  0.5724 -0.4947 -0.2124
 9724TIP3    H150663   5.881   3.427   1.490  0.5410 -0.3008 -0.4337
 9724TIP3    H250664   6.004   3.511   1.520  0.1985  0.4378 -1.0570
 9725TIP3   OH250665   6.107   6.170  13.492 -0.7897 -0.3972 -0.1602
 9725TIP3    H150666   6.142   6.223  13.564 -0.2820  0.4195 -0.9929
 9725TIP3    H250667   6.016   6.152  13.517 -0.5165 -0.4312  0.8485
 9726TIP3   OH250668   0.384   1.793  14.806  0.2338 -0.1426  0.3770
 9726TIP3    H150669   0.364   1.834  14.722 -1.3275 -1.2954  0.1487
 9726TIP3    H250670   0.441   1.719  14.784 -0.0715 -0.3685  0.3395
 9727TIP3   OH250671   1.556   6.089  12.322  0.3205  0.0943  0.2254
 9727TIP3    H150672   1.611   6.033  12.377  0.9360 -0.7815 -1.2314
 9727TIP3    H250673   1.515   6.150  12.384 -1.9200 -3.0940  2.2097
 9728TIP3   OH250674   6.200   6.212   0.198 -0.2793  0.1755 -0.4842
 9728TIP3    H150675   6.133   6.196   0.131  0.3269 -0.5573 -0.9400
 9728TIP3    H250676   6.158   6.189   0.281 -0.4788 -0.6537 -0.8038
 9729TIP3   OH250677   5.679   6.730  12.719 -0.1375 -0.3931 -0.0532
 9729TIP3    H150678   5.741   6.787  12.763 -1.7101  0.4011  1.2263
 9729TIP3    H250679   5.646   6.672  12.787 -0.7875 -0.8293 -0.7135
 9730TIP3   OH250680   1.875   0.140  13.925 -0.0347  0.0620 -0.5648
 9730TIP3    H150681   1.964   0.118  13.900  0.0289 -0.5959  0.1683
 9730TIP3    H250682   1.823   0.125  13.846  0.7943  2.7372 -1.7250
 9731TIP3   OH250683   6.587   6.097  10.786  0.4485 -0.3159  0.1830
 9731TIP3    H150684   6.572   6.019  10.839 -1.1190  0.8082  1.4792
 9731TIP3    H250685   6.679   6.119  10.801  0.5679 -1.1796  0.7914
 9732TIP3   OH250686   5.689   4.671  11.237 -0.3425  0.0956  0.3005
 9732TIP3    H150687   5.724   4.593  11.280  2.4968  0.0382 -1.8668
 9732TIP3    H250688   5.730   4.744  11.283 -0.7938  0.2404  0.4878
 9733TIP3   OH250689   3.064   1.793   3.097  0.3071 -0.4607 -0.9307
 9733TIP3    H150690   3.034   1.857   3.161 -2.1820 -1.1864 -1.2592
 9733TIP3    H250691   3.108   1.725   3.148 -0.4334 -0.3543 -0.1396
 9734TIP3   OH250692   6.363   5.105   5.864  0.1438  0.0877 -0.9862
 9734TIP3    H150693   6.338   5.195   5.844  0.6144  0.4876  0.1548
 9734TIP3    H250694   6.282   5.064   5.893 -0.5339 -0.4729 -3.3901
 9735TIP3   OH250695   2.657   3.810  15.704 -0.9156  0.7853  0.0571
 9735TIP3    H150696   2.634   3.761  15.783 -0.1140  0.2553 -0.0259
 9735TIP3    H250697   2.751   3.828  15.715 -0.4938 -0.3997 -1.3646
 9736TIP3   OH250698   1.887   4.064  11.261  0.4144 -0.4332 -0.1198
 9736TIP3    H150699   1.843   3.980  11.275 -1.8000  0.9175  1.8652
 9736TIP3    H250700   1.866   4.088  11.171  0.8139 -1.8298 -0.6088
 9737TIP3   OH250701   1.355   4.451   4.053 -0.2931 -0.6685 -0.3052
 9737TIP3    H150702   1.271   4.483   4.085 -0.0746  1.6221 -1.7679
 9737TIP3    H250703   1.420   4.499   4.103  0.0566  0.6228 -1.9088
 9738TIP3   OH250704   5.258   3.191  16.024 -0.3907 -0.4628  0.0215
 9738TIP3    H150705   5.226   3.202  16.113  0.5766 -0.5816  0.3991
 9738TIP3    H250706   5.352   3.176  16.034 -0.5623 -2.4857 -0.8696
 9739TIP3   OH250707   6.083   5.333  15.283 -0.4453  0.3703 -0.1000
 9739TIP3    H150708   5.996   5.346  15.245 -0.0598  0.8934 -0.8408
 9739TIP3    H250709   6.076   5.365  15.373 -0.9953  0.4966 -0.1867
 9740TIP3   OH250710   3.477   5.024  14.329 -0.8188 -0.0647 -0.2683
 9740TIP3    H150711   3.538   4.951  14.341 -0.5729 -0.0638 -1.4405
 9740TIP3    H250712   3.482   5.044  14.236 -0.4486  1.8375  0.1267
 9741TIP3   OH250713   6.092   4.554   3.853 -0.4295 -0.3103  0.5769
 9741TIP3    H150714   6.024   4.538   3.918 -1.1504 -1.2494 -0.3736
 9741TIP3    H250715   6.171   4.518   3.892 -1.2291 -2.6444  0.1915
 9742TIP3   OH250716   2.149   6.113   3.810  0.0258 -0.0601 -0.2679
 9742TIP3    H150717   2.134   6.128   3.717 -2.1593 -0.5740 -0.0475
 9742TIP3    H250718   2.079   6.160   3.855  1.5642  0.9549  1.2238
 9743TIP3   OH250719   1.060   4.628   5.020 -0.0087  0.0449 -0.5144
 9743TIP3    H150720   1.121   4.555   5.031 -0.5592 -0.3005  0.3316
 9743TIP3    H250721   1.116   4.701   4.993  0.4713 -0.8155 -1.9648
 9744TIP3   OH250722   5.161   3.684   2.734 -1.2578 -0.8009 -0.7302
 9744TIP3    H150723   5.173   3.591   2.756  1.2392 -0.3701 -0.0212
 9744TIP3    H250724   5.111   3.682   2.652  0.3933 -2.8690 -1.7880
 9745TIP3   OH250725   2.341   4.671  10.653 -0.2750 -0.5114 -0.4753
 9745TIP3    H150726   2.261   4.620  10.652 -0.1866 -0.6473 -1.5874
 9745TIP3    H250727   2.407   4.614  10.615  0.3910 -0.4445  0.5400
 9746TIP3   OH250728   5.246   0.204  16.833 -0.0944 -0.3098  0.0663
 9746TIP3    H150729   5.288   0.201  16.747  0.1562  0.8956  0.1255
 9746TIP3    H250730   5.249   0.114  16.864  0.6361 -0.6058 -0.8001
 9747TIP3   OH250731   2.728   1.895   5.857  0.2146  0.2584 -0.3811
 9747TIP3    H150732   2.733   1.831   5.928  1.9442 -1.3756 -1.8526
 9747TIP3    H250733   2.814   1.891   5.815 -0.3029  2.1431 -1.7505
 9748TIP3   OH250734   0.532   0.057  16.526 -0.0139  0.3908  0.3274
 9748TIP3    H150735   0.500   0.144  16.551 -1.5360 -0.6980  2.4237
 9748TIP3    H250736   0.457   0.016  16.483 -0.2644 -0.8430  1.8727
 9749TIP3   OH250737   1.923   2.055   4.103  0.4442  0.0059  0.3452
 9749TIP3    H150738   1.896   1.977   4.151 -0.0471  0.5075  0.8931
 9749TIP3    H250739   1.991   2.094   4.157  1.3690 -0.5422 -0.3905
 9750TIP3   OH250740   1.414   3.974   2.145 -0.2589 -0.1352 -0.0313
 9750TIP3    H150741   1.490   4.007   2.097  0.6311 -0.5242  1.0689
 9750TIP3    H250742   1.391   4.045   2.205  1.2302 -1.1425  1.8508
 9751TIP3   OH250743   5.986   4.832   3.705  0.4136 -0.0999  0.2607
 9751TIP3    H150744   5.978   4.741   3.735  0.4766  0.4258  1.9940
 9751TIP3    H250745   5.930   4.881   3.765  1.4377  1.1651  0.2214
 9752TIP3   OH250746   4.905   3.674  12.852  0.3444 -0.1682 -0.0538
 9752TIP3    H150747   4.896   3.748  12.792 -2.5401 -0.1292  0.2855
 9752TIP3    H250748   4.820   3.669  12.897 -0.0431 -4.2844 -0.8451
 9753TIP3   OH250749   4.729   2.740   4.961 -0.0682 -0.5316 -0.2177
 9753TIP3    H150750   4.688   2.675   4.903  1.8059 -1.9125 -0.0804
 9753TIP3    H250751   4.822   2.737   4.938 -0.0844  3.8041 -1.8277
 9754TIP3   OH250752   2.932   0.881   5.149  0.5342 -0.5948 -0.6451
 9754TIP3    H150753   2.943   0.909   5.240  1.7841 -0.4358 -0.8197
 9754TIP3    H250754   2.875   0.805   5.154 -0.9808  0.5217  0.0786
 9755TIP3   OH250755   6.203   0.619   0.373  0.0019  0.4646  0.3795
 9755TIP3    H150756   6.108   0.622   0.369 -0.0121  1.4990  1.0479
 9755TIP3    H250757   6.232   0.686   0.311  0.2832  0.6226  0.6795
 9756TIP3   OH250758   0.205   6.391  12.879 -0.0516 -0.1949  0.1184
 9756TIP3    H150759   0.296   6.388  12.851  0.3492  0.8955  1.1934
 9756TIP3    H250760   0.154   6.389  12.798  0.9222 -0.7952 -0.4922
 9757TIP3   OH250761   0.803   3.166  14.337 -0.1608  0.4120 -0.6809
 9757TIP3    H150762   0.893   3.199  14.335  0.5565 -0.8626  2.5965
 9757TIP3    H250763   0.810   3.074  14.311 -0.1091 -0.1819  1.2239
 9758TIP3   OH250764   0.470   4.451  15.394  0.0857  0.5768  0.1069
 9758TIP3    H150765   0.534   4.394  15.437  0.2916  1.5021  1.0696
 9758TIP3    H250766   0.495   4.540  15.420 -0.1961  1.1239 -1.4105
 9759TIP3   OH250767   1.845   0.071  11.498 -0.1604  0.0859 -0.3436
 9759TIP3    H150768   1.921   0.089  11.442 -0.3662 -1.9886 -1.3736
 9759TIP3    H250769   1.883   0.027  11.575 -0.2687 -0.9689 -0.8674
 9760TIP3   OH250770   6.417   4.037  12.580  0.3835 -0.4638 -0.3016
 9760TIP3    H150771   6.422   4.077  12.666 -0.8834  1.5111 -1.0870
 9760TIP3    H250772   6.494   4.069  12.534  0.6811 -0.9459 -0.1470
 9761TIP3   OH250773   3.025   2.602  10.591  0.0404 -0.3943  0.6185
 9761TIP3    H150774   3.057   2.691  10.611 -0.5446  0.1290 -0.6600
 9761TIP3    H250775   3.098   2.560  10.545 -0.2350 -0.0108 -0.1934
 9762TIP3   OH250776   0.583   6.252  11.084 -0.3340 -0.3460 -0.2045
 9762TIP3    H150777   0.672   6.289  11.090 -0.7340  0.4334  2.5777
 9762TIP3    H250778   0.537   6.310  11.023  0.9967 -0.6886 -1.5966
 9763TIP3   OH250779   4.091   0.070   1.406 -0.7102 -0.3967  0.0919
 9763TIP3    H150780   4.095   0.164   1.388 -2.5376 -0.0194  1.3544
 9763TIP3    H250781   4.061   0.031   1.324 -2.5008  0.4897  0.2671
 9764TIP3   OH250782   1.278   0.930  13.196  0.0627  1.2413 -0.3625
 9764TIP3    H150783   1.361   0.886  13.217 -0.3129  1.2177  1.1909
 9764TIP3    H250784   1.296   1.023  13.210 -0.7293  1.0828  2.2234
 9765TIP3   OH250785   0.572   3.441  14.897 -0.0215 -0.1002  0.1616
 9765TIP3    H150786   0.541   3.410  14.812 -0.4463 -1.2325  0.7104
 9765TIP3    H250787   0.515   3.516  14.918 -0.0646  0.0381 -0.4336
 9766TIP3   OH250788   4.857   1.922  13.846 -0.4539 -0.2775  0.6615
 9766TIP3    H150789   4.837   1.968  13.928 -1.0849 -0.6054  0.6976
 9766TIP3    H250790   4.771   1.901  13.808 -0.1999  1.1990 -0.8514
 9767TIP3   OH250791   6.586   2.670   1.137  0.5082  0.6632  0.0988
 9767TIP3    H150792   6.610   2.742   1.079  0.1557  2.0307  1.5775
 9767TIP3    H250793   6.534   2.611   1.082 -0.0059  2.0207 -0.9281
 9768TIP3   OH250794   3.188   0.515  11.418  1.0104 -0.5937  0.1071
 9768TIP3    H150795   3.244   0.540  11.492 -0.7608 -0.4706  1.5010
 9768TIP3    H250796   3.129   0.590  11.406 -0.0067 -1.3929 -0.1073
 9769TIP3   OH250797   5.683   3.942  12.495 -0.0358  0.2701  0.0710
 9769TIP3    H150798   5.761   3.887  12.503  0.1933  0.2286 -1.8628
 9769TIP3    H250799   5.711   4.029  12.522  0.0566 -0.1704  1.4951
 9770TIP3   OH250800   1.419   4.211   2.751 -0.2025  0.5793 -0.0310
 9770TIP3    H150801   1.425   4.156   2.830 -0.2461 -0.2375 -0.5814
 9770TIP3    H250802   1.505   4.252   2.743  0.8974 -1.7772 -1.2734
 9771TIP3   OH250803   5.026   1.003  12.768 -0.0791  0.1277  0.1519
 9771TIP3    H150804   5.078   1.022  12.846  0.5927  0.3066 -0.3267
 9771TIP3    H250805   5.082   1.031  12.695 -0.5308 -0.4099 -0.4119
 9772TIP3   OH250806   2.932   2.053  13.269  0.5685  0.1248 -0.2234
 9772TIP3    H150807   3.008   2.071  13.324  0.1721 -0.5814  0.5792
 9772TIP3    H250808   2.857   2.065  13.327  0.1852 -1.7295 -0.2661
 9773TIP3   OH250809   4.217   1.838   3.842  0.0365 -0.1974  0.3294
 9773TIP3    H150810   4.293   1.802   3.797 -0.0463 -0.4026  0.3552
 9773TIP3    H250811   4.160   1.870   3.771  0.4700  0.6107  0.3345
 9774TIP3   OH250812   2.708   6.269  10.841  0.3425  0.2434 -0.4304
 9774TIP3    H150813   2.640   6.258  10.775 -0.0081  0.6366 -0.1345
 9774TIP3    H250814   2.709   6.186  10.889  0.3475  0.0923 -0.6917
 9775TIP3   OH250815   4.490   4.512  15.996 -0.8673  0.0928  0.9515
 9775TIP3    H150816   4.463   4.565  16.071  0.0865  2.3134 -0.1570
 9775TIP3    H250817   4.586   4.514  15.999 -0.8168 -0.0139 -0.1449
 9776TIP3   OH250818   4.077   2.967  15.017  0.2004 -0.0572 -0.0474
 9776TIP3    H150819   4.155   2.992  15.066 -0.7101 -0.4958  1.7187
 9776TIP3    H250820   4.049   2.885  15.057 -2.0134  0.8670  0.4389
 9777TIP3   OH250821   5.575   4.143  15.322  0.2485  0.0903 -0.1602
 9777TIP3    H150822   5.550   4.088  15.248  1.6924 -1.5546  0.5121
 9777TIP3    H250823   5.575   4.084  15.397  0.8776  1.2406  0.7704
 9778TIP3   OH250824   1.583   0.316  15.744 -0.3048  0.3112  0.1195
 9778TIP3    H150825   1.658   0.272  15.704 -0.7690 -0.7276  0.3788
 9778TIP3    H250826   1.616   0.403  15.768  0.5111  0.2554 -0.7545
 9779TIP3   OH250827   1.595   4.295   2.993 -0.3965  0.8317 -0.0200
 9779TIP3    H150828   1.521   4.236   3.008  1.6024 -1.7777  0.4300
 9779TIP3    H250829   1.632   4.267   2.910  1.3539  0.5091  0.8106
 9780TIP3   OH250830   4.011   5.791  11.608 -0.0259 -0.0208 -0.0496
 9780TIP3    H150831   4.101   5.809  11.580  0.9456  0.6403  3.0890
 9780TIP3    H250832   4.014   5.702  11.643 -0.3728  0.3070  0.8368
 9781TIP3   OH250833   2.478   3.443   4.149  0.3566 -0.1068 -0.2556
 9781TIP3    H150834   2.424   3.427   4.071 -0.2176  0.5079  0.0077
 9781TIP3    H250835   2.488   3.357   4.189  2.0710 -0.7433 -1.8879
 9782TIP3   OH250836   2.652   2.462  10.624  0.0586 -0.1291 -0.4423
 9782TIP3    H150837   2.608   2.424  10.548 -1.8006  1.4988 -0.2430
 9782TIP3    H250838   2.588   2.459  10.694  0.2186  2.2408 -0.1057
 9783TIP3   OH250839   6.215   6.040  11.066  0.1054  0.3864  0.5338
 9783TIP3    H150840   6.262   6.117  11.100  0.7928  0.8639 -1.3633
 9783TIP3    H250841   6.123   6.067  11.064  0.2979  1.0481  0.2106
 9784TIP3   OH250842   5.387   4.762  14.306  0.2248 -0.3699 -0.6691
 9784TIP3    H150843   5.383   4.673  14.271  1.3691  0.0252 -1.8631
 9784TIP3    H250844   5.345   4.755  14.392  0.6687 -2.1482 -0.5489
 9785TIP3   OH250845   6.092   2.085   2.514 -0.4560  0.5112 -0.1800
 9785TIP3    H150846   6.067   2.085   2.422  2.5279 -0.1707 -1.1114
 9785TIP3    H250847   6.086   1.993   2.540 -2.2616  0.8294  0.6724
 9786TIP3   OH250848   3.165   0.445   1.470  0.1398 -0.2594  0.1976
 9786TIP3    H150849   3.149   0.381   1.401 -0.2267  0.1872 -0.1376
 9786TIP3    H250850   3.141   0.400   1.551 -4.1022  0.6576 -0.3016
 9787TIP3   OH250851   5.153   1.072   6.045  0.3468 -0.1067  0.8256
 9787TIP3    H150852   5.126   1.051   5.956 -2.0926  1.2837  1.1640
 9787TIP3    H250853   5.191   0.991   6.078  1.9276 -0.4684 -1.6463
 9788TIP3   OH250854   5.310   1.146   0.557  0.8328  0.0091  0.3587
 9788TIP3    H150855   5.279   1.234   0.535 -1.9734 -0.2270  2.7884
 9788TIP3    H250856   5.374   1.159   0.626  2.2803  0.2090 -0.9738
 9789TIP3   OH250857   5.083   3.338  15.874 -0.1031  0.0882 -0.2003
 9789TIP3    H150858   5.142   3.297  15.938  0.5896 -0.5067 -1.1938
 9789TIP3    H250859   5.037   3.264  15.833  0.3774  0.3647 -1.2636
 9790TIP3   OH250860   0.492   0.897  11.278  0.3180 -0.4845 -0.3600
 9790TIP3    H150861   0.580   0.911  11.242  0.3084 -1.1026 -0.6423
 9790TIP3    H250862   0.437   0.884  11.201  0.1168 -0.8441 -0.1571
 9791TIP3   OH250863   1.913   0.568   6.195 -0.1366  0.1775 -0.0757
 9791TIP3    H150864   1.938   0.645   6.245  1.3191 -0.2895 -0.0364
 9791TIP3    H250865   1.829   0.540   6.232  1.4187 -0.8663  2.9682
 9792TIP3   OH250866   2.283   6.723   3.922  0.2636  0.0421 -0.2816
 9792TIP3    H150867   2.315   6.808   3.892  0.4833  0.5769  1.3722
 9792TIP3    H250868   2.292   6.726   4.017 -1.6158 -1.0648 -0.0159
 9793TIP3   OH250869   1.623   5.648  14.311 -0.5460  0.7828 -0.2844
 9793TIP3    H150870   1.681   5.683  14.244 -1.1492  2.6013  0.0675
 9793TIP3    H250871   1.664   5.674  14.394 -1.7386  2.0018 -0.0303
 9794TIP3   OH250872   4.717   5.748   1.303  0.8108 -0.2533  0.3571
 9794TIP3    H150873   4.758   5.804   1.369  0.9104  1.7624 -1.2696
 9794TIP3    H250874   4.790   5.721   1.247  0.3672  0.8628 -0.8171
 9795TIP3   OH250875   3.014   1.331   1.370  0.5647  0.2139 -0.1945
 9795TIP3    H150876   2.938   1.273   1.368  2.2755 -2.1750 -1.1943
 9795TIP3    H250877   3.030   1.347   1.463 -1.6698  1.5964  0.0122
 9796TIP3   OH250878   0.050   3.471  11.566 -0.6105  0.0569  0.4732
 9796TIP3    H150879  -0.033   3.519  11.572  0.1936  1.6943 -0.7285
 9796TIP3    H250880   0.104   3.507  11.636 -0.8399 -0.9796  1.2277
 9797TIP3   OH250881   0.269   4.188  15.138 -0.5548  0.1233  0.2071
 9797TIP3    H150882   0.226   4.231  15.064 -2.0762 -0.9692  0.4313
 9797TIP3    H250883   0.261   4.251  15.210 -0.3238  0.5947 -0.1750
 9798TIP3   OH250884   2.599   3.387  14.302  0.0358  0.7400 -0.2854
 9798TIP3    H150885   2.547   3.439  14.362 -0.1380  0.8510 -0.5299
 9798TIP3    H250886   2.600   3.299  14.340 -2.1349  0.1786 -1.3387
 9799TIP3   OH250887   4.062   3.562   0.068  0.5549 -0.2500 -0.3526
 9799TIP3    H150888   4.105   3.577  -0.016 -0.7223 -1.2707 -1.2404
 9799TIP3    H250889   4.068   3.645   0.114 -0.4435  0.9512 -2.2790
 9800TIP3   OH250890   2.156   4.090  16.473  0.4451 -0.1948  0.1217
 9800TIP3    H150891   2.109   4.021  16.521 -0.5686  1.0294  0.9453
 9800TIP3    H250892   2.246   4.084  16.506  0.4756 -1.3561 -0.1041
 9801TIP3   OH250893   1.309   2.117  13.930 -0.1783 -0.0638  0.7469
 9801TIP3    H150894   1.338   2.208  13.935 -1.1601  0.3267 -0.2881
 9801TIP3    H250895   1.310   2.086  14.021 -0.5136  1.1964  1.1904
 9802TIP3   OH250896   0.886   2.805  17.275  0.4138  0.4322 -0.5032
 9802TIP3    H150897   0.959   2.755  17.312 -0.3910 -1.2307 -1.0685
 9802TIP3    H250898   0.913   2.896  17.283  1.9610 -0.0749  0.5355
 9803TIP3   OH250899   1.557   3.688  13.489  0.0000 -0.6945 -0.4379
 9803TIP3    H150900   1.638   3.663  13.445 -0.4545 -1.1797 -1.0173
 9803TIP3    H250901   1.561   3.644  13.574  0.3549 -0.6880 -0.4507
 9804TIP3   OH250902   5.973   1.821   3.153 -0.3228 -0.0990  0.0301
 9804TIP3    H150903   6.036   1.883   3.189 -0.5666  0.0404  0.2174
 9804TIP3    H250904   6.024   1.767   3.093 -0.5339  1.7233 -1.9073
 9805TIP3   OH250905   1.667   0.757  14.605 -0.2928  0.6705 -0.7426
 9805TIP3    H150906   1.629   0.672  14.581  0.3969  0.3177 -0.5926
 9805TIP3    H250907   1.720   0.739  14.682  1.2936  0.8752 -1.7467
 9806TIP3   OH250908   2.905   5.522  12.713  0.0965 -0.0479  0.0869
 9806TIP3    H150909   2.910   5.617  12.729 -1.0980 -0.0221  0.4086
 9806TIP3    H250910   2.848   5.489  12.782 -2.1885 -0.4932 -1.8683
 9807TIP3   OH250911   1.921   3.271   4.823  0.1523 -0.4742 -0.0134
 9807TIP3    H150912   1.994   3.307   4.874 -0.3064  0.5394 -0.0597
 9807TIP3    H250913   1.936   3.176   4.824  1.5312 -0.2762 -0.1150
 9808TIP3   OH250914   5.246   5.944   2.275  0.2964  0.2749  0.3242
 9808TIP3    H150915   5.166   5.989   2.247  0.4588 -0.8035 -2.1058
 9808TIP3    H250916   5.214   5.867   2.322 -0.0982  0.1304 -0.1705
 9809TIP3   OH250917   3.181   2.977  16.286  0.0443 -0.4619 -0.7729
 9809TIP3    H150918   3.140   2.898  16.251 -0.4761  0.3139 -1.9613
 9809TIP3    H250919   3.108   3.034  16.309  0.4305  0.2795 -1.3614
 9810TIP3   OH250920   1.795   5.644  14.585  0.4335  0.1654 -0.2157
 9810TIP3    H150921   1.798   5.550  14.567 -0.2227 -0.0006  0.4435
 9810TIP3    H250922   1.839   5.653  14.670 -0.2389  0.3274  0.1235
 9811TIP3   OH250923   6.117   3.799   5.944  0.4046 -0.3602 -0.8046
 9811TIP3    H150924   6.099   3.880   5.897  1.5525 -0.7930 -2.0516
 9811TIP3    H250925   6.123   3.826   6.036  0.7403  0.9561 -1.1883
 9812TIP3   OH250926   4.610   0.374  12.248 -0.0830 -0.4840 -0.1502
 9812TIP3    H150927   4.649   0.382  12.161  1.0316  0.1462  0.3767
 9812TIP3    H250928   4.601   0.465  12.278  1.1027 -0.7199  1.0250
 9813TIP3   OH250929   4.075   5.373   5.694 -0.3335 -0.0353  0.2449
 9813TIP3    H150930   4.071   5.414   5.780  0.5719 -1.3951  0.9828
 9813TIP3    H250931   4.082   5.279   5.712  1.2466 -0.2754 -1.2532
 9814TIP3   OH250932   2.166   1.045  15.971 -0.7134  0.2702  0.7993
 9814TIP3    H150933   2.157   0.972  16.032 -1.8363 -0.2446  0.0547
 9814TIP3    H250934   2.079   1.086  15.970 -0.6252  0.4681 -0.2091
 9815TIP3   OH250935   1.713   3.775   3.776 -0.2680  0.2426 -0.0634
 9815TIP3    H150936   1.761   3.795   3.856  0.5068 -0.6904 -0.2863
 9815TIP3    H250937   1.654   3.850   3.765  0.0239  0.6606  1.0552
 9816TIP3   OH250938   5.955   0.392   1.835  0.2596 -0.2627  0.4880
 9816TIP3    H150939   5.930   0.467   1.890 -0.0726 -0.0324  0.0253
 9816TIP3    H250940   6.050   0.399   1.827  0.1268  0.7480 -0.4469
 9817TIP3   OH250941   5.561   5.912   4.230 -0.6842  0.2665 -0.2262
 9817TIP3    H150942   5.566   5.822   4.198  0.3808  0.0310  0.5437
 9817TIP3    H250943   5.552   5.903   4.325 -2.9707  0.9558 -0.3087
 9818TIP3   OH250944   3.265   0.470  16.595  0.3036  0.2590  0.1849
 9818TIP3    H150945   3.281   0.417  16.516  0.2583  0.3050  0.1438
 9818TIP3    H250946   3.195   0.423  16.641  0.2799  0.2703  0.1613
 9819TIP3   OH250947   5.381   2.283  12.752  0.0964  0.7156  0.1815
 9819TIP3    H150948   5.288   2.261  12.759  0.3350 -1.4827 -2.1616
 9819TIP3    H250949   5.382   2.364  12.701 -0.5380 -0.2921 -1.5104
 9820TIP3   OH250950   3.645   2.370   2.968 -0.7853 -0.0517  0.2825
 9820TIP3    H150951   3.630   2.464   2.961  0.7433  0.3784  2.1829
 9820TIP3    H250952   3.739   2.359   2.958 -0.4839 -0.9658  3.2223
 9821TIP3   OH250953   4.889   6.816   0.144  0.2499  0.3806  0.1502
 9821TIP3    H150954   4.947   6.852   0.077 -1.0354  0.3976 -0.9949
 9821TIP3    H250955   4.831   6.889   0.168 -0.8662 -0.2572 -0.5101
 9822TIP3   OH250956   5.226   5.967   0.788 -0.3151  0.4914 -0.4639
 9822TIP3    H150957   5.270   5.907   0.849  0.5132  1.1437 -0.3986
 9822TIP3    H250958   5.295   5.993   0.727 -0.6424  1.4543 -0.4330
 9823TIP3   OH250959   4.241   4.760  14.918  0.1248 -0.3494 -0.8168
 9823TIP3    H150960   4.304   4.785  14.986 -0.4492 -1.8415  0.3251
 9823TIP3    H250961   4.228   4.839  14.867  2.1197  0.2819 -0.4419
 9824TIP3   OH250962   6.681   6.514  11.927  0.2666  0.0509 -0.0985
 9824TIP3    H150963   6.619   6.441  11.930 -0.6247  0.8329  2.0619
 9824TIP3    H250964   6.645   6.573  11.861  0.3249 -0.8263 -0.9541
 9825TIP3   OH250965   0.731   2.118   1.408 -0.3755 -0.3586 -0.3563
 9825TIP3    H150966   0.818   2.080   1.420  0.3197  1.4444  0.6189
 9825TIP3    H250967   0.724   2.133   1.314  0.5180 -0.1821 -0.4004
 9826TIP3   OH250968   1.873   2.020   1.564 -0.1866 -0.7354  0.4003
 9826TIP3    H150969   1.805   2.044   1.501 -1.2480  0.3491  1.9015
 9826TIP3    H250970   1.879   1.925   1.559 -0.7098 -0.7186 -0.8514
 9827TIP3   OH250971   4.683   5.258   1.188  0.1985  0.4665 -0.1693
 9827TIP3    H150972   4.664   5.259   1.094 -1.3454  1.1862  0.1246
 9827TIP3    H250973   4.675   5.166   1.213 -1.1852  0.5047 -0.4153
 9828TIP3   OH250974   1.985   5.244  17.197  0.2810 -0.1729  0.1831
 9828TIP3    H150975   1.894   5.238  17.168  0.2668  0.9684 -0.0364
 9828TIP3    H250976   2.037   5.223  17.119  0.2239 -1.8462  0.5573
 9829TIP3   OH250977   6.614   5.906   4.272 -0.1942  0.5252  0.3886
 9829TIP3    H150978   6.618   5.819   4.313 -0.7170  1.4995  2.6171
 9829TIP3    H250979   6.526   5.911   4.235  0.6687 -0.8317 -2.1822
 9830TIP3   OH250980   0.251   3.915   3.411  0.2029 -0.1283  0.4900
 9830TIP3    H150981   0.286   3.880   3.493  0.6517  0.6165  0.6310
 9830TIP3    H250982   0.244   4.010   3.427 -1.5237 -0.1900  0.3354
 9831TIP3   OH250983   2.796   3.717  13.415 -0.1657  0.5938 -0.4565
 9831TIP3    H150984   2.724   3.656  13.402 -0.0309  0.4483 -0.5244
 9831TIP3    H250985   2.843   3.683  13.491 -1.1723  1.6554  0.6762
 9832TIP3   OH250986   6.528   1.642   3.922  0.7185 -0.4981  0.2678
 9832TIP3    H150987   6.554   1.676   4.008  1.4181 -0.4552  0.0436
 9832TIP3    H250988   6.433   1.631   3.929  0.5600  0.8657  0.5780
 9833TIP3   OH250989   4.325   0.720  13.897 -0.3685 -0.8112 -0.1029
 9833TIP3    H150990   4.308   0.814  13.895 -0.3780 -0.8157 -0.2631
 9833TIP3    H250991   4.394   0.707  13.832  1.9031 -0.4672  2.0927
 9834TIP3   OH250992   1.405   3.913  13.597  0.5974  0.2476  0.6090
 9834TIP3    H150993   1.422   3.835  13.544 -0.7108  0.9101 -0.8920
 9834TIP3    H250994   1.341   3.884  13.663  0.2296  0.0062  0.1493
 9835TIP3   OH250995   6.489   5.299  14.480  0.0578 -0.6019 -0.1934
 9835TIP3    H150996   6.528   5.357  14.545  0.6342 -0.6611 -0.4775
 9835TIP3    H250997   6.502   5.345  14.397 -0.0322 -0.8558 -0.3485
 9836TIP3   OH250998   0.655   6.545   5.899 -0.2094  0.6037  0.1815
 9836TIP3    H150999   0.617   6.618   5.947  0.8053  1.4116 -0.2296
 9836TIP3    H251000   0.680   6.482   5.967 -1.4832  0.4258  0.5085
 9837TIP3   OH251001   2.343   6.568  11.820  0.2089 -0.0087  0.0673
 9837TIP3    H151002   2.398   6.513  11.876  0.3022 -0.9856 -0.9420
 9837TIP3    H251003   2.254   6.542  11.841  0.1949  0.4613  0.5934
 9838TIP3   OH251004   3.430   6.134  17.201 -0.0731 -0.6054 -0.4193
 9838TIP3    H151005   3.351   6.179  17.171 -0.4949 -1.3832 -0.5054
 9838TIP3    H251006   3.408   6.104  17.290  1.4573  2.4389  1.1495
 9839TIP3   OH251007   2.667   5.096  12.309  0.4294  0.4502  0.5179
 9839TIP3    H151008   2.708   5.079  12.394  0.2007  1.4547  0.8465
 9839TIP3    H251009   2.740   5.099  12.248  0.9059  2.3416  1.1140
 9840TIP3   OH251010   3.076   4.657  12.650 -0.2287  0.2886  0.4492
 9840TIP3    H151011   3.057   4.625  12.738  0.4183 -3.7310 -0.7043
 9840TIP3    H251012   2.993   4.693  12.619 -1.1218 -0.4686  1.8518
 9841TIP3   OH251013   5.397   4.942   6.589 -0.0064  0.3912  0.8108
 9841TIP3    H151014   5.472   4.906   6.636 -1.4877  0.1014  3.0642
 9841TIP3    H251015   5.422   5.033   6.570  0.2284  0.8820  3.2022
 9842TIP3   OH251016   4.708   1.316  13.786  0.1531 -0.7351  0.3081
 9842TIP3    H151017   4.792   1.355  13.766 -0.0545 -0.6443 -0.4031
 9842TIP3    H251018   4.645   1.388  13.778 -0.0768 -0.9466  0.1841
 9843TIP3   OH251019   6.131   3.525   5.242  0.1319 -0.0876  0.6151
 9843TIP3    H151020   6.219   3.506   5.211  0.0632 -0.9150  0.9025
 9843TIP3    H251021   6.144   3.569   5.326  0.2779  0.0762  0.5068
 9844TIP3   OH251022   1.849   6.316   1.819  0.0713  0.3416 -0.3986
 9844TIP3    H151023   1.828   6.268   1.900  1.4386 -0.1109 -0.2905
 9844TIP3    H251024   1.776   6.297   1.761  0.7353 -2.2603 -0.4982
 9845TIP3   OH251025   1.572   1.613  14.219  0.0424 -0.4294 -0.1767
 9845TIP3    H151026   1.654   1.660  14.226 -1.1879  1.6047  2.0566
 9845TIP3    H251027   1.597   1.522  14.206  2.7275 -0.2137  2.5803
 9846TIP3   OH251028   2.074   0.957   4.844  0.0048 -0.4677  0.4281
 9846TIP3    H151029   2.041   0.918   4.763  0.1893 -3.0371  1.4945
 9846TIP3    H251030   2.049   0.895   4.912  1.8316  0.4532  2.0299
 9847TIP3   OH251031   2.492   6.636   0.978  0.4803 -0.2773 -0.1818
 9847TIP3    H151032   2.426   6.567   0.983 -0.2382  0.4223  0.4171
 9847TIP3    H251033   2.563   6.606   1.033 -0.4932  0.1260  1.3593
 9848TIP3   OH251034   1.314   3.126   3.823 -0.4757 -0.1856  0.1149
 9848TIP3    H151035   1.406   3.148   3.840  0.2476 -3.0363  0.4190
 9848TIP3    H251036   1.310   3.116   3.728 -0.4538 -0.1702  0.1122
 9849TIP3   OH251037   0.212   3.209   4.469  0.3266  0.0370 -0.4763
 9849TIP3    H151038   0.195   3.116   4.484 -0.2198  0.1598 -0.2992
 9849TIP3    H251039   0.299   3.224   4.506 -0.4886  0.0670  1.5377
 9850TIP3   OH251040   6.464   6.131   3.492  0.0064 -0.2882  0.3924
 9850TIP3    H151041   6.400   6.199   3.512  1.0711  1.0940 -0.6820
 9850TIP3    H251042   6.487   6.145   3.401  1.7860 -0.7518  0.7220
 9851TIP3   OH251043   1.695   1.037  11.621  0.7605  0.2622 -0.7300
 9851TIP3    H151044   1.634   1.056  11.550  0.4329  0.7422 -0.3316
 9851TIP3    H251045   1.730   1.123  11.646  0.9284  0.0898 -0.3659
 9852TIP3   OH251046   5.759   5.274   0.409  0.7191 -0.1368  0.3757
 9852TIP3    H151047   5.761   5.179   0.412  0.4801 -0.1294  1.1264
 9852TIP3    H251048   5.848   5.301   0.431  1.6238 -0.1944 -2.7889
 9853TIP3   OH251049   4.210   3.470   4.718  0.1355  0.0266 -0.0947
 9853TIP3    H151050   4.189   3.484   4.626  0.0879 -0.7912 -0.2105
 9853TIP3    H251051   4.190   3.378   4.734 -1.1402  0.4778  1.0770
 9854TIP3   OH251052   4.107   3.446  14.235 -0.2123  0.0131 -0.3907
 9854TIP3    H151053   4.159   3.367  14.250  1.1249  0.7574 -0.9297
 9854TIP3    H251054   4.025   3.430  14.282  0.1988 -1.5102 -0.1428
 9855TIP3   OH251055   4.529   4.936   4.522 -0.4084 -0.3127 -0.0576
 9855TIP3    H151056   4.584   4.927   4.600 -1.0414 -0.6065  0.3634
 9855TIP3    H251057   4.440   4.923   4.554 -0.6910 -0.2537 -0.8030
 9856TIP3   OH251058   6.401   1.522  12.730  0.2521  0.2058  0.1186
 9856TIP3    H151059   6.435   1.443  12.688 -1.1235 -0.9233  1.0501
 9856TIP3    H251060   6.479   1.567  12.763  1.2634  0.4742 -2.4313
 9857TIP3   OH251061   2.479   2.802  12.939 -0.0961 -0.2377  0.1365
 9857TIP3    H151062   2.517   2.745  12.871  1.9392  1.4827 -0.2734
 9857TIP3    H251063   2.384   2.791  12.929  0.1553 -0.7898 -2.3302
 9858TIP3   OH251064   4.280   2.184  16.300 -0.1159 -0.2578 -0.0040
 9858TIP3    H151065   4.232   2.230  16.368 -0.1000 -0.2365 -0.0079
 9858TIP3    H251066   4.263   2.234  16.220 -0.2971 -0.3977 -0.0536
 9859TIP3   OH251067   2.057   5.267  16.737 -0.1210 -0.2243 -0.7576
 9859TIP3    H151068   2.058   5.277  16.642  0.6847 -0.9179 -0.8377
 9859TIP3    H251069   2.129   5.323  16.767  1.8220 -2.5145 -0.8753
 9860TIP3   OH251070   4.749   2.855   4.127 -0.9652 -0.2651  0.3214
 9860TIP3    H151071   4.662   2.849   4.089 -0.8477 -0.0078  0.0076
 9860TIP3    H251072   4.734   2.857   4.222 -1.4812  2.3497  0.2598
 9861TIP3   OH251073   4.287   2.579   2.319  0.1843  0.2223 -0.2034
 9861TIP3    H151074   4.289   2.489   2.286 -0.7710  1.0042 -2.6755
 9861TIP3    H251075   4.218   2.578   2.386  0.3367 -0.9093 -0.0344
 9862TIP3   OH251076   4.883   5.919   0.957 -0.0724 -0.2786 -0.4675
 9862TIP3    H151077   4.939   5.868   0.898  1.4548  0.8844 -0.0934
 9862TIP3    H251078   4.885   6.008   0.921 -1.1006 -0.0555 -0.0106
 9863TIP3   OH251079   6.355   0.191  13.974  0.0851 -0.1757 -0.0356
 9863TIP3    H151080   6.299   0.121  13.939  0.5678 -0.8822  0.5854
 9863TIP3    H251081   6.391   0.233  13.896 -1.4333  0.4147 -0.4571
 9864TIP3   OH251082   6.196   0.239  12.383 -0.7893  0.1369 -0.1459
 9864TIP3    H151083   6.257   0.300  12.423 -1.1971  1.7689 -1.9028
 9864TIP3    H251084   6.242   0.155  12.384  0.6717  0.9218  0.3105
 9865TIP3   OH251085   1.712   4.554   3.112 -0.1841 -0.3746 -0.5568
 9865TIP3    H151086   1.691   4.464   3.089  1.4899 -0.9127 -0.1108
 9865TIP3    H251087   1.807   4.561   3.100 -0.1593  1.0862  0.2001
 9866TIP3   OH251088   0.259   2.545   1.374 -0.5953 -0.0509 -0.0602
 9866TIP3    H151089   0.204   2.615   1.409  0.1499  0.0519  0.9424
 9866TIP3    H251090   0.198   2.488   1.327 -1.3584  0.7332 -0.0404
 9867TIP3   OH251091   4.574   0.575   5.126 -0.2003  0.3527 -0.2748
 9867TIP3    H151092   4.623   0.503   5.164 -2.0998 -1.2377 -0.6720
 9867TIP3    H251093   4.541   0.625   5.201  1.0277  0.7948  0.0001
 9868TIP3   OH251094   3.197   1.796   5.204 -0.0467 -0.3515 -0.3769
 9868TIP3    H151095   3.221   1.860   5.137  1.1310  0.0687  0.4055
 9868TIP3    H251096   3.143   1.731   5.158 -0.4620  0.6894 -1.3925
 9869TIP3   OH251097   2.125   2.522   5.035  0.2582  0.4221  0.5468
 9869TIP3    H151098   2.123   2.498   4.942  1.0003 -1.0161  0.8729
 9869TIP3    H251099   2.194   2.588   5.040 -0.7806  1.5939 -0.1387
 9870TIP3   OH251100   1.313   4.270  16.945  0.6414 -0.0005 -0.3383
 9870TIP3    H151101   1.279   4.195  16.994  2.0330 -0.7175 -0.4156
 9870TIP3    H251102   1.275   4.260  16.857 -0.7907  0.5464  0.1930
 9871TIP3   OH251103   1.714   4.638   0.030 -0.2256  0.5665 -0.1474
 9871TIP3    H151104   1.624   4.638  -0.004 -0.3055  0.5243  0.0588
 9871TIP3    H251105   1.766   4.681  -0.038 -0.5141  1.1895  0.0201
 9872TIP3   OH251106   5.041   6.145  15.484 -0.2857 -0.4398 -0.3912
 9872TIP3    H151107   5.116   6.085  15.480 -0.0670 -0.1424 -0.8731
 9872TIP3    H251108   5.041   6.177  15.574 -0.3949 -1.1466 -0.1331
 9873TIP3   OH251109   3.363   2.079   2.963 -0.1990 -0.5024  0.3008
 9873TIP3    H151110   3.425   2.054   3.031  1.2635 -0.5088 -0.9632
 9873TIP3    H251111   3.417   2.119   2.895 -1.7605  0.7038 -0.3028
 9874TIP3   OH251112   1.865   6.394  16.108 -0.3360 -0.2548  0.0138
 9874TIP3    H151113   1.952   6.354  16.107 -1.0788 -2.0197  0.8062
 9874TIP3    H251114   1.872   6.468  16.169  0.7840  0.0849 -0.5189
 9875TIP3   OH251115   6.628   0.049   5.957  0.2118 -0.3846 -0.3390
 9875TIP3    H151116   6.648   0.018   6.046  2.1119  0.3437 -0.4558
 9875TIP3    H251117   6.569   0.123   5.971  1.1467  0.2534  0.4075
 9876TIP3   OH251118   1.140   5.322  13.270 -0.5349 -0.0515  0.3244
 9876TIP3    H151119   1.101   5.280  13.346 -0.8059  0.9165  0.7272
 9876TIP3    H251120   1.226   5.280  13.260 -0.1639  0.3594  1.6393
 9877TIP3   OH251121   5.585   3.538  11.725 -0.4017 -0.0329  0.1760
 9877TIP3    H151122   5.662   3.550  11.668  0.8279  0.1677  1.8017
 9877TIP3    H251123   5.532   3.473  11.679  0.8654 -0.3841 -0.8755
 9878TIP3   OH251124   4.560   0.626  12.568 -0.4078 -0.2522 -0.0549
 9878TIP3    H151125   4.476   0.611  12.524 -1.2286 -1.0679  1.7173
 9878TIP3    H251126   4.564   0.720  12.581 -1.6400 -0.3182  0.9268
 9879TIP3   OH251127   6.578   1.078  17.107 -0.4407  0.4487 -0.8031
 9879TIP3    H151128   6.611   1.015  17.171  2.1351  0.9905 -1.4681
 9879TIP3    H251129   6.489   1.048  17.088 -0.4814 -1.0377  1.3014
 9880TIP3   OH251130   3.429   5.072   6.448  0.0168 -0.3855  0.2638
 9880TIP3    H151131   3.448   4.996   6.393 -0.7873 -0.4899  0.1094
 9880TIP3    H251132   3.334   5.082   6.442  0.0159  0.0988  0.9949
 9881TIP3   OH251133   0.179   6.235  16.188 -0.7565 -0.1498  0.0838
 9881TIP3    H151134   0.136   6.295  16.126 -1.2475  2.2507  2.5612
 9881TIP3    H251135   0.107   6.197  16.238 -0.2720  0.9329  1.6812
 9882TIP3   OH251136   6.560   6.761   2.545 -0.3311 -0.5577  0.2673
 9882TIP3    H151137   6.628   6.695   2.564  1.0081  0.2966 -1.2728
 9882TIP3    H251138   6.533   6.792   2.631  2.2439  0.0340  0.9710
 9883TIP3   OH251139   6.270   2.158  14.550  0.3021 -0.3032  0.6699
 9883TIP3    H151140   6.300   2.098  14.618  3.1899  0.0751 -0.1400
 9883TIP3    H251141   6.320   2.238  14.565 -1.0221  0.7454 -0.2861
 9884TIP3   OH251142   3.517   0.865  13.682 -0.3779  0.1791 -0.0484
 9884TIP3    H151143   3.553   0.805  13.616 -0.0664 -1.6888  1.7244
 9884TIP3    H251144   3.424   0.842  13.686 -0.0531 -1.0438  1.4127
 9885TIP3   OH251145   1.064   5.640   3.386 -0.2638 -0.2422  0.1777
 9885TIP3    H151146   1.034   5.570   3.328 -1.7764 -2.2072  3.0702
 9885TIP3    H251147   1.153   5.615   3.409 -0.9918 -1.6770  1.6563
 9886TIP3   OH251148   1.929   4.121   3.803  0.2757 -0.1526  0.1233
 9886TIP3    H151149   1.873   4.045   3.820 -0.4624  0.2836 -0.3041
 9886TIP3    H251150   2.008   4.084   3.763 -0.5206 -0.6083 -1.0773
 9887TIP3   OH251151   0.886   1.032  11.684  0.3699 -0.3116 -0.8533
 9887TIP3    H151152   0.927   1.004  11.602  2.5917 -0.6311  0.2968
 9887TIP3    H251153   0.959   1.061  11.739 -1.2841  2.6227  0.0463
 9888TIP3   OH251154   6.449   4.485  16.310 -0.7579  0.5672 -0.1705
 9888TIP3    H151155   6.423   4.409  16.361 -0.9713  0.5534 -0.3004
 9888TIP3    H251156   6.370   4.510  16.262 -0.2300 -0.1686 -1.4590
 9889TIP3   OH251157   5.655   6.200   0.137  0.1476  0.1106  0.5133
 9889TIP3    H151158   5.634   6.280   0.186  0.2011  0.0182  0.6872
 9889TIP3    H251159   5.581   6.142   0.156  0.4696 -0.1475  0.9743
 9890TIP3   OH251160   6.388   6.200  10.608  0.2970  0.6018  0.5447
 9890TIP3    H151161   6.434   6.150  10.675  0.1182 -2.4311 -1.3832
 9890TIP3    H251162   6.440   6.186  10.529 -1.9561  0.0662 -0.9279
 9891TIP3   OH251163   1.918   5.842  16.666  0.3420 -0.0173 -0.0451
 9891TIP3    H151164   1.870   5.786  16.604  1.4648 -2.7027  1.3307
 9891TIP3    H251165   1.961   5.907  16.611 -0.0972 -1.2161 -1.9109
 9892TIP3   OH251166   3.729   4.807   4.457  0.3028  0.0109 -0.8030
 9892TIP3    H151167   3.736   4.801   4.553 -2.1712 -2.6894 -0.6606
 9892TIP3    H251168   3.697   4.895   4.441 -0.4924  0.0956  0.9906
 9893TIP3   OH251169   0.335   0.539   0.222  0.5211 -0.1122  0.3685
 9893TIP3    H151170   0.256   0.564   0.174  0.6697 -0.5298 -0.1043
 9893TIP3    H251171   0.389   0.618   0.222  0.4609 -0.0679 -0.0323
 9894TIP3   OH251172   3.718   0.811  17.233  0.1014 -0.1219  0.0597
 9894TIP3    H151173   3.722   0.777  17.323  0.9131  0.9304  0.4299
 9894TIP3    H251174   3.753   0.899  17.239 -2.6206  1.1214 -0.7446
 9895TIP3   OH251175   0.401   4.275  15.759  0.7799  0.2514 -0.3065
 9895TIP3    H151176   0.373   4.366  15.769  0.1662 -0.0646  1.1329
 9895TIP3    H251177   0.390   4.257  15.665  0.7985  1.6137 -0.5927
 9896TIP3   OH251178   1.328   4.634   4.769 -0.5716  0.6199  0.1821
 9896TIP3    H151179   1.417   4.666   4.757  0.0412 -0.5364  1.3125
 9896TIP3    H251180   1.326   4.603   4.860 -2.9585  3.1760  1.1587
 9897TIP3   OH251181   4.186   4.769   4.296  0.1247  0.3256 -0.1233
 9897TIP3    H151182   4.180   4.812   4.211 -0.9412  2.1182  0.8107
 9897TIP3    H251183   4.105   4.718   4.303 -0.5392  1.4276  0.4396
 9898TIP3   OH251184   2.590   4.258  14.011  0.0423  0.8489  0.0714
 9898TIP3    H151185   2.562   4.196  13.944 -2.2191  2.8628 -0.9697
 9898TIP3    H251186   2.536   4.237  14.087  0.4743  0.5231  0.3005
 9899TIP3   OH251187   1.642   3.853   5.764 -0.4626 -0.3106  0.1930
 9899TIP3    H151188   1.622   3.760   5.769 -0.1435 -0.3069  2.2804
 9899TIP3    H251189   1.642   3.883   5.855  0.8332  1.4337 -0.3215
 9900TIP3   OH251190   0.187   0.117   6.386 -0.2359  0.1480  0.3119
 9900TIP3    H151191   0.120   0.090   6.322 -0.6404 -0.9625  1.1771
 9900TIP3    H251192   0.138   0.167   6.451 -0.7182 -2.5082  2.1387
 9901TIP3   OH251193   3.282   5.368   4.640 -0.3693  0.2885  0.2483
 9901TIP3    H151194   3.324   5.452   4.662 -0.0360  0.1269  0.2270
 9901TIP3    H251195   3.299   5.312   4.715 -3.3547  1.1977  1.7963
 9902TIP3   OH251196   0.844   4.640  12.936 -0.0827 -0.4935 -0.0912
 9902TIP3    H151197   0.769   4.622  12.991  0.0155 -1.4059 -0.2364
 9902TIP3    H251198   0.882   4.554  12.918  0.6849 -0.0939 -0.4525
 9903TIP3   OH251199   4.621   2.182   0.199 -0.8824 -0.7852  0.0636
 9903TIP3    H151200   4.602   2.099   0.242  3.2355 -0.4508  3.1050
 9903TIP3    H251201   4.661   2.236   0.267  3.8442  0.7918 -3.4150
 9904TIP3   OH251202   5.870   0.062   3.479  0.1262  0.1751 -0.0742
 9904TIP3    H151203   5.785   0.039   3.443 -0.5997  0.1372  1.5746
 9904TIP3    H251204   5.860   0.151   3.511  1.0388  0.5586 -0.7909
 9905TIP3   OH251205   0.186   5.272   6.088  0.1604 -0.4273  0.2886
 9905TIP3    H151206   0.126   5.267   6.162  1.3217  1.5370  1.4379
 9905TIP3    H251207   0.270   5.296   6.127  0.6603  1.3111 -1.7122
 9906TIP3   OH251208   1.266   6.057  10.909  0.4057 -0.4734  0.3997
 9906TIP3    H151209   1.254   6.002  10.986  1.4275 -2.6329 -0.8717
 9906TIP3    H251210   1.349   6.102  10.924  0.1749 -0.2114  0.9113
 9907TIP3   OH251211   5.480   3.880   6.119 -0.0596  0.0270 -0.8278
 9907TIP3    H151212   5.461   3.965   6.159 -0.0151 -0.6406  0.6857
 9907TIP3    H251213   5.399   3.830   6.129 -0.3698  0.1536 -2.4948
 9908TIP3   OH251214   4.401   5.133  15.168  0.2694  0.1612  0.6071
 9908TIP3    H151215   4.344   5.202  15.134 -0.6321 -0.8768 -0.0803
 9908TIP3    H251216   4.396   5.064  15.102  2.6873  0.1959  0.3275
 9909TIP3   OH251217   5.894   0.462  16.645 -0.2021 -0.4175  0.3122
 9909TIP3    H151218   5.843   0.492  16.720  0.8932 -0.1053  0.9552
 9909TIP3    H251219   5.979   0.505  16.655  0.0575 -0.5894 -0.9616
 9910TIP3   OH251220   2.069   6.338  14.921  0.4751 -0.1687 -0.3511
 9910TIP3    H151221   2.087   6.244  14.926 -0.1353 -0.2758 -0.0770
 9910TIP3    H251222   2.145   6.379  14.961  0.6891 -0.5511 -0.3582
 9911TIP3   OH251223   6.353   2.889   3.730  0.5773  0.2296 -0.3831
 9911TIP3    H151224   6.407   2.967   3.740 -1.5755  1.8325 -0.6243
 9911TIP3    H251225   6.339   2.881   3.636 -0.6376  0.6370 -0.2608
 9912TIP3   OH251226   3.581   2.738   6.509  0.1114 -0.4669 -0.3511
 9912TIP3    H151227   3.599   2.729   6.416  1.6274 -0.1540 -0.1199
 9912TIP3    H251228   3.567   2.648   6.540 -0.6632 -0.5490 -0.9075
 9913TIP3   OH251229   3.588   4.116  14.100  0.0524  0.5282 -0.2175
 9913TIP3    H151230   3.610   4.026  14.076  0.2065  0.5599 -0.1937
 9913TIP3    H251231   3.513   4.138  14.044  1.8582  1.4263 -2.4527
 9914TIP3   OH251232   3.215   4.022   4.068 -0.4915 -0.9004  0.1035
 9914TIP3    H151233   3.260   3.967   4.004 -0.4591 -2.5333  1.4631
 9914TIP3    H251234   3.275   4.028   4.142 -1.6858 -1.5475  1.1795
 9915TIP3   OH251235   6.754   3.135   5.887  0.2453  0.0345 -0.9787
 9915TIP3    H151236   6.822   3.198   5.910 -0.1475  0.5063 -1.1113
 9915TIP3    H251237   6.672   3.180   5.904 -0.1359 -1.6609  2.5310
 9916TIP3   OH251238   3.422   5.163   5.755 -0.7011  0.0028  0.7979
 9916TIP3    H151239   3.364   5.089   5.776 -0.9646 -0.6544 -1.8917
 9916TIP3    H251240   3.445   5.150   5.663  0.2932  2.5963  0.6038
 9917TIP3   OH251241   5.843   1.582  13.452  0.0898  0.0129  0.0632
 9917TIP3    H151242   5.787   1.602  13.526 -0.9253 -0.1384 -0.6494
 9917TIP3    H251243   5.881   1.496  13.472  1.6981  0.9991  1.4861
 9918TIP3   OH251244   4.119   2.246   3.474 -0.5495  0.0564 -0.5320
 9918TIP3    H151245   4.178   2.181   3.437 -0.0398 -0.4525  1.0759
 9918TIP3    H251246   4.108   2.311   3.405  2.3140  0.4438 -0.7318
 9919TIP3   OH251247   0.002   3.662   1.940  0.0844  0.1099 -0.4055
 9919TIP3    H151248  -0.088   3.689   1.956  0.2788  0.8211 -0.4718
 9919TIP3    H251249  -0.003   3.605   1.863 -0.3612 -0.2187 -0.1376
 9920TIP3   OH251250   6.436   0.411   0.186  0.0217 -0.1916 -0.7494
 9920TIP3    H151251   6.359   0.376   0.230 -1.5006  2.2030 -1.3473
 9920TIP3    H251252   6.463   0.485   0.240  2.2595 -1.2301 -0.3038
 9921TIP3   OH251253   4.476   5.405   3.400 -1.0539 -0.6900 -0.3501
 9921TIP3    H151254   4.393   5.392   3.445 -1.0845  0.5573  0.0012
 9921TIP3    H251255   4.460   5.379   3.310 -1.2906 -2.2169  0.1175
 9922TIP3   OH251256   1.962   1.657   3.491  0.0053  0.7728  0.0334
 9922TIP3    H151257   2.023   1.730   3.476  2.2768 -1.4195 -2.4328
 9922TIP3    H251258   1.890   1.673   3.431  0.8469  0.6613 -1.0259
 9923TIP3   OH251259   5.381   0.064  13.224 -0.3816  0.2811  0.3040
 9923TIP3    H151260   5.379   0.107  13.310 -0.0418  1.2309 -0.1509
 9923TIP3    H251261   5.403   0.134  13.163 -1.3317 -0.2351 -0.6611
 9924TIP3   OH251262   2.222   3.551   5.834 -0.0545 -0.4659 -0.2666
 9924TIP3    H151263   2.147   3.493   5.844 -0.4268 -0.1864 -1.2600
 9924TIP3    H251264   2.293   3.493   5.805 -0.1808 -0.5630 -0.3804
 9925TIP3   OH251265   6.717   1.694  14.795 -0.1153 -0.3390  0.5128
 9925TIP3    H151266   6.748   1.757  14.730 -2.8889  1.2298  0.5532
 9925TIP3    H251267   6.783   1.697  14.864  2.5479 -1.5490 -1.8194
 9926TIP3   OH251268   4.759   1.400  13.432 -0.1520 -0.0668  0.5626
 9926TIP3    H151269   4.663   1.401  13.428 -0.1429 -0.3419  0.2830
 9926TIP3    H251270   4.786   1.355  13.352  0.2142  0.0821  0.6026
 9927TIP3   OH251271   0.878   0.424  16.673 -0.6457  0.1461 -0.5750
 9927TIP3    H151272   0.804   0.411  16.612 -0.1998 -1.6906 -0.7867
 9927TIP3    H251273   0.877   0.346  16.728  0.2892  0.7763  0.3562
 9928TIP3   OH251274   6.405   6.540   2.164 -0.1439  0.1238 -0.4269
 9928TIP3    H151275   6.428   6.586   2.245  0.5816  0.5008 -0.8337
 9928TIP3    H251276   6.313   6.560   2.151 -0.2427  0.1403  0.2572
 9929TIP3   OH251277   4.962   4.991   1.218  0.1685  0.0076  0.1228
 9929TIP3    H151278   4.944   5.030   1.303 -0.7353 -0.2798  0.0679
 9929TIP3    H251279   4.877   4.989   1.173  0.5689 -0.1581 -0.6512
 9930TIP3   OH251280   5.045   4.859  13.119  0.2477 -0.4823  0.7334
 9930TIP3    H151281   5.113   4.881  13.184  0.7652 -1.3907  0.5169
 9930TIP3    H251282   5.050   4.764  13.111 -2.1993 -0.8053  1.9640
 9931TIP3   OH251283   5.815   0.183  10.945 -0.0238  0.3315  0.0900
 9931TIP3    H151284   5.819   0.107  11.003  2.2363  0.0887 -0.3011
 9931TIP3    H251285   5.741   0.165  10.887  0.6772 -1.7546 -0.2211
 9932TIP3   OH251286   3.650   3.200  17.077 -0.2170  0.0562  0.1791
 9932TIP3    H151287   3.741   3.181  17.102  0.4316  2.8707  0.3115
 9932TIP3    H251288   3.628   3.279  17.126 -1.3926  1.6583 -2.6942
 9933TIP3   OH251289   2.907   2.229   1.893 -0.4677 -0.3572  0.3097
 9933TIP3    H151290   2.965   2.229   1.816 -0.2403  0.7171  0.4654
 9933TIP3    H251291   2.962   2.196   1.964  0.3131  1.6318  0.6868
 9934TIP3   OH251292   4.105   5.956   0.479 -0.0175  0.9019  0.3210
 9934TIP3    H151293   4.065   5.873   0.451 -0.9698  0.5941  2.3603
 9934TIP3    H251294   4.058   6.023   0.430 -0.5705  0.3156  0.0346
 9935TIP3   OH251295   6.413   4.018  17.155  0.6218  0.3243 -0.3473
 9935TIP3    H151296   6.320   3.997  17.161  0.2239  1.9197 -0.5240
 9935TIP3    H251297   6.456   3.952  17.211 -0.5155 -0.8674 -0.8279
 9936TIP3   OH251298   3.542   5.966  11.688  0.5156 -0.0504 -0.1483
 9936TIP3    H151299   3.474   5.913  11.729  1.0078  0.2002  1.0191
 9936TIP3    H251300   3.620   5.949  11.739  1.1052  0.4218 -0.8710
 9937TIP3   OH251301   0.329   3.014   0.448 -0.6213  0.4478 -0.1733
 9937TIP3    H151302   0.292   2.982   0.530 -1.0780  1.5459  0.0700
 9937TIP3    H251303   0.274   3.089   0.425  0.8038  1.4586 -0.3760
 9938TIP3   OH251304   2.331   2.426   3.495 -0.6986 -0.4430  0.1475
 9938TIP3    H151305   2.373   2.398   3.413 -0.4173  1.9276 -0.5958
 9938TIP3    H251306   2.404   2.439   3.555 -0.7637 -0.5005  0.2391
 9939TIP3   OH251307   6.542   0.527   5.475  0.7167  0.0337 -0.0098
 9939TIP3    H151308   6.631   0.494   5.470  1.7450  2.6509 -1.2065
 9939TIP3    H251309   6.515   0.537   5.383  0.2289  1.6583  0.2674
 9940TIP3   OH251310   2.988   6.072   2.705 -0.3357  0.0781  0.4159
 9940TIP3    H151311   2.919   6.028   2.755 -1.2985  2.3339  1.2301
 9940TIP3    H251312   3.015   6.008   2.639 -0.9077 -2.0497  2.1130
 9941TIP3   OH251313   0.966   4.148   0.401  0.2615 -0.0109  0.6004
 9941TIP3    H151314   0.945   4.237   0.431 -0.2987 -0.1307  0.5864
 9941TIP3    H251315   0.976   4.157   0.306 -1.7059 -0.2771  0.3158
 9942TIP3   OH251316   1.255   5.029  15.698  0.1992  0.2306  0.7313
 9942TIP3    H151317   1.334   5.083  15.705  0.1173  0.5264 -0.3924
 9942TIP3    H251318   1.277   4.963  15.632 -0.2676 -0.1054  0.9029
 9943TIP3   OH251319   1.440   3.374  15.735 -0.5578 -0.6744 -0.7535
 9943TIP3    H151320   1.403   3.397  15.649  1.4676 -1.5662 -1.9420
 9943TIP3    H251321   1.499   3.447  15.756 -0.4262 -0.8475 -0.5207
 9944TIP3   OH251322   2.905   0.450   5.401 -0.0283  0.1720 -0.3817
 9944TIP3    H151323   2.879   0.465   5.491 -1.2096 -2.2858 -0.2463
 9944TIP3    H251324   2.996   0.419   5.407 -0.7902 -2.1200  0.2424
 9945TIP3   OH251325   5.225   1.371  12.294  0.0496  0.1674 -0.5523
 9945TIP3    H151326   5.143   1.421  12.290  0.0411  0.2735  0.6349
 9945TIP3    H251327   5.239   1.342  12.204 -0.6969  1.1019 -0.9977
 9946TIP3   OH251328   2.638   3.764   1.816 -0.2851  0.4273  0.3274
 9946TIP3    H151329   2.726   3.738   1.791 -0.2323  1.6232 -0.8490
 9946TIP3    H251330   2.600   3.685   1.855  1.4411  0.0310  1.3282
 9947TIP3   OH251331   2.426   0.156   0.013  0.4993 -0.0159 -0.0186
 9947TIP3    H151332   2.438   0.204  -0.068  1.4571 -2.3722 -1.3861
 9947TIP3    H251333   2.515   0.136   0.043  0.1795 -2.0128 -0.2530
 9948TIP3   OH251334   6.360   1.039   5.352 -0.9825 -0.2796  0.1308
 9948TIP3    H151335   6.454   1.057   5.360 -0.9585 -0.2311 -0.2814
 9948TIP3    H251336   6.318   1.116   5.390 -0.8546 -0.4936  0.7203
 9949TIP3   OH251337   3.820   4.164  13.758 -0.3811  0.0864  0.3405
 9949TIP3    H151338   3.911   4.172  13.789 -0.7545  0.4129  1.4211
 9949TIP3    H251339   3.770   4.220  13.818 -1.0121  1.6825 -1.5831
 9950TIP3   OH251340   2.912   1.963   2.711  0.5616  0.0819 -0.6528
 9950TIP3    H151341   2.929   1.881   2.758  0.3344  0.1102 -0.5190
 9950TIP3    H251342   2.970   2.027   2.752 -0.4303  0.3675  0.3450
 9951TIP3   OH251343   1.918   0.525   5.190  0.1900  0.0023 -0.6913
 9951TIP3    H151344   1.947   0.489   5.273 -1.1430 -0.8108 -0.5556
 9951TIP3    H251345   1.831   0.561   5.207 -1.1790 -2.3206 -2.2034
 9952TIP3   OH251346   5.122   4.432   1.951  0.4277  0.5910 -0.1011
 9952TIP3    H151347   5.105   4.431   1.856 -1.8880  0.7978  0.2403
 9952TIP3    H251348   5.190   4.366   1.964  0.5403  0.2950 -1.8699
 9953TIP3   OH251349   0.740   1.744  11.824 -0.8188 -0.4448  0.1397
 9953TIP3    H151350   0.670   1.715  11.882 -1.5533  1.6685  0.4054
 9953TIP3    H251351   0.702   1.736  11.736 -2.1685  2.3261  0.3597
 9954TIP3   OH251352   6.188   5.373   2.115  0.2646 -0.0306  0.4381
 9954TIP3    H151353   6.099   5.354   2.084  0.5014  0.4055 -0.5119
 9954TIP3    H251354   6.245   5.329   2.053  0.7909  2.4488 -0.9612
 9955TIP3   OH251355   4.227   0.249  11.139 -0.5992 -0.1814  0.0896
 9955TIP3    H151356   4.163   0.312  11.108 -1.5603  0.4629  3.0125
 9955TIP3    H251357   4.175   0.177  11.176  0.4550 -1.4776 -0.8125
 9956TIP3   OH251358   1.869   1.894   4.674  0.5550 -0.3617  0.3217
 9956TIP3    H151359   1.955   1.851   4.680  1.0822  0.7150  0.8081
 9956TIP3    H251360   1.811   1.827   4.639  0.8759 -2.1210  2.8676
 9957TIP3   OH251361   0.323   4.324   1.818  0.1355 -0.2474  0.1799
 9957TIP3    H151362   0.377   4.394   1.854 -0.9884  0.0492  1.3742
 9957TIP3    H251363   0.382   4.274   1.761  1.5105  0.3744  1.0124
 9958TIP3   OH251364   4.105   0.845   2.449 -0.4547 -0.7345  0.0992
 9958TIP3    H151365   4.059   0.809   2.524  0.1888 -0.4610  0.6390
 9958TIP3    H251366   4.194   0.810   2.457 -0.0843  0.1785  0.0930
 9959TIP3   OH251367   3.888   2.566   1.432  0.1190  0.4091  0.1693
 9959TIP3    H151368   3.802   2.543   1.397  0.9584 -1.4935 -0.7914
 9959TIP3    H251369   3.904   2.501   1.501  2.1058 -1.4676 -1.8794
 9960TIP3   OH251370   1.229   4.186   5.155  0.4309 -0.8499 -0.3972
 9960TIP3    H151371   1.210   4.175   5.248 -0.2985 -2.0870 -0.6748
 9960TIP3    H251372   1.285   4.112   5.133  0.2037 -0.8339 -1.0518
 9961TIP3   OH251373   5.785   2.559  15.396  0.1883  0.2478 -0.4420
 9961TIP3    H151374   5.711   2.619  15.392  0.0624  0.1126 -0.2291
 9961TIP3    H251375   5.779   2.520  15.484  0.7072  0.4826 -0.2972
 9962TIP3   OH251376   3.163   0.397  14.952 -0.3142  0.2885 -0.2509
 9962TIP3    H151377   3.220   0.388  14.876 -0.1552 -0.0727 -0.0912
 9962TIP3    H251378   3.075   0.380  14.919 -0.3069  0.6469 -0.4575
 9963TIP3   OH251379   0.502   1.356  16.815 -0.2564  0.6134 -0.5584
 9963TIP3    H151380   0.511   1.313  16.730 -0.4590 -0.1694 -0.1962
 9963TIP3    H251381   0.490   1.284  16.877  1.4801  1.0583  0.3608
 9964TIP3   OH251382   6.482   3.021   3.077  0.3616  0.1632 -0.0139
 9964TIP3    H151383   6.550   3.058   3.021 -0.8128  1.7052 -0.4813
 9964TIP3    H251384   6.511   2.931   3.093  2.8285  0.9367  0.3342
 9965TIP3   OH251385   4.080   0.972   5.928 -0.5684  0.3705 -0.4364
 9965TIP3    H151386   4.121   0.976   5.842  0.3604  1.6651  0.0478
 9965TIP3    H251387   4.048   1.060   5.944  0.3691  0.4709  1.0557
 9966TIP3   OH251388   6.614   3.277   2.292  0.5819 -0.0950 -0.2645
 9966TIP3    H151389   6.582   3.303   2.205  0.8796 -1.4028 -0.8036
 9966TIP3    H251390   6.604   3.182   2.293 -0.7463  0.0189  1.7045
 9967TIP3   OH251391   1.695   4.434   4.870 -0.3144  0.0194  0.2472
 9967TIP3    H151392   1.717   4.451   4.778  0.9275  0.0543  0.5246
 9967TIP3    H251393   1.730   4.346   4.887  0.5811  0.5043  1.0021
 9968TIP3   OH251394   3.879   6.499  15.610 -0.3652  0.3769  0.0050
 9968TIP3    H151395   3.800   6.522  15.560 -0.6210 -0.2490  0.1132
 9968TIP3    H251396   3.895   6.575  15.666 -1.4345  0.1553  0.6470
 9969TIP3   OH251397   6.228   1.969   6.942 -0.1962 -0.4118  0.0701
 9969TIP3    H151398   6.208   1.947   6.851  3.3320  1.7611 -1.4729
 9969TIP3    H251399   6.269   1.890   6.977  1.2156 -0.3755 -1.3385
 9970TIP3   OH251400   5.164   4.856   4.505 -0.2564 -0.6366 -0.3271
 9970TIP3    H151401   5.089   4.864   4.446  0.3518  0.2905 -1.0237
 9970TIP3    H251402   5.232   4.908   4.462  0.5262 -0.8003  0.6947
 9971TIP3   OH251403   2.569   5.613  12.088 -0.1563 -0.5476  0.0601
 9971TIP3    H151404   2.529   5.555  12.023 -0.8235 -0.8056  0.6900
 9971TIP3    H251405   2.645   5.650  12.043 -1.5342  0.5854 -1.4339
 9972TIP3   OH251406   1.167   5.573  13.058 -0.0746  0.0377  0.1281
 9972TIP3    H151407   1.086   5.619  13.035  0.2440  0.5511  0.0049
 9972TIP3    H251408   1.228   5.643  13.083  0.8226 -0.1804 -1.2829
 9973TIP3   OH251409   3.238   2.894   4.939  0.5843  0.3172 -0.6470
 9973TIP3    H151410   3.318   2.905   4.887  0.7055  2.5102 -0.0634
 9973TIP3    H251411   3.187   2.973   4.923 -0.7261 -0.3002  0.2907
 9974TIP3   OH251412   0.713   2.514   4.207 -0.1994  0.2318  0.2087
 9974TIP3    H151413   0.714   2.535   4.114 -1.3305  0.0481  0.1364
 9974TIP3    H251414   0.748   2.591   4.250  0.2465  0.3522 -0.3684
 9975TIP3   OH251415   2.535   6.620  14.293 -0.4192 -0.1782  0.3660
 9975TIP3    H151416   2.521   6.626  14.387 -0.4221  0.8465  0.3101
 9975TIP3    H251417   2.609   6.679  14.276  1.4108 -2.4179  0.0893
 9976TIP3   OH251418   2.510   5.830  14.563  0.1173  0.0939  0.0480
 9976TIP3    H151419   2.471   5.906  14.607 -0.8820 -0.5068  0.2301
 9976TIP3    H251420   2.585   5.808  14.617 -0.2459  0.2711  0.6409
 9977TIP3   OH251421   3.520   5.905   4.950 -0.1833  0.8623  0.3091
 9977TIP3    H151422   3.464   5.831   4.929  1.1964 -0.4461  1.0535
 9977TIP3    H251423   3.561   5.930   4.867  0.1013  0.1369  0.2309
 9978TIP3   OH251424   0.349   5.762   5.815 -0.1913  0.3422  0.1765
 9978TIP3    H151425   0.317   5.816   5.888  1.5382  1.7026  0.0034
 9978TIP3    H251426   0.340   5.818   5.738 -0.1715 -0.3526 -0.3409
 9979TIP3   OH251427   5.783   1.727   0.299 -0.2510 -0.6096  0.1287
 9979TIP3    H151428   5.752   1.650   0.252 -2.4120 -1.1234  2.1986
 9979TIP3    H251429   5.875   1.708   0.318 -0.8073 -2.8562  0.8295
 9980TIP3   OH251430   1.873   1.189  10.560  0.2473 -0.2234 -1.0754
 9980TIP3    H151431   1.803   1.127  10.582  0.0261 -0.3026 -1.9557
 9980TIP3    H251432   1.828   1.271  10.543  0.6201  0.4558  0.9850
 9981TIP3   OH251433   5.462   2.015   5.449 -0.5454 -0.4830  0.1888
 9981TIP3    H151434   5.405   2.065   5.391 -0.0424  2.6215  2.1664
 9981TIP3    H251435   5.414   2.012   5.533  0.7271 -0.7279  0.9319
 9982TIP3   OH251436   5.135   0.285   5.134 -0.1184 -0.0493  0.1845
 9982TIP3    H151437   5.190   0.213   5.162  1.2146  0.0540 -1.9106
 9982TIP3    H251438   5.158   0.358   5.192  2.1543  0.0356 -0.7318
 9983TIP3   OH251439   3.693   6.392  11.866  0.0994  0.2906 -0.2277
 9983TIP3    H151440   3.712   6.298  11.859  0.9488  0.5425 -1.6934
 9983TIP3    H251441   3.779   6.434  11.865 -0.1403  1.0521  2.2954
 9984TIP3   OH251442   0.789   0.590   4.400  0.7560 -0.0656 -0.0351
 9984TIP3    H151443   0.867   0.641   4.377 -0.5443  1.2265 -1.8098
 9984TIP3    H251444   0.717   0.652   4.392 -0.5300 -1.3411  1.1584
 9985TIP3   OH251445   5.251   1.254  16.315 -0.0280 -0.1308 -0.5579
 9985TIP3    H151446   5.268   1.213  16.401 -2.7844  0.2836  0.2869
 9985TIP3    H251447   5.284   1.190  16.252  1.7356 -0.6208  0.7581
 9986TIP3   OH251448   0.420   5.688   5.361  0.3179  0.1813  0.1133
 9986TIP3    H151449   0.408   5.769   5.411  2.0592 -0.2756  1.3705
 9986TIP3    H251450   0.423   5.619   5.428  1.3693 -0.6144 -0.7196
 9987TIP3   OH251451   2.170   4.917  14.677  0.1898  0.8648 -0.1283
 9987TIP3    H151452   2.235   4.851  14.654 -0.5406  0.0478  0.1010
 9987TIP3    H251453   2.115   4.924  14.599 -0.1274  0.7175  0.0807
 9988TIP3   OH251454   0.863   3.729  14.223 -0.1174 -0.2266  0.0547
 9988TIP3    H151455   0.771   3.714  14.204  0.3425  0.2279 -3.1254
 9988TIP3    H251456   0.865   3.811  14.272 -1.3843 -0.5479  0.6860
 9989TIP3   OH251457   1.295   3.956   0.233 -0.2968  0.2132 -0.1250
 9989TIP3    H151458   1.333   3.869   0.246  1.3890  0.9424  0.0532
 9989TIP3    H251459   1.243   3.947   0.153  1.8047 -0.3865 -1.5272
 9990TIP3   OH251460   4.830   1.715   5.524 -0.4645 -0.5240 -0.1675
 9990TIP3    H151461   4.768   1.769   5.573 -0.2910  0.8791 -1.4098
 9990TIP3    H251462   4.916   1.754   5.543 -0.5312  1.2130 -2.8368
 9991TIP3   OH251463   5.802   6.683   2.513  0.3816 -0.1620  0.0710
 9991TIP3    H151464   5.738   6.616   2.489 -0.6393  1.2537 -1.3298
 9991TIP3    H251465   5.819   6.667   2.606 -2.8611  0.0541  0.8172
 9992TIP3   OH251466   1.536   4.770   4.512 -0.4234  0.0082 -0.2777
 9992TIP3    H151467   1.465   4.724   4.466 -0.0406 -0.4295 -0.4359
 9992TIP3    H251468   1.542   4.854   4.467 -1.9055  0.7081  0.7474
 9993TIP3   OH251469   2.031   3.866   0.953 -0.3858 -0.8290  0.8629
 9993TIP3    H151470   2.006   3.784   0.995 -1.7549 -0.1881  1.3495
 9993TIP3    H251471   1.987   3.934   1.004  1.3394  0.2935  0.9608
 9994TIP3   OH251472   4.654   1.255  12.002 -0.5273  0.3073 -0.1537
 9994TIP3    H151473   4.628   1.339  11.963 -0.3537 -0.5507 -2.2631
 9994TIP3    H251474   4.747   1.247  11.983 -0.6363 -0.5609 -0.3702
 9995TIP3   OH251475   5.438   4.862   0.594  0.5172  0.5080 -0.8176
 9995TIP3    H151476   5.431   4.945   0.547  0.6420  0.5646 -0.7354
 9995TIP3    H251477   5.532   4.846   0.600  0.5028  0.5271 -0.5411
 9996TIP3   OH251478   1.779   6.396   3.411  0.4429  0.0360  0.8571
 9996TIP3    H151479   1.697   6.405   3.459 -0.2154  0.1955 -0.2645
 9996TIP3    H251480   1.827   6.477   3.429 -0.2564  0.5600  0.4080
 9997TIP3   OH251481   5.553   4.952  17.098 -0.0194  0.2170 -0.4326
 9997TIP3    H151482   5.537   5.041  17.066 -0.3280  0.3878  0.1967
 9997TIP3    H251483   5.649   4.947  17.107 -0.1086  1.1471  1.3919
 9998TIP3   OH251484   4.539   3.627  17.035 -0.5121  0.3369  0.6085
 9998TIP3    H151485   4.461   3.681  17.047  0.0489  1.1497  0.7082
 9998TIP3    H251486   4.586   3.668  16.962  0.0403  0.1236  0.8387
 9999TIP3   OH251487   1.358   6.198  12.016  0.2151 -0.2363  0.3157
 9999TIP3    H151488   1.367   6.256  12.091 -2.4852  0.5372  0.1521
 9999TIP3    H251489   1.422   6.231  11.952  0.7175  0.7417  1.2979
10000TIP3   OH251490   4.809   2.010   5.620 -0.2878 -0.8498  0.0001
10000TIP3    H151491   4.864   2.084   5.595  0.9420 -0.7702  2.5911
10000TIP3    H251492   4.723   2.031   5.585  0.2731  1.3361 -0.1887
10001TIP3   OH251493   4.598   3.486  12.483  0.1051 -0.4247 -0.3747
10001TIP3    H151494   4.563   3.525  12.563 -0.5955 -1.4488 -0.1592
10001TIP3    H251495   4.657   3.417  12.514  1.9441  0.9072 -0.7397
10002TIP3   OH251496   4.480   1.668  15.668 -0.2376  0.5692  0.4228
10002TIP3    H151497   4.468   1.618  15.749  0.9649 -0.2562  0.1301
10002TIP3    H251498   4.575   1.682  15.663 -0.3563  1.1282 -0.5404
10003TIP3   OH251499   4.014   1.498  14.019  0.1411  0.0514  0.3739
10003TIP3    H151500   4.079   1.556  14.058 -0.3728  1.1248 -0.3189
10003TIP3    H251501   3.964   1.554  13.960 -0.9370 -0.9079  0.3351
10004TIP3   OH251502   1.802   4.845  13.615 -0.4248 -0.2001  0.4339
10004TIP3    H151503   1.818   4.920  13.672 -0.2022  1.7833 -2.0790
10004TIP3    H251504   1.745   4.787  13.667 -0.6311  1.6995  2.4517
10005TIP3   OH251505   5.505   6.108  15.742  0.0983  0.1547  0.1690
10005TIP3    H151506   5.529   6.194  15.778 -0.7402 -0.1436  1.5062
10005TIP3    H251507   5.466   6.128  15.657 -1.8600  1.3277  1.2582
10006TIP3   OH251508   5.571   2.240   1.405  0.3529  1.1822  0.4478
10006TIP3    H151509   5.492   2.189   1.387  0.8715 -0.3791  2.2417
10006TIP3    H251510   5.609   2.257   1.318  0.8908 -2.7789 -0.3055
10007TIP3   OH251511   3.992   5.767  12.026 -0.3296  0.2560 -0.1670
10007TIP3    H151512   4.063   5.797  12.082  1.8480 -0.6300 -2.2944
10007TIP3    H251513   3.912   5.786  12.076  1.3774  0.7908  2.5609
10008TIP3   OH251514   4.782   6.221   2.967 -0.2284  0.3751  0.5263
10008TIP3    H151515   4.751   6.182   2.885 -0.9022 -0.0743  0.9817
10008TIP3    H251516   4.724   6.295   2.982 -0.1800  0.3881  0.6509
10009TIP3   OH251517   1.995   0.858  13.635 -0.1573 -0.0645  0.5179
10009TIP3    H151518   2.046   0.891  13.561  0.3033  0.6728  1.1563
10009TIP3    H251519   1.929   0.801  13.595  0.7030 -0.4647 -0.3829
10010TIP3   OH251520   6.717   3.866  16.549 -0.3543 -0.4474 -0.4104
10010TIP3    H151521   6.764   3.807  16.608 -3.1330 -2.6557 -0.1656
10010TIP3    H251522   6.743   3.839  16.461  1.3137  0.6577 -0.2984
10011TIP3   OH251523   5.040   6.269  13.329 -0.7257 -0.1622  0.3067
10011TIP3    H151524   5.069   6.359  13.312 -0.7097  0.4412  3.1029
10011TIP3    H251525   5.114   6.215  13.301 -0.4056  0.7138 -0.6333
10012TIP3   OH251526   0.774   0.578   0.167  0.1172  0.1853  0.1010
10012TIP3    H151527   0.772   0.643   0.097 -0.0508  2.0402  1.7336
10012TIP3    H251528   0.682   0.563   0.189  0.1810  1.7902  1.7434
10013TIP3   OH251529   1.839   5.385  16.863  0.4608 -0.0650 -0.1746
10013TIP3    H151530   1.904   5.334  16.814  0.4308  0.8477 -1.1870
10013TIP3    H251531   1.755   5.348  16.837  0.5117 -0.5702  0.3556
10014TIP3   OH251532   2.487   0.451  13.404  0.0049 -0.3856  0.5146
10014TIP3    H151533   2.534   0.391  13.462 -0.2697 -2.0996 -0.9163
10014TIP3    H251534   2.398   0.453  13.438  0.1073 -0.4889  0.7896
10015TIP3   OH251535   5.883   3.439   3.261 -0.2345 -0.4314 -0.3419
10015TIP3    H151536   5.815   3.428   3.327 -0.4428 -0.4717 -0.5622
10015TIP3    H251537   5.878   3.361   3.207 -0.0085 -0.4371 -0.3568
10016TIP3   OH251538   4.166   2.270   3.969  0.0445  0.3043  0.2848
10016TIP3    H151539   4.100   2.289   4.036 -0.9868  0.7844 -0.8164
10016TIP3    H251540   4.116   2.267   3.888  0.8464 -2.8383 -0.1902
10017TIP3   OH251541   0.490   3.553   2.399 -0.2233 -0.4666 -0.7821
10017TIP3    H151542   0.519   3.514   2.317 -0.2407 -0.2911 -0.8724
10017TIP3    H251543   0.420   3.495   2.429  0.5006 -1.1301 -0.3419
10018TIP3   OH251544   5.440   5.474   5.421  0.4083 -0.6399  0.1239
10018TIP3    H151545   5.359   5.465   5.371 -0.3154  3.5237  0.1028
10018TIP3    H251546   5.410   5.496   5.510  1.4717  0.4867  0.2331
10019TIP3   OH251547   6.471   0.201  11.306  0.7664  0.0119 -0.0324
10019TIP3    H151548   6.407   0.215  11.375  0.6443  1.5096 -0.4251
10019TIP3    H251549   6.432   0.134  11.249  0.5718 -0.7283  0.9390
10020TIP3   OH251550   0.087   0.052   5.995  0.2081  0.2458  0.0646
10020TIP3    H151551   0.027   0.065   5.921 -0.7168 -1.0239  0.5593
10020TIP3    H251552   0.037   0.079   6.072  1.1196  1.4179  0.2768
10021TIP3   OH251553   4.474   0.253   4.672 -0.3967 -0.5749 -0.4816
10021TIP3    H151554   4.553   0.203   4.693 -1.6676 -2.4848  0.0009
10021TIP3    H251555   4.413   0.189   4.636 -2.6221  0.2795  1.4674
10022TIP3   OH251556   0.855   6.705   5.740 -0.1918 -0.3228 -0.5133
10022TIP3    H151557   0.890   6.735   5.825 -0.7927  0.6862 -0.5962
10022TIP3    H251558   0.774   6.659   5.763  0.1546 -0.9181 -0.4710
10023TIP3   OH251559   2.843   1.337  11.637  0.3418  0.2693 -0.2408
10023TIP3    H151560   2.938   1.349  11.628  0.3870 -0.3782 -0.7505
10023TIP3    H251561   2.826   1.350  11.730  1.0568 -0.3768 -0.0037
10024TIP3   OH251562   2.008   2.687   3.761  0.0337  0.0854  0.0151
10024TIP3    H151563   2.011   2.761   3.821 -0.6409 -1.4267  2.0374
10024TIP3    H251564   2.085   2.634   3.785  0.9691  0.4617 -1.9434
10025TIP3   OH251565   0.123   1.142  14.711 -0.0028  0.1213  0.2613
10025TIP3    H151566   0.038   1.125  14.670  0.1878 -0.3773  0.0652
10025TIP3    H251567   0.102   1.171  14.799 -0.3350 -1.8337  0.8733
10026TIP3   OH251568   1.307   1.827   0.115 -0.3802 -0.2394 -0.4560
10026TIP3    H151569   1.380   1.885   0.136  0.5979 -1.3472 -0.6360
10026TIP3    H251570   1.349   1.749   0.077 -1.5664 -1.4322  0.5590
10027TIP3   OH251571   4.695   3.719   3.838  0.1161 -0.3302  0.3935
10027TIP3    H151572   4.664   3.751   3.922  0.3887 -0.7018  0.6363
10027TIP3    H251573   4.685   3.794   3.779  1.9044  0.6316  1.2207
10028TIP3   OH251574   6.389   3.427   1.778 -0.0666 -0.4321 -0.0804
10028TIP3    H151575   6.317   3.445   1.717 -0.1198 -0.2771  0.0272
10028TIP3    H251576   6.402   3.510   1.824 -1.4312 -1.1301  1.6278
10029TIP3   OH251577   1.828   6.383   2.306 -0.1068 -0.4951 -0.4650
10029TIP3    H151578   1.825   6.375   2.402 -0.5526  0.0003 -0.4302
10029TIP3    H251579   1.882   6.310   2.277  0.4546 -0.3598  0.2059
10030TIP3   OH251580   6.640   4.651   3.825 -0.2066  0.0974  0.2130
10030TIP3    H151581   6.724   4.618   3.857  0.6433  2.4050  0.6124
10030TIP3    H251582   6.657   4.674   3.734 -0.6171 -0.0723  0.0921
10031TIP3   OH251583   5.247   3.799   0.364  0.1707 -0.0884  0.4928
10031TIP3    H151584   5.324   3.743   0.370  0.2846  0.1081  0.9225
10031TIP3    H251585   5.186   3.751   0.308 -0.4299 -1.4335  2.2396
10032TIP3   OH251586   3.673   6.627   2.814  0.1963  0.1544  0.1821
10032TIP3    H151587   3.591   6.646   2.767 -0.5555  0.0349  1.4103
10032TIP3    H251588   3.737   6.686   2.775 -0.0830 -0.7416 -1.8219
10033TIP3   OH251589   1.818   3.775   5.450 -0.2318  0.6402  0.2569
10033TIP3    H151590   1.729   3.811   5.445 -0.1957  0.6008 -0.8092
10033TIP3    H251591   1.810   3.685   5.418  0.2261  0.7134 -0.0784
10034TIP3   OH251592   2.223   4.082   1.988  0.1483 -0.2377 -0.0837
10034TIP3    H151593   2.281   4.039   2.050 -0.2794 -1.7532 -0.6891
10034TIP3    H251594   2.262   4.065   1.902  0.6427  1.6851 -0.2703
10035TIP3   OH251595   1.009   4.443  11.800 -0.1923  0.2054 -0.1149
10035TIP3    H151596   0.945   4.373  11.815 -1.0192  0.5301 -1.8438
10035TIP3    H251597   1.094   4.399  11.804 -0.6727 -0.8078 -0.6927
10036TIP3   OH251598   5.040   1.992  11.471 -0.5156  0.7869 -0.8887
10036TIP3    H151599   5.061   2.031  11.556 -1.8481  2.1973 -1.1572
10036TIP3    H251600   5.041   1.898  11.487  1.1090  0.9413  0.2096
10037TIP3   OH251601   5.523   4.338  14.257  0.3762  0.4829  0.2545
10037TIP3    H151602   5.610   4.299  14.266  1.0562  0.9485 -3.0805
10037TIP3    H251603   5.537   4.419  14.208 -1.8233  1.1350  0.5798
10038TIP3   OH251604   0.422   6.537   2.539  0.4118 -0.2293  0.1216
10038TIP3    H151605   0.443   6.603   2.605 -0.4961  0.2014 -0.0019
10038TIP3    H251606   0.499   6.533   2.482  0.8809 -0.0338  0.7410
10039TIP3   OH251607   2.951   5.526   2.379  0.6607  0.0505  0.0190
10039TIP3    H151608   2.968   5.548   2.470  0.7738  0.5627 -0.1206
10039TIP3    H251609   2.983   5.601   2.329  2.0347 -0.8810 -0.5718
10040TIP3   OH251610   2.337   5.794   0.696 -0.0040 -0.2436 -0.3232
10040TIP3    H151611   2.428   5.821   0.686  0.7902 -2.8769 -0.8593
10040TIP3    H251612   2.292   5.873   0.726  2.9659  0.4119  3.0411
10041TIP3   OH251613   3.908   3.270  15.217 -0.2263 -0.3059 -0.4588
10041TIP3    H151614   3.878   3.203  15.279  0.7324  0.2657  0.6787
10041TIP3    H251615   3.890   3.234  15.131  0.8504 -2.3166  0.1096
10042TIP3   OH251616   4.853   5.605   1.724  0.2073 -0.0425  0.0205
10042TIP3    H151617   4.796   5.599   1.647  1.5080 -0.5433 -0.9262
10042TIP3    H251618   4.932   5.649   1.692 -0.0849  1.7475  1.5844
10043TIP3   OH251619   6.173   3.001  11.812  0.0455 -0.7304  0.2189
10043TIP3    H151620   6.214   3.075  11.856 -0.8861 -0.3273  0.4348
10043TIP3    H251621   6.125   2.955  11.881 -0.5794 -0.6836 -0.1682
10044TIP3   OH251622   0.999   5.713   1.608  0.6848 -0.0942  0.4354
10044TIP3    H151623   1.068   5.779   1.605  0.6701 -0.1012 -0.9455
10044TIP3    H251624   1.017   5.657   1.532  0.0275 -0.9830  0.9274
10045TIP3   OH251625   5.361   1.391  15.677  0.7389 -0.0083  0.1998
10045TIP3    H151626   5.350   1.313  15.622  0.8728  0.8193 -1.0453
10045TIP3    H251627   5.455   1.396  15.693  0.6915 -0.2934  0.5985
10046TIP3   OH251628   3.029   5.691   1.577  0.2889 -0.1142 -0.5935
10046TIP3    H151629   2.989   5.659   1.496 -1.5411  1.9813 -0.6251
10046TIP3    H251630   3.037   5.613   1.632  1.5675 -1.6012 -2.7105
10047TIP3   OH251631   2.898   6.741  14.103 -0.0269  1.1026  0.5855
10047TIP3    H151632   2.978   6.763  14.150  0.5885 -1.9282  1.1794
10047TIP3    H251633   2.830   6.792  14.147  0.9445  0.3693  3.1263
10048TIP3   OH251634   2.816   3.576  14.976  0.2792 -0.2140 -0.3384
10048TIP3    H151635   2.893   3.591  14.922 -0.6826  1.5888 -1.2714
10048TIP3    H251636   2.789   3.486  14.955  3.0311 -1.5753  1.2945
10049TIP3   OH251637   2.013   5.718   4.224  0.0011 -0.7532 -0.1666
10049TIP3    H151638   1.977   5.663   4.154  1.3573 -0.9298 -0.7474
10049TIP3    H251639   2.053   5.792   4.177  1.4872 -1.1961  0.3693
10050TIP3   OH251640   1.157   4.011  12.871 -0.6240 -0.8653  0.3135
10050TIP3    H151641   1.239   4.004  12.821  0.9356  0.5432  2.5131
10050TIP3    H251642   1.148   3.926  12.914 -0.4723 -1.1195 -0.1429
10051TIP3   OH251643   2.931   2.257  12.218  0.7161  0.4110 -0.1295
10051TIP3    H151644   2.850   2.272  12.168  0.7465  0.7272 -0.0835
10051TIP3    H251645   2.949   2.164  12.206  1.2104  0.6491 -1.4563
10052TIP3   OH251646   3.245   4.467  16.811 -0.2549  0.1554 -0.5212
10052TIP3    H151647   3.183   4.540  16.807 -1.2557 -0.6746 -0.9397
10052TIP3    H251648   3.263   4.447  16.719 -2.2273 -1.8904 -0.5671
10053TIP3   OH251649   1.641   5.319   2.751 -0.3728  0.6203  0.5988
10053TIP3    H151650   1.702   5.250   2.779 -0.0837  1.3458  1.8636
10053TIP3    H251651   1.631   5.306   2.657 -0.0502 -0.9224  0.7441
10054TIP3   OH251652   5.313   0.504   0.687 -0.3758  0.3074 -0.2442
10054TIP3    H151653   5.358   0.576   0.730 -0.6922 -0.3886  1.3103
10054TIP3    H251654   5.273   0.454   0.758  1.4531 -2.5175 -1.0301
10055TIP3   OH251655   0.341   3.681  14.167 -0.8318  0.0173 -0.1277
10055TIP3    H151656   0.392   3.654  14.243 -2.7781  1.2360  1.7149
10055TIP3    H251657   0.407   3.696  14.098  1.1953  0.7138  1.8433
10056TIP3   OH251658   6.713   0.648  12.295  0.1335  0.4909  0.1758
10056TIP3    H151659   6.625   0.686  12.306 -1.3158 -1.5911 -2.8395
10056TIP3    H251660   6.707   0.561  12.335  2.1135  1.6059  3.2572
10057TIP3   OH251661   3.778   5.158   3.818  0.5695 -0.0446  0.5035
10057TIP3    H151662   3.777   5.114   3.903  0.6801  0.1666  0.6159
10057TIP3    H251663   3.755   5.090   3.755  1.7850 -0.5229  0.5517
10058TIP3   OH251664   2.141   1.086   5.615  0.5021 -0.0300 -0.2425
10058TIP3    H151665   2.185   1.086   5.530 -1.5159  0.1885 -1.3676
10058TIP3    H251666   2.099   1.000   5.621  1.2149 -0.3123  0.8779
10059TIP3   OH251667   2.706   0.910   3.001 -0.6396 -0.3526  0.0759
10059TIP3    H151668   2.641   0.852   2.961 -2.1170  0.6202  0.9862
10059TIP3    H251669   2.676   0.998   2.978  0.5306  0.1088  0.2751
10060TIP3   OH251670   0.015   5.074   4.351 -0.3716 -0.2523 -0.1646
10060TIP3    H151671   0.102   5.073   4.391  1.0050  1.2136 -2.8818
10060TIP3    H251672  -0.029   5.148   4.392  0.7991  0.8744 -0.8896
10061TIP3   OH251673   6.692   1.948   0.645 -0.2066  0.2394  0.2415
10061TIP3    H151674   6.712   1.857   0.625  1.2832  1.0428 -2.5168
10061TIP3    H251675   6.602   1.961   0.616 -0.1897 -0.2047 -0.0070
10062TIP3   OH251676   2.453   3.832   6.426 -0.0024  0.2787  0.3559
10062TIP3    H151677   2.491   3.841   6.339 -0.7772  0.8657  0.0631
10062TIP3    H251678   2.527   3.813   6.483  0.2790 -2.1049 -0.7163
10063TIP3   OH251679   1.646   4.726  12.629 -0.6300  0.0134  0.1745
10063TIP3    H151680   1.587   4.801  12.631 -0.7601 -0.1028  0.7270
10063TIP3    H251681   1.629   4.679  12.711 -1.1393 -1.0700 -0.5276
10064TIP3   OH251682   3.946   0.124  15.431 -0.5711 -0.6258  0.1030
10064TIP3    H151683   3.861   0.112  15.473 -0.1768 -0.7237  0.9070
10064TIP3    H251684   3.928   0.176  15.353 -1.5982 -2.0593 -0.6564
10065TIP3   OH251685   4.032   2.977  14.100 -0.3336  0.3345  0.4786
10065TIP3    H151686   4.011   3.037  14.028 -1.2269  1.0830  1.3366
10065TIP3    H251687   4.031   2.890  14.061  0.4203  0.8198 -0.6706
10066TIP3   OH251688   4.952   3.408  11.871  0.0519  0.1848  0.5287
10066TIP3    H151689   4.953   3.478  11.805 -0.9184 -1.1839 -1.0162
10066TIP3    H251690   4.912   3.449  11.948  2.9331  2.3732  1.0367
10067TIP3   OH251691   4.806   5.762   4.595 -0.7302  0.5005 -0.2365
10067TIP3    H151692   4.824   5.671   4.574 -0.8240  0.4675 -0.1742
10067TIP3    H251693   4.891   5.806   4.584 -0.5375  0.2902  0.3450
10068TIP3   OH251694   1.899   5.248  11.458 -0.0087 -0.7202  0.2012
10068TIP3    H151695   1.940   5.173  11.502  1.9440 -0.4428 -1.0023
10068TIP3    H251696   1.817   5.213  11.423 -0.1291 -1.7269  1.4145
10069TIP3   OH251697   4.703   2.575   3.865 -0.4880 -0.1459  0.6283
10069TIP3    H151698   4.623   2.540   3.905  0.6888 -1.2936  2.0996
10069TIP3    H251699   4.699   2.547   3.774 -1.6315 -0.4047  0.7455
10070TIP3   OH251700   3.335   2.670  13.535  0.4039  0.3745 -0.3396
10070TIP3    H151701   3.360   2.578  13.527  1.0812  0.2492  2.3616
10070TIP3    H251702   3.383   2.714  13.464  2.1226 -0.9896 -0.0975
10071TIP3   OH251703   0.413   0.941   5.462 -0.1962  0.2083 -0.4992
10071TIP3    H151704   0.430   0.896   5.545 -1.5945  0.3059 -0.1358
10071TIP3    H251705   0.373   1.024   5.488 -0.6603  0.2349 -1.2738
10072TIP3   OH251706   3.948   1.724   2.903 -0.4964  0.7611 -0.6284
10072TIP3    H151707   3.861   1.761   2.883 -0.5125 -0.0881 -2.3149
10072TIP3    H251708   3.990   1.716   2.817  0.9257  0.3469  0.0893
10073TIP3   OH251709   3.796   4.420   4.792 -0.3346  0.1838  0.3353
10073TIP3    H151710   3.738   4.389   4.722 -0.3274  0.9642 -0.0312
10073TIP3    H251711   3.740   4.475   4.847 -0.0797  0.4995  0.2876
10074TIP3   OH251712   6.307   1.373  11.237 -0.0174  0.5531  0.2568
10074TIP3    H151713   6.345   1.459  11.219 -1.1169  1.0554  0.2549
10074TIP3    H251714   6.242   1.390  11.306  0.0559 -0.3510  0.5629
10075TIP3   OH251715   0.666   0.801   1.885  0.7970  0.4261  0.2911
10075TIP3    H151716   0.691   0.753   1.964  1.2288  1.3995  0.7780
10075TIP3    H251717   0.646   0.734   1.820  0.0564 -0.4092  1.3391
10076TIP3   OH251718   2.502   1.391  11.709  0.0042  0.0851  0.1927
10076TIP3    H151719   2.539   1.478  11.726  0.2960 -0.0892  0.4744
10076TIP3    H251720   2.490   1.353  11.796  0.0654 -0.2292  0.0659
10077TIP3   OH251721   6.136   3.291   1.131  0.2697 -0.1868  0.1960
10077TIP3    H151722   6.061   3.238   1.103  0.7464 -1.1633  0.7088
10077TIP3    H251723   6.142   3.360   1.065 -0.6454 -0.5030 -0.2406
10078TIP3   OH251724   3.352   2.073   0.575  0.0022  0.2346 -0.2000
10078TIP3    H151725   3.403   2.051   0.496 -0.3746  1.8325 -0.9296
10078TIP3    H251726   3.383   2.011   0.641  1.1015 -0.4592 -1.3121
10079TIP3   OH251727   0.962   4.174   0.129 -0.0861  0.0535  0.3013
10079TIP3    H151728   0.875   4.206   0.108  0.9107  2.2084 -0.9460
10079TIP3    H251729   1.008   4.171   0.045  1.2250 -0.4600  0.9913
10080TIP3   OH251730   2.267   0.477   2.586 -0.4966 -0.4384 -0.1312
10080TIP3    H151731   2.208   0.516   2.650 -0.8844  0.6875 -1.1319
10080TIP3    H251732   2.290   0.392   2.623 -1.2417 -0.1007  1.1680
10081TIP3   OH251733   2.141   0.602  16.079 -0.3092 -0.0101 -0.7245
10081TIP3    H151734   2.185   0.559  16.152  0.2823 -1.4108 -1.8556
10081TIP3    H251735   2.139   0.694  16.103  0.7157 -0.3107  0.6277
10082TIP3   OH251736   5.909   5.883  13.621 -0.0826 -0.5708 -0.0610
10082TIP3    H151737   5.923   5.879  13.527  0.0569  3.5838 -0.4108
10082TIP3    H251738   5.814   5.881  13.631 -0.1677  0.5076 -0.4938
10083TIP3   OH251739   4.927   2.731  12.513  0.1262  1.0325 -0.6024
10083TIP3    H151740   4.956   2.654  12.563 -0.3262  0.3088 -1.4324
10083TIP3    H251741   4.927   2.802  12.577  2.5901  0.8255 -0.2715
10084TIP3   OH251742   6.664   1.392  13.199  0.0136 -0.5868  0.1448
10084TIP3    H151743   6.745   1.355  13.161 -0.1586 -0.3277 -0.4937
10084TIP3    H251744   6.597   1.328  13.178 -0.6214  0.7482 -2.4375
10085TIP3   OH251745   3.917   0.854   1.671  0.0059  0.6779 -0.2747
10085TIP3    H151746   3.835   0.805   1.670 -0.0127  0.2764  3.6821
10085TIP3    H251747   3.983   0.790   1.700  1.0447  1.7256 -0.2592
10086TIP3   OH251748   6.157   4.782  16.172 -0.7884  0.1903  0.6458
10086TIP3    H151749   6.174   4.688  16.176  2.2210  0.4888 -1.3079
10086TIP3    H251750   6.103   4.793  16.093  0.8181  0.2001 -0.5108
10087TIP3   OH251751   4.005   6.553  14.681 -0.4355  0.0542  0.2045
10087TIP3    H151752   4.007   6.463  14.649 -0.9210 -0.0349  0.4102
10087TIP3    H251753   3.983   6.606  14.604  0.5369  0.0806 -0.0685
10088TIP3   OH251754   2.675   6.615   3.833  0.0330  0.2658 -0.4119
10088TIP3    H151755   2.756   6.570   3.810  0.0626 -0.2860  0.7001
10088TIP3    H251756   2.702   6.702   3.861  0.0300  0.8185 -2.0298
10089TIP3   OH251757   2.196   4.245   5.676 -0.2497  0.2870  0.0891
10089TIP3    H151758   2.114   4.230   5.722 -0.6131  1.3662 -0.1645
10089TIP3    H251759   2.171   4.294   5.598  0.4662 -0.7056 -0.7825
10090TIP3   OH251760   4.060   0.085  16.514 -0.5722  0.6269 -0.2057
10090TIP3    H151761   4.084   0.104  16.424 -1.2141  3.5400  0.1300
10090TIP3    H251762   4.094   0.160  16.564 -0.2219 -0.8915  1.9908
10091TIP3   OH251763   5.583   3.929   0.363  0.0333  0.2428 -0.3622
10091TIP3    H151764   5.572   4.024   0.362  1.6921  0.4698 -2.0521
10091TIP3    H251765   5.595   3.908   0.456  0.6430  1.8237 -0.0474
10092TIP3   OH251766   1.712   1.793   5.300  0.2720  0.9130  0.2125
10092TIP3    H151767   1.740   1.707   5.271  0.4824  0.6274  1.2273
10092TIP3    H251768   1.643   1.818   5.238 -1.0607 -0.7701  0.9356
10093TIP3   OH251769   1.379   6.663   1.739  0.3146 -0.1871  0.8528
10093TIP3    H151770   1.474   6.670   1.749  0.4699 -1.2337  0.2066
10093TIP3    H251771   1.348   6.639   1.826  0.6345  0.1167  1.0564
10094TIP3   OH251772   4.699   1.380   5.189  0.1354  0.0595 -0.1567
10094TIP3    H151773   4.623   1.431   5.216  0.2355 -0.1621  0.5555
10094TIP3    H251774   4.766   1.399   5.254  0.4633 -0.2927 -0.3809
10095TIP3   OH251775   6.721   6.186  12.831  0.2350  0.2449 -0.1193
10095TIP3    H151776   6.626   6.185  12.830  0.0559  0.3573  3.3234
10095TIP3    H251777   6.745   6.276  12.807 -0.7199  0.9218  1.3122
10096TIP3   OH251778   1.880   0.763  14.089 -0.3148 -0.0491 -0.2809
10096TIP3    H151779   1.925   0.702  14.148 -0.6604 -2.0518 -1.9746
10096TIP3    H251780   1.788   0.760  14.116 -0.3289 -0.2746 -0.3531
10097TIP3   OH251781   3.950   2.525  15.763  0.1452  1.3019  0.7529
10097TIP3    H151782   3.990   2.449  15.720 -1.0572  0.8639  0.3683
10097TIP3    H251783   3.878   2.488  15.814 -0.8293  2.2364  0.1032
10098TIP3   OH251784   4.205   0.131  14.006 -0.5278 -0.2105  0.0876
10098TIP3    H151785   4.183   0.209  13.955  1.2721  1.1310  1.2316
10098TIP3    H251786   4.150   0.136  14.084 -0.1477  0.1419  0.3386
10099TIP3   OH251787   6.753   5.658  11.821  0.1983  0.5753 -0.0627
10099TIP3    H151788   6.794   5.613  11.746 -0.9428 -0.1637 -0.2663
10099TIP3    H251789   6.790   5.746  11.819  2.4287 -0.2726  0.2753
10100TIP3   OH251790   4.739   6.440   1.322  0.1695 -0.1264 -0.0619
10100TIP3    H151791   4.827   6.403   1.314  0.2839  0.2143 -0.3806
10100TIP3    H251792   4.682   6.364   1.331  0.5467 -0.3358  0.6928
10101TIP3   OH251793   0.806   5.001   2.154 -0.9048  0.3397  0.2265
10101TIP3    H151794   0.877   5.038   2.100 -1.1306 -1.7619 -1.6350
10101TIP3    H251795   0.821   5.039   2.241  2.0510  0.5926 -0.2622
10102TIP3   OH251796   3.658   3.088   3.408 -0.1305 -0.0610  0.4989
10102TIP3    H151797   3.645   3.182   3.410 -1.5759 -0.2409  0.3101
10102TIP3    H251798   3.672   3.067   3.315  0.7081  0.0261  0.6017
10103TIP3   OH251799   1.671   2.974   0.311  0.6197  0.0498 -0.3151
10103TIP3    H151800   1.659   3.050   0.368 -0.8484  0.6822 -1.3948
10103TIP3    H251801   1.757   2.986   0.271  2.3024 -1.0792  2.6444
10104TIP3   OH251802   0.930   2.348  15.030  0.3664 -0.1224 -0.1617
10104TIP3    H151803   0.941   2.441  15.052  2.0359 -0.1281 -0.7972
10104TIP3    H251804   0.871   2.314  15.097  0.3276  1.2338  0.5197
10105TIP3   OH251805   1.290   1.748  15.459  0.5364  0.1538 -0.0134
10105TIP3    H151806   1.319   1.713  15.376 -1.8450 -1.4629 -0.2732
10105TIP3    H251807   1.351   1.712  15.524 -0.4695 -2.7630 -0.5462
10106TIP3   OH251808   4.221   3.174  14.666  0.3517 -0.7482 -0.1272
10106TIP3    H151809   4.164   3.114  14.617  0.9055 -0.8495 -0.6597
10106TIP3    H251810   4.163   3.245  14.693 -0.3134 -1.4933  0.4859
10107TIP3   OH251811   6.464   2.369  14.597 -0.1958  0.0679 -0.0559
10107TIP3    H151812   6.547   2.381  14.552  0.1434  0.1084  0.5575
10107TIP3    H251813   6.488   2.367  14.690 -1.0488  1.8749  0.2591
10108TIP3   OH251814   2.551   4.552  16.875  0.5675  0.5542  0.2157
10108TIP3    H151815   2.631   4.501  16.888  1.0124  1.5672  1.7048
10108TIP3    H251816   2.559   4.625  16.936 -0.5302  1.8434 -1.0921
10109TIP3   OH251817   4.631   6.263   1.042  0.8257  0.1167 -0.3225
10109TIP3    H151818   4.679   6.346   1.038 -0.4868  0.8570 -2.6239
10109TIP3    H251819   4.549   6.284   1.085  0.8141 -0.1651 -0.2037
10110TIP3   OH251820   4.447   6.129   5.214  0.3040  0.1367  0.2787
10110TIP3    H151821   4.537   6.097   5.213  0.3632  0.1550  2.2164
10110TIP3    H251822   4.396   6.056   5.249 -0.2667  0.5478  0.3118
10111TIP3   OH251823   0.379   4.545  11.982  0.0563  0.0946  0.3406
10111TIP3    H151824   0.332   4.529  11.900  0.6864  1.1684 -0.2448
10111TIP3    H251825   0.469   4.561  11.955 -0.2042  3.1746  0.9399
10112TIP3   OH251826   4.681   3.940   0.007  0.2903 -0.1116 -0.1827
10112TIP3    H151827   4.648   4.028  -0.009 -1.2512 -0.2764  1.7128
10112TIP3    H251828   4.759   3.953   0.060  0.7648  0.1409 -0.9328
10113TIP3   OH251829   5.489   3.097  11.537 -0.2911 -0.0494  0.3993
10113TIP3    H151830   5.575   3.058  11.521 -0.4201 -0.4690  0.7382
10113TIP3    H251831   5.429   3.048  11.480 -0.1251  1.0579 -0.7981
10114TIP3   OH251832   3.718   0.338   5.579 -0.7690  0.2888 -0.1203
10114TIP3    H151833   3.719   0.433   5.569 -1.8070  0.3130 -0.1395
10114TIP3    H251834   3.794   0.319   5.634  0.9233  0.8530 -2.1445
10115TIP3   OH251835   3.025   3.681  13.080 -0.6287  0.4955  0.2098
10115TIP3    H151836   3.011   3.591  13.110 -1.7063  0.3797 -0.5874
10115TIP3    H251837   2.989   3.736  13.150 -0.3212  0.3068  0.5191
10116TIP3   OH251838   6.666   2.133   5.598 -0.0438 -0.0215  0.3209
10116TIP3    H151839   6.603   2.079   5.549  0.7517 -0.8769  0.2046
10116TIP3    H251840   6.676   2.212   5.545 -2.2252  0.8597  1.1557
10117TIP3   OH251841   4.250   4.446   4.065  0.2373  0.2809 -0.5875
10117TIP3    H151842   4.156   4.434   4.052  0.2433 -0.5368  0.0134
10117TIP3    H251843   4.272   4.384   4.135  1.4512 -0.4322 -1.5667
10118TIP3   OH251844   2.329   6.180  13.683  0.2731 -0.0073  0.0880
10118TIP3    H151845   2.283   6.258  13.713  0.5333  1.1102 -2.1702
10118TIP3    H251846   2.422   6.204  13.686  0.4750 -0.8411  0.9428
10119TIP3   OH251847   0.517   2.526  13.768  0.6028  0.2988 -0.4960
10119TIP3    H151848   0.475   2.552  13.686 -1.2483  0.9079  0.5733
10119TIP3    H251849   0.579   2.596  13.788 -0.2275  1.0558 -0.5105
10120TIP3   OH251850   6.354   0.429  11.591 -0.4601  0.6504  0.1646
10120TIP3    H151851   6.313   0.480  11.521 -1.9672 -1.0516 -0.2874
10120TIP3    H251852   6.306   0.452  11.669 -0.4104  0.7407  0.1678
10121TIP3   OH251853   4.900   3.717   2.966  0.2239  0.1994  0.3991
10121TIP3    H151854   4.941   3.736   3.051  1.9466 -1.9640  0.1557
10121TIP3    H251855   4.922   3.793   2.912  0.6983  0.7849  1.3771
10122TIP3   OH251856   5.200   0.980   0.110 -0.3077 -0.6779 -0.1506
10122TIP3    H151857   5.230   1.043   0.176  0.5978 -0.4085 -0.7915
10122TIP3    H251858   5.139   0.923   0.157  1.8548 -1.8170  1.5010
10123TIP3   OH251859   5.575   1.234   4.882 -0.1146  0.1069  0.3552
10123TIP3    H151860   5.553   1.149   4.846 -2.5131  0.6561  0.3380
10123TIP3    H251861   5.525   1.296   4.829 -1.1319  1.2094  2.4785
10124TIP3   OH251862   2.853   4.223   4.847 -0.2564 -0.1169  0.1593
10124TIP3    H151863   2.865   4.141   4.895 -0.3871  0.7249  1.6736
10124TIP3    H251864   2.867   4.292   4.912 -0.4998  1.0754 -0.9996
10125TIP3   OH251865   0.157   2.284   2.726  0.1873 -0.8277  0.3146
10125TIP3    H151866   0.064   2.277   2.745  0.1135  0.0794  0.3614
10125TIP3    H251867   0.197   2.306   2.810  0.2495  0.1916  0.0330
10126TIP3   OH251868   3.484   0.937   2.184 -0.2050 -0.2668  0.2807
10126TIP3    H151869   3.483   0.880   2.261 -3.1896  0.3541  0.8302
10126TIP3    H251870   3.440   1.017   2.213 -0.2045  0.5131 -1.7120
10127TIP3   OH251871   3.768   1.264  10.426 -0.7680 -0.5377  0.2320
10127TIP3    H151872   3.756   1.359  10.425  3.9411  0.4435 -3.4431
10127TIP3    H251873   3.835   1.249  10.492  0.4574 -0.7567 -1.0013
10128TIP3   OH251874   6.479   0.864   2.721  0.4226  0.1158 -0.2588
10128TIP3    H151875   6.418   0.808   2.769  0.4281  0.7283  0.4856
10128TIP3    H251876   6.484   0.825   2.634 -0.6570 -0.2268 -0.1836
10129TIP3   OH251877   6.134   5.705  14.406  0.1570 -0.3480 -0.3598
10129TIP3    H151878   6.072   5.635  14.385  1.4636 -1.7139  0.1827
10129TIP3    H251879   6.212   5.659  14.438  0.3932  1.4231  1.7951
10130TIP3   OH251880   2.333   2.735   4.057 -0.7393  0.0900  0.0828
10130TIP3    H151881   2.365   2.646   4.070  0.3232  0.6306  1.4722
10130TIP3    H251882   2.238   2.725   4.047 -0.7398 -1.1373  1.0520
10131TIP3   OH251883   4.068   1.005   4.873 -0.1898  0.2279 -0.6012
10131TIP3    H151884   4.039   0.934   4.817  0.1296 -0.8241  0.5198
10131TIP3    H251885   4.111   0.961   4.947 -2.5172  1.3851  1.6212
10132TIP3   OH251886   6.381   1.244  10.459  0.5494  0.3316 -0.2418
10132TIP3    H151887   6.310   1.180  10.462  1.5182 -0.9902 -2.5320
10132TIP3    H251888   6.354   1.306  10.391  1.6663 -0.3917 -1.3986
10133TIP3   OH251889   6.216   6.220  16.860 -0.2926 -0.0634  0.2493
10133TIP3    H151890   6.161   6.242  16.934 -0.2618  0.5868  0.0871
10133TIP3    H251891   6.167   6.152  16.812 -0.6270  0.0126  0.4818
10134TIP3   OH251892   2.710   5.561  13.972 -0.0364 -0.1361  0.1768
10134TIP3    H151893   2.663   5.636  13.934 -0.6256 -0.8729 -0.6112
10134TIP3    H251894   2.720   5.583  14.064  0.4951  1.2531 -0.1770
10135TIP3   OH251895   5.147   1.500  10.485 -0.7032  0.0681 -0.4387
10135TIP3    H151896   5.177   1.589  10.504  3.2978 -0.5673 -2.7652
10135TIP3    H251897   5.140   1.496  10.390 -0.2948 -2.2415 -0.4325
10136TIP3   OH251898   1.942   0.951   4.386 -0.0732 -0.2025  0.1901
10136TIP3    H151899   1.846   0.946   4.383 -0.2279  2.0515 -0.4119
10136TIP3    H251900   1.960   1.036   4.426  1.6942 -0.5532  0.2191
10137TIP3   OH251901   5.854   0.597   3.043 -0.2298  0.2852 -0.2585
10137TIP3    H151902   5.760   0.583   3.055 -0.1332 -2.3464 -1.9359
10137TIP3    H251903   5.866   0.600   2.948  1.1756  2.9459 -0.1017
10138TIP3   OH251904   5.692   1.856   1.273  0.4509 -0.2084  0.0039
10138TIP3    H151905   5.617   1.904   1.238  0.2364  0.6535  1.5485
10138TIP3    H251906   5.743   1.830   1.196 -0.7587  0.3063 -0.9926
10139TIP3   OH251907   0.639   0.421   5.477  0.1938  0.3355  0.3691
10139TIP3    H151908   0.708   0.383   5.532 -0.2887  0.3235  0.9716
10139TIP3    H251909   0.558   0.393   5.518 -0.1894  2.0038  0.8441
10140TIP3   OH251910   2.585   5.479   3.034 -0.0363 -0.0338 -0.0163
10140TIP3    H151911   2.663   5.433   3.066  0.9852 -0.2166 -2.4990
10140TIP3    H251912   2.565   5.436   2.951 -2.0287  0.8647 -0.0481
10141TIP3   OH251913   2.233   3.910  14.049  0.1267 -0.6391 -0.6458
10141TIP3    H151914   2.189   3.995  14.058 -0.9470 -1.1740 -0.7086
10141TIP3    H251915   2.185   3.852  14.107  1.3740 -1.0298  0.0307
10142TIP3   OH251916   1.062   2.778  13.446 -0.0438  0.2093 -0.0242
10142TIP3    H151917   1.155   2.785  13.466 -0.5934  1.7655  2.4204
10142TIP3    H251918   1.026   2.729  13.520 -0.7658 -3.6864 -2.6470
10143TIP3   OH251919   2.549   1.914  13.138  0.5233  0.4688 -0.6578
10143TIP3    H151920   2.549   1.850  13.209  0.5692  1.0206 -0.1567
10143TIP3    H251921   2.640   1.919  13.110  1.0367  2.2375  1.0768
10144TIP3   OH251922   0.814   3.540   0.923 -0.1146 -0.2581 -0.0069
10144TIP3    H151923   0.737   3.506   0.878  0.5569 -0.9240 -0.6827
10144TIP3    H251924   0.815   3.633   0.901 -1.5499  0.0916  1.2524
10145TIP3   OH251925   0.847   0.141   4.767  0.3421 -0.2784 -0.5508
10145TIP3    H151926   0.837   0.144   4.672  0.5458 -0.7122 -0.5878
10145TIP3    H251927   0.908   0.069   4.783 -0.3337 -0.7526 -0.0408
10146TIP3   OH251928   1.592   5.282  16.096  0.4962  0.6965  0.2738
10146TIP3    H151929   1.509   5.303  16.141  1.1607  1.0908  1.3691
10146TIP3    H251930   1.615   5.363  16.051 -1.0542 -0.2033 -2.3284
10147TIP3   OH251931   6.317   2.954  13.640  0.0262  0.1112  0.1333
10147TIP3    H151932   6.318   3.048  13.658 -1.2652  0.0843  0.4147
10147TIP3    H251933   6.409   2.931  13.629  0.3122  1.5554 -0.7261
10148TIP3   OH251934   4.696   0.876  12.626 -0.3996  0.1433  0.4878
10148TIP3    H151935   4.734   0.811  12.686 -0.5059  1.8050  2.4643
10148TIP3    H251936   4.758   0.880  12.553 -0.4113 -2.1669  0.2769
10149TIP3   OH251937   6.458   6.817   2.253  0.2541  1.0041 -0.2156
10149TIP3    H151938   6.391   6.885   2.250 -0.3789  0.5054  1.2597
10149TIP3    H251939   6.481   6.810   2.346 -0.1502 -1.1866 -0.2144
10150TIP3   OH251940   2.668   5.837   3.006 -0.0768 -0.1014  0.0553
10150TIP3    H151941   2.687   5.758   3.056 -0.7470 -0.8743 -0.8732
10150TIP3    H251942   2.754   5.870   2.980  0.2047 -0.6068  0.3347
10151TIP3   OH251943   3.473   4.758   2.779  0.3021 -0.2449  0.3488
10151TIP3    H151944   3.480   4.713   2.863 -1.3763  1.0176  1.2101
10151TIP3    H251945   3.562   4.759   2.745  1.2082  0.1266  2.5892
10152TIP3   OH251946   1.727   1.521  10.861  0.1403  0.0808 -0.0678
10152TIP3    H151947   1.748   1.553  10.949 -1.4496  1.5019 -0.1509
10152TIP3    H251948   1.664   1.450  10.876  0.1426  0.0819 -0.0524
10153TIP3   OH251949   6.752   6.723   3.213  0.4625  0.3993  0.0574
10153TIP3    H151950   6.796   6.745   3.294 -0.9470  0.7700  0.7562
10153TIP3    H251951   6.754   6.804   3.161 -1.2031  1.0818  0.9717
10154TIP3   OH251952   5.674   3.825  16.740 -0.8992  0.2024  0.1288
10154TIP3    H151953   5.582   3.807  16.760 -0.7634 -0.9291 -0.2059
10154TIP3    H251954   5.692   3.773  16.662 -0.2737  1.3014 -0.4700
10155TIP3   OH251955   3.732   2.248  17.108  0.0933 -0.3200 -0.4183
10155TIP3    H151956   3.649   2.274  17.068  1.2899  2.5004 -1.3483
10155TIP3    H251957   3.708   2.218  17.196 -1.9034  0.6267 -0.5834
10156TIP3   OH251958   6.428   1.144   4.112  0.8336  0.3726  0.5268
10156TIP3    H151959   6.502   1.204   4.102  1.7364 -0.9793 -2.0350
10156TIP3    H251960   6.352   1.201   4.122  1.7512  1.9702 -0.9535
10157TIP3   OH251961   2.402   2.138  15.020 -0.1782 -0.2674 -0.1259
10157TIP3    H151962   2.307   2.150  15.019 -0.2513 -0.6320  1.1704
10157TIP3    H251963   2.437   2.221  15.053 -0.0031  0.0483 -1.0846
10158TIP3   OH251964   4.420   1.772   3.677  0.9855  0.5875 -0.2245
10158TIP3    H151965   4.510   1.742   3.685  0.7083 -0.1816  0.1149
10158TIP3    H251966   4.376   1.702   3.628  0.0692 -0.1570  1.5438
10159TIP3   OH251967   1.638   6.316  15.968 -0.1105 -0.2612 -0.6224
10159TIP3    H151968   1.628   6.384  15.901  0.0693  0.7110  0.2890
10159TIP3    H251969   1.725   6.331  16.004  0.0251 -1.1444 -0.5758
10160TIP3   OH251970   4.198   1.127  15.900  0.5444  0.5611  0.7820
10160TIP3    H151971   4.240   1.159  15.979  0.1193  0.6454  0.9789
10160TIP3    H251972   4.115   1.176  15.895 -0.4317 -0.9554  1.4431
10161TIP3   OH251973   4.291   1.990  16.590  0.7567 -0.1658 -0.1186
10161TIP3    H151974   4.323   2.017  16.505 -2.0042  2.2250 -0.5502
10161TIP3    H251975   4.285   1.894  16.585 -0.0006 -0.0396 -2.8889
10162TIP3   OH251976   6.291   5.953  13.453 -0.2244  0.1914  0.3818
10162TIP3    H151977   6.228   6.024  13.467  0.5375  0.6037  1.9965
10162TIP3    H251978   6.375   5.990  13.479  0.3099 -1.0587  0.5142
10163TIP3   OH251979   5.767   5.187   0.923  0.1611  0.1726  0.4861
10163TIP3    H151980   5.713   5.240   0.982  0.5038  1.0057  0.0668
10163TIP3    H251981   5.707   5.159   0.854  0.1273  0.5635  0.3588
10164TIP3   OH251982   6.815   6.458   0.938 -0.1945  0.1539  0.3252
10164TIP3    H151983   6.883   6.522   0.960 -0.1492  0.3919 -0.4780
10164TIP3    H251984   6.816   6.397   1.012  0.3157  0.6207  0.7225
10165TIP3   OH251985   2.722   0.234  10.132  0.2833  0.4342  0.0621
10165TIP3    H151986   2.627   0.231  10.142  0.2441  1.4467  0.0487
10165TIP3    H251987   2.746   0.323  10.155  1.3223 -0.0169  0.7825
10166TIP3   OH251988   3.527   4.276  15.504  0.0597 -0.1457  0.2038
10166TIP3    H151989   3.557   4.296  15.416  0.3743 -1.0758  0.0859
10166TIP3    H251990   3.560   4.187  15.521 -0.1146 -0.0328  1.1970
10167TIP3   OH251991   2.535   5.989  11.782 -0.0253 -0.6782 -0.2242
10167TIP3    H151992   2.612   5.963  11.731 -0.2604 -0.9321 -0.4493
10167TIP3    H251993   2.463   5.989  11.719 -0.1636 -0.1773 -0.0716
10168TIP3   OH251994   4.116   4.867   3.799 -0.4865  0.3478 -0.2641
10168TIP3    H151995   4.036   4.845   3.752 -0.7845 -0.7881  0.7388
10168TIP3    H251996   4.186   4.834   3.743 -0.8183 -0.5551 -0.1598
10169TIP3   OH251997   6.472   4.990   4.429  0.1504  0.2355 -0.3499
10169TIP3    H151998   6.378   5.003   4.443  0.1495  0.5115 -0.6009
10169TIP3    H251999   6.482   4.895   4.420  0.0455  0.1155  0.7217
10170TIP3   OH252000   3.724   3.370  11.932  0.3877 -0.3025 -0.1065
10170TIP3    H152001   3.667   3.440  11.901  1.0384  0.1012 -0.4210
10170TIP3    H252002   3.692   3.291  11.889 -0.7976 -0.3401  0.7982
10171TIP3   OH252003   3.426   1.642  13.533 -0.5950 -0.0647  0.6760
10171TIP3    H152004   3.421   1.736  13.515 -1.1612  0.2202  2.1954
10171TIP3    H252005   3.351   1.605  13.487 -0.4595  0.2301  0.2017
10172TIP3   OH252006   1.847   3.516   5.823  0.1069  0.2788  0.2118
10172TIP3    H152007   1.854   3.603   5.863 -0.5203  1.0750 -1.3333
10172TIP3    H252008   1.935   3.479   5.830  0.6546  1.4780 -0.0834
10173TIP3   OH252009   0.139   5.661  10.925 -0.3191 -0.4722 -0.3489
10173TIP3    H152010   0.123   5.740  10.874 -0.5926 -0.6237 -0.5018
10173TIP3    H252011   0.219   5.624  10.888 -0.3095 -0.3826 -0.4176
10174TIP3   OH252012   0.888   5.704  16.868 -0.0160 -0.0343 -0.4914
10174TIP3    H152013   0.922   5.717  16.780  2.8360 -1.4185  0.2824
10174TIP3    H252014   0.951   5.750  16.925 -0.8344 -0.5970  0.9290
10175TIP3   OH252015   4.253   1.670   5.143  0.0480 -0.6015  0.1903
10175TIP3    H152016   4.244   1.757   5.183  0.7053 -0.6289  0.3977
10175TIP3    H252017   4.163   1.645   5.122 -0.0090  1.4962 -2.8289
10176TIP3   OH252018   1.576   0.133  16.850  0.1604  0.0427 -0.6522
10176TIP3    H152019   1.612   0.065  16.908 -0.5511 -0.5969 -0.9394
10176TIP3    H252020   1.552   0.204  16.909  1.9296  0.5264 -0.4561
10177TIP3   OH252021   5.665   0.068  13.335  0.5710 -0.1782  0.5494
10177TIP3    H152022   5.650   0.094  13.426 -0.0698  0.3183  0.3111
10177TIP3    H252023   5.630  -0.021  13.329  1.9633 -0.8002  1.1459
10178TIP3   OH252024   5.699   2.018   2.475 -0.4528  0.8601 -0.1816
10178TIP3    H152025   5.761   1.965   2.424  1.0753  1.6371  0.7797
10178TIP3    H252026   5.697   2.102   2.430  1.8268  1.9607  1.5617
10179TIP3   OH252027   5.899   6.371   0.247  0.3145 -0.6075  0.4307
10179TIP3    H152028   5.854   6.290   0.223  1.5219 -1.1421 -0.0923
10179TIP3    H252029   5.896   6.425   0.168  1.1789 -0.9275  0.1694
10180TIP3   OH252030   2.834   3.820   0.081  0.1209  0.5034 -0.3582
10180TIP3    H152031   2.802   3.908   0.101 -0.2782  0.3073 -0.1284
10180TIP3    H252032   2.923   3.820   0.116  0.0657  0.7639 -0.2093
10181TIP3   OH252033   0.346   5.827  14.694  0.3444 -0.1320 -0.1073
10181TIP3    H152034   0.258   5.828  14.655  0.3587 -1.0769 -0.1960
10181TIP3    H252035   0.334   5.784  14.778  0.5874  0.4949  0.2520
10182TIP3   OH252036   6.753   0.234  11.157  0.5309  0.0235  0.0295
10182TIP3    H152037   6.689   0.179  11.202 -1.4893  1.4750 -0.8845
10182TIP3    H252038   6.796   0.284  11.226 -0.0289 -0.2738  0.5957
10183TIP3   OH252039   1.889   1.779   4.212 -0.0487 -0.0141  0.0814
10183TIP3    H152040   1.962   1.779   4.274  0.6454 -0.6658 -0.7175
10183TIP3    H252041   1.839   1.700   4.234 -1.2960  1.0748  1.4673
10184TIP3   OH252042   1.857   3.887  12.950  0.0720 -0.1949 -0.0569
10184TIP3    H152043   1.791   3.850  13.009 -0.5954  0.0966 -0.6082
10184TIP3    H252044   1.918   3.815  12.934  0.0213 -0.4023  0.6311
10185TIP3   OH252045   3.703   4.426   0.080 -0.0612  0.1601  0.4851
10185TIP3    H152046   3.683   4.354   0.021 -0.3612 -0.4607  1.3161
10185TIP3    H252047   3.620   4.443   0.126  0.4544 -0.2205  1.6043
10186TIP3   OH252048   0.303   2.839  12.156 -0.4039 -0.1752  0.5161
10186TIP3    H152049   0.230   2.899  12.175  0.5606  1.5062 -0.7483
10186TIP3    H252050   0.321   2.796  12.239 -1.2018  1.2458  1.4711
10187TIP3   OH252051   3.855   1.292  16.446 -0.5649  0.6185 -0.2400
10187TIP3    H152052   3.813   1.255  16.524 -0.7640  2.0292  0.3634
10187TIP3    H252053   3.919   1.354  16.481  1.0029 -0.3981 -1.1779
10188TIP3   OH252054   0.275   6.448   6.044 -0.6679 -0.7121 -0.3765
10188TIP3    H152055   0.370   6.452   6.057 -0.9358 -0.6798  2.0586
10188TIP3    H252056   0.255   6.524   5.988  0.8847 -1.7331 -2.4653
10189TIP3   OH252057   3.518   4.343  11.124 -0.3566  0.5221  0.0463
10189TIP3    H152058   3.474   4.428  11.114 -0.0807  0.6849  0.1979
10189TIP3    H252059   3.607   4.366  11.151 -0.3029  0.1798  0.1559
10190TIP3   OH252060   6.500   4.054  16.226 -0.6931 -0.2602 -0.0576
10190TIP3    H152061   6.591   4.076  16.249 -0.4870 -0.2781 -0.8284
10190TIP3    H252062   6.473   3.991  16.292  0.1016 -0.8116 -0.2506
10191TIP3   OH252063   5.614   0.003  11.186 -0.3546 -0.3725 -0.1210
10191TIP3    H152064   5.522  -0.011  11.163 -0.1824 -0.5159 -0.7468
10191TIP3    H252065   5.625   0.098  11.187 -0.9090 -0.2944  1.6246
10192TIP3   OH252066   0.424   2.404  12.639  0.1605 -0.4619 -0.0810
10192TIP3    H152067   0.494   2.370  12.583 -1.8526 -0.4289 -2.8565
10192TIP3    H252068   0.415   2.496  12.613  1.6854  0.7658  3.1866
10193TIP3   OH252069   1.385   6.145  13.844 -0.0307  0.7777  0.4395
10193TIP3    H152070   1.339   6.148  13.760  0.1649 -1.4905  0.1979
10193TIP3    H252071   1.476   6.129  13.821 -0.0555 -0.3944  1.0687
10194TIP3   OH252072   0.310   1.982   4.483  1.2402 -0.1770  0.4058
10194TIP3    H152073   0.263   2.062   4.505  2.6679  0.7578  0.1780
10194TIP3    H252074   0.246   1.928   4.436  0.5231  1.2158 -0.2484
10195TIP3   OH252075   5.252   3.305   5.230  0.1854 -0.0122  0.0877
10195TIP3    H152076   5.190   3.343   5.292  0.1383 -0.7441  0.4942
10195TIP3    H252077   5.324   3.274   5.285  0.2261 -0.5086 -0.2440
10196TIP3   OH252078   4.163   2.694  11.876 -0.4403 -0.0393  0.0237
10196TIP3    H152079   4.164   2.731  11.965  0.8801 -1.5012  0.6677
10196TIP3    H252080   4.107   2.617  11.883 -0.1071 -0.3131 -0.3474
10197TIP3   OH252081   2.334   6.686  15.642 -0.0709  0.3220 -0.3424
10197TIP3    H152082   2.353   6.754  15.707  0.4940  0.3935 -0.5788
10197TIP3    H252083   2.333   6.605  15.693  2.3811  0.1131 -0.5109
10198TIP3   OH252084   0.988   3.974   1.847 -0.0974  0.0492 -0.1292
10198TIP3    H152085   0.923   3.912   1.879 -0.2450  0.6517  0.7524
10198TIP3    H252086   1.023   3.933   1.768 -0.2894 -1.0909  0.3637
10199TIP3   OH252087   5.679   0.865   3.427  0.2868 -0.0416 -0.1482
10199TIP3    H152088   5.731   0.935   3.467 -0.2454  0.4075 -0.2287
10199TIP3    H252089   5.741   0.821   3.368  0.1929  1.5186 -1.4855
10200TIP3   OH252090   1.550   3.952   3.514 -0.3732 -0.4592  0.4188
10200TIP3    H152091   1.482   4.015   3.495 -0.3101 -0.2636  0.8264
10200TIP3    H252092   1.510   3.891   3.576 -1.2131 -2.2362 -1.7420
10201TIP3   OH252093   3.544   4.819  16.930  0.1017  0.1095  0.2385
10201TIP3    H152094   3.519   4.746  16.987 -1.3716  0.3903 -0.0089
10201TIP3    H252095   3.561   4.891  16.990 -0.5574  0.1544  0.3759
10202TIP3   OH252096   5.295   4.324  11.589 -0.3121 -0.0880  0.4651
10202TIP3    H152097   5.271   4.376  11.665  2.0258  1.1121  0.4628
10202TIP3    H252098   5.352   4.382  11.537  0.2663 -1.7673 -0.8688
10203TIP3   OH252099   2.507   1.371   4.764  0.4946 -0.1443 -0.2438
10203TIP3    H152100   2.521   1.423   4.843 -1.0480 -0.2656  0.1289
10203TIP3    H252101   2.429   1.320   4.782  1.6543 -2.2464 -0.8049
10204TIP3   OH252102   6.646   6.689  15.638 -0.1509 -0.0437  0.4208
10204TIP3    H152103   6.563   6.705  15.593 -0.2131  0.6645  0.7727
10204TIP3    H252104   6.622   6.644  15.719 -0.0793 -0.8966 -0.0191
10205TIP3   OH252105   2.657   0.766   5.901  0.5873  0.8086 -0.0451
10205TIP3    H152106   2.563   0.750   5.905  0.9564 -1.4574  1.4987
10205TIP3    H252107   2.680   0.745   5.810 -0.4404  2.0225 -0.6223
10206TIP3   OH252108   1.571   3.915   5.430 -0.5068 -0.2020  0.3366
10206TIP3    H152109   1.559   3.948   5.520 -0.9681 -0.3442  0.3251
10206TIP3    H252110   1.500   3.955   5.380 -0.3505 -0.2596  0.0678
10207TIP3   OH252111   6.726   1.921  14.613 -0.7042  0.2341 -0.3188
10207TIP3    H152112   6.739   1.987  14.681 -2.1450  0.9756 -0.7183
10207TIP3    H252113   6.683   1.968  14.541  0.8655 -0.4961 -1.8288
10208TIP3   OH252114   4.799   1.799   1.511 -0.4381  0.0030  0.5342
10208TIP3    H152115   4.730   1.851   1.470 -0.2785 -0.6558 -0.6131
10208TIP3    H252116   4.789   1.712   1.474  1.0207 -0.1018  0.3085
10209TIP3   OH252117   1.323   5.137  13.048 -0.1474 -0.1354  0.1036
10209TIP3    H152118   1.318   5.125  13.143  2.0326  0.7735  0.3983
10209TIP3    H252119   1.305   5.230  13.034  2.1011  0.3542 -0.0207
10210TIP3   OH252120   4.705   0.552   4.792  0.4736  0.3975 -0.3207
10210TIP3    H152121   4.620   0.585   4.765  0.8319  0.1949 -1.7615
10210TIP3    H252122   4.746   0.522   4.711  0.6945 -2.3685  0.7294
10211TIP3   OH252123   6.086   2.179  11.281  0.1995  0.0243 -0.4265
10211TIP3    H152124   6.031   2.101  11.273 -0.8463  0.7951 -0.8425
10211TIP3    H252125   6.102   2.187  11.375  1.7282 -1.6332 -0.4910
10212TIP3   OH252126   4.729   0.630  15.519  0.5126 -0.3933  0.3450
10212TIP3    H152127   4.795   0.696  15.497 -0.0688  0.5849  1.4437
10212TIP3    H252128   4.671   0.628  15.443  2.8062 -2.7065 -1.5636
10213TIP3   OH252129   3.982   0.326   3.971 -0.3972  0.2396  0.2736
10213TIP3    H152130   3.917   0.321   3.901 -0.1244 -1.0147  0.0768
10213TIP3    H252131   4.020   0.238   3.973  1.8306  1.1339 -0.1369
10214TIP3   OH252132   2.828   6.708  13.851 -0.5378 -0.0080  0.0029
10214TIP3    H152133   2.863   6.702  13.940 -1.1477 -2.0721  0.1435
10214TIP3    H252134   2.733   6.709  13.862 -0.6180 -0.0907 -0.6226
10215TIP3   OH252135   3.385   6.658   3.513  0.1380  0.1930 -0.2562
10215TIP3    H152136   3.398   6.662   3.608  1.4478 -1.5459 -0.3128
10215TIP3    H252137   3.321   6.588   3.500  2.0582 -1.5903 -0.7194
10216TIP3   OH252138   5.888   4.729  11.826 -0.1639 -0.4768  0.0696
10216TIP3    H152139   5.932   4.650  11.794  1.4448 -0.0107  0.9888
10216TIP3    H252140   5.819   4.696  11.884 -0.1672 -1.2240 -0.3475
10217TIP3   OH252141   0.035   6.799  10.609  0.3769 -0.8672 -0.2831
10217TIP3    H152142   0.039   6.730  10.676  1.0741 -0.6054 -0.0397
10217TIP3    H252143   0.120   6.843  10.616  1.1941 -1.9275 -2.5115
10218TIP3   OH252144   4.912   1.686   1.045 -0.1179  0.0510  0.6790
10218TIP3    H152145   4.897   1.615   0.982 -0.1302  0.8870 -0.2875
10218TIP3    H252146   4.922   1.764   0.990 -1.2740  0.9981  1.7679
10219TIP3   OH252147   0.030   0.879   0.433 -0.2524  0.3633  0.1646
10219TIP3    H152148   0.097   0.943   0.409  0.1227 -0.5221 -1.2813
10219TIP3    H252149  -0.050   0.911   0.393 -0.6571  1.2386  1.6014
10220TIP3   OH252150   4.500   2.369  15.960 -0.1958 -0.3862 -0.2067
10220TIP3    H152151   4.571   2.427  15.987 -0.8776  0.6096 -0.4619
10220TIP3    H252152   4.534   2.281  15.973  0.4123  0.0591  1.4086
10221TIP3   OH252153   0.851   0.555  12.247 -0.1655  0.2706 -0.2920
10221TIP3    H152154   0.842   0.460  12.245  0.4982  0.2103 -0.8539
10221TIP3    H252155   0.791   0.584  12.316 -0.7163 -0.5136 -0.4280
10222TIP3   OH252156   6.227   5.367   5.881  0.1320 -0.0846  0.3304
10222TIP3    H152157   6.156   5.361   5.816 -0.4766  0.8125  0.8894
10222TIP3    H252158   6.213   5.452   5.923  1.9245  0.3881  0.0298
10223TIP3   OH252159   3.202   3.152   5.933 -0.1487  0.5630 -0.4817
10223TIP3    H152160   3.124   3.106   5.962  0.4245 -1.0177 -1.3324
10223TIP3    H252161   3.186   3.169   5.840  0.8691 -0.6135 -0.9033
10224TIP3   OH252162   3.684   0.460   2.897  0.1978 -0.0275 -0.4039
10224TIP3    H152163   3.767   0.443   2.853 -0.9450 -3.0509 -1.6877
10224TIP3    H252164   3.630   0.504   2.831  0.1086  0.0457 -0.2835
10225TIP3   OH252165   0.889   4.691  11.209 -0.3079  0.2679  0.3056
10225TIP3    H152166   0.881   4.764  11.148  1.5369  1.4851  1.4120
10225TIP3    H252167   0.818   4.703  11.271 -1.2987 -0.1373 -0.7109
10226TIP3   OH252168   1.284   4.533  14.350 -0.1801  0.7502  0.4271
10226TIP3    H152169   1.290   4.489  14.435  1.6847  1.0206  0.4687
10226TIP3    H252170   1.236   4.472  14.295  2.1712 -1.3598  0.5277
10227TIP3   OH252171   1.638   4.099  14.285 -0.4483 -0.3791  0.3270
10227TIP3    H152172   1.633   4.174  14.226 -0.1791  0.3804  1.2290
10227TIP3    H252173   1.589   4.127  14.363  0.3773 -0.7956  1.0198
10228TIP3   OH252174   3.206   5.768   5.133 -0.3035 -0.2885 -0.5415
10228TIP3    H152175   3.201   5.691   5.189 -0.5241 -0.2431 -0.4963
10228TIP3    H252176   3.294   5.803   5.147 -0.4938 -0.0508  0.0784
10229TIP3   OH252177   3.362   6.790   1.822 -0.6243  0.5114 -0.1764
10229TIP3    H152178   3.452   6.810   1.847  0.0033 -1.1176 -1.0090
10229TIP3    H252179   3.361   6.798   1.727 -1.2496  0.1096 -0.2090
10230TIP3   OH252180   4.489   4.092   2.625  0.3898 -0.6211  0.1653
10230TIP3    H152181   4.511   4.027   2.558  0.0021  0.3053 -0.8887
10230TIP3    H252182   4.554   4.161   2.614  1.2578 -1.1181  1.7689
10231TIP3   OH252183   5.524   2.672   6.106 -0.0050  0.2680 -0.5148
10231TIP3    H152184   5.522   2.578   6.121  1.9298  0.0870 -1.0577
10231TIP3    H252185   5.488   2.711   6.185  1.4779 -0.8772  0.7707
10232TIP3   OH252186   5.467   1.776   5.979  0.4406  0.0180 -0.0727
10232TIP3    H152187   5.375   1.790   6.002  0.2677 -2.0177  0.5884
10232TIP3    H252188   5.469   1.690   5.938  1.9376  0.4040 -0.8940
10233TIP3   OH252189   3.452   0.668   4.972 -0.4917  0.5224  0.2287
10233TIP3    H152190   3.477   0.624   5.053 -2.3759 -0.1953  0.4925
10233TIP3    H252191   3.437   0.759   4.997 -3.8313 -0.2142  1.4498
10234TIP3   OH252192   5.124   3.843   0.796  0.2607 -0.1807 -0.1582
10234TIP3    H152193   5.125   3.748   0.806 -1.2348 -0.3029 -0.8776
10234TIP3    H252194   5.101   3.857   0.704 -0.2204  0.8641  0.1033
10235TIP3   OH252195   1.466   1.356  11.919  0.0381 -0.3550  0.6760
10235TIP3    H152196   1.379   1.377  11.887  1.4646  0.0051 -3.6446
10235TIP3    H252197   1.487   1.271  11.881  2.2050  0.4290 -0.0942
10236TIP3   OH252198   5.101   0.832  14.707  0.0941  0.6045 -0.1432
10236TIP3    H152199   5.077   0.828  14.799 -2.0547  1.0360 -0.6355
10236TIP3    H252200   5.193   0.806  14.705 -0.3889 -1.6732  1.8673
10237TIP3   OH252201   2.050   5.957  12.231  0.0782 -0.6619  0.0689
10237TIP3    H152202   2.055   6.032  12.290  0.1556 -0.5381 -0.0947
10237TIP3    H252203   2.139   5.921  12.230  0.3951  0.1095 -0.9770
10238TIP3   OH252204   3.308   4.348   0.329 -0.0857  0.4669  0.0771
10238TIP3    H152205   3.251   4.330   0.404 -0.8442  1.1774 -0.3139
10238TIP3    H252206   3.356   4.266   0.315  0.5497  0.5198  1.7329
10239TIP3   OH252207   4.648   0.197   3.197 -0.1370 -0.3205 -0.2093
10239TIP3    H152208   4.622   0.252   3.271 -0.3015 -0.4679 -0.1565
10239TIP3    H252209   4.638   0.253   3.121  0.0341 -0.1669 -0.1207
10240TIP3   OH252210   1.913   0.680  17.238 -0.6311  0.1310 -0.3857
10240TIP3    H152211   1.899   0.648  17.149  1.8077 -1.2932 -0.3535
10240TIP3    H252212   1.934   0.602  17.288  0.0367  1.1447  0.9759
10241TIP3   OH252213   5.288   1.241  15.906  0.1486 -0.7243  0.0683
10241TIP3    H152214   5.369   1.275  15.943 -1.1776  1.1831  1.4311
10241TIP3    H252215   5.293   1.262  15.813  0.8754  0.0906  0.2795
10242TIP3   OH252216   5.363   6.530  14.867 -0.6339  0.4404 -0.1665
10242TIP3    H152217   5.335   6.553  14.779 -1.3439  1.7866  0.3730
10242TIP3    H252218   5.366   6.614  14.914 -0.6943 -0.2858  1.1953
10243TIP3   OH252219   5.335   4.554  11.133  0.2275  0.2187  0.5224
10243TIP3    H152220   5.378   4.640  11.143 -0.5124  0.7434 -0.5922
10243TIP3    H252221   5.405   4.491  11.146  1.0601  1.0276  0.1220
10244TIP3   OH252222   5.291   6.670  10.621  0.1117 -0.2569  0.2300
10244TIP3    H152223   5.318   6.631  10.704  1.1446  0.5749  0.3159
10244TIP3    H252224   5.351   6.744  10.610  1.0461 -1.2470 -1.9856
10245TIP3   OH252225   4.894   4.441  13.843 -0.1537  0.3644 -0.1963
10245TIP3    H152226   4.867   4.532  13.832 -2.8980 -0.4774 -1.3119
10245TIP3    H252227   4.862   4.417  13.930 -0.7099  0.1088 -0.4623
10246TIP3   OH252228   5.463   6.053  12.867  0.1825  0.3863 -0.9425
10246TIP3    H152229   5.483   6.142  12.839 -0.3637  0.3517 -1.4586
10246TIP3    H252230   5.489   6.050  12.959  2.5925  0.3171 -1.5542
10247TIP3   OH252231   0.299   5.898  13.722 -0.2717  0.4180 -0.3978
10247TIP3    H152232   0.231   5.904  13.656  1.2309 -0.3669 -2.0998
10247TIP3    H252233   0.363   5.836  13.686 -0.8016 -2.5566  3.0702
10248TIP3   OH252234   1.953   0.482  12.998  0.4566 -0.3490  0.0026
10248TIP3    H152235   2.031   0.466  13.050  0.6717  0.5384 -0.0324
10248TIP3    H252236   1.888   0.513  13.060 -0.0501 -1.5644  0.1181
10249TIP3   OH252237   3.219   2.772  14.076 -0.6877 -0.2670  0.6155
10249TIP3    H152238   3.211   2.828  13.999 -1.2863 -2.7069 -1.2523
10249TIP3    H252239   3.146   2.797  14.132 -0.1220  1.6999  0.5500
10250TIP3   OH252240   3.869   4.512   2.202 -0.0550  0.2305  0.3594
10250TIP3    H152241   3.852   4.568   2.127 -1.2864 -0.8340 -0.2096
10250TIP3    H252242   3.940   4.555   2.250 -1.0145  2.2962  0.0258
10251TIP3   OH252243   5.887   1.460  14.647 -0.2262 -0.3626 -0.6941
10251TIP3    H152244   5.906   1.395  14.715  1.3454 -1.0129 -1.6900
10251TIP3    H252245   5.824   1.520  14.687 -1.3869 -2.2292  0.4112
10252TIP3   OH252246   3.744   0.234  16.111 -0.5161 -0.0261  0.2428
10252TIP3    H152247   3.824   0.284  16.130 -0.9131  0.7419 -0.0611
10252TIP3    H252248   3.702   0.223  16.197 -0.1037 -0.4135  0.4010
10253TIP3   OH252249   1.234   1.626   0.906 -0.1408  0.0306  0.3138
10253TIP3    H152250   1.325   1.610   0.932 -0.1972 -0.7766  0.0521
10253TIP3    H252251   1.182   1.575   0.968 -0.4586  1.0226  0.8769
10254TIP3   OH252252   3.667   4.579  17.123  0.8178 -0.3531  0.1379
10254TIP3    H152253   3.676   4.567  17.217  1.4066  1.4526  0.3622
10254TIP3    H252254   3.589   4.529  17.099  0.4143 -0.4896  1.6717
10255TIP3   OH252255   5.953   6.517  15.090  0.5537  1.2141 -0.6353
10255TIP3    H152256   5.913   6.562  15.164  1.2325  0.8111 -0.0081
10255TIP3    H252257   6.035   6.481  15.125  0.2209 -0.1842 -1.2011
10256TIP3   OH252258   3.358   1.935  17.179 -0.2430 -0.1342 -0.4325
10256TIP3    H152259   3.298   1.966  17.246 -0.0891 -1.4274  0.3411
10256TIP3    H252260   3.305   1.929  17.100 -0.2061  2.3147 -0.7219
10257TIP3   OH252261   4.101   0.408  13.580  0.1356  0.2020  0.6368
10257TIP3    H152262   4.140   0.422  13.494  0.9101  0.2642  0.9874
10257TIP3    H252263   4.008   0.398  13.563  0.4743 -1.5767 -0.4177
10258TIP3   OH252264   2.978   6.791  12.921  0.0071  0.4170  0.0698
10258TIP3    H152265   2.901   6.846  12.907 -2.4310 -2.9850 -1.1909
10258TIP3    H252266   3.005   6.810  13.011 -1.3767  2.7402  0.0746
10259TIP3   OH252267   1.735   2.937   6.184  0.2005 -0.1795  1.1836
10259TIP3    H152268   1.811   2.973   6.229 -0.3129  0.1402  1.8050
10259TIP3    H252269   1.770   2.905   6.101  0.8804  0.6736  1.1228
10260TIP3   OH252270   3.365   3.743  17.041 -0.1772 -0.4515 -0.0455
10260TIP3    H152271   3.358   3.789  16.958  0.0760  2.2129  1.2849
10260TIP3    H252272   3.456   3.713  17.045  0.1468  0.4509 -0.2753
10261TIP3   OH252273   2.378   3.379   5.660  0.3704 -0.1533  0.1623
10261TIP3    H152274   2.437   3.316   5.702 -0.0912 -0.5027  0.2928
10261TIP3    H252275   2.337   3.330   5.589  1.8643  0.7010 -1.3601
10262TIP3   OH252276   5.260   2.721   1.340  0.1677 -0.0822 -0.0968
10262TIP3    H152277   5.354   2.713   1.323  0.5064  0.1426  1.5101
10262TIP3    H252278   5.224   2.635   1.319  0.7031 -0.1413 -0.8251
10263TIP3   OH252279   5.096   2.307  11.470  0.0552  0.6376 -0.1606
10263TIP3    H152280   5.175   2.280  11.518 -1.6081 -1.2357  1.7085
10263TIP3    H252281   5.085   2.241  11.402  0.2180  1.0448 -0.5879
10264TIP3   OH252282   1.333   3.918  16.955 -0.3057 -0.0574 -0.3121
10264TIP3    H152283   1.355   3.852  17.020  0.8070 -1.5657 -2.1368
10264TIP3    H252284   1.243   3.897  16.928 -0.6564  0.3855  0.4858
10265TIP3   OH252285   4.450   2.298  11.874  0.4409  0.2726  0.3017
10265TIP3    H152286   4.392   2.332  11.942  1.2283 -0.8088  1.5558
10265TIP3    H252287   4.527   2.354  11.878  0.4626  0.2470  0.2500
10266TIP3   OH252288   1.798   3.296  13.557 -0.1602  0.6938  0.1242
10266TIP3    H152289   1.793   3.376  13.505 -0.3686  0.5536 -0.0728
10266TIP3    H252290   1.835   3.324  13.641  0.6443  0.8344 -0.2695
10267TIP3   OH252291   2.455   5.878   4.120  0.6036 -0.6721 -0.1484
10267TIP3    H152292   2.412   5.801   4.085  2.3059 -2.0856  0.7040
10267TIP3    H252293   2.459   5.940   4.047 -1.8895 -0.8621 -0.5025
10268TIP3   OH252294   5.533   4.347   1.493  0.0616  0.0406 -0.2391
10268TIP3    H152295   5.626   4.344   1.468 -0.1123  0.7981 -1.0042
10268TIP3    H252296   5.523   4.430   1.538  0.1125 -0.8055  1.4153
10269TIP3   OH252297   5.128   4.033   3.002  0.2370  0.0889 -0.4228
10269TIP3    H152298   5.199   3.969   3.003 -0.6039 -0.8833  1.3229
10269TIP3    H252299   5.128   4.070   3.090  0.8271  2.6994 -1.4406
10270TIP3   OH252300   4.914   3.096   5.741  0.2254 -0.0447 -0.2238
10270TIP3    H152301   4.992   3.075   5.689 -0.5997 -1.9720 -0.7874
10270TIP3    H252302   4.842   3.055   5.694 -1.1847  1.7602  0.2489
10271TIP3   OH252303   3.317   3.033  11.113  0.0071 -0.3612  0.6331
10271TIP3    H152304   3.254   2.982  11.063 -0.0010 -0.3933  0.6767
10271TIP3    H252305   3.339   3.106  11.056  0.8712 -1.0123  0.1078
10272TIP3   OH252306   5.816   6.273  12.922  0.1144 -0.0852  0.2116
10272TIP3    H152307   5.807   6.366  12.943 -1.0145  0.0633 -0.8267
10272TIP3    H252308   5.809   6.229  13.006 -0.7381  0.6860  0.5601
10273TIP3   OH252309   2.357   4.625  11.602  0.4080 -0.0868  0.7629
10273TIP3    H152310   2.277   4.608  11.553  0.0075  0.1205  1.3342
10273TIP3    H252311   2.364   4.721  11.602  0.6530 -0.1052  0.7238
10274TIP3   OH252312   3.863   0.765   0.215  0.1758 -0.2107  0.1444
10274TIP3    H152313   3.800   0.803   0.276  0.5393  0.9626 -0.1840
10274TIP3    H252314   3.947   0.801   0.242  0.5117 -0.6791 -0.2679
10275TIP3   OH252315   3.037   4.569   0.522 -0.3788  0.8019 -0.6686
10275TIP3    H152316   3.042   4.499   0.457 -4.2214 -0.1589 -0.1879
10275TIP3    H252317   3.098   4.542   0.591 -0.9077 -1.5466 -1.0284
10276TIP3   OH252318   2.455   4.838  12.837 -0.0875 -0.3767  1.0142
10276TIP3    H152319   2.367   4.871  12.855 -0.0107 -0.3778  1.4174
10276TIP3    H252320   2.449   4.744  12.852 -0.0491 -0.3938  0.9195
10277TIP3   OH252321   3.259   0.169  13.767 -0.2470  0.1832 -0.2032
10277TIP3    H152322   3.228   0.232  13.702 -1.3820 -1.3433 -1.2237
10277TIP3    H252323   3.194   0.172  13.837 -1.3711 -1.1242 -1.1237
10278TIP3   OH252324   2.225   0.430  13.192 -0.9379 -0.2908  0.2271
10278TIP3    H152325   2.196   0.340  13.177 -1.3997 -0.4108  1.6898
10278TIP3    H252326   2.230   0.438  13.287 -0.4513  1.0959  0.1024
10279TIP3   OH252327   5.934   5.320  16.032 -0.3081  0.7905  0.1676
10279TIP3    H152328   6.018   5.317  15.986 -0.0671 -0.2869  0.6504
10279TIP3    H252329   5.957   5.302  16.124 -1.0189  0.9406  0.3803
10280TIP3   OH252330   0.706   2.944  16.061  0.0288 -0.2420 -0.0035
10280TIP3    H152331   0.778   2.953  15.999  0.6436 -0.9321  0.5780
10280TIP3    H252332   0.646   2.882  16.020 -1.1979  1.7384 -1.3197
10281TIP3   OH252333   4.160   4.773   3.288  0.5096  0.2381  0.0926
10281TIP3    H152334   4.171   4.849   3.345  0.4193  1.7780 -1.8391
10281TIP3    H252335   4.090   4.798   3.227 -1.0452 -2.2600  0.7231
10282TIP3   OH252336   3.080   1.342   6.157  0.4272  0.3467  0.0059
10282TIP3    H152337   3.163   1.372   6.120 -0.3837 -0.6622 -2.9358
10282TIP3    H252338   3.024   1.420   6.157  0.8799  0.6785  0.5303
10283TIP3   OH252339   6.472   5.845   4.807  0.4693  0.0249  0.4558
10283TIP3    H152340   6.557   5.805   4.825  0.6049 -0.2639 -0.6905
10283TIP3    H252341   6.451   5.817   4.717  0.1841  1.8419 -0.0850
10284TIP3   OH252342   2.773   0.839   1.573  0.0501 -0.0335  0.3218
10284TIP3    H152343   2.700   0.889   1.538 -1.3258 -0.8784  1.8518
10284TIP3    H252344   2.744   0.748   1.571  1.3338 -0.4660  0.3184
10285TIP3   OH252345   5.626   1.445   4.427 -0.0159  0.4812  0.4780
10285TIP3    H152346   5.582   1.385   4.366 -0.9135 -1.0985  2.5477
10285TIP3    H252347   5.666   1.387   4.492  2.2647  2.0522  0.5572
10286TIP3   OH252348   1.380   2.526  15.025  0.1590  0.4979 -0.2982
10286TIP3    H152349   1.434   2.448  15.010 -2.1394 -1.3008  0.2037
10286TIP3    H252350   1.366   2.529  15.119 -1.8941 -0.0704 -0.5296
10287TIP3   OH252351   5.237   3.083   4.729 -0.4874 -0.2417  0.3667
10287TIP3    H152352   5.162   3.118   4.778 -0.7268 -0.4310  0.1333
10287TIP3    H252353   5.312   3.129   4.766 -1.0272  2.7572 -1.8486
10288TIP3   OH252354   5.807   4.926   2.958 -0.7934 -0.8348 -0.4639
10288TIP3    H152355   5.873   4.984   2.921 -0.7033 -0.1031  0.7591
10288TIP3    H252356   5.724   4.960   2.925 -0.7714  0.2841  0.5508
10289TIP3   OH252357   3.186   1.389  12.593 -0.5784  0.4998 -0.1762
10289TIP3    H152358   3.099   1.368  12.557 -0.5766 -0.3708  0.3183
10289TIP3    H252359   3.247   1.365  12.523 -0.6824  0.3700 -0.2240
10290TIP3   OH252360   5.168   5.553   1.280  0.3493 -0.1281 -0.0406
10290TIP3    H152361   5.249   5.597   1.256  0.3758 -0.6926 -1.0521
10290TIP3    H252362   5.103   5.586   1.218  0.5330 -2.0127 -1.3292
10291TIP3   OH252363   2.133   6.131   3.522 -0.1065 -0.3471  0.2237
10291TIP3    H152364   2.124   6.225   3.508  1.1525 -0.1370  0.6315
10291TIP3    H252365   2.062   6.092   3.472 -0.5429  0.8131 -0.0934
10292TIP3   OH252366   1.166   2.893   4.850  0.0440  0.2829 -0.0707
10292TIP3    H152367   1.139   2.961   4.912 -0.0583 -0.6506  0.9495
10292TIP3    H252368   1.248   2.859   4.886  2.6776  2.9274 -3.0116
10293TIP3   OH252369   1.270   0.434   1.843 -0.3033 -0.2866  0.3984
10293TIP3    H152370   1.338   0.456   1.780 -1.9335  0.5474 -1.1484
10293TIP3    H252371   1.267   0.510   1.902 -1.9496  1.1994 -1.4375
10294TIP3   OH252372   3.853   4.341  16.063  0.0707 -0.0618  0.2920
10294TIP3    H152373   3.948   4.335  16.075  0.1623  1.3214  0.4252
10294TIP3    H252374   3.832   4.431  16.086 -1.3937 -0.5546  1.0061
10295TIP3   OH252375   6.381   1.774  13.234  0.3307 -0.1540 -1.3460
10295TIP3    H152376   6.299   1.768  13.184  0.8285  0.6225 -2.2955
10295TIP3    H252377   6.410   1.684  13.244 -1.6141 -0.6478  0.7255
10296TIP3   OH252378   4.349   1.248   4.140 -0.8064  0.2542 -0.2853
10296TIP3    H152379   4.353   1.316   4.073  1.5860 -0.0062 -0.4873
10296TIP3    H252380   4.334   1.296   4.222 -0.8825  0.8436 -0.6378
10297TIP3   OH252381   1.471   5.563   4.973 -0.1267 -0.2012  0.6545
10297TIP3    H152382   1.529   5.607   5.035  1.7109  1.2702 -1.9463
10297TIP3    H252383   1.502   5.472   4.972  0.2957 -0.0755  1.3186
10298TIP3   OH252384   3.357   3.715  10.977 -0.3392 -0.2483 -0.0031
10298TIP3    H152385   3.312   3.657  10.917 -0.2013 -1.3751  0.9418
10298TIP3    H252386   3.407   3.774  10.921 -0.6749 -0.8844 -0.9912
10299TIP3   OH252387   0.502   2.243  12.031 -0.0569 -0.1134 -0.4161
10299TIP3    H152388   0.500   2.171  11.968 -0.4694 -0.8551  0.4268
10299TIP3    H252389   0.515   2.322  11.977 -0.8726 -0.6747 -1.4606
10300TIP3   OH252390   4.418   6.365   3.841 -0.0527  0.0523  0.1900
10300TIP3    H152391   4.340   6.312   3.829 -0.1965  0.5680 -1.4076
10300TIP3    H252392   4.422   6.381   3.935  0.0475 -2.8138  0.7614
10301TIP3   OH252393   1.157   4.727  14.931 -0.2510 -0.4835  0.2066
10301TIP3    H152394   1.223   4.699  14.867  0.0404 -0.8303  0.6600
10301TIP3    H252395   1.138   4.818  14.906 -0.5171 -0.7695 -0.6932
10302TIP3   OH252396   2.763   0.165  16.697 -0.3944  0.0701 -0.1010
10302TIP3    H152397   2.813   0.189  16.775 -0.9103  1.0844 -0.0621
10302TIP3    H252398   2.806   0.211  16.626  0.5149 -1.4280 -0.5518
10303TIP3   OH252399   0.627   2.307  12.496 -0.0329 -0.6301  0.6389
10303TIP3    H152400   0.704   2.253  12.512 -1.1231 -1.6064  2.9747
10303TIP3    H252401   0.663   2.390  12.464  1.8253 -1.7901 -0.4418
10304TIP3   OH252402   0.260   5.856   2.801 -0.0248  0.2477 -0.3230
10304TIP3    H152403   0.271   5.933   2.857  0.8022 -0.0082 -0.1176
10304TIP3    H252404   0.205   5.886   2.729 -0.9257  0.6411  0.5008
10305TIP3   OH252405   5.382   3.494   1.007 -0.3671 -0.2619  0.0845
10305TIP3    H152406   5.401   3.483   1.100 -0.6389  0.3315  0.2164
10305TIP3    H252407   5.445   3.437   0.962 -0.4031 -0.7400  0.6395
10306TIP3   OH252408   6.262   4.581  11.539 -0.1418 -0.1798 -0.0241
10306TIP3    H152409   6.244   4.674  11.545  3.7509  0.7672 -0.4969
10306TIP3    H252410   6.191   4.539  11.589 -3.8495  2.6264 -2.3841
10307TIP3   OH252411   2.097   3.716  15.312  0.1213 -0.0264 -0.4355
10307TIP3    H152412   2.014   3.708  15.360  1.1213 -0.3222  1.3341
10307TIP3    H252413   2.126   3.806  15.328  0.4625 -0.1240 -0.4992
10308TIP3   OH252414   1.596   1.347   6.471  0.1465  0.1975 -0.4688
10308TIP3    H152415   1.618   1.440   6.467 -0.4495  0.3591 -0.1003
10308TIP3    H252416   1.639   1.309   6.394  0.3338  0.7889 -0.6644
10309TIP3   OH252417   6.682   0.045  11.350  0.0204  0.2616 -0.6209
10309TIP3    H152418   6.620   0.118  11.346  1.2790  1.4882  0.9247
10309TIP3    H252419   6.628  -0.030  11.374 -1.1653  0.8504 -1.3327
10310TIP3   OH252420   0.936   5.247   0.749  0.0225  0.2403 -0.0979
10310TIP3    H152421   0.882   5.182   0.795 -0.5497  0.6950 -0.1096
10310TIP3    H252422   0.873   5.295   0.695  0.5599  0.2742 -0.7000
10311TIP3   OH252423   1.584   6.444   2.373 -0.3941  0.8224 -0.2739
10311TIP3    H152424   1.672   6.430   2.337  0.4060 -0.7743  2.0750
10311TIP3    H252425   1.525   6.413   2.304  0.9804 -0.2610 -1.0082
10312TIP3   OH252426   1.667   5.925   4.487 -0.1523  0.2320  0.0666
10312TIP3    H152427   1.577   5.957   4.491 -0.6751 -1.0500 -0.9416
10312TIP3    H252428   1.696   5.925   4.578  0.1536  4.1401  0.1542
10313TIP3   OH252429   2.365   2.226   0.562  0.2556 -1.0167  0.1014
10313TIP3    H152430   2.335   2.223   0.471  2.8258 -1.7167 -0.7852
10313TIP3    H252431   2.458   2.208   0.558  1.1121  1.9704  2.5763
10314TIP3   OH252432   4.638   3.190  13.355  0.1570  0.1430 -0.0176
10314TIP3    H152433   4.709   3.133  13.327 -0.2437 -0.3051 -0.1428
10314TIP3    H252434   4.675   3.241  13.427  0.9317  0.6980 -0.7855
10315TIP3   OH252435   1.669   3.518  10.374  0.0659 -1.2442  0.3179
10315TIP3    H152436   1.595   3.546  10.429 -0.4627  0.2325 -1.0529
10315TIP3    H252437   1.745   3.562  10.412 -0.4709  0.6851 -0.7010
10316TIP3   OH252438   6.783   3.923  16.245  0.3456  0.0920  0.0598
10316TIP3    H152439   6.846   3.973  16.297 -1.2714  2.2173  0.1476
10316TIP3    H252440   6.822   3.922  16.157  2.7485 -2.9138  0.9971
10317TIP3   OH252441   5.378   6.091   0.178  0.1575  0.6374  0.5872
10317TIP3    H152442   5.292   6.091   0.218  0.1299  0.9756  0.5300
10317TIP3    H252443   5.372   6.155   0.107 -0.0087 -0.4608 -0.4164
10318TIP3   OH252444   5.190   5.296   6.110  0.0938 -0.2850 -0.5120
10318TIP3    H152445   5.184   5.377   6.160 -3.3383 -0.7784  0.1446
10318TIP3    H252446   5.211   5.228   6.174 -0.2699 -0.3331 -0.4368
10319TIP3   OH252447   0.740   5.793  10.869  0.3874 -0.2903  0.8384
10319TIP3    H152448   0.762   5.702  10.887 -1.0932 -1.2572 -1.6586
10319TIP3    H252449   0.818   5.830  10.827 -0.1114 -1.5064 -1.3037
10320TIP3   OH252450   2.915   4.264   0.877  0.3654  0.3392 -0.0900
10320TIP3    H152451   2.852   4.202   0.914  0.8418  0.6812  1.3393
10320TIP3    H252452   2.862   4.319   0.819 -0.7303  0.8386  1.3289
10321TIP3   OH252453   2.425   6.062  16.528  0.2843  0.6813 -0.1457
10321TIP3    H152454   2.516   6.057  16.557 -0.4362 -1.6657  2.0107
10321TIP3    H252455   2.395   6.148  16.558  1.5553  1.2094 -0.2980
10322TIP3   OH252456   6.744   6.492  16.907  0.1431  0.5518  0.0118
10322TIP3    H152457   6.763   6.572  16.857  0.4647  0.4827  0.0252
10322TIP3    H252458   6.651   6.499  16.928  0.1708  0.9305  0.0215
10323TIP3   OH252459   0.687   0.536  15.055 -0.6255 -0.6214 -0.6953
10323TIP3    H152460   0.655   0.532  15.145 -1.5020 -0.6431 -1.0008
10323TIP3    H252461   0.781   0.555  15.064 -0.5118 -1.5125  0.2358
10324TIP3   OH252462   6.162   5.630  11.619 -0.5634 -0.2343 -0.1168
10324TIP3    H152463   6.074   5.634  11.581 -0.7819 -1.6436  0.1915
10324TIP3    H252464   6.206   5.708  11.585 -1.7098  0.1346 -0.8204
10325TIP3   OH252465   4.944   4.209   5.494  0.0516 -0.6200  0.2150
10325TIP3    H152466   4.931   4.155   5.416 -0.5450 -0.3434  0.1204
10325TIP3    H252467   4.911   4.295   5.469  0.5882 -0.3203  0.5136
10326TIP3   OH252468   6.115   0.632  15.318 -0.3938 -0.1509  0.1440
10326TIP3    H152469   6.020   0.642  15.320 -0.2539  2.9549 -1.3451
10326TIP3    H252470   6.148   0.705  15.370  1.1486 -0.1575 -0.7479
10327TIP3   OH252471   3.476   6.472  13.526  0.8412  0.1868 -0.2299
10327TIP3    H152472   3.478   6.377  13.517  0.4028  0.2408 -0.9687
10327TIP3    H252473   3.388   6.492  13.557  0.3075  0.4691 -1.8193
10328TIP3   OH252474   2.832   3.515   1.214 -0.0181 -0.0905  0.1302
10328TIP3    H152475   2.878   3.594   1.185  0.6032 -0.1853  0.8356
10328TIP3    H252476   2.846   3.513   1.308 -0.8212 -0.5477  0.2467
10329TIP3   OH252477   6.649   2.186   0.818 -0.0809  0.2809  0.4148
10329TIP3    H152478   6.695   2.114   0.775 -0.7647 -0.4813  0.9128
10329TIP3    H252479   6.637   2.252   0.750  1.1405  0.2127  0.1125
10330TIP3   OH252480   0.731   2.747  12.051  0.0733  0.1961  0.0318
10330TIP3    H152481   0.659   2.804  12.023 -0.4626  0.5989  2.0762
10330TIP3    H252482   0.786   2.802  12.106  1.9409 -0.1372 -1.4062
10331TIP3   OH252483   5.090   4.398  13.482  0.3323  0.2235 -0.1416
10331TIP3    H152484   5.068   4.345  13.558  0.8018  0.8292  0.4369
10331TIP3    H252485   5.039   4.361  13.410 -1.1244  0.4533  0.7447
10332TIP3   OH252486   2.549   3.056  13.351  0.0455 -0.2802  0.4049
10332TIP3    H152487   2.490   3.119  13.394  1.0793  1.3425 -0.4764
10332TIP3    H252488   2.502   2.972  13.357 -0.5914  0.1598  3.2093
10333TIP3   OH252489   6.710   5.876  15.918 -0.3266 -0.1635  0.1727
10333TIP3    H152490   6.779   5.941  15.928 -0.9955  0.1880  3.9142
10333TIP3    H252491   6.755   5.797  15.888  1.0611  1.0010 -0.9409
10334TIP3   OH252492   1.297   3.915  15.922  0.3554  0.2731 -0.1775
10334TIP3    H152493   1.228   3.882  15.981 -0.4853  0.0030 -1.2854
10334TIP3    H252494   1.368   3.940  15.981 -0.9283  1.1901  1.0824
10335TIP3   OH252495   1.735   2.255   3.358 -0.5399  0.4680 -0.1747
10335TIP3    H152496   1.710   2.230   3.446 -0.0070  1.1745  0.1896
10335TIP3    H252497   1.660   2.232   3.304 -2.0610  2.6008  0.8908
10336TIP3   OH252498   5.125   6.130   4.879  0.0524  0.5512  0.6634
10336TIP3    H152499   5.085   6.048   4.907 -1.4155  0.7785 -0.6208
10336TIP3    H252500   5.196   6.102   4.820 -1.8627  0.1448 -1.6072
10337TIP3   OH252501   1.696   0.393  15.341  0.2890 -0.0119 -0.2415
10337TIP3    H152502   1.746   0.395  15.259  0.2211 -2.7787 -0.4503
10337TIP3    H252503   1.636   0.319  15.331 -1.1935  0.8425  1.5342
10338TIP3   OH252504   1.396   6.567   5.315 -0.0751 -0.2878 -0.1625
10338TIP3    H152505   1.454   6.495   5.340  0.5230 -0.1141 -1.0229
10338TIP3    H252506   1.386   6.559   5.220  0.6052  1.1895 -0.3913
10339TIP3   OH252507   2.654   1.569  13.033  0.1705  0.4212  0.2571
10339TIP3    H152508   2.742   1.564  12.996 -0.1495  0.3752 -0.5207
10339TIP3    H252509   2.603   1.616  12.967 -0.5107 -0.0101  0.4639
10340TIP3   OH252510   5.682   0.708   6.161  0.2660  0.3188  0.2772
10340TIP3    H152511   5.757   0.760   6.189  0.6482 -0.5836  0.9402
10340TIP3    H252512   5.704   0.618   6.183  0.3010 -0.3793 -2.3067
10341TIP3   OH252513   0.133   2.019   0.766  0.6588  0.7376 -0.1151
10341TIP3    H152514   0.058   2.016   0.707 -0.3305  3.3684  0.8705
10341TIP3    H252515   0.209   2.020   0.708 -0.2486  2.2475 -1.3578
10342TIP3   OH252516   5.828   5.975   5.488  0.6596  0.1072  0.0133
10342TIP3    H152517   5.786   5.948   5.569  1.1365 -2.3539 -0.4896
10342TIP3    H252518   5.823   5.898   5.431  1.6035  1.2994 -1.7769
10343TIP3   OH252519   3.792   4.016   2.496  0.1783  0.2851  0.1258
10343TIP3    H152520   3.876   3.996   2.536  0.6065 -2.3294 -1.8266
10343TIP3    H252521   3.732   3.951   2.532  0.1329 -0.8611 -1.8903
10344TIP3   OH252522   4.608   2.096  15.887  0.0307 -0.1067  0.1492
10344TIP3    H152523   4.701   2.075  15.889  0.5669  2.0627  1.6182
10344TIP3    H252524   4.592   2.128  15.798  1.1884  1.3856  0.4488
10345TIP3   OH252525   3.125   3.431   5.077  0.4677  0.3954  0.0540
10345TIP3    H152526   3.175   3.401   5.153  0.6779 -0.9922 -0.5829
10345TIP3    H252527   3.068   3.500   5.110  1.1338  0.3671  1.2926
10346TIP3   OH252528   1.932   2.093   3.576 -0.3728  0.2978  0.2683
10346TIP3    H152529   2.008   2.143   3.605  0.8855 -1.5230  0.2674
10346TIP3    H252530   1.861   2.122   3.634 -0.1597  3.1924 -0.7757
10347TIP3   OH252531   6.442   4.123  12.837 -0.1596 -0.1777 -0.2999
10347TIP3    H152532   6.509   4.108  12.904  0.0001 -0.4773 -0.5264
10347TIP3    H252533   6.368   4.160  12.885  0.1660  0.1588 -0.0489
10348TIP3   OH252534   5.720   3.747   1.489  0.2413 -0.3260  0.3063
10348TIP3    H152535   5.757   3.661   1.470 -1.5902 -0.9332 -0.8073
10348TIP3    H252536   5.676   3.772   1.408  1.2753  1.9813  0.4054
10349TIP3   OH252537   6.629   5.188   4.791 -0.1146  0.3577 -0.4091
10349TIP3    H152538   6.578   5.255   4.746 -1.5658  0.1754  0.8609
10349TIP3    H252539   6.633   5.218   4.882 -0.1829 -0.9093  0.0356
10350TIP3   OH252540   5.583   0.108   2.246  0.3048  0.0565  0.4441
10350TIP3    H152541   5.494   0.084   2.221  0.5512 -1.2134  0.6988
10350TIP3    H252542   5.573   0.164   2.323 -0.2578 -0.7626  0.9795
10351TIP3   OH252543   3.823   3.931  16.637 -0.5933 -0.1898  0.2310
10351TIP3    H152544   3.762   3.951  16.567  0.1493 -0.1798 -0.4224
10351TIP3    H252545   3.893   3.881  16.594  0.1456  0.2969  0.8574
10352TIP3   OH252546   5.057   0.899  11.771  0.4781  0.5978  0.2679
10352TIP3    H152547   5.112   0.933  11.841 -1.1169  2.4402  0.7077
10352TIP3    H252548   5.087   0.945  11.692 -1.3114  2.7595  0.7660
10353TIP3   OH252549   5.000   0.856   1.418  0.1559  0.6792 -0.3835
10353TIP3    H152550   5.045   0.847   1.335 -1.4638  2.8850 -1.6044
10353TIP3    H252551   5.069   0.848   1.484  1.4885 -1.0004 -1.8994
10354TIP3   OH252552   4.031   4.089   5.546 -0.0174  0.1520 -0.5822
10354TIP3    H152553   4.101   4.056   5.490 -0.4600 -1.9410  0.0060
10354TIP3    H252554   4.057   4.063   5.635 -1.3354 -0.3407 -0.3139
10355TIP3   OH252555   2.049   2.304  12.486  0.7082 -0.4295 -0.0146
10355TIP3    H152556   2.109   2.378  12.489  1.1089 -0.7833  1.0529
10355TIP3    H252557   1.968   2.340  12.449  0.1998  1.0832  2.3358
10356TIP3   OH252558   5.290   3.609  14.690 -0.4603  0.4156  0.5135
10356TIP3    H152559   5.258   3.692  14.654  3.4152  2.5874  1.5201
10356TIP3    H252560   5.248   3.603  14.776 -0.7688  1.3785  0.4428
10357TIP3   OH252561   2.115   4.978   2.176 -0.2545 -0.3224 -0.5566
10357TIP3    H152562   2.196   5.029   2.177 -0.3527 -0.1577 -0.7996
10357TIP3    H252563   2.090   4.969   2.268 -0.5937  0.6412 -0.5462
10358TIP3   OH252564   6.387   5.347  13.532  0.3787  0.2388 -0.4406
10358TIP3    H152565   6.361   5.296  13.455  2.2173 -1.9233  0.2705
10358TIP3    H252566   6.419   5.282  13.595  3.3134  2.2330  0.3419
10359TIP3   OH252567   4.622   4.967  10.885  0.0996 -0.8701 -0.1419
10359TIP3    H152568   4.641   5.029  10.815  3.1096 -2.5361 -0.9520
10359TIP3    H252569   4.578   4.894  10.841 -4.1177  0.6967  0.9123
10360TIP3   OH252570   5.998   1.366  13.480 -0.5806 -0.1457 -0.2961
10360TIP3    H152571   5.918   1.325  13.446  0.1765 -0.5771 -1.6458
10360TIP3    H252572   6.061   1.294  13.485 -0.0716  0.3225  0.0850
10361TIP3   OH252573   1.812   3.988  15.774  0.1921 -0.1657 -0.1405
10361TIP3    H152574   1.812   3.985  15.678  2.8421  0.7695 -0.2564
10361TIP3    H252575   1.891   3.940  15.800  0.3475  0.8895  1.4985
10362TIP3   OH252576   5.602   0.930  13.745  0.2234  0.1324 -0.5264
10362TIP3    H152577   5.656   0.855  13.772  1.3575  0.7088 -1.1332
10362TIP3    H252578   5.516   0.911  13.782  0.8195 -0.8337  0.4382
10363TIP3   OH252579   4.532   5.499  15.965 -0.3642  0.3631 -0.0635
10363TIP3    H152580   4.440   5.495  15.938 -1.0732 -3.0372  2.2629
10363TIP3    H252581   4.574   5.427  15.918 -0.1856 -1.4301  2.6240
10364TIP3   OH252582   6.560   1.291  15.501  0.3372  0.8675  0.0606
10364TIP3    H152583   6.583   1.253  15.586  0.8813  1.9336  0.4062
10364TIP3    H252584   6.619   1.248  15.439  0.8501  1.0359  0.4244
10365TIP3   OH252585   0.288   2.424   0.197 -0.4445 -0.3778 -0.7646
10365TIP3    H152586   0.292   2.346   0.253  0.0305 -0.3576 -0.7628
10365TIP3    H252587   0.205   2.416   0.151 -1.6960  0.4954  1.2170
10366TIP3   OH252588   4.074   4.161   4.183  0.2886  0.2896 -0.2376
10366TIP3    H152589   4.059   4.112   4.102  0.9433 -0.8249  0.2935
10366TIP3    H252590   4.167   4.147   4.202  0.2430  0.9145  0.4661
10367TIP3   OH252591   0.558   1.502   6.235  0.4417 -0.1980  0.7534
10367TIP3    H152592   0.527   1.588   6.207 -0.1300 -0.5420  0.2943
10367TIP3    H252593   0.649   1.516   6.262  0.2838  0.5870  0.8893
10368TIP3   OH252594   4.511   0.935  10.866 -0.5414 -0.2386 -0.7275
10368TIP3    H152595   4.589   0.967  10.911 -1.1318 -1.1459  1.0730
10368TIP3    H252596   4.540   0.855  10.822 -0.2032  0.0331 -0.9979
10369TIP3   OH252597   2.819   6.407  11.907 -0.1112  0.2186 -0.1284
10369TIP3    H152598   2.857   6.336  11.854 -1.2340 -0.6435  0.1792
10369TIP3    H252599   2.822   6.375  11.997 -1.8657 -0.0527 -0.1307
10370TIP3   OH252600   2.442   5.343  14.663 -0.7172  0.0260 -0.2415
10370TIP3    H152601   2.465   5.331  14.571  0.9990 -1.8445  0.3508
10370TIP3    H252602   2.516   5.306  14.711 -0.9106  2.1655  1.9363
10371TIP3   OH252603   6.689   0.670   0.531  0.5199  0.1157 -0.1058
10371TIP3    H152604   6.754   0.726   0.488  0.4914 -0.0754 -0.4031
10371TIP3    H252605   6.633   0.639   0.459  1.3382 -1.3672 -0.1625
10372TIP3   OH252606   3.961   4.316   5.036 -0.3285 -0.1536  0.0853
10372TIP3    H152607   3.957   4.360   5.121  1.1660  0.6647 -0.2342
10372TIP3    H252608   3.876   4.273   5.027 -0.6329  0.0199  1.8400
10373TIP3   OH252609   1.527   4.050   0.536  0.2888  0.6282  0.7407
10373TIP3    H152610   1.453   4.073   0.481 -0.9570  1.6772  2.7240
10373TIP3    H252611   1.497   4.067   0.626  2.7250  0.5166  1.6705
10374TIP3   OH252612   6.761   3.914  12.285 -0.2112  0.6097 -0.2310
10374TIP3    H152613   6.745   3.867  12.203 -0.3910 -1.2867  0.8265
10374TIP3    H252614   6.856   3.910  12.297 -0.1385  1.2536 -0.5228
10375TIP3   OH252615   1.522   4.379   2.465  0.0033  0.1156 -0.4259
10375TIP3    H152616   1.570   4.460   2.448  0.3757  0.1317  0.6173
10375TIP3    H252617   1.575   4.310   2.426 -0.0583  0.3258 -0.8771
10376TIP3   OH252618   3.671   2.619   0.171  0.4758 -0.5146 -0.4415
10376TIP3    H152619   3.595   2.587   0.123  1.4133 -0.9714 -1.6647
10376TIP3    H252620   3.670   2.570   0.253 -1.2622  0.4281  0.1455
10377TIP3   OH252621   5.095   1.303   3.918 -0.3939  0.3850  0.2856
10377TIP3    H152622   5.078   1.372   3.853  0.2926 -1.1488 -1.6201
10377TIP3    H252623   5.008   1.278   3.949 -0.9419 -0.2455 -1.6156
10378TIP3   OH252624   2.541   4.904   5.397 -0.1161 -0.7724 -0.2732
10378TIP3    H152625   2.481   4.949   5.456 -0.5657 -0.0965 -1.2012
10378TIP3    H252626   2.616   4.963   5.389 -0.4475 -0.4294 -1.0361
10379TIP3   OH252627   3.580   1.502  12.730 -0.2939  0.5384 -0.6155
10379TIP3    H152628   3.546   1.591  12.735  0.4738  0.7908  0.4261
10379TIP3    H252629   3.546   1.459  12.809  1.4992  0.7118  0.2987
10380TIP3   OH252630   1.009   5.507  15.841  0.0646 -0.5540  0.1056
10380TIP3    H152631   0.975   5.552  15.764  1.0938 -0.5030 -0.3347
10380TIP3    H252632   1.037   5.421  15.808  1.9548  0.0323  0.0651
10381TIP3   OH252633   5.002   5.885  14.807  0.5627  0.3661 -0.0179
10381TIP3    H152634   4.952   5.871  14.887  3.0700  1.2133  1.8295
10381TIP3    H252635   5.048   5.802  14.792  0.0078  0.1710 -0.6684
10382TIP3   OH252636   3.925   1.306  12.992 -0.8709 -0.5447  0.1869
10382TIP3    H152637   4.018   1.296  13.013 -0.6893 -1.2385 -0.8510
10382TIP3    H252638   3.915   1.260  12.909 -1.8727  0.6541 -0.3897
10383TIP3   OH252639   5.083   2.691  13.174 -0.3631 -0.5847  0.5018
10383TIP3    H152640   5.065   2.740  13.094  0.3122 -0.7171  0.2580
10383TIP3    H252641   5.009   2.710  13.231 -1.6448 -1.7514 -0.7288
10384TIP3   OH252642   6.301   3.503  11.940 -0.3659  0.4129  0.1988
10384TIP3    H152643   6.270   3.515  12.030 -0.7464  1.4481 -0.0592
10384TIP3    H252644   6.223   3.516  11.886 -0.1103 -0.0797 -0.2951
10385TIP3   OH252645   6.164   2.859  15.854  0.1011 -0.4481  0.0823
10385TIP3    H152646   6.150   2.888  15.944 -2.4039 -1.0225 -0.0678
10385TIP3    H252647   6.244   2.905  15.827 -0.7735  2.1663  1.5659
10386TIP3   OH252648   4.848   6.531  12.167  0.0766  0.4675  0.3722
10386TIP3    H152649   4.790   6.472  12.215  2.9348 -2.2074  0.8964
10386TIP3    H252650   4.890   6.474  12.101 -0.6315  3.1003 -2.5791
10387TIP3   OH252651   3.591   5.746   5.180  0.4853 -0.4173  0.1983
10387TIP3    H152652   3.577   5.802   5.103 -0.4313  1.8315  1.9088
10387TIP3    H252653   3.615   5.806   5.250 -0.6596 -2.1315  2.1820
10388TIP3   OH252654   5.272   3.653   0.059  0.0049  0.0303  0.6489
10388TIP3    H152655   5.235   3.641   0.146  0.8774 -0.6191  0.9458
10388TIP3    H252656   5.210   3.610   0.000  0.1904 -0.9205  1.1245
10389TIP3   OH252657   4.323   4.530   3.606  0.0460 -0.6801  0.1443
10389TIP3    H152658   4.304   4.608   3.657 -2.0471 -0.7459 -0.4172
10389TIP3    H252659   4.413   4.541   3.575 -0.1907  1.4767  0.1176
10390TIP3   OH252660   4.453   1.829  11.978  0.3302 -0.0360 -0.5915
10390TIP3    H152661   4.397   1.774  11.924  0.2501  1.9508 -2.6780
10390TIP3    H252662   4.435   1.918  11.948  0.4164  1.2180  2.6290
10391TIP3   OH252663   5.608   1.148   6.004  0.2100  0.2209  0.1217
10391TIP3    H152664   5.544   1.161   6.074  0.8044  2.5627  0.3301
10391TIP3    H252665   5.609   1.054   5.989 -1.1349 -0.1711  2.1295
10392TIP3   OH252666   3.469   4.896   6.231  0.0615 -0.0627 -0.1975
10392TIP3    H152667   3.547   4.918   6.180 -0.0569  0.3637 -0.1963
10392TIP3    H252668   3.498   4.828   6.292  0.3963 -0.0027 -0.2902
10393TIP3   OH252669   0.532   5.279   3.971  0.1335  0.5038 -0.2637
10393TIP3    H152670   0.450   5.267   3.921 -1.0756 -2.7463  2.2166
10393TIP3    H252671   0.599   5.241   3.915 -1.1223 -2.6904  0.2144
10394TIP3   OH252672   6.471   0.829  10.500 -0.1079 -0.3125 -0.7463
10394TIP3    H152673   6.453   0.922  10.517  2.2465 -0.0040  0.5004
10394TIP3    H252674   6.563   0.827  10.473  0.8834 -2.4980  2.2332
10395TIP3   OH252675   6.612   6.686   3.632 -0.1606  0.1628 -0.3053
10395TIP3    H152676   6.573   6.698   3.718  1.1589  1.7386  0.0983
10395TIP3    H252677   6.622   6.591   3.623  2.2033  0.0236  2.4589
10396TIP3   OH252678   1.674   3.825   4.216 -0.3865  0.3191 -0.6473
10396TIP3    H152679   1.593   3.820   4.166 -0.0223  0.4857 -1.2644
10396TIP3    H252680   1.722   3.746   4.192 -1.1573 -0.7355  1.1368
10397TIP3   OH252681   2.291   0.778  16.576 -0.3421 -0.1897 -0.8015
10397TIP3    H152682   2.286   0.817  16.664  1.4041  1.4937 -1.3711
10397TIP3    H252683   2.213   0.724  16.569 -1.1544  0.5997  1.3401
10398TIP3   OH252684   5.615   0.409  11.811  0.1374  0.3793 -0.2003
10398TIP3    H152685   5.677   0.340  11.830  0.7617  0.8575 -0.4677
10398TIP3    H252686   5.622   0.470  11.885 -1.5987 -0.6456  0.8633
10399TIP3   OH252687   2.404   5.477   3.292  0.3517  0.9767 -0.1821
10399TIP3    H152688   2.317   5.477   3.331  0.0398 -0.2634 -0.8194
10399TIP3    H252689   2.399   5.542   3.221 -0.0572  0.9171 -0.2091
10400TIP3   OH252690   0.259   0.117   1.324  0.2924  0.3226 -0.6998
10400TIP3    H152691   0.272   0.029   1.288  1.3929  0.6904 -1.2255
10400TIP3    H252692   0.283   0.176   1.253 -1.5787  1.0876 -0.7695
10401TIP3   OH252693   4.961   4.941   0.314 -0.3665  0.0395  0.5015
10401TIP3    H152694   5.028   4.873   0.324 -1.7302 -1.1649  2.1513
10401TIP3    H252695   4.945   4.944   0.220  2.3823  0.8323 -0.0455
10402TIP3   OH252696   4.835   1.036   1.542  0.1040 -0.1164 -0.2897
10402TIP3    H152697   4.910   0.981   1.518  0.6932 -0.1241  1.4381
10402TIP3    H252698   4.828   1.027   1.637 -2.0261 -0.0134 -0.3878
10403TIP3   OH252699   5.720   2.417  16.099  0.0906  0.0858 -0.0215
10403TIP3    H152700   5.689   2.398  16.188 -1.5873 -0.6248 -0.7069
10403TIP3    H252701   5.722   2.332  16.055 -0.1535  0.5574 -0.9690
10404TIP3   OH252702   6.623   4.303  16.699 -0.0005 -0.0889 -0.6095
10404TIP3    H152703   6.586   4.322  16.785 -1.0219  0.0481 -1.0633
10404TIP3    H252704   6.623   4.207  16.694 -0.8423 -0.0845 -0.8252
10405TIP3   OH252705   1.393   3.298  16.489 -0.2987 -0.5893 -0.3711
10405TIP3    H152706   1.298   3.312  16.494 -0.7433 -3.2244  0.0478
10405TIP3    H252707   1.405   3.208  16.518  2.3239 -0.4628 -0.8523
10406TIP3   OH252708   1.382   1.477  12.344 -0.5247  0.2077  1.2531
10406TIP3    H152709   1.371   1.487  12.249  0.7434 -1.6550  0.8609
10406TIP3    H252710   1.398   1.566  12.376 -3.4982  1.2639  0.1442
10407TIP3   OH252711   2.569   6.162  11.327  0.2538  0.1792 -0.1070
10407TIP3    H152712   2.483   6.202  11.309  0.7060  0.5575 -1.5049
10407TIP3    H252713   2.548   6.074  11.360 -0.6855  0.6344  0.5578
10408TIP3   OH252714   3.082   1.320  11.017  0.8575 -0.2145  0.0878
10408TIP3    H152715   3.035   1.246  10.978  2.7726 -1.0257 -0.8118
10408TIP3    H252716   3.036   1.337  11.098  0.1560 -2.2113  0.1758
10409TIP3   OH252717   3.715   2.610   5.761 -0.0660  0.4074 -0.5587
10409TIP3    H152718   3.786   2.554   5.792  0.0588  0.6504 -0.3971
10409TIP3    H252719   3.758   2.691   5.735 -0.2138  0.3372 -1.0332
10410TIP3   OH252720   4.906   5.807   2.335 -0.1889 -0.2606  0.0759
10410TIP3    H152721   4.850   5.863   2.281  0.2272 -0.0828 -0.1804
10410TIP3    H252722   4.947   5.747   2.273  1.0185  0.5537  0.0361
10411TIP3   OH252723   2.374   1.732   0.679  0.0072  0.2566 -0.6477
10411TIP3    H152724   2.470   1.734   0.683 -0.0415  1.4753  1.9581
10411TIP3    H252725   2.352   1.781   0.599  1.5269 -0.3958 -1.5137
10412TIP3   OH252726   0.444   0.357  15.897  0.3014 -0.1267 -0.6176
10412TIP3    H152727   0.528   0.398  15.920  0.4795  0.3525 -1.9918
10412TIP3    H252728   0.424   0.391  15.810 -1.4852  0.0011 -0.2044
10413TIP3   OH252729   6.176   6.124   4.075  0.4163 -0.3652  0.0344
10413TIP3    H152730   6.168   6.144   3.981 -2.0115 -1.2466 -0.0192
10413TIP3    H252731   6.132   6.198   4.118 -1.7179 -1.6572  0.2210
10414TIP3   OH252732   1.047   1.139   5.060  0.6154  0.4169 -0.2126
10414TIP3    H152733   1.035   1.234   5.066 -0.4485  0.3536 -1.1151
10414TIP3    H252734   1.026   1.107   5.147  0.5475  0.9678 -0.0209
10415TIP3   OH252735   4.294   3.711   2.832 -0.4843 -0.2434 -0.0124
10415TIP3    H152736   4.230   3.673   2.772 -0.6660 -0.5140  0.3495
10415TIP3    H252737   4.242   3.757   2.898 -0.2480  1.4827 -0.9863
10416TIP3   OH252738   5.122   2.275   3.470 -0.4638 -0.1635 -0.0659
10416TIP3    H152739   5.089   2.283   3.559 -1.7083  1.0453 -0.6150
10416TIP3    H252740   5.061   2.216   3.426 -2.0891  2.1782 -1.1193
10417TIP3   OH252741   2.813   4.434  14.173  0.0992 -0.3253 -0.2161
10417TIP3    H152742   2.903   4.417  14.201 -0.0204 -0.2404  0.2271
10417TIP3    H252743   2.779   4.347  14.150  0.8288 -0.1702 -2.0602
10418TIP3   OH252744   0.728   6.509   4.332 -0.3545  0.0174  0.5777
10418TIP3    H152745   0.643   6.465   4.339 -0.4627  0.1899  0.3654
10418TIP3    H252746   0.707   6.600   4.314 -0.1757  0.6282  3.1239
10419TIP3   OH252747   5.297   5.338  12.406 -0.1723 -0.2776 -0.3767
10419TIP3    H152748   5.277   5.417  12.456 -0.7058 -0.0754 -0.8936
10419TIP3    H252749   5.387   5.317  12.429 -0.3899 -0.1652  0.6341
10420TIP3   OH252750   1.549   3.691   1.062 -0.2560 -0.0602 -0.1207
10420TIP3    H152751   1.614   3.733   1.006  0.0455  1.4416  1.2704
10420TIP3    H252752   1.594   3.617   1.102  0.1856  0.1653 -0.2022
10421TIP3   OH252753   0.953   5.063  11.989 -0.0270 -0.2071  0.7974
10421TIP3    H152754   0.874   5.096  11.947 -0.0024  2.2221  2.4747
10421TIP3    H252755   1.023   5.118  11.953  0.3964 -0.0482  1.8487
10422TIP3   OH252756   2.885   2.653  14.161  0.1327  0.6102 -0.1505
10422TIP3    H152757   2.868   2.591  14.091  1.0679 -2.4500  2.1173
10422TIP3    H252758   2.798   2.679  14.192 -0.5336 -2.8455  1.3861
10423TIP3   OH252759   4.064   5.654   1.665 -0.4143 -0.3107  0.0494
10423TIP3    H152760   4.125   5.583   1.687  0.1393 -0.0037 -0.4836
10423TIP3    H252761   4.120   5.727   1.640 -0.9867 -0.5774 -2.2092
10424TIP3   OH252762   4.037   0.636  16.532 -0.2767 -0.1697 -0.4903
10424TIP3    H152763   4.127   0.653  16.506 -0.5399  0.8652 -0.8016
10424TIP3    H252764   3.991   0.619  16.450 -0.5719  0.4255 -0.4597
10425TIP3   OH252765   4.047   5.972  16.743 -0.3418 -0.0001 -0.0155
10425TIP3    H152766   4.026   6.065  16.749 -2.1778 -0.4877  2.4317
10425TIP3    H252767   4.009   5.944  16.659 -3.0750  0.7504  0.8743
10426TIP3   OH252768   6.135   2.895  11.245  0.3659 -0.0439  0.1488
10426TIP3    H152769   6.176   2.814  11.275  0.0429  0.3273  1.6707
10426TIP3    H252770   6.208   2.952  11.221  0.7101  0.1348  1.5546
10427TIP3   OH252771   2.420   3.172   1.819 -0.2094 -0.2280  0.4375
10427TIP3    H152772   2.335   3.129   1.825 -0.4455  0.3312  1.1990
10427TIP3    H252773   2.403   3.263   1.841  0.4177  0.1098 -0.4229
10428TIP3   OH252774   3.446   6.753  11.575 -0.0162  0.4770  0.2874
10428TIP3    H152775   3.437   6.733  11.482 -1.0581  0.1231  0.4436
10428TIP3    H252776   3.484   6.674  11.613 -0.2568  0.3478  0.2639
10429TIP3   OH252777   6.188   5.613   6.005 -0.2602  0.1925  0.1799
10429TIP3    H152778   6.114   5.670   5.984  0.5386  0.8188 -1.0745
10429TIP3    H252779   6.254   5.672   6.042  0.0805 -0.1509  0.1254
10430TIP3   OH252780   4.418   4.978  12.654 -0.2162 -0.1705 -0.5928
10430TIP3    H152781   4.390   4.886  12.654 -0.2026 -0.1762 -1.2132
10430TIP3    H252782   4.346   5.025  12.612 -0.6033  0.2253  0.4956
10431TIP3   OH252783   4.310   5.878   0.265  0.5222 -0.5359 -0.2823
10431TIP3    H152784   4.356   5.937   0.325  1.7523 -0.1318 -1.5550
10431TIP3    H252785   4.322   5.791   0.302 -0.6466 -0.1002  1.2101
10432TIP3   OH252786   2.104   5.908   4.040 -0.0724 -0.5207  0.0047
10432TIP3    H152787   2.129   5.921   3.948  3.0405 -0.1682  0.8044
10432TIP3    H252788   2.086   5.995   4.073 -0.9399 -0.6224 -0.1771
10433TIP3   OH252789   0.313   0.154   2.309  0.1886  0.8095  0.5328
10433TIP3    H152790   0.258   0.089   2.351 -0.2549  1.3502  0.7974
10433TIP3    H252791   0.272   0.238   2.330  0.0459  1.1107 -0.8351
10434TIP3   OH252792   1.614   0.845  16.106  0.2196 -0.0489 -0.5754
10434TIP3    H152793   1.570   0.882  16.183 -0.3419 -0.5184 -0.6607
10434TIP3    H252794   1.549   0.852  16.037 -0.6331 -2.8483 -0.1799
10435TIP3   OH252795   2.170   6.197   3.199 -0.3396  0.7462 -0.4134
10435TIP3    H152796   2.123   6.248   3.265 -3.5302 -1.0589 -1.0828
10435TIP3    H252797   2.186   6.113   3.242 -1.3573 -0.0210 -1.4820
10436TIP3   OH252798   6.753   6.227  11.728  0.4692  0.4274 -1.1276
10436TIP3    H152799   6.833   6.196  11.769 -0.4990  0.2756  0.7515
10436TIP3    H252800   6.781   6.297  11.669  1.9246  0.5917 -0.2668
10437TIP3   OH252801   2.113   0.383  11.027 -0.0998 -0.4888 -0.1021
10437TIP3    H152802   2.048   0.448  11.001 -1.3960 -1.6982  0.0492
10437TIP3    H252803   2.086   0.302  10.985  1.5753 -0.9395 -0.3984
10438TIP3   OH252804   5.992   1.502   1.582 -0.3739 -0.1713  0.0962
10438TIP3    H152805   6.013   1.590   1.614  0.5153 -0.2808 -0.1832
10438TIP3    H252806   5.896   1.497   1.589 -0.3963  0.6536  0.5316
10439TIP3   OH252807   4.421   2.042   2.162  0.0210 -0.0625  0.1706
10439TIP3    H152808   4.439   2.064   2.071  1.2583  0.6826  0.5748
10439TIP3    H252809   4.372   2.118   2.195 -0.5056 -0.3718  0.1198
10440TIP3   OH252810   5.940   6.477   5.899 -0.7645 -0.2640  0.2698
10440TIP3    H152811   6.005   6.456   5.832 -1.0142 -0.8759  0.2120
10440TIP3    H252812   5.938   6.573   5.902  0.2199 -0.2423  0.3576
10441TIP3   OH252813   5.912   2.008   0.359 -0.2276  0.3205  0.3639
10441TIP3    H152814   5.940   1.931   0.408  1.2067  0.1747 -0.6186
10441TIP3    H252815   5.818   1.996   0.347 -0.3238 -0.4046  1.7038
10442TIP3   OH252816   2.497   1.279  11.117 -0.2997  0.2945  0.3881
10442TIP3    H152817   2.411   1.254  11.082 -0.3593  1.4287 -0.2922
10442TIP3    H252818   2.556   1.273  11.042 -0.1434  1.3183  0.4238
10443TIP3   OH252819   3.796   5.171   1.292 -0.1831 -0.2406  0.0935
10443TIP3    H152820   3.772   5.170   1.199 -2.4149  0.3123  0.6088
10443TIP3    H252821   3.730   5.227   1.333  1.7661  0.9450  1.7737
10444TIP3   OH252822   0.958   3.854   5.137 -0.3531 -0.0993  0.3139
10444TIP3    H152823   0.947   3.938   5.092  0.0175 -0.3669 -0.2857
10444TIP3    H252824   0.925   3.870   5.226 -0.5374  0.6018  0.1256
10445TIP3   OH252825   2.293   4.268   4.293 -0.1693  0.0834 -0.0274
10445TIP3    H152826   2.305   4.231   4.205 -2.0210 -0.6722 -0.0046
10445TIP3    H252827   2.260   4.357   4.277  0.6790  0.3990 -0.0768
10446TIP3   OH252828   5.209   5.711  14.482 -0.0279 -0.3537  0.8107
10446TIP3    H152829   5.284   5.662  14.449  1.4183  1.6441  0.9590
10446TIP3    H252830   5.134   5.655  14.463  1.1073 -0.9810 -2.4937
10447TIP3   OH252831   0.117   3.910   0.434  0.1039  0.2481 -0.0216
10447TIP3    H152832   0.045   3.922   0.497  0.4836 -0.6531  0.6079
10447TIP3    H252833   0.110   3.818   0.407  1.0350  0.1367  0.0746
10448TIP3   OH252834   3.020   4.650  11.530  0.1578 -0.1764 -0.3759
10448TIP3    H152835   3.033   4.704  11.451  1.2316 -1.0564 -0.8231
10448TIP3    H252836   2.925   4.653  11.545 -0.5687 -2.4287 -3.5216
10449TIP3   OH252837   3.582   1.990  11.924 -0.1285  0.0696 -0.0409
10449TIP3    H152838   3.614   1.902  11.944 -1.3021 -0.3115  0.2583
10449TIP3    H252839   3.577   1.992  11.828 -0.6490 -0.4096 -0.0329
10450TIP3   OH252840   6.658   1.292   2.099  0.3602  0.0535  0.8121
10450TIP3    H152841   6.736   1.305   2.153 -0.2578 -0.7523  1.9294
10450TIP3    H252842   6.599   1.362   2.127 -0.4928 -1.1721  2.2271
10451TIP3   OH252843   4.636   5.887   2.561  0.0078  0.0343 -0.2800
10451TIP3    H152844   4.623   5.927   2.475  0.6762  2.1946  0.5486
10451TIP3    H252845   4.550   5.849   2.583 -0.5509  0.6550 -1.2949
10452TIP3   OH252846   0.926   6.624  11.645 -0.1071  0.1766  0.0256
10452TIP3    H152847   0.992   6.692  11.632 -1.1832  1.6364  1.6733
10452TIP3    H252848   0.975   6.542  11.642  1.2884  0.9980 -1.6744
10453TIP3   OH252849   1.235   2.388  11.256 -0.0635  0.3788  0.3794
10453TIP3    H152850   1.161   2.338  11.221  2.0133 -3.2821  0.8081
10453TIP3    H252851   1.258   2.449  11.186 -0.5569 -1.7244 -1.7109
10454TIP3   OH252852   4.067   0.652   6.175  0.3101  0.4047 -0.1704
10454TIP3    H152853   4.026   0.572   6.208  1.5601  0.3689  1.4000
10454TIP3    H252854   4.032   0.662   6.086  0.8805 -2.4271 -0.7959
10455TIP3   OH252855   6.686   5.835   0.984  0.3522 -0.3450 -0.1830
10455TIP3    H152856   6.620   5.859   1.049  0.1153  2.7497 -1.4053
10455TIP3    H252857   6.733   5.761   1.024 -2.3686 -1.2556  1.6611
10456TIP3   OH252858   1.996   2.695  14.150 -0.2266  0.0073 -0.5578
10456TIP3    H152859   1.958   2.614  14.183 -2.5313 -0.1191 -3.2412
10456TIP3    H252860   2.090   2.676  14.142 -0.6972 -2.3666 -1.0230
10457TIP3   OH252861   1.709   4.773   5.081 -0.0670 -0.4128  0.3761
10457TIP3    H152862   1.754   4.837   5.137  1.3718 -0.8184 -0.2953
10457TIP3    H252863   1.734   4.688   5.117  1.9062 -0.7296 -1.5910
10458TIP3   OH252864   5.481   1.491   5.950 -0.4082  0.1021 -0.3957
10458TIP3    H152865   5.559   1.534   5.984  0.0809 -0.5180 -0.7259
10458TIP3    H252866   5.481   1.405   5.991 -0.0511 -0.4883 -1.5911
10459TIP3   OH252867   4.097   0.751  12.662 -0.6207  0.6211 -0.0565
10459TIP3    H152868   4.062   0.756  12.751  0.6507  0.8769  0.4479
10459TIP3    H252869   4.105   0.657  12.644  1.5674  0.5077  1.1403
10460TIP3   OH252870   1.799   4.313   1.421  0.0905 -0.5717 -0.7411
10460TIP3    H152871   1.848   4.395   1.433  0.2488 -0.5096 -1.7553
10460TIP3    H252872   1.728   4.336   1.362 -0.3178 -0.9979 -0.4160
10461TIP3   OH252873   0.604   3.651  15.132  0.8864 -0.3652  0.1746
10461TIP3    H152874   0.541   3.580  15.125  1.3124 -0.7040 -0.3722
10461TIP3    H252875   0.594   3.684  15.221 -2.1594  1.5956 -0.7792
10462TIP3   OH252876   0.020   0.253   0.889  0.4976 -0.4164  0.1339
10462TIP3    H152877  -0.030   0.213   0.960  2.6272 -0.1160  1.8772
10462TIP3    H252878   0.056   0.333   0.926  1.1113  0.1158 -1.5042
10463TIP3   OH252879   2.639   2.618  15.548 -0.4457  0.1899 -0.2868
10463TIP3    H152880   2.695   2.643  15.475  1.3620 -0.1269  0.9463
10463TIP3    H252881   2.587   2.697  15.566 -0.4096  0.4943 -1.4364
10464TIP3   OH252882   6.440   0.717  12.294  0.1652  0.6993 -0.1232
10464TIP3    H152883   6.397   0.693  12.212  0.9583  1.6736 -0.8478
10464TIP3    H252884   6.372   0.707  12.360 -0.4920 -0.1130 -0.8865
10465TIP3   OH252885   3.652   6.008  11.018 -0.0370 -0.3970 -0.0811
10465TIP3    H152886   3.690   5.997  10.931 -1.5115  0.8446 -0.9487
10465TIP3    H252887   3.558   5.994  11.004 -0.7220  2.7231  0.6472
10466TIP3   OH252888   0.959   2.623  14.531  0.0901 -0.0325  0.5532
10466TIP3    H152889   1.030   2.582  14.482  0.7396  0.1926  1.2965
10466TIP3    H252890   0.990   2.626  14.621 -0.2941  1.3154  0.6607
10467TIP3   OH252891   0.248   6.647  11.947 -0.6165 -0.1549  0.3773
10467TIP3    H152892   0.198   6.691  12.015  1.7529  0.0211  2.1071
10467TIP3    H252893   0.337   6.683  11.954  0.2231 -1.6702 -1.4038
10468TIP3   OH252894   0.895   2.335  13.814 -0.3093  0.4552  0.2878
10468TIP3    H152895   0.808   2.347  13.850 -0.9256  0.1322 -1.0109
10468TIP3    H252896   0.949   2.307  13.888 -1.0696  1.6298  1.3044
10469TIP3   OH252897   0.329   5.125  12.266 -0.0171 -0.3501 -0.0502
10469TIP3    H152898   0.391   5.126  12.193  0.6367  1.1014  0.4813
10469TIP3    H252899   0.244   5.143  12.226  0.6279  2.7438 -0.2932
10470TIP3   OH252900   3.665   0.405  16.524 -0.0285  0.5168  0.1345
10470TIP3    H152901   3.760   0.396  16.514  0.4273  0.0338  3.5568
10470TIP3    H252902   3.652   0.497  16.547 -0.5668  0.8622 -1.4795
10471TIP3   OH252903   6.708   2.955   5.671 -0.9451 -0.4278 -0.1997
10471TIP3    H152904   6.719   2.990   5.760 -0.3952 -2.2002  0.4852
10471TIP3    H252905   6.614   2.942   5.662 -0.8601 -3.5647  1.6092
10472TIP3   OH252906   0.836   4.508   0.875  0.6632  0.3034 -0.0505
10472TIP3    H152907   0.811   4.589   0.831 -1.2500 -0.9892 -1.4947
10472TIP3    H252908   0.753   4.467   0.900  1.5609 -1.3409  0.4450
10473TIP3   OH252909   2.872   0.450  13.000  0.0148  0.2361  0.1236
10473TIP3    H152910   2.806   0.477  13.064  0.6343  0.8453  0.5112
10473TIP3    H252911   2.951   0.435  13.052  0.7453  1.4856 -0.5883
10474TIP3   OH252912   2.147   0.070   2.206 -0.2049 -0.6114  0.3740
10474TIP3    H152913   2.062   0.054   2.164 -0.2636  0.4352  0.0485
10474TIP3    H252914   2.151   0.166   2.216  1.5781 -0.4859 -1.0017
10475TIP3   OH252915   0.555   4.038  15.026 -0.1287 -0.4472  0.4888
10475TIP3    H152916   0.590   3.957  14.988  0.5102 -0.1661  0.4627
10475TIP3    H252917   0.462   4.021  15.039 -0.4143 -0.4698 -1.4189
10476TIP3   OH252918   4.398   0.104   3.480 -0.4402  0.2809  0.5078
10476TIP3    H152919   4.313   0.073   3.448 -0.2349  0.7586 -0.5663
10476TIP3    H252920   4.462   0.066   3.420 -0.0704  1.4899  0.0994
10477TIP3   OH252921   2.968   3.531  11.425 -0.5924  0.2187  0.1904
10477TIP3    H152922   2.916   3.611  11.418 -0.0672  0.6874  1.3130
10477TIP3    H252923   2.905   3.460  11.411 -1.4810  0.7846  1.1336
10478TIP3   OH252924   5.605   0.402  13.222  0.8465  0.6095  0.4128
10478TIP3    H152925   5.564   0.372  13.303 -0.5608 -0.9067 -0.7724
10478TIP3    H252926   5.698   0.407  13.242  0.5673 -0.0207  2.0246
10479TIP3   OH252927   5.441   0.688   6.322  0.3636 -0.3861 -0.1980
10479TIP3    H152928   5.520   0.652   6.280 -0.6089 -1.6571 -1.0100
10479TIP3    H252929   5.382   0.706   6.250  0.7658  2.9792  0.1543
10480TIP3   OH252930   5.694   2.541  15.005  0.8789 -0.0189 -0.8187
10480TIP3    H152931   5.702   2.487  14.926  2.8410 -1.2936  0.1803
10480TIP3    H252932   5.646   2.485  15.067 -0.0034  0.6921 -0.8422
10481TIP3   OH252933   3.202   4.864  16.294  0.4407  0.2693 -0.0781
10481TIP3    H152934   3.123   4.907  16.262  0.3121  0.9123  1.0594
10481TIP3    H252935   3.187   4.853  16.388  0.2133 -2.8089 -0.3746
10482TIP3   OH252936   2.108   4.547  10.743  0.2622 -0.2510  0.2242
10482TIP3    H152937   2.034   4.565  10.802 -0.7190 -3.3229  0.1011
10482TIP3    H252938   2.099   4.454  10.722  2.9894 -0.2071 -1.5077
10483TIP3   OH252939   2.594   2.992  11.531 -0.5318 -0.0804  1.1552
10483TIP3    H152940   2.591   3.088  11.527 -2.0104 -0.1330 -2.1131
10483TIP3    H252941   2.519   2.968  11.586 -0.8852  0.6263  0.9986
10484TIP3   OH252942   3.657   2.763   5.096  0.3367 -0.3630 -0.0615
10484TIP3    H152943   3.585   2.771   5.159  0.2216  0.5364 -0.2926
10484TIP3    H252944   3.732   2.802   5.141  0.1094  0.8431 -0.6883
10485TIP3   OH252945   0.593   0.410  17.226 -0.2308  0.4032 -0.2822
10485TIP3    H152946   0.525   0.350  17.254 -0.9126  1.2449 -0.0835
10485TIP3    H252947   0.673   0.358  17.224 -1.0749 -0.9260 -1.6876
10486TIP3   OH252948   3.563   2.529   3.996  0.4663 -0.3859 -0.6237
10486TIP3    H152949   3.522   2.457   4.045  0.4395 -0.0213 -0.0956
10486TIP3    H252950   3.616   2.486   3.930  0.9967 -0.9199  0.1296
10487TIP3   OH252951   5.377   2.724  13.198  0.3141  0.3354 -0.7186
10487TIP3    H152952   5.281   2.722  13.207  0.3966  0.2252  0.2109
10487TIP3    H252953   5.392   2.724  13.103 -0.5808 -1.4902 -0.9119
10488TIP3   OH252954   1.294   5.963   1.258  0.2496  0.2493 -0.2628
10488TIP3    H152955   1.310   5.965   1.164  1.2767 -0.0732 -0.1072
10488TIP3    H252956   1.326   5.878   1.286 -0.9584 -0.0612  0.2346
10489TIP3   OH252957   6.035   6.171   5.500 -0.6326 -0.1364  0.2456
10489TIP3    H152958   5.960   6.112   5.486  0.0556 -0.8525 -0.5582
10489TIP3    H252959   6.099   6.117   5.548 -0.8084  0.6194  1.3560
10490TIP3   OH252960   2.378   0.964  14.169  0.0870 -0.0224 -0.1432
10490TIP3    H152961   2.314   0.921  14.112 -0.1860  0.1883 -0.0020
10490TIP3    H252962   2.324   1.019  14.227  0.1921 -1.5171  1.4649
10491TIP3   OH252963   0.034   1.318  10.939 -0.6088  0.3842  0.6507
10491TIP3    H152964  -0.038   1.287  10.884  0.9738  1.4509 -2.2535
10491TIP3    H252965   0.075   1.239  10.973 -0.6679 -0.4367 -1.1006
10492TIP3   OH252966   6.077   0.286  16.065  0.0788  0.1045  0.4899
10492TIP3    H152967   6.113   0.211  16.114 -0.8379  0.3115  1.5084
10492TIP3    H252968   6.009   0.248  16.010  0.9409 -0.0900 -0.4698
10493TIP3   OH252969   6.684   5.353  14.713 -0.4644 -0.0000  0.4440
10493TIP3    H152970   6.669   5.406  14.791 -2.0066  0.0212  0.1530
10493TIP3    H252971   6.778   5.334  14.715 -0.3603  0.5420  1.9492
10494TIP3   OH252972   1.010   4.541   5.287  0.3020  0.1107 -0.1843
10494TIP3    H152973   1.007   4.584   5.202 -0.5169  1.2408  0.3983
10494TIP3    H252974   0.932   4.486   5.289  0.7101 -0.4937 -0.4409
10495TIP3   OH252975   1.196   0.932   1.644 -0.1715  0.3255 -0.2278
10495TIP3    H152976   1.229   1.020   1.627 -1.4127  1.1593  1.4145
10495TIP3    H252977   1.275   0.880   1.661  0.5495  1.2642 -0.5929
10496TIP3   OH252978   0.804   2.433  11.440 -0.8390 -0.0704 -0.3990
10496TIP3    H152979   0.881   2.483  11.415 -0.5826 -0.6230 -0.7406
10496TIP3    H252980   0.839   2.348  11.467 -1.3914 -0.6555 -1.4605
10497TIP3   OH252981   5.085   2.170  16.201 -0.3258  0.1982  0.9795
10497TIP3    H152982   5.147   2.184  16.129 -1.9124  3.2456  0.0331
10497TIP3    H252983   5.041   2.088  16.180  0.4335  0.1558 -0.5907
10498TIP3   OH252984   2.950   3.983  14.698  0.0660 -0.4083  0.1425
10498TIP3    H152985   2.908   3.905  14.736  0.0227  0.4024  1.8500
10498TIP3    H252986   2.887   4.053  14.712  1.0880  0.4035  0.8391
10499TIP3   OH252987   2.378   0.260   2.730  0.5225  0.2449 -0.1179
10499TIP3    H152988   2.364   0.288   2.820 -0.3954  1.5023 -0.6140
10499TIP3    H252989   2.358   0.167   2.729 -0.2822  0.3965  0.8138
10500TIP3   OH252990   4.896   0.690   2.187 -0.5805 -0.4810  0.2670
10500TIP3    H152991   4.806   0.716   2.206  0.1632  1.4220  1.5004
10500TIP3    H252992   4.899   0.679   2.092 -2.2540 -1.2616  0.2718
10501TIP3   OH252993   4.843   1.818   6.130  0.1918 -0.0492  0.3451
10501TIP3    H152994   4.910   1.816   6.198  0.5531 -0.3946 -0.0130
10501TIP3    H252995   4.868   1.892   6.074  1.1365 -1.0760 -0.6320
10502TIP3   OH252996   1.870   1.359   4.295 -0.3344  0.2237 -0.7951
10502TIP3    H152997   1.892   1.313   4.213 -1.1440 -0.4857 -0.6239
10502TIP3    H252998   1.917   1.311   4.363 -0.8494 -0.1097 -0.6677
10503TIP3   OH252999   6.571   6.218  16.506 -0.5651 -0.4479  0.0501
10503TIP3    H153000   6.609   6.266  16.580 -0.1296 -1.3221  0.4109
10503TIP3    H253001   6.498   6.169  16.544  0.4181 -1.8681  0.1870
10504TIP3   OH253002   5.352   6.070   1.063 -0.2834 -0.0251 -0.4582
10504TIP3    H153003   5.433   6.093   1.108 -0.3207 -0.0015 -0.4030
10504TIP3    H253004   5.294   6.040   1.132  0.1924 -1.5051 -0.6641
10505TIP3   OH253005   6.773   3.188   2.042  0.2224 -0.8767 -0.2861
10505TIP3    H153006   6.715   3.146   2.106  0.4014 -1.8213 -0.7368
10505TIP3    H253007   6.714   3.242   1.989 -0.2324 -1.6572 -0.5991
10506TIP3   OH253008   3.205   5.893   1.624  0.2933  0.3571  0.0499
10506TIP3    H153009   3.291   5.852   1.632  0.5664  1.0970  1.1722
10506TIP3    H253010   3.146   5.822   1.597  1.2611 -0.1353 -0.8199
10507TIP3   OH253011   3.149   3.211   3.211  0.2176  0.1478 -0.1074
10507TIP3    H153012   3.226   3.268   3.213 -0.5006  1.1704 -0.5331
10507TIP3    H253013   3.110   3.220   3.298 -0.1159  0.6286 -0.3040
10508TIP3   OH253014   6.517   0.767   0.001  0.0409  0.0854 -0.1382
10508TIP3    H153015   6.582   0.835   0.015 -0.7905  0.5409  1.8080
10508TIP3    H253016   6.500   0.731   0.088  0.3835 -2.5822 -1.0747
10509TIP3   OH253017   5.151   6.508   5.720 -0.5118  0.4858 -0.8034
10509TIP3    H153018   5.074   6.455   5.742  0.0060 -0.2315 -0.6810
10509TIP3    H253019   5.225   6.452   5.744  0.0442  1.1885 -0.8823
10510TIP3   OH253020   4.659   0.561   4.282  0.4560  0.3464  0.1237
10510TIP3    H153021   4.683   0.471   4.303 -0.1144  0.4230  1.1553
10510TIP3    H253022   4.728   0.614   4.322  0.0463  0.4315  0.7266
10511TIP3   OH253023   1.970   4.562  17.036 -0.3496 -0.5380  0.3126
10511TIP3    H153024   1.914   4.539  16.961 -1.3374 -0.6058  1.0468
10511TIP3    H253025   1.924   4.635  17.077  0.5462 -0.0549  0.4590
10512TIP3   OH253026   4.958   4.932  16.564 -0.2732  0.4561 -0.0001
10512TIP3    H153027   4.902   5.005  16.539 -1.9504 -1.5242 -2.7037
10512TIP3    H253028   4.913   4.892  16.639  1.0230  2.4414  1.9524
10513TIP3   OH253029   4.166   4.304   3.551 -0.0372 -0.2522 -0.0424
10513TIP3    H153030   4.203   4.254   3.624  0.3042 -1.0607 -0.7555
10513TIP3    H253031   4.213   4.387   3.553  1.6480 -1.1387 -0.7262
10514TIP3   OH253032   3.404   5.747  17.108 -0.0012 -0.5929  0.4537
10514TIP3    H153033   3.479   5.796  17.142 -0.2900  0.3487 -0.2175
10514TIP3    H253034   3.403   5.666  17.159 -0.4348  0.7708  2.7513
10515TIP3   OH253035   4.744   1.946   4.761 -0.1223  0.4857 -0.0812
10515TIP3    H153036   4.837   1.928   4.772 -0.4512 -0.7603  0.9780
10515TIP3    H253037   4.722   2.004   4.834 -0.7930 -1.8820  1.7574
10516TIP3   OH253038   0.715   5.382   0.623 -0.6779  0.3759  0.4510
10516TIP3    H153039   0.690   5.448   0.558 -1.1459  0.1117  0.3589
10516TIP3    H253040   0.666   5.304   0.598  0.5110 -0.2735  0.0467
10517TIP3   OH253041   2.440   0.386  11.905  0.5312  0.2128 -0.1485
10517TIP3    H153042   2.351   0.353  11.916  0.6976  0.4072  2.3313
10517TIP3    H253043   2.492   0.308  11.883  0.2697 -0.5548  1.7461
10518TIP3   OH253044   4.773   6.585   2.852  0.4233  0.0413 -0.4115
10518TIP3    H153045   4.732   6.532   2.920  0.0956 -0.4029 -0.9460
10518TIP3    H253046   4.705   6.647   2.825  0.5200  0.1522 -0.4016
10519TIP3   OH253047   3.736   5.746   2.505 -0.2366  0.3278 -0.3069
10519TIP3    H153048   3.757   5.700   2.423  1.8449  0.7566 -0.0796
10519TIP3    H253049   3.662   5.802   2.483 -1.1030 -1.1146 -1.3065
10520TIP3   OH253050   3.908   1.683  13.862 -0.6477 -0.2592  0.3868
10520TIP3    H153051   3.893   1.768  13.903 -1.7933  0.1425 -0.7869
10520TIP3    H253052   3.835   1.672  13.802 -0.5583 -2.1210  0.5567
10521TIP3   OH253053   2.396   4.770   1.465 -0.0267 -0.5645  0.0563
10521TIP3    H153054   2.412   4.845   1.522  1.4202  0.2048 -1.2983
10521TIP3    H253055   2.389   4.696   1.524  1.1616  0.2471  1.2634
10522TIP3   OH253056   4.850   5.338   5.811  0.0239  0.1852 -0.4266
10522TIP3    H153057   4.888   5.403   5.871 -0.4258  1.3562 -1.3563
10522TIP3    H253058   4.757   5.360   5.808 -0.0395 -0.1492 -1.1793
10523TIP3   OH253059   3.851   3.112   4.642 -0.2799  0.0146 -0.9462
10523TIP3    H153060   3.885   3.091   4.555  0.3059  2.4526 -1.3769
10523TIP3    H253061   3.929   3.122   4.696 -0.6583 -2.4207  0.1813
10524TIP3   OH253062   1.141   1.764  14.058  0.1387  0.5541  0.1548
10524TIP3    H153063   1.171   1.747  13.969  0.9382 -0.1829  0.5478
10524TIP3    H253064   1.090   1.845  14.052 -0.8971 -0.1678 -1.1857
10525TIP3   OH253065   5.825   2.443  15.642  0.1042  0.1552 -1.1440
10525TIP3    H153066   5.912   2.483  15.647  1.4488 -2.1982 -3.1917
10525TIP3    H253067   5.840   2.350  15.663 -1.7988 -0.4103 -2.0618
10526TIP3   OH253068   2.127   3.299   3.773 -0.5133 -0.3575  0.2125
10526TIP3    H153069   2.047   3.344   3.803 -0.6050 -1.2644  1.4290
10526TIP3    H253070   2.095   3.224   3.724 -0.3862 -0.0314 -0.3693
10527TIP3   OH253071   2.656   4.131   3.665 -0.0163  0.5145 -0.4434
10527TIP3    H153072   2.634   4.132   3.571 -0.9096 -0.3069 -0.2511
10527TIP3    H253073   2.688   4.043   3.682  1.0882  0.9470 -0.1611
10528TIP3   OH253074   1.450   0.439   0.634  0.2779 -0.2708  0.6669
10528TIP3    H153075   1.513   0.477   0.696 -1.0420  0.7341  1.4447
10528TIP3    H253076   1.389   0.390   0.689 -0.5451  0.1054  0.0967
10529TIP3   OH253077   4.785   3.468  14.423  0.8578  0.2602 -0.3947
10529TIP3    H153078   4.737   3.549  14.402 -0.9460 -1.3406 -3.0015
10529TIP3    H253079   4.823   3.485  14.509 -1.9379  2.8098  0.5281
10530TIP3   OH253080   1.563   0.913   2.848 -0.0531  0.5868  0.0090
10530TIP3    H153081   1.525   0.949   2.929  1.0188  0.3183  0.6494
10530TIP3    H253082   1.580   0.989   2.793 -1.0159  0.7559 -0.0836
10531TIP3   OH253083   2.451   4.813   2.896  0.4371 -0.7054  0.2253
10531TIP3    H153084   2.431   4.825   2.988  0.4944  1.7647 -0.0186
10531TIP3    H253085   2.545   4.832   2.889  0.5873 -1.5652 -0.2486
10532TIP3   OH253086   6.006   0.913   6.510 -0.0979  0.6382  0.2991
10532TIP3    H153087   6.080   0.859   6.482 -0.8114 -0.4725  0.4981
10532TIP3    H253088   5.974   0.870   6.589 -2.5036 -0.3934 -1.1241
10533TIP3   OH253089   0.959   6.260  12.754  0.5800 -0.3197 -0.0161
10533TIP3    H153090   1.054   6.254  12.741  0.4459 -0.0031 -1.1840
10533TIP3    H253091   0.926   6.300  12.674 -0.4281  0.6106  0.8388
10534TIP3   OH253092   4.629   5.739   3.773 -0.4172 -0.2547  0.4666
10534TIP3    H153093   4.615   5.646   3.787 -1.2985 -0.0116  1.3281
10534TIP3    H253094   4.557   5.782   3.821  0.0330  0.8623  0.1819
10535TIP3   OH253095   2.397   5.056  15.778 -0.5182  0.2308 -0.4216
10535TIP3    H153096   2.311   5.020  15.754  0.9674 -1.6536 -3.5811
10535TIP3    H253097   2.442   4.983  15.822 -0.5653  1.3031  1.5072
10536TIP3   OH253098   1.961   4.956  16.525  0.3410 -0.4056  0.0154
10536TIP3    H153099   1.997   5.044  16.511 -0.1501 -0.3012 -0.6662
10536TIP3    H253100   1.957   4.918  16.437 -1.0743 -0.4563  0.0671
10537TIP3   OH253101   5.725   5.560  17.245 -0.4381  0.4606  0.1884
10537TIP3    H153102   5.761   5.602  17.166  0.6180  0.5561  0.6975
10537TIP3    H253103   5.755   5.469  17.239 -0.2838  0.4887  0.5095
10538TIP3   OH253104   6.259   3.215   0.809  0.0682 -0.0906  0.0069
10538TIP3    H153105   6.221   3.299   0.786  1.3657  0.5351  0.0591
10538TIP3    H253106   6.353   3.226   0.795  0.3489 -1.2770  0.7634
10539TIP3   OH253107   5.533   0.980   4.784  0.6685 -0.0509  0.0241
10539TIP3    H153108   5.625   1.000   4.796  0.9832 -1.5372  0.2711
10539TIP3    H253109   5.530   0.928   4.703 -0.0303  0.4540 -0.2864
10540TIP3   OH253110   5.509   5.100  11.718 -0.5144 -0.8002 -0.2773
10540TIP3    H153111   5.523   5.135  11.630 -0.0027  0.3738  0.2485
10540TIP3    H253112   5.416   5.081  11.722 -0.7122  0.0509 -0.7558
10541TIP3   OH253113   0.796   6.392   6.100 -0.4885 -0.3033 -0.2715
10541TIP3    H153114   0.790   6.297   6.100 -0.7733 -0.3067  1.0516
10541TIP3    H253115   0.883   6.411   6.136 -0.4944 -0.0682 -0.3799
10542TIP3   OH253116   4.010   0.651   2.308 -0.1080 -0.1621 -0.3196
10542TIP3    H153117   4.034   0.742   2.325  1.2411 -0.2655 -1.5006
10542TIP3    H253118   3.919   0.655   2.279 -0.1983  0.7562  0.0813
10543TIP3   OH253119   2.479   3.222  13.989 -0.2852 -0.0228 -1.0095
10543TIP3    H153120   2.527   3.239  14.070 -0.1793 -1.7079 -0.6851
10543TIP3    H253121   2.482   3.305  13.942 -0.6006  1.0925  0.8264
10544TIP3   OH253122   4.299   4.335   3.310  0.0109 -0.1072 -0.1628
10544TIP3    H153123   4.228   4.398   3.297  0.6332  0.5285 -0.5398
10544TIP3    H253124   4.269   4.280   3.382 -1.8892 -1.3354 -1.7724
10545TIP3   OH253125   3.092   6.432  15.787 -0.1984 -0.6617 -0.6059
10545TIP3    H153126   3.185   6.432  15.808 -0.9752 -0.4651  3.7771
10545TIP3    H253127   3.069   6.525  15.785 -0.4071 -0.7227 -1.3027
10546TIP3   OH253128   3.947   6.788  17.173 -0.3753 -0.4915 -0.3382
10546TIP3    H153129   3.882   6.731  17.212  1.7799 -2.9643 -0.1052
10546TIP3    H253130   4.016   6.794  17.240  0.5285  0.4416 -1.3190
10547TIP3   OH253131   2.915   2.680   6.426 -0.1696  0.3061 -0.2835
10547TIP3    H153132   2.922   2.600   6.374  0.0992  0.1821 -0.0624
10547TIP3    H253133   2.828   2.675   6.465 -0.0921  0.0387 -0.1419
10548TIP3   OH253134   1.853   2.484   5.129  0.4084  0.5149  0.1883
10548TIP3    H153135   1.947   2.503   5.124  0.6300  0.0675  2.0100
10548TIP3    H253136   1.833   2.443   5.045  2.1722 -0.7929  0.3370
10549TIP3   OH253137   1.398   0.484   5.382 -0.4127  0.0015 -0.3895
10549TIP3    H153138   1.476   0.432   5.365 -1.1381 -0.6890 -1.8029
10549TIP3    H253139   1.403   0.557   5.320 -1.4976 -0.7697 -1.4399
10550TIP3   OH253140   1.810   0.099  12.360  0.0710  0.1819 -0.4851
10550TIP3    H153141   1.777   0.106  12.450 -0.0831  1.1476 -0.6161
10550TIP3    H253142   1.869   0.173  12.350 -0.2523  0.3244 -1.3324
10551TIP3   OH253143   2.275   5.643   0.934  0.3143 -0.0080  0.5887
10551TIP3    H153144   2.283   5.668   0.842  1.4391 -1.7483  0.1867
10551TIP3    H253145   2.364   5.646   0.968  0.3990 -2.4596  0.7487
10552TIP3   OH253146   6.426   3.079   5.314  0.1235 -0.0808 -0.0524
10552TIP3    H153147   6.383   3.003   5.353  1.6166 -1.1579 -0.3960
10552TIP3    H253148   6.513   3.047   5.289  0.8978  1.8084  0.0260
10553TIP3   OH253149   2.056   4.189   0.815 -0.7964  0.5724 -0.3074
10553TIP3    H153150   2.103   4.238   0.883 -1.8475 -0.5034  1.2502
10553TIP3    H253151   2.028   4.257   0.753  0.7015  1.5100 -0.0218
10554TIP3   OH253152   0.337   5.753  17.038 -0.4140 -0.1160 -0.3151
10554TIP3    H153153   0.369   5.843  17.030  1.5447 -0.8317 -1.3269
10554TIP3    H253154   0.396   5.712  17.102 -1.0144 -0.8023 -0.1822
10555TIP3   OH253155   5.950   3.187  11.874 -0.0113  0.0740 -0.5073
10555TIP3    H153156   6.007   3.254  11.911 -1.6462  0.8805  0.6764
10555TIP3    H253157   5.943   3.210  11.782  1.9654 -0.3666 -0.8144
10556TIP3   OH253158   4.046   0.163   3.314 -0.7727 -0.1846  0.0923
10556TIP3    H153159   4.099   0.198   3.384 -0.7599 -1.5616  0.8106
10556TIP3    H253160   4.103   0.165   3.237 -0.1397 -0.4106  0.5488
10557TIP3   OH253161   1.902   6.609   5.616  0.5577 -0.0772  0.0126
10557TIP3    H153162   1.928   6.518   5.604  0.3438 -0.3492  1.4371
10557TIP3    H253163   1.843   6.627   5.543  2.5827 -0.2541 -1.7658
10558TIP3   OH253164   4.997   1.840  16.810  0.5011 -0.2220  0.3567
10558TIP3    H153165   4.986   1.857  16.903  2.3756 -0.0428  0.5727
10558TIP3    H253166   5.086   1.806  16.801  1.0628  1.5353 -1.5721
10559TIP3   OH253167   3.688   3.160   3.668 -0.1080  0.1919 -0.1164
10559TIP3    H153168   3.605   3.140   3.710 -1.0119  3.8339  0.1196
10559TIP3    H253169   3.672   3.144   3.575 -0.8978  0.4175 -0.0213
10560TIP3   OH253170   0.464   0.563   0.725 -0.2484 -0.0638  0.2497
10560TIP3    H153171   0.492   0.654   0.730 -1.9343  0.4568  0.8146
10560TIP3    H253172   0.381   0.566   0.676  0.5898 -1.5240 -1.3680
10561TIP3   OH253173   2.549   1.982  14.104 -0.6960 -0.2043  0.5518
10561TIP3    H153174   2.638   1.998  14.073 -0.8581  1.1303  0.7141
10561TIP3    H253175   2.556   1.980  14.199 -0.5723 -1.9597  0.5417
10562TIP3   OH253176   4.120   2.526  11.568 -0.2436  0.1998 -0.0431
10562TIP3    H153177   4.192   2.466  11.591  0.4820  0.0180 -2.5162
10562TIP3    H253178   4.154   2.612  11.591 -0.6420 -0.1340  1.9977
10563TIP3   OH253179   1.086   0.236   1.762  0.2921 -0.4038  0.4081
10563TIP3    H153180   1.130   0.204   1.683  0.2977 -0.5589  0.4742
10563TIP3    H253181   1.148   0.296   1.802  0.1198  0.0127  0.0621
10564TIP3   OH253182   6.139   6.439  11.650  0.8513  0.0950 -0.1989
10564TIP3    H153183   6.145   6.452  11.555 -0.5357 -1.2551 -0.4901
10564TIP3    H253184   6.201   6.369  11.669 -0.4047 -1.1236 -0.4599
10565TIP3   OH253185   1.268   0.031   5.831 -0.0910  0.4738 -0.2398
10565TIP3    H153186   1.258   0.099   5.898 -3.2451  1.9237 -1.9606
10565TIP3    H253187   1.284   0.080   5.750 -1.4639 -0.8396 -1.3665
10566TIP3   OH253188   6.435   0.455   4.969  0.0665  0.5194  0.5415
10566TIP3    H153189   6.451   0.466   4.875 -1.9914 -0.2294  0.0607
10566TIP3    H253190   6.453   0.363   4.986 -0.8255  0.3487  0.5909
10567TIP3   OH253191   5.697   2.383   6.706 -0.7661  0.5138 -0.0169
10567TIP3    H153192   5.757   2.309   6.716  0.0917  1.2166  0.1982
10567TIP3    H253193   5.611   2.349   6.733 -0.1907 -0.1239  1.0709
10568TIP3   OH253194   6.468   5.134  12.096  0.1187  0.3282 -0.4881
10568TIP3    H153195   6.432   5.172  12.176  0.4809 -1.1534  0.4161
10568TIP3    H253196   6.398   5.142  12.032 -0.1528  1.6164 -0.0721
10569TIP3   OH253197   1.755   3.813  13.322  0.2746  0.6778  0.4838
10569TIP3    H153198   1.690   3.883  13.317  0.4105  0.7396 -1.3373
10569TIP3    H253199   1.837   3.858  13.343  0.2110  0.9705  0.1210
10570TIP3   OH253200   0.866   0.985   1.309  0.4123  0.0208 -0.6522
10570TIP3    H153201   0.846   1.071   1.346 -2.7053 -0.5957 -0.5985
10570TIP3    H253202   0.888   0.931   1.385  0.6397  0.3536 -0.4795
10571TIP3   OH253203   3.537   0.201   5.266 -0.1847  0.1600 -0.2804
10571TIP3    H153204   3.599   0.194   5.338 -3.4914  2.6320  3.2031
10571TIP3    H253205   3.562   0.282   5.220  0.7635 -0.3808 -0.7535
10572TIP3   OH253206   6.773   3.474  12.717  0.9279  0.2207 -0.6294
10572TIP3    H153207   6.797   3.556  12.761  2.2343 -0.4084 -0.1162
10572TIP3    H253208   6.688   3.492  12.677  0.2483  1.2168  1.1504
10573TIP3   OH253209   2.829   1.532   3.993 -0.2223 -0.8564  0.3052
10573TIP3    H153210   2.811   1.467   3.925  2.1930 -1.0536 -0.2387
10573TIP3    H253211   2.747   1.539   4.042 -0.5920 -4.4223  0.4833
10574TIP3   OH253212   1.999   5.497  11.484  0.2808 -0.0646 -0.0597
10574TIP3    H153213   1.962   5.414  11.455 -1.9471  1.2641 -1.2645
10574TIP3    H253214   2.082   5.504  11.438 -0.0521 -1.1130 -0.8543
10575TIP3   OH253215   0.278   2.518  12.859  0.3677 -0.0258  0.3462
10575TIP3    H153216   0.352   2.494  12.803  0.1224 -0.0252  0.0178
10575TIP3    H253217   0.277   2.614  12.858  0.6534 -0.0169  0.7393
10576TIP3   OH253218   0.289   2.707   3.723 -0.0796 -0.8753 -0.2446
10576TIP3    H153219   0.358   2.660   3.770 -0.3599 -1.8388 -0.7645
10576TIP3    H253220   0.319   2.707   3.631  1.1102  2.1148  0.0293
10577TIP3   OH253221   3.164   0.736  16.216 -0.5698  0.6479  0.4439
10577TIP3    H153222   3.224   0.798  16.257  2.0087 -0.5734 -1.2071
10577TIP3    H253223   3.117   0.787  16.150  0.7148  1.0994 -0.1426
10578TIP3   OH253224   1.471   1.448   2.233 -0.1752  0.3054  0.4018
10578TIP3    H153225   1.416   1.417   2.161 -1.0095 -0.4773  1.3344
10578TIP3    H253226   1.460   1.381   2.301  0.0334  1.3769  1.5185
10579TIP3   OH253227   5.811   2.315   3.900 -0.1746 -0.2489  0.5667
10579TIP3    H153228   5.752   2.370   3.952 -1.1282  0.2720 -0.9713
10579TIP3    H253229   5.897   2.357   3.909 -1.1235  2.5322 -1.7635
10580TIP3   OH253230   6.298   6.652  12.240 -0.1216  0.5068  0.0272
10580TIP3    H153231   6.367   6.591  12.267  0.5091  0.1832 -2.0692
10580TIP3    H253232   6.227   6.637  12.301  1.2007 -0.0528  1.4992
10581TIP3   OH253233   5.039   5.060   3.859  0.0301  0.6691  0.2047
10581TIP3    H153234   5.128   5.028   3.848 -0.8606 -1.4783 -1.6443
10581TIP3    H253235   5.047   5.136   3.915  3.0324  0.6399 -0.0508
10582TIP3   OH253236   3.148   6.723  13.775 -0.1210 -0.2209  0.2761
10582TIP3    H153237   3.116   6.737  13.686  1.6569 -1.3035 -0.5910
10582TIP3    H253238   3.203   6.799  13.793 -0.2029 -0.1723  0.3236
10583TIP3   OH253239   5.986   5.743  10.961  0.9654  0.3117 -0.6943
10583TIP3    H153240   5.959   5.818  11.015 -0.8235  0.0267 -1.1068
10583TIP3    H253241   5.966   5.666  11.014  1.0057  0.0826 -1.0036
10584TIP3   OH253242   2.919   3.714   2.636  0.5327  0.3702 -0.1637
10584TIP3    H153243   2.934   3.626   2.672 -0.4463  0.0670 -0.4626
10584TIP3    H253244   2.984   3.723   2.567 -0.4157 -0.8163 -1.2726
10585TIP3   OH253245   4.501   1.597   0.001 -0.1638  0.1311 -0.2710
10585TIP3    H153246   4.434   1.531  -0.013  0.5322 -0.2563 -2.0916
10585TIP3    H253247   4.458   1.680  -0.020 -0.2748 -0.0442 -0.7477
10586TIP3   OH253248   1.876   3.646  12.012  0.8249  0.5222 -0.3569
10586TIP3    H153249   1.848   3.707  12.081 -3.2280 -1.6346  0.2178
10586TIP3    H253250   1.915   3.573  12.060 -0.4720 -0.2323 -0.4026
10587TIP3   OH253251   5.535   0.465  15.374 -0.5988  0.3267  0.2632
10587TIP3    H153252   5.595   0.420  15.314 -0.8750  0.0232  0.2144
10587TIP3    H253253   5.491   0.531  15.320 -0.5317  0.3448  0.2316
10588TIP3   OH253254   2.950   2.363   2.806  0.2473 -0.3478  0.3116
10588TIP3    H153255   2.864   2.359   2.848  0.0945  1.4648  0.2445
10588TIP3    H253256   2.998   2.288   2.842 -1.0193 -0.7933  1.1179
10589TIP3   OH253257   2.516   5.924   0.014 -0.6895  0.3795  0.8756
10589TIP3    H153258   2.542   5.836   0.041 -1.9910 -0.0554  0.7932
10589TIP3    H253259   2.584   5.953  -0.046  0.7927  0.2305  2.4085
10590TIP3   OH253260   3.828   5.960  12.551  0.5469  0.0753  0.5052
10590TIP3    H153261   3.888   5.940  12.623  2.9157 -1.0872 -1.6530
10590TIP3    H253262   3.799   5.874  12.519  1.1842  0.4526 -1.2021
10591TIP3   OH253263   6.344   0.836   5.007  0.3761 -0.3887  0.1023
10591TIP3    H153264   6.432   0.852   5.041  0.8880  1.4365 -1.9294
10591TIP3    H253265   6.301   0.921   5.008 -2.0832 -1.4795  2.6477
10592TIP3   OH253266   3.034   2.864  14.233  0.5915  0.0487 -0.4243
10592TIP3    H153267   2.982   2.937  14.266  0.9268  1.0284 -1.9633
10592TIP3    H253268   2.975   2.789  14.238  0.3156  0.3313  1.4152
10593TIP3   OH253269   4.242   0.317  15.017 -0.0992  0.3485  0.6186
10593TIP3    H153270   4.225   0.388  14.956 -0.4772 -1.2872 -1.2627
10593TIP3    H253271   4.155   0.293  15.050 -0.2571 -0.6416 -0.4430
10594TIP3   OH253272   3.140   2.976  13.535 -0.5976  0.7952  0.3159
10594TIP3    H153273   3.134   3.061  13.493 -1.3143 -0.0491 -1.3543
10594TIP3    H253274   3.232   2.950  13.522 -0.9770  0.2200 -1.4487
10595TIP3   OH253275   4.404   5.217   4.146  0.5490 -0.8507  0.4358
10595TIP3    H153276   4.469   5.166   4.196  1.7041 -0.8638 -1.0109
10595TIP3    H253277   4.353   5.262   4.213  2.1851 -0.6898  1.6535
10596TIP3   OH253278   1.112   1.893  11.262  0.1936  0.0223  0.0332
10596TIP3    H153279   1.055   1.842  11.203  0.0327  0.3649 -0.1106
10596TIP3    H253280   1.113   1.843  11.343  0.5614 -0.5511 -0.3166
10597TIP3   OH253281   5.212   1.722  11.419  0.0165 -1.1446  0.5292
10597TIP3    H153282   5.254   1.718  11.505 -0.6805 -1.2884  0.8731
10597TIP3    H253283   5.177   1.634  11.405 -0.1852 -1.0255  0.2686
10598TIP3   OH253284   5.826   4.222   0.350 -0.2607 -0.4281 -0.2818
10598TIP3    H153285   5.731   4.207   0.355 -0.5757  1.3566 -0.1805
10598TIP3    H253286   5.858   4.200   0.437 -0.7558 -0.0259  0.0108
10599TIP3   OH253287   6.219   0.392   1.852  0.0775  0.0270  0.2991
10599TIP3    H153288   6.248   0.334   1.781 -0.3048  0.2446 -0.0443
10599TIP3    H253289   6.299   0.430   1.887  0.2406  0.3106 -0.3621
10600TIP3   OH253290   4.474   6.720  12.054  0.4654  0.2884  0.3971
10600TIP3    H153291   4.560   6.724  12.011  0.3341 -0.1218  0.0858
10600TIP3    H253292   4.447   6.811  12.063  0.8723  0.4139  0.3720
10601TIP3   OH253293   0.688   0.300   2.872  0.3188  0.2285 -0.8344
10601TIP3    H153294   0.777   0.270   2.852  0.2067 -0.6514 -0.0770
10601TIP3    H253295   0.636   0.275   2.796  0.6512  0.4779 -1.1510
10602TIP3   OH253296   5.497   3.492  16.684  0.1150 -0.1583 -0.0516
10602TIP3    H153297   5.422   3.541  16.651 -0.1755  0.3467  1.2947
10602TIP3    H253298   5.470   3.461  16.771  1.7229  0.7614  0.8340
10603TIP3   OH253299   4.092   3.774   3.659  0.8693 -0.0923  0.1719
10603TIP3    H153300   4.046   3.702   3.616  0.9238 -1.9084  2.8488
10603TIP3    H253301   4.029   3.807   3.724  1.7858  0.4177  0.8304
10604TIP3   OH253302   1.917   4.269   4.875  0.5159  0.0483  0.3295
10604TIP3    H153303   1.933   4.200   4.812  0.1771 -1.3447  1.6951
10604TIP3    H253304   1.954   4.348   4.836  0.5215 -0.8112 -1.4616
10605TIP3   OH253305   2.247   0.379   2.981  0.2566 -0.6223  0.0778
10605TIP3    H153306   2.202   0.456   2.945 -0.1367 -0.9633 -0.1720
10605TIP3    H253307   2.312   0.415   3.041  1.1391 -0.0323 -1.2111
10606TIP3   OH253308   0.218   5.424   3.581 -0.1005  0.7222  0.6777
10606TIP3    H153309   0.125   5.403   3.584 -0.2974  1.3353 -0.6412
10606TIP3    H253310   0.233   5.480   3.657 -1.2989  2.4408 -0.2919
10607TIP3   OH253311   5.395   2.498   2.150 -0.1099  0.3053  0.0012
10607TIP3    H153312   5.392   2.403   2.139 -0.9378  0.1567  1.3556
10607TIP3    H253313   5.307   2.522   2.180  0.3552  1.3660  0.5737
10608TIP3   OH253314   1.706   5.417  12.034 -0.0460  0.3914  0.1411
10608TIP3    H153315   1.755   5.427  11.953 -1.1166 -1.4503 -0.7857
10608TIP3    H253316   1.732   5.493  12.087  1.8607  0.7900 -1.2687
10609TIP3   OH253317   2.417   1.845  13.513 -0.0782  0.4056 -0.0893
10609TIP3    H153318   2.467   1.897  13.576  2.3083 -0.4255 -1.1529
10609TIP3    H253319   2.431   1.888  13.429  0.1782 -0.7274 -0.6508
10610TIP3   OH253320   4.027   4.620   1.880  0.6285  0.2266 -0.6232
10610TIP3    H153321   4.055   4.687   1.819  1.4334  0.5990  0.1203
10610TIP3    H253322   3.982   4.668   1.950  0.0175 -0.1556 -0.7440
10611TIP3   OH253323   5.319   0.275   2.408 -0.5983 -0.2908 -0.1186
10611TIP3    H153324   5.268   0.195   2.393  0.9698 -1.2889 -0.3047
10611TIP3    H253325   5.302   0.329   2.330 -0.9578 -0.8399 -0.4293
10612TIP3   OH253326   1.550   5.832  14.646 -0.1800 -0.0550  0.1842
10612TIP3    H153327   1.458   5.853  14.666 -0.4508  0.0357 -1.1109
10612TIP3    H253328   1.554   5.737  14.657 -0.1250  0.0610  1.3632
10613TIP3   OH253329   6.144   4.667  16.532 -0.1592  0.1916  0.0919
10613TIP3    H153330   6.118   4.594  16.589 -0.0859 -1.0535 -1.4267
10613TIP3    H253331   6.069   4.679  16.473 -0.1393  1.3251  0.2646
10614TIP3   OH253332   1.539   1.449   4.509  0.3226 -0.2148 -0.5803
10614TIP3    H153333   1.531   1.395   4.588 -0.8670 -0.3023 -0.7438
10614TIP3    H253334   1.449   1.462   4.480  0.7082  0.4231 -1.5217
10615TIP3   OH253335   3.219   2.598   2.442  0.5150 -0.5688  0.3081
10615TIP3    H153336   3.152   2.625   2.379  1.3203  1.0540  0.0649
10615TIP3    H253337   3.290   2.662   2.429  1.5195 -1.3928  1.5088
10616TIP3   OH253338   0.614   5.115  14.831 -0.2487 -0.1867  0.4604
10616TIP3    H153339   0.627   5.207  14.809 -0.4112 -0.8539 -2.7954
10616TIP3    H253340   0.697   5.088  14.870  0.3532  0.9609  0.0262
10617TIP3   OH253341   1.664   1.347   5.023 -0.0179  0.6952  0.2334
10617TIP3    H153342   1.730   1.396   4.974  0.7687 -0.3139  0.2547
10617TIP3    H253343   1.581   1.390   5.001  0.4598  1.0039 -1.0478
10618TIP3   OH253344   0.572   4.626   4.508  0.2038 -0.1863  0.0816
10618TIP3    H153345   0.528   4.621   4.593  1.2933  0.4832  0.7103
10618TIP3    H253346   0.561   4.718   4.482  0.7066 -0.1587 -0.0336
10619TIP3   OH253347   3.329   4.780  14.358 -0.3300 -0.8774  0.1680
10619TIP3    H153348   3.353   4.867  14.389 -2.3079 -0.6872  1.3521
10619TIP3    H253349   3.302   4.794  14.267 -0.8165 -0.2088  0.4075
10620TIP3   OH253350   1.341   1.246   6.111 -0.6200 -0.1268  0.1384
10620TIP3    H153351   1.353   1.341   6.103 -0.6113 -0.1525 -0.1591
10620TIP3    H253352   1.428   1.210   6.091  0.1885 -0.0737  3.0825
10621TIP3   OH253353   2.359   4.554  13.873 -0.1977 -0.3483  0.4892
10621TIP3    H153354   2.449   4.525  13.888 -0.1000  0.0246  0.6350
10621TIP3    H253355   2.362   4.596  13.787 -0.1084  0.1573  0.7352
10622TIP3   OH253356   4.172   6.018   1.503  0.6725  0.2907  0.0416
10622TIP3    H153357   4.098   6.052   1.553  0.7108  0.7928 -0.2341
10622TIP3    H253358   4.131   5.975   1.427  0.6921  2.0062 -0.9954
10623TIP3   OH253359   4.761   1.707  16.400  0.8895  0.7161  0.3889
10623TIP3    H153360   4.784   1.678  16.312  0.5077 -2.5397  1.2521
10623TIP3    H253361   4.829   1.771  16.423 -0.1998  3.4279 -2.9765
10624TIP3   OH253362   4.517   0.567  15.343 -0.1079 -0.1680 -0.0347
10624TIP3    H153363   4.519   0.489  15.287 -2.6853  0.3714 -1.0185
10624TIP3    H253364   4.445   0.620  15.308 -0.2857  1.3137  2.3496
10625TIP3   OH253365   0.360   6.680  12.537  0.4075  0.3600 -0.3046
10625TIP3    H153366   0.383   6.763  12.577 -0.6416  0.0121  1.1247
10625TIP3    H253367   0.335   6.624  12.611  1.4772 -1.3713 -1.1801
10626TIP3   OH253368   3.704   4.486  11.541  0.3834  0.4746  0.5138
10626TIP3    H153369   3.676   4.402  11.504 -2.9888  1.5344  0.3423
10626TIP3    H253370   3.755   4.527  11.470 -1.3201  0.1766 -0.9591
10627TIP3   OH253371   5.953   3.982   1.504 -0.0891 -0.4045 -0.2753
10627TIP3    H153372   5.879   4.031   1.541  0.1191  1.4356 -2.1144
10627TIP3    H253373   5.928   3.968   1.413  1.6562 -0.0752 -0.8344
10628TIP3   OH253374   6.179   4.055  14.468  0.3300 -0.4084  0.4357
10628TIP3    H153375   6.214   3.992  14.405  1.8236  0.0257  0.8000
10628TIP3    H253376   6.084   4.048  14.459  0.5053 -1.1575 -1.0594
10629TIP3   OH253377   5.156   4.165  14.512 -0.0584 -0.5948  0.0295
10629TIP3    H153378   5.220   4.161  14.440  0.1311 -2.7322  0.2475
10629TIP3    H253379   5.209   4.161  14.591 -0.3488  0.3244  0.2840
10630TIP3   OH253380   0.216   6.670  16.909  0.2177 -0.5773 -0.1540
10630TIP3    H153381   0.133   6.687  16.865 -0.0847  0.3545  0.7445
10630TIP3    H253382   0.274   6.739  16.877  0.1896 -0.3002  0.3815
10631TIP3   OH253383   2.435   4.573   2.794 -0.4308  0.2247 -0.2235
10631TIP3    H153384   2.520   4.545   2.828 -0.9547 -1.0553  0.1127
10631TIP3    H253385   2.426   4.664   2.821  0.3176  0.0141  0.7933
10632TIP3   OH253386   0.265   2.869  17.112  0.2819 -0.5461  1.1889
10632TIP3    H153387   0.336   2.813  17.079 -1.2527 -1.4150 -0.8492
10632TIP3    H253388   0.285   2.955  17.076 -0.4229 -1.1108 -0.6566
10633TIP3   OH253389   0.385   4.450  14.871  0.2955  0.2499 -0.2246
10633TIP3    H153390   0.396   4.471  14.964  1.3031 -0.4627 -0.1724
10633TIP3    H253391   0.343   4.528  14.835 -0.9744  0.1695  0.9974
10634TIP3   OH253392   2.831   6.255  16.053 -0.1565  0.0793  0.8489
10634TIP3    H153393   2.828   6.346  16.024  2.0893  0.3589  1.2798
10634TIP3    H253394   2.831   6.260  16.149  0.3053 -0.3304  0.8794
10635TIP3   OH253395   3.196   0.044  12.482 -0.4056 -0.2413  0.2702
10635TIP3    H153396   3.230   0.133  12.495 -0.2751 -0.1659 -0.5390
10635TIP3    H253397   3.191   0.007  12.570  1.8376 -0.2815  0.4241
10636TIP3   OH253398   0.280   2.222   1.846  0.0477  0.0909 -0.1259
10636TIP3    H153399   0.373   2.242   1.834  0.0083  0.1602 -0.3193
10636TIP3    H253400   0.235   2.286   1.792 -0.0985 -0.2122 -0.3662
10637TIP3   OH253401   4.516   5.679  14.450 -0.3151  0.3425  0.2901
10637TIP3    H153402   4.595   5.635  14.420 -1.0920  0.0892 -1.5248
10637TIP3    H253403   4.538   5.772  14.449  0.1917  0.2267  0.5473
10638TIP3   OH253404   0.309   4.595  11.021  0.3435 -0.2262  0.0267
10638TIP3    H153405   0.289   4.630  10.934 -0.4332 -1.9989 -0.5462
10638TIP3    H253406   0.390   4.544  11.009  0.1693 -0.5774  0.3173
10639TIP3   OH253407   4.947   6.495   0.667  0.1587  0.7225 -0.0164
10639TIP3    H153408   5.008   6.567   0.685  1.4045  0.1420 -1.5857
10639TIP3    H253409   4.959   6.478   0.573 -0.2482 -1.3846  0.2818
10640TIP3   OH253410   5.157   3.055  11.732  0.2679  0.4934  0.3420
10640TIP3    H153411   5.179   3.003  11.654 -0.2372  1.6381 -0.5908
10640TIP3    H253412   5.241   3.085  11.765  0.4551  0.4178 -0.0578
10641TIP3   OH253413   6.321   3.801   5.549 -0.0669  1.2117  0.7504
10641TIP3    H153414   6.342   3.714   5.583 -1.8796 -0.3172 -1.7265
10641TIP3    H253415   6.233   3.819   5.581 -0.2443  1.4883  0.1328
10642TIP3   OH253416   2.479   0.210  10.202 -0.6307 -0.0651 -0.5186
10642TIP3    H153417   2.387   0.204  10.174 -1.3882 -0.0948  1.8179
10642TIP3    H253418   2.481   0.285  10.260  0.7641 -0.3125 -0.2298
10643TIP3   OH253419   4.920   1.518   0.030 -0.6807  0.4160 -0.0476
10643TIP3    H153420   4.984   1.555  -0.031 -1.2919  0.4142 -0.6999
10643TIP3    H253421   4.949   1.428   0.043  0.6196  0.9744  1.2864
10644TIP3   OH253422   2.304   2.388  12.227 -0.2460  0.0203 -0.6086
10644TIP3    H153423   2.258   2.340  12.158  0.8396 -1.3787 -0.3895
10644TIP3    H253424   2.293   2.334  12.305  0.0432  0.7004 -0.0859
10645TIP3   OH253425   0.439   2.153   1.076 -0.3155  0.4972 -0.5265
10645TIP3    H153426   0.353   2.123   1.103 -0.6622  0.6884 -1.3859
10645TIP3    H253427   0.430   2.248   1.068  0.5200  0.7655  1.2856
10646TIP3   OH253428   5.765   2.310   2.405 -0.7837  0.3128  0.5216
10646TIP3    H153429   5.854   2.332   2.433 -0.5994  0.4716 -0.1799
10646TIP3    H253430   5.721   2.395   2.398 -0.5267  0.3532 -0.6728
10647TIP3   OH253431   4.937   4.153  11.362  0.2476 -0.1462  0.3474
10647TIP3    H153432   4.853   4.139  11.407 -0.1671  0.8085 -0.0891
10647TIP3    H253433   5.001   4.159  11.432 -0.4356  1.6472  0.8689
10648TIP3   OH253434   4.788   3.518  13.232  0.1583  0.2026  0.2201
10648TIP3    H153435   4.717   3.515  13.168 -1.0773  0.1546  1.5349
10648TIP3    H253436   4.747   3.554  13.311  1.4243 -0.5014  1.2283
10649TIP3   OH253437   5.717   3.374  11.397  0.5093 -0.5384  0.0278
10649TIP3    H153438   5.788   3.425  11.357  0.5605 -0.5495  0.1029
10649TIP3    H253439   5.712   3.295  11.345 -1.1520  0.5553 -1.5738
10650TIP3   OH253440   4.758   2.632  15.554  0.2232  0.1404  0.2887
10650TIP3    H153441   4.666   2.606  15.551  0.1111  0.6569 -1.6077
10650TIP3    H253442   4.796   2.575  15.621 -1.0949 -1.3528 -0.1709
10651TIP3   OH253443   4.160   1.177  14.231  0.2022  0.0235  0.1393
10651TIP3    H153444   4.079   1.151  14.275  0.3294 -1.0371 -0.2175
10651TIP3    H253445   4.214   1.098  14.233  1.8888  1.1335  1.7984
10652TIP3   OH253446   2.323   6.105  11.583  0.2903 -1.0209  0.1309
10652TIP3    H153447   2.294   6.094  11.492  1.1786  2.0213 -0.6117
10652TIP3    H253448   2.249   6.146  11.627 -0.0252 -2.2181  0.7773
10653TIP3   OH253449   0.061   4.000   2.225 -0.5738 -0.1396  0.1224
10653TIP3    H153450   0.111   3.983   2.304  0.3476 -0.1070 -0.4336
10653TIP3    H253451  -0.023   3.956   2.239 -1.5399  2.1772  2.2647
10654TIP3   OH253452   4.181   6.452   0.415  0.1990 -0.2421  0.1012
10654TIP3    H153453   4.252   6.418   0.471 -1.3362 -1.0792  1.6422
10654TIP3    H253454   4.112   6.477   0.477 -1.0363  0.1169 -1.3699
10655TIP3   OH253455   0.622   4.267   2.173 -0.2687 -0.3063 -0.5213
10655TIP3    H153456   0.651   4.277   2.264 -0.6818 -2.2776 -0.1143
10655TIP3    H253457   0.577   4.349   2.152  1.0680  0.7515  0.5503
10656TIP3   OH253458   6.296   0.353   5.571  0.2406 -0.2042 -0.3914
10656TIP3    H153459   6.258   0.345   5.484 -0.2166 -0.8231 -0.1491
10656TIP3    H253460   6.378   0.304   5.566  0.0122 -0.6012 -0.3709
10657TIP3   OH253461   4.070   2.017   2.971 -0.2548 -0.1886 -0.0161
10657TIP3    H153462   4.163   2.040   2.971 -0.1270 -0.6646  0.8073
10657TIP3    H253463   4.068   1.927   2.938 -0.2290 -0.8201  1.6060
10658TIP3   OH253464   4.932   2.224   5.278 -0.3187 -0.2825 -0.0582
10658TIP3    H153465   4.846   2.192   5.252 -0.0631  0.1792 -1.5847
10658TIP3    H253466   4.964   2.160   5.342 -2.0164 -0.1386  1.0087
10659TIP3   OH253467   3.041   1.244  15.177 -0.1818 -0.5213 -0.3456
10659TIP3    H153468   3.128   1.237  15.217  0.3187  1.0264 -1.0569
10659TIP3    H253469   3.059   1.266  15.085 -1.3065  0.3673 -0.3806
10660TIP3   OH253470   2.464   4.336  10.765  0.0614 -0.0408 -0.3670
10660TIP3    H153471   2.533   4.281  10.802  0.6710  0.7163 -0.3287
10660TIP3    H253472   2.443   4.398  10.835  0.6242  0.8639 -0.9661
10661TIP3   OH253473   5.741   5.903   0.583 -0.0218  0.2606  0.5229
10661TIP3    H153474   5.771   5.812   0.585  0.7720  0.5260  2.7394
10661TIP3    H253475   5.673   5.904   0.515  2.6125 -1.0867 -2.3942
10662TIP3   OH253476   1.287   3.848  11.460 -0.3390  0.2789 -0.0456
10662TIP3    H153477   1.294   3.756  11.432 -1.1699  0.2166 -0.0830
10662TIP3    H253478   1.272   3.842  11.555  2.1550  0.4772  0.4242
10663TIP3   OH253479   0.842   2.443   4.833  0.0716 -0.5274  0.2304
10663TIP3    H153480   0.859   2.375   4.899  1.3662 -0.2004  0.2493
10663TIP3    H253481   0.895   2.517   4.861  0.0242 -0.1107 -0.7630
10664TIP3   OH253482   3.529   6.366   2.990  0.5933 -0.3888  0.1522
10664TIP3    H153483   3.503   6.458   2.986  0.9215 -0.2221  1.4806
10664TIP3    H253484   3.599   6.363   3.055  0.1028 -1.6828  0.6600
10665TIP3   OH253485   1.366   3.463   0.300  0.6853  0.1096  0.3605
10665TIP3    H153486   1.384   3.555   0.317  0.9553  0.3019 -0.8172
10665TIP3    H253487   1.270   3.457   0.295  0.6431  0.1969  1.0868
10666TIP3   OH253488   1.381   5.659  15.135 -0.1586 -0.0524 -0.7402
10666TIP3    H153489   1.301   5.619  15.101  0.2048  0.0077 -1.6855
10666TIP3    H253490   1.421   5.701  15.059  1.2943 -0.9501 -0.5005
10667TIP3   OH253491   5.999   5.404  11.339 -0.2025 -0.0619  0.2242
10667TIP3    H153492   6.009   5.441  11.427 -1.4920 -0.8205  0.7275
10667TIP3    H253493   6.017   5.477  11.280 -1.7159  1.1311  1.1577
10668TIP3   OH253494   6.142   6.385   2.421  0.3585 -0.0732  0.0554
10668TIP3    H153495   6.202   6.315   2.395  2.2236  1.4143  0.1308
10668TIP3    H253496   6.112   6.359   2.508  1.6922 -0.4075  0.4454
10669TIP3   OH253497   6.069   5.172  14.761 -0.3624  0.8351  0.5006
10669TIP3    H153498   5.988   5.222  14.757 -1.1857 -0.4427  0.7351
10669TIP3    H253499   6.082   5.139  14.672 -0.6265  0.2500  0.6737
10670TIP3   OH253500   5.505   0.974  16.567  0.5683  0.4541 -0.1465
10670TIP3    H153501   5.576   0.911  16.578  0.0618 -0.1892 -0.4647
10670TIP3    H253502   5.461   0.947  16.487 -1.4829 -0.6415  1.2478
10671TIP3   OH253503   5.844   1.464  16.751  0.0787 -0.5772 -0.1843
10671TIP3    H153504   5.831   1.439  16.843  0.4747  1.4927  0.4879
10671TIP3    H253505   5.838   1.382  16.703  0.5083 -1.8130  1.7552
10672TIP3   OH253506   3.390   1.272   3.968 -0.2088 -0.3952 -0.1457
10672TIP3    H153507   3.323   1.329   3.931 -0.3375 -1.9294 -2.5270
10672TIP3    H253508   3.411   1.211   3.896  1.3985 -1.9926  1.5815
10673TIP3   OH253509   5.781   3.507  11.939 -0.4768  0.2068  0.0205
10673TIP3    H153510   5.751   3.427  11.983 -0.0649  0.4338  0.7409
10673TIP3    H253511   5.723   3.516  11.863  0.1133 -1.3209 -0.6468
10674TIP3   OH253512   3.126   3.848   0.119  0.1426  0.3796  0.2154
10674TIP3    H153513   3.116   3.941   0.141  2.2954  0.4526  1.1745
10674TIP3    H253514   3.170   3.848   0.034  0.9221  0.2878  0.6047
10675TIP3   OH253515   3.099   0.918  16.953  0.4026 -0.3531  0.3259
10675TIP3    H153516   3.145   0.942  16.873  0.0439 -0.4197  0.0958
10675TIP3    H253517   3.042   0.992  16.971  0.7507 -0.1798  0.7255
10676TIP3   OH253518   4.685   3.214  12.114  0.5707 -0.1729  0.0919
10676TIP3    H153519   4.651   3.192  12.027 -0.9708  0.9629  0.3630
10676TIP3    H253520   4.754   3.150  12.130  2.1081  0.6327 -2.6903
10677TIP3   OH253521   6.521   2.164   1.719 -0.0639 -0.6800 -0.2450
10677TIP3    H153522   6.519   2.095   1.785 -1.9716 -0.4347  0.0390
10677TIP3    H253523   6.585   2.227   1.751  1.6653 -2.2439 -0.4825
10678TIP3   OH253524   6.230   1.004  10.814 -0.2137 -0.6235 -0.1084
10678TIP3    H153525   6.305   1.032  10.865 -0.3740 -0.2082 -0.1027
10678TIP3    H253526   6.263   0.929  10.763  0.0347 -0.8264  0.3446
10679TIP3   OH253527   6.318   6.774  11.575  0.5909  0.0427 -0.0832
10679TIP3    H153528   6.364   6.754  11.493  0.5984 -0.0707 -0.0517
10679TIP3    H253529   6.267   6.853  11.555  0.5036 -0.0502 -0.2313
10680TIP3   OH253530   0.123   2.516  10.955 -0.5581  0.4802 -0.1407
10680TIP3    H153531   0.036   2.533  10.992 -0.4862  0.5453 -0.0023
10680TIP3    H253532   0.181   2.577  11.001 -0.4967  0.6730 -0.4760
10681TIP3   OH253533   4.064   5.738   2.392  0.0558  0.2961  0.1280
10681TIP3    H153534   4.086   5.670   2.456 -2.3758 -1.0375 -0.3293
10681TIP3    H253535   4.078   5.820   2.438 -0.8378 -0.6088  2.1250
10682TIP3   OH253536   3.635   0.697  13.492 -0.2771 -0.1234  0.1211
10682TIP3    H153537   3.568   0.630  13.476 -0.0675 -0.2044 -0.4557
10682TIP3    H253538   3.664   0.723  13.405 -0.5997  0.9782  0.3329
10683TIP3   OH253539   0.736   4.286   1.846  0.3854  0.0357  0.7012
10683TIP3    H153540   0.669   4.218   1.849  1.7777 -1.4797 -0.4084
10683TIP3    H253541   0.792   4.268   1.921  2.2621 -1.8130 -0.9972
10684TIP3   OH253542   2.248   4.776   3.600  0.6009 -0.2462 -0.6687
10684TIP3    H153543   2.323   4.835   3.591 -0.1333  0.5436 -2.0935
10684TIP3    H253544   2.282   4.690   3.575  1.5932 -0.4006  1.0680
10685TIP3   OH253545   5.704   5.503  12.654  0.0526  0.1897  0.2966
10685TIP3    H153546   5.638   5.449  12.611 -0.2988  1.3685 -0.6845
10685TIP3    H253547   5.678   5.505  12.746 -0.1725 -0.9233  0.2763
10686TIP3   OH253548   5.375   3.348   0.591 -0.3033  0.4182  0.2964
10686TIP3    H153549   5.470   3.351   0.602 -0.0586 -2.0788 -0.6450
10686TIP3    H253550   5.343   3.323   0.678 -0.0821  0.8751  0.5152
10687TIP3   OH253551   4.212   2.297   6.609  0.3443  0.0333  0.0810
10687TIP3    H153552   4.239   2.209   6.582  1.3807  0.2970  0.2177
10687TIP3    H253553   4.168   2.284   6.693  1.5612 -0.2269  0.6949
10688TIP3   OH253554   2.693   0.594   3.483 -0.3948  0.4422 -0.5939
10688TIP3    H153555   2.631   0.619   3.552  0.0038  0.7387 -0.3335
10688TIP3    H253556   2.724   0.507   3.510  0.4883  0.9548  0.1472
10689TIP3   OH253557   1.284   6.790  13.940 -0.2544 -0.6407  0.1715
10689TIP3    H153558   1.214   6.855  13.927  1.8400  1.4939 -1.2436
10689TIP3    H253559   1.327   6.819  14.020 -0.0491 -1.0436  0.2058
10690TIP3   OH253560   1.241   3.291   1.251  0.3209  0.3587  0.2995
10690TIP3    H153561   1.254   3.310   1.344 -0.0504 -0.5484  0.5460
10690TIP3    H253562   1.310   3.228   1.230 -1.1565 -1.4753  0.6465
10691TIP3   OH253563   1.058   2.412   1.709 -0.5745  0.4426 -0.3788
10691TIP3    H153564   1.000   2.423   1.784 -3.2084 -0.3335 -2.1541
10691TIP3    H253565   1.092   2.323   1.718 -3.2559 -0.7909 -1.5331
10692TIP3   OH253566   1.777   5.527  13.995  0.2435  0.4400  0.5052
10692TIP3    H153567   1.736   5.611  14.015 -1.6077 -0.3429  0.1300
10692TIP3    H253568   1.811   5.496  14.079  0.6054  1.3578  0.7141
10693TIP3   OH253569   5.841   3.948  15.136  0.2085  0.0972  0.2617
10693TIP3    H153570   5.906   3.965  15.069 -0.3710  0.8617 -0.1161
10693TIP3    H253571   5.763   3.996  15.108 -1.3304 -2.6583 -0.5520
10694TIP3   OH253572   3.634   1.683   2.246  0.1889  0.4357 -0.6242
10694TIP3    H153573   3.587   1.710   2.325  0.7669  0.3590 -0.2525
10694TIP3    H253574   3.656   1.765   2.202  1.2910  0.5599  0.1263
10695TIP3   OH253575   3.572   2.392  12.212  0.2719 -0.4506  0.0954
10695TIP3    H153576   3.512   2.459  12.243 -0.4266 -1.6606  1.4797
10695TIP3    H253577   3.589   2.415  12.120  0.3108  1.7532  0.5992
10696TIP3   OH253578   6.730   5.015  10.524 -0.0580 -0.4499  0.0635
10696TIP3    H153579   6.656   4.983  10.473  0.8219 -0.5915 -1.1870
10696TIP3    H253580   6.759   4.939  10.575  0.2813 -0.8979 -0.7676
10697TIP3   OH253581   3.513   0.486   2.142 -0.1709  0.4006 -0.2882
10697TIP3    H153582   3.556   0.486   2.056  0.5512 -2.2046 -0.0178
10697TIP3    H253583   3.580   0.452   2.202 -1.1967  0.5746  1.0060
10698TIP3   OH253584   3.656   4.038   6.552 -0.2521 -0.4982 -0.1396
10698TIP3    H153585   3.728   4.060   6.492 -0.8967  1.0831 -0.3839
10698TIP3    H253586   3.613   4.122   6.569 -1.4276 -1.2672  0.8032
10699TIP3   OH253587   4.841   5.190  12.951 -0.1329 -0.1483  0.3519
10699TIP3    H153588   4.847   5.147  13.036  0.1571 -2.5965 -0.8017
10699TIP3    H253589   4.758   5.159  12.915  0.5450 -0.5539 -0.9288
10700TIP3   OH253590   3.852   3.297  16.187  0.1625  0.1809  0.1021
10700TIP3    H153591   3.824   3.227  16.128  0.2573 -0.2074  0.5118
10700TIP3    H253592   3.947   3.291  16.189  0.1482  0.0254  0.4893
10701TIP3   OH253593   2.168   4.392   4.548 -0.0860  0.4062  0.0428
10701TIP3    H153594   2.141   4.301   4.532  1.9141 -0.0488 -1.0698
10701TIP3    H253595   2.156   4.436   4.463 -0.1983  0.9557  0.3396
10702TIP3   OH253596   5.493   5.827  10.533  0.0533  0.1896 -0.2675
10702TIP3    H153597   5.498   5.816  10.438  1.6457 -0.5698 -0.1267
10702TIP3    H253598   5.515   5.741  10.569 -1.3322  0.2379  0.8105
10703TIP3   OH253599   4.292   4.007  14.874 -0.1156 -0.0381  0.1203
10703TIP3    H153600   4.361   4.074  14.866 -0.8460  0.7658  0.3411
10703TIP3    H253601   4.211   4.054  14.854 -0.6712 -0.8131  0.4978
10704TIP3   OH253602   5.660   2.799   4.375 -0.2715  0.1970  0.5003
10704TIP3    H153603   5.693   2.743   4.446  0.7622 -1.5646 -1.2890
10704TIP3    H253604   5.582   2.841   4.413 -3.1197 -4.8683  1.0811
10705TIP3   OH253605   5.338   4.110  14.308 -0.5565 -0.5345  0.8849
10705TIP3    H153606   5.274   4.090  14.240 -0.1686 -0.6991  0.5657
10705TIP3    H253607   5.401   4.168  14.265  1.0845 -2.5984  0.3538
10706TIP3   OH253608   0.003   6.134   0.186  0.0369 -0.0312 -0.4070
10706TIP3    H153609   0.007   6.230   0.184  2.2954 -0.0877 -0.9494
10706TIP3    H253610  -0.053   6.114   0.261  2.4784  1.7279  2.0883
10707TIP3   OH253611   5.796   3.735   3.128  0.4423 -0.4060 -0.0224
10707TIP3    H153612   5.776   3.642   3.115  0.2840 -0.4378  0.4153
10707TIP3    H253613   5.790   3.747   3.223 -1.4027  0.4589 -0.2059
10708TIP3   OH253614   6.703   1.172   4.894  0.6367  0.4238  0.1716
10708TIP3    H153615   6.647   1.220   4.956  0.9341  0.4107  0.4486
10708TIP3    H253616   6.681   1.210   4.809  0.4186  0.6250  0.3154
10709TIP3   OH253617   0.151   0.343   4.651  0.6499  0.1810 -0.0325
10709TIP3    H153618   0.082   0.363   4.588  1.6347  0.3554 -1.0909
10709TIP3    H253619   0.198   0.426   4.662 -0.1079  0.4268  1.7395
10710TIP3   OH253620   1.129   2.374   1.153 -0.0463 -1.0247  0.1307
10710TIP3    H153621   1.039   2.405   1.147  0.1124 -0.7511 -1.0008
10710TIP3    H253622   1.130   2.293   1.101  0.6096 -0.4362 -0.7872
10711TIP3   OH253623   3.242   4.613   2.304 -0.0078 -0.0643  0.2400
10711TIP3    H153624   3.265   4.600   2.396 -2.6978 -0.7236  0.9015
10711TIP3    H253625   3.248   4.708   2.292  3.6592 -0.1966  0.0489
10712TIP3   OH253626   2.867   4.983  13.037  0.1526  0.1600  0.4943
10712TIP3    H153627   2.811   4.962  12.962  0.6872  1.7331 -0.3992
10712TIP3    H253628   2.934   5.041  13.001  0.8719  0.3421  2.0529
10713TIP3   OH253629   2.622   1.096  17.284  0.4064 -0.0508 -0.0401
10713TIP3    H153630   2.709   1.056  17.275 -0.0404 -0.4854 -3.8068
10713TIP3    H253631   2.641   1.187  17.309  1.9799 -0.1616 -0.6862
10714TIP3   OH253632   4.240   5.219  15.790 -0.4560 -0.2951  0.1751
10714TIP3    H153633   4.159   5.253  15.829 -0.5241  0.2212 -0.3995
10714TIP3    H253634   4.229   5.235  15.696  1.6797  2.8465  0.3106
10715TIP3   OH253635   0.243   5.642   4.881 -1.0948 -0.0452 -0.3244
10715TIP3    H153636   0.271   5.582   4.950 -0.7331 -1.1684 -1.4169
10715TIP3    H253637   0.202   5.715   4.928  0.3835 -0.1040  1.1370
10716TIP3   OH253638   4.209   5.582  13.283  0.4021  1.0129  0.2856
10716TIP3    H153639   4.209   5.519  13.354 -1.2426  0.1755 -0.3924
10716TIP3    H253640   4.229   5.666  13.324 -0.9985  0.6386  1.8461
10717TIP3   OH253641   6.502   3.672  12.078  0.0620  0.0199  0.2569
10717TIP3    H153642   6.440   3.621  12.027  2.4980 -1.9620 -0.9574
10717TIP3    H253643   6.502   3.631  12.165  0.9221 -1.1970 -0.2825
10718TIP3   OH253644   5.222   3.345   2.870  0.4946  0.5062  0.0301
10718TIP3    H153645   5.172   3.389   2.939  1.9555  0.8427  0.9160
10718TIP3    H253646   5.224   3.253   2.896 -0.9888  0.2013 -0.8512
10719TIP3   OH253647   6.619   0.877   2.307  0.6142 -0.2915 -0.4974
10719TIP3    H153648   6.702   0.893   2.261  0.1807  2.4994 -0.4768
10719TIP3    H253649   6.566   0.954   2.288 -0.9530 -0.7234  1.7286
10720TIP3   OH253650   0.403   3.908  10.877 -0.0618 -0.1425  0.0038
10720TIP3    H153651   0.324   3.962  10.872  0.1501  0.1929  0.1677
10720TIP3    H253652   0.373   3.822  10.906 -0.3554  0.0106  0.1578
10721TIP3   OH253653   4.357   4.115  11.291  0.4513  0.0801 -0.2124
10721TIP3    H153654   4.398   4.182  11.236 -1.7402  2.8759  1.3036
10721TIP3    H253655   4.266   4.111  11.260 -0.0295 -0.5129  1.2245
10722TIP3   OH253656   1.693   2.007   2.853  0.1208 -0.0930  0.3644
10722TIP3    H153657   1.706   2.073   2.921 -1.3045  0.7056 -0.1054
10722TIP3    H253658   1.769   2.018   2.795  0.0435  0.9716  0.4381
10723TIP3   OH253659   4.500   4.634   5.064 -0.1086  0.6530  0.0504
10723TIP3    H153660   4.425   4.623   5.122 -0.3366  1.4573 -0.0702
10723TIP3    H253661   4.467   4.609   4.978 -0.5420  1.9172 -0.1754
10724TIP3   OH253662   6.694   1.484   3.449 -0.0435 -0.3072 -0.2146
10724TIP3    H153663   6.620   1.423   3.447  0.3661 -0.8146 -0.1613
10724TIP3    H253664   6.669   1.551   3.513 -0.7700 -0.0627 -0.7521
10725TIP3   OH253665   1.078   5.587  17.147 -0.1175  0.3541  0.0315
10725TIP3    H153666   0.986   5.614  17.143 -0.3627 -0.5274 -0.4054
10725TIP3    H253667   1.079   5.514  17.208 -0.0172 -0.8001 -1.3062
10726TIP3   OH253668   0.831   4.191  12.128  0.2314 -0.5882  0.0409
10726TIP3    H153669   0.879   4.172  12.208  0.3232 -2.8412 -0.5065
10726TIP3    H253670   0.895   4.235  12.071  0.3195  0.5104  0.9448
10727TIP3   OH253671   0.147   2.358  13.243 -0.5244 -0.5603 -0.2328
10727TIP3    H153672   0.076   2.318  13.192 -0.3251 -1.7979  0.4206
10727TIP3    H253673   0.214   2.290  13.247 -0.7221 -0.6796  2.0364
10728TIP3   OH253674   2.580   1.835   1.376 -0.2331 -0.4520  0.3915
10728TIP3    H153675   2.520   1.860   1.446  0.4167 -0.9125  1.1421
10728TIP3    H253676   2.575   1.739   1.373  0.0119 -0.4577  0.0536
10729TIP3   OH253677   5.239   3.473   4.750  0.0427 -0.0811 -0.2740
10729TIP3    H153678   5.301   3.400   4.756  1.6791  1.1070 -1.7072
10729TIP3    H253679   5.199   3.477   4.837 -1.1820 -3.5146 -0.5288
10730TIP3   OH253680   6.767   0.868  14.883  0.7613  0.3175  0.0901
10730TIP3    H153681   6.778   0.844  14.791  0.6105 -0.3240  0.2333
10730TIP3    H253682   6.762   0.784  14.929  2.2027  0.6214  0.8537
10731TIP3   OH253683   6.212   2.193  14.078 -0.0002 -0.0540  0.4231
10731TIP3    H153684   6.300   2.155  14.087 -0.2052 -1.4279 -2.4377
10731TIP3    H253685   6.225   2.286  14.098  1.2383 -0.8357  3.9835
10732TIP3   OH253686   3.975   1.186   0.586 -0.0989 -0.1147 -0.5541
10732TIP3    H153687   4.042   1.173   0.653 -0.2541 -1.0632 -0.5742
10732TIP3    H253688   4.019   1.169   0.503  0.5022  2.5622 -0.8579
10733TIP3   OH253689   2.513   6.740  11.143  0.3383  0.2458 -0.1839
10733TIP3    H153690   2.536   6.784  11.225 -0.4392 -0.5532  0.4902
10733TIP3    H253691   2.596   6.710  11.107  0.7022  0.7382  0.2268
10734TIP3   OH253692   5.958   6.655  13.973 -0.0150 -0.4283  0.9156
10734TIP3    H153693   5.902   6.591  14.016 -1.2991  1.3164  1.9357
10734TIP3    H253694   5.900   6.726  13.948  1.1896 -0.0752 -1.1367
10735TIP3   OH253695   2.204   0.768   3.605 -0.1824 -0.1595 -0.6530
10735TIP3    H153696   2.242   0.813   3.681 -1.2381 -0.0172 -0.1887
10735TIP3    H253697   2.130   0.822   3.580 -1.2509 -1.4120 -0.3256
10736TIP3   OH253698   5.542   1.729   3.027 -0.0781  0.2014 -0.1979
10736TIP3    H153699   5.599   1.747   2.952 -0.0071 -1.5662 -0.6147
10736TIP3    H253700   5.459   1.770   3.005  0.3098  0.7396 -0.6835
10737TIP3   OH253701   3.023   5.587  10.683  0.5501  0.4818 -0.1458
10737TIP3    H153702   3.091   5.531  10.722  0.5061  0.2895 -0.3371
10737TIP3    H253703   2.946   5.574  10.739  0.6367  0.6058  0.0018
10738TIP3   OH253704   2.544   2.018   4.019 -0.0759 -0.1416 -0.3527
10738TIP3    H153705   2.483   2.092   4.030 -0.2291  0.0795 -2.2560
10738TIP3    H253706   2.505   1.966   3.948  0.3039 -1.7904  0.6092
10739TIP3   OH253707   2.381   1.048   3.067 -0.0202 -0.7617  0.1896
10739TIP3    H153708   2.347   1.109   3.002 -1.8696  0.3830  2.0876
10739TIP3    H253709   2.308   0.988   3.084  0.8835 -1.8772  0.2712
10740TIP3   OH253710   0.168   3.394  16.064 -0.0240 -0.5734 -0.0234
10740TIP3    H153711   0.204   3.312  16.098 -0.2249 -0.5929  0.1453
10740TIP3    H253712   0.238   3.430  16.010  0.3780 -0.4369  0.5778
10741TIP3   OH253713   0.543   1.967  12.311  0.1317  0.6317  0.1021
10741TIP3    H153714   0.497   2.051  12.318 -0.8282  0.0749  0.7045
10741TIP3    H253715   0.541   1.931  12.400 -0.4641 -0.5319 -0.3602
10742TIP3   OH253716   3.437   1.090   2.954  0.2568 -0.5601 -0.3416
10742TIP3    H153717   3.374   1.027   2.989  0.8479 -0.9813 -0.0328
10742TIP3    H253718   3.388   1.137   2.886 -1.6906  1.8720  2.4948
10743TIP3   OH253719   4.134   3.527  11.668  0.0134 -0.4077 -0.0555
10743TIP3    H153720   4.045   3.497  11.683  0.0322 -0.5268 -0.1753
10743TIP3    H253721   4.126   3.622  11.654  0.2288  0.1164  2.7409
10744TIP3   OH253722   2.000   2.536  15.585  0.3669 -0.0884  0.4191
10744TIP3    H153723   2.094   2.552  15.583  0.6284 -1.4328  1.2794
10744TIP3    H253724   1.961   2.624  15.587  1.6129  0.4734  0.9028
10745TIP3   OH253725   3.047   6.447   3.155 -0.1783  0.1425  0.4806
10745TIP3    H153726   2.968   6.478   3.112 -0.1559 -1.6049 -0.9373
10745TIP3    H253727   3.119   6.474   3.098  0.0133 -0.5191  0.3939
10746TIP3   OH253728   4.736   6.708   1.347  0.0027 -0.2374  0.0095
10746TIP3    H153729   4.750   6.619   1.315 -1.7321 -0.2535 -0.8253
10746TIP3    H253730   4.754   6.703   1.441  3.7016 -0.5393 -0.5758
10747TIP3   OH253731   2.310   1.716  11.228 -0.2387 -0.0115 -0.2245
10747TIP3    H153732   2.303   1.743  11.319 -1.5955 -0.2843 -0.2306
10747TIP3    H253733   2.344   1.626  11.233  0.7815  0.3652 -0.0588
10748TIP3   OH253734   6.259   4.138  16.868  0.3912 -0.1674  0.2658
10748TIP3    H153735   6.266   4.200  16.941 -0.4383  1.1727 -0.7425
10748TIP3    H253736   6.169   4.107  16.871 -0.7333  2.4322 -2.0536
10749TIP3   OH253737   4.542   2.150  12.352 -0.2990  0.5506  0.0381
10749TIP3    H153738   4.614   2.131  12.412 -0.2231 -0.5993 -0.3960
10749TIP3    H253739   4.490   2.070  12.352 -0.5887  0.7376 -1.0219
10750TIP3   OH253740   6.444   1.845  17.108 -0.3818  0.9426 -0.2516
10750TIP3    H153741   6.426   1.926  17.156 -0.1393  0.4701  0.6529
10750TIP3    H253742   6.540   1.843  17.102 -0.4362  1.9640 -2.4703
10751TIP3   OH253743   5.413   4.467  15.642 -0.3245 -0.3997  0.1555
10751TIP3    H153744   5.403   4.559  15.617 -1.6947  0.5628  3.5981
10751TIP3    H253745   5.360   4.419  15.578  0.4781  1.1518 -1.7709
10752TIP3   OH253746   0.121   0.558  13.391 -0.6985 -0.0660 -0.4429
10752TIP3    H153747   0.080   0.472  13.379 -0.7329 -0.1246  0.0871
10752TIP3    H253748   0.214   0.542  13.378 -0.1600 -0.9806  3.2814
10753TIP3   OH253749   5.539   6.328  10.314  0.0264  0.4085 -0.1487
10753TIP3    H153750   5.469   6.271  10.281 -0.2131  1.1661 -0.9820
10753TIP3    H253751   5.502   6.416  10.309  0.9378  0.7836 -0.3311
10754TIP3   OH253752   4.795   6.094   0.368 -0.5487  0.4566  0.3267
10754TIP3    H153753   4.729   6.162   0.382 -0.2130  1.1968 -1.4447
10754TIP3    H253754   4.854   6.103   0.443 -1.3224  1.1470  0.8718
10755TIP3   OH253755   6.039   0.122  16.555 -0.0726  0.1407  0.3463
10755TIP3    H153756   6.073   0.032  16.561 -1.7933 -0.7239 -1.8256
10755TIP3    H253757   5.986   0.132  16.634 -0.0519 -0.8171  0.5020
10756TIP3   OH253758   1.525   5.540   3.389 -0.2802  0.3479 -0.0210
10756TIP3    H153759   1.534   5.528   3.484 -1.0374  2.2977  0.3544
10756TIP3    H253760   1.448   5.488   3.366  0.5332 -1.0090  0.2039
10757TIP3   OH253761   0.399   2.782  13.194  0.1879  0.0586 -0.6587
10757TIP3    H153762   0.486   2.821  13.201  0.0129  0.6389 -1.5036
10757TIP3    H253763   0.361   2.792  13.281  0.1116  1.9097 -0.8688
10758TIP3   OH253764   5.528   2.417  16.829 -0.3491 -0.1572  0.3802
10758TIP3    H153765   5.590   2.484  16.799 -0.8887 -0.2792 -1.0862
10758TIP3    H253766   5.513   2.363  16.752 -1.6196 -0.6415  0.9515
10759TIP3   OH253767   6.741   0.623  16.421  0.6563 -0.1222  0.4047
10759TIP3    H153768   6.813   0.638  16.358 -0.3346 -0.1886 -0.7780
10759TIP3    H253769   6.664   0.659  16.377 -0.2543 -1.1313  1.1554
10760TIP3   OH253770   5.816   6.347  14.688 -0.2183  0.0925 -0.1662
10760TIP3    H153771   5.866   6.268  14.666 -0.0005  0.6734 -1.9128
10760TIP3    H253772   5.728   6.315  14.706  0.1154 -0.6561  0.1580
10761TIP3   OH253773   3.566   3.306   0.933  0.4196  0.1267 -0.6176
10761TIP3    H153774   3.526   3.353   0.860 -0.1214  0.5381 -0.0676
10761TIP3    H253775   3.645   3.357   0.953  0.4715  0.1170 -0.7966
10762TIP3   OH253776   6.577   2.089  10.553  0.2161  0.0735 -0.3268
10762TIP3    H153777   6.521   2.026  10.508  0.1470 -0.1378  0.0577
10762TIP3    H253778   6.602   2.046  10.635  0.9737  0.1489 -0.5087
10763TIP3   OH253779   3.992   0.716  11.695  0.0157 -0.1138  0.0826
10763TIP3    H153780   3.946   0.769  11.630  0.3374  0.4439  0.2979
10763TIP3    H253781   3.923   0.662  11.735 -0.5076  0.8910  0.5801
10764TIP3   OH253782   6.190   1.688  15.259 -0.2255 -0.3045 -0.2103
10764TIP3    H153783   6.227   1.679  15.347  0.1195 -2.8862 -0.5455
10764TIP3    H253784   6.250   1.640  15.203 -1.3458 -0.1412 -1.5964
10765TIP3   OH253785   0.239   6.462   1.511 -0.1940 -0.1321 -0.5065
10765TIP3    H153786   0.205   6.510   1.586  1.1470  0.2490 -0.1276
10765TIP3    H253787   0.178   6.483   1.440 -0.2747  1.2261 -0.0671
10766TIP3   OH253788   4.556   3.248   5.602 -0.1404  0.2200  0.2215
10766TIP3    H153789   4.589   3.219   5.516  1.2872 -1.4081  1.2546
10766TIP3    H253790   4.473   3.291   5.582 -0.0710 -0.5172 -1.9491
10767TIP3   OH253791   6.469   5.120   3.882 -0.3649 -0.1267  0.5632
10767TIP3    H153792   6.476   5.199   3.937  0.8119 -0.6027  1.1354
10767TIP3    H253793   6.485   5.048   3.943  0.1132 -0.7172 -0.2463
10768TIP3   OH253794   4.223   2.870   0.670 -0.0565 -0.2475 -0.0562
10768TIP3    H153795   4.136   2.843   0.700  0.3434 -0.0767  1.3283
10768TIP3    H253796   4.207   2.949   0.618 -0.6710  0.2455  0.8496
10769TIP3   OH253797   4.753   5.631  11.244  0.2926  0.1636 -1.0137
10769TIP3    H153798   4.749   5.603  11.153 -0.0429  0.9267 -1.2375
10769TIP3    H253799   4.713   5.559  11.293  0.7333 -0.3769 -1.4337
10770TIP3   OH253800   2.465   5.313  15.872 -0.3270  0.0100 -0.5712
10770TIP3    H153801   2.482   5.309  15.966 -0.7134  0.3630 -0.4802
10770TIP3    H253802   2.428   5.228  15.850  0.4468 -0.3371 -0.5480
10771TIP3   OH253803   2.442   2.809  16.900 -0.0936  0.1448 -0.1065
10771TIP3    H153804   2.523   2.831  16.946  0.0466  0.4008 -0.4706
10771TIP3    H253805   2.466   2.812  16.808 -0.8859  1.8471 -0.3087
10772TIP3   OH253806   4.845   2.523  15.770  0.1479 -0.1315 -0.2007
10772TIP3    H153807   4.908   2.481  15.828 -1.1553 -0.3752  1.0998
10772TIP3    H253808   4.842   2.614  15.799  1.0254  0.2720 -1.2948
10773TIP3   OH253809   5.429   5.315   2.797  0.7457 -0.1305 -0.6005
10773TIP3    H153810   5.373   5.244   2.827 -0.1671  0.9855  0.4809
10773TIP3    H253811   5.385   5.349   2.719  1.3565 -0.9276 -1.3121
10774TIP3   OH253812   6.031   5.768  16.746  0.2605 -0.2863 -0.2415
10774TIP3    H153813   6.064   5.731  16.828  0.1642  0.3030  0.0668
10774TIP3    H253814   5.991   5.694  16.700  1.2482 -0.8364 -0.2360
10775TIP3   OH253815   3.853   2.779  15.915  0.2456 -0.1140  0.2316
10775TIP3    H153816   3.793   2.841  15.872 -0.9609 -1.4247 -0.0536
10775TIP3    H253817   3.863   2.708  15.851  0.2783 -0.9956  1.1947
10776TIP3   OH253818   6.321   2.053   4.430 -0.2212  0.3273  0.0593
10776TIP3    H153819   6.324   2.143   4.396  0.3584  0.8416  1.4064
10776TIP3    H253820   6.285   2.062   4.518 -1.2402 -0.9208 -0.2044
10777TIP3   OH253821   2.784   0.943  13.643 -0.2291  0.4274 -0.5162
10777TIP3    H153822   2.730   0.923  13.720  0.4028 -0.4843 -0.2897
10777TIP3    H253823   2.721   0.959  13.573 -0.8023  0.1229 -0.0802
10778TIP3   OH253824   3.204   6.296  17.130 -1.2438  0.1003 -0.0842
10778TIP3    H153825   3.117   6.302  17.091 -0.9112  0.6293 -0.7711
10778TIP3    H253826   3.198   6.346  17.211 -1.7481 -0.4136  0.2038
10779TIP3   OH253827   5.885   3.580   1.807  0.5751  0.6306 -0.0061
10779TIP3    H153828   5.942   3.512   1.845 -0.5303  0.1868  0.9096
10779TIP3    H253829   5.894   3.568   1.713 -0.3805 -1.4995  0.1180
10780TIP3   OH253830   0.310   3.370  13.289  0.1957 -0.0962 -0.2245
10780TIP3    H153831   0.225   3.383  13.248 -0.7015 -1.0449  1.2334
10780TIP3    H253832   0.304   3.284  13.331  0.3890  1.4036  3.2263
10781TIP3   OH253833   2.461   0.951   4.133  0.8139  0.0730  0.2081
10781TIP3    H153834   2.489   1.042   4.126 -0.4705  0.4737  0.0156
10781TIP3    H253835   2.542   0.900   4.122  1.2689  1.1222 -2.0183
10782TIP3   OH253836   3.939   4.190   1.267 -0.4063  0.6327  0.1674
10782TIP3    H153837   3.995   4.216   1.340  0.0061  0.6089 -0.1388
10782TIP3    H253838   3.854   4.230   1.287 -1.2313 -1.8804  2.2451
10783TIP3   OH253839   6.027   2.042  13.028  0.1985 -0.3343  0.5275
10783TIP3    H153840   6.056   1.950  13.031 -3.0080 -1.5602 -1.1522
10783TIP3    H253841   5.932   2.038  13.041 -0.0262  2.8050  0.6364
10784TIP3   OH253842   1.501   4.830  12.842 -0.1098  0.2949 -0.2660
10784TIP3    H153843   1.428   4.891  12.832  0.2756  1.0424  1.1930
10784TIP3    H253844   1.537   4.849  12.929  0.3845 -1.6430  0.0050
10785TIP3   OH253845   5.190   1.813  16.287 -0.0409  0.5770  0.1536
10785TIP3    H153846   5.152   1.727  16.307 -0.6139  0.9310  0.6490
10785TIP3    H253847   5.277   1.810  16.326  0.2563 -0.0602 -0.5335
10786TIP3   OH253848   2.857   1.416  11.907  0.5097 -0.2956 -0.0927
10786TIP3    H153849   2.946   1.386  11.927  0.6820  0.5889  0.5093
10786TIP3    H253850   2.808   1.402  11.988  0.8851  2.1063  0.6234
10787TIP3   OH253851   1.707   6.291   2.084  0.2052  0.1805 -0.5471
10787TIP3    H153852   1.797   6.322   2.082 -0.2171  1.4889 -0.1053
10787TIP3    H253853   1.710   6.212   2.138  1.3597 -0.8104 -1.9986
10788TIP3   OH253854   0.485   2.617   0.141  0.4110 -0.2959 -0.4345
10788TIP3    H153855   0.541   2.633   0.217  0.4039 -0.2366 -0.4414
10788TIP3    H253856   0.425   2.548   0.170 -0.3571  0.5399  0.0187
10789TIP3   OH253857   1.747   0.504   4.217  0.2480 -0.2912 -0.2681
10789TIP3    H153858   1.678   0.571   4.210  0.5477  0.0347 -0.1673
10789TIP3    H253859   1.811   0.527   4.150  0.4521 -0.3548 -0.1005
10790TIP3   OH253860   5.285   5.710   0.477 -0.5151 -0.2031 -0.2835
10790TIP3    H153861   5.315   5.801   0.474  1.5315 -0.8331 -0.2225
10790TIP3    H253862   5.282   5.683   0.385 -1.6291  0.0349 -0.3417
10791TIP3   OH253863   2.227   2.717   2.517 -0.5904  0.5475  0.0219
10791TIP3    H153864   2.157   2.779   2.539 -1.7733 -0.5453 -0.4822
10791TIP3    H253865   2.194   2.633   2.550  0.7472  0.0947  0.2423
10792TIP3   OH253866   6.506   5.689  15.141  0.3536 -0.3706 -0.1625
10792TIP3    H153867   6.542   5.658  15.224  0.3356  0.0440  0.0039
10792TIP3    H253868   6.421   5.727  15.164  0.2087 -0.5356 -0.4182
10793TIP3   OH253869   2.581   6.722  17.093 -0.5056  0.3608  0.0200
10793TIP3    H153870   2.621   6.796  17.139  1.4155 -0.2521 -0.5509
10793TIP3    H253871   2.628   6.646  17.125 -0.8936 -0.3627 -1.0686
10794TIP3   OH253872   2.907   4.633  12.867 -0.8448 -0.5732 -0.2284
10794TIP3    H153873   2.830   4.581  12.888 -0.5484 -0.4680  1.2301
10794TIP3    H253874   2.952   4.645  12.951  0.8215 -0.7258 -1.0455
10795TIP3   OH253875   0.325   6.054   5.369 -0.4627  0.4531 -0.3000
10795TIP3    H153876   0.296   6.035   5.280 -1.3172 -0.3509  0.1294
10795TIP3    H253877   0.421   6.048   5.365 -0.5416 -0.6567 -0.9372
10796TIP3   OH253878   5.402   4.313   4.458  0.2569 -0.2393 -0.0636
10796TIP3    H153879   5.309   4.321   4.480  0.6703 -0.9315  2.2204
10796TIP3    H253880   5.445   4.380   4.512  1.1869 -0.6759 -0.2376
10797TIP3   OH253881   3.409   5.513   6.424  0.5573  0.3167  0.2078
10797TIP3    H153882   3.339   5.499   6.361  1.4420 -3.5309 -0.1479
10797TIP3    H253883   3.387   5.456   6.498  2.5742  0.0823  0.6906
10798TIP3   OH253884   6.480   3.731  13.682  0.5325  0.2400 -0.3834
10798TIP3    H153885   6.527   3.771  13.755  0.4834  0.1141 -0.2821
10798TIP3    H253886   6.545   3.727  13.611  1.3757 -1.9105  0.4059
10799TIP3   OH253887   1.346   0.621  14.700 -0.2557 -0.2212  0.4285
10799TIP3    H153888   1.423   0.613  14.644  0.2245  0.5955  0.9581
10799TIP3    H253889   1.341   0.714  14.722  0.2858 -0.6666  2.7164
10800TIP3   OH253890   5.071   1.258   4.618 -0.6278  0.3764  0.2426
10800TIP3    H153891   5.033   1.227   4.537  1.1830 -0.8991 -0.1829
10800TIP3    H253892   4.997   1.289   4.670 -1.8528  0.8921 -1.7238
10801TIP3   OH253893   6.314   1.351  16.051  0.0665 -0.6247 -0.3153
10801TIP3    H153894   6.301   1.413  15.979  0.9548 -1.5863 -1.3432
10801TIP3    H253895   6.397   1.378  16.092  0.8416 -1.5205 -1.2267
10802TIP3   OH253896   3.504   5.939  13.668 -0.6394  0.0898 -0.1234
10802TIP3    H153897   3.425   5.984  13.697  0.2725  0.9949  1.0133
10802TIP3    H253898   3.561   6.008  13.634  0.7447 -0.1373  1.5685
10803TIP3   OH253899   2.962   0.519   1.221  0.3995 -0.4324 -0.0368
10803TIP3    H153900   3.033   0.556   1.273 -0.1484  0.9102 -0.2144
10803TIP3    H253901   2.988   0.427   1.208  0.5808 -0.8023  2.5150
10804TIP3   OH253902   0.516   4.545   2.100 -0.1400 -0.3880  0.2826
10804TIP3    H153903   0.554   4.631   2.118  0.1845 -0.7868  1.6770
10804TIP3    H253904   0.468   4.556   2.018  0.5034  0.9212  0.0540
10805TIP3   OH253905   6.240   6.114  15.522 -0.0074 -0.2779 -0.2139
10805TIP3    H153906   6.182   6.149  15.454  1.7783 -0.8576 -2.1549
10805TIP3    H253907   6.257   6.024  15.495  0.2242 -0.7404  1.3929
10806TIP3   OH253908   2.223   1.691   3.653  0.3651  0.6953 -0.2638
10806TIP3    H153909   2.141   1.642   3.643 -1.3091  3.2648 -0.1837
10806TIP3    H253910   2.248   1.715   3.564  2.2690 -1.7271 -0.5133
10807TIP3   OH253911   6.571   2.909  14.086 -0.7218 -0.0517 -0.2171
10807TIP3    H153912   6.529   2.824  14.093 -1.2718  0.2280 -0.0976
10807TIP3    H253913   6.506   2.972  14.118 -1.4124  0.7400 -2.9496
10808TIP3   OH253914   3.974   3.685   4.657  0.2429 -0.1650  0.3201
10808TIP3    H153915   3.991   3.689   4.751  1.1518  1.3902  0.1291
10808TIP3    H253916   4.054   3.650   4.619 -0.2822 -1.2151  0.1339
10809TIP3   OH253917   1.485   6.532   0.501 -0.1241  0.1957  0.5704
10809TIP3    H153918   1.507   6.620   0.469 -0.9141  0.1686 -0.0693
10809TIP3    H253919   1.465   6.545   0.594 -3.6886  1.3892 -0.1850
10810TIP3   OH253920   4.921   0.403   5.637  0.3931  0.0553 -0.0573
10810TIP3    H153921   4.858   0.463   5.597 -3.4942 -2.2726  1.9565
10810TIP3    H253922   4.903   0.319   5.595  0.0505 -1.2707  2.5539
10811TIP3   OH253923   6.199   0.759   6.404  0.3364 -0.9513 -0.2608
10811TIP3    H153924   6.254   0.723   6.474 -0.2307  1.7703  1.7349
10811TIP3    H253925   6.261   0.804   6.346  0.6499 -1.9113 -0.6926
10812TIP3   OH253926   1.196   3.569   4.391 -0.0700  0.5313  0.7134
10812TIP3    H153927   1.289   3.546   4.392 -0.7016 -2.5962 -0.3433
10812TIP3    H253928   1.153   3.496   4.437 -2.0275  1.8660  1.1335
10813TIP3   OH253929   2.276   3.278  14.504 -0.3982  0.4736 -0.0671
10813TIP3    H153930   2.245   3.290  14.594 -0.9948 -1.6728  0.0704
10813TIP3    H253931   2.352   3.336  14.497 -1.4812  2.1332  1.1734
10814TIP3   OH253932   1.885   4.142  16.162  0.2991  0.0235  0.5629
10814TIP3    H153933   1.815   4.077  16.169 -1.1408  1.3081 -1.1641
10814TIP3    H253934   1.901   4.149  16.068  1.3033  1.2917  0.8094
10815TIP3   OH253935   6.372   6.645  11.966  0.5847  0.6410 -0.0839
10815TIP3    H153936   6.302   6.679  12.022  0.3926  0.4571 -0.2078
10815TIP3    H253937   6.344   6.668  11.877  0.1546 -0.3352 -0.2231
10816TIP3   OH253938   0.375   2.943   5.660  0.5432 -0.0885 -0.1173
10816TIP3    H153939   0.386   3.035   5.636  0.2689  0.6128  2.1789
10816TIP3    H253940   0.346   2.945   5.752 -0.8296 -2.4223 -0.4101
10817TIP3   OH253941   6.647   2.670   0.816 -0.5337  0.3971 -0.3172
10817TIP3    H153942   6.570   2.723   0.836 -1.1923 -0.6467 -0.0668
10817TIP3    H253943   6.615   2.581   0.808  0.7355 -0.1567  0.4206
10818TIP3   OH253944   6.610   6.765   0.196  0.1367 -0.5916  0.4782
10818TIP3    H153945   6.590   6.681   0.236 -2.7877 -0.4165 -0.4244
10818TIP3    H253946   6.557   6.828   0.246  1.6845  0.6417  0.6385
10819TIP3   OH253947   4.169   6.089   6.047 -0.6038  0.1047 -0.6093
10819TIP3    H153948   4.264   6.078   6.047 -0.4894  1.0385 -0.5568
10819TIP3    H253949   4.140   6.048   5.965 -0.0118  0.9262 -1.2467
10820TIP3   OH253950   4.904   0.603   0.134 -0.2194  0.1051  0.4260
10820TIP3    H153951   4.906   0.694   0.102  2.1769 -0.3924 -1.0701
10820TIP3    H253952   4.885   0.612   0.228  0.8644  2.2359  0.5161
10821TIP3   OH253953   1.568   2.139   5.000 -0.4910 -0.4645 -0.1521
10821TIP3    H153954   1.492   2.185   5.035  1.2184  3.5664 -1.1799
10821TIP3    H253955   1.616   2.109   5.077 -1.7317 -0.6637  0.5639
10822TIP3   OH253956   4.473   1.801   2.879 -0.3205 -0.3883 -0.1491
10822TIP3    H153957   4.410   1.796   2.951 -0.7258  0.2562 -0.4462
10822TIP3    H253958   4.502   1.711   2.866 -0.1982 -0.4975  0.8594
10823TIP3   OH253959   1.736   1.934  15.008 -0.2344  0.0710  0.3401
10823TIP3    H153960   1.720   1.869  14.940  0.2821 -0.4298  0.6929
10823TIP3    H253961   1.653   1.938  15.057  0.0066 -0.9824  0.8673
10824TIP3   OH253962   5.228   0.276   3.968 -0.0227  0.2056 -0.2318
10824TIP3    H153963   5.319   0.249   3.981  0.3678  0.5795 -1.8571
10824TIP3    H253964   5.191   0.280   4.055  1.0055 -1.7497  0.3561
10825TIP3   OH253965   4.262   4.838  16.468  0.2239 -0.0535  0.0158
10825TIP3    H153966   4.226   4.786  16.539  0.7332  0.3251  0.5604
10825TIP3    H253967   4.190   4.894  16.440  0.0562 -0.1159  0.3170
10826TIP3   OH253968   2.230   1.787   2.214  0.3623 -0.5940 -0.3799
10826TIP3    H153969   2.151   1.796   2.160  0.5380  0.3966 -0.4906
10826TIP3    H253970   2.301   1.776   2.150  0.4200 -0.6472 -0.3066
10827TIP3   OH253971   4.791   6.258  16.746 -0.2340 -0.6250  0.1143
10827TIP3    H153972   4.870   6.213  16.777 -0.4558 -1.7777 -0.9233
10827TIP3    H253973   4.752   6.198  16.683 -2.2610 -0.3246  0.9956
10828TIP3   OH253974   3.559   1.986  11.350  0.3628  0.5381  0.1172
10828TIP3    H153975   3.486   2.040  11.317 -1.4095 -1.3673  0.7009
10828TIP3    H253976   3.539   1.898  11.318  3.5814  0.2603 -1.4765
10829TIP3   OH253977   0.672   1.667  13.229 -0.0677 -0.0258  0.4461
10829TIP3    H153978   0.592   1.618  13.213  0.2952 -0.3061 -0.6404
10829TIP3    H253979   0.700   1.641  13.316 -0.6866 -0.6005  0.4768
10830TIP3   OH253980   6.507   5.426  11.001  0.9860 -0.1906  0.3964
10830TIP3    H153981   6.430   5.435  10.944  1.3368  1.7286  0.1445
10830TIP3    H253982   6.529   5.516  11.025  2.2723 -0.8124  1.6680
10831TIP3   OH253983   0.535   5.530   4.632  0.3050  0.2313  0.6038
10831TIP3    H153984   0.549   5.601   4.695 -1.1891  0.7913  0.3647
10831TIP3    H253985   0.546   5.450   4.683  2.1000  0.6004  0.8609
10832TIP3   OH253986   5.941   1.434   4.764  0.3312  0.6753  0.2739
10832TIP3    H153987   5.924   1.527   4.754  1.0886  0.7697 -0.1850
10832TIP3    H253988   5.900   1.411   4.848 -0.8297  1.1682 -0.1371
10833TIP3   OH253989   0.408   2.671  12.613  0.4896 -0.1944  0.3996
10833TIP3    H153990   0.400   2.758  12.653  2.3413 -0.4556  1.4528
10833TIP3    H253991   0.386   2.684  12.521  1.5899  1.5830  0.3489
10834TIP3   OH253992   1.895   2.388   2.058  0.3970  0.3778  0.6806
10834TIP3    H153993   1.816   2.442   2.051 -0.7633 -1.4077 -1.6654
10834TIP3    H253994   1.891   2.351   2.146 -0.4970  1.5952  1.1738
10835TIP3   OH253995   0.650   5.045  12.318 -0.5600 -0.1979  0.7716
10835TIP3    H153996   0.739   5.042  12.283 -1.1099  1.7676 -0.9901
10835TIP3    H253997   0.637   5.137  12.341 -2.3761 -0.2998  0.2625
10836TIP3   OH253998   5.819   2.379  13.756 -0.0070 -0.1213  0.0227
10836TIP3    H153999   5.736   2.345  13.791 -0.3783  0.2842 -0.4343
10836TIP3    H254000   5.794   2.419  13.672  0.9434 -1.5863 -0.9905
10837TIP3   OH254001   3.111   6.476  12.547 -0.7343 -0.2011 -0.7620
10837TIP3    H154002   3.098   6.382  12.537  0.3250 -0.3753 -0.5319
10837TIP3    H254003   3.165   6.485  12.626  1.3315  0.4260 -2.1787
10838TIP3   OH254004   5.867   0.710  15.466  0.4345  0.2930 -1.0428
10838TIP3    H154005   5.827   0.712  15.379 -1.4229 -4.0475 -0.5514
10838TIP3    H254006   5.799   0.745  15.524 -0.3795 -1.3614 -0.9160
10839TIP3   OH254007   5.244   5.837   3.663  0.4224  0.2394 -0.6597
10839TIP3    H154008   5.237   5.769   3.596 -1.7531  0.0277 -0.3100
10839TIP3    H254009   5.205   5.914   3.622  0.2119  0.4555 -0.0655
10840TIP3   OH254010   1.065   1.519   1.599  0.3821  0.4956  0.1651
10840TIP3    H154011   1.137   1.461   1.622 -0.6219 -1.3455 -1.1074
10840TIP3    H254012   0.994   1.495   1.660  0.3025  1.1653  0.3470
10841TIP3   OH254013   4.716   2.495  11.699 -0.2328 -0.1648  0.1668
10841TIP3    H154014   4.710   2.484  11.794  0.8787  1.9246  0.5499
10841TIP3    H254015   4.772   2.423  11.670  0.1585 -0.3201  1.2540
10842TIP3   OH254016   4.425   1.402   1.595  0.3797  0.3927  0.2329
10842TIP3    H154017   4.442   1.496   1.588  2.1184  0.0584 -0.5609
10842TIP3    H254018   4.484   1.362   1.531  1.0809 -1.3795  1.8901
10843TIP3   OH254019   5.752   3.747   2.730 -0.0950 -0.4362 -0.2497
10843TIP3    H154020   5.721   3.711   2.647 -0.7626 -0.1677 -0.1247
10843TIP3    H254021   5.847   3.746   2.723 -0.1433 -0.6370 -0.9220
10844TIP3   OH254022   0.506   1.878   5.243 -0.3692  0.2181  0.0615
10844TIP3    H154023   0.497   1.821   5.320  0.3834 -0.2484 -0.1810
10844TIP3    H254024   0.444   1.949   5.258 -0.4498 -0.0287  0.9614
10845TIP3   OH254025   1.932   1.383   3.464 -0.1172 -0.3681  0.5413
10845TIP3    H154026   1.904   1.473   3.446 -0.9772 -1.0493 -1.9493
10845TIP3    H254027   2.025   1.390   3.483  0.2598  0.9138 -1.4510
10846TIP3   OH254028   3.455   2.077  16.486 -0.1836  0.1188 -0.2767
10846TIP3    H154029   3.426   2.006  16.429 -0.2167 -0.6891  0.7287
10846TIP3    H254030   3.548   2.086  16.466  0.5056 -2.1172  1.5241
10847TIP3   OH254031   4.759   3.825   2.705 -0.0882  0.6602 -0.2956
10847TIP3    H154032   4.825   3.883   2.744  0.6700 -0.3962  0.0640
10847TIP3    H254033   4.699   3.805   2.777  2.2363 -2.6214  0.9861
10848TIP3   OH254034   2.029   1.171   2.095 -0.1016  0.1041 -0.5597
10848TIP3    H154035   2.041   1.254   2.142  0.2808 -0.6132  0.6553
10848TIP3    H254036   2.051   1.191   2.004  0.0828  1.3045 -0.2675
10849TIP3   OH254037   3.705   2.799  12.241  0.0819 -0.6702  0.6113
10849TIP3    H154038   3.678   2.864  12.176 -0.9625 -1.4924  0.1917
10849TIP3    H254039   3.786   2.762  12.204  1.3654  1.1614  1.4257
10850TIP3   OH254040   4.901   5.339  11.118  0.3811 -0.4323  0.3317
10850TIP3    H154041   4.883   5.419  11.069  0.3443 -0.4198  0.3660
10850TIP3    H254042   4.882   5.268  11.056 -0.7860 -0.4530  0.6884
10851TIP3   OH254043   3.106   1.896   1.916  0.1091  0.3741 -0.3057
10851TIP3    H154044   3.114   1.943   1.833 -1.2563  1.1784 -0.0070
10851TIP3    H254045   3.177   1.931   1.970  0.4601  0.4886 -0.8381
10852TIP3   OH254046   2.311   2.195  15.644 -0.7904 -0.1104  0.2723
10852TIP3    H154047   2.263   2.130  15.695 -2.1011  0.4627 -0.1832
10852TIP3    H254048   2.308   2.275  15.697 -1.5131  0.2846 -0.3422
10853TIP3   OH254049   6.729   5.486  12.356  0.4395  0.1734 -0.7051
10853TIP3    H154050   6.813   5.442  12.343 -0.6828 -2.3972  0.0829
10853TIP3    H254051   6.709   5.525  12.271  1.0978 -1.6891 -1.7680
10854TIP3   OH254052   0.755   6.555  11.440 -0.3995  0.4605  0.1192
10854TIP3    H154053   0.678   6.523  11.486 -0.7100  0.5774 -0.3109
10854TIP3    H254054   0.819   6.571  11.509 -0.5929 -0.0925  0.4333
10855TIP3   OH254055   6.257   3.263  13.478 -0.0062  0.2002 -0.0286
10855TIP3    H154056   6.237   3.348  13.437  1.1410  1.0039  0.9917
10855TIP3    H254057   6.284   3.208  13.405 -1.1067  0.5830 -0.7601
10856TIP3   OH254058   2.763   4.249  16.159  0.1857  0.2605 -0.2843
10856TIP3    H154059   2.761   4.272  16.251 -2.3740  0.2255 -0.2468
10856TIP3    H254060   2.784   4.155  16.158  1.7006  0.5681  0.1224
10857TIP3   OH254061   0.107   4.264  14.942  0.2316 -0.3211  0.0207
10857TIP3    H154062   0.088   4.336  14.881  0.1260  0.8162  1.3436
10857TIP3    H254063   0.081   4.185  14.895 -1.6170  0.6529 -0.7074
10858TIP3   OH254064   3.200   1.082  10.203 -0.3688  0.1951  0.1423
10858TIP3    H154065   3.203   1.149  10.271 -0.6596 -0.7807  1.1608
10858TIP3    H254066   3.280   1.032  10.214 -0.5909 -0.1982  0.0078
10859TIP3   OH254067   1.003   1.784   1.870  0.5142  0.8480  0.0854
10859TIP3    H154068   1.065   1.776   1.942  1.7124  0.9696 -0.8963
10859TIP3    H254069   1.021   1.870   1.832  0.1853  0.6204 -0.6044
10860TIP3   OH254070   0.638   2.622  13.472  0.4685  0.1758 -0.1835
10860TIP3    H154071   0.558   2.571  13.465 -0.6051  2.0026 -2.7072
10860TIP3    H254072   0.708   2.561  13.448 -0.0427 -1.4639  2.1407
10861TIP3   OH254073   4.347   5.186   0.332  0.6727 -0.2486 -0.3951
10861TIP3    H154074   4.368   5.194   0.425 -1.2339 -1.7486  0.2425
10861TIP3    H254075   4.414   5.237   0.288  1.7106  0.4141  1.7896
10862TIP3   OH254076   5.137   4.435   0.147  0.2110 -0.0636 -0.0482
10862TIP3    H154077   5.069   4.468   0.206 -1.0453 -2.5995  0.0793
10862TIP3    H254078   5.193   4.380   0.202 -0.2813 -1.5155 -0.9336
10863TIP3   OH254079   6.732   3.259  12.118 -0.4606  0.3615 -0.6680
10863TIP3    H154080   6.687   3.327  12.168 -0.9649  0.0449 -0.6873
10863TIP3    H254081   6.721   3.286  12.026 -0.0488  0.6240 -0.6458
10864TIP3   OH254082   2.877   1.955  14.964  0.4353 -0.4853  0.6407
10864TIP3    H154083   2.820   1.939  14.890  2.6365 -0.9276 -1.0762
10864TIP3    H254084   2.821   1.996  15.030 -1.7753 -0.8234 -0.9383
10865TIP3   OH254085   2.472   0.979  11.977  0.1009 -0.4421 -0.8090
10865TIP3    H154086   2.452   1.039  11.905  2.0391  0.2580 -0.8447
10865TIP3    H254087   2.543   1.023  12.025  1.8091 -2.7871 -0.9870
10866TIP3   OH254088   3.610   0.182  13.189 -0.2486  0.2747 -0.2127
10866TIP3    H154089   3.627   0.160  13.281  0.6174  0.9024 -0.2167
10866TIP3    H254090   3.691   0.222  13.158 -0.7669  0.6857 -1.0643
10867TIP3   OH254091   5.360   4.263   4.826 -0.0530 -0.3060  0.5481
10867TIP3    H154092   5.303   4.331   4.862 -0.7649  0.1665 -1.3138
10867TIP3    H254093   5.344   4.266   4.731  0.8492 -2.2185  0.2734
10868TIP3   OH254094   0.824   5.635   2.733 -0.0219 -0.5986 -0.7656
10868TIP3    H154095   0.788   5.559   2.689  1.6067 -1.8424 -0.0595
10868TIP3    H254096   0.913   5.610   2.757  0.6069  1.5574 -0.5545
10869TIP3   OH254097   2.103   6.170   1.737  0.6937 -0.7097 -0.1638
10869TIP3    H154098   2.157   6.214   1.802 -0.1079  0.1480 -0.0647
10869TIP3    H254099   2.053   6.240   1.695 -2.0737 -1.6269  1.3394
10870TIP3   OH254100   1.418   3.730   6.301  0.5002  0.3880 -0.4944
10870TIP3    H154101   1.473   3.737   6.223  0.4303 -0.4003 -0.6247
10870TIP3    H254102   1.356   3.803   6.293  0.5850  0.3993 -1.1028
10871TIP3   OH254103   3.632   6.027   0.220 -0.3613 -0.5919 -0.2314
10871TIP3    H154104   3.538   6.032   0.202 -0.7068 -1.4153  1.1552
10871TIP3    H254105   3.670   5.991   0.139 -1.2732 -0.5263 -0.7023
10872TIP3   OH254106   1.150   3.815   0.004  0.7409  0.3648 -0.5141
10872TIP3    H154107   1.149   3.773   0.089 -2.4516  1.4492  0.1135
10872TIP3    H254108   1.110   3.751  -0.055  0.2458  0.7020 -0.5523
10873TIP3   OH254109   4.065   0.347  16.182  0.7811 -0.0660  0.8051
10873TIP3    H154110   4.118   0.405  16.126 -0.3816  0.5953  0.3526
10873TIP3    H254111   4.031   0.280  16.121  0.0002  0.3075  0.8178
10874TIP3   OH254112   6.243   0.475   0.592 -0.1661  0.2910  0.6521
10874TIP3    H154113   6.282   0.538   0.531 -0.8107  0.3724  0.3098
10874TIP3    H254114   6.164   0.444   0.547 -0.8602  0.6308  1.6030
10875TIP3   OH254115   4.554   6.392   2.943  0.0887  0.5369 -0.1835
10875TIP3    H154116   4.511   6.329   2.885 -0.4320  0.1849  0.5768
10875TIP3    H254117   4.493   6.466   2.948  0.3005  0.7308 -0.3576
10876TIP3   OH254118   2.864   2.670   4.367  0.6163  0.2471 -0.1213
10876TIP3    H154119   2.826   2.709   4.446 -1.9013 -0.2443 -1.0043
10876TIP3    H254120   2.799   2.606   4.339  2.0592 -0.5120 -1.8808
10877TIP3   OH254121   3.095   3.857  11.628  0.5956 -0.0609 -0.0681
10877TIP3    H154122   3.072   3.918  11.699 -2.1023  0.8710 -1.5889
10877TIP3    H254123   3.048   3.777  11.650 -0.6106  0.3770 -0.9773
10878TIP3   OH254124   1.739   6.199  11.239  0.3539  0.0252  0.8995
10878TIP3    H154125   1.778   6.124  11.194 -0.9061  0.1099 -0.4018
10878TIP3    H254126   1.747   6.271  11.177 -0.7150  0.3381  1.1037
10879TIP3   OH254127   4.645   6.407  16.930 -0.0911 -0.7980  0.3394
10879TIP3    H154128   4.725   6.458  16.917 -0.0173 -1.1678 -0.7552
10879TIP3    H254129   4.672   6.317  16.912 -1.1949 -0.6963 -2.0638
10880TIP3   OH254130   5.522   2.591   6.403 -0.0003  0.4810  0.1597
10880TIP3    H154131   5.479   2.509   6.428 -0.5657  0.7272  0.0185
10880TIP3    H254132   5.479   2.658   6.458 -0.5255  0.8778 -0.7077
10881TIP3   OH254133   6.569   2.896   1.415  0.7963 -0.0132 -0.2669
10881TIP3    H154134   6.653   2.915   1.455  1.1680 -0.4607 -0.8099
10881TIP3    H254135   6.567   2.949   1.335  0.2393  0.5665  0.1244
10882TIP3   OH254136   1.302   1.942  12.750  0.2552  0.7276 -0.3689
10882TIP3    H154137   1.378   1.923  12.696  1.3505  1.7353  0.7614
10882TIP3    H254138   1.323   1.903  12.835 -1.5327 -1.0279 -0.6407
10883TIP3   OH254139   1.816   2.883  14.273  0.4232  0.1956  0.3864
10883TIP3    H154140   1.909   2.869  14.258  1.0936  2.2909  2.1223
10883TIP3    H254141   1.793   2.821  14.342  0.8362  0.5243  0.8208
10884TIP3   OH254142   1.301   3.816   4.639 -0.3994 -0.0732 -0.2205
10884TIP3    H154143   1.312   3.723   4.654  0.2349  0.3804  2.9115
10884TIP3    H254144   1.390   3.851   4.639 -0.6152  0.5406 -1.6098
10885TIP3   OH254145   3.994   0.769  12.915 -0.2437  0.0541  0.7198
10885TIP3    H154146   3.915   0.715  12.921  0.5302 -1.0334  1.5542
10885TIP3    H254147   3.966   0.857  12.938 -1.5868  0.0810 -0.8522
10886TIP3   OH254148   1.420   3.495   3.182 -0.4026 -0.3930 -0.1478
10886TIP3    H154149   1.459   3.442   3.112 -0.0594 -1.1221  0.5689
10886TIP3    H254150   1.455   3.457   3.263 -0.3978  0.7501  0.4048
10887TIP3   OH254151   6.777   4.012   1.242 -0.0676  0.2453 -0.5598
10887TIP3    H154152   6.839   4.085   1.242  0.8410 -0.4098  2.3454
10887TIP3    H254153   6.695   4.051   1.273 -0.4030  0.5544 -1.7721
10888TIP3   OH254154   5.157   4.881  14.076  0.4843 -0.4630 -0.1384
10888TIP3    H154155   5.081   4.934  14.050  2.1325  1.2810 -1.7336
10888TIP3    H254156   5.146   4.870  14.170  0.2441  3.3089  0.4615
10889TIP3   OH254157   0.385   4.232  16.886  0.1303  0.6104  0.1952
10889TIP3    H154158   0.429   4.218  16.970 -0.7488 -1.3397  0.3933
10889TIP3    H254159   0.334   4.312  16.898  0.7834  0.8940  1.1750
10890TIP3   OH254160   1.861   5.134   5.623 -0.1857 -0.4029  0.4961
10890TIP3    H154161   1.892   5.071   5.687 -1.6128  0.0430  1.7087
10890TIP3    H254162   1.776   5.162   5.657  0.1686  1.7802 -0.2528
10891TIP3   OH254163   0.494   3.174   1.698 -0.2156  0.4854 -0.7514
10891TIP3    H154164   0.566   3.112   1.699 -0.3702  0.1543  2.4652
10891TIP3    H254165   0.416   3.121   1.716 -0.7038  1.2775 -0.4470
10892TIP3   OH254166   1.759   3.989   5.183  0.1885  0.3556  0.3033
10892TIP3    H154167   1.689   3.925   5.169 -0.0722  0.4653  1.0572
10892TIP3    H254168   1.782   3.979   5.275 -0.6157  2.1034  0.7351
10893TIP3   OH254169   6.349   0.200  15.062  0.0687 -0.1346 -0.2250
10893TIP3    H154170   6.429   0.170  15.105  0.8327  0.7808 -0.9715
10893TIP3    H254171   6.309   0.260  15.125  0.2753 -0.1262 -0.0998
10894TIP3   OH254172   4.955   2.288  15.243 -0.2349  0.1942  0.2145
10894TIP3    H154173   4.932   2.219  15.305  1.4193  1.4045  2.3036
10894TIP3    H254174   5.017   2.246  15.183 -1.8815 -0.9990 -0.7428
10895TIP3   OH254175   6.386   4.197   4.801 -0.0647  0.3261 -0.2888
10895TIP3    H154176   6.316   4.247   4.761 -0.7983 -0.6462 -0.2552
10895TIP3    H254177   6.342   4.139   4.863  0.9682  1.2054  1.3418
10896TIP3   OH254178   1.286   5.911  11.927 -0.0182 -0.1767  0.0070
10896TIP3    H154179   1.298   5.823  11.890  0.7341 -0.9788  1.9848
10896TIP3    H254180   1.341   5.968  11.873  2.2613 -1.5494  0.7254
10897TIP3   OH254181   2.757   5.140   2.692 -0.1259 -0.1250 -0.0259
10897TIP3    H154182   2.839   5.189   2.691 -0.1896  0.0761  1.8663
10897TIP3    H254183   2.784   5.048   2.690  0.2187 -0.0840  1.6305
10898TIP3   OH254184   3.993   1.843   1.638  0.7668 -0.2478 -0.3306
10898TIP3    H154185   4.012   1.882   1.723 -0.2000 -0.1172 -0.1628
10898TIP3    H254186   3.936   1.768   1.658  0.5667 -0.2405 -0.8581
10899TIP3   OH254187   2.887   3.986   5.014  0.1771  0.0126  0.3791
10899TIP3    H154188   2.931   3.968   5.097 -0.7971 -0.6223  0.7746
10899TIP3    H254189   2.861   3.900   4.981  1.0819  0.2116 -0.8898
10900TIP3   OH254190   1.821   0.624   4.861 -0.3204  0.2001 -0.0131
10900TIP3    H154191   1.753   0.579   4.911 -0.8038  0.3280 -0.5540
10900TIP3    H254192   1.891   0.558   4.852 -0.9930 -0.4411 -0.7400
10901TIP3   OH254193   0.823   4.232  11.796 -0.0916 -0.3670  0.1322
10901TIP3    H154194   0.731   4.250  11.813 -0.1334 -0.7914  0.3762
10901TIP3    H254195   0.822   4.183  11.713  0.1700  2.3824 -1.6198
10902TIP3   OH254196   5.611   3.758  13.314  0.1081 -0.2367 -0.2877
10902TIP3    H154197   5.565   3.680  13.346 -0.8835  0.5597  0.3116
10902TIP3    H254198   5.590   3.826  13.379  3.3231 -0.1419  0.8330
10903TIP3   OH254199   3.961   4.505  15.525 -0.7034  0.2275  0.1776
10903TIP3    H154200   4.044   4.517  15.571 -1.1769 -0.8082  1.3852
10903TIP3    H254201   3.982   4.517  15.433  0.6241  0.7497  0.5297
10904TIP3   OH254202   1.421   2.851   1.886  0.5936 -0.3087 -0.1449
10904TIP3    H154203   1.471   2.880   1.810  1.2118  0.5095  0.5636
10904TIP3    H254204   1.380   2.931   1.920 -2.1665 -1.0723 -1.3463
10905TIP3   OH254205   4.965   6.246  12.585 -0.6006 -0.2701  0.3361
10905TIP3    H154206   4.952   6.340  12.594  0.1129  0.2245 -2.5905
10905TIP3    H254207   5.060   6.235  12.581 -0.6240 -1.3220  1.9993
10906TIP3   OH254208   2.502   4.593  13.395  0.2364  0.0642  0.1021
10906TIP3    H154209   2.557   4.635  13.461  1.7533 -0.8724 -0.5161
10906TIP3    H254210   2.541   4.506  13.383 -0.3327  0.0197 -1.6524
10907TIP3   OH254211   2.268   5.744  15.419 -0.3820 -0.1172 -0.2353
10907TIP3    H154212   2.190   5.719  15.468  0.9569 -0.2189  1.9593
10907TIP3    H254213   2.291   5.666  15.369 -2.3314  0.3011 -1.9420
10908TIP3   OH254214   6.005   4.296  13.257  0.0184  0.0982 -0.0672
10908TIP3    H154215   6.059   4.339  13.324  0.4570 -0.5326 -0.0160
10908TIP3    H254216   5.998   4.361  13.187  0.1521  0.4913  0.2772
10909TIP3   OH254217   5.813   5.171   5.840  0.2359  0.5935 -0.1692
10909TIP3    H154218   5.757   5.094   5.846 -1.4530  1.7861 -0.0437
10909TIP3    H254219   5.801   5.202   5.750  0.3997  1.0757 -0.0291
10910TIP3   OH254220   5.975   1.243   0.109 -0.2543 -0.1581 -0.3671
10910TIP3    H154221   6.002   1.157   0.077 -1.1587 -0.6390  0.1016
10910TIP3    H254222   5.880   1.245   0.095  0.0157  1.6681 -2.4220
10911TIP3   OH254223   2.564   2.944   4.674 -0.0020  0.4133  0.1453
10911TIP3    H154224   2.641   2.901   4.638 -1.1822 -1.1033 -0.7114
10911TIP3    H254225   2.509   2.873   4.705 -1.8264  1.2933 -0.8839
10912TIP3   OH254226   1.776   0.650  16.196  0.0762  0.6671 -0.2266
10912TIP3    H154227   1.723   0.577  16.165  0.3262  1.0626 -1.6851
10912TIP3    H254228   1.738   0.727  16.152  1.4117  1.0456 -0.7849
10913TIP3   OH254229   4.126   0.397   4.926 -0.4931  0.3780  0.2621
10913TIP3    H154230   4.150   0.392   4.833  0.8947  0.8056  0.5698
10913TIP3    H254231   4.210   0.399   4.972 -1.1567  0.9317  1.4933
10914TIP3   OH254232   5.014   4.695  16.422 -0.3829 -0.0709 -0.3528
10914TIP3    H154233   4.983   4.785  16.427 -1.4396 -0.4015 -0.8122
10914TIP3    H254234   5.055   4.688  16.336 -2.5306 -0.6859 -1.3990
10915TIP3   OH254235   0.956   6.780   1.053 -0.0011  0.3430  0.3755
10915TIP3    H154236   0.890   6.738   0.998 -2.6605  0.1148  3.4967
10915TIP3    H254237   0.983   6.713   1.115 -0.9853  1.8442  2.5878
10916TIP3   OH254238   4.963   3.918   6.647  0.0626 -0.4250 -0.7416
10916TIP3    H154239   5.015   3.842   6.671  0.7668  1.1743  4.0531
10916TIP3    H254240   5.027   3.984   6.620  0.1200  0.0387  0.4372
10917TIP3   OH254241   6.349   6.232   2.108  0.0162 -0.2504 -0.0274
10917TIP3    H154242   6.361   6.259   2.200 -0.5806  1.5498 -0.4256
10917TIP3    H254243   6.431   6.258   2.066 -0.4803  0.8291 -0.3735
10918TIP3   OH254244   0.977   1.169   2.067 -0.2481 -0.2978  0.5653
10918TIP3    H154245   1.012   1.093   2.020 -3.1734 -1.6263  0.2700
10918TIP3    H254246   0.904   1.134   2.118 -2.1012  2.3786 -0.0060
10919TIP3   OH254247   4.881   5.368  13.992  0.2207 -0.0507 -0.6680
10919TIP3    H154248   4.872   5.413  14.076 -1.2763  0.1669 -0.9126
10919TIP3    H254249   4.889   5.276  14.014 -0.4630 -0.0237 -0.2856
10920TIP3   OH254250   5.343   4.602  12.702 -0.6053  0.4200 -0.1156
10920TIP3    H154251   5.344   4.668  12.632 -0.4413  0.8956  0.3295
10920TIP3    H254252   5.349   4.518  12.656  0.1027  0.7511 -0.6496
10921TIP3   OH254253   6.602   4.150  15.944 -0.3623 -0.3043 -0.0999
10921TIP3    H154254   6.532   4.186  15.891 -1.0811 -3.5685 -1.6549
10921TIP3    H254255   6.573   4.061  15.966  3.0109 -1.6736 -0.4175
10922TIP3   OH254256   3.101   4.776   6.535 -0.3379  0.1696  0.4801
10922TIP3    H154257   3.034   4.736   6.590  0.5684 -1.9954  0.1314
10922TIP3    H254258   3.120   4.860   6.577 -1.7039 -0.1456  1.8154
10923TIP3   OH254259   3.907   2.056   1.458  0.0724  0.0086  0.4637
10923TIP3    H154260   3.931   1.985   1.518 -0.4496 -1.4365 -0.9461
10923TIP3    H254261   3.989   2.079   1.414  0.5093  1.2531  1.8525
10924TIP3   OH254262   6.458   1.191  13.146 -0.4910 -0.3764 -0.3461
10924TIP3    H154263   6.418   1.106  13.130 -1.5963 -0.1771  1.1782
10924TIP3    H254264   6.386   1.254  13.141  0.0894  0.3256 -0.2200
10925TIP3   OH254265   2.427   3.567  12.120  0.0061  0.1882  0.3701
10925TIP3    H154266   2.426   3.655  12.082  1.1726 -1.0418 -2.8468
10925TIP3    H254267   2.336   3.548  12.140 -0.6632  1.1026 -1.5714
10926TIP3   OH254268   3.116   1.795   0.155 -0.6938 -0.9034 -0.7243
10926TIP3    H154269   3.176   1.732   0.116 -0.9787 -1.3451 -0.4511
10926TIP3    H254270   3.159   1.821   0.237 -0.0657  0.0709 -1.3402
10927TIP3   OH254271   6.571   5.640  13.950 -0.2953 -0.8005 -0.2032
10927TIP3    H154272   6.537   5.655  13.862 -0.0335 -1.3029 -0.3938
10927TIP3    H254273   6.624   5.717  13.969  1.6331 -1.7309 -1.4559
10928TIP3   OH254274   3.821   4.794   0.566  0.4953 -0.2744 -0.0347
10928TIP3    H154275   3.789   4.881   0.542  0.2633 -0.0522  1.0060
10928TIP3    H254276   3.746   4.752   0.608  1.0086 -0.4606  0.7068
10929TIP3   OH254277   3.791   6.137   3.712  0.3346  0.4767  0.2753
10929TIP3    H154278   3.700   6.163   3.704 -0.1378 -0.0276  2.9185
10929TIP3    H254279   3.797   6.053   3.666 -1.4796 -1.2207  2.8771
10930TIP3   OH254280   2.073   3.284   3.114 -0.4837 -0.1108  0.1313
10930TIP3    H154281   2.160   3.315   3.089 -0.4831 -0.4557 -0.3104
10930TIP3    H254282   2.078   3.189   3.107 -0.6891 -0.1758  0.8020
10931TIP3   OH254283   3.692   4.359   2.926 -0.3245 -0.6109 -0.5084
10931TIP3    H154284   3.673   4.268   2.904 -0.4659 -1.0823  1.4199
10931TIP3    H254285   3.745   4.355   3.005 -1.1428  0.9995  0.1731
10932TIP3   OH254286   2.874   5.546   0.149  0.3732  0.1564  0.3693
10932TIP3    H154287   2.882   5.494   0.230 -0.2289 -0.6568 -0.0783
10932TIP3    H254288   2.866   5.480   0.080  1.1620  0.8443 -0.3884
10933TIP3   OH254289   0.756   4.894  14.235 -0.1230 -0.4815  0.1272
10933TIP3    H154290   0.845   4.875  14.265 -0.3099 -0.0477  0.9819
10933TIP3    H254291   0.753   4.858  14.146  1.2311  0.4095 -0.3166
10934TIP3   OH254292   1.374   4.827  16.594 -0.4701 -0.4265 -0.1162
10934TIP3    H154293   1.312   4.809  16.523 -0.5274  0.4267 -0.2920
10934TIP3    H254294   1.372   4.748  16.648 -0.5482 -1.0184 -0.9671
10935TIP3   OH254295   5.904   3.177   3.605 -0.0637  0.3861 -0.4340
10935TIP3    H154296   5.967   3.200   3.672  0.0819  1.6433 -0.9731
10935TIP3    H254297   5.887   3.259   3.559 -0.1511 -0.4323 -1.9334
10936TIP3   OH254298   1.293   3.284   4.780 -0.6568 -0.0730 -0.4988
10936TIP3    H154299   1.273   3.270   4.872 -0.1700 -1.8221 -0.6076
10936TIP3    H254300   1.230   3.229   4.733  1.4819 -2.3451 -0.9833
10937TIP3   OH254301   2.209   1.948  11.671 -0.0703 -0.3240 -0.0582
10937TIP3    H154302   2.214   1.892  11.594 -2.0046 -0.2554 -0.3002
10937TIP3    H254303   2.175   1.891  11.740 -0.3402  0.1052  0.1706
10938TIP3   OH254304   4.636   6.331  15.777 -0.6618 -0.3101  0.5219
10938TIP3    H154305   4.563   6.277  15.746  0.7607 -0.4132 -3.2908
10938TIP3    H254306   4.610   6.421  15.758  0.2323 -0.3715 -1.2152
10939TIP3   OH254307   1.743   2.327   5.338 -0.4865  0.6441  0.6267
10939TIP3    H154308   1.745   2.243   5.292 -0.5531  0.1678  1.4706
10939TIP3    H254309   1.774   2.391   5.273 -0.3057 -0.0450  0.0182
10940TIP3   OH254310   4.091   0.152  14.306  0.4216  1.0119 -0.1182
10940TIP3    H154311   4.028   0.081  14.295 -1.1493  2.5157 -1.3282
10940TIP3    H254312   4.169   0.110  14.342 -0.9002 -1.0899  0.4403
10941TIP3   OH254313   1.616   5.872   2.503  0.5924  0.0402 -0.2859
10941TIP3    H154314   1.656   5.902   2.584 -1.5324 -1.7608  1.5708
10941TIP3    H254315   1.649   5.783   2.491 -0.2334 -0.2511 -0.5257
10942TIP3   OH254316   4.407   0.176  17.247  0.3227  0.0472  0.2842
10942TIP3    H154317   4.352   0.101  17.266 -0.3151  0.3372 -0.3817
10942TIP3    H254318   4.483   0.165  17.304 -0.7976  0.0864  1.8348
10943TIP3   OH254319   6.470   3.687  14.340  0.4838 -0.4180  0.0068
10943TIP3    H154320   6.502   3.612  14.391 -1.6904 -0.3474  1.6286
10943TIP3    H254321   6.423   3.649  14.267  2.1169 -0.5396 -1.0323
10944TIP3   OH254322   2.086   0.533  10.560  1.0163 -0.3640  0.1002
10944TIP3    H154323   2.170   0.491  10.538  1.0464 -0.6110  0.6772
10944TIP3    H254324   2.023   0.461  10.559  0.5387  0.0225 -1.6819
10945TIP3   OH254325   1.959   1.744  14.629 -0.4376 -0.2386 -0.2155
10945TIP3    H154326   1.961   1.680  14.700  1.9145  1.1894  1.1408
10945TIP3    H254327   1.959   1.829  14.673  1.3045  0.7013 -1.8765
10946TIP3   OH254328   6.299   0.049   2.575  0.0752  0.5464  0.3966
10946TIP3    H154329   6.344  -0.034   2.559  0.3684  0.6123  0.8501
10946TIP3    H254330   6.216   0.040   2.529 -0.2333 -0.3228  1.0823
10947TIP3   OH254331   5.325   1.214   1.376 -0.5950  0.1463  0.2046
10947TIP3    H154332   5.353   1.138   1.326  0.4060 -1.2486  2.7242
10947TIP3    H254333   5.256   1.254   1.322  1.4126 -0.2976 -2.9494
10948TIP3   OH254334   5.698   5.929   5.727 -0.0805 -0.7839  0.8908
10948TIP3    H154335   5.728   5.948   5.816 -0.9748 -0.8846  1.2174
10948TIP3    H254336   5.610   5.964   5.723  0.6024  0.9067 -0.5614
10949TIP3   OH254337   4.637   6.620  13.930 -0.1319  0.4382 -0.0989
10949TIP3    H154338   4.688   6.701  13.923  1.2487 -0.3354  0.5325
10949TIP3    H254339   4.605   6.605  13.841  1.3889  0.5780 -0.7133
10950TIP3   OH254340   4.232   6.533  12.260 -0.2180  0.1168  0.3591
10950TIP3    H154341   4.272   6.467  12.204 -0.1308 -0.4317  1.0652
10950TIP3    H254342   4.249   6.616  12.214  0.3097 -0.2692 -0.1585
10951TIP3   OH254343   3.276   0.311  12.463 -0.1483 -0.0210 -0.3406
10951TIP3    H154344   3.220   0.286  12.390 -3.0214 -1.3485  2.1089
10951TIP3    H254345   3.219   0.361  12.521  1.9628  0.8460  1.0837
10952TIP3   OH254346   5.452   1.523  16.123  0.1416 -0.3823  0.6546
10952TIP3    H154347   5.411   1.438  16.136 -1.1394  0.1692  0.3480
10952TIP3    H254348   5.446   1.566  16.208 -1.0815  0.1755  0.3088
10953TIP3   OH254349   0.834   1.739  14.325  0.0363  0.5373  0.0053
10953TIP3    H154350   0.844   1.671  14.259 -0.2520  0.0480  0.4618
10953TIP3    H254351   0.867   1.818  14.283 -0.6040  0.3336 -0.8924
10954TIP3   OH254352   4.977   0.416   4.813 -0.0994  0.4041  0.0830
10954TIP3    H154353   4.999   0.346   4.874  1.7377 -0.1732 -1.1693
10954TIP3    H254354   4.884   0.401   4.793  0.3896 -2.1225 -0.6433
10955TIP3   OH254355   1.648   5.863  11.635 -0.6679 -0.3196  0.2442
10955TIP3    H154356   1.644   5.784  11.582 -1.8432  0.0120 -0.1811
10955TIP3    H254357   1.717   5.845  11.700 -0.7181 -1.5622 -0.0292
10956TIP3   OH254358   6.684   3.596  13.037 -0.0599  0.4969 -0.2958
10956TIP3    H154359   6.665   3.503  13.048  0.1103  0.4123 -0.7073
10956TIP3    H254360   6.640   3.638  13.111  2.0133 -0.1524  1.3888
10957TIP3   OH254361   6.316   4.020   1.685  0.0734 -0.1855 -0.2724
10957TIP3    H154362   6.285   3.932   1.663 -0.2709 -0.2567  0.4599
10957TIP3    H254363   6.410   4.011   1.698  0.4093 -0.0073 -2.3409
10958TIP3   OH254364   3.930   5.755   0.468 -0.3081  0.5207  0.1074
10958TIP3    H154365   3.918   5.751   0.563 -2.0291  1.3574 -0.0367
10958TIP3    H254366   3.856   5.707   0.432 -0.4959  1.4744 -0.8293
10959TIP3   OH254367   2.488   4.751  15.800 -0.1722  0.0389 -0.4435
10959TIP3    H154368   2.522   4.669  15.834  1.7238 -0.1434 -2.5270
10959TIP3    H254369   2.556   4.783  15.741 -1.1766  2.7400 -0.3010
10960TIP3   OH254370   2.771   2.730   4.630 -0.1371 -0.0043  0.3521
10960TIP3    H154371   2.837   2.740   4.699 -0.2457  0.5258  0.3866
10960TIP3    H254372   2.720   2.654   4.656  1.1471 -1.1038 -0.2481
10961TIP3   OH254373   1.627   5.840   4.117  0.1544  0.3921 -0.1451
10961TIP3    H154374   1.588   5.794   4.043  1.8214  0.0806 -0.8726
10961TIP3    H254375   1.571   5.917   4.130  0.3345  0.9488 -2.3191
10962TIP3   OH254376   1.276   4.933  16.123 -0.6279 -0.1098  0.0998
10962TIP3    H154377   1.302   5.015  16.167 -2.2349 -0.2065  1.3192
10962TIP3    H254378   1.240   4.879  16.193  0.1685 -1.8037 -0.7310
10963TIP3   OH254379   0.416   5.328   6.205  0.1530  0.7495  0.6742
10963TIP3    H154380   0.503   5.325   6.165 -0.1684 -1.5310  0.0507
10963TIP3    H254381   0.432   5.310   6.298  0.2518 -1.1530  0.3171
10964TIP3   OH254382   6.040   4.534   0.392  0.3441  0.0158  1.1173
10964TIP3    H154383   5.957   4.506   0.352  1.3011 -1.1832 -0.1167
10964TIP3    H254384   6.027   4.627   0.412 -0.3760  0.5539 -1.5100
10965TIP3   OH254385   2.926   4.679   6.698  0.0637  0.9553 -0.2191
10965TIP3    H154386   2.935   4.598   6.748  0.4226  0.5243 -0.9585
10965TIP3    H254387   2.862   4.731   6.746  0.0446  0.3475  0.4150
10966TIP3   OH254388   2.040   0.369   0.783  0.3351 -0.3680  0.5865
10966TIP3    H154389   2.031   0.444   0.842 -0.5279 -1.5799  2.0658
10966TIP3    H254390   2.132   0.372   0.754  0.1210  1.6781 -0.0386
10967TIP3   OH254391   3.533   6.569   0.552 -0.1989  0.5250 -0.1516
10967TIP3    H154392   3.451   6.598   0.593  0.2306  0.3094  0.8905
10967TIP3    H254393   3.556   6.488   0.598  1.8078  1.7882  1.2446
10968TIP3   OH254394   1.366   3.852   2.847 -0.1492 -0.0815  0.1503
10968TIP3    H154395   1.427   3.784   2.875  0.3541  0.0051 -0.7210
10968TIP3    H254396   1.350   3.834   2.755 -0.1861  0.8460 -0.0347
10969TIP3   OH254397   5.741   6.385   2.791  0.1568  0.2229  0.0016
10969TIP3    H154398   5.694   6.316   2.840 -0.1257  0.9879  0.8395
10969TIP3    H254399   5.705   6.380   2.703  0.4126 -0.9536 -0.0549
10970TIP3   OH254400   5.503   6.263  14.903  0.4472  0.1103 -0.0913
10970TIP3    H154401   5.444   6.339  14.909  2.1138  1.4556  0.2577
10970TIP3    H254402   5.585   6.294  14.942  1.4423 -1.6421 -0.6814
10971TIP3   OH254403   2.512   3.906   3.784 -0.3116  0.7883 -0.2679
10971TIP3    H154404   2.512   3.968   3.857  1.4051  1.2614 -0.6170
10971TIP3    H254405   2.429   3.859   3.792  0.3040  0.0084  2.6922
10972TIP3   OH254406   5.946   1.026  13.865  0.0862 -0.4500 -0.0697
10972TIP3    H154407   5.949   1.053  13.773  1.1244 -0.2078  0.0189
10972TIP3    H254408   5.959   1.108  13.913 -1.1663 -0.4622  0.3262
10973TIP3   OH254409   4.881   4.209  16.672  0.5312 -0.0213  0.2115
10973TIP3    H154410   4.875   4.301  16.644  0.8576 -0.6432 -2.0944
10973TIP3    H254411   4.804   4.197  16.729  0.6324  1.7238  0.7985
10974TIP3   OH254412   6.304   1.818   4.265 -0.3987 -0.2119 -0.6934
10974TIP3    H154413   6.302   1.902   4.312 -0.8078 -0.4000 -0.3634
10974TIP3    H254414   6.396   1.792   4.266  0.0781  1.2122 -2.5722
10975TIP3   OH254415   2.576   1.176   5.161 -0.6010 -0.5509  0.0239
10975TIP3    H154416   2.600   1.114   5.092 -0.3197 -0.7766  0.3262
10975TIP3    H254417   2.607   1.136   5.242  0.2308  0.3021  0.1531
10976TIP3   OH254418   1.446   0.390   3.402  0.0510  0.1231 -0.6673
10976TIP3    H154419   1.436   0.297   3.425 -0.0680 -0.0432 -1.3538
10976TIP3    H254420   1.442   0.436   3.485 -1.1111 -0.3846 -0.4265
10977TIP3   OH254421   4.216   5.190   1.944  0.3898  0.5817  0.2649
10977TIP3    H154422   4.299   5.182   1.896  0.2657  1.1260 -0.0514
10977TIP3    H254423   4.160   5.242   1.886  0.8367  2.8323  1.7274
10978TIP3   OH254424   3.593   0.216   0.913  0.2745  0.3474  0.4017
10978TIP3    H154425   3.668   0.266   0.880  0.0434  0.8466  0.6225
10978TIP3    H254426   3.531   0.214   0.840  0.3674  0.2114  0.3264
10979TIP3   OH254427   6.344   6.688   3.346 -0.1924  0.0208  0.1545
10979TIP3    H154428   6.329   6.781   3.360  1.3820  0.1888  1.0205
10979TIP3    H254429   6.298   6.645   3.418  0.4180  0.2638  0.7012
10980TIP3   OH254430   3.022   0.710   2.456  0.1551 -0.5704  0.2800
10980TIP3    H154431   3.061   0.633   2.415 -0.2138 -0.0874 -1.0194
10980TIP3    H254432   3.069   0.784   2.418  0.9995 -0.1435  2.0446
10981TIP3   OH254433   2.337   3.230  12.899 -0.2614  0.2155  0.0593
10981TIP3    H154434   2.371   3.202  12.984  0.8672  1.2832 -0.0101
10981TIP3    H254435   2.403   3.201  12.836  0.1901  1.6468 -0.1637
10982TIP3   OH254436   5.905   4.541   5.398 -0.2764  0.0810  0.1957
10982TIP3    H154437   5.829   4.535   5.456 -0.3029  0.7238  0.2298
10982TIP3    H254438   5.889   4.475   5.331 -0.5109 -0.2932  0.6087
10983TIP3   OH254439   2.964   4.131   6.250 -0.7154 -0.0740  0.1660
10983TIP3    H154440   2.922   4.046   6.268 -0.3286 -0.4337 -0.5678
10983TIP3    H254441   3.026   4.112   6.180 -1.3512  1.0182 -0.7378
10984TIP3   OH254442   0.038   5.714  15.512  0.1947  0.4997 -0.3083
10984TIP3    H154443   0.005   5.803  15.522  0.0717  0.3190  1.1706
10984TIP3    H254444   0.123   5.724  15.469  0.3335  1.3558  0.1546
10985TIP3   OH254445   3.902   5.126  11.721 -0.0905 -0.1419  0.1455
10985TIP3    H154446   3.814   5.122  11.758 -0.1150 -0.0717  0.0944
10985TIP3    H254447   3.952   5.180  11.782 -0.3059  0.5523 -0.2774
10986TIP3   OH254448   0.659   6.427   1.493  0.2284  0.0636 -0.3715
10986TIP3    H154449   0.623   6.360   1.551  0.8494 -0.0401 -0.0951
10986TIP3    H254450   0.620   6.409   1.408  0.3205 -0.5953 -0.2816
10987TIP3   OH254451   4.219   1.773   1.409  0.2256 -0.1305 -0.1878
10987TIP3    H154452   4.179   1.691   1.380  1.7664 -1.2392  0.7487
10987TIP3    H254453   4.169   1.798   1.486  1.0066 -1.2718  0.7120
10988TIP3   OH254454   3.572   1.167  15.924  0.4126  0.1311  0.0267
10988TIP3    H154455   3.615   1.115  15.857  1.2632 -0.6690  1.1510
10988TIP3    H254456   3.572   1.256  15.888 -2.4648 -0.7586 -2.6064
10989TIP3   OH254457   4.507   1.794   2.036  0.2946  0.1984 -0.2118
10989TIP3    H154458   4.513   1.878   2.082  2.3315 -0.0514  0.1095
10989TIP3    H254459   4.416   1.788   2.007 -0.6509  1.1258  2.3478
10990TIP3   OH254460   6.190   3.828  11.941 -0.0789  0.3636  0.4349
10990TIP3    H154461   6.280   3.841  11.911  0.2974  0.1252  1.4110
10990TIP3    H254462   6.197   3.759  12.007 -1.0325  0.0999  0.2710
10991TIP3   OH254463   0.531   2.426  10.970  0.8123 -0.0562 -0.6408
10991TIP3    H154464   0.477   2.365  11.021 -0.4463  0.6112 -1.1451
10991TIP3    H254465   0.525   2.509  11.017  2.0157 -0.1306 -0.3032
10992TIP3   OH254466   5.899   6.210   3.341  0.1046  0.4301  0.5708
10992TIP3    H154467   5.830   6.262   3.383  0.4610  2.0924 -0.7686
10992TIP3    H254468   5.923   6.145   3.406 -0.8746  1.5092  2.0757
10993TIP3   OH254469   0.678   3.652   3.675 -0.2450  0.0014 -0.2717
10993TIP3    H154470   0.662   3.643   3.581 -0.2249  1.4962 -0.4506
10993TIP3    H254471   0.755   3.598   3.693  0.3279  0.4578 -1.3039
10994TIP3   OH254472   0.489   6.212   2.487  0.5957 -0.3389 -0.0982
10994TIP3    H154473   0.402   6.239   2.460  0.1936 -0.9506  0.5628
10994TIP3    H254474   0.506   6.132   2.438  0.1155 -1.1100  0.9633
10995TIP3   OH254475   0.563   1.987   4.951 -0.3135  0.2807 -0.0652
10995TIP3    H154476   0.494   1.939   4.904 -0.4469  0.1311  0.2769
10995TIP3    H254477   0.553   1.959   5.042  0.6597 -0.2995 -0.1240
10996TIP3   OH254478   4.199   1.217   1.436 -0.2510  0.2091  0.7332
10996TIP3    H154479   4.169   1.248   1.351 -0.0222  0.5927  0.7919
10996TIP3    H254480   4.133   1.153   1.463 -0.5632  0.4211  0.4736
10997TIP3   OH254481   6.221   0.668  14.894  0.1203  0.3868 -0.2159
10997TIP3    H154482   6.305   0.631  14.868 -0.0021  0.8316 -1.2749
10997TIP3    H254483   6.172   0.677  14.813 -0.0870  2.3000  0.0766
10998TIP3   OH254484   0.828   5.574  16.029  0.1409  0.2420 -0.1277
10998TIP3    H154485   0.873   5.522  15.962  0.4520 -0.9106  0.9302
10998TIP3    H254486   0.842   5.525  16.111  0.4854  2.0050  0.9398
10999TIP3   OH254487   3.515   3.426  17.199  0.3327 -1.0989  0.4032
10999TIP3    H154488   3.564   3.508  17.194  0.0810 -0.8793  1.3749
10999TIP3    H254489   3.476   3.426  17.286  0.3819 -2.2857  0.4431
11000TIP3   OH254490   0.302   1.071  12.453  0.1488 -0.4035 -0.0206
11000TIP3    H154491   0.305   1.024  12.370  0.9023  0.7630 -0.6867
11000TIP3    H254492   0.213   1.058  12.485  0.1542 -1.7168 -0.4959
11001TIP3   OH254493   1.646   1.743   3.582  0.4121  0.7162 -0.3641
11001TIP3    H154494   1.584   1.767   3.513  0.3107  0.8226 -0.2360
11001TIP3    H254495   1.663   1.650   3.568  0.6903  0.8270 -0.7738
11002TIP3   OH254496   6.534   2.729   5.826 -0.3819  0.2925  0.0625
11002TIP3    H154497   6.602   2.785   5.865  1.0992 -0.4566 -1.3346
11002TIP3    H254498   6.484   2.788   5.770 -0.1494  0.6370  0.2105
11003TIP3   OH254499   1.532   4.422  15.986  0.2128  0.1593  0.8688
11003TIP3    H154500   1.507   4.399  15.896 -0.3549 -0.5488  1.1943
11003TIP3    H254501   1.605   4.484  15.976 -0.7505  1.1848 -0.1014
11004TIP3   OH254502   4.861   4.610   5.851 -0.2705  0.1689  0.3915
11004TIP3    H154503   4.935   4.576   5.901  0.8714  0.2026 -1.2228
11004TIP3    H254504   4.806   4.534   5.835  0.0559 -0.0937  0.5143
11005TIP3   OH254505   1.988   3.345   1.424  0.2599 -0.5880  0.0499
11005TIP3    H154506   2.013   3.360   1.333  2.7282 -1.5909  0.4787
11005TIP3    H254507   2.008   3.253   1.439 -0.5957 -0.5626  1.4684
11006TIP3   OH254508   5.928   4.733  15.337  0.6639 -1.0427 -0.2521
11006TIP3    H154509   5.836   4.713  15.319  0.4115 -0.8773  0.7862
11006TIP3    H254510   5.925   4.806  15.399  1.5193 -0.4324 -0.9039
11007TIP3   OH254511   0.144   5.324  14.761 -0.3024  0.7099 -0.1203
11007TIP3    H154512   0.196   5.381  14.704 -0.1231  0.5815 -0.0851
11007TIP3    H254513   0.208   5.283  14.819 -0.4038  0.2756 -0.3141
11008TIP3   OH254514   0.301   4.521  10.580  0.5633 -0.1419  0.5154
11008TIP3    H154515   0.266   4.438  10.614 -0.1744 -0.3227 -0.6495
11008TIP3    H254516   0.272   4.587  10.643 -0.4481 -0.5209  0.4515
11009TIP3   OH254517   4.870   2.115  16.995 -0.9497 -0.1133 -0.1126
11009TIP3    H154518   4.799   2.064  16.956  0.4300 -1.4683 -1.0091
11009TIP3    H254519   4.922   2.050  17.043 -0.6418  0.9478  1.0342
11010TIP3   OH254520   1.260   4.782  14.478 -0.2080  0.4455  0.6051
11010TIP3    H154521   1.265   4.845  14.407 -2.0809  1.0850  0.9907
11010TIP3    H254522   1.273   4.697  14.435 -1.8611  0.7605 -0.6420
11011TIP3   OH254523   5.614   5.152   4.632 -0.0015  0.1888 -0.8396
11011TIP3    H154524   5.582   5.091   4.566  0.9471  0.0367 -1.1798
11011TIP3    H254525   5.583   5.238   4.602  0.2844  0.1017 -1.4032
11012TIP3   OH254526   2.554   6.807   3.585  0.5915 -0.2653  0.4334
11012TIP3    H154527   2.624   6.811   3.650 -1.9597  0.6528  3.3711
11012TIP3    H254528   2.522   6.898   3.579 -0.5375 -0.6990 -0.5898
11013TIP3   OH254529   4.234   4.370  14.607  0.5227 -0.6794 -0.4933
11013TIP3    H154530   4.314   4.418  14.586  0.1379 -0.3106 -1.1423
11013TIP3    H254531   4.200   4.413  14.685  2.5595 -2.7647  1.7473
11014TIP3   OH254532   5.524   5.301   1.006 -0.0640  0.5688  0.4848
11014TIP3    H154533   5.455   5.258   0.957  0.1926  0.2015  0.4435
11014TIP3    H254534   5.509   5.276   1.097  2.2218 -2.7320  0.1358
11015TIP3   OH254535   6.747   6.611  13.073 -0.2514 -0.4104 -0.7227
11015TIP3    H154536   6.777   6.537  13.126  1.9477  0.5685 -0.4860
11015TIP3    H254537   6.812   6.680  13.090 -1.8853  1.3715 -1.4041
11016TIP3   OH254538   4.521   4.517   3.411  0.4722  0.2273  0.1456
11016TIP3    H154539   4.466   4.455   3.363  0.3313  0.2991  0.2163
11016TIP3    H254540   4.549   4.580   3.344 -1.1425  1.3490  0.4773
11017TIP3   OH254541   3.205   0.440  11.925 -0.7244  0.3262  0.0308
11017TIP3    H154542   3.193   0.417  11.832 -2.6775 -1.2650  0.5964
11017TIP3    H254543   3.157   0.522  11.936 -0.5854  0.4606 -0.3634
11018TIP3   OH254544   1.483   6.732   2.373 -0.0029  0.1530 -0.0510
11018TIP3    H154545   1.453   6.641   2.369  2.8000 -0.9244  0.9404
11018TIP3    H254546   1.574   6.729   2.342  0.6258  2.3593  1.3229
11019TIP3   OH254547   1.029   0.874  14.029 -0.0855  0.1355  0.2468
11019TIP3    H154548   1.092   0.918  14.085  1.3012  0.5041 -1.5179
11019TIP3    H254549   1.066   0.787  14.014 -1.2820 -0.5736  1.2141
11020TIP3   OH254550   5.339   0.114  15.698  0.5418  0.8680 -0.4846
11020TIP3    H154551   5.319   0.096  15.790 -1.2694  0.2185 -0.9571
11020TIP3    H254552   5.361   0.028  15.662 -0.4058  0.8374 -1.0148
11021TIP3   OH254553   6.313   1.538  13.900  0.4384  0.0894  0.0582
11021TIP3    H154554   6.370   1.546  13.823 -0.2183  0.1284 -0.4391
11021TIP3    H254555   6.225   1.535  13.863  0.1176  0.0727  0.8170
11022TIP3   OH254556   1.325   2.708  13.675  0.5043  0.2503 -0.2403
11022TIP3    H154557   1.402   2.706  13.618  0.6436  0.8334 -0.0747
11022TIP3    H254558   1.313   2.800  13.696  1.9957 -0.1162  2.7342
11023TIP3   OH254559   4.211   2.621   4.033  0.4580 -0.1281  0.4036
11023TIP3    H154560   4.120   2.624   4.005  0.6504 -0.9391 -0.3859
11023TIP3    H254561   4.231   2.710   4.062  0.1662  0.7618 -1.9169
11024TIP3   OH254562   6.443   3.012  11.954 -0.9090  0.4431  0.3860
11024TIP3    H154563   6.484   3.049  11.876  1.6668 -0.5285  1.1632
11024TIP3    H254564   6.373   3.074  11.977  0.1617  2.2722 -1.0205
11025TIP3   OH254565   6.321   6.618  15.284  0.0881  0.6264  0.1355
11025TIP3    H154566   6.339   6.676  15.358  1.3806  1.5218 -0.8408
11025TIP3    H254567   6.347   6.669  15.207  0.1521 -0.8163 -0.8269
11026TIP3   OH254568   6.699   3.601   4.914 -0.5842  0.0319 -0.4117
11026TIP3    H154569   6.683   3.660   4.841  2.1702  2.7432  0.9693
11026TIP3    H254570   6.634   3.625   4.980 -1.4102 -0.6294 -0.9712
11027TIP3   OH254571   3.175   5.375   0.259  0.1275  0.7089 -0.0509
11027TIP3    H154572   3.164   5.302   0.197 -0.2943 -0.9031  1.8059
11027TIP3    H254573   3.270   5.384   0.268  0.1845  0.1070  0.0039
11028TIP3   OH254574   3.933   5.459   3.399  0.3396 -0.5166  0.0368
11028TIP3    H154575   3.910   5.468   3.307 -1.2637 -1.2151  0.3265
11028TIP3    H254576   3.964   5.368   3.408  1.2161 -0.2250  0.0604
11029TIP3   OH254577   2.143   4.633  14.513 -0.3131 -0.3885  0.2397
11029TIP3    H154578   2.157   4.548  14.472 -0.1493 -0.8731  1.2804
11029TIP3    H254579   2.119   4.691  14.440  1.6730 -0.7973 -0.8080
11030TIP3   OH254580   4.293   0.570   0.958 -0.0541 -0.1499 -0.1250
11030TIP3    H154581   4.211   0.527   0.982 -0.6503  0.4181 -1.1174
11030TIP3    H254582   4.294   0.569   0.862  1.3776 -0.6653 -0.1304
11031TIP3   OH254583   5.928   3.452  17.241  0.2612  0.3856 -0.1860
11031TIP3    H154584   5.916   3.360  17.214  2.5621  0.5784 -2.2272
11031TIP3    H254585   5.853   3.497  17.204 -0.5026 -0.5359  0.1853
11032TIP3   OH254586   3.156   1.954   3.611 -0.0321 -0.4410  0.0753
11032TIP3    H154587   3.231   2.001   3.574  0.7208 -1.0868  0.7418
11032TIP3    H254588   3.133   2.003   3.689  0.8495 -1.2184  0.8548
11033TIP3   OH254589   4.395   4.894   5.846  0.0767 -0.2352  0.4899
11033TIP3    H154590   4.438   4.951   5.910  1.2551 -0.6611  0.1037
11033TIP3    H254591   4.466   4.840   5.811 -0.6799 -0.5429 -0.6151
11034TIP3   OH254592   0.446   0.143  12.070 -0.2914 -0.2350  0.2533
11034TIP3    H154593   0.351   0.140  12.081 -0.4419 -0.8983 -1.0098
11034TIP3    H254594   0.474   0.217  12.123 -1.6558  0.7113 -0.2890
11035TIP3   OH254595   1.156   1.394   1.106  0.0476 -0.2978 -0.1133
11035TIP3    H154596   1.139   1.462   1.171 -0.0748 -0.5865  0.1623
11035TIP3    H254597   1.205   1.327   1.154 -0.8270 -0.9281 -0.0762
11036TIP3   OH254598   4.302   2.988  11.040 -0.4134  0.0385 -0.1139
11036TIP3    H154599   4.348   2.985  10.957  0.7111 -0.3526  0.4946
11036TIP3    H254600   4.368   3.019  11.103 -0.7372 -1.2732  0.9216
11037TIP3   OH254601   3.768   2.013   5.421  0.0165 -0.4617 -0.3438
11037TIP3    H154602   3.775   1.995   5.514 -0.0645  1.0902 -0.0040
11037TIP3    H254603   3.844   1.970   5.382  1.4701  0.9256  0.8078
11038TIP3   OH254604   0.878   3.892  12.637  0.1231  0.7255  0.2357
11038TIP3    H154605   0.853   3.898  12.729 -0.4098  2.1025  0.0269
11038TIP3    H254606   0.829   3.817  12.603  1.2650 -0.5864  1.3258
11039TIP3   OH254607   1.065   5.997  11.353 -0.0727 -0.5493  0.1688
11039TIP3    H154608   1.118   5.991  11.433  1.2591 -0.7072 -0.6971
11039TIP3    H254609   1.055   6.091  11.339  1.1694 -0.4928 -0.4095
11040TIP3   OH254610   5.685   5.003  11.055 -0.1928  0.7070 -0.3203
11040TIP3    H154611   5.608   5.038  11.009 -0.9984  0.5167  0.8610
11040TIP3    H254612   5.747   5.076  11.054  0.0871  0.5117 -2.2635
11041TIP3   OH254613   0.959   3.650   3.889 -0.3010  0.7957  0.7542
11041TIP3    H154614   0.989   3.559   3.890 -2.7081 -0.0955  2.7013
11041TIP3    H254615   0.939   3.667   3.797 -1.4038 -1.2725  0.5551
11042TIP3   OH254616   6.419   6.345  12.812  0.4724 -0.6622  0.4988
11042TIP3    H154617   6.447   6.432  12.841 -3.3275  0.1264  2.4028
11042TIP3    H254618   6.462   6.284  12.873  1.5599  0.0144  0.4281
11043TIP3   OH254619   3.388   3.138   2.887  0.2751 -0.4416 -0.0318
11043TIP3    H154620   3.315   3.176   2.838  0.9384 -1.2731 -1.7505
11043TIP3    H254621   3.449   3.210   2.900 -0.6920  0.1867  1.1385
11044TIP3   OH254622   6.192   3.603  12.161  0.4257  0.4810  0.1766
11044TIP3    H154623   6.228   3.624  12.247  2.0704  0.2448 -0.4311
11044TIP3    H254624   6.106   3.645  12.161  1.2848  2.3608  1.1080
11045TIP3   OH254625   2.791   3.363   1.518  0.3270 -0.3779 -1.0038
11045TIP3    H154626   2.742   3.325   1.445 -1.1868  0.0437 -0.2580
11045TIP3    H254627   2.747   3.446   1.536  1.3222  0.0170 -0.2835
11046TIP3   OH254628   0.267   4.639  12.283  0.3575 -0.5803 -0.5299
11046TIP3    H154629   0.289   4.660  12.192 -2.7454  0.6204 -1.1332
11046TIP3    H254630   0.229   4.720  12.318 -0.6456 -1.6748  1.0584
11047TIP3   OH254631   0.283   0.460  14.922  0.0524  0.0290  0.0054
11047TIP3    H154632   0.264   0.552  14.903 -1.4645 -0.3991 -0.6689
11047TIP3    H254633   0.364   0.442  14.873 -1.1418  0.2931 -2.1980
11048TIP3   OH254634   2.972   5.242  15.005 -0.3117 -0.5650 -0.1170
11048TIP3    H154635   3.016   5.163  15.035  1.1014  0.1708 -0.1358
11048TIP3    H254636   2.888   5.243  15.052  0.2258 -1.3678  0.9001
11049TIP3   OH254637   0.711   3.135   0.494 -0.0439  0.6085  0.0525
11049TIP3    H154638   0.669   3.049   0.490 -2.2408  1.5620  1.0080
11049TIP3    H254639   0.736   3.146   0.586 -0.2626  1.2077  0.0456
11050TIP3   OH254640   4.333   3.993  13.492  0.6099  0.0078  0.0857
11050TIP3    H154641   4.377   4.064  13.539 -0.5366  2.8522 -2.7879
11050TIP3    H254642   4.392   3.972  13.420  1.6236 -3.1905  1.6848
11051TIP3   OH254643   3.878   6.601   3.301  0.2578  0.4376 -0.3508
11051TIP3    H154644   3.812   6.538   3.331  0.5515 -0.2800 -1.1622
11051TIP3    H254645   3.832   6.685   3.302 -0.1358  0.2225  0.7631
11052TIP3   OH254646   6.618   2.792   3.065 -0.5683 -0.2183  0.2928
11052TIP3    H154647   6.709   2.821   3.075 -0.3600  0.0901 -2.0811
11052TIP3    H254648   6.625   2.705   3.027 -1.2716 -0.0748 -0.1703
11053TIP3   OH254649   2.604   0.122   2.582  0.0990 -0.7650  0.3777
11053TIP3    H154650   2.532   0.064   2.607 -0.3698 -1.3513 -2.0953
11053TIP3    H254651   2.680   0.064   2.575 -0.2747 -1.0823 -1.6617
11054TIP3   OH254652   0.317   2.568  17.168  0.0609  0.3838  0.1318
11054TIP3    H154653   0.370   2.607  17.237  0.2207  0.0514  0.1987
11054TIP3    H254654   0.240   2.534  17.213  0.9546 -1.3695  0.4279
11055TIP3   OH254655   5.599   1.571   4.779 -1.0072  0.8799 -0.4319
11055TIP3    H154656   5.626   1.606   4.694  1.8292 -2.3803 -1.0702
11055TIP3    H254657   5.544   1.496   4.758  1.0812 -0.9982  0.3938
11056TIP3   OH254658   1.864   2.436  11.120  0.0475 -0.3488 -0.0201
11056TIP3    H154659   1.944   2.390  11.095  0.0097  0.2588 -1.3413
11056TIP3    H254660   1.837   2.482  11.040 -2.3071 -1.5332 -0.0008
11057TIP3   OH254661   2.138   0.286   1.103  0.3195  0.1704 -0.4565
11057TIP3    H154662   2.079   0.361   1.092 -0.1943 -0.0727  0.4967
11057TIP3    H254663   2.205   0.298   1.036 -1.6465 -0.3623 -2.6581
11058TIP3   OH254664   2.436   3.141  15.506 -0.0013 -1.0496 -0.2153
11058TIP3    H154665   2.348   3.107  15.491  0.2230 -1.6517 -0.1939
11058TIP3    H254666   2.491   3.096  15.442  0.3645 -0.9988  0.0543
11059TIP3   OH254667   0.707   4.918   3.790 -0.5007 -0.3513  0.7296
11059TIP3    H154668   0.640   4.894   3.726 -0.3024  0.8683  0.0309
11059TIP3    H254669   0.674   4.884   3.873 -1.4800 -0.6804  0.2182
11060TIP3   OH254670   1.156   2.676   5.178  0.1482  0.2320 -0.0152
11060TIP3    H154671   1.183   2.666   5.269  0.8859 -1.1896 -0.3563
11060TIP3    H254672   1.177   2.767   5.156 -0.4059  0.7039  1.3338
11061TIP3   OH254673   1.017   1.914  10.430 -0.1559 -0.3092  0.3921
11061TIP3    H154674   0.968   1.978  10.378 -1.0906 -0.3130  1.2523
11061TIP3    H254675   1.058   1.967  10.499  0.3970 -0.4251  0.1606
11062TIP3   OH254676   5.281   2.536  14.296  0.3660  0.1049  0.0565
11062TIP3    H154677   5.284   2.441  14.292  2.0227  0.0270  1.5802
11062TIP3    H254678   5.370   2.563  14.272  0.1971  1.2044  0.6064
11063TIP3   OH254679   1.976   4.451   2.551  0.7070 -0.7418 -0.8928
11063TIP3    H154680   1.925   4.515   2.501  2.3859  0.6982 -0.9091
11063TIP3    H254681   2.051   4.502   2.583  0.4155 -1.9377  1.9482
11064TIP3   OH254682   4.337   1.864  16.832 -0.5020 -0.4834  0.1261
11064TIP3    H154683   4.263   1.846  16.774 -0.7793 -0.6048  0.5133
11064TIP3    H254684   4.410   1.816  16.793 -0.7413 -0.7459 -0.0026
11065TIP3   OH254685   2.023   6.127  12.447 -0.5590  0.1808  0.3772
11065TIP3    H154686   1.952   6.191  12.445 -0.5113  0.3581  2.4020
11065TIP3    H254687   2.084   6.162  12.512  0.0384 -1.3322  0.6598
11066TIP3   OH254688   0.437   1.080  11.504  0.0488 -0.2391 -0.3204
11066TIP3    H154689   0.449   1.012  11.570  0.6640  0.0214 -0.1540
11066TIP3    H254690   0.437   1.033  11.420 -0.2096 -0.5117 -0.1698
11067TIP3   OH254691   4.149   5.131   0.157  0.1274 -0.4896 -0.1550
11067TIP3    H154692   4.222   5.146   0.217 -0.4337 -1.3295  0.7695
11067TIP3    H254693   4.074   5.170   0.202  0.3664  2.7866 -2.2686
11068TIP3   OH254694   3.833   1.947  13.167  0.2781  0.6035 -0.3614
11068TIP3    H154695   3.835   1.942  13.071  0.4640 -1.3925 -0.3080
11068TIP3    H254696   3.741   1.935  13.190  0.4759 -1.0915 -0.2802
11069TIP3   OH254697   0.379   4.253   4.577  0.1496 -0.0170 -0.4856
11069TIP3    H154698   0.318   4.298   4.519 -0.8519  0.3787  0.8163
11069TIP3    H254699   0.453   4.312   4.584  1.0119 -0.7635 -2.5523
11070TIP3   OH254700   1.824   5.353  15.720 -0.1137 -0.4250  0.0105
11070TIP3    H154701   1.756   5.293  15.749  0.4818 -1.6534 -1.0335
11070TIP3    H254702   1.886   5.298  15.672 -0.9124  1.3744 -3.4007
11071TIP3   OH254703   5.911   1.736  17.131  0.0834 -0.4385  0.6324
11071TIP3    H154704   5.926   1.642  17.116 -0.6597 -0.6778  1.3336
11071TIP3    H254705   5.981   1.779  17.082  1.0655 -1.3913  1.1545
11072TIP3   OH254706   1.545   4.801   3.006  1.4887  0.5648 -0.3858
11072TIP3    H154707   1.474   4.746   3.040  0.6377  0.0976 -2.7235
11072TIP3    H254708   1.625   4.757   3.034  0.8744  0.5217  1.4111
11073TIP3   OH254709   0.230   6.818  15.615 -0.3868  0.6133 -0.0161
11073TIP3    H154710   0.254   6.893  15.561  0.7524  0.7522  0.6382
11073TIP3    H254711   0.167   6.852  15.678  1.0007  1.3494  1.0391
11074TIP3   OH254712   0.600   6.157  13.694  0.1225 -0.6645 -0.0697
11074TIP3    H154713   0.682   6.134  13.737  0.2233 -1.3923 -0.6343
11074TIP3    H254714   0.616   6.140  13.601 -0.7452 -1.0490 -0.1556
11075TIP3   OH254715   3.917   6.472   1.279  0.0711 -0.5633  0.0909
11075TIP3    H154716   3.924   6.536   1.349  0.3912 -1.2882  0.7321
11075TIP3    H254717   4.007   6.443   1.263 -0.1508 -1.4835  0.4163
11076TIP3   OH254718   0.808   1.465   6.354 -0.3328 -0.5273 -0.0745
11076TIP3    H154719   0.816   1.414   6.435  1.4107 -2.0081 -1.0991
11076TIP3    H254720   0.846   1.408   6.286 -1.9717  0.5459 -2.0023
11077TIP3   OH254721   3.450   5.937  14.053 -0.0647 -0.4549  0.5491
11077TIP3    H154722   3.359   5.967  14.058 -0.4354 -1.3494 -0.3178
11077TIP3    H254723   3.476   5.957  13.963  1.0728  1.0298  1.1645
11078TIP3   OH254724   4.745   4.582   3.733 -0.1154  0.3707  0.3056
11078TIP3    H154725   4.686   4.510   3.711 -0.5273  0.7789  0.0489
11078TIP3    H254726   4.832   4.550   3.709 -0.4762  0.5864 -1.4142
11079TIP3   OH254727   3.911   0.199   1.032  0.5269 -0.4166 -0.1613
11079TIP3    H154728   3.839   0.146   1.064 -0.5940  0.2768 -1.4319
11079TIP3    H254729   3.901   0.198   0.937  1.5859  0.5453 -0.3054
11080TIP3   OH254730   4.750   0.112   1.695 -0.0384  0.0893 -0.4218
11080TIP3    H154731   4.720   0.160   1.618 -0.9919  0.3460  0.0863
11080TIP3    H254732   4.785   0.180   1.753 -1.2075  0.1694  0.2152
11081TIP3   OH254733   1.252   5.320   0.377  0.2725 -0.7344 -0.2087
11081TIP3    H154734   1.164   5.343   0.346 -2.7688 -5.1289  3.6360
11081TIP3    H254735   1.277   5.246   0.323  1.6492  0.3812 -1.1557
11082TIP3   OH254736   6.683   5.318   5.074  0.2398 -0.5628 -0.4869
11082TIP3    H154737   6.719   5.393   5.121 -2.3094 -0.1008  0.9720
11082TIP3    H254738   6.746   5.248   5.088  0.9046  0.3274  1.3346
11083TIP3   OH254739   3.114   3.947  14.469 -0.3767 -0.1200  0.3012
11083TIP3    H154740   3.049   3.948  14.540  2.6721  0.3220  3.3329
11083TIP3    H254741   3.091   3.869  14.418 -1.8525 -1.3875  2.6942
11084TIP3   OH254742   3.570   0.497   1.862 -0.1648  0.1801  0.3974
11084TIP3    H154743   3.591   0.472   1.772  2.4744  0.3387  0.9046
11084TIP3    H254744   3.508   0.570   1.853 -0.1911 -0.0104 -1.2582
11085TIP3   OH254745   4.985   3.129  15.678  0.6840  0.4993  0.2619
11085TIP3    H154746   5.075   3.126  15.644  1.1221 -1.5010  1.4355
11085TIP3    H254747   4.937   3.066  15.624  0.2572  0.6829  0.4192
11086TIP3   OH254748   6.466   1.264  12.631 -0.3158 -0.2566 -0.2576
11086TIP3    H154749   6.542   1.258  12.689  0.1986  1.6938 -0.6350
11086TIP3    H254750   6.503   1.264  12.543 -0.8836 -0.7302 -0.5031
11087TIP3   OH254751   3.173   6.049  10.867  0.0662  0.6269 -0.5992
11087TIP3    H154752   3.186   5.975  10.808 -1.4783  0.0142 -0.2048
11087TIP3    H254753   3.098   6.096  10.831  0.2078  1.2493 -0.1024
11088TIP3   OH254754   2.535   1.843   1.083  0.0701  0.1753 -0.0733
11088TIP3    H154755   2.570   1.859   1.170  0.8100  1.9994 -0.6480
11088TIP3    H254756   2.440   1.851   1.093  0.1630  0.5428  0.5347
11089TIP3   OH254757   2.376   3.438  13.165 -0.1270 -0.0386 -0.6057
11089TIP3    H154758   2.427   3.408  13.089  1.9252  1.9018 -0.1202
11089TIP3    H254759   2.338   3.521  13.137 -0.8566 -0.1864 -0.0794
11090TIP3   OH254760   0.564   3.631   5.620 -0.1567  0.3759  0.2290
11090TIP3    H154761   0.632   3.595   5.563 -0.9181  0.4870 -0.7984
11090TIP3    H254762   0.594   3.720   5.640 -0.1221  0.5203 -0.4416
11091TIP3   OH254763   4.757   4.492   1.076 -0.1532 -0.4224  0.6723
11091TIP3    H154764   4.685   4.429   1.066  0.5219 -1.3985  1.6998
11091TIP3    H254765   4.813   4.454   1.143  0.6269  0.9826  0.8600
11092TIP3   OH254766   5.139   3.732   1.751 -0.4994 -0.0201  0.0805
11092TIP3    H154767   5.111   3.663   1.811  0.8143 -0.1924  0.5179
11092TIP3    H254768   5.224   3.703   1.719 -0.0307  1.2955  0.0933
11093TIP3   OH254769   4.896   6.489  11.085 -0.2720  0.2980  0.7367
11093TIP3    H154770   4.897   6.393  11.086 -2.3429  0.1785 -0.6829
11093TIP3    H254771   4.988   6.514  11.075  0.5302 -1.4273  2.9316
11094TIP3   OH254772   6.501   3.800   3.887 -0.1278 -0.2607 -0.7209
11094TIP3    H154773   6.500   3.879   3.833  0.1433  0.8202  0.7783
11094TIP3    H254774   6.546   3.735   3.834 -1.8332  0.0498 -2.6786
11095TIP3   OH254775   5.446   2.919   6.324 -0.1167  0.1549 -0.4201
11095TIP3    H154776   5.385   2.992   6.330 -0.1005  0.0760  0.8668
11095TIP3    H254777   5.438   2.873   6.408  0.2100 -1.0531 -1.0177
11096TIP3   OH254778   0.079   2.877   0.292 -0.1627  0.0866 -0.1732
11096TIP3    H154779   0.122   2.961   0.303  0.9706 -0.5838  0.6861
11096TIP3    H254780   0.113   2.843   0.209 -1.4350  0.9075 -1.0790
11097TIP3   OH254781   1.262   4.489  16.160 -0.3406 -0.0488 -0.0416
11097TIP3    H154782   1.297   4.454  16.078  0.7091  1.9224 -0.5076
11097TIP3    H254783   1.171   4.510  16.141 -0.0401  0.6307 -0.8363
11098TIP3   OH254784   2.402   0.416  13.732  0.0846 -0.1262  0.3022
11098TIP3    H154785   2.493   0.446  13.723  0.3535 -1.2067 -0.8296
11098TIP3    H254786   2.362   0.479  13.792  1.8603 -0.2268  1.6973
11099TIP3   OH254787   1.409   2.220  12.553 -0.0925 -0.1140  0.4372
11099TIP3    H154788   1.350   2.166  12.501  1.8470 -0.4151 -1.5710
11099TIP3    H254789   1.351   2.268  12.612 -2.6786  1.5854 -3.1161
11100TIP3   OH254790   2.071   6.728  11.963 -0.0097  0.2577 -0.4720
11100TIP3    H154791   2.008   6.776  12.017  0.9956  1.4362 -0.2963
11100TIP3    H254792   2.119   6.672  12.024 -0.2029  0.1182 -0.4485
11101TIP3   OH254793   2.700   4.520  11.975  0.0614 -0.2167 -0.0279
11101TIP3    H154794   2.688   4.496  12.067  0.7335  0.1810  0.1727
11101TIP3    H254795   2.645   4.458  11.926 -0.6543 -0.1401  0.6661
11102TIP3   OH254796   5.332   0.216   0.164 -0.0039 -0.1407 -0.0947
11102TIP3    H154797   5.383   0.259   0.234 -1.2295  0.3370  0.5241
11102TIP3    H254798   5.251   0.190   0.206 -0.3627 -0.7434 -1.1239
11103TIP3   OH254799   6.165   4.808  13.307  0.0299 -0.1156  0.5233
11103TIP3    H154800   6.110   4.787  13.383  0.5822 -1.0396  0.6917
11103TIP3    H254801   6.117   4.876  13.260 -1.8701 -1.7675 -0.0355
11104TIP3   OH254802   2.631   3.527   0.392  0.1277  0.1056  0.1395
11104TIP3    H154803   2.629   3.518   0.297  0.0010 -0.7987  0.2208
11104TIP3    H254804   2.723   3.516   0.416 -0.0114 -0.9949  0.2283
11105TIP3   OH254805   5.402   4.632   3.270  0.0156  0.4155 -0.2448
11105TIP3    H154806   5.396   4.693   3.196 -2.2789 -0.6330 -1.0058
11105TIP3    H254807   5.328   4.655   3.326  0.3506 -0.3470  0.5365
11106TIP3   OH254808   6.693   3.778   4.705 -0.2085  0.2645 -0.6579
11106TIP3    H154809   6.630   3.821   4.648  2.2045  0.5687 -3.3423
11106TIP3    H254810   6.721   3.700   4.656  1.3466  0.0577  0.4663
11107TIP3   OH254811   4.745   1.759   2.368 -0.0172  0.3391 -0.5572
11107TIP3    H154812   4.839   1.742   2.363 -0.1969 -1.1122  0.5473
11107TIP3    H254813   4.706   1.697   2.307 -0.3471  0.1579 -0.1592
11108TIP3   OH254814   5.655   6.649   4.276 -0.2309  0.1497  0.4099
11108TIP3    H154815   5.561   6.666   4.281 -0.4087 -0.9320  1.0278
11108TIP3    H254816   5.673   6.641   4.183 -0.9167 -0.4717  0.3208
11109TIP3   OH254817   1.128   6.360   4.547 -0.2391  0.2889  0.6063
11109TIP3    H154818   1.149   6.363   4.640 -0.3773 -0.2057  0.6569
11109TIP3    H254819   1.042   6.318   4.543  1.0230 -2.4898  0.0920
11110TIP3   OH254820   3.614   2.145  12.613 -0.0209  0.1882 -0.5155
11110TIP3    H154821   3.639   2.237  12.600  0.2684  0.1106 -0.5188
11110TIP3    H254822   3.578   2.117  12.529  0.9354 -0.0278 -0.8726
11111TIP3   OH254823   5.147   0.649  13.481  0.5734 -0.0037  0.2072
11111TIP3    H154824   5.241   0.631  13.494  0.7689 -0.2276 -1.3524
11111TIP3    H254825   5.137   0.740  13.507  0.6519 -0.6910  2.9837
11112TIP3   OH254826   5.429   2.706   3.293  0.5396  0.0472  0.8123
11112TIP3    H154827   5.496   2.752   3.242  1.9995 -0.7598  1.9070
11112TIP3    H254828   5.460   2.615   3.295 -0.9511 -0.4792  0.8243
11113TIP3   OH254829   5.431   0.799  16.383 -0.3312 -0.2292 -0.0963
11113TIP3    H154830   5.370   0.771  16.451 -0.8129 -1.1569 -0.8826
11113TIP3    H254831   5.378   0.803  16.303  0.0200  1.7494 -0.2648
11114TIP3   OH254832   2.407   3.937   4.622 -0.7357 -0.5140  0.4843
11114TIP3    H154833   2.370   3.995   4.555  1.0921 -0.9017 -0.9394
11114TIP3    H254834   2.446   3.995   4.687  0.0278 -0.1229 -0.3082
11115TIP3   OH254835   4.555   3.804   2.881  0.0276  0.6153 -0.3431
11115TIP3    H154836   4.556   3.840   2.970 -0.7090 -0.3358  0.0768
11115TIP3    H254837   4.462   3.792   2.862  0.2330 -0.6655 -0.6198
11116TIP3   OH254838   1.165   0.414  15.768  0.3097  0.5397 -0.9130
11116TIP3    H154839   1.093   0.358  15.738 -0.5247  0.8850  0.3415
11116TIP3    H254840   1.221   0.424  15.691 -0.3495 -0.7216 -1.5947
11117TIP3   OH254841   1.528   4.403   1.220 -0.2765  0.0780 -0.2885
11117TIP3    H154842   1.453   4.366   1.173 -0.1267  1.9659 -2.1925
11117TIP3    H254843   1.605   4.368   1.174 -0.0956  0.8151 -0.5627
11118TIP3   OH254844   1.510   5.038   0.538 -0.2763 -0.2869 -0.0713
11118TIP3    H154845   1.538   5.122   0.503  2.2763 -0.8313  0.4982
11118TIP3    H254846   1.492   5.055   0.631  0.0785 -0.3193  0.0055
11119TIP3   OH254847   5.037   1.413  17.020  0.1234 -0.1245 -0.1930
11119TIP3    H154848   4.990   1.335  17.051 -0.4869  0.2547 -0.1644
11119TIP3    H254849   4.991   1.438  16.940 -1.5648  1.9269  1.3098
11120TIP3   OH254850   4.074   3.445   4.444  0.1316  0.0340 -0.2154
11120TIP3    H154851   4.025   3.400   4.375 -1.9738  3.4061 -1.1172
11120TIP3    H254852   4.165   3.436   4.418 -0.3159 -2.0311 -1.2972
11121TIP3   OH254853   6.667   5.218  11.624  0.0686  0.0169  0.2478
11121TIP3    H154854   6.609   5.146  11.599  0.1103 -0.3011  1.0307
11121TIP3    H254855   6.658   5.223  11.719  1.6167 -0.3088  0.4378
11122TIP3   OH254856   2.077   4.785   0.704  0.1407  0.9317  0.2544
11122TIP3    H154857   2.001   4.818   0.752  1.3122  0.8073  2.3417
11122TIP3    H254858   2.089   4.846   0.632 -2.3502  0.5158 -0.6078
11123TIP3   OH254859   0.913   1.990  12.492  0.4219  0.3312 -0.3842
11123TIP3    H154860   0.821   1.965  12.497  0.1121  1.1066 -1.6135
11123TIP3    H254861   0.926   2.050  12.565  0.3638 -0.9441  0.6952
11124TIP3   OH254862   2.036   4.502  15.488  0.3316  0.9088 -0.2221
11124TIP3    H154863   2.090   4.555  15.546  0.7662  1.2343 -0.9011
11124TIP3    H254864   1.951   4.547  15.486 -0.2765 -0.0936  1.5384
11125TIP3   OH254865   4.636   4.373   3.603 -0.0304  0.8743  0.4611
11125TIP3    H154866   4.608   4.419   3.524  1.3514  0.1146 -0.4995
11125TIP3    H254867   4.705   4.314   3.574  1.1361  1.2011  2.3807
11126TIP3   OH254868   5.283   3.200  15.022  0.6245 -0.0119  0.4094
11126TIP3    H154869   5.298   3.113  15.058  0.1905 -0.2052  0.1277
11126TIP3    H254870   5.188   3.204  15.006  0.6264  0.5396  0.4950
11127TIP3   OH254871   5.608   2.368  14.351 -0.3339 -0.5015  0.5647
11127TIP3    H154872   5.632   2.323  14.270 -0.6342 -2.9272  1.7393
11127TIP3    H254873   5.549   2.307  14.395  0.3309  0.4716  2.9091
11128TIP3   OH254874   2.402   1.004  14.820  0.7640  0.2464  0.3596
11128TIP3    H154875   2.441   0.945  14.756 -0.1219  2.8178 -2.8107
11128TIP3    H254876   2.374   1.080  14.769  0.0990  2.5979  3.8753
11129TIP3   OH254877   1.923   4.808  11.773  0.1363  0.0289 -0.2601
11129TIP3    H154878   1.857   4.752  11.732 -0.3212  1.1694 -1.1365
11129TIP3    H254879   1.995   4.749  11.793 -0.0090 -0.7562 -1.8667
11130TIP3   OH254880   4.655   1.608   3.765  0.0347 -0.0932  0.6040
11130TIP3    H154881   4.681   1.517   3.750  1.0018  0.1762  0.5401
11130TIP3    H254882   4.738   1.655   3.768 -0.4898  0.9129 -0.1691
11131TIP3   OH254883   6.782   1.960  15.799 -0.3175  0.3487  0.0959
11131TIP3    H154884   6.822   1.924  15.878 -0.2252  0.7041  0.2131
11131TIP3    H254885   6.840   1.932  15.728 -0.7090 -0.4608  0.0781
11132TIP3   OH254886   5.390   1.228   6.134 -0.3722 -0.3996 -0.0001
11132TIP3    H154887   5.399   1.149   6.186 -0.3899 -2.1401 -2.4939
11132TIP3    H254888   5.299   1.228   6.104 -0.6455  1.1036  0.7275
11133TIP3   OH254889   3.833   4.725  13.587  0.3129  0.1234  0.1073
11133TIP3    H154890   3.816   4.649  13.643 -0.1057  0.2652  0.1754
11133TIP3    H254891   3.920   4.708  13.549  0.3514 -0.2428  0.3569
11134TIP3   OH254892   2.257   3.289   5.370  0.1039  0.1964 -0.0013
11134TIP3    H154893   2.230   3.267   5.280 -0.7201 -0.5408  0.4141
11134TIP3    H254894   2.200   3.361   5.395 -0.5134 -0.4099  0.3619
11135TIP3   OH254895   0.385   6.599   0.242 -0.3232 -0.1304 -0.7756
11135TIP3    H154896   0.295   6.629   0.259 -0.2869 -0.3708 -0.1437
11135TIP3    H254897   0.439   6.676   0.263 -0.3223 -0.2459 -0.3401
11136TIP3   OH254898   2.301   2.691   2.250 -0.2172  0.5605  0.3398
11136TIP3    H154899   2.280   2.621   2.188  1.6621  0.7420 -0.5793
11136TIP3    H254900   2.263   2.662   2.333 -1.9755 -0.1347 -0.6685
11137TIP3   OH254901   0.422   6.349  16.141  0.0110  0.6045 -0.2320
11137TIP3    H154902   0.357   6.279  16.140  0.0857  0.4437  1.9366
11137TIP3    H254903   0.413   6.391  16.056 -1.4035 -0.7847 -0.8212
11138TIP3   OH254904   4.027   0.804  14.973  0.0357 -0.5315  0.1188
11138TIP3    H154905   4.070   0.724  15.003  1.0596 -0.2170 -0.4596
11138TIP3    H254906   4.049   0.810  14.880  1.9177  1.5735  0.6067
11139TIP3   OH254907   0.152   4.101  16.338  0.2293 -0.2043 -0.0829
11139TIP3    H154908   0.204   4.112  16.258  0.1374 -0.1239 -0.1320
11139TIP3    H254909   0.183   4.171  16.396  1.6019 -1.3767  0.6536
11140TIP3   OH254910   2.363   5.899  13.547 -0.5408 -0.2903 -0.1311
11140TIP3    H154911   2.438   5.907  13.606  1.5763 -1.2187 -2.5122
11140TIP3    H254912   2.326   5.987  13.544 -1.1757 -0.3346  2.9822
11141TIP3   OH254913   6.346   2.082   4.051 -0.5382  0.1196 -0.2604
11141TIP3    H154914   6.366   2.167   4.090  0.6211  0.7546 -2.1153
11141TIP3    H254915   6.255   2.065   4.076 -0.3911  1.2889  1.2008
11142TIP3   OH254916   1.802   0.094   3.463 -0.0437  0.0743 -0.4390
11142TIP3    H154917   1.891   0.067   3.483 -0.3365 -1.1177 -0.6730
11142TIP3    H254918   1.795   0.090   3.368 -0.5995 -0.7177 -0.3754
11143TIP3   OH254919   5.553   4.874   2.811 -0.1112  0.1392 -0.1561
11143TIP3    H154920   5.561   4.928   2.733 -1.1780  1.1909  0.4166
11143TIP3    H254921   5.537   4.786   2.779 -0.5111  0.5538 -1.1237
11144TIP3   OH254922   3.318   5.678   0.976 -0.0492  0.2404  0.3540
11144TIP3    H154923   3.235   5.726   0.974  0.2012  0.6921  0.5973
11144TIP3    H254924   3.385   5.746   0.981  0.3936 -0.0682 -0.8837
11145TIP3   OH254925   4.526   0.352  11.314  0.6641  0.0348 -0.0464
11145TIP3    H154926   4.438   0.323  11.290  0.4941 -0.2911  0.9211
11145TIP3    H254927   4.528   0.345  11.409  1.1434  1.7637  0.1019
11146TIP3   OH254928   1.170   5.844  15.588 -0.8499 -0.3370 -0.4162
11146TIP3    H154929   1.244   5.821  15.646 -1.2199 -1.7649 -0.4707
11146TIP3    H254930   1.105   5.776  15.606 -2.3630  1.1624 -0.0302
11147TIP3   OH254931   3.856   5.888   4.827  0.0313 -0.0170 -0.0486
11147TIP3    H154932   3.898   5.823   4.885 -1.5640 -1.1921 -0.1445
11147TIP3    H254933   3.822   5.836   4.754 -1.6018  0.8667  0.0424
11148TIP3   OH254934   2.504   4.223   1.719  0.0939  0.5195  0.0385
11148TIP3    H154935   2.565   4.258   1.654  1.2109 -0.2909  0.6257
11148TIP3    H254936   2.438   4.177   1.667 -0.1791  1.6192 -0.6185
11149TIP3   OH254937   3.564   0.161  15.863 -0.1383 -0.1956  0.0169
11149TIP3    H154938   3.597   0.165  15.953  0.4654  0.2526 -0.2201
11149TIP3    H254939   3.630   0.110  15.816  0.0362  0.3924 -0.3799
11150TIP3   OH254940   0.671   1.735   5.984  0.1357  0.0506  0.0442
11150TIP3    H154941   0.636   1.710   5.898 -3.5515 -0.7201  1.5564
11150TIP3    H254942   0.722   1.659   6.012 -0.3396 -0.5322 -0.6393
11151TIP3   OH254943   1.817   1.234  13.786 -0.2801 -0.5059 -0.5482
11151TIP3    H154944   1.821   1.255  13.880 -0.5933  1.6341 -0.9469
11151TIP3    H254945   1.761   1.157  13.781 -2.2166  0.7039  0.8904
11152TIP3   OH254946   3.860   2.340   1.906  0.2382  0.5481 -0.5688
11152TIP3    H154947   3.791   2.285   1.944 -0.4025  1.5295 -0.2699
11152TIP3    H254948   3.838   2.429   1.935  2.2740  0.7580  0.5038
11153TIP3   OH254949   0.171   2.773   2.086 -0.2584 -0.2060 -0.4215
11153TIP3    H154950   0.091   2.721   2.082 -0.5341 -0.0235  1.6756
11153TIP3    H254951   0.141   2.863   2.093  0.1920  0.0693 -1.7438
11154TIP3   OH254952   1.983   6.588  13.921 -0.2463  0.7412 -0.2484
11154TIP3    H154953   1.956   6.674  13.891 -0.1418  0.6511 -0.6035
11154TIP3    H254954   2.065   6.603  13.968 -1.4239  1.1846  1.8160
11155TIP3   OH254955   6.793   5.962  15.488 -0.1122  0.2921  0.2534
11155TIP3    H154956   6.769   6.001  15.404  0.5148  2.3203  0.9738
11155TIP3    H254957   6.746   6.013  15.554 -0.4886 -1.1844  1.1764
11156TIP3   OH254958   2.789   3.552  14.510 -0.1878  0.0134  0.2425
11156TIP3    H154959   2.834   3.570  14.428  0.4529 -2.4057 -0.0252
11156TIP3    H254960   2.708   3.508  14.484 -0.3190 -0.1212  0.8603
11157TIP3   OH254961   6.039   6.625  11.324 -0.2121  0.3568  1.0456
11157TIP3    H154962   5.991   6.572  11.261 -0.3280  2.8540 -1.1514
11157TIP3    H254963   6.131   6.601  11.311 -0.1995  1.0875 -0.4007
11158TIP3   OH254964   4.974   4.144   6.080 -0.6111 -0.3992 -0.4952
11158TIP3    H154965   4.989   4.228   6.124  1.2792 -0.5623 -0.7440
11158TIP3    H254966   4.950   4.168   5.990 -2.2051 -0.1201 -0.0336
11159TIP3   OH254967   5.138   1.879  15.093 -0.3871 -0.0710  0.1687
11159TIP3    H154968   5.080   1.861  15.167 -2.9207  1.3659 -1.3267
11159TIP3    H254969   5.176   1.964  15.113 -3.0653  1.5848 -1.1682
11160TIP3   OH254970   4.349   4.469  17.244  0.4215  0.2111 -0.1705
11160TIP3    H154971   4.301   4.431  17.171 -0.3494 -1.2080  1.0172
11160TIP3    H254972   4.441   4.461  17.219  0.2900 -2.3098 -0.1095
11161TIP3   OH254973   3.041   4.929   2.698  0.5757 -0.2605  0.7734
11161TIP3    H154974   2.974   4.933   2.630 -0.3849  1.6842  1.7814
11161TIP3    H254975   3.023   4.847   2.745 -0.6949 -0.0717  0.6355
11162TIP3   OH254976   5.391   3.026  13.550  0.1037 -0.2211  0.6345
11162TIP3    H154977   5.465   3.058  13.602  0.1415 -0.6615  0.8543
11162TIP3    H254978   5.426   3.020  13.461  0.0595  0.4630  0.5653
11163TIP3   OH254979   4.374   3.938   3.986  0.1149  0.1347  0.0225
11163TIP3    H154980   4.293   3.989   3.976  0.8477  2.8861  4.8490
11163TIP3    H254981   4.444   3.999   3.963  0.8962  0.2251  2.3323
11164TIP3   OH254982   3.906   3.390  11.381  0.1846 -0.2638  0.1448
11164TIP3    H154983   3.906   3.405  11.476 -0.3081 -0.7384  0.2282
11164TIP3    H254984   3.897   3.477  11.343 -0.6865 -0.1587  0.5664
11165TIP3   OH254985   3.626   3.327  13.234  0.0270  0.4756 -0.0524
11165TIP3    H154986   3.716   3.295  13.230  0.3491  1.1508  1.2151
11165TIP3    H254987   3.601   3.342  13.143  1.7303  1.6984 -0.3601
11166TIP3   OH254988   3.203   4.712  11.739  0.2495 -0.3545  0.2513
11166TIP3    H154989   3.197   4.697  11.645 -1.0844 -3.4638  0.6867
11166TIP3    H254990   3.153   4.640  11.778  1.5049  0.2725  3.3765
11167TIP3   OH254991   2.846   6.330   2.463  0.0525  0.0124  0.0353
11167TIP3    H154992   2.852   6.301   2.554 -1.7100 -0.0841  0.1582
11167TIP3    H254993   2.829   6.424   2.469 -1.1832 -0.1783 -0.1196
11168TIP3   OH254994   0.662   5.375   5.979  0.0329  0.4498  0.1069
11168TIP3    H154995   0.739   5.320   5.965 -0.6491 -0.2740 -0.8952
11168TIP3    H254996   0.677   5.416   6.064  1.6214  0.4927 -0.1635
11169TIP3   OH254997   1.184   2.999   3.260  0.1288  0.2038 -0.4620
11169TIP3    H154998   1.222   3.086   3.250  1.6819 -0.1087  1.7528
11169TIP3    H254999   1.250   2.940   3.223  0.9732 -0.2104  1.5547
11170TIP3   OH255000   2.563   3.478   1.119 -0.0500  0.2590 -0.1014
11170TIP3    H155001   2.570   3.543   1.049 -1.9445  0.0747 -0.5173
11170TIP3    H255002   2.638   3.495   1.176  2.2875 -0.3593 -2.7854
11171TIP3   OH255003   4.502   4.685  14.739  0.9004  0.0924 -0.1778
11171TIP3    H155004   4.427   4.719  14.788  0.9733  0.0004 -0.0004
11171TIP3    H255005   4.568   4.668  14.806  0.3105 -1.9387 -0.0403
11172TIP3   OH255006   0.856   4.172   5.254 -0.2577 -0.0025 -0.7711
11172TIP3    H155007   0.779   4.126   5.220 -0.4413  0.6228 -1.2134
11172TIP3    H255008   0.899   4.210   5.177  0.3818 -0.1730 -0.5072
11173TIP3   OH255009   4.396   0.931  14.447  0.1607 -0.5250  0.8356
11173TIP3    H155010   4.416   0.926  14.541 -1.2236 -0.0488  1.1640
11173TIP3    H255011   4.417   1.021  14.423 -0.4972 -0.3403  0.9365
11174TIP3   OH255012   2.183   6.521   4.796 -0.3870  0.2038 -0.1683
11174TIP3    H155013   2.274   6.530   4.768 -0.2654  0.3037  0.2393
11174TIP3    H255014   2.188   6.466   4.875 -0.8582 -1.3061 -1.1492
11175TIP3   OH255015   4.341   1.085  10.561  0.4391 -0.4031  0.3655
11175TIP3    H155016   4.279   1.018  10.532 -1.1441  0.5531  1.3504
11175TIP3    H255017   4.338   1.152  10.493 -1.2012  0.5749  1.3395
11176TIP3   OH255018   4.403   6.035  11.080 -0.2737  0.0416  0.0688
11176TIP3    H155019   4.467   6.103  11.061 -0.9110  0.9977  1.1915
11176TIP3    H255020   4.405   6.025  11.175 -0.7034 -1.0007 -0.0132
11177TIP3   OH255021   0.851   2.727   4.337 -0.1152 -0.5570  0.0285
11177TIP3    H155022   0.863   2.803   4.281  1.3476 -1.8744 -1.5758
11177TIP3    H255023   0.901   2.746   4.416  1.6729 -0.5021 -1.0649
11178TIP3   OH255024   4.464   4.150   3.451 -0.5445  0.2183 -0.2794
11178TIP3    H155025   4.520   4.107   3.515  0.0681  0.5031 -0.6085
11178TIP3    H255026   4.520   4.160   3.374 -2.0795 -2.7269 -1.9500
11179TIP3   OH255027   5.438   2.795  16.648  0.0676 -0.2422 -0.0643
11179TIP3    H155028   5.448   2.852  16.572  0.4823  1.3896  1.1569
11179TIP3    H255029   5.527   2.782  16.681 -0.1416 -0.5866  0.3812
11180TIP3   OH255030   2.310   1.899   0.464  0.4187  0.8791 -0.1027
11180TIP3    H155031   2.224   1.934   0.487 -1.3038 -2.7285 -0.4323
11180TIP3    H255032   2.304   1.876   0.371  1.2838 -0.5014  0.1442
11181TIP3   OH255033   3.389   1.542  13.792  0.3582  0.2074  0.0785
11181TIP3    H155034   3.297   1.542  13.816 -0.1812 -3.4802 -1.3212
11181TIP3    H255035   3.393   1.592  13.710 -1.0179 -1.9102 -1.3763
11182TIP3   OH255036   1.995   3.286  13.046 -0.0449 -0.1212  0.3479
11182TIP3    H155037   2.037   3.277  12.960 -0.0524  2.2928  0.0244
11182TIP3    H255038   1.901   3.278  13.027  0.0286 -1.5861  0.4766
11183TIP3   OH255039   3.907   1.996   2.561  0.2088  0.5530 -0.1205
11183TIP3    H155040   3.995   2.027   2.583  1.1047 -1.7175 -0.2045
11183TIP3    H255041   3.856   2.012   2.640  1.3696 -0.3072  0.8595
11184TIP3   OH255042   3.937   3.915   4.207 -0.1229  0.1189 -0.4132
11184TIP3    H155043   3.847   3.949   4.206 -0.3900 -0.4680  1.1609
11184TIP3    H255044   3.987   3.980   4.255  0.0168 -0.2175 -0.1032
11185TIP3   OH255045   4.586   3.836  16.377 -0.0366  0.4527  0.2603
11185TIP3    H155046   4.636   3.784  16.440 -2.2569  0.8652  2.4832
11185TIP3    H255047   4.586   3.924  16.413  0.7252  1.3067 -1.6710
11186TIP3   OH255048   2.319   3.676   0.584 -0.0818 -0.0692 -0.1416
11186TIP3    H155049   2.237   3.710   0.619  0.6867 -0.6951  2.5321
11186TIP3    H255050   2.381   3.748   0.595  0.5074 -0.7550  1.2508
11187TIP3   OH255051   3.974   5.129  12.027 -0.4305  0.8096 -0.5371
11187TIP3    H155052   3.880   5.120  12.012 -0.3515  1.9944 -1.8873
11187TIP3    H255053   3.990   5.223  12.031  0.8584  0.6596 -1.4571
11188TIP3   OH255054   3.947   2.785   1.747 -0.2011 -0.0112 -0.0911
11188TIP3    H155055   3.941   2.874   1.782  2.2170  0.4381 -0.6230
11188TIP3    H255056   3.944   2.797   1.652  2.0275 -0.2339 -0.2387
11189TIP3   OH255057   3.105   5.073   4.843 -0.0710 -0.7499  0.2546
11189TIP3    H155058   3.189   5.051   4.803  0.0796  0.9592 -0.5050
11189TIP3    H255059   3.127   5.127   4.919 -0.4329 -2.1818  1.4070
11190TIP3   OH255060   2.325   4.694  13.605  0.0402 -0.2033  0.3921
11190TIP3    H155061   2.339   4.647  13.522  0.0009  1.6988 -0.7358
11190TIP3    H255062   2.233   4.676  13.626 -0.5643  0.9109 -1.0802
11191TIP3   OH255063   2.867   4.067  14.224  0.1200  0.5283 -0.2391
11191TIP3    H155064   2.897   4.125  14.155  0.0967  0.5147 -0.2602
11191TIP3    H255065   2.939   4.067  14.288  1.0342 -1.0473 -1.2079
11192TIP3   OH255066   3.590   2.767  17.048 -0.0624  0.3087 -0.1488
11192TIP3    H155067   3.550   2.799  17.129  1.0672  1.3652  0.0199
11192TIP3    H255068   3.518   2.724  17.002 -0.5439 -1.0580  1.7631
11193TIP3   OH255069   2.307   3.584   6.422 -0.2893 -0.5155 -0.0010
11193TIP3    H155070   2.227   3.587   6.370 -0.2664 -2.3806 -0.1981
11193TIP3    H255071   2.332   3.676   6.433 -1.5328  0.0166 -1.3453
11194TIP3   OH255072   2.044   2.740   4.573  0.5183  0.0157 -0.3633
11194TIP3    H155073   1.994   2.662   4.595  2.0071 -0.7031  0.6767
11194TIP3    H255074   2.065   2.780   4.657  2.1681 -0.0600 -0.6980
11195TIP3   OH255075   6.534   2.732  17.145 -0.2656  0.1959  0.0438
11195TIP3    H155076   6.560   2.807  17.091 -0.1083 -0.7065 -1.1716
11195TIP3    H255077   6.563   2.756  17.234  0.0964  1.4149 -0.3776
11196TIP3   OH255078   1.346   3.168   5.500 -0.5064  0.4766  0.2527
11196TIP3    H155079   1.264   3.214   5.517 -0.8292 -0.7195  2.1780
11196TIP3    H255080   1.410   3.213   5.556 -0.9003 -1.5191  2.4444
11197TIP3   OH255081   2.106   0.122  10.907 -0.0308 -0.5567  0.0784
11197TIP3    H155082   2.112   0.120  10.812 -0.0963 -1.5706  0.0839
11197TIP3    H255083   2.194   0.100  10.937  0.2057  0.5870  0.2687
11198TIP3   OH255084   4.456   1.243   5.123 -0.2296 -0.1017 -1.0409
11198TIP3    H155085   4.379   1.299   5.132 -0.1146 -0.2062  0.9876
11198TIP3    H255086   4.530   1.304   5.129 -0.1276 -0.1398 -1.8166
11199TIP3   OH255087   2.617   0.484   6.142  0.3154 -0.0907  0.1801
11199TIP3    H155088   2.557   0.420   6.181  0.3605  0.0696  0.5195
11199TIP3    H255089   2.639   0.448   6.057  2.2886 -1.7622  1.3201
11200TIP3   OH255090   6.763   3.349  17.133 -0.1458  0.3503  0.0101
11200TIP3    H155091   6.702   3.415  17.102  1.4775  1.6408 -0.5641
11200TIP3    H255092   6.716   3.266  17.122 -1.6867  1.2679 -0.6220
11201TIP3   OH255093   0.270   4.929  11.626  0.3557 -0.4284  0.1692
11201TIP3    H155094   0.250   4.879  11.706  0.3616  0.4846  0.7623
11201TIP3    H255095   0.221   5.010  11.636 -0.7740 -0.8721 -1.4392
11202TIP3   OH255096   6.105   3.249  11.278 -0.6459  0.2867  0.5943
11202TIP3    H155097   6.140   3.197  11.350  0.4118 -0.6639 -0.5535
11202TIP3    H255098   6.158   3.224  11.202 -1.9207  1.0158 -0.5941
11203TIP3   OH255099   5.967   0.416   0.502  0.0927 -0.3365 -0.3688
11203TIP3    H155100   5.942   0.324   0.506 -0.3572 -0.2621 -1.3098
11203TIP3    H255101   5.884   0.463   0.500  0.3135  0.1391  0.7652
11204TIP3   OH255102   3.290   3.959  17.166  0.2722  0.1466 -0.4094
11204TIP3    H155103   3.314   3.868  17.148 -0.5061 -0.2809  0.6182
11204TIP3    H255104   3.237   3.985  17.090  1.3042  0.0857 -1.1777
11205TIP3   OH255105   6.081   6.448   3.095  0.2490 -0.1507  0.0499
11205TIP3    H155106   6.052   6.428   3.006 -1.0505  1.1958  0.1365
11205TIP3    H255107   6.001   6.451   3.147  0.6416  2.0395  0.6371
11206TIP3   OH255108   5.185   1.988   5.002 -0.0378  0.0037  0.1886
11206TIP3    H155109   5.156   1.913   4.950  1.4711  0.6099 -1.6015
11206TIP3    H255110   5.280   1.986   4.996  0.0760  1.3426  1.1897
11207TIP3   OH255111   0.208   2.170  12.599  0.0482 -0.5205 -0.0556
11207TIP3    H155112   0.298   2.199  12.613  0.0054 -0.4339  0.0411
11207TIP3    H255113   0.153   2.242  12.632 -0.0560 -0.6213 -0.0058
11208TIP3   OH255114   4.735   5.819  11.456 -0.0761  0.4536  0.0203
11208TIP3    H155115   4.738   5.742  11.399  0.5848 -0.8654  1.7535
11208TIP3    H255116   4.685   5.791  11.532 -0.0794  1.8448  0.5605
11209TIP3   OH255117   0.031   1.121   3.748 -0.0949 -0.3315  0.5385
11209TIP3    H155118   0.023   1.061   3.822  2.9026 -0.9677  0.4749
11209TIP3    H255119   0.036   1.208   3.788 -2.3144 -0.2426  0.7598
11210TIP3   OH255120   5.846   4.363   3.011 -0.2144 -0.0043  0.1175
11210TIP3    H155121   5.879   4.357   2.922  1.2407 -0.9609  0.6883
11210TIP3    H255122   5.906   4.423   3.055  0.3862 -1.1881  0.9782
11211TIP3   OH255123   1.144   2.683   1.963 -0.7486  0.2358 -0.1951
11211TIP3    H155124   1.124   2.776   1.950  1.6543  0.5914 -2.1579
11211TIP3    H255125   1.221   2.682   2.018 -0.5050 -0.5726 -0.5299
11212TIP3   OH255126   1.810   1.382   2.442 -0.3837 -0.4231 -0.0422
11212TIP3    H155127   1.837   1.407   2.530  0.5410  0.0446 -0.4475
11212TIP3    H255128   1.875   1.317   2.414 -0.8817 -0.8467 -0.2501
11213TIP3   OH255129   6.375   4.929  12.701  0.2775 -0.4204 -0.1832
11213TIP3    H155130   6.345   4.896  12.616 -0.3373 -2.5240  0.8105
11213TIP3    H255131   6.471   4.922  12.697  0.1637 -2.6690  0.0818
11214TIP3   OH255132   3.388   6.502  15.402 -0.7475  0.3807  0.4225
11214TIP3    H155133   3.331   6.430  15.431 -1.1973  0.8266  0.6730
11214TIP3    H255134   3.433   6.468  15.326 -0.1858 -0.5302  1.1392
11215TIP3   OH255135   1.245   0.135  15.354 -0.1446 -0.4744 -0.1912
11215TIP3    H155136   1.272   0.226  15.364  2.3160 -0.8410 -2.4295
11215TIP3    H255137   1.244   0.121  15.259 -2.8744 -2.1756 -0.0387
11216TIP3   OH255138   2.629   2.201   0.611  0.3542 -0.3605 -0.5710
11216TIP3    H155139   2.603   2.227   0.700 -1.8497 -0.5696 -1.1041
11216TIP3    H255140   2.721   2.228   0.604  0.8607 -1.0635  2.0424
11217TIP3   OH255141   6.208   6.730  13.580  0.2060  0.5323  0.4363
11217TIP3    H155142   6.216   6.823  13.601  2.9917  1.0089 -2.0153
11217TIP3    H255143   6.117   6.720  13.551  0.1172  2.7864 -0.2809
11218TIP3   OH255144   0.114   0.842  15.952  0.0563  0.0540 -0.2993
11218TIP3    H155145   0.086   0.932  15.937  1.1218  0.4199 -0.1945
11218TIP3    H255146   0.200   0.836  15.909  1.1295 -0.1668  1.7197
11219TIP3   OH255147   1.547   3.344  13.607  0.4119  0.3314  0.1312
11219TIP3    H155148   1.565   3.416  13.668  0.8649  0.9259 -0.6942
11219TIP3    H255149   1.632   3.304  13.591  0.1046 -0.6627  0.9035
11220TIP3   OH255150   4.753   0.792   0.875  0.0601 -0.0113 -0.0329
11220TIP3    H155151   4.794   0.864   0.826  1.2742  1.2642  2.6362
11220TIP3    H255152   4.818   0.723   0.875 -0.1642 -0.2247 -0.6611
11221TIP3   OH255153   0.610   1.572  14.416 -0.1979 -0.1133 -0.0092
11221TIP3    H155154   0.667   1.523  14.357  0.6073  1.7396 -0.8315
11221TIP3    H255155   0.655   1.655  14.430 -1.8319  0.6851  0.8010
11222TIP3   OH255156   0.639   2.657   0.376  0.4922 -0.3830  0.0584
11222TIP3    H155157   0.608   2.586   0.431  2.5249 -2.7882 -1.6529
11222TIP3    H255158   0.725   2.680   0.412 -0.0262  1.0708  0.4274
11223TIP3   OH255159   2.186   2.884  11.048 -0.2417  0.1010 -0.4713
11223TIP3    H155160   2.120   2.855  10.985 -0.6581  0.8299 -0.3732
11223TIP3    H255161   2.239   2.947  10.999 -1.2786  1.5575  0.2232
11224TIP3   OH255162   4.888   2.199   4.689  0.3536 -0.4180 -0.4551
11224TIP3    H155163   4.963   2.159   4.646  1.0127  1.9631 -1.7035
11224TIP3    H255164   4.903   2.185   4.782  0.7063 -2.6585 -0.8049
11225TIP3   OH255165   6.632   1.368   4.201  0.1728  0.5141 -0.1747
11225TIP3    H155166   6.719   1.361   4.240 -0.0845  0.7443  0.4503
11225TIP3    H255167   6.627   1.458   4.170 -0.0618  0.6822  0.3350
11226TIP3   OH255168   0.503   6.724   3.614 -0.1321  0.1175  0.3078
11226TIP3    H155169   0.558   6.785   3.663  1.0486 -1.6494  1.3025
11226TIP3    H255170   0.482   6.655   3.677 -0.0212 -1.3381 -1.1834
11227TIP3   OH255171   2.526   2.663  13.156  0.1169 -0.4982 -0.0712
11227TIP3    H155172   2.465   2.597  13.123  0.0731  0.0041 -1.0490
11227TIP3    H255173   2.539   2.722  13.082  3.7544 -1.9552 -0.7988
11228TIP3   OH255174   6.788   0.335  14.405 -0.8021 -0.9769  0.7749
11228TIP3    H155175   6.755   0.247  14.384 -1.6515 -0.6557  0.7305
11228TIP3    H255176   6.832   0.324  14.489 -2.4981 -1.1105  1.7081
11229TIP3   OH255177   3.580   0.605  12.613 -0.1769  0.1838 -0.1484
11229TIP3    H155178   3.518   0.576  12.546 -0.0570  2.0074 -1.1205
11229TIP3    H255179   3.524   0.636  12.685 -0.3596  0.1531 -0.2746
11230TIP3   OH255180   4.296   5.594   2.925  0.3049 -0.0675 -0.4796
11230TIP3    H155181   4.356   5.628   2.991 -0.3519  0.8008 -0.3075
11230TIP3    H255182   4.254   5.519   2.967  0.6959 -0.2029 -0.3217
11231TIP3   OH255183   5.609   5.275   5.584  0.5865 -0.7439 -0.0921
11231TIP3    H155184   5.545   5.258   5.653  1.7162 -0.8641  0.9625
11231TIP3    H255185   5.613   5.370   5.579  1.0657 -0.7208  0.5735
11232TIP3   OH255186   6.271   4.572   4.805  0.0207 -0.1411  0.0868
11232TIP3    H155187   6.183   4.533   4.805 -0.0001 -0.1022 -0.4631
11232TIP3    H255188   6.314   4.533   4.881 -0.6627  0.2842  0.7053
11233TIP3   OH255189   3.112   1.488   1.957  0.1474 -0.1061 -0.3132
11233TIP3    H155190   3.154   1.566   1.922  0.9490 -1.0701 -1.6203
11233TIP3    H255191   3.028   1.484   1.911  0.2144 -0.1458 -0.4328
11234TIP3   OH255192   2.965   6.718   3.994  0.2590  0.0974 -0.1912
11234TIP3    H155193   2.954   6.626   3.968  1.6294 -0.3845  0.8226
11234TIP3    H255194   2.886   6.738   4.044  0.1241 -0.6568 -0.0880
11235TIP3   OH255195   0.255   3.927  15.046 -0.1150 -0.4817  0.1249
11235TIP3    H155196   0.273   4.019  15.063  0.7273 -0.4998 -0.6268
11235TIP3    H255197   0.276   3.882  15.128  3.8903 -0.5858 -0.7602
11236TIP3   OH255198   6.375   3.615  14.758 -0.3918 -0.2496 -0.3893
11236TIP3    H155199   6.308   3.683  14.753  0.0127  0.1722 -0.1468
11236TIP3    H255200   6.348   3.561  14.833  0.0667  0.4962  0.3237
11237TIP3   OH255201   0.502   2.793  16.938  0.0537  0.0411 -0.0534
11237TIP3    H155202   0.532   2.707  16.909 -1.2116 -0.2270 -0.6429
11237TIP3    H255203   0.566   2.820  17.004  1.1104 -0.8361 -0.6831
11238TIP3   OH255204   2.063   2.077   3.156  0.3065  0.0360 -0.2926
11238TIP3    H155205   2.075   2.166   3.187  1.0493 -0.2983  0.4215
11238TIP3    H255206   2.084   2.081   3.063 -2.1844  1.1018 -0.8722
11239TIP3   OH255207   2.980   2.419  11.886  0.1237  0.6495  0.9327
11239TIP3    H155208   3.041   2.470  11.833  0.3427 -0.7186 -0.1699
11239TIP3    H255209   2.897   2.466  11.879 -0.6624 -0.9587 -3.1150
11240TIP3   OH255210   5.921   0.405   2.634  0.0150 -0.8743  0.3896
11240TIP3    H155211   5.836   0.362   2.639 -0.1904 -0.3411  2.2599
11240TIP3    H255212   5.905   0.494   2.664  1.1842 -0.6860  0.5113
11241TIP3   OH255213   1.094   0.318  16.455 -0.2363  0.0614  0.5356
11241TIP3    H155214   1.089   0.256  16.383  1.3708  1.5549 -0.9690
11241TIP3    H255215   1.059   0.271  16.531  0.9272 -2.6574 -0.5019
11242TIP3   OH255216   4.035   3.237   4.209 -0.0716 -0.2178 -0.0393
11242TIP3    H155217   4.035   3.225   4.114 -0.9100 -1.7245  0.1226
11242TIP3    H255218   4.128   3.241   4.233  0.1835 -1.6652 -0.7154
11243TIP3   OH255219   0.678   4.396  13.321  0.0373  0.2177  0.4646
11243TIP3    H155220   0.699   4.484  13.288 -1.8324  1.5381  2.4879
11243TIP3    H255221   0.635   4.353  13.247  1.4881  0.7537 -0.7538
11244TIP3   OH255222   6.644   1.626  12.785  0.2251 -0.2651  0.3145
11244TIP3    H155223   6.604   1.713  12.797 -1.3816 -0.8899 -0.3074
11244TIP3    H255224   6.707   1.619  12.857 -2.0542  0.0516  2.4731
11245TIP3   OH255225   6.712   4.833  15.445 -0.2569  0.1057  0.0826
11245TIP3    H155226   6.694   4.830  15.352  0.3787  1.7995 -0.1311
11245TIP3    H255227   6.633   4.799  15.486 -0.2473 -1.3992 -1.0664
11246TIP3   OH255228   2.287   2.355   6.074  0.0010  0.0954 -0.0346
11246TIP3    H155229   2.278   2.435   6.022 -1.4959  0.7842  1.1942
11246TIP3    H255230   2.202   2.345   6.117 -0.0635 -2.4805 -0.5697
11247TIP3   OH255231   2.326   6.259  12.426 -0.2886  0.7489  0.2951
11247TIP3    H155232   2.263   6.252  12.498 -0.2318 -0.2892  0.2669
11247TIP3    H255233   2.273   6.262  12.347 -0.3347  1.3034  0.3435
11248TIP3   OH255234   4.817   5.053  13.682  0.0121  0.5965  0.4243
11248TIP3    H155235   4.834   5.033  13.774 -0.1807 -1.5417  0.0575
11248TIP3    H255236   4.774   5.139  13.683  0.8817  1.0530  2.2244
11249TIP3   OH255237   2.603   3.425  13.016  0.3641 -0.0616  0.5097
11249TIP3    H155238   2.669   3.378  13.068  0.5523  0.3308  0.6264
11249TIP3    H255239   2.653   3.465  12.945  0.1197 -0.5163  0.0781
11250TIP3   OH255240   1.101   4.760  16.605 -0.2857  0.1079 -0.6704
11250TIP3    H155241   1.125   4.813  16.681  1.1273  0.1517 -1.1191
11250TIP3    H255242   1.008   4.775  16.593 -0.9689 -1.2648  2.1119
11251TIP3   OH255243   1.136   3.363  14.767  0.1352  0.0445 -0.4820
11251TIP3    H155244   1.053   3.394  14.731  0.4103 -0.7534 -1.8771
11251TIP3    H255245   1.203   3.403  14.711  0.5898 -0.9076 -0.6438
11252TIP3   OH255246   6.094   6.295  11.291  0.3016  0.2403 -0.4200
11252TIP3    H155247   6.042   6.345  11.228  0.4656  0.4610 -0.3805
11252TIP3    H255248   6.059   6.206  11.285 -0.2379  0.4379 -0.2261
11253TIP3   OH255249   6.441   6.380  11.983 -0.2157  0.8385 -0.0769
11253TIP3    H155250   6.469   6.374  12.074  2.3684 -0.6496 -0.8419
11253TIP3    H255251   6.411   6.470  11.972 -1.9842  0.6694  2.5417
11254TIP3   OH255252   4.723   2.207  16.342  0.4001 -0.5099 -0.5699
11254TIP3    H155253   4.683   2.294  16.336  0.2862 -0.4567  0.7643
11254TIP3    H255254   4.817   2.224  16.352  0.4243 -0.5557 -0.7117
11255TIP3   OH255255   2.812   3.043   6.606  0.2510  0.2319 -0.0526
11255TIP3    H155256   2.880   2.994   6.560 -0.5939 -1.0751  0.0485
11255TIP3    H255257   2.731   2.997   6.586 -0.5213  1.3254  0.4383
11256TIP3   OH255258   4.004   3.882  14.391 -0.9326 -1.0323  0.3369
11256TIP3    H155259   3.946   3.948  14.429 -0.1052 -0.0737 -0.0383
11256TIP3    H255260   4.092   3.909  14.418 -0.2066  0.1102 -2.7383
11257TIP3   OH255261   1.294   3.399  13.186 -0.5657 -0.2771 -0.1849
11257TIP3    H155262   1.316   3.405  13.279 -0.1036 -0.8061 -0.2536
11257TIP3    H255263   1.281   3.490  13.159 -1.0546 -0.1422  0.4735
11258TIP3   OH255264   1.610   0.215  12.145  0.1336 -0.3783 -0.1319
11258TIP3    H155265   1.626   0.295  12.195 -0.9518  1.0426 -1.9432
11258TIP3    H255266   1.592   0.149  12.211  0.2836  1.0433  1.4033
11259TIP3   OH255267   5.471   2.193   0.933  0.0712 -0.1759 -0.6713
11259TIP3    H155268   5.457   2.287   0.919 -2.6039 -0.6706 -2.0040
11259TIP3    H255269   5.532   2.167   0.864  1.5318  0.6667  0.2389
11260TIP3   OH255270   4.988   3.704  12.321  0.4171 -0.9621  0.1627
11260TIP3    H155271   4.965   3.653  12.243  1.2580  0.7033 -1.2632
11260TIP3    H255272   4.908   3.704  12.374 -0.1620 -2.1955 -0.6413
11261TIP3   OH255273   0.037   2.979   0.004  0.3138  0.2675 -0.0292
11261TIP3    H155274   0.120   2.956  -0.039 -1.2356  0.1175 -3.1996
11261TIP3    H255275   0.004   2.896   0.039  0.8888  0.1050  0.1383
11262TIP3   OH255276   3.475   6.367  14.891  0.0324  0.6643  0.2614
11262TIP3    H155277   3.389   6.332  14.869  0.1717 -0.0603  0.8212
11262TIP3    H255278   3.514   6.391  14.807 -0.3578  0.1318 -0.0758
11263TIP3   OH255279   1.709   0.682  15.395  0.1801 -0.2690  0.7619
11263TIP3    H155280   1.764   0.746  15.350  1.7505  0.0349  2.9013
11263TIP3    H255281   1.719   0.602  15.344  1.5752  0.1513  0.3142
11264TIP3   OH255282   3.432   1.525  13.257 -0.1579 -0.6472 -0.0331
11264TIP3    H155283   3.378   1.501  13.332 -1.5041  0.6257 -0.5723
11264TIP3    H255284   3.432   1.447  13.202 -1.0959 -0.7966  0.1698
11265TIP3   OH255285   2.400   6.783   2.694 -0.5850 -0.5244  0.9134
11265TIP3    H155286   2.401   6.736   2.777 -1.8736 -3.7227 -0.6848
11265TIP3    H255287   2.307   6.798   2.677 -0.4740 -1.3178 -0.5863
11266TIP3   OH255288   1.406   2.520   2.298  0.3244  0.2384  0.1071
11266TIP3    H155289   1.436   2.592   2.241 -0.0445  1.5102  1.4692
11266TIP3    H255290   1.315   2.505   2.272  0.8079 -0.7591 -1.1512
11267TIP3   OH255291   4.220   3.869   1.392 -0.4175  0.3971 -0.4299
11267TIP3    H155292   4.293   3.812   1.418 -1.2186 -1.1857 -1.4891
11267TIP3    H255293   4.250   3.957   1.414  0.2120 -0.4855  2.9578
11268TIP3   OH255294   4.986   2.342  14.401 -0.2230 -0.0169  0.3701
11268TIP3    H155295   4.932   2.315  14.476  0.7545  0.1565  1.1629
11268TIP3    H255296   4.925   2.344  14.327 -0.8580 -1.9031  0.7842
11269TIP3   OH255297   5.063   4.228   2.264  0.2046  0.0372 -0.0084
11269TIP3    H155298   4.972   4.198   2.274  0.4501 -0.5011  0.7600
11269TIP3    H255299   5.068   4.307   2.318 -0.1349  0.8216 -1.0935
11270TIP3   OH255300   3.568   0.926   3.451 -0.0226 -0.2525  0.7646
11270TIP3    H155301   3.589   0.935   3.358  2.2650 -0.6693  1.1895
11270TIP3    H255302   3.495   0.986   3.465 -0.4125 -0.1759 -1.2840
11271TIP3   OH255303   3.548   0.126   5.599  0.0474  0.2131  0.2403
11271TIP3    H155304   3.612   0.175   5.548  0.1668 -0.3742 -0.1798
11271TIP3    H255305   3.499   0.193   5.647 -0.8680  0.8664 -1.5505
11272TIP3   OH255306   6.747   0.644   1.283  0.3102  0.4805  0.0030
11272TIP3    H155307   6.675   0.681   1.334 -1.1495 -0.5410 -1.2183
11272TIP3    H255308   6.727   0.669   1.192 -0.3585 -2.5402 -0.7781
11273TIP3   OH255309   1.111   0.921  10.825  0.6981 -0.0704 -0.1839
11273TIP3    H155310   1.160   1.002  10.818  0.2975  0.1165 -1.0537
11273TIP3    H255311   1.019   0.949  10.833  0.8111 -0.3623  3.1603
11274TIP3   OH255312   2.324   4.845   6.465 -0.2430 -0.2159 -0.1916
11274TIP3    H155313   2.361   4.770   6.418  0.3354  0.2489 -0.4914
11274TIP3    H255314   2.252   4.875   6.409 -1.2605 -1.2803  0.5191
11275TIP3   OH255315   0.017   2.247   3.783 -0.1105 -0.8341 -0.9329
11275TIP3    H155316  -0.048   2.308   3.818 -1.1012 -2.7269  0.7640
11275TIP3    H255317   0.089   2.303   3.754 -1.4989  1.1949 -0.6973
11276TIP3   OH255318   3.496   3.919   3.225  0.0419 -0.4200  0.1903
11276TIP3    H155319   3.533   3.856   3.286  1.1181 -0.3164 -0.3367
11276TIP3    H255320   3.544   3.905   3.144  2.1814  2.7990  0.7427
11277TIP3   OH255321   0.792   3.454   6.596  0.4494 -0.2200  0.1778
11277TIP3    H155322   0.862   3.479   6.657  1.0917 -0.2340 -0.5451
11277TIP3    H255323   0.836   3.438   6.513 -0.5861  1.3977 -0.7535
11278TIP3   OH255324   5.712   4.170   2.774  0.1034  0.1615 -0.4858
11278TIP3    H155325   5.768   4.135   2.844 -2.0870  0.4296  1.5234
11278TIP3    H255326   5.647   4.102   2.759 -2.0666  1.8034  0.9192
11279TIP3   OH255327   6.424   4.991  15.087 -0.0305  0.5166  1.1422
11279TIP3    H155328   6.433   4.958  15.177  0.7639  0.1506  0.9352
11279TIP3    H255329   6.378   4.921  15.041  2.2675 -0.6792  0.5345
11280TIP3   OH255330   0.686   0.377  16.493  0.5796  0.9722  0.2288
11280TIP3    H155331   0.684   0.439  16.421  0.5053 -0.9587 -1.5338
11280TIP3    H255332   0.596   0.344  16.499  1.0088 -0.3073 -0.1329
11281TIP3   OH255333   1.591   2.076  15.410 -0.7408 -0.3466 -0.0855
11281TIP3    H155334   1.678   2.038  15.397 -0.7218  0.1143 -1.4338
11281TIP3    H255335   1.608   2.159  15.456 -0.0772  1.3591 -3.1323
11282TIP3   OH255336   4.179   1.819   1.142  0.4757  0.1461  1.0491
11282TIP3    H155337   4.226   1.830   1.225  0.6580  0.1830  0.9434
11282TIP3    H255338   4.090   1.798   1.167  0.1867  1.5435  1.2615
11283TIP3   OH255339   5.176   6.066  15.754  0.0993 -0.4428  0.3763
11283TIP3    H155340   5.177   6.162  15.751  1.5383 -0.4187  0.8176
11283TIP3    H255341   5.238   6.040  15.686 -0.3777 -1.0814  0.1749
11284TIP3   OH255342   3.999   0.267   0.149 -0.3228  0.0460  0.0764
11284TIP3    H155343   4.004   0.356   0.183 -0.7054  0.3842 -0.7422
11284TIP3    H255344   3.924   0.267   0.091 -0.8397 -1.0440  0.7127
11285TIP3   OH255345   6.495   1.946  13.433  0.7235  0.8454 -0.2096
11285TIP3    H155346   6.458   1.975  13.516  2.9907  2.8436  0.1841
11285TIP3    H255347   6.436   1.875  13.405 -1.9691  2.2290  1.4710
11286TIP3   OH255348   3.539   2.913  10.756  0.0561 -0.2248  0.0416
11286TIP3    H155349   3.580   2.998  10.771  0.1572 -0.3669  0.5728
11286TIP3    H255350   3.598   2.850  10.797  0.0146 -0.5621 -0.4000
11287TIP3   OH255351   4.416   3.686  14.261 -0.1203 -0.0798  0.8561
11287TIP3    H155352   4.337   3.676  14.208  0.7058 -1.4978 -0.1679
11287TIP3    H255353   4.472   3.612  14.236  1.6349  1.0063  1.3765
11288TIP3   OH255354   5.060   5.586  14.779  0.4787 -0.2702  0.1306
11288TIP3    H155355   5.043   5.514  14.841  0.9522 -0.1255  0.4389
11288TIP3    H255356   4.983   5.588  14.722 -0.6655  0.5393  1.6272
11289TIP3   OH255357   0.232   4.416  14.251 -0.4420  0.2843 -0.4907
11289TIP3    H155358   0.261   4.391  14.163 -0.4097 -3.2650  0.3736
11289TIP3    H255359   0.295   4.375  14.310 -1.0569  1.6974  1.2496
11290TIP3   OH255360   0.869   5.386  14.377 -0.3957  0.6289  0.3758
11290TIP3    H155361   0.896   5.389  14.469  2.7133  1.8893 -0.4512
11290TIP3    H255362   0.869   5.478  14.349 -1.4375  0.2760 -0.8406
11291TIP3   OH255363   0.358   5.219  15.581  0.4836 -0.4130  0.0873
11291TIP3    H155364   0.283   5.191  15.529  0.4404 -0.6318  0.2662
11291TIP3    H255365   0.330   5.302  15.620  0.1596 -0.7248  0.5254
11292TIP3   OH255366   0.895   3.323  13.366  0.3597  0.3711 -0.2604
11292TIP3    H155367   0.984   3.295  13.345  0.5383  0.1175  0.7723
11292TIP3    H255368   0.897   3.418  13.359  0.4756  0.3156 -1.0819
11293TIP3   OH255369   6.288   6.456   4.380 -0.4565  0.1956  0.6542
11293TIP3    H155370   6.275   6.363   4.399  0.1186 -0.1589 -0.5661
11293TIP3    H255371   6.209   6.498   4.413 -0.3824 -0.6150  1.9267
11294TIP3   OH255372   4.163   3.165   1.762 -0.1332  0.2154 -0.1468
11294TIP3    H155373   4.232   3.181   1.827 -0.8392  0.2526  0.6134
11294TIP3    H255374   4.203   3.105   1.699  0.4499 -0.1265  0.5373
11295TIP3   OH255375   4.897   4.937   0.039  0.2214 -0.0890 -0.2018
11295TIP3    H155376   4.804   4.927   0.060  0.2203  0.7805  0.2586
11295TIP3    H255377   4.900   5.004  -0.029  0.5096 -0.1299 -0.2311
11296TIP3   OH255378   4.569   6.380  15.468 -0.2147 -0.2701 -0.1953
11296TIP3    H155379   4.528   6.453  15.513  1.2550  1.8376 -2.0317
11296TIP3    H255380   4.661   6.406  15.458  0.3790 -2.3767 -0.9283
11297TIP3   OH255381   1.753   0.491   2.113 -0.0694  0.7537  0.2606
11297TIP3    H155382   1.705   0.574   2.117 -1.8497 -0.1397 -1.0925
11297TIP3    H255383   1.844   0.517   2.098  0.1403  2.5346  3.7152
11298TIP3   OH255384   3.233   6.258   4.420  0.7694 -0.9089 -0.2682
11298TIP3    H155385   3.173   6.226   4.486  0.9465  2.1762  1.5978
11298TIP3    H255386   3.320   6.235   4.453  0.8613  0.6852  0.7245
11299TIP3   OH255387   2.965   6.554   5.187 -0.1813 -0.0381 -0.0280
11299TIP3    H155388   3.020   6.517   5.118  2.1663 -0.0255  1.7251
11299TIP3    H255389   2.986   6.502   5.265 -2.6978 -0.0158  0.7751
11300TIP3   OH255390   1.312   3.660   5.961  0.5631 -0.0166  0.0711
11300TIP3    H155391   1.336   3.748   5.988 -4.2415  2.2744 -1.8246
11300TIP3    H255392   1.250   3.630   6.027  1.3688 -1.5891  0.1624
11301TIP3   OH255393   4.212   5.900  13.931  0.1330 -0.0128 -0.2083
11301TIP3    H155394   4.167   5.978  13.899 -0.1024  0.4875  1.2634
11301TIP3    H255395   4.142   5.841  13.960  0.3416 -0.4332 -0.5390
11302TIP3   OH255396   5.184   4.712  15.215  0.1067 -0.2448  0.6421
11302TIP3    H155397   5.213   4.700  15.125 -0.2736  0.2788  0.4433
11302TIP3    H255398   5.249   4.667  15.268  0.4706 -0.3375  0.1160
11303TIP3   OH255399   4.103   3.906  15.931  0.0100 -0.2485  0.0736
11303TIP3    H155400   4.119   3.813  15.917  1.0433  0.0737 -1.1178
11303TIP3    H255401   4.038   3.929  15.864  0.0688 -0.0340  0.0894
11304TIP3   OH255402   5.414   1.932   4.228  0.2485  0.6002  0.5680
11304TIP3    H155403   5.422   1.864   4.161 -1.0379 -0.2239  1.1895
11304TIP3    H255404   5.459   1.895   4.305 -0.8110  0.2380  1.0353
11305TIP3   OH255405   3.729   5.724   0.256  0.3082 -0.5732  0.4900
11305TIP3    H155406   3.753   5.812   0.227  2.0829 -1.1124  0.1773
11305TIP3    H255407   3.634   5.728   0.270 -0.5148  0.1959 -3.7759
11306TIP3   OH255408   4.327   4.275  12.701 -0.4865  0.5599  0.0685
11306TIP3    H155409   4.400   4.214  12.693 -1.7774 -0.8821 -1.1895
11306TIP3    H255410   4.348   4.346  12.641 -0.6713 -0.4588 -1.2289
11307TIP3   OH255411   1.398   3.557   2.131 -0.2868  0.5475  0.1940
11307TIP3    H155412   1.405   3.470   2.092  0.8515  1.4067 -1.6393
11307TIP3    H255413   1.328   3.548   2.196  0.8752 -2.1309  1.2474
11308TIP3   OH255414   4.223   5.460   3.260  0.3185 -0.0504 -0.4774
11308TIP3    H155415   4.149   5.442   3.203  0.2519 -1.6127  0.0414
11308TIP3    H255416   4.206   5.548   3.295 -0.1946  0.4695 -1.9647
11309TIP3   OH255417   5.539   5.464   0.330 -0.3705 -0.2647 -0.0443
11309TIP3    H155418   5.455   5.456   0.375  0.1953  1.0833  1.3817
11309TIP3    H255419   5.601   5.418   0.386 -0.1334 -1.2446 -1.0817
11310TIP3   OH255420   4.686   2.048   3.323  0.7875 -0.3413  0.2300
11310TIP3    H155421   4.616   2.092   3.371  1.6825  1.4683 -0.0076
11310TIP3    H255422   4.765   2.066   3.374  1.6198  0.8794 -1.3737
11311TIP3   OH255423   0.051   5.417  15.581  0.7063 -0.6411 -0.0703
11311TIP3    H155424  -0.041   5.391  15.573  0.3877  0.4526 -0.2668
11311TIP3    H255425   0.065   5.476  15.506  1.1911  0.2001  0.6587
11312TIP3   OH255426   3.660   5.458   3.518  0.1331 -0.3401 -0.0417
11312TIP3    H155427   3.611   5.437   3.439 -0.0650 -1.5201  0.3738
11312TIP3    H255428   3.752   5.451   3.492  0.0761 -0.1788 -0.2955
11313TIP3   OH255429   1.258   5.753  16.333  0.5773 -0.7481  0.4688
11313TIP3    H155430   1.235   5.842  16.360  1.7630 -0.9051  2.1434
11313TIP3    H255431   1.206   5.697  16.390 -0.1012 -1.1751 -0.5266
11314TIP3   OH255432   4.620   1.332   1.429  0.3364 -0.0376  0.6377
11314TIP3    H155433   4.699   1.358   1.476  0.7596 -0.0646 -0.0453
11314TIP3    H255434   4.636   1.240   1.406  1.1372  0.5956 -1.5318
11315TIP3   OH255435   5.746   1.913   1.530 -0.2595  0.4737 -0.3255
11315TIP3    H155436   5.803   1.836   1.531  1.0100  1.3719 -0.4303
11315TIP3    H255437   5.715   1.918   1.440 -1.3315 -0.5771 -0.0437
11316TIP3   OH255438   2.958   0.087  15.591 -0.2885  0.4148 -0.2760
11316TIP3    H155439   2.986   0.127  15.509 -0.7177  0.6022 -0.3326
11316TIP3    H255440   3.017   0.123  15.657 -0.7964  1.3050 -0.2892
11317TIP3   OH255441   5.303   5.873  16.473 -0.5996  0.2402 -0.1019
11317TIP3    H155442   5.316   5.967  16.483 -1.5114  0.4187 -0.5219
11317TIP3    H255443   5.250   5.864  16.394  2.5987 -0.8673 -2.3292
11318TIP3   OH255444   1.986   3.318  13.755  0.3149  0.3516  0.1903
11318TIP3    H155445   2.018   3.338  13.843  0.0399  2.4839 -0.1526
11318TIP3    H255446   2.055   3.351  13.697  0.2192 -0.5053 -0.4190
11319TIP3   OH255447   6.520   4.953  11.505 -0.0504 -0.1024 -0.7414
11319TIP3    H155448   6.600   4.901  11.512 -1.3044 -2.3547 -1.8834
11319TIP3    H255449   6.456   4.905  11.557 -1.5271 -0.3950 -2.6990
11320TIP3   OH255450   5.990   1.140   4.968 -0.1591  0.1736  0.0969
11320TIP3    H155451   6.028   1.218   5.008  0.1159  0.0821  0.0207
11320TIP3    H255452   6.051   1.118   4.897  0.1621 -0.5347  0.5807
11321TIP3   OH255453   1.713   3.418   1.425  0.2003 -1.1943  0.3829
11321TIP3    H155454   1.806   3.396   1.418  0.1368 -1.2023 -0.5929
11321TIP3    H255455   1.711   3.505   1.465  0.7461 -0.2101 -1.6242
11322TIP3   OH255456   1.390   3.619  12.431 -0.3275  0.0626 -0.2488
11322TIP3    H155457   1.399   3.639  12.338 -1.0866  2.1044  0.0672
11322TIP3    H255458   1.322   3.679  12.462  0.6460  0.1777  1.8433
11323TIP3   OH255459   4.492   1.719   5.553  0.0736 -0.3330  0.2173
11323TIP3    H155460   4.560   1.740   5.617  0.2406 -1.4083  0.4064
11323TIP3    H255461   4.419   1.777   5.576  1.1529  1.3603 -0.4392
11324TIP3   OH255462   3.019   1.355   3.653 -0.0345  0.7979 -0.1372
11324TIP3    H155463   3.018   1.300   3.575  1.9419  0.4359  0.0511
11324TIP3    H255464   2.940   1.329   3.701 -1.8185  1.6867 -2.3796
11325TIP3   OH255465   5.979   0.267   3.872  0.0082  0.1449  0.2117
11325TIP3    H155466   5.982   0.316   3.954 -0.0267  1.4287 -0.5311
11325TIP3    H255467   5.886   0.247   3.859  0.2222 -2.2991  1.7158
11326TIP3   OH255468   5.959   0.976   1.902  0.9587  0.4867  0.1863
11326TIP3    H155469   5.962   0.882   1.919 -2.0258  0.1127 -0.8402
11326TIP3    H255470   6.021   0.988   1.829  0.8070 -0.8242 -0.1940
11327TIP3   OH255471   0.130   6.639  11.448 -0.0700 -0.4355 -0.0470
11327TIP3    H155472   0.119   6.702  11.376 -1.2656 -0.0362  0.4550
11327TIP3    H255473   0.110   6.690  11.526  2.9965 -0.3370  0.8307
11328TIP3   OH255474   1.525   0.501   1.615  0.3425  0.0399 -0.4552
11328TIP3    H155475   1.605   0.540   1.650 -0.3518  0.9323  0.1850
11328TIP3    H255476   1.471   0.575   1.588 -0.9015 -0.4588  0.5441
11329TIP3   OH255477   0.332   0.573  16.056  0.1315 -0.1933  0.1708
11329TIP3    H155478   0.355   0.490  16.014  0.6592  1.4952 -3.3035
11329TIP3    H255479   0.408   0.630  16.039 -0.7990  1.4139  1.1366
11330TIP3   OH255480   3.958   2.403   2.881  0.4620 -0.0482 -0.3713
11330TIP3    H155481   3.906   2.374   2.806 -1.0927 -0.7036  0.8930
11330TIP3    H255482   4.004   2.480   2.849  1.5187 -1.5008 -2.6104
11331TIP3   OH255483   0.247   3.433   1.837 -0.0062 -0.1500  0.3727
11331TIP3    H155484   0.214   3.362   1.891 -1.6736  0.1354 -0.1985
11331TIP3    H255485   0.318   3.472   1.888 -1.3858 -0.0010  2.3023
11332TIP3   OH255486   6.169   6.489   1.801  0.2052  0.1780  0.2415
11332TIP3    H155487   6.124   6.449   1.875  0.1287 -1.9921 -0.9048
11332TIP3    H255488   6.249   6.525   1.838 -0.2693 -0.0445  1.5219
11333TIP3   OH255489   6.647   6.612   1.260  0.2110  0.3379  0.2969
11333TIP3    H155490   6.571   6.665   1.285  0.3627  1.5569 -1.6355
11333TIP3    H255491   6.671   6.644   1.173  2.5512 -0.4553  0.5825
11334TIP3   OH255492   1.474   5.023  11.394 -1.2989 -0.4540 -0.0397
11334TIP3    H155493   1.516   4.938  11.379 -1.7931 -0.7142  0.0457
11334TIP3    H255494   1.512   5.080  11.327 -1.4206 -0.8950 -0.4926
11335TIP3   OH255495   1.066   6.506   3.753 -0.2681 -0.0325 -0.0670
11335TIP3    H155496   1.056   6.411   3.746 -0.3452  0.0455 -1.2990
11335TIP3    H255497   1.051   6.525   3.845  2.7359 -1.5540  0.8954
11336TIP3   OH255498   6.468   2.149   4.976 -0.0416  0.3326  0.3118
11336TIP3    H155499   6.473   2.121   5.067 -1.3769 -0.3339  0.2010
11336TIP3    H255500   6.549   2.117   4.937 -0.0490 -0.5193  0.9628
11337TIP3   OH255501   0.142   5.169  11.672 -0.0108 -0.0845 -0.1409
11337TIP3    H155502   0.145   5.249  11.725  0.3251  0.4384 -0.9247
11337TIP3    H255503   0.056   5.172  11.629 -1.0805 -1.4660  1.7881
11338TIP3   OH255504   0.331   4.109  15.481 -0.2202  0.2338  0.4874
11338TIP3    H155505   0.386   4.176  15.439  0.5229  0.6595  2.0696
11338TIP3    H255506   0.330   4.036  15.418  0.7401  0.8886 -0.3223
11339TIP3   OH255507   4.363   2.152  12.618 -0.2272 -0.3786  0.4474
11339TIP3    H155508   4.396   2.138  12.529  0.4988 -3.0868  1.0369
11339TIP3    H255509   4.340   2.245  12.621  0.3998 -0.0404 -2.3223
11340TIP3   OH255510   0.242   0.417  11.552 -0.1836 -0.0801  0.7584
11340TIP3    H155511   0.157   0.376  11.536 -0.0236 -0.0561 -0.2200
11340TIP3    H255512   0.303   0.370  11.496  1.0291 -1.9193  3.4194
11341TIP3   OH255513   6.731   4.481   3.336 -0.2588  0.1160  0.1069
11341TIP3    H155514   6.809   4.531   3.312 -0.1021 -0.0361  0.3043
11341TIP3    H255515   6.688   4.462   3.252  0.2143 -0.2861 -0.0493
11342TIP3   OH255516   0.691   2.027  13.572  0.5270  0.2806  0.0601
11342TIP3    H155517   0.772   2.049  13.526  0.3044 -0.9519 -0.9850
11342TIP3    H255518   0.719   1.976  13.648  0.8234  1.3184  0.6633
11343TIP3   OH255519   3.072   0.036  15.005  0.2653  0.1944 -0.2622
11343TIP3    H155520   3.141   0.027  14.939  0.6739 -1.9899  0.4070
11343TIP3    H255521   2.994   0.001  14.962  0.0582  0.6534 -0.2646
11344TIP3   OH255522   1.228   0.132   4.714  0.1936  0.1659  0.0585
11344TIP3    H155523   1.286   0.055   4.713 -0.7990 -0.6083  0.6722
11344TIP3    H255524   1.218   0.153   4.807  0.1314  0.8046 -0.0865
11345TIP3   OH255525   2.228   0.314  13.494 -0.5965 -0.4959  0.1101
11345TIP3    H155526   2.269   0.347  13.574  0.6810 -1.3053 -0.1704
11345TIP3    H255527   2.136   0.301  13.517 -1.1614  2.8855  0.3251
11346TIP3   OH255528   6.647   5.592  14.930  0.2925 -0.1775  0.8855
11346TIP3    H155529   6.589   5.616  15.002 -1.5172 -1.8920  0.0890
11346TIP3    H255530   6.597   5.612  14.851  1.0600 -1.0662  0.1547
11347TIP3   OH255531   0.072   0.366   4.055 -0.2754 -0.2689 -0.3725
11347TIP3    H155532  -0.019   0.344   4.077  0.1312 -0.8626  0.7826
11347TIP3    H255533   0.109   0.285   4.021 -0.1235 -0.0775 -0.6662
11348TIP3   OH255534   4.775   2.149   3.088  0.1763  0.0418  0.0788
11348TIP3    H155535   4.740   2.123   3.003  0.8151 -2.7907  0.5722
11348TIP3    H255536   4.719   2.106   3.152  0.7157  0.7430  1.0653
11349TIP3   OH255537   4.847   1.081  14.288 -0.0977  0.0669 -0.1032
11349TIP3    H155538   4.933   1.103  14.251  0.6034 -0.6096  1.0815
11349TIP3    H255539   4.866   1.052  14.377 -1.3643 -1.8274 -0.4099
11350TIP3   OH255540   5.283   4.490  13.666 -0.4952  0.1983 -0.5381
11350TIP3    H155541   5.208   4.456  13.617  0.9870 -2.2243 -1.3340
11350TIP3    H255542   5.314   4.564  13.614 -3.2534  2.4243  0.7192
11351TIP3   OH255543   1.923   4.693  16.603  0.0087  0.2657 -0.5911
11351TIP3    H155544   1.956   4.780  16.628  1.4599 -0.1508 -0.9588
11351TIP3    H255545   1.920   4.695  16.508  0.5204 -0.2470 -0.6202
11352TIP3   OH255546   3.218   4.860   0.180 -0.3623 -0.1711 -0.3778
11352TIP3    H155547   3.188   4.773   0.153 -1.3223  0.2220 -0.6201
11352TIP3    H255548   3.212   4.859   0.275 -0.3560 -0.3863 -0.3795
11353TIP3   OH255549   3.502   0.313   4.068  0.0323 -0.2900  0.2451
11353TIP3    H155550   3.422   0.337   4.114 -0.2523  0.6266 -0.7156
11353TIP3    H255551   3.546   0.252   4.128 -0.9396 -0.1127  1.1655
11354TIP3   OH255552   0.425   1.904  11.439  0.0638 -0.4721 -0.4292
11354TIP3    H155553   0.432   1.891  11.344 -0.5810  0.0180 -0.5542
11354TIP3    H255554   0.347   1.856  11.464 -0.8024  0.8565 -0.4615
11355TIP3   OH255555   2.603   5.384   0.000  0.0848  0.1092 -0.1477
11355TIP3    H155556   2.609   5.364   0.094 -2.0437  1.2876  0.3051
11355TIP3    H255557   2.602   5.298  -0.042  0.8847 -0.4508  0.9051
11356TIP3   OH255558   4.937   6.708  14.933  0.2072 -0.0356  0.0020
11356TIP3    H155559   4.858   6.742  14.975  1.0298  0.4281  1.2442
11356TIP3    H255560   4.982   6.659  15.002  0.2657 -1.6159 -1.1022
11357TIP3   OH255561   1.492   3.086  15.732  0.4752  0.3022  0.5474
11357TIP3    H155562   1.445   3.076  15.815  1.0120  0.3503  0.8599
11357TIP3    H255563   1.467   3.172  15.699  0.2327  0.2661  0.6388
11358TIP3   OH255564   6.046   0.239   0.752 -0.5690  0.0383 -0.5369
11358TIP3    H155565   5.990   0.296   0.805  0.1956  0.8511 -0.5803
11358TIP3    H255566   6.087   0.298   0.689 -1.7496 -0.9377 -2.3271
11359TIP3   OH255567   2.729   0.942  11.020 -0.4058 -0.3313 -0.8738
11359TIP3    H155568   2.634   0.938  11.020 -0.3682 -1.4849 -1.0352
11359TIP3    H255569   2.755   0.912  10.933  0.1285 -0.7624 -0.5672
11360TIP3   OH255570   1.177   5.310   1.035  0.2199 -0.1391 -0.3383
11360TIP3    H155571   1.090   5.350   1.047 -0.3586 -0.7982 -2.0203
11360TIP3    H255572   1.170   5.225   1.078  0.7466  0.6026  1.3250
11361TIP3   OH255573   2.712   2.097  13.483  0.2784  0.1989  0.4781
11361TIP3    H155574   2.657   2.076  13.558  0.1187 -0.9055  0.0816
11361TIP3    H255575   2.675   2.177  13.447 -1.8118 -1.0960 -0.4549
11362TIP3   OH255576   0.750   0.898  10.535 -0.4532 -0.1076 -0.1049
11362TIP3    H155577   0.811   0.953  10.585  0.3303 -0.9598 -0.0994
11362TIP3    H255578   0.664   0.935  10.553 -0.0206  0.5958  0.5748
11363TIP3   OH255579   6.567   3.850  13.396 -0.4387  1.1159  0.0910
11363TIP3    H155580   6.659   3.825  13.392 -0.3990  1.3741 -1.1638
11363TIP3    H255581   6.566   3.934  13.442 -0.2138  0.4364  1.3668
11364TIP3   OH255582   3.514   0.179  11.332  0.2421  0.1493  0.4804
11364TIP3    H155583   3.514   0.083  11.332  1.4996  0.1280 -0.2361
11364TIP3    H255584   3.588   0.203  11.277 -0.4013  1.5506  0.1861
11365TIP3   OH255585   1.182   2.186  16.371  0.4272 -0.2134  0.1674
11365TIP3    H155586   1.182   2.190  16.466 -0.3008 -0.8726  0.1992
11365TIP3    H255587   1.210   2.273  16.344 -2.8290  1.2457  0.9517
11366TIP3   OH255588   5.885   0.505  12.989 -0.2315  0.1289 -0.0492
11366TIP3    H155589   5.842   0.470  12.911 -0.2436 -2.0361  0.8555
11366TIP3    H255590   5.936   0.579  12.957 -0.4578 -0.5147 -2.0558
11367TIP3   OH255591   1.544   4.376   0.478 -0.1151  0.1650  0.0242
11367TIP3    H155592   1.526   4.320   0.554 -1.7183 -0.1896 -0.5833
11367TIP3    H255593   1.632   4.411   0.495 -0.0738 -0.5982  1.6049
11368TIP3   OH255594   4.135   1.331   2.013  0.0768  0.0000  0.0862
11368TIP3    H155595   4.110   1.246   2.048  0.6914 -0.2397 -0.0406
11368TIP3    H255596   4.157   1.315   1.921  0.7453  0.1770  0.2052
11369TIP3   OH255597   1.605   4.939  12.314 -0.2813  0.5779 -0.3375
11369TIP3    H155598   1.560   4.895  12.241  2.1937 -1.1811 -0.8991
11369TIP3    H255599   1.639   5.020  12.275  1.1583 -0.4249 -1.2330
11370TIP3   OH255600   5.482   5.131   3.653  0.1148 -0.2596 -0.1551
11370TIP3    H155601   5.464   5.175   3.736 -0.2416 -0.1887 -0.2668
11370TIP3    H255602   5.571   5.099   3.661  1.0180  1.9576 -0.7176
11371TIP3   OH255603   5.940   6.392  16.807  0.1048  0.1237 -0.3884
11371TIP3    H155604   5.938   6.367  16.715  2.0203 -0.3282 -0.3516
11371TIP3    H255605   5.885   6.327  16.851 -1.0317  0.4949 -1.2125
11372TIP3   OH255606   6.384   6.139  16.104  0.0369  0.4429 -0.0222
11372TIP3    H155607   6.383   6.045  16.083 -0.3541  0.7303 -1.3919
11372TIP3    H255608   6.296   6.156  16.138  0.5908  0.0305  1.7604
11373TIP3   OH255609   3.739   6.674   0.058 -0.5528 -0.2999  0.3184
11373TIP3    H155610   3.703   6.726   0.130 -0.4411 -1.1238  0.9837
11373TIP3    H255611   3.672   6.679  -0.010 -0.2284  1.2954  0.0830
11374TIP3   OH255612   0.197   1.459  11.839  0.6014 -0.5224  0.0210
11374TIP3    H155613   0.271   1.506  11.878  0.7010 -0.8029  0.1749
11374TIP3    H255614   0.234   1.420  11.759  0.9794 -1.7590  0.7688
11375TIP3   OH255615   2.278   0.582  14.516  0.0591 -0.0860 -0.2067
11375TIP3    H155616   2.367   0.553  14.537 -0.0468  0.3116  0.8861
11375TIP3    H255617   2.272   0.576  14.421  1.9226  1.7347 -0.5223
11376TIP3   OH255618   4.068   5.384   1.785 -0.1340 -0.5118 -0.3832
11376TIP3    H155619   3.999   5.449   1.795 -0.5433 -0.7031 -1.7137
11376TIP3    H255620   4.039   5.330   1.711  1.1157 -1.0195 -0.5286
11377TIP3   OH255621   4.119   1.404  11.486  0.0439  0.2627  0.4595
11377TIP3    H155622   4.060   1.329  11.492  1.1300 -0.7318 -0.6686
11377TIP3    H255623   4.100   1.444  11.401  2.1449 -1.1715 -0.7900
11378TIP3   OH255624   0.779   4.407   0.371  0.2072  0.3818  0.5227
11378TIP3    H155625   0.774   4.481   0.310  0.2825 -1.1686 -1.4690
11378TIP3    H255626   0.726   4.435   0.446  0.0970  2.3703 -0.2233
11379TIP3   OH255627   4.537   6.438   3.538 -0.6376  0.1046 -0.0097
11379TIP3    H155628   4.539   6.435   3.443 -0.2665  0.6537 -0.0201
11379TIP3    H255629   4.628   6.448   3.565 -0.5847 -1.3378  0.4602
11380TIP3   OH255630   2.325   4.349  12.003 -0.1285  0.2538  0.3052
11380TIP3    H155631   2.327   4.433  11.958 -0.2547 -0.6114 -1.4131
11380TIP3    H255632   2.232   4.331  12.017 -0.2812 -0.7252 -1.6527
11381TIP3   OH255633   0.730   2.037   3.872 -0.1604  0.5439 -0.3745
11381TIP3    H155634   0.721   2.072   3.784 -0.5927 -1.4356 -1.1706
11381TIP3    H255635   0.656   1.977   3.882  0.7568 -0.4596  0.7398
11382TIP3   OH255636   1.916   3.053   0.234  0.2653 -0.4944  0.6031
11382TIP3    H155637   1.946   3.089   0.150 -0.6287 -0.9891  0.0490
11382TIP3    H255638   1.986   2.994   0.261  0.1085 -1.1584 -0.3578
11383TIP3   OH255639   1.716   5.734  16.198  0.6274  0.1101 -0.0086
11383TIP3    H155640   1.786   5.680  16.162  0.2995  0.0077 -0.5045
11383TIP3    H255641   1.741   5.824  16.174 -0.5582 -0.0770 -2.2966
11384TIP3   OH255642   3.060   1.873   5.448 -0.0135 -0.0267 -0.4629
11384TIP3    H155643   3.116   1.951   5.450  0.0421 -0.0386 -1.2436
11384TIP3    H255644   3.096   1.820   5.378 -0.6588 -0.3001 -0.5941
11385TIP3   OH255645   0.247   2.038   2.538 -0.4163  0.8039  0.1821
11385TIP3    H155646   0.179   2.066   2.599  0.0342 -0.8993  1.5187
11385TIP3    H255647   0.327   2.038   2.590  0.0317 -0.3933 -0.4685
11386TIP3   OH255648   5.462   1.519  11.102 -0.2345 -0.0590 -0.3264
11386TIP3    H155649   5.521   1.446  11.083 -0.0576 -0.0373  0.1269
11386TIP3    H255650   5.458   1.522  11.198 -1.9597 -0.8565 -0.3524
11387TIP3   OH255651   6.547   3.344   0.338 -0.0082 -0.9318  0.3552
11387TIP3    H155652   6.595   3.286   0.279  0.3690  1.2886 -1.6954
11387TIP3    H255653   6.507   3.409   0.280  0.4242  1.4367  2.5373
11388TIP3   OH255654   6.642   3.822   6.278  0.2781  0.3932  0.1122
11388TIP3    H155655   6.566   3.879   6.291 -0.0345 -0.5166  2.8291
11388TIP3    H255656   6.623   3.744   6.329  2.3309 -0.5760 -0.4998
11389TIP3   OH255657   3.846   2.856   5.726  0.3446  0.0189 -0.0361
11389TIP3    H155658   3.932   2.815   5.717 -0.5672 -1.6144 -2.6100
11389TIP3    H255659   3.855   2.941   5.684  0.6704 -0.2206 -0.4571
11390TIP3   OH255660   1.867   0.042   0.756 -0.2812  0.1561  0.3259
11390TIP3    H155661   1.801  -0.011   0.712  1.1612 -2.3315  1.0027
11390TIP3    H255662   1.930   0.063   0.687 -1.7222  2.6940 -0.3657
11391TIP3   OH255663   3.108   5.783  14.770  0.4936 -0.4710 -0.1314
11391TIP3    H155664   3.196   5.821  14.761  0.5969 -0.8357 -0.7301
11391TIP3    H255665   3.122   5.688  14.769  0.0526 -0.5331 -0.6763
11392TIP3   OH255666   4.077   5.085   4.789  0.0308  0.2708 -0.1254
11392TIP3    H155667   4.061   4.998   4.751  1.0855 -0.6409  1.3979
11392TIP3    H255668   4.114   5.136   4.718 -0.5908 -0.5315 -1.0483
11393TIP3   OH255669   6.592   2.767   5.433  0.1080 -0.4551 -0.3680
11393TIP3    H155670   6.642   2.836   5.390 -0.4052 -0.4191 -0.9401
11393TIP3    H255671   6.504   2.805   5.444  0.3611 -0.2877  1.1906
11394TIP3   OH255672   6.427   5.583   5.841  0.2376  0.6883  0.6130
11394TIP3    H155673   6.464   5.500   5.809 -1.2817  0.6006 -1.0679
11394TIP3    H255674   6.333   5.565   5.849 -0.0990  2.2191  0.2864
11395TIP3   OH255675   6.723   3.175  16.296  0.3451 -0.6765  0.2876
11395TIP3    H155676   6.732   3.168  16.201  1.7138  1.8523  0.1294
11395TIP3    H255677   6.778   3.105  16.331  0.3446 -1.2215 -0.7643
11396TIP3   OH255678   1.793   1.647   0.692  0.3712  0.3588 -0.4488
11396TIP3    H155679   1.738   1.689   0.758 -0.0832 -2.4497  1.1285
11396TIP3    H255680   1.791   1.707   0.618 -2.8275  1.5827  0.4361
11397TIP3   OH255681   5.942   3.371   5.130 -0.5166  0.0834 -0.5593
11397TIP3    H155682   5.860   3.404   5.167  0.5174  2.0076  0.1483
11397TIP3    H255683   6.010   3.426   5.169  1.3086 -2.5078  0.1764
11398TIP3   OH255684   1.449   6.402  11.850  0.5542  0.4975 -0.8188
11398TIP3    H155685   1.441   6.465  11.921  0.1470 -0.5523  0.0979
11398TIP3    H255686   1.472   6.455  11.774  0.5517  1.7046 -0.0142
11399TIP3   OH255687   2.821   3.744   4.898 -0.1951 -0.4198 -0.5712
11399TIP3    H155688   2.867   3.685   4.838  1.4087  1.0180 -0.8362
11399TIP3    H255689   2.734   3.756   4.858 -0.2038 -1.8215 -1.0093
11400TIP3   OH255690   1.826   1.717  12.903  0.4496 -0.5389  0.1171
11400TIP3    H155691   1.806   1.700  12.995 -1.2192 -0.3854 -0.1752
11400TIP3    H255692   1.872   1.801  12.903  0.1623 -0.3753  0.7860
11401TIP3   OH255693   6.374   1.666   3.013  0.4033 -0.2883 -1.4013
11401TIP3    H155694   6.306   1.606   2.985  2.6625 -3.5063 -0.5289
11401TIP3    H255695   6.434   1.671   2.939  1.1539 -0.6046 -0.8288
11402TIP3   OH255696   4.885   3.064  15.941  0.4080  0.1112 -0.1162
11402TIP3    H155697   4.799   3.102  15.956  0.2115 -0.5480  0.5143
11402TIP3    H255698   4.901   3.075  15.847 -0.2725  0.4120 -0.2005
11403TIP3   OH255699   6.180   1.622   6.026 -0.2488  0.0883 -0.1519
11403TIP3    H155700   6.236   1.699   6.016 -0.5328  0.2678 -0.3959
11403TIP3    H255701   6.241   1.549   6.035  0.0396  0.1748 -1.2187
11404TIP3   OH255702   3.270   6.057   2.210 -0.6593  0.5825 -0.8171
11404TIP3    H155703   3.259   6.136   2.157  1.4522  2.0284  0.7509
11404TIP3    H255704   3.355   6.021   2.183 -0.6958 -0.0357 -0.1477
11405TIP3   OH255705   6.570   5.573  12.575 -0.5722  0.4224 -0.2095
11405TIP3    H155706   6.485   5.591  12.535 -0.8384 -0.1498  0.0723
11405TIP3    H255707   6.625   5.544  12.502 -1.0203 -0.5073 -0.2023
11406TIP3   OH255708   1.158   2.758  15.592 -0.1571 -0.5761 -0.2411
11406TIP3    H155709   1.242   2.752  15.547  0.3825  1.9372  0.2913
11406TIP3    H255710   1.120   2.840  15.560 -1.4307 -0.5951  1.1326
11407TIP3   OH255711   5.612   6.530  12.943 -0.4400 -0.2306  0.6212
11407TIP3    H155712   5.694   6.549  12.988  0.1823  1.5442 -1.0779
11407TIP3    H255713   5.546   6.581  12.990  0.1978  1.5967 -0.3763
11408TIP3   OH255714   0.739   6.717   2.577  0.5831 -0.2204  0.5598
11408TIP3    H155715   0.744   6.798   2.527  4.2977  0.5357  1.8479
11408TIP3    H255716   0.690   6.657   2.521  0.5610  1.9313 -1.8939
11409TIP3   OH255717   4.809   2.611   0.056  0.1365  0.2659  0.1934
11409TIP3    H155718   4.733   2.553   0.057 -0.1849  0.6205 -1.3458
11409TIP3    H255719   4.882   2.554   0.030  0.4002 -0.0566  1.5896
11410TIP3   OH255720   5.621   2.606   4.928  0.3744 -0.0497  0.2376
11410TIP3    H155721   5.594   2.551   4.855  1.3507  0.3299 -0.4218
11410TIP3    H255722   5.567   2.576   5.002 -1.2316  0.1272 -0.8200
11411TIP3   OH255723   6.108   6.181  14.222 -0.6562  0.1443  0.2740
11411TIP3    H155724   6.096   6.250  14.157  2.9377 -0.2565 -1.0112
11411TIP3    H255725   6.136   6.105  14.172  1.9502 -0.2906  2.1758
11412TIP3   OH255726   3.779   2.418   3.847 -0.3470  0.2106 -0.1399
11412TIP3    H155727   3.831   2.338   3.835 -1.0852 -0.5332  1.2743
11412TIP3    H255728   3.720   2.419   3.772  1.2220  0.7277 -1.4272
11413TIP3   OH255729   3.428   6.337   1.067 -0.8844  0.5054 -0.2575
11413TIP3    H155730   3.483   6.259   1.068 -1.5685 -0.0338  2.3931
11413TIP3    H255731   3.485   6.407   1.034 -0.1802 -0.9928 -2.4132
11414TIP3   OH255732   1.699   6.593  11.791 -0.3164 -0.1105 -0.5867
11414TIP3    H155733   1.626   6.609  11.852  0.3219  1.9966 -0.2740
11414TIP3    H255734   1.776   6.627  11.837  0.6757 -1.1622 -1.4113
11415TIP3   OH255735   5.558   4.531  16.197  0.1946  0.5269 -0.3818
11415TIP3    H155736   5.602   4.455  16.235 -2.4751 -1.9325 -1.8645
11415TIP3    H255737   5.576   4.525  16.103 -0.2579  1.6370 -0.5611
11416TIP3   OH255738   2.964   3.760  10.969  0.4790  0.3410 -0.5064
11416TIP3    H155739   2.884   3.781  11.017  1.4150  1.1646  0.7747
11416TIP3    H255740   2.981   3.837  10.915  0.4059  0.1644 -0.7821
11417TIP3   OH255741   3.936   1.580  12.156  0.2657 -0.6970  0.5846
11417TIP3    H155742   3.925   1.531  12.237 -2.2428 -1.4588 -0.1243
11417TIP3    H255743   3.848   1.590  12.121  0.6950  3.6878  0.2276
11418TIP3   OH255744   5.549   2.982  14.017 -0.2769  0.1477  0.1088
11418TIP3    H155745   5.622   2.985  14.079 -0.2564 -2.5690  0.3233
11418TIP3    H255746   5.482   3.037  14.057  0.0536 -0.8499  2.1587
11419TIP3   OH255747   0.422   3.115  14.053  0.5922  0.1586  0.4155
11419TIP3    H155748   0.385   3.140  13.968  1.4383  0.9606  0.2618
11419TIP3    H255749   0.359   3.150  14.117 -0.2125 -0.7328  0.1242
11420TIP3   OH255750   3.868   3.446   4.185  0.4227 -0.0520  0.0914
11420TIP3    H155751   3.944   3.387   4.182 -0.6456 -1.4381 -1.0509
11420TIP3    H255752   3.824   3.432   4.101 -1.9946 -0.5034  1.3675
11421TIP3   OH255753   3.091   5.923  16.365 -0.4653  0.3323  0.0160
11421TIP3    H155754   3.177   5.941  16.403 -0.8490  2.6719 -0.0523
11421TIP3    H255755   3.057   6.009  16.341 -3.0114 -0.4678  0.4211
11422TIP3   OH255756   3.904   6.520   4.059  0.3797 -0.6782  0.1449
11422TIP3    H155757   3.813   6.495   4.072  0.0678  1.1539  2.1273
11422TIP3    H255758   3.913   6.533   3.965 -2.0998  1.3651  0.1001
11423TIP3   OH255759   3.266   4.898   2.894 -0.1260 -0.0639  0.2609
11423TIP3    H155760   3.200   4.830   2.885 -0.1206  0.0335 -0.7242
11423TIP3    H255761   3.334   4.873   2.831  0.2926  0.3798  0.5285
11424TIP3   OH255762   3.313   2.790   6.460 -0.2225  0.0633 -0.2283
11424TIP3    H155763   3.400   2.774   6.496 -0.7416 -0.0152  1.0525
11424TIP3    H255764   3.316   2.881   6.429 -0.1240  0.5660  1.1934
11425TIP3   OH255765   5.910   5.630  14.786  1.0349  0.0604  0.2830
11425TIP3    H155766   5.921   5.720  14.756 -1.8481  0.3949 -0.0558
11425TIP3    H255767   5.955   5.626  14.870 -0.4997  2.4784  1.3134
11426TIP3   OH255768   4.450   3.640  15.749 -0.3479  0.1418 -0.4255
11426TIP3    H155769   4.469   3.681  15.664 -0.1387  1.7665  0.3565
11426TIP3    H255770   4.536   3.632  15.791 -0.2188 -2.2583 -0.9855
11427TIP3   OH255771   6.027   6.329  11.886 -0.6650 -0.0429 -0.5180
11427TIP3    H155772   6.038   6.373  11.802 -0.1300  0.0133 -0.4197
11427TIP3    H255773   5.936   6.346  11.910 -1.6898 -2.2871 -2.3609
11428TIP3   OH255774   5.532   3.957   7.026 -0.3446  0.6035  0.0469
11428TIP3    H155775   5.465   3.888   7.026 -0.2617  0.3807  2.8777
11428TIP3    H255776   5.608   3.917   7.069  0.3869  1.8844  0.0064
11429TIP3   OH255777   6.080   3.326  15.741  0.7298  0.1393 -0.2927
11429TIP3    H155778   6.092   3.367  15.826  0.5462 -2.0442  0.8689
11429TIP3    H255779   6.169   3.305  15.712  0.7069 -1.4928  0.6743
11430TIP3   OH255780   2.194   4.052   3.751 -0.3459 -0.0181 -0.0166
11430TIP3    H155781   2.170   4.073   3.842  2.0978 -0.7087  0.8595
11430TIP3    H255782   2.193   3.957   3.747  1.8534 -0.0979  0.0406
11431TIP3   OH255783   2.620   6.543  12.751 -0.1079 -0.0475 -0.1566
11431TIP3    H155784   2.634   6.529  12.844  2.3463  1.1880 -0.2612
11431TIP3    H255785   2.686   6.608  12.726 -0.5320 -0.5113 -2.7995
11432TIP3   OH255786   4.719   5.846   3.537  0.2326  0.2069 -0.2327
11432TIP3    H155787   4.669   5.778   3.583  0.6193  1.2499  1.8660
11432TIP3    H255788   4.777   5.798   3.478  0.3915 -1.2978  1.0778
11433TIP3   OH255789   4.745   1.857   2.981  0.1861 -0.3872  0.4178
11433TIP3    H155790   4.691   1.843   3.059 -1.3743  0.3711 -0.4727
11433TIP3    H255791   4.691   1.828   2.908  1.6836 -1.2562 -0.4087
11434TIP3   OH255792   1.233   0.227  12.258 -0.0604 -0.5911  0.8064
11434TIP3    H155793   1.239   0.308  12.207 -1.5142 -1.2511 -0.5366
11434TIP3    H255794   1.324   0.203  12.276  0.3929  1.3861  1.3616
11435TIP3   OH255795   2.760   1.798  12.777  0.4255 -0.1600 -0.1789
11435TIP3    H155796   2.800   1.713  12.759 -0.1308 -0.0603 -2.0356
11435TIP3    H255797   2.790   1.854  12.706  0.5157  1.1435  0.8347
11436TIP3   OH255798   5.615   5.530   5.716 -0.0607  0.0318  0.0465
11436TIP3    H155799   5.700   5.495   5.743  0.0359  0.7080  0.6195
11436TIP3    H255800   5.629   5.624   5.705 -0.6430  0.0930 -0.2442
11437TIP3   OH255801   6.614   0.678   5.717 -0.1940  0.3699  0.2440
11437TIP3    H155802   6.622   0.637   5.631 -4.7716  2.3252 -1.4746
11437TIP3    H255803   6.560   0.617   5.768 -0.3937  0.7413  0.4844
11438TIP3   OH255804   0.743   6.265  11.643 -0.6749 -0.1615  0.0375
11438TIP3    H155805   0.807   6.332  11.669 -0.3279 -0.4022 -0.1905
11438TIP3    H255806   0.793   6.183  11.642 -0.7977 -0.2429 -0.8656
11439TIP3   OH255807   4.322   1.676  12.504  0.3287 -0.1808 -0.6864
11439TIP3    H155808   4.397   1.635  12.462  0.6757 -1.6675  1.2766
11439TIP3    H255809   4.249   1.657  12.444  0.6137 -3.1078 -0.2515
11440TIP3   OH255810   4.505   2.366   0.795 -0.3952  0.2126 -0.0292
11440TIP3    H155811   4.526   2.278   0.762  1.1363 -0.0171  1.4384
11440TIP3    H255812   4.587   2.415   0.788 -0.8265  1.0473  0.6125
11441TIP3   OH255813   5.310   3.987  16.969 -0.1389 -0.1392  0.1230
11441TIP3    H155814   5.266   3.931  17.033 -0.4332 -0.0226  0.0253
11441TIP3    H255815   5.239   4.021  16.914 -0.3914  2.6693  1.9651
11442TIP3   OH255816   6.546   1.162   2.511 -0.1939  0.1278  0.0629
11442TIP3    H155817   6.485   1.087   2.510 -0.6656  0.5048  0.0916
11442TIP3    H255818   6.551   1.187   2.603  1.7268 -1.2636  0.4016
11443TIP3   OH255819   1.821   3.096   1.676 -0.2833  0.0915 -0.2629
11443TIP3    H155820   1.763   3.113   1.602 -1.3266 -0.1174  0.4824
11443TIP3    H255821   1.779   3.138   1.750  0.4417 -0.2056  0.3317
11444TIP3   OH255822   0.063   4.377  12.545 -0.1896 -0.9404  0.6613
11444TIP3    H155823  -0.024   4.400  12.513  0.0614 -1.4663 -0.4274
11444TIP3    H255824   0.055   4.379  12.641 -0.9007  0.8562  0.6113
11445TIP3   OH255825   1.108   5.170   5.783  0.1461  0.2196  0.6754
11445TIP3    H155826   1.146   5.241   5.730  0.4624 -0.3436  0.1348
11445TIP3    H255827   1.014   5.175   5.766  0.1269  0.7147  0.8989
11446TIP3   OH255828   6.730   0.119   0.019 -0.4417 -0.4891 -0.8366
11446TIP3    H155829   6.821   0.115   0.049  0.3163  1.5937 -2.6062
11446TIP3    H255830   6.685   0.051   0.070  1.7303 -0.4586  1.2887
11447TIP3   OH255831   5.828   0.901   5.020  0.4489  0.1393  0.5080
11447TIP3    H155832   5.866   0.989   5.012 -0.7283  0.5860 -0.5241
11447TIP3    H255833   5.899   0.842   4.994  1.5868  0.6872  2.2074
11448TIP3   OH255834   3.355   5.798  11.779  0.9717 -0.3946  0.0428
11448TIP3    H155835   3.307   5.797  11.861  2.5646  0.0104  1.0162
11448TIP3    H255836   3.377   5.706  11.763 -0.2765 -0.6110 -0.5286
11449TIP3   OH255837   3.249   6.397   2.738 -0.2124  0.2098  0.6821
11449TIP3    H155838   3.264   6.416   2.646 -0.3730 -0.3246  0.5406
11449TIP3    H255839   3.308   6.324   2.758 -0.2019  0.2991  0.9912
11450TIP3   OH255840   0.520   6.236  11.943  0.0872  0.0289 -0.5080
11450TIP3    H155841   0.559   6.319  11.972 -0.0061  0.6628 -2.0870
11450TIP3    H255842   0.453   6.263  11.879 -0.6099 -1.2224 -0.3274
11451TIP3   OH255843   5.755   2.534  16.653  0.0381 -0.2204  0.4870
11451TIP3    H155844   5.824   2.599  16.642  0.9070 -1.1435  0.4216
11451TIP3    H255845   5.801   2.451  16.661 -1.0483 -0.7998  0.8684
11452TIP3   OH255846   4.983   6.340   5.848  0.0412 -0.8648 -0.3836
11452TIP3    H155847   4.944   6.263   5.807  0.1943 -0.8465 -0.5629
11452TIP3    H255848   5.033   6.306   5.922 -0.5254 -0.8664  0.0079
11453TIP3   OH255849   1.066   6.663  11.269 -0.4296 -0.1327 -0.1595
11453TIP3    H155850   0.985   6.612  11.263  0.0481 -0.8357 -0.7696
11453TIP3    H255851   1.134   6.598  11.287  0.0332  0.4268  0.1489
11454TIP3   OH255852   3.602   2.237  13.226  0.3054 -0.3940  0.1179
11454TIP3    H155853   3.591   2.154  13.180  1.9771 -0.7966  0.3861
11454TIP3    H255854   3.630   2.299  13.158 -2.1856  0.3560 -0.3507
11455TIP3   OH255855   1.515   6.671   3.774 -0.4856 -0.4177  0.0010
11455TIP3    H155856   1.426   6.688   3.744 -0.8738  1.2271  1.8839
11455TIP3    H255857   1.505   6.638   3.863  0.7836  0.4403  0.5002
11456TIP3   OH255858   2.389   0.759  13.517  0.0042 -0.3489  0.3563
11456TIP3    H155859   2.400   0.816  13.440  1.7278 -0.5505  0.4157
11456TIP3    H255860   2.372   0.819  13.589  2.0563  0.1718  0.4676
11457TIP3   OH255861   2.199   2.707  10.757 -0.0664 -0.0037 -0.1272
11457TIP3    H155862   2.164   2.621  10.780 -0.4456 -0.0385 -0.8227
11457TIP3    H255863   2.139   2.769  10.798 -0.1340 -0.0640 -0.1353
11458TIP3   OH255864   5.659   3.549   1.964 -1.2335  0.4825 -0.3663
11458TIP3    H155865   5.679   3.500   1.884 -1.3334  2.4975 -1.6978
11458TIP3    H255866   5.708   3.504   2.033 -0.9817 -1.1823 -1.5839
11459TIP3   OH255867   2.800   0.275   1.109  0.2865  0.5562 -0.0353
11459TIP3    H155868   2.758   0.323   1.038 -0.3401  0.6270  0.3731
11459TIP3    H255869   2.850   0.206   1.066  0.9868  1.4065 -0.6147
11460TIP3   OH255870   3.005   4.303  16.014 -0.0502 -0.0001  0.2344
11460TIP3    H155871   2.926   4.253  16.034  0.5616 -0.5584  1.3491
11460TIP3    H255872   3.021   4.288  15.920  0.3628 -2.2864  0.6204
11461TIP3   OH255873   5.063   5.711   5.746  0.4704 -0.4053 -0.5213
11461TIP3    H155874   5.050   5.790   5.695  1.1605 -0.8356 -1.3886
11461TIP3    H255875   5.158   5.702   5.755  0.3727 -0.3922  0.7721
11462TIP3   OH255876   4.179   5.713   3.714  0.0753 -0.2030 -0.3715
11462TIP3    H155877   4.102   5.657   3.706 -0.9381  1.2632 -1.3684
11462TIP3    H255878   4.244   5.658   3.757 -1.1984 -1.7991 -0.3889
11463TIP3   OH255879   4.099   4.274  16.501  0.3260  0.4740  0.0075
11463TIP3    H155880   4.089   4.360  16.461  0.3151 -0.5998 -2.4568
11463TIP3    H255881   4.011   4.250  16.530  0.1367  0.8375 -0.2729
11464TIP3   OH255882   1.372   5.044   3.865  0.5538  0.4416  0.0870
11464TIP3    H155883   1.368   5.007   3.953 -2.1142  0.6579  0.1330
11464TIP3    H255884   1.370   4.968   3.806  2.5771  0.2869  0.1665
11465TIP3   OH255885   0.012   3.786   2.990 -0.7763 -0.6700 -0.2585
11465TIP3    H155886  -0.049   3.839   3.042 -0.7474  0.0669 -0.9722
11465TIP3    H255887  -0.032   3.701   2.982 -2.1700  0.1349 -1.5590
11466TIP3   OH255888   0.645   0.483  15.326  0.0921  0.5926  0.1621
11466TIP3    H155889   0.686   0.534  15.396 -0.5931  0.7736  0.4423
11466TIP3    H255890   0.677   0.394  15.339 -1.5825  0.1808  1.9836
11467TIP3   OH255891   1.356   5.195  12.655  0.3187 -0.4272 -0.3458
11467TIP3    H155892   1.357   5.268  12.718 -1.9074 -0.6595  0.0491
11467TIP3    H255893   1.276   5.147  12.676  1.4967 -2.7468 -0.9073
11468TIP3   OH255894   2.917   2.675   2.791  0.2103  0.6156 -0.6950
11468TIP3    H155895   2.918   2.580   2.802  1.4033  0.6920  0.0924
11468TIP3    H255896   2.888   2.689   2.701 -0.9349 -0.4433 -0.5252
11469TIP3   OH255897   3.309   5.105  16.467 -0.6293 -0.2739 -0.5287
11469TIP3    H155898   3.340   5.156  16.542  0.3633 -0.8952 -0.4862
11469TIP3    H255899   3.263   5.168  16.412 -0.8716  0.3122  0.3235
11470TIP3   OH255900   0.962   1.102  16.799 -0.5930 -0.3494  0.0204
11470TIP3    H155901   0.921   1.025  16.761 -0.0232 -0.5240 -0.2596
11470TIP3    H255902   0.905   1.175  16.777 -0.4396 -0.4978 -0.8782
11471TIP3   OH255903   0.255   1.737  12.799  0.2576  0.4211 -0.0107
11471TIP3    H155904   0.249   1.659  12.743  0.5050 -0.7687  1.5507
11471TIP3    H255905   0.165   1.750  12.831  0.2889  0.5502  0.0248
11472TIP3   OH255906   4.213   3.386  13.834  0.4046  0.2819 -0.0720
11472TIP3    H155907   4.238   3.323  13.902  0.7198  0.7737  0.2693
11472TIP3    H255908   4.241   3.345  13.752 -0.4751 -0.5685  0.0277
11473TIP3   OH255909   0.469   3.337   4.608 -0.1443  0.4781 -0.1953
11473TIP3    H155910   0.483   3.428   4.581  0.9627 -0.0645 -1.4940
11473TIP3    H255911   0.433   3.345   4.697  1.5022  2.1565  0.3967
11474TIP3   OH255912   5.372   5.614  15.809  0.1161  0.4461  0.6824
11474TIP3    H155913   5.297   5.630  15.751  0.1357  0.3860  0.6399
11474TIP3    H255914   5.427   5.692  15.799 -0.7224  1.2366  1.9382
11475TIP3   OH255915   4.466   2.423  13.837 -0.3432 -0.0183 -0.2349
11475TIP3    H155916   4.376   2.414  13.870  0.3579  0.3727  1.9584
11475TIP3    H255917   4.470   2.513  13.806 -0.5834  0.1112  0.0975
11476TIP3   OH255918   3.843   3.068  13.894 -0.2668  0.1131  0.8034
11476TIP3    H155919   3.845   3.151  13.846 -0.4638 -0.3105  0.0595
11476TIP3    H255920   3.767   3.076  13.953  1.1863  1.4796  2.6173
11477TIP3   OH255921   5.813   0.164  11.783  0.5096 -0.4522  0.2089
11477TIP3    H155922   5.872   0.118  11.722  1.4948  2.5337 -1.2677
11477TIP3    H255923   5.868   0.188  11.857 -0.1959 -2.1644  1.3790
11478TIP3   OH255924   6.410   4.890   2.650  0.7643  0.3790  0.5127
11478TIP3    H155925   6.333   4.833   2.646  1.5123 -0.5875 -1.1123
11478TIP3    H255926   6.415   4.916   2.742  0.9106 -2.9840  1.6198
11479TIP3   OH255927   1.168   4.550   3.653 -0.6811 -0.7678  0.0729
11479TIP3    H155928   1.151   4.597   3.572  0.0344  0.3774  0.5656
11479TIP3    H255929   1.093   4.571   3.709 -0.0177  0.3976  0.5475
11480TIP3   OH255930   0.681   1.274   3.001 -0.3693 -0.0662 -0.5750
11480TIP3    H155931   0.639   1.334   3.062  1.1647  1.1566 -0.6766
11480TIP3    H255932   0.673   1.316   2.916 -0.4805 -0.6806 -0.8797
11481TIP3   OH255933   4.055   5.918  12.281 -0.1568  0.8382 -0.3514
11481TIP3    H155934   3.973   5.921  12.232  1.1954 -0.9752 -2.9976
11481TIP3    H255935   4.029   5.887  12.368 -2.2780  0.2649 -1.1088
11482TIP3   OH255936   1.726   6.167   5.708  0.0376 -0.1272 -0.0185
11482TIP3    H155937   1.650   6.159   5.765 -0.0190  1.5527  0.1949
11482TIP3    H255938   1.719   6.256   5.671  2.1747  0.2820  0.4418
11483TIP3   OH255939   4.145   6.785   5.242  0.7997  0.0184  0.1448
11483TIP3    H155940   4.198   6.725   5.190 -0.4555  0.8687 -2.2950
11483TIP3    H255941   4.064   6.737   5.258 -0.6625  1.2152 -2.7545
11484TIP3   OH255942   2.505   6.435   3.196  0.5232 -0.2241  0.2825
11484TIP3    H155943   2.453   6.469   3.123  0.5961 -2.4949 -0.9220
11484TIP3    H255944   2.498   6.503   3.264 -1.4747  0.9264 -0.9534
11485TIP3   OH255945   4.021   0.234  10.378 -0.1132  0.0674  0.2379
11485TIP3    H155946   4.080   0.204  10.308  1.8847 -0.7323  2.1674
11485TIP3    H255947   4.012   0.328  10.362  0.8159  0.0182 -0.7352
11486TIP3   OH255948   3.299   0.197   2.767 -0.3340  0.2662  0.1941
11486TIP3    H155949   3.394   0.206   2.758 -0.4001 -1.0971 -4.1167
11486TIP3    H255950   3.269   0.284   2.793  1.9209  1.1391  0.1727
11487TIP3   OH255951   1.814   4.954   2.580  0.1963  0.4108 -0.3973
11487TIP3    H155952   1.790   4.920   2.493 -1.5856  3.6073 -1.3194
11487TIP3    H255953   1.790   4.884   2.640 -1.2961 -0.8146 -2.2744
11488TIP3   OH255954   3.528   1.405  15.766  1.1220  0.2239  0.2916
11488TIP3    H155955   3.490   1.411  15.678  1.5872  0.9827  0.1295
11488TIP3    H255956   3.565   1.492  15.782  1.3958 -0.0277  1.0768
11489TIP3   OH255957   3.471   0.838  14.160 -0.2311 -0.6855  0.0409
11489TIP3    H155958   3.381   0.854  14.134 -0.7281 -2.4372  0.5251
11489TIP3    H255959   3.524   0.870  14.087 -1.1944  0.6760 -0.0992
11490TIP3   OH255960   3.361   2.668   2.943 -0.2483  0.0809  0.3786
11490TIP3    H155961   3.363   2.575   2.922 -1.0672 -0.2126  1.5190
11490TIP3    H255962   3.329   2.672   3.033 -0.4023  1.4811  0.2865
11491TIP3   OH255963   4.113   4.020   0.921 -0.3209 -0.1358  0.0440
11491TIP3    H155964   4.100   3.965   0.844 -1.2353  0.7193 -0.4319
11491TIP3    H255965   4.128   3.958   0.992  0.8925 -0.9266 -0.8766
11492TIP3   OH255966   5.190   5.582   6.194  0.1057  0.2182 -0.1266
11492TIP3    H155967   5.101   5.608   6.218 -0.1380 -1.2644  0.7381
11492TIP3    H255968   5.244   5.656   6.221 -0.7107  0.5321  0.7186
11493TIP3   OH255969   1.404   1.484   4.984  0.0911  0.3107  0.3567
11493TIP3    H155970   1.461   1.533   4.924 -0.8626  0.9079 -0.0988
11493TIP3    H255971   1.349   1.431   4.926  1.0079 -1.2194  0.8423
11494TIP3   OH255972   4.365   1.126  16.617  0.5848  0.9173 -0.1549
11494TIP3    H155973   4.363   1.042  16.572  1.2698  0.9784 -0.3168
11494TIP3    H255974   4.390   1.105  16.707 -1.1256  0.7580  0.3195
11495TIP3   OH255975   6.500   5.364   5.657  0.5278 -0.3071 -0.3239
11495TIP3    H155976   6.501   5.287   5.714 -1.2504  0.2009  0.4928
11495TIP3    H255977   6.580   5.357   5.605  0.7722 -2.3057  0.2297
11496TIP3   OH255978   3.043   6.037   3.328 -0.1458  0.0690  0.4475
11496TIP3    H155979   3.138   6.047   3.320  0.0299 -0.3110  1.8393
11496TIP3    H255980   3.031   5.946   3.356 -1.0091 -0.2394 -0.8073
11497TIP3   OH255981   2.723   2.201  12.952 -0.3155  0.1465 -0.4917
11497TIP3    H155982   2.810   2.238  12.964 -0.2433  0.1739 -1.0455
11497TIP3    H255983   2.729   2.112  12.985 -0.6495  0.7903  1.4026
11498TIP3   OH255984   1.199   5.571  16.080  0.2419  0.1132  0.1243
11498TIP3    H155985   1.172   5.637  16.143  0.0350 -1.1193  1.3710
11498TIP3    H255986   1.123   5.558  16.024  0.5580  1.5027 -0.6955
11499TIP3   OH255987   2.225   2.526  16.804 -0.3043 -0.4558  0.7798
11499TIP3    H155988   2.320   2.534  16.791 -0.5378 -0.5190 -1.5447
11499TIP3    H255989   2.215   2.495  16.893  1.9336 -1.4413  0.7518
11500TIP3   OH255990   1.674   5.120  15.875  0.2924  0.2667  0.0541
11500TIP3    H155991   1.621   5.046  15.845  2.0699 -1.4330  0.8776
11500TIP3    H255992   1.624   5.158  15.947  0.0650 -1.1974  0.7173
11501TIP3   OH255993   5.269   1.705  14.555  0.3608 -0.5080  0.0530
11501TIP3    H155994   5.180   1.694  14.522  0.6178  0.2033 -0.9295
11501TIP3    H255995   5.261   1.770  14.625  0.5211  2.4392 -2.4370
11502TIP3   OH255996   6.781   5.345   3.569  0.4191  0.2167  0.0727
11502TIP3    H155997   6.845   5.284   3.535  0.0852  0.5976 -1.3183
11502TIP3    H255998   6.696   5.308   3.543  0.2179  1.2882 -0.9196
11503TIP3   OH255999   4.651   0.434  11.947  0.3133  0.6814 -0.4071
11503TIP3    H156000   4.697   0.353  11.928 -3.0007 -1.8202  1.1839
11503TIP3    H256001   4.587   0.443  11.876 -1.1112  0.3570  0.7823
11504TIP3   OH256002   2.784   5.308   3.138 -0.3722 -0.1232 -0.0405
11504TIP3    H156003   2.879   5.313   3.129 -0.2617 -2.3415 -0.7357
11504TIP3    H256004   2.763   5.216   3.118 -2.5117 -0.0409  1.5346
11505TIP3   OH256005   3.190   5.388   3.662 -0.7394  0.0626  0.0362
11505TIP3    H156006   3.133   5.409   3.587 -0.9353  0.9254  0.4125
11505TIP3    H256007   3.279   5.397   3.627 -0.8289  0.6435 -0.0504
11506TIP3   OH256008   3.463   2.288  14.684 -0.2539 -0.0393 -0.0563
11506TIP3    H156009   3.448   2.257  14.773 -0.8339 -0.4019 -0.2691
11506TIP3    H256010   3.507   2.372  14.694 -0.1730 -0.1528  0.5669
11507TIP3   OH256011   0.164   4.801  12.676  0.6175  0.5372  0.2405
11507TIP3    H156012   0.214   4.753  12.610  1.7095  1.4050  0.4082
11507TIP3    H256013   0.073   4.773  12.662  1.2955 -2.2979  0.9915
11508TIP3   OH256014   6.101   1.422  12.122 -0.3332  0.5150 -0.1501
11508TIP3    H156015   6.028   1.366  12.146  0.4132 -0.5318 -0.2695
11508TIP3    H256016   6.090   1.437  12.028 -0.2484  0.1291 -0.2240
11509TIP3   OH256017   5.701   3.944  14.277 -0.0292  0.1428  0.5565
11509TIP3    H156018   5.721   3.959  14.185 -1.2095 -0.4063  0.1885
11509TIP3    H256019   5.663   3.856  14.279 -1.6470  0.8283  1.2896
11510TIP3   OH256020   1.007   0.476  15.348  0.7147 -0.2951  0.4761
11510TIP3    H156021   0.971   0.529  15.418 -0.0956 -1.8916  1.3280
11510TIP3    H256022   1.102   0.488  15.354  0.5363  1.4382  0.2769
11511TIP3   OH256023   2.690   2.108  15.999 -0.4597  0.3983 -0.9178
11511TIP3    H156024   2.782   2.130  15.983 -0.5607  0.2408 -1.7576
11511TIP3    H256025   2.641   2.174  15.950 -0.8534  1.7509  1.1518
11512TIP3   OH256026   0.813   5.510   0.834  0.8281  0.2896  0.3505
11512TIP3    H156027   0.873   5.564   0.783 -1.2916  3.0053  0.5262
11512TIP3    H256028   0.775   5.449   0.770  0.5308  1.5368 -0.7023
11513TIP3   OH256029   0.862   0.888  14.400 -0.0833 -0.3959  0.1052
11513TIP3    H156030   0.895   0.943  14.471 -0.9990 -0.1027  0.3261
11513TIP3    H256031   0.858   0.800  14.438 -1.3536 -0.1029  0.7213
11514TIP3   OH256032   6.305   3.815  10.832  0.2399 -0.1349 -0.3956
11514TIP3    H156033   6.212   3.836  10.827  0.1124 -1.0455 -3.1601
11514TIP3    H256034   6.344   3.857  10.756  1.6755 -1.6966 -0.5868
11515TIP3   OH256035   6.511   0.361   2.204 -0.0324 -0.2075  0.5640
11515TIP3    H156036   6.455   0.283   2.205  0.2135 -0.3877  1.9545
11515TIP3    H256037   6.484   0.410   2.282  1.0404  0.2073  0.6854
11516TIP3   OH256038   6.691   0.138  12.688  1.0103  0.2205  0.6122
11516TIP3    H156039   6.599   0.128  12.662  0.6636  0.5823  1.6243
11516TIP3    H256040   6.692   0.112  12.781  2.3264 -1.7967  0.1049
11517TIP3   OH256041   3.484   3.135   5.779 -0.0094 -0.2031  0.1103
11517TIP3    H156042   3.498   3.217   5.731  0.2775 -0.5546 -0.4072
11517TIP3    H256043   3.411   3.093   5.734  1.3747 -1.3697 -1.1550
11518TIP3   OH256044   5.180   5.948   3.931  0.2423 -0.3293 -0.0041
11518TIP3    H156045   5.105   5.897   3.960 -1.2492  1.1927 -0.9594
11518TIP3    H256046   5.221   5.894   3.864 -2.1038  0.1317 -1.9849
11519TIP3   OH256047   6.608   4.732   5.605  0.0679 -0.4423  0.2094
11519TIP3    H156048   6.586   4.673   5.533  0.9061 -0.4485 -0.0472
11519TIP3    H256049   6.523   4.760   5.640 -0.3391 -1.0416 -0.2831
11520TIP3   OH256050   0.982   3.825  13.027 -0.2619 -0.3353 -0.0652
11520TIP3    H156051   0.929   3.847  12.950 -0.0038 -0.2882 -0.2283
11520TIP3    H256052   0.976   3.903  13.083 -0.2202 -0.2623 -0.1618
11521TIP3   OH256053   1.321   2.328  14.589  0.0916 -0.8163 -0.6754
11521TIP3    H156054   1.411   2.342  14.619  0.2489  0.9989 -1.8354
11521TIP3    H256055   1.273   2.303  14.668  1.0227  1.1228  0.6072
11522TIP3   OH256056   4.931   6.390   1.882  0.3341 -0.4385  0.2205
11522TIP3    H156057   5.003   6.378   1.945  1.0297 -0.6184 -0.5905
11522TIP3    H256058   4.867   6.443   1.929  0.9633 -0.3389  0.9912
11523TIP3   OH256059   0.122   3.075  16.902 -0.2418  0.1020 -0.6782
11523TIP3    H156060   0.066   3.132  16.849 -0.7427 -0.6806 -1.0020
11523TIP3    H256061   0.088   2.987  16.886  1.5741 -0.4872 -1.4886
11524TIP3   OH256062   2.523   3.628  11.808  0.7559 -0.4603  0.0154
11524TIP3    H156063   2.599   3.576  11.782  0.0081 -0.1982 -3.1593
11524TIP3    H256064   2.545   3.718  11.780 -0.6194 -0.3715 -0.8815
11525TIP3   OH256065   2.657   1.694   0.737  0.2715  0.4111 -0.1079
11525TIP3    H156066   2.647   1.632   0.665 -0.0414  0.9034 -0.4939
11525TIP3    H256067   2.712   1.764   0.700 -0.6805  1.1355 -0.1731
11526TIP3   OH256068   2.483   0.946  11.082  0.2285  0.6748 -0.0188
11526TIP3    H156069   2.458   0.957  11.174  1.5616 -0.6983  0.5440
11526TIP3    H256070   2.399   0.941  11.035 -0.5385 -0.5669  1.3777
11527TIP3   OH256071   0.698   1.254   1.063 -0.1134 -0.6190 -0.4728
11527TIP3    H156072   0.787   1.235   1.034  0.9029  1.9804  0.5631
11527TIP3    H256073   0.708   1.288   1.152 -2.4100 -2.2630  0.5142
11528TIP3   OH256074   3.011   1.789  13.578 -0.2761 -0.5645 -0.1009
11528TIP3    H156075   3.032   1.812  13.669  0.0680 -1.9653  0.2033
11528TIP3    H256076   3.068   1.845  13.525 -1.7006  1.4900  0.4650
11529TIP3   OH256077   2.390   5.897   1.145 -0.5251  0.1738 -1.1977
11529TIP3    H156078   2.399   5.965   1.211 -0.3591  0.3428 -1.3959
11529TIP3    H256079   2.312   5.848   1.172  0.2884 -0.5857 -0.1233
11530TIP3   OH256080   2.046   2.965  17.228  0.1224  0.8279  0.3212
11530TIP3    H156081   2.048   2.871  17.213 -1.5042  0.6006  1.2778
11530TIP3    H256082   2.107   3.001  17.164 -1.5039 -0.6022 -2.1507
11531TIP3   OH256083   2.076   0.367   1.487  0.0310 -0.3919 -0.5564
11531TIP3    H156084   2.085   0.291   1.431 -0.8095  0.2993 -1.6688
11531TIP3    H256085   2.005   0.418   1.449 -1.1981 -0.3172  1.6450
11532TIP3   OH256086   5.045   2.144   3.126  0.1504  0.4540  0.0560
11532TIP3    H156087   5.011   2.058   3.099  1.3610 -0.6142  1.7110
11532TIP3    H256088   4.971   2.188   3.167 -0.1093 -0.4608  0.5945
11533TIP3   OH256089   0.925   3.201  12.690 -0.7700  0.0393  0.6650
11533TIP3    H156090   0.917   3.252  12.609  1.2788 -0.3516  0.1540
11533TIP3    H256091   0.870   3.248  12.753 -2.3532  0.3979 -0.8917
11534TIP3   OH256092   1.762   5.434   4.386  0.6176  0.2317 -0.0347
11534TIP3    H156093   1.719   5.442   4.472 -0.0516 -2.2908 -0.0379
11534TIP3    H256094   1.733   5.510   4.337 -2.3434 -0.3347  0.6484
11535TIP3   OH256095   5.779   1.471  11.303 -0.2442  0.1213  0.5099
11535TIP3    H156096   5.689   1.486  11.334 -0.2868 -2.1059  1.7176
11535TIP3    H256097   5.803   1.387  11.342  2.0238  0.1864 -0.6165
11536TIP3   OH256098   6.675   3.343   3.940 -0.1936 -0.4822  0.1640
11536TIP3    H156099   6.642   3.263   3.980 -1.1037 -0.0883  0.2187
11536TIP3    H256100   6.635   3.414   3.990  1.5811  0.0441  0.9315
11537TIP3   OH256101   6.409   2.745  16.490  0.1913 -0.1866 -0.4793
11537TIP3    H156102   6.360   2.764  16.571  0.4145  1.2666 -0.6584
11537TIP3    H256103   6.342   2.741  16.422  0.2456  1.2938 -0.6418
11538TIP3   OH256104   2.034   1.623  15.002 -0.0181 -0.2347 -0.3880
11538TIP3    H156105   1.964   1.606  15.066  2.3277 -1.0763  2.1711
11538TIP3    H256106   2.017   1.561  14.931 -0.7547 -1.8848  1.1508
11539TIP3   OH256107   6.698   1.904  15.503  0.5306  0.5126 -0.5678
11539TIP3    H156108   6.617   1.938  15.463  0.6951  1.9531  0.2800
11539TIP3    H256109   6.667   1.837  15.564 -0.0467  1.2065 -0.0858
11540TIP3   OH256110   3.409   1.788  16.668 -0.0253  0.4591 -0.0013
11540TIP3    H156111   3.337   1.842  16.635  1.1151  1.8265 -0.3480
11540TIP3    H256112   3.382   1.698  16.650 -2.1158  0.8490  0.8372
11541TIP3   OH256113   2.431   6.786  16.874 -0.3912  0.6284  0.3387
11541TIP3    H156114   2.469   6.758  16.958  2.1914 -1.1805 -1.2495
11541TIP3    H256115   2.460   6.877  16.864  2.0735 -0.1042  0.0808
11542TIP3   OH256116   5.333   0.281  16.182 -0.0365  0.1778 -0.2012
11542TIP3    H156117   5.277   0.216  16.224  2.2443 -2.2790 -0.7474
11542TIP3    H256118   5.356   0.342  16.252  0.0047 -1.1902  1.0147
11543TIP3   OH256119   4.410   6.069  15.609  0.0960 -0.3813 -0.2021
11543TIP3    H156120   4.488   6.063  15.664 -0.8892 -1.0268  1.1922
11543TIP3    H256121   4.339   6.035  15.665 -1.1850  0.2415 -1.4025
11544TIP3   OH256122   6.549   4.614  17.203 -0.1674  0.0185  0.1198
11544TIP3    H156123   6.562   4.642  17.112 -0.5434 -1.0885 -0.2967
11544TIP3    H256124   6.470   4.560  17.200  0.9121 -1.6834  0.7020
11545TIP3   OH256125   3.197   5.485  12.650 -0.0199 -0.2553  0.6136
11545TIP3    H156126   3.201   5.516  12.559 -0.4112 -0.6305  0.4668
11545TIP3    H256127   3.107   5.503  12.677 -0.2696 -1.3010  0.5125
11546TIP3   OH256128   4.034   3.833  11.993 -0.5195  0.1544 -0.4326
11546TIP3    H156129   3.942   3.829  12.018 -1.0468 -2.1979 -2.3065
11546TIP3    H256130   4.055   3.743  11.967  2.6974  0.3462  1.1135
11547TIP3   OH256131   3.983   0.428   5.965 -0.0529  0.3187 -0.0217
11547TIP3    H156132   3.898   0.472   5.965 -0.5722 -0.6490 -0.1965
11547TIP3    H256133   3.994   0.396   6.054  1.9841  3.7942  1.1598
11548TIP3   OH256134   5.545   3.791   0.132  0.2483  0.1163  0.0667
11548TIP3    H156135   5.459   3.760   0.103  0.5725 -0.3693 -0.4012
11548TIP3    H256136   5.529   3.827   0.219 -0.7291  1.4905 -0.6284
11549TIP3   OH256137   1.756   4.040  12.202  0.5388  0.1271  0.5362
11549TIP3    H156138   1.775   4.052  12.108  0.3930  0.8113  0.5933
11549TIP3    H256139   1.829   3.987  12.234 -0.1459 -1.3639 -0.2596
11550TIP3   OH256140   0.836   2.328  13.510  0.0446 -0.4638 -0.4273
11550TIP3    H156141   0.879   2.375  13.582 -0.0234  0.2098 -0.8193
11550TIP3    H256142   0.743   2.340  13.526  0.0200 -0.8084 -0.3076
11551TIP3   OH256143   2.025   6.156   4.116  0.0647  0.3839  0.3364
11551TIP3    H156144   1.939   6.157   4.158  0.4983 -1.7068  1.4074
11551TIP3    H256145   2.007   6.165   4.023 -1.2967  0.3719  0.5851
11552TIP3   OH256146   0.867   5.537   2.077  0.1160 -0.4515 -0.9468
11552TIP3    H156147   0.795   5.485   2.112 -0.4771  0.8642 -0.1106
11552TIP3    H256148   0.905   5.581   2.154 -2.0342  3.5444 -1.8954
11553TIP3   OH256149   1.317   2.177   3.961 -0.6898  0.2264  0.4975
11553TIP3    H156150   1.353   2.088   3.957 -0.4859  0.3260 -0.0810
11553TIP3    H256151   1.245   2.176   3.898 -0.0944  0.7233 -0.2081
11554TIP3   OH256152   1.181   2.367  12.240  0.0517  0.6560  0.0551
11554TIP3    H156153   1.227   2.368  12.155  0.7973 -2.9061  0.2545
11554TIP3    H256154   1.168   2.275  12.259 -1.8466  1.3868  2.9827
11555TIP3   OH256155   3.875   3.138  11.599  0.4862 -0.0971 -0.3277
11555TIP3    H156156   3.961   3.169  11.571  1.4123 -2.2216 -0.0736
11555TIP3    H256157   3.894   3.080  11.673 -1.3844  0.9908  1.1026
11556TIP3   OH256158   5.903   0.758   4.088  0.4595  0.2817  0.0843
11556TIP3    H156159   5.978   0.809   4.056  0.9840  0.4451  1.4785
11556TIP3    H256160   5.828   0.795   4.042  1.2291  0.1152 -1.3441
11557TIP3   OH256161   6.093   4.226  16.628 -0.5248 -0.2208 -0.4129
11557TIP3    H156162   6.085   4.145  16.577  0.2994  0.2485 -1.3153
11557TIP3    H256163   6.174   4.215  16.678 -0.6965 -0.1697 -0.1193
11558TIP3   OH256164   4.112   4.035   1.656  0.3275 -0.6558 -0.1355
11558TIP3    H156165   4.146   4.094   1.723  1.3633 -1.5550  0.1768
11558TIP3    H256166   4.108   4.088   1.577  1.3377 -0.1744  0.1129
11559TIP3   OH256167   1.921   4.237  12.546  0.3028  0.2716 -0.3593
11559TIP3    H156168   1.853   4.255  12.481  0.7270  0.5473 -0.7337
11559TIP3    H256169   1.877   4.187  12.615 -0.7835  2.1714  0.4058
11560TIP3   OH256170   4.238   3.382  16.635  0.8695  0.2606  0.7721
11560TIP3    H156171   4.278   3.348  16.555  2.5203 -0.8511  1.9795
11560TIP3    H256172   4.152   3.414  16.608  0.2604 -2.5029 -0.9829
11561TIP3   OH256173   6.149   0.541  16.746  0.5997 -0.0113  0.3802
11561TIP3    H156174   6.191   0.534  16.660 -0.5429 -1.3634 -0.1052
11561TIP3    H256175   6.193   0.475  16.800  1.8009  1.3125  1.0851
11562TIP3   OH256176   5.671   6.032  16.376  0.1810  0.2022 -0.2846
11562TIP3    H156177   5.761   6.065  16.373  0.9894 -1.8928 -0.2699
11562TIP3    H256178   5.657   6.011  16.468  0.9032 -2.5548 -0.7327
11563TIP3   OH256179   3.239   1.142  12.139  0.4196 -0.1240  0.2540
11563TIP3    H156180   3.322   1.113  12.177  0.8761  0.9324  0.1011
11563TIP3    H256181   3.200   1.197  12.207  1.2167  1.7352 -0.7274
11564TIP3   OH256182   3.340   2.681  12.426 -0.4609  0.2370 -0.4347
11564TIP3    H156183   3.353   2.637  12.342  0.6361 -0.6995  0.2102
11564TIP3    H256184   3.428   2.700  12.458 -0.8031 -0.5892  1.1122
11565TIP3   OH256185   1.667   2.209  10.825 -0.8980 -0.1974  0.3724
11565TIP3    H156186   1.615   2.258  10.888 -0.8704  0.6228 -0.2325
11565TIP3    H256187   1.609   2.196  10.750 -0.6743 -0.4697  0.2456
11566TIP3   OH256188   4.043   1.689   2.294 -0.3002 -0.2378  0.7170
11566TIP3    H156189   3.977   1.709   2.360 -1.0439  0.2162 -0.1418
11566TIP3    H256190   3.998   1.701   2.210  0.8313 -0.0689  0.1110
11567TIP3   OH256191   4.205   5.718   3.364  0.4354 -0.2137 -0.0414
11567TIP3    H156192   4.279   5.775   3.344  0.2240  0.2737  0.5508
11567TIP3    H256193   4.154   5.766   3.429  0.5399 -1.2963  0.8694
11568TIP3   OH256194   0.910   1.721  13.622 -0.5130  0.1955 -0.0360
11568TIP3    H156195   0.836   1.721  13.562 -0.7020 -1.0552  0.1603
11568TIP3    H256196   0.895   1.796  13.679 -1.1935  0.4300 -0.5126
11569TIP3   OH256197   4.665   3.265   4.405 -0.4312 -0.0709  0.4392
11569TIP3    H156198   4.649   3.357   4.385 -0.5718  0.1044  1.3252
11569TIP3    H256199   4.582   3.234   4.442 -0.0790 -0.2852  1.0622
11570TIP3   OH256200   1.892   3.737   5.958 -0.1948 -0.6946  0.0633
11570TIP3    H156201   1.877   3.689   6.039 -1.4904 -1.2557 -0.4865
11570TIP3    H256202   1.880   3.829   5.982  0.0906 -0.8025  0.6388
11571TIP3   OH256203   0.843   2.316   0.614 -0.2302  0.6639 -0.4074
11571TIP3    H156204   0.824   2.237   0.665  0.3893  1.3207  0.8900
11571TIP3    H256205   0.930   2.343   0.642  0.1556  1.0515 -1.8601
11572TIP3   OH256206   4.492   2.240  13.629 -0.0478  0.3763  0.0247
11572TIP3    H156207   4.433   2.281  13.566 -0.7571 -1.1150 -0.3132
11572TIP3    H256208   4.495   2.301  13.702 -0.2879  1.4866 -0.8641
11573TIP3   OH256209   4.047   3.690  12.333 -0.2575 -0.1760  0.1189
11573TIP3    H156210   3.988   3.639  12.278 -1.0209 -1.0765  1.7199
11573TIP3    H256211   4.044   3.778  12.295  0.8155 -1.1404 -2.4988
11574TIP3   OH256212   6.554   3.740   0.784  0.0779 -0.6855  0.2419
11574TIP3    H156213   6.602   3.707   0.708  0.4407 -1.8898  0.9691
11574TIP3    H256214   6.467   3.702   0.777 -0.7772  1.3272 -0.9600
11575TIP3   OH256215   2.892   3.043  14.375  0.6319  0.0456  0.4746
11575TIP3    H156216   2.797   3.034  14.374  0.6765 -0.5718 -1.0971
11575TIP3    H256217   2.914   3.054  14.468 -0.9151 -0.3666  0.9212
11576TIP3   OH256218   5.252   2.756   0.706  0.1764  0.2347  0.2743
11576TIP3    H156219   5.180   2.746   0.644 -0.4801  2.0979  0.6483
11576TIP3    H256220   5.263   2.670   0.745 -1.3767 -0.2681 -0.3240
11577TIP3   OH256221   5.930   1.745   2.832  0.1706 -0.5051  0.3156
11577TIP3    H156222   5.937   1.790   2.748 -1.6786 -4.1567 -2.0233
11577TIP3    H256223   5.843   1.768   2.864  0.2817 -0.3393  0.5068
11578TIP3   OH256224   3.321   3.065  16.539 -0.4668  0.5313  0.1959
11578TIP3    H156225   3.272   3.009  16.479  0.5619 -0.8550  0.5919
11578TIP3    H256226   3.393   3.010  16.570  0.0399  1.7771  1.3524
11579TIP3   OH256227   0.197   3.002  15.774 -0.2810  0.4378 -0.4224
11579TIP3    H156228   0.264   2.996  15.842 -0.5220 -1.8799 -0.2940
11579TIP3    H256229   0.245   3.028  15.696  1.2015 -2.6065 -0.6967
11580TIP3   OH256230   0.650   0.890   3.123 -0.2225  0.1764 -0.0454
11580TIP3    H156231   0.565   0.928   3.101 -1.0779 -2.1356 -1.1400
11580TIP3    H256232   0.634   0.796   3.125  2.4689 -0.4127 -1.1309
11581TIP3   OH256233   1.801   1.944   0.079  0.0743 -0.3186 -0.1904
11581TIP3    H156234   1.757   1.862   0.102 -1.2532 -0.1081 -1.7627
11581TIP3    H256235   1.894   1.926   0.092 -0.3660 -1.0565  2.4679
11582TIP3   OH256236   1.725   1.606  12.099  0.2907  0.4889 -0.1044
11582TIP3    H156237   1.761   1.620  12.186 -2.0182 -3.3211  1.7317
11582TIP3    H256238   1.633   1.632  12.106  0.2916  1.0729 -1.7616
11583TIP3   OH256239   3.131   2.843   5.478 -0.1365  0.0673 -0.1447
11583TIP3    H156240   3.056   2.895   5.509  0.1471 -0.3844  1.4032
11583TIP3    H256241   3.103   2.752   5.489 -0.5566 -0.1832 -2.6659
11584TIP3   OH256242   3.242   5.322  12.852 -0.4862 -0.3500 -0.2792
11584TIP3    H156243   3.222   5.377  12.776  0.9557  1.2572  0.4469
11584TIP3    H256244   3.275   5.383  12.918 -1.4329 -1.7301  1.5838
11585TIP3   OH256245   6.289   3.403   0.569 -0.9652 -0.4283 -0.1368
11585TIP3    H156246   6.221   3.438   0.512 -1.6388 -1.4410  0.0303
11585TIP3    H256247   6.307   3.316   0.536  0.8617  0.1161 -0.6787
11586TIP3   OH256248   3.159   0.530   3.860 -0.3449 -0.7243  0.1223
11586TIP3    H156249   3.246   0.544   3.898 -1.4382  1.8166  2.0360
11586TIP3    H256250   3.105   0.505   3.935 -1.6341 -0.3429 -0.6633
11587TIP3   OH256251   1.297   4.118   4.722 -0.0589  0.0499  0.0867
11587TIP3    H156252   1.335   4.183   4.782 -2.1118  0.0132  1.5499
11587TIP3    H256253   1.372   4.067   4.691  1.3464  1.6687  0.6873
11588TIP3   OH256254   6.347   0.675  13.873  0.4042 -0.3534 -0.1091
11588TIP3    H156255   6.283   0.724  13.821 -0.7545  0.2142  1.7080
11588TIP3    H256256   6.324   0.583  13.861  0.1665 -0.2283 -0.6116
11589TIP3   OH256257   6.652   4.656   3.546  0.1953 -0.0341  0.5523
11589TIP3    H156258   6.601   4.579   3.523  0.1575 -1.0359  3.5448
11589TIP3    H256259   6.743   4.628   3.537  0.2718  0.7155 -1.5921
11590TIP3   OH256260   6.214   1.328   1.535 -0.1016  0.1941 -0.8573
11590TIP3    H156261   6.198   1.360   1.446 -0.7101  2.5812  0.0442
11590TIP3    H256262   6.161   1.385   1.591  1.9554  0.1743  1.2387
11591TIP3   OH256263   0.329   0.949   2.144 -0.0672  0.0082 -0.4771
11591TIP3    H156264   0.396   0.956   2.075 -0.4404 -0.2149 -0.8696
11591TIP3    H256265   0.305   0.856   2.144  1.7235 -0.5450  1.6915
11592TIP3   OH256266   1.727   0.680   0.524 -0.1989  0.7614 -0.5996
11592TIP3    H156267   1.804   0.638   0.486 -0.5242 -0.6111  0.1684
11592TIP3    H256268   1.720   0.641   0.612 -0.5802  2.3913  0.1302
11593TIP3   OH256269   1.803   3.801  11.218  0.5397 -0.4634  0.3626
11593TIP3    H156270   1.855   3.797  11.138 -0.0104  2.5860 -0.2739
11593TIP3    H256271   1.716   3.773  11.192  0.7366 -1.0072  0.2855
11594TIP3   OH256272   0.729   5.241   0.275 -0.1088  0.1416 -0.1140
11594TIP3    H156273   0.747   5.321   0.226  0.0595  1.6425  2.2424
11594TIP3    H256274   0.811   5.219   0.318 -0.2034 -1.2292 -0.5740
11595TIP3   OH256275   1.845   2.687   1.253  0.6030 -0.0045  0.4242
11595TIP3    H156276   1.818   2.700   1.163 -0.6950  0.5831  0.8824
11595TIP3    H256277   1.763   2.684   1.303  1.2989 -0.2749  1.5905
11596TIP3   OH256278   2.670   3.197  12.106 -0.5343  0.1478  0.3556
11596TIP3    H156279   2.752   3.205  12.057 -0.3339  1.4477  0.8474
11596TIP3    H256280   2.670   3.107  12.138  1.4311  0.5043  1.5600
11597TIP3   OH256281   6.642   0.361   5.988 -0.3085 -0.8326  0.1552
11597TIP3    H156282   6.691   0.354   5.907 -0.3223  0.9115 -0.0538
11597TIP3    H256283   6.550   0.365   5.960 -0.2984  0.0192  0.2191
11598TIP3   OH256284   1.311   5.751  13.251 -0.3688  0.6489 -0.4639
11598TIP3    H156285   1.404   5.762  13.235 -0.1380 -1.1359 -0.5562
11598TIP3    H256286   1.274   5.839  13.240  1.3227  1.4425 -0.1402
11599TIP3   OH256287   4.419   3.449  13.380 -0.0980 -0.2484 -0.6240
11599TIP3    H156288   4.504   3.406  13.380 -0.4737 -1.0843  1.5663
11599TIP3    H256289   4.357   3.381  13.404 -1.0684  0.8807  0.2252
11600TIP3   OH256290   5.389   5.193  14.215 -0.1539 -0.5228 -0.1767
11600TIP3    H156291   5.433   5.263  14.167 -1.4479  1.9401  1.9378
11600TIP3    H256292   5.453   5.122  14.218  1.2650  0.5489 -2.3725
11601TIP3   OH256293   3.474   0.354   1.456  0.4924  0.1306 -0.2517
11601TIP3    H156294   3.533   0.334   1.383 -1.4326  0.9009 -2.1142
11601TIP3    H256295   3.418   0.278   1.464 -0.2141  0.6145 -0.5193
11602TIP3   OH256296   3.784   0.462   6.423 -0.3455 -0.2590  0.4430
11602TIP3    H156297   3.714   0.437   6.362 -0.8387  2.0181 -0.0099
11602TIP3    H256298   3.739   0.507   6.494  0.5448  0.2094  0.7263
11603TIP3   OH256299   5.413   5.935   3.447  0.0864  0.3020  0.0610
11603TIP3    H156300   5.322   5.964   3.460 -0.0037 -0.1989  0.5913
11603TIP3    H256301   5.443   5.911   3.534  0.0660 -1.4545 -0.3851
11604TIP3   OH256302   4.245   3.816  14.057 -0.5733  0.1739 -0.4058
11604TIP3    H156303   4.272   3.906  14.075  1.4979 -0.6891  1.3311
11604TIP3    H256304   4.299   3.788  13.983  1.7426 -0.7667  1.5024
11605TIP3   OH256305   6.031   0.253  14.335 -0.1104  0.3145 -0.4010
11605TIP3    H156306   6.087   0.297  14.271  0.4079  0.0877 -0.1114
11605TIP3    H256307   5.944   0.253  14.295  0.3315 -0.3879 -1.4004
11606TIP3   OH256308   4.008   2.229  13.251  0.5791  0.1823 -0.4373
11606TIP3    H156309   3.996   2.165  13.321  0.3274 -0.1686 -0.7959
11606TIP3    H256310   4.050   2.304  13.293 -2.5494  1.3725  0.8629
11607TIP3   OH256311   2.490   4.468  14.266  0.9958  0.3077  0.9904
11607TIP3    H156312   2.535   4.482  14.183  1.1962  0.6567  1.1557
11607TIP3    H256313   2.435   4.390  14.251 -0.8363  1.7375 -0.2411
11608TIP3   OH256314   0.396   0.350   5.548  0.3039  1.1554  0.4059
11608TIP3    H156315   0.399   0.428   5.491  3.6279  0.1471 -1.0748
11608TIP3    H256316   0.356   0.282   5.493 -2.1694  1.5921  1.5400
11609TIP3   OH256317   6.320   5.416  11.627  0.0906  0.3685 -0.6721
11609TIP3    H156318   6.268   5.487  11.588 -1.4290 -1.1087 -1.4401
11609TIP3    H256319   6.384   5.394  11.559  0.4344  0.8474 -0.5104
11610TIP3   OH256320   4.691   2.109  13.522  0.3366 -0.1257 -0.4006
11610TIP3    H156321   4.625   2.143  13.582  1.0767  0.8351 -0.1032
11610TIP3    H256322   4.641   2.075  13.448 -0.5388 -0.4975  0.3495
11611TIP3   OH256323   2.166   0.616   5.138  0.4219  0.3633  0.2012
11611TIP3    H156324   2.175   0.711   5.136  0.6264  0.3397 -0.1195
11611TIP3    H256325   2.072   0.600   5.128 -0.0058  0.6001  3.0209
11612TIP3   OH256326   4.257   4.854  16.911  0.5343 -0.1408 -0.3210
11612TIP3    H156327   4.266   4.770  16.957 -1.1355 -0.3073 -0.2465
11612TIP3    H256328   4.323   4.911  16.953  0.1451 -0.7557  1.2144
11613TIP3   OH256329   3.123   0.241  12.921  0.1122  0.6465  0.5129
11613TIP3    H156330   3.203   0.198  12.953 -0.1823 -0.0910  0.2771
11613TIP3    H256331   3.088   0.286  12.998  1.6517  2.4385  0.2469
11614TIP3   OH256332   1.643   0.890  12.053 -0.4362 -0.1630  0.1322
11614TIP3    H156333   1.720   0.883  12.109 -0.3581 -0.8181 -0.0449
11614TIP3    H256334   1.676   0.877  11.964 -0.2788  2.6500 -0.2864
11615TIP3   OH256335   6.198   4.285  16.365 -0.1015  0.0734 -0.3600
11615TIP3    H156336   6.263   4.273  16.434 -0.2357  0.6375 -0.1307
11615TIP3    H256337   6.124   4.230  16.392  0.3154 -0.6733 -0.6883
11616TIP3   OH256338   6.495   2.523  12.801  0.8296  0.1987  0.4624
11616TIP3    H156339   6.444   2.532  12.881 -0.9004  0.6798 -0.6237
11616TIP3    H256340   6.545   2.442  12.813 -0.7927 -0.7361  1.2963
11617TIP3   OH256341   0.141   5.740  10.547 -0.0274  0.4165 -0.1749
11617TIP3    H156342   0.145   5.775  10.636 -1.7070 -0.4538  0.2777
11617TIP3    H256343   0.052   5.757  10.518 -0.1938 -1.3351 -0.8213
11618TIP3   OH256344   1.154   4.249   5.401  0.4522  0.2169  0.1106
11618TIP3    H156345   1.215   4.321   5.421  0.8907 -0.5794  1.8651
11618TIP3    H256346   1.067   4.290   5.405  0.7447  0.8394  0.2158
11619TIP3   OH256347   1.462   6.243   3.312  0.0326  0.0048  0.0560
11619TIP3    H156348   1.479   6.331   3.345  0.9740 -0.5423  1.1328
11619TIP3    H256349   1.395   6.208   3.371 -2.0683  0.7618 -1.7665
11620TIP3   OH256350   1.912   5.414   2.134  0.0173  0.1897  0.3728
11620TIP3    H156351   1.871   5.475   2.073  0.3189 -1.2491 -1.3523
11620TIP3    H256352   1.993   5.387   2.090 -0.2139 -1.6123  0.9545
11621TIP3   OH256353   2.425   4.241   4.534 -0.5582 -0.9982  0.3429
11621TIP3    H156354   2.372   4.313   4.567  0.8154  0.4823 -0.5202
11621TIP3    H256355   2.406   4.240   4.440  1.7362  0.3754 -0.2186
11622TIP3   OH256356   4.825   2.588  12.831  0.0852  0.4035  0.9531
11622TIP3    H156357   4.860   2.560  12.916 -2.3148 -1.0514  1.5547
11622TIP3    H256358   4.901   2.589  12.773  1.2431 -1.9140  2.3100
11623TIP3   OH256359   6.267   3.414   2.335  0.4561 -0.1281  0.2573
11623TIP3    H156360   6.287   3.445   2.247 -0.2119  0.1014  0.1739
11623TIP3    H256361   6.223   3.488   2.376  0.1565 -0.4677  0.5542
11624TIP3   OH256362   6.165   0.677  16.978  0.5031 -0.5387 -0.4185
11624TIP3    H156363   6.149   0.595  17.026  0.3543 -0.0657  0.3611
11624TIP3    H256364   6.142   0.656  16.887  1.5191 -1.6737 -0.4389
11625TIP3   OH256365   5.278   6.414   1.093 -0.1289  0.0424 -0.4996
11625TIP3    H156366   5.363   6.405   1.049 -0.1692  1.9333 -1.0802
11625TIP3    H256367   5.216   6.371   1.036  0.5199 -2.1909  0.3838
11626TIP3   OH256368   6.710   5.012   1.033 -0.3205 -0.3125  0.0403
11626TIP3    H156369   6.666   5.035   1.115  0.2090 -3.7125  1.4401
11626TIP3    H256370   6.655   4.945   0.994 -0.0623  0.5807 -1.9849
11627TIP3   OH256371   2.176   4.724  15.161  0.2318  0.0275  0.4310
11627TIP3    H156372   2.232   4.762  15.228  0.7132 -2.1968  1.3888
11627TIP3    H256373   2.203   4.766  15.079  0.7757  1.5897  1.3788
11628TIP3   OH256374   3.637   3.103   1.102 -0.1049 -0.0413  0.0006
11628TIP3    H156375   3.602   3.171   1.044 -0.4489 -0.8423 -0.7466
11628TIP3    H256376   3.561   3.050   1.125  0.1591 -0.1599  0.6011
11629TIP3   OH256377   0.981   2.374  11.043  0.1383  0.0294  0.3499
11629TIP3    H156378   1.063   2.386  10.994  0.0765  1.0099  0.4637
11629TIP3    H256379   0.992   2.290  11.088  0.9481 -0.0029  0.1096
11630TIP3   OH256380   3.812   2.501  13.502  0.3234 -0.2225 -0.2553
11630TIP3    H156381   3.761   2.421  13.509 -0.1425  0.1718  1.1925
11630TIP3    H256382   3.795   2.532  13.413 -1.6032 -0.3659  0.0044
11631TIP3   OH256383   6.142   4.810   2.485  0.0446  0.0274 -0.0115
11631TIP3    H156384   6.062   4.768   2.452 -0.5446  1.2961 -0.2603
11631TIP3    H256385   6.113   4.856   2.563  1.1707 -1.9130  1.6454
11632TIP3   OH256386   5.337   0.447  16.688  0.0053 -0.2402  0.2177
11632TIP3    H156387   5.315   0.531  16.648  2.8833 -0.2425 -1.6394
11632TIP3    H256388   5.352   0.388  16.615  0.4055 -1.7383  1.4435
11633TIP3   OH256389   4.947   4.447  15.244 -0.4104 -0.2277  0.2057
11633TIP3    H156390   4.982   4.535  15.229 -1.2445  0.2532  0.9314
11633TIP3    H256391   5.013   4.388  15.209 -0.6000  0.7047 -1.9184
11634TIP3   OH256392   3.063   0.404  16.914  0.1283 -0.9053  0.3135
11634TIP3    H156393   2.994   0.430  16.853 -0.4694 -1.8884  0.5546
11634TIP3    H256394   3.021   0.404  17.000  0.4458 -1.3960  0.4776
11635TIP3   OH256395   0.151   5.514   1.763  0.0383 -0.2246  0.4321
11635TIP3    H156396   0.146   5.482   1.673 -0.7328 -0.1656  0.4476
11635TIP3    H256397   0.081   5.468   1.809  0.6047 -0.4719  1.0793
11636TIP3   OH256398   0.458   6.768  11.695 -0.1529 -0.2465 -0.0449
11636TIP3    H156399   0.469   6.859  11.667  1.4742 -0.5383 -0.3995
11636TIP3    H256400   0.445   6.774  11.789 -1.6513  0.4458 -0.2595
11637TIP3   OH256401   3.748   4.358   1.383 -0.0254  0.1204  0.0587
11637TIP3    H156402   3.790   4.354   1.469  0.7172  0.4997 -0.2777
11637TIP3    H256403   3.687   4.432   1.389  1.2055  1.1839 -0.2437
11638TIP3   OH256404   1.123   5.075   2.294 -0.5725  0.6892 -0.0964
11638TIP3    H156405   1.139   4.999   2.351  0.1893  0.2446 -0.8703
11638TIP3    H256406   1.049   5.121   2.335  0.5875  0.9533  1.7929
11639TIP3   OH256407   0.805   3.286   6.153  0.1001 -0.1012 -0.3929
11639TIP3    H156408   0.820   3.355   6.088 -2.3765 -1.2333 -2.3301
11639TIP3    H256409   0.892   3.248   6.167  1.2295  2.1641 -0.6271
11640TIP3   OH256410   5.022   5.331  11.717  0.5829 -0.0493  0.6188
11640TIP3    H156411   4.980   5.350  11.800  0.5762 -1.2423  0.9182
11640TIP3    H256412   4.964   5.369  11.651  0.5778  0.8782  1.1460
11641TIP3   OH256413   2.194   3.873  12.321 -0.4159  0.6396  0.4566
11641TIP3    H156414   2.160   3.918  12.398  0.9208  0.1142  1.3903
11641TIP3    H256415   2.260   3.933  12.285  0.0503  0.2317  0.6214
11642TIP3   OH256416   6.109   2.567  11.883  0.2198 -0.1595  0.0318
11642TIP3    H156417   6.176   2.629  11.852 -0.9749  1.1119 -0.1033
11642TIP3    H256418   6.084   2.601  11.969  0.6019 -1.3358  0.6229
11643TIP3   OH256419   2.477   1.444  17.248 -0.7138  0.0704 -0.8075
11643TIP3    H156420   2.554   1.408  17.291 -1.5877  0.2255  0.9937
11643TIP3    H256421   2.501   1.534  17.226 -1.0072  0.8064  1.6256
11644TIP3   OH256422   2.724   4.156  13.274 -0.1884 -0.0069 -0.1267
11644TIP3    H156423   2.680   4.071  13.280 -0.3673  0.1649  1.8214
11644TIP3    H256424   2.814   4.136  13.248 -0.5763 -0.6523 -0.9955
11645TIP3   OH256425   4.416   6.045  16.723 -0.1008 -0.0222  0.7051
11645TIP3    H156426   4.349   6.055  16.655  0.3175 -0.5679  0.2031
11645TIP3    H256427   4.403   6.120  16.781 -0.9050  0.0766  0.4062
11646TIP3   OH256428   5.427   2.407   3.260  0.1757 -0.5931 -0.0468
11646TIP3    H156429   5.504   2.412   3.204 -0.7918  0.3977 -1.3281
11646TIP3    H256430   5.401   2.315   3.258  0.6967 -0.7319 -0.4745
11647TIP3   OH256431   4.388   2.114  13.290  0.2998  0.2076 -0.3234
11647TIP3    H156432   4.460   2.062  13.325 -1.3910 -1.2184  1.2512
11647TIP3    H256433   4.337   2.052  13.238  0.1483  1.1726 -1.3557
11648TIP3   OH256434   3.020   5.836  15.681  0.2645 -0.3014 -0.0884
11648TIP3    H156435   3.084   5.819  15.750  0.4991 -1.0785 -0.4911
11648TIP3    H256436   2.995   5.928  15.694 -0.3443 -0.6677  1.5718
11649TIP3   OH256437   1.164   1.086  12.510  0.3875  0.3087 -0.5570
11649TIP3    H156438   1.193   1.011  12.458 -0.5198  0.8809 -1.9538
11649TIP3    H256439   1.141   1.153  12.445  0.0501  1.3765  0.6168
11650TIP3   OH256440   6.443   1.165   2.795  0.5278  0.5320 -0.1645
11650TIP3    H156441   6.443   1.069   2.805 -0.3666  0.4934 -0.5032
11650TIP3    H256442   6.389   1.197   2.867 -2.6385  0.4922 -2.3358
11651TIP3   OH256443   5.928   3.982  15.571  1.0791 -0.8625 -0.0347
11651TIP3    H156444   5.839   3.953  15.590  1.4037 -0.9796  1.4652
11651TIP3    H256445   5.982   3.904  15.584  1.7803 -0.0473  2.5955
11652TIP3   OH256446   0.055   6.480   0.671  0.5667 -0.4521  0.2776
11652TIP3    H156447   0.025   6.507   0.758  0.1906  2.7295 -0.7113
11652TIP3    H256448   0.140   6.523   0.661 -0.0677  0.4673 -1.4590
11653TIP3   OH256449   0.151   0.241   1.532  0.1950 -0.3119  0.4726
11653TIP3    H156450   0.228   0.294   1.547  0.2023 -0.2942  0.3761
11653TIP3    H256451   0.178   0.177   1.466 -0.1253  0.2572 -0.2216
11654TIP3   OH256452   3.988   0.637  10.576  0.2263  0.5412 -0.4545
11654TIP3    H156453   3.978   0.590  10.658  1.7370  0.1479 -0.4866
11654TIP3    H256454   3.913   0.698  10.575 -1.3331 -1.2768 -0.0676
11655TIP3   OH256455   0.390   3.749   5.417 -0.6840  0.1785  0.5276
11655TIP3    H156456   0.317   3.732   5.476 -1.3097  0.0150 -0.2802
11655TIP3    H256457   0.462   3.697   5.453 -0.9094  0.4674  1.4219
11656TIP3   OH256458   5.681   1.528   0.137 -0.0475  0.2441 -0.1877
11656TIP3    H156459   5.761   1.519   0.086  0.1044  1.7985 -0.2613
11656TIP3    H256460   5.648   1.438   0.145  2.6216 -0.7250  1.3987
11657TIP3   OH256461   3.620   5.383   3.769  0.0629  0.0098 -0.4456
11657TIP3    H156462   3.626   5.406   3.676 -0.0320 -0.6698 -0.6209
11657TIP3    H256463   3.684   5.313   3.780  2.1940  1.9678  0.6165
11658TIP3   OH256464   3.578   2.404  14.167  0.2699  0.0054  0.2304
11658TIP3    H156465   3.494   2.432  14.131  0.5132 -0.2060 -0.5187
11658TIP3    H256466   3.633   2.388  14.091  1.0396  0.2679  0.7093
11659TIP3   OH256467   0.185   3.576   0.141  0.3541 -0.1484  0.2263
11659TIP3    H156468   0.180   3.577   0.046 -0.2847 -2.4089  0.1675
11659TIP3    H256469   0.094   3.583   0.170  0.4041 -0.9068  0.6026
11660TIP3   OH256470   0.666   3.403  14.496  0.0280  0.6382 -0.2965
11660TIP3    H156471   0.573   3.396  14.516  0.6795  0.1578  3.4125
11660TIP3    H256472   0.691   3.315  14.467 -0.4512  0.4196 -0.0588
11661TIP3   OH256473   4.624   4.882   0.948  0.0541  0.0060 -0.2585
11661TIP3    H156474   4.547   4.837   0.915  0.5199 -0.1029 -1.2432
11661TIP3    H256475   4.605   4.975   0.935  0.2538 -0.0351 -0.9435
11662TIP3   OH256476   6.778   6.077  15.238 -0.5051 -0.2982  0.0663
11662TIP3    H156477   6.756   6.166  15.266 -2.4987 -0.8327  0.3673
11662TIP3    H256478   6.694   6.040  15.208 -0.2228 -2.8002  2.0231
11663TIP3   OH256479   5.677   1.293   3.518 -0.4918 -0.3443  0.4212
11663TIP3    H156480   5.712   1.205   3.503  0.3419 -0.1757  1.2495
11663TIP3    H256481   5.595   1.295   3.469  1.1101 -0.4011 -2.5281
11664TIP3   OH256482   2.908   4.442  15.271  0.6637 -0.1458 -0.3706
11664TIP3    H156483   2.821   4.470  15.243  1.1087  1.1003 -0.5304
11664TIP3    H256484   2.932   4.373  15.209 -0.9062 -1.7402  0.7081
11665TIP3   OH256485   4.689   0.076   0.620  0.0574 -0.3353 -0.6183
11665TIP3    H156486   4.665   0.155   0.572  0.5428  0.3637  0.2565
11665TIP3    H256487   4.774   0.096   0.659 -0.4997 -0.7096  0.8662
11666TIP3   OH256488   6.372   6.102   1.742 -0.4034 -0.3690  0.3490
11666TIP3    H156489   6.430   6.029   1.722  1.6755  1.1907  0.3280
11666TIP3    H256490   6.429   6.169   1.781 -1.8291  1.9341 -1.2132
11667TIP3   OH256491   0.121   4.673   3.304  0.4226 -0.4956  0.1056
11667TIP3    H156492   0.202   4.657   3.354  1.3468  2.6724 -0.1421
11667TIP3    H256493   0.072   4.736   3.358 -0.7823 -0.5772 -0.8574
11668TIP3   OH256494   2.070   6.525   3.966 -0.2821  0.3447  0.1911
11668TIP3    H156495   2.137   6.591   3.981 -0.3919  0.4748  0.1052
11668TIP3    H256496   2.039   6.501   4.054  0.1800 -0.0297  0.2581
11669TIP3   OH256497   5.455   1.623  13.530  0.6040  0.3606  0.5226
11669TIP3    H156498   5.453   1.691  13.464 -0.9229 -1.1808 -1.1422
11669TIP3    H256499   5.363   1.600  13.544  1.0379 -0.9054  1.5072
11670TIP3   OH256500   0.204   2.763   4.514  0.7928 -0.0633 -0.4437
11670TIP3    H156501   0.145   2.712   4.459  0.3094  2.1374 -2.0622
11670TIP3    H256502   0.146   2.821   4.564  1.3973 -0.3797  0.6701
11671TIP3   OH256503   4.627   1.912   1.010 -0.4417  0.7431 -0.3173
11671TIP3    H156504   4.604   1.971   0.939  1.0955 -1.4552 -2.8160
11671TIP3    H256505   4.561   1.842   1.006 -0.9402  1.0794  1.1625
11672TIP3   OH256506   3.876   5.507  14.378  0.3581  0.0036 -0.0515
11672TIP3    H156507   3.782   5.489  14.377  0.5489 -1.2213 -1.5020
11672TIP3    H256508   3.888   5.576  14.443 -1.2892 -1.1260  1.5452
11673TIP3   OH256509   6.017   4.030  16.839  0.4593 -0.2133 -0.3297
11673TIP3    H156510   6.014   3.939  16.810 -1.0016  0.2429 -1.8185
11673TIP3    H256511   5.928   4.047  16.872  1.3325  0.0736  2.0321
11674TIP3   OH256512   3.793   3.424   6.246  0.0861 -0.0403  0.2020
11674TIP3    H156513   3.795   3.513   6.281  0.3638  0.1081 -0.1782
11674TIP3    H256514   3.857   3.376   6.298 -0.5410 -0.1889  0.8467
11675TIP3   OH256515   6.067   2.244  15.481  0.0536 -0.0004  1.0402
11675TIP3    H156516   6.132   2.294  15.432  0.9303 -1.2520  0.8562
11675TIP3    H256517   6.073   2.155  15.444 -1.0053 -0.3834  1.7513
11676TIP3   OH256518   5.227   5.556  12.587 -0.0697  0.3194 -0.3660
11676TIP3    H156519   5.216   5.608  12.508 -0.7552 -1.5884 -1.5783
11676TIP3    H256520   5.151   5.576  12.641  0.1578  1.2622 -0.3812
11677TIP3   OH256521   4.058   5.297  12.678  0.3940  0.4229 -0.4309
11677TIP3    H156522   4.045   5.214  12.722  1.5302 -0.3962 -1.5456
11677TIP3    H256523   4.006   5.291  12.598  1.3229  0.3277 -1.0423
11678TIP3   OH256524   1.219   0.964   5.435 -0.1886  0.3208 -0.0914
11678TIP3    H156525   1.280   1.015   5.489 -0.8237  0.2391  0.7220
11678TIP3    H256526   1.138   0.961   5.487 -0.8995  0.4590 -1.1711
11679TIP3   OH256527   0.102   6.311  11.011 -0.0458 -0.4484 -0.3825
11679TIP3    H156528   0.085   6.222  10.980 -0.3799 -1.0730  1.4419
11679TIP3    H256529   0.164   6.300  11.083  0.2333  0.8428 -0.3962
11680TIP3   OH256530   3.901   0.694   1.082 -0.3386 -0.3761  0.1435
11680TIP3    H156531   3.972   0.641   1.046  0.4109  0.4372  0.3881
11680TIP3    H256532   3.823   0.668   1.033 -0.6117 -3.6800  2.0290
11681TIP3   OH256533   3.516   6.517  11.689 -0.4717 -0.3747  0.3968
11681TIP3    H156534   3.584   6.505  11.756  1.6171  0.2830 -1.4570
11681TIP3    H256535   3.441   6.468  11.721  0.4131 -0.0497  3.2141
11682TIP3   OH256536   5.282   4.723   0.404  0.0072  0.2863  0.1132
11682TIP3    H156537   5.271   4.793   0.340  1.3406  0.7080  0.3096
11682TIP3    H256538   5.350   4.755   0.463  0.0809 -0.8508  0.6722
11683TIP3   OH256539   3.720   5.567   0.816 -0.2801 -0.0184  0.8590
11683TIP3    H156540   3.667   5.564   0.737  0.2475  0.9727  0.4421
11683TIP3    H256541   3.682   5.501   0.874  0.0215 -1.5788 -0.6503
11684TIP3   OH256542   2.149   3.375  17.110 -0.3801 -0.2723  0.2301
11684TIP3    H156543   2.168   3.425  17.190  2.2256  0.5189 -0.7590
11684TIP3    H256544   2.094   3.434  17.058 -1.8200 -0.6633  1.2496
11685TIP3   OH256545   3.969   3.149   3.223  0.4878 -0.2940 -0.1521
11685TIP3    H156546   3.995   3.137   3.131  0.1195 -2.2349 -0.0500
11685TIP3    H256547   3.904   3.219   3.220  1.4290  0.5790 -1.1782
11686TIP3   OH256548   3.593   2.856  11.783 -0.1401 -0.4664  0.2045
11686TIP3    H156549   3.636   2.774  11.758  0.6229 -0.4961  1.5287
11686TIP3    H256550   3.544   2.834  11.863  0.6076  0.5123  0.9574
11687TIP3   OH256551   1.438   4.146  14.776  0.5768  0.0848 -0.0876
11687TIP3    H156552   1.353   4.116  14.808  0.4959 -0.0372 -0.4117
11687TIP3    H256553   1.502   4.098  14.829  0.4448 -0.2856 -0.2610
11688TIP3   OH256554   4.481   4.315   1.032 -0.4563  0.2503  0.5031
11688TIP3    H156555   4.448   4.225   1.027  2.1538 -0.8044  0.3651
11688TIP3    H256556   4.501   4.338   0.941  0.6958  0.1900  0.7254
11689TIP3   OH256557   1.405   0.332  15.502  0.0494 -0.4888 -0.5414
11689TIP3    H156558   1.439   0.255  15.457  1.7515 -0.0245 -0.1329
11689TIP3    H256559   1.469   0.349  15.571 -1.8470 -0.4587  1.2963
11690TIP3   OH256560   4.513   1.884  16.021  0.5252 -0.3160  0.1908
11690TIP3    H156561   4.489   1.951  16.086  0.3601  0.2797 -0.4778
11690TIP3    H256562   4.552   1.933  15.949  1.2519 -1.0283  0.0827
11691TIP3   OH256563   1.910   5.792  14.386  0.3693  0.7091  0.4067
11691TIP3    H156564   1.948   5.871  14.425  1.5825  0.7003 -0.6772
11691TIP3    H256565   1.873   5.744  14.460  0.9334  1.5889  1.2825
11692TIP3   OH256566   2.316   6.191  13.109 -0.2417 -0.1628  0.1831
11692TIP3    H156567   2.249   6.129  13.084  0.5783 -1.8967  2.0315
11692TIP3    H256568   2.308   6.199  13.204  0.5111  1.5940  0.1426
11693TIP3   OH256569   3.740   3.459  14.798 -0.9205  0.0707  0.5664
11693TIP3    H156570   3.815   3.460  14.858 -1.7476  1.4883  1.6421
11693TIP3    H256571   3.768   3.513  14.724 -0.9096  0.7571  1.0525
11694TIP3   OH256572   2.122   0.992   1.786  0.4828 -0.3377  0.4575
11694TIP3    H156573   2.186   1.055   1.752  0.5864 -0.0575  1.1435
11694TIP3    H256574   2.050   1.047   1.818  0.3751 -0.5925  0.6519
11695TIP3   OH256575   4.299   0.490  16.022 -0.7185  0.4330 -0.2552
11695TIP3    H156576   4.311   0.423  15.955  0.5796 -1.7995  2.0048
11695TIP3    H256577   4.365   0.556  16.002 -0.6961  0.0693 -1.4418
11696TIP3   OH256578   1.175   3.752   5.435  0.7429 -0.8259 -0.2201
11696TIP3    H156579   1.100   3.701   5.405  0.3492  0.0898 -0.8453
11696TIP3    H256580   1.140   3.808   5.504  0.0277  1.9056 -2.6361
11697TIP3   OH256581   2.311   0.627   0.931  0.5373 -0.2970  0.2527
11697TIP3    H156582   2.257   0.706   0.923 -1.8644 -1.9509 -0.9630
11697TIP3    H256583   2.357   0.639   1.014 -1.0824  1.5998  0.9802
11698TIP3   OH256584   1.801   2.209  13.076 -0.4700 -0.1595  0.3662
11698TIP3    H156585   1.841   2.296  13.069 -0.7323  0.0896  1.6668
11698TIP3    H256586   1.830   2.176  13.161 -0.4148 -1.3383 -0.0893
11699TIP3   OH256587   1.975   6.247   2.088 -0.9811  0.1585 -0.3880
11699TIP3    H156588   1.966   6.155   2.064 -2.1805  0.5317 -1.4566
11699TIP3    H256589   2.045   6.279   2.032 -1.2040  0.1184 -0.6926
11700TIP3   OH256590   6.047   0.729   4.856 -0.0089 -0.1349 -0.2830
11700TIP3    H156591   6.060   0.643   4.897 -0.7060 -0.3263 -0.4585
11700TIP3    H256592   6.136   0.760   4.839  0.2487 -0.9448 -0.4782
11701TIP3   OH256593   6.267   0.954  14.598 -0.1673  0.0476 -0.9822
11701TIP3    H156594   6.233   0.865  14.602  1.3079 -0.5359 -0.6080
11701TIP3    H256595   6.353   0.944  14.557  0.5504  1.1191  0.1980
11702TIP3   OH256596   1.423   2.321  15.740  0.1247  0.3995 -0.3267
11702TIP3    H156597   1.351   2.380  15.718 -0.2790  0.7095  1.5732
11702TIP3    H256598   1.381   2.250  15.790  0.9475 -0.1350 -0.3841
11703TIP3   OH256599   0.003   4.505   1.572  0.2782  0.2213  0.2453
11703TIP3    H156600  -0.016   4.553   1.653  0.0459 -0.6190  0.7001
11703TIP3    H256601   0.099   4.498   1.570  0.4776  2.4704 -0.8859
11704TIP3   OH256602   0.233   3.766   1.849 -0.0262  0.0118 -0.0096
11704TIP3    H156603   0.308   3.709   1.866 -0.2816 -0.1644  0.5714
11704TIP3    H256604   0.164   3.733   1.908 -0.7580 -0.2208 -0.9673
11705TIP3   OH256605   2.147   2.842  13.410  0.4034  0.0066  0.3314
11705TIP3    H156606   2.095   2.918  13.436  0.6459  0.1041  0.5411
11705TIP3    H256607   2.231   2.854  13.455  0.7089 -0.0044 -0.2169
11706TIP3   OH256608   1.886   2.535   4.012 -0.8028  0.0722  0.4480
11706TIP3    H156609   1.851   2.556   3.926  0.1709  1.8029  0.4201
11706TIP3    H256610   1.824   2.472   4.049 -0.0662 -2.5079 -2.3465
11707TIP3   OH256611   2.362   5.654   4.034  0.3567 -0.2099 -0.7033
11707TIP3    H156612   2.321   5.600   4.102  1.5875 -0.0343  0.2088
11707TIP3    H256613   2.363   5.597   3.957 -1.6814 -0.1781 -0.8130
11708TIP3   OH256614   1.023   6.255  16.909  0.2988  0.0898  0.5855
11708TIP3    H156615   1.033   6.333  16.855  0.6267  1.0847  2.0053
11708TIP3    H256616   1.030   6.287  16.999 -1.7340 -1.2486  1.3160
11709TIP3   OH256617   4.477   2.983   6.806  0.3455 -0.6932  0.2294
11709TIP3    H156618   4.425   2.917   6.761  1.6042 -2.6119  1.4376
11709TIP3    H256619   4.564   2.943   6.816  1.5377  1.6324 -0.0548
11710TIP3   OH256620   2.772   5.173  16.156 -0.6687 -0.7135  0.2371
11710TIP3    H156621   2.704   5.131  16.208 -0.3893 -0.9005  0.4518
11710TIP3    H256622   2.738   5.261  16.140 -1.7592 -1.3531 -1.1613
11711TIP3   OH256623   1.822   0.204   0.964  0.3273 -0.0602 -0.0553
11711TIP3    H156624   1.798   0.127   1.015  2.9618 -1.0729 -0.1709
11711TIP3    H256625   1.852   0.169   0.880 -0.0334  1.2436 -0.7511
11712TIP3   OH256626   5.760   0.680  13.673 -0.4299 -0.4555  0.3640
11712TIP3    H156627   5.745   0.663  13.580  0.6420 -0.9942  0.2844
11712TIP3    H256628   5.817   0.610  13.702  0.1127  0.3052  1.1867
11713TIP3   OH256629   1.545   0.069  11.896 -0.6331  0.3885 -0.3688
11713TIP3    H156630   1.588   0.126  11.960 -1.3618  0.7217 -0.1645
11713TIP3    H256631   1.565   0.110  11.811  1.2324 -0.6391 -0.4831
11714TIP3   OH256632   5.545   0.713   5.305  0.1002 -0.5561  0.0396
11714TIP3    H156633   5.568   0.805   5.320 -0.7920 -0.4593  0.9833
11714TIP3    H256634   5.613   0.680   5.247  1.4440  0.2345  1.0908
11715TIP3   OH256635   0.921   4.010   2.910  0.2053  0.0180 -0.0732
11715TIP3    H156636   0.945   3.938   2.853  1.5466  0.2941  0.1189
11715TIP3    H256637   0.832   3.989   2.939 -0.2808 -0.3971 -1.7968
11716TIP3   OH256638   4.882   0.361   2.932  0.0722 -0.0544 -0.1405
11716TIP3    H156639   4.854   0.270   2.928  1.2244 -0.4379  0.2860
11716TIP3    H256640   4.804   0.408   2.963 -1.6263 -0.3397 -3.5618
11717TIP3   OH256641   5.443   3.691   1.669  0.1332  0.1457  0.0029
11717TIP3    H156642   5.430   3.641   1.749  2.8066 -0.2074  0.3149
11717TIP3    H256643   5.521   3.653   1.629 -0.2442  1.3178 -1.9862
11718TIP3   OH256644   2.005   6.774   6.535 -0.7400  0.9382  0.2431
11718TIP3    H156645   2.012   6.865   6.564 -1.1907  1.2387 -0.5516
11718TIP3    H256646   1.984   6.725   6.614  0.2821  1.4068  0.8224
11719TIP3   OH256647   4.079   1.268  10.560  0.0524  0.3483  0.1294
11719TIP3    H156648   4.137   1.339  10.532 -0.3892  0.5728 -0.2097
11719TIP3    H256649   4.022   1.307  10.626  0.4707  0.0527  0.6791
11720TIP3   OH256650   4.954   6.603   4.632  0.0494 -0.0175  0.6149
11720TIP3    H156651   4.978   6.658   4.706  0.2288 -0.4941  0.9216
11720TIP3    H256652   5.008   6.634   4.559 -2.0403  2.2317 -0.0743
11721TIP3   OH256653   3.323   0.179  15.119 -0.0505 -0.1305 -0.4493
11721TIP3    H156654   3.342   0.186  15.213  0.2614  2.5909 -0.6298
11721TIP3    H256655   3.239   0.225  15.109  1.4800  2.6064 -1.8654
11722TIP3   OH256656   6.342   0.521   4.034  0.9599 -0.2698 -0.3069
11722TIP3    H156657   6.262   0.514   3.983  0.5588  0.5035  0.1824
11722TIP3    H256658   6.411   0.489   3.976  0.6939  1.6281 -1.7624
11723TIP3   OH256659   2.134   0.983  13.428  0.1480  0.0433  0.0800
11723TIP3    H156660   2.208   0.940  13.383  0.8736  1.0201  0.3141
11723TIP3    H256661   2.076   1.010  13.357  1.2084  1.4293 -0.3189
11724TIP3   OH256662   1.061   4.588   0.251  0.1862  0.0957 -0.1716
11724TIP3    H156663   1.068   4.646   0.328  1.8000 -0.4708  0.1453
11724TIP3    H256664   1.079   4.501   0.285  0.0898 -0.2820 -1.0666
11725TIP3   OH256665   5.180   4.484   2.783  0.2197 -0.1060 -0.4069
11725TIP3    H156666   5.187   4.404   2.732 -1.9508 -0.5823 -0.0772
11725TIP3    H256667   5.130   4.458   2.861 -1.3421  1.6991 -0.7228
11726TIP3   OH256668   3.572   6.400   5.389 -0.2833  0.3390  0.7313
11726TIP3    H156669   3.646   6.346   5.418 -1.0041 -0.0351  1.9662
11726TIP3    H256670   3.571   6.473   5.451  0.8250  1.9391 -1.0630
11727TIP3   OH256671   5.384   5.119  15.782 -0.4358  0.0232 -0.2775
11727TIP3    H156672   5.449   5.153  15.720  0.3584 -1.4651 -0.3068
11727TIP3    H256673   5.352   5.197  15.828  1.5644  0.7814 -0.0617
11728TIP3   OH256674   6.059   0.952  17.018 -0.0842 -0.4152  0.3991
11728TIP3    H156675   6.105   0.891  16.961 -1.1228 -0.9200  0.0814
11728TIP3    H256676   6.018   0.897  17.085  0.2920  0.0844  1.0638
11729TIP3   OH256677   1.715   5.413   0.075  0.1442  0.4793 -0.4697
11729TIP3    H156678   1.810   5.402   0.083  0.2049  0.9208 -0.5687
11729TIP3    H256679   1.699   5.420  -0.019 -0.4274 -3.4156 -0.8117
11730TIP3   OH256680   0.562   2.070   0.807 -0.0557  0.3367  0.0110
11730TIP3    H156681   0.509   2.019   0.868 -0.0817  0.7399  0.3221
11730TIP3    H256682   0.574   2.155   0.849  2.5455 -0.3633  0.9083
11731TIP3   OH256683   4.583   5.222   4.824  0.2913  0.0661  0.0336
11731TIP3    H156684   4.537   5.138   4.833  2.9422 -1.6698 -1.3527
11731TIP3    H256685   4.541   5.265   4.750  1.3309 -1.9271 -1.8565
11732TIP3   OH256686   5.699   2.769   4.119 -0.1770  0.1281  0.2918
11732TIP3    H156687   5.794   2.757   4.127 -0.0307  0.0291 -1.1792
11732TIP3    H256688   5.670   2.793   4.207  0.9458 -1.6096  1.2085
11733TIP3   OH256689   6.605   5.230   1.971  0.1572 -0.2191  0.0894
11733TIP3    H156690   6.611   5.140   2.005 -0.2844 -0.0453  0.6401
11733TIP3    H256691   6.557   5.278   2.038 -0.8948  0.0984 -0.8663
11734TIP3   OH256692   0.364   5.481   5.532  0.1041 -0.6079 -0.8182
11734TIP3    H156693   0.292   5.502   5.591  1.2441  2.6207 -0.4073
11734TIP3    H256694   0.391   5.393   5.558 -2.3427 -1.1201  0.3402
11735TIP3   OH256695   2.291   3.055   3.717  0.2650 -0.2527 -0.6591
11735TIP3    H156696   2.246   2.999   3.654  0.3506 -1.1331  0.0520
11735TIP3    H256697   2.228   3.065   3.789 -1.0700  3.1412 -2.0437
11736TIP3   OH256698   4.506   3.383   1.697 -0.1060  0.1298 -0.6893
11736TIP3    H156699   4.518   3.478   1.703 -1.8256  0.3504  0.1248
11736TIP3    H256700   4.451   3.371   1.620 -2.1975  0.1265  0.7085
11737TIP3   OH256701   4.412   2.317  16.569 -0.3486  0.7012  0.4896
11737TIP3    H156702   4.500   2.295  16.536  0.1070  0.8649  1.5519
11737TIP3    H256703   4.374   2.370  16.499  0.4523  0.7472  0.0642
11738TIP3   OH256704   0.705   0.611  17.072 -0.2577 -0.6900 -0.5582
11738TIP3    H156705   0.650   0.543  17.111  0.3457  0.4889  2.6896
11738TIP3    H256706   0.766   0.635  17.142  2.3802  0.2550 -2.9773
11739TIP3   OH256707   0.030   4.460  14.724  0.6115 -0.3114  0.6686
11739TIP3    H156708   0.069   4.542  14.695  0.9931 -0.1071  1.7190
11739TIP3    H256709  -0.064   4.476  14.725  0.6560 -0.0427  0.4038
11740TIP3   OH256710   1.832   3.632  11.668 -0.4450  0.0778 -0.1524
11740TIP3    H156711   1.747   3.634  11.624  0.2174 -2.8771 -1.8373
11740TIP3    H256712   1.847   3.539  11.687  1.7607  0.6770  1.4505
11741TIP3   OH256713   6.296   2.405  15.421  0.5693 -0.3170 -0.1197
11741TIP3    H156714   6.389   2.387  15.406  1.0208  0.3952  1.6041
11741TIP3    H256715   6.287   2.405  15.516 -1.4566 -1.5271 -0.2615
11742TIP3   OH256716   0.601   4.454   3.296 -0.0860  0.2609  0.3801
11742TIP3    H156717   0.608   4.418   3.384  1.4445  0.9036  0.5462
11742TIP3    H256718   0.683   4.501   3.282  1.1280 -2.3712 -2.5583
11743TIP3   OH256719   2.388   2.489   0.994  0.1393 -0.1229 -0.2562
11743TIP3    H156720   2.455   2.544   1.035 -0.5647 -0.0503  0.8377
11743TIP3    H256721   2.375   2.528   0.908 -0.3434  1.4575  0.4930
11744TIP3   OH256722   4.788   3.474  12.092  0.7558 -0.1477 -0.1058
11744TIP3    H156723   4.736   3.531  12.035  1.0293 -0.9185 -1.1535
11744TIP3    H256724   4.731   3.400  12.111  0.1399  0.7636  1.8422
11745TIP3   OH256725   1.576   6.763  15.047 -0.0213  0.2164 -0.1122
11745TIP3    H156726   1.522   6.684  15.055  0.5086 -0.2245 -0.7817
11745TIP3    H256727   1.664   6.735  15.070  0.3338  0.3988 -1.2066
11746TIP3   OH256728   5.362   4.734   4.927 -0.0301 -0.3319  0.1635
11746TIP3    H156729   5.296   4.680   4.885 -1.1029 -0.2138  1.6353
11746TIP3    H256730   5.401   4.785   4.855 -1.2981 -0.6408 -0.7709
11747TIP3   OH256731   2.713   4.201   3.264  0.2725  0.6229  0.1794
11747TIP3    H156732   2.804   4.212   3.290  0.1227  1.9620  0.1908
11747TIP3    H256733   2.688   4.116   3.300  1.2265  0.6810  1.0132
11748TIP3   OH256734   2.518   0.096   0.846  0.2529  0.2307  0.6667
11748TIP3    H156735   2.451   0.096   0.778  1.9961  0.7720 -1.1217
11748TIP3    H256736   2.521   0.005   0.877  1.0797 -0.6074 -1.7165
11749TIP3   OH256737   1.404   3.805  16.412 -0.4014  0.1199  0.4263
11749TIP3    H156738   1.411   3.726  16.465  0.2703  0.2431  0.5357
11749TIP3    H256739   1.429   3.876  16.472  0.7558  0.2215 -0.1368
11750TIP3   OH256740   1.162   5.804   6.063  0.0770 -0.7650 -0.4255
11750TIP3    H156741   1.082   5.823   6.112 -0.6602  1.8851 -2.4262
11750TIP3    H256742   1.229   5.859   6.104  0.1083 -0.5872 -0.7156
11751TIP3   OH256743   4.278   6.188   4.299 -0.2121  0.4086  0.4304
11751TIP3    H156744   4.312   6.179   4.388  0.2870  0.7954  0.2832
11751TIP3    H256745   4.355   6.181   4.243 -0.4194  0.9234  0.0718
11752TIP3   OH256746   3.908   2.258   0.447 -0.0517  0.4414 -0.0352
11752TIP3    H156747   3.982   2.299   0.493  0.1144  0.3973 -0.2612
11752TIP3    H256748   3.898   2.173   0.489  0.6689  0.0346 -0.6549
11753TIP3   OH256749   1.487   1.474   1.307  0.5178  0.3867 -0.6566
11753TIP3    H156750   1.440   1.540   1.358 -1.7460  0.3373 -2.5203
11753TIP3    H256751   1.454   1.484   1.218  1.0274 -2.4461 -1.2574
11754TIP3   OH256752   4.534   4.632  13.631  0.3936 -0.1003  0.0491
11754TIP3    H156753   4.585   4.556  13.604 -0.1491 -0.8670  1.0890
11754TIP3    H256754   4.598   4.691  13.671  0.3457 -1.7466  2.8233
11755TIP3   OH256755   4.629   1.881   3.899 -0.4641 -0.4761 -0.1738
11755TIP3    H156756   4.593   1.854   3.984  2.4449 -0.3846  1.2272
11755TIP3    H256757   4.637   1.800   3.849 -0.3926 -0.8461  0.4232
11756TIP3   OH256758   1.919   0.533   3.698 -0.1838  0.0702 -0.2962
11756TIP3    H156759   1.911   0.612   3.644 -2.0274  0.1539  0.0410
11756TIP3    H256760   1.861   0.470   3.657  2.0569 -1.5474 -1.1790
11757TIP3   OH256761   2.184   1.411   3.524 -0.1256 -0.4122 -0.0450
11757TIP3    H156762   2.260   1.410   3.582 -0.2394 -1.4760  0.1031
11757TIP3    H256763   2.206   1.477   3.458  0.4474  0.0727  0.6188
11758TIP3   OH256764   1.952   3.491  14.695  0.3692 -0.2366  0.3302
11758TIP3    H156765   1.866   3.517  14.662  0.7826 -0.2823 -0.8094
11758TIP3    H256766   1.939   3.400  14.724  0.7102 -1.3613 -2.6780
11759TIP3   OH256767   6.343   4.829   2.251  0.2159 -0.1273 -0.3990
11759TIP3    H156768   6.305   4.800   2.335  0.4854  2.0750  0.5412
11759TIP3    H256769   6.279   4.891   2.216  2.0427  2.3393  0.3757
11760TIP3   OH256770   3.827   4.607  11.230 -0.3446 -0.1402  0.4345
11760TIP3    H156771   3.898   4.619  11.292 -0.1968  1.4420 -0.0012
11760TIP3    H256772   3.747   4.614  11.282 -0.2526 -2.9403  1.1058
11761TIP3   OH256773   0.146   1.948  13.396 -0.0186  0.4284 -0.3818
11761TIP3    H156774   0.188   1.889  13.333  1.2285 -0.0702  0.8583
11761TIP3    H256775   0.168   2.035  13.365  0.0470  0.2024 -0.9827
11762TIP3   OH256776   1.803   6.240  14.459 -0.1080 -0.3640 -0.1779
11762TIP3    H156777   1.788   6.334  14.469  0.1216 -0.0735 -2.1095
11762TIP3    H256778   1.808   6.227  14.364 -1.4674 -2.5516 -0.0021
11763TIP3   OH256779   0.323   3.312  15.804  0.7558  0.5932 -0.6837
11763TIP3    H156780   0.356   3.393  15.844 -0.5627  0.7207  0.2008
11763TIP3    H256781   0.341   3.244  15.869  0.2787  0.4832 -0.6633
11764TIP3   OH256782   3.201   0.242  11.707 -0.3016 -1.0064 -0.0512
11764TIP3    H156783   3.293   0.257  11.682  0.0989 -0.6355  1.5711
11764TIP3    H256784   3.157   0.223  11.624  0.8829  0.6287 -1.1252
11765TIP3   OH256785   2.794   0.161  13.857 -0.5089 -0.4499  0.3241
11765TIP3    H156786   2.815   0.070  13.836  0.9297 -0.0442 -0.0995
11765TIP3    H256787   2.703   0.172  13.828 -1.2528 -2.1753  1.8222
11766TIP3   OH256788   1.793   5.612   2.007 -0.5325 -0.2432  0.1882
11766TIP3    H156789   1.733   5.598   2.080  0.5185  0.7188  1.2786
11766TIP3    H256790   1.774   5.700   1.977 -0.4754 -0.3793 -0.2593
11767TIP3   OH256791   0.370   0.867  11.018  0.0321 -0.2104  0.0686
11767TIP3    H156792   0.440   0.889  10.957 -0.0736 -1.1172 -0.3911
11767TIP3    H256793   0.318   0.800  10.973 -0.6776 -0.1116  0.7162
11768TIP3   OH256794   4.105   1.107   4.241  0.2926  0.1647  0.2579
11768TIP3    H156795   4.180   1.105   4.300  0.6730  1.1641 -0.1651
11768TIP3    H256796   4.112   1.191   4.196  1.0819 -1.3331 -2.6288
11769TIP3   OH256797   1.302   5.181   0.147 -0.6335 -0.6348 -0.5457
11769TIP3    H156798   1.337   5.233   0.075 -1.0374 -0.4283 -0.5901
11769TIP3    H256799   1.376   5.125   0.173 -0.6314 -1.0531 -1.4233
11770TIP3   OH256800   5.024   1.511  12.198  0.2979 -0.2377  0.4513
11770TIP3    H156801   5.022   1.498  12.103  0.8929 -1.0524  0.5372
11770TIP3    H256802   4.973   1.591  12.212  0.2630 -0.0630 -0.5570
11771TIP3   OH256803   4.364   6.156  15.964  0.2849 -0.1700 -0.3791
11771TIP3    H156804   4.360   6.229  15.902  1.1372 -0.7352 -1.1156
11771TIP3    H256805   4.320   6.084  15.920  0.3737 -0.4128 -0.0749
11772TIP3   OH256806   4.737   5.698  11.963 -0.0871 -0.0044 -0.5863
11772TIP3    H156807   4.809   5.714  11.901  0.2230  0.3869 -0.1308
11772TIP3    H256808   4.663   5.746  11.926  0.6085  1.8802  0.3251
11773TIP3   OH256809   3.149   6.328  15.547  0.3962  0.1117 -0.7866
11773TIP3    H156810   3.068   6.280  15.528 -1.2333  2.8210 -1.1362
11773TIP3    H256811   3.128   6.382  15.623  2.0439  0.5423 -0.5988
11774TIP3   OH256812   5.413   6.438   5.768  0.0268  0.2070 -0.1296
11774TIP3    H156813   5.438   6.507   5.829 -0.5665 -0.9147  1.4639
11774TIP3    H256814   5.493   6.388   5.754 -0.2314 -0.7021  1.3672
11775TIP3   OH256815   5.991   4.873   4.120  0.3737 -0.2645 -0.0219
11775TIP3    H156816   6.046   4.928   4.175 -0.4348  0.3796  0.1671
11775TIP3    H256817   5.959   4.804   4.178  1.1909 -0.8187 -0.2017
11776TIP3   OH256818   0.678   1.080   4.083 -0.5352 -0.6023 -0.3153
11776TIP3    H156819   0.766   1.044   4.074  0.8769  1.7869  2.1879
11776TIP3    H256820   0.656   1.112   3.996  1.2780 -0.8520 -0.9088
11777TIP3   OH256821   0.268   4.153   3.689  0.2481 -0.0724  0.3003
11777TIP3    H156822   0.348   4.189   3.650 -0.1902  2.8611  1.7908
11777TIP3    H256823   0.291   4.062   3.711  2.5330  0.1039 -0.9851
11778TIP3   OH256824   2.213   6.016  16.899  0.2717  0.0374 -0.0379
11778TIP3    H156825   2.118   6.007  16.907  0.3512 -1.1859 -0.2498
11778TIP3    H256826   2.245   6.011  16.990  0.1182  0.8968  0.0749
11779TIP3   OH256827   3.131   4.891  16.566 -0.4494 -0.4271 -0.0453
11779TIP3    H156828   3.185   4.970  16.571 -0.0969 -0.7178  0.8900
11779TIP3    H256829   3.153   4.841  16.644 -1.9360 -0.6523  0.2613
11780TIP3   OH256830   2.690   0.774  10.523 -0.1013 -0.5564 -0.3380
11780TIP3    H156831   2.622   0.710  10.504 -2.0382  1.7974 -1.9644
11780TIP3    H256832   2.770   0.737  10.484 -0.8119 -2.5619  0.0151
11781TIP3   OH256833   3.677   1.544  16.435  0.2192  0.5759  0.1825
11781TIP3    H156834   3.682   1.628  16.481  0.2316  0.1911  0.8963
11781TIP3    H256835   3.665   1.479  16.504  0.3108 -0.0256 -0.3549
11782TIP3   OH256836   4.659   1.133   4.205  0.2512 -0.5175  0.2105
11782TIP3    H156837   4.576   1.117   4.160 -0.2943  0.7461  0.7089
11782TIP3    H256838   4.703   1.048   4.208 -0.5556 -0.9947 -0.9913
11783TIP3   OH256839   5.523   6.642  11.469  0.4644  0.0153  0.1915
11783TIP3    H156840   5.538   6.551  11.496 -0.4239  0.2125  1.4249
11783TIP3    H256841   5.610   6.681  11.467  0.8544 -0.8453 -0.3111
11784TIP3   OH256842   6.672   4.018  16.769  0.1069  0.2126 -0.0705
11784TIP3    H156843   6.661   3.958  16.843 -1.5460  0.9061  0.2712
11784TIP3    H256844   6.661   3.962  16.692 -0.6629 -0.0666  0.2353
11785TIP3   OH256845   5.978   0.081  17.113  0.1242  0.0069  0.7208
11785TIP3    H156846   5.896   0.100  17.159  0.0192 -0.9728  0.9777
11785TIP3    H256847   5.952   0.070  17.021  0.2871  1.6610  0.4498
11786TIP3   OH256848   6.320   6.628   0.220  0.5201 -0.6999  0.2159
11786TIP3    H156849   6.402   6.613   0.266  0.4558  0.1756  0.6321
11786TIP3    H256850   6.252   6.616   0.287  0.5167  2.9594  1.0800
11787TIP3   OH256851   5.064   0.078  14.768 -0.4665  0.2071  0.1858
11787TIP3    H156852   5.017   0.156  14.796 -1.3075  0.0467 -0.6991
11787TIP3    H256853   5.027   0.007  14.820  0.6994  0.4461  1.4050
11788TIP3   OH256854   1.674   0.062  11.261 -0.3878 -0.0696 -0.1824
11788TIP3    H156855   1.660   0.010  11.340 -0.8150  0.6205  0.1992
11788TIP3    H256856   1.769   0.060  11.248 -0.1725  0.8586  1.0719
11789TIP3   OH256857   0.946   6.384  12.476  0.0917 -0.0930  0.2265
11789TIP3    H156858   1.012   6.441  12.436  0.5365 -1.2467 -0.7474
11789TIP3    H256859   0.907   6.337  12.402 -1.2779 -0.0219  0.8640
11790TIP3   OH256860   5.603   4.817  13.491  0.2923  0.0962 -0.3052
11790TIP3    H156861   5.655   4.764  13.551  1.1189  0.3554 -0.7744
11790TIP3    H256862   5.655   4.821  13.411  0.8672  2.6293  0.1046
11791TIP3   OH256863   4.834   2.457   4.888 -0.1820  0.0127 -0.1358
11791TIP3    H156864   4.856   2.368   4.917  2.2362  0.4515 -0.4184
11791TIP3    H256865   4.739   2.455   4.877 -0.0757 -3.0177 -1.6823
11792TIP3   OH256866   6.740   2.965   6.503 -0.0172 -0.2720 -0.0040
11792TIP3    H156867   6.703   2.886   6.543 -1.7759 -0.0572 -1.0928
11792TIP3    H256868   6.830   2.966   6.532  0.0733 -2.7067  0.0631
11793TIP3   OH256869   0.264   6.806  16.461 -0.2231  0.1400  0.5807
11793TIP3    H156870   0.253   6.715  16.432  0.2689 -0.1818  1.3631
11793TIP3    H256871   0.205   6.856  16.405  0.5447 -0.4704 -0.8334
11794TIP3   OH256872   6.283   5.422  15.112 -0.4791 -0.2311 -0.5624
11794TIP3    H156873   6.219   5.380  15.170 -3.6765  0.7447 -3.0866
11794TIP3    H256874   6.301   5.356  15.045 -1.1773  0.4615 -1.4602
11795TIP3   OH256875   6.542   0.506   3.144 -0.2051  0.3550 -0.3357
11795TIP3    H156876   6.472   0.499   3.079 -0.1326  0.3483 -0.4142
11795TIP3    H256877   6.618   0.465   3.101  0.3998  2.1132 -1.0362
11796TIP3   OH256878   1.578   5.661  16.917 -0.2665  0.9237 -0.2125
11796TIP3    H156879   1.518   5.612  16.861  0.2620 -0.6817  0.5598
11796TIP3    H256880   1.525   5.733  16.951 -0.9011  1.2775 -1.8491
11797TIP3   OH256881   0.226   4.991  13.744  0.5552  0.2974  0.1746
11797TIP3    H156882   0.242   4.899  13.768  3.8959  1.1710  1.8268
11797TIP3    H256883   0.242   5.040  13.825 -0.0165  2.4677 -0.9526
11798TIP3   OH256884   6.508   3.903   0.992  0.5029  0.4663 -0.4866
11798TIP3    H156885   6.544   3.870   0.910  3.3169  1.3504  0.2730
11798TIP3    H256886   6.517   3.831   1.054  0.5091  0.5229 -0.4210
11799TIP3   OH256887   3.277   0.847   4.373 -0.0430  0.1932  0.0914
11799TIP3    H156888   3.190   0.879   4.349 -0.2198 -1.0838 -1.0462
11799TIP3    H256889   3.266   0.814   4.463 -0.5994  0.4743  0.1310
11800TIP3   OH256890   6.105   0.546  12.756  0.3999  0.5644  0.2683
11800TIP3    H156891   6.054   0.469  12.731 -1.1714  1.3680  0.8690
11800TIP3    H256892   6.169   0.513  12.819 -2.7156  0.2467  3.5668
11801TIP3   OH256893   4.494   4.247   0.525  0.3800 -0.4249  0.0328
11801TIP3    H156894   4.464   4.157   0.540 -0.2870 -0.4621 -1.3174
11801TIP3    H256895   4.444   4.276   0.448  0.4248  1.1792  0.5671
11802TIP3   OH256896   2.871   1.175  15.390  0.3025  0.5086 -0.1260
11802TIP3    H156897   2.845   1.086  15.366 -1.3414  1.3417 -1.6256
11802TIP3    H256898   2.924   1.205  15.316  0.7226  0.8501  0.3055
11803TIP3   OH256899   1.498   4.407  15.071  0.7084 -0.0923 -0.0457
11803TIP3    H156900   1.418   4.453  15.044  1.5718  0.4729 -1.7608
11803TIP3    H256901   1.471   4.316  15.081 -0.4848  0.3465  0.9719
11804TIP3   OH256902   1.788   4.198  13.918  0.4543  0.5808  0.2805
11804TIP3    H156903   1.769   4.231  14.006  0.3687 -0.4625  0.6640
11804TIP3    H256904   1.881   4.216  13.905  0.1436  2.0844 -0.0161
11805TIP3   OH256905   0.331   3.337  15.503 -0.0047 -0.1847  0.2583
11805TIP3    H156906   0.304   3.299  15.587  0.7090 -0.1146  0.5275
11805TIP3    H256907   0.422   3.310  15.493  0.1801  0.5484 -0.0721
11806TIP3   OH256908   5.562   2.764  13.845  1.1677 -0.2699 -0.3413
11806TIP3    H156909   5.553   2.835  13.908  0.9351  0.3023 -0.9934
11806TIP3    H256910   5.477   2.721  13.844  1.4009 -0.7568  0.2753
11807TIP3   OH256911   3.020   0.315   4.800 -0.4354  0.6139 -0.1310
11807TIP3    H156912   3.069   0.233   4.797 -1.8756 -0.2744 -0.2970
11807TIP3    H256913   2.999   0.334   4.708  0.2284  1.4099 -0.1381
11808TIP3   OH256914   1.313   5.188  14.103 -0.0567 -0.1926  0.8852
11808TIP3    H156915   1.270   5.170  14.020  0.1805 -1.4627  1.0218
11808TIP3    H256916   1.267   5.265  14.137 -3.1564 -2.1695  1.6162
11809TIP3   OH256917   3.202   2.833  13.289 -0.9153 -0.0767  0.1660
11809TIP3    H156918   3.242   2.762  13.238 -0.9014  0.3020 -0.3676
11809TIP3    H256919   3.117   2.799  13.315 -0.1671 -1.0071  1.5551
11810TIP3   OH256920   0.988   5.983   2.205  0.2807 -0.0460  0.1880
11810TIP3    H156921   1.082   5.972   2.219  0.1525 -0.8105  0.4562
11810TIP3    H256922   0.968   5.928   2.129  0.4972  2.0868 -1.5291
11811TIP3   OH256923   5.298   1.153   2.445 -0.0764 -0.0727  0.6682
11811TIP3    H156924   5.261   1.065   2.447 -0.5992  0.0465 -1.4693
11811TIP3    H256925   5.226   1.209   2.417  1.1493  0.4333 -1.8071
11812TIP3   OH256926   2.338   1.998   3.809  0.0071  0.7053 -0.4441
11812TIP3    H156927   2.363   2.019   3.719  2.9916  0.1169  0.1140
11812TIP3    H256928   2.291   2.075   3.840 -0.2465  1.2953 -2.2174
11813TIP3   OH256929   4.659   5.789   0.316 -0.4846  0.0815 -0.2741
11813TIP3    H156930   4.636   5.870   0.269  1.3206  0.1991 -1.0230
11813TIP3    H256931   4.575   5.752   0.341 -1.3709  2.4503  0.5394
11814TIP3   OH256932   3.244   4.673   6.321 -0.1512 -1.1011 -0.0493
11814TIP3    H156933   3.231   4.671   6.416  0.8717 -1.4625  0.0974
11814TIP3    H256934   3.182   4.738   6.289  1.2831  0.9752  1.1648
11815TIP3   OH256935   6.460   4.767  13.033 -0.0269 -0.2245 -0.6028
11815TIP3    H156936   6.419   4.783  12.948  0.4180  0.5055 -0.6819
11815TIP3    H256937   6.545   4.810  13.028 -0.1297  0.1057  0.3313
11816TIP3   OH256938   1.501   0.274  17.242  0.3347  0.2095 -0.3679
11816TIP3    H156939   1.509   0.181  17.219 -0.5496  0.3312 -1.2239
11816TIP3    H256940   1.465   0.273  17.331 -0.6117 -0.2851 -0.7352
11817TIP3   OH256941   2.939   6.527   0.266 -0.6406 -0.3955  0.0837
11817TIP3    H156942   2.873   6.473   0.222 -0.9339  0.4572 -0.5511
11817TIP3    H256943   3.013   6.467   0.281 -0.3608 -0.6200 -1.9560
11818TIP3   OH256944   2.340   2.231   0.288 -0.1392 -0.0995  0.6029
11818TIP3    H156945   2.278   2.302   0.277  0.5275  0.3100 -0.8030
11818TIP3    H256946   2.287   2.151   0.289 -0.7962  0.3378  1.1132
11819TIP3   OH256947   6.430   3.201  16.005  0.3604  0.2937 -0.5972
11819TIP3    H156948   6.517   3.174  16.036 -0.3259 -0.9388  0.3276
11819TIP3    H256949   6.446   3.283  15.959  2.1562 -0.3953 -1.2823
11820TIP3   OH256950   2.473   6.475  14.091 -0.0074  0.3428  0.3671
11820TIP3    H156951   2.476   6.531  14.168  0.9451 -0.4564  0.9423
11820TIP3    H256952   2.430   6.395  14.120  0.5186 -0.0348  0.1322
11821TIP3   OH256953   4.891   0.345  12.262  0.0201 -0.6425 -0.5196
11821TIP3    H156954   4.813   0.309  12.306  1.6552 -0.2651  3.0364
11821TIP3    H256955   4.939   0.268  12.233 -0.8598 -0.9327 -1.2625
11822TIP3   OH256956   0.659   6.627   2.072 -0.0127  0.3512  0.6711
11822TIP3    H156957   0.588   6.598   2.129 -0.3913  1.0636  0.5691
11822TIP3    H256958   0.729   6.653   2.133 -0.9149  2.4118  0.8920
11823TIP3   OH256959   3.921   2.293  15.167  0.0391  0.3303 -0.3741
11823TIP3    H156960   3.870   2.218  15.135 -0.7366  0.9230 -0.5610
11823TIP3    H256961   3.990   2.304  15.101  0.9499 -0.9989  0.3139
11824TIP3   OH256962   5.844   3.430   4.753 -0.3932 -0.4383 -0.2135
11824TIP3    H156963   5.869   3.351   4.801  1.7660  0.3332  0.0451
11824TIP3    H256964   5.758   3.409   4.716 -0.0081 -2.8062  0.0464
11825TIP3   OH256965   3.237   2.997  13.918 -0.1929  0.1475  0.1474
11825TIP3    H156966   3.153   2.991  13.873 -0.3162  1.1331  0.2280
11825TIP3    H256967   3.302   2.987  13.848 -0.3665 -0.6033  0.0841
11826TIP3   OH256968   0.601   3.794  12.216  0.5655  0.9375 -0.1005
11826TIP3    H156969   0.514   3.791  12.254 -0.5727  2.0902 -2.4068
11826TIP3    H256970   0.625   3.886  12.216  0.9912  0.8456 -1.1092
11827TIP3   OH256971   3.014   1.114  16.702  0.1346  0.8861  0.7313
11827TIP3    H156972   2.958   1.108  16.779  0.5126 -2.1119  0.8944
11827TIP3    H256973   3.080   1.046  16.714  2.7327  2.9960 -0.3588
11828TIP3   OH256974   6.366   2.514   5.758 -0.1753  1.0383 -0.1086
11828TIP3    H156975   6.426   2.440   5.748 -2.2937 -0.5560 -1.8884
11828TIP3    H256976   6.418   2.580   5.804  2.2172 -1.0379  0.4221
11829TIP3   OH256977   0.668   6.778   4.303  0.5781 -0.0932 -0.5458
11829TIP3    H156978   0.588   6.765   4.252  0.9494 -1.8955 -0.7430
11829TIP3    H256979   0.640   6.827   4.380 -0.6940 -0.5378 -0.6985
11830TIP3   OH256980   5.443   6.173  11.515 -0.3022  0.7817  0.4283
11830TIP3    H156981   5.390   6.253  11.518 -0.3443  0.7345  1.0402
11830TIP3    H256982   5.533   6.204  11.527 -0.4785  0.5853  2.6642
11831TIP3   OH256983   2.185   6.267  14.589  0.0904 -0.0858 -0.0950
11831TIP3    H156984   2.108   6.227  14.628  0.4514 -0.4157  0.2939
11831TIP3    H256985   2.177   6.248  14.496 -0.6806  0.5379 -0.1607
11832TIP3   OH256986   1.957   0.735  16.391  0.1012 -0.1544 -0.7445
11832TIP3    H156987   1.889   0.710  16.454  0.3986  0.0894 -0.3222
11832TIP3    H256988   1.936   0.686  16.312 -0.0968 -0.7004 -0.3529
11833TIP3   OH256989   1.205   0.358  16.780  0.7235  0.3291 -0.0963
11833TIP3    H156990   1.233   0.294  16.846 -0.5445 -1.0783 -0.8539
11833TIP3    H256991   1.129   0.317  16.739  0.8035  1.6824 -1.6618
11834TIP3   OH256992   2.675   0.384   4.296  0.2020 -0.0864  0.1831
11834TIP3    H156993   2.596   0.333   4.277  0.2022 -0.3369  0.8516
11834TIP3    H256994   2.723   0.333   4.360 -0.6924  1.5928  2.3061
11835TIP3   OH256995   6.007   1.763  13.712  0.2442 -0.1824 -0.0200
11835TIP3    H156996   5.927   1.770  13.765  0.0201  1.8679 -0.5369
11835TIP3    H256997   6.067   1.826  13.751  2.0924 -2.4683  1.0379
11836TIP3   OH256998   6.618   3.756   0.472  0.9030  0.1606 -0.5927
11836TIP3    H156999   6.697   3.704   0.456  1.1598  0.0160  0.9884
11836TIP3    H257000   6.620   3.824   0.405  1.1450 -1.1867 -2.0158
11837TIP3   OH257001   3.097   3.274  11.033  0.0359  0.3564 -0.7543
11837TIP3    H157002   3.035   3.213  10.993  0.4059  0.4105 -1.4231
11837TIP3    H257003   3.170   3.279  10.970  0.5096  0.6396 -0.1932
11838TIP3   OH257004   2.823   0.198   4.932  0.0973 -0.4378 -0.2047
11838TIP3    H157005   2.894   0.168   4.989 -0.7623  0.9656  1.6835
11838TIP3    H257006   2.865   0.262   4.874  0.4909 -0.0470  0.5079
11839TIP3   OH257007   2.007   2.270   3.906 -0.3531  0.0376 -0.6822
11839TIP3    H157008   2.087   2.233   3.944 -2.1176 -2.2725  1.0702
11839TIP3    H257009   1.936   2.231   3.957 -2.5844  4.5842  0.2074
11840TIP3   OH257010   1.177   1.429   4.117  0.0236 -0.5266  0.0632
11840TIP3    H157011   1.139   1.342   4.107  0.8482 -0.8253 -0.5736
11840TIP3    H257012   1.159   1.473   4.034  2.1970 -1.1463 -0.8103
11841TIP3   OH257013   6.514   5.957  14.046  0.1271 -0.0510 -0.6579
11841TIP3    H157014   6.600   5.976  14.083  0.0875  0.0038 -0.5942
11841TIP3    H257015   6.486   6.039  14.006 -0.3721  0.2529  0.2731
11842TIP3   OH257016   6.385   2.282  13.611 -0.2621 -0.5023  0.4804
11842TIP3    H157017   6.305   2.277  13.559  0.5333  1.2976 -1.0587
11842TIP3    H257018   6.375   2.362  13.663  0.7795  0.1050 -0.2180
11843TIP3   OH257019   6.304   1.900   1.132  0.6568 -0.0170  0.4298
11843TIP3    H157020   6.325   1.973   1.190 -0.2751  0.7208 -0.1148
11843TIP3    H257021   6.379   1.893   1.073  0.4926  0.9297  0.0931
11844TIP3   OH257022   4.890   4.290   1.791  0.0583 -0.5091  0.0750
11844TIP3    H157023   4.964   4.298   1.730 -0.3761 -1.0424 -0.5435
11844TIP3    H257024   4.907   4.208   1.838 -0.0151 -0.5043  0.1095
11845TIP3   OH257025   3.797   0.280  17.264 -0.1604  0.2675  0.6302
11845TIP3    H157026   3.784   0.198  17.215  0.7552  1.0137 -0.9327
11845TIP3    H257027   3.772   0.349  17.203  1.4672  1.2546  1.0168
11846TIP3   OH257028   4.454   2.890   4.082 -0.5697  0.3347  0.0743
11846TIP3    H157029   4.428   2.982   4.074  1.4669  0.9008 -0.6368
11846TIP3    H257030   4.447   2.872   4.176  0.9265  1.8863  0.5484
11847TIP3   OH257031   3.802   0.593  12.954 -0.1668  0.8651 -0.3523
11847TIP3    H157032   3.739   0.656  12.989 -2.0083 -0.6584 -0.7669
11847TIP3    H257033   3.748   0.529  12.908  1.6572 -0.9367 -0.0794
11848TIP3   OH257034   1.858   6.439  13.302  0.1144 -0.1115 -0.1561
11848TIP3    H157035   1.844   6.503  13.233 -2.3613 -1.6765 -1.2692
11848TIP3    H257036   1.790   6.457  13.367 -2.0408 -2.6524 -1.4685
11849TIP3   OH257037   5.019   3.857   4.207  0.1727  0.2964 -0.4989
11849TIP3    H157038   5.003   3.800   4.283 -1.9976 -0.0054 -1.1165
11849TIP3    H257039   5.058   3.936   4.244 -1.9755  0.6745  1.1538
11850TIP3   OH257040   1.094   4.582   4.288  0.3773  0.0329  0.1004
11850TIP3    H157041   1.118   4.594   4.380 -1.3088  0.0491  0.5767
11850TIP3    H257042   1.097   4.487   4.274  2.2408  0.1116 -0.3365
11851TIP3   OH257043   2.826   6.617  10.756  0.7633 -0.7247  0.0526
11851TIP3    H157044   2.772   6.574  10.690  1.5030 -0.0192 -1.0581
11851TIP3    H257045   2.890   6.551  10.782  0.2355 -1.1263  0.3558
11852TIP3   OH257046   1.749   5.012  15.303  0.0214  0.1495 -0.4481
11852TIP3    H157047   1.702   5.031  15.222 -1.8702  1.5906  0.8885
11852TIP3    H257048   1.794   4.930  15.286 -1.5976 -0.4060 -2.4231
11853TIP3   OH257049   2.340   1.686   4.327  0.1311 -0.4761 -0.2106
11853TIP3    H157050   2.271   1.750   4.344  0.3388 -0.2538 -0.2171
11853TIP3    H257051   2.347   1.636   4.409 -0.2629 -0.7144 -0.3159
11854TIP3   OH257052   6.216   1.303  12.731  0.0335  0.3170 -0.4345
11854TIP3    H157053   6.293   1.255  12.700 -0.5575  0.7775 -2.8060
11854TIP3    H257054   6.246   1.393  12.741  0.1566  0.2196  0.0895
11855TIP3   OH257055   5.995   1.750   1.133 -0.5627  0.0139 -0.4427
11855TIP3    H157056   5.913   1.712   1.104  0.5194 -0.9970 -2.3890
11855TIP3    H257057   6.062   1.688   1.105  0.9671  1.3745  0.0161
11856TIP3   OH257058   0.273   3.381   5.389 -0.1802 -0.0842 -0.1941
11856TIP3    H157059   0.214   3.331   5.332 -1.9192  2.4218 -0.7620
11856TIP3    H257060   0.214   3.434   5.444  1.5231  1.4438  0.2487
11857TIP3   OH257061   0.384   3.119   1.074  0.4417  0.1779 -0.6353
11857TIP3    H157062   0.423   3.044   1.027  0.2892  0.7572 -1.7262
11857TIP3    H257063   0.299   3.131   1.031 -0.3356 -0.1574  0.7553
11858TIP3   OH257064   2.548   2.742   1.659  0.2921 -0.0150  0.1399
11858TIP3    H157065   2.621   2.681   1.652 -0.5353 -1.0273  0.0478
11858TIP3    H257066   2.589   2.828   1.669  1.4855 -0.5155 -0.2861
11859TIP3   OH257067   1.304   5.367   5.927 -0.3060 -0.2995 -0.5061
11859TIP3    H157068   1.315   5.461   5.942  0.9411 -0.6922  1.4034
11859TIP3    H257069   1.219   5.347   5.967 -0.6219  0.0264 -1.0082
11860TIP3   OH257070   3.462   1.933   1.317 -0.2561 -0.5137  0.1406
11860TIP3    H157071   3.415   1.860   1.357  0.1092 -0.7457  0.1535
11860TIP3    H257072   3.544   1.938   1.366  0.0558 -0.5924 -0.3660
11861TIP3   OH257073   3.400   3.775   2.359 -0.4038  0.1505  0.1701
11861TIP3    H157074   3.314   3.736   2.375 -2.2180  3.5278 -0.4392
11861TIP3    H257075   3.397   3.801   2.267  1.6356 -0.3328 -0.0748
11862TIP3   OH257076   4.884   6.132   1.624 -0.1153 -0.1799 -0.5682
11862TIP3    H157077   4.839   6.145   1.708  0.2848 -0.6819 -0.2754
11862TIP3    H257078   4.863   6.211   1.574 -0.9448 -0.1964 -0.2668
11863TIP3   OH257079   6.444   6.299   3.819 -0.6501  0.0482 -0.3865
11863TIP3    H157080   6.377   6.366   3.835 -1.3583 -1.0184  1.3986
11863TIP3    H257081   6.447   6.291   3.724 -0.0944  3.0056 -0.7230
11864TIP3   OH257082   5.171   3.478  15.658 -0.1924  0.1736 -0.2351
11864TIP3    H157083   5.088   3.525  15.647  0.0726  0.7549  0.1392
11864TIP3    H257084   5.162   3.435  15.743 -1.4455 -2.6291 -1.6681
11865TIP3   OH257085   6.542   5.954  11.383  0.2717  0.5586  0.2429
11865TIP3    H157086   6.558   5.964  11.477 -0.7120 -0.0618  0.4902
11865TIP3    H257087   6.622   5.915  11.349  0.3674  0.1368  0.9474
11866TIP3   OH257088   5.804   5.321  14.144 -0.0119  0.1058  0.8020
11866TIP3    H157089   5.846   5.402  14.175  0.9234  0.5711 -1.4234
11866TIP3    H257090   5.771   5.279  14.223  2.3923  1.0254  2.4257
11867TIP3   OH257091   0.651   2.954  10.855 -0.3031  0.1195  0.7429
11867TIP3    H157092   0.689   3.041  10.845 -0.9847  0.2705 -0.7368
11867TIP3    H257093   0.564   2.969  10.891 -0.4452  0.0453  0.4282
11868TIP3   OH257094   0.863   1.029  13.196  0.4180  0.0729  0.3340
11868TIP3    H157095   0.785   0.985  13.229  0.0668  0.6777  0.3354
11868TIP3    H257096   0.855   1.119  13.228  0.2004  0.6223 -1.1554
11869TIP3   OH257097   6.438   2.070   5.816 -0.5484 -0.1194  0.3113
11869TIP3    H157098   6.515   2.095   5.868 -0.1586 -1.6671  0.5449
11869TIP3    H257099   6.472   2.004   5.755 -1.7206 -0.9336  0.5231
11870TIP3   OH257100   6.182   2.814   3.519 -0.6253 -0.2483  0.1794
11870TIP3    H157101   6.187   2.800   3.425  2.8239 -0.8920  0.3356
11870TIP3    H257102   6.090   2.838   3.535 -1.8378 -2.1791 -2.9995
11871TIP3   OH257103   1.476   1.025   3.094  0.0162 -0.4994 -0.4636
11871TIP3    H157104   1.442   1.107   3.058 -1.0328 -0.4915  0.4828
11871TIP3    H257105   1.398   0.974   3.116  0.5204 -0.1466  2.5762
11872TIP3   OH257106   2.406   1.226   1.396  0.5624 -0.5087 -0.3964
11872TIP3    H157107   2.394   1.272   1.313 -0.2379 -2.5581 -1.4803
11872TIP3    H257108   2.463   1.284   1.447 -1.6906  2.4945 -0.9600
11873TIP3   OH257109   2.661   0.679   4.641  0.3050  0.3502 -0.7092
11873TIP3    H157110   2.619   0.725   4.714  0.2164 -1.2973  0.3160
11873TIP3    H257111   2.639   0.732   4.565 -0.8703  1.3174  0.2501
11874TIP3   OH257112   2.627   1.784   2.136 -0.1666 -0.1862  0.1325
11874TIP3    H157113   2.678   1.814   2.060  0.9530 -1.9766  0.1411
11874TIP3    H257114   2.537   1.813   2.117  0.2996  0.3762 -1.3372
11875TIP3   OH257115   0.397   0.329  16.477 -0.1815 -0.1422 -0.5887
11875TIP3    H157116   0.319   0.306  16.426 -0.0251  0.3404 -1.0492
11875TIP3    H257117   0.396   0.424  16.480 -0.0989 -0.1600  0.1853
11876TIP3   OH257118   5.139   3.661  14.329 -0.2790 -0.6716  0.7084
11876TIP3    H157119   5.176   3.687  14.245  2.1743  1.2875  2.2258
11876TIP3    H257120   5.194   3.588  14.358 -0.1691 -0.4093  1.1831
11877TIP3   OH257121   0.868   3.174   5.103  0.1050  0.0973 -0.1231
11877TIP3    H157122   0.908   3.232   5.168 -0.0915 -2.2542  2.3147
11877TIP3    H257123   0.774   3.177   5.124 -0.0343 -0.2623 -0.6834
11878TIP3   OH257124   2.530   4.318   5.616 -0.3061  0.1671  0.1364
11878TIP3    H157125   2.589   4.377   5.662 -0.2454  0.7740 -0.6815
11878TIP3    H257126   2.579   4.235   5.610  1.1668  1.0890 -1.8724
11879TIP3   OH257127   3.173   0.698   5.179 -0.2805  0.3186  0.5520
11879TIP3    H157128   3.219   0.759   5.121  1.4583 -1.3956  0.0193
11879TIP3    H257129   3.115   0.753   5.231 -1.0721  2.0806 -1.9941
11880TIP3   OH257130   5.164   6.107   5.353  0.2216 -0.6828  0.6390
11880TIP3    H157131   5.188   6.030   5.301 -1.3962 -1.6516  1.2459
11880TIP3    H257132   5.114   6.072   5.426  3.3927  0.5129  3.6239
11881TIP3   OH257133   0.486   2.576   3.841 -0.7168  0.7893  0.5327
11881TIP3    H157134   0.547   2.629   3.892  0.7620 -0.7250  0.4551
11881TIP3    H257135   0.542   2.513   3.795 -2.2756  0.0094 -0.3954
11882TIP3   OH257136   0.318   2.499   4.540  0.5215  0.8631 -0.2926
11882TIP3    H157137   0.341   2.473   4.629  0.4973 -1.0605 -0.8073
11882TIP3    H257138   0.299   2.593   4.546  1.0735  0.8820  1.6002
11883TIP3   OH257139   2.992   3.556  11.698 -0.1023  0.0480  0.0809
11883TIP3    H157140   3.006   3.546  11.604  2.1919  3.2782 -0.1006
11883TIP3    H257141   3.063   3.506  11.738  0.0981  0.2677  0.0019
11884TIP3   OH257142   6.810   0.737   5.350 -0.2934  0.2526 -0.5651
11884TIP3    H157143   6.831   0.738   5.257 -2.0811 -0.1290 -1.0074
11884TIP3    H257144   6.717   0.761   5.354 -0.2131  0.3917  1.1248
11885TIP3   OH257145   1.326   6.535  16.986  0.2356  0.2124 -0.9503
11885TIP3    H157146   1.257   6.487  16.940  1.2640 -1.2384 -1.0559
11885TIP3    H257147   1.323   6.500  17.075 -1.8410  3.1021  0.2855
11886TIP3   OH257148   2.880   0.220  11.736 -0.2494 -0.4782  0.8985
11886TIP3    H157149   2.888   0.312  11.759 -0.9151 -0.1781  0.0038
11886TIP3    H257150   2.893   0.173  11.818 -1.0974  0.4633  1.5964
11887TIP3   OH257151   2.019   3.204   0.847  0.1392  0.3671 -0.3479
11887TIP3    H157152   2.018   3.290   0.804  0.5275  0.5041 -0.0823
11887TIP3    H257153   2.100   3.203   0.898 -0.0576 -0.0032 -0.0370
11888TIP3   OH257154   6.252   5.350   0.853 -0.0243  0.5908  1.1107
11888TIP3    H157155   6.177   5.409   0.845  0.0119  0.3458 -4.5058
11888TIP3    H257156   6.213   5.264   0.867 -0.7807  0.6646 -0.3855
11889TIP3   OH257157   4.135   0.566  15.763 -0.6593  0.4970  0.2237
11889TIP3    H157158   4.214   0.593  15.810 -0.1649 -0.3156 -0.1233
11889TIP3    H257159   4.106   0.645  15.718 -0.6870  1.0870  1.2526
11890TIP3   OH257160   4.919   1.095  16.015  0.2397  0.2917  0.1945
11890TIP3    H157161   4.826   1.077  16.001  0.4580 -0.3136 -0.5450
11890TIP3    H257162   4.924   1.190  16.027 -0.6386  0.1873  1.7095
11891TIP3   OH257163   4.701   1.446   0.165 -0.0272  0.3353 -0.1114
11891TIP3    H157164   4.789   1.462   0.132  0.0628  0.3583  0.1406
11891TIP3    H257165   4.643   1.481   0.097  0.1586  0.7204 -0.0715
11892TIP3   OH257166   3.412   5.595   2.873 -0.1556  0.3250 -0.0758
11892TIP3    H157167   3.333   5.650   2.874  0.5587  1.3944 -0.2182
11892TIP3    H257168   3.400   5.537   2.799 -1.8677 -1.1761  1.2895
11893TIP3   OH257169   6.401   5.070   5.487 -0.4945 -0.4957  0.0202
11893TIP3    H157170   6.341   5.123   5.434 -0.6981 -0.1686  0.5698
11893TIP3    H257171   6.475   5.053   5.429 -0.5905  0.0884 -0.2857
11894TIP3   OH257172   3.060   2.534   0.490 -0.2323  0.5405  0.2982
11894TIP3    H157173   3.112   2.541   0.570 -2.6589  0.4694  1.9847
11894TIP3    H257174   3.031   2.624   0.472 -1.7841  0.2196  1.0342
11895TIP3   OH257175   3.618   6.021   0.757 -0.4067 -0.1727  0.0648
11895TIP3    H157176   3.624   5.939   0.807 -1.5664 -0.3068  0.0226
11895TIP3    H257177   3.594   5.993   0.669  1.3782  0.0802 -0.5281
11896TIP3   OH257178   2.673   3.712  16.307  0.7699 -0.6368 -0.2560
11896TIP3    H157179   2.736   3.747  16.244 -0.1529 -1.5302 -1.7301
11896TIP3    H257180   2.723   3.648  16.358  1.7334  0.6807  0.5229
11897TIP3   OH257181   0.630   5.529  11.884  0.0842  0.3575  0.1459
11897TIP3    H157182   0.622   5.434  11.886  0.5671  0.3274  0.8952
11897TIP3    H257183   0.710   5.546  11.835  0.3136  0.3530  0.5141
11898TIP3   OH257184   2.982   5.926   4.041 -0.4522 -0.0725  0.1949
11898TIP3    H157185   2.942   5.931   4.128 -1.1274  2.0023 -0.1881
11898TIP3    H257186   2.996   6.017   4.015  0.9736 -0.6649 -1.3307
11899TIP3   OH257187   5.394   4.972   4.399 -0.2536 -0.5594  0.1942
11899TIP3    H157188   5.398   5.019   4.316 -1.2643 -0.7456  0.0229
11899TIP3    H257189   5.438   4.888   4.382 -1.7427 -1.2167 -0.6096
11900TIP3   OH257190   4.379   6.337  15.045 -0.0126  0.2530  0.0144
11900TIP3    H157191   4.320   6.398  15.090  0.3398 -1.0411  2.3880
11900TIP3    H257192   4.466   6.369  15.065  0.1429 -0.0944 -0.1027
11901TIP3   OH257193   1.958   1.611  13.982 -0.0002  0.2307  0.2331
11901TIP3    H157194   2.044   1.636  14.016  1.3050 -1.6665 -1.4313
11901TIP3    H257195   1.936   1.531  14.028 -0.2823  0.0334 -0.2404
11902TIP3   OH257196   5.143   2.097  11.709  0.2811  0.0072  0.1290
11902TIP3    H157197   5.222   2.059  11.746  0.9502 -0.4384 -1.6805
11902TIP3    H257198   5.095   2.130  11.785  1.1159 -1.7090  1.4660
11903TIP3   OH257199   6.238   3.237   3.541  0.9241  0.2014 -0.0691
11903TIP3    H157200   6.296   3.200   3.607  0.2932 -2.3218 -0.8176
11903TIP3    H257201   6.169   3.280   3.591  3.0643  2.9026  0.8390
11904TIP3   OH257202   2.964   3.776  12.359  0.2161  0.0415 -0.1925
11904TIP3    H157203   3.033   3.716  12.388 -0.0921  1.1357  3.1178
11904TIP3    H257204   2.909   3.790  12.436 -1.8720  1.7328 -1.8495
11905TIP3   OH257205   5.488   3.369   2.773 -0.4576  0.1393  0.1630
11905TIP3    H157206   5.407   3.354   2.822 -1.2795  0.9026 -0.9068
11905TIP3    H257207   5.460   3.366   2.681  1.0152 -1.1799 -0.2892
11906TIP3   OH257208   4.187   1.750   0.083  0.2981  0.4883 -0.5170
11906TIP3    H157209   4.251   1.767   0.014  2.2131  2.3361  1.5113
11906TIP3    H257210   4.239   1.712   0.154 -1.6032 -1.3917 -0.0352
11907TIP3   OH257211   2.471   0.552   0.086 -0.5907  0.4963 -0.4056
11907TIP3    H157212   2.401   0.558   0.022 -1.0182 -0.8897 -0.0976
11907TIP3    H257213   2.473   0.460   0.111  0.7574  0.6797  0.2473
11908TIP3   OH257214   5.675   5.417   2.721 -0.6255 -0.0113 -0.1188
11908TIP3    H157215   5.593   5.372   2.745 -0.8302  0.1275 -0.5449
11908TIP3    H257216   5.653   5.466   2.642 -0.5467  1.2723  0.6316
11909TIP3   OH257217   5.854   3.960   1.274 -0.5585 -0.4300  0.3348
11909TIP3    H157218   5.790   4.008   1.220  0.5169 -0.4075 -0.9851
11909TIP3    H257219   5.858   3.873   1.234 -1.5685 -1.2764  1.9531
11910TIP3   OH257220   3.071   0.271   1.239  0.2369 -0.2967 -0.1041
11910TIP3    H157221   3.001   0.214   1.270 -0.9235  1.2262  0.2058
11910TIP3    H257222   3.076   0.255   1.145 -1.2014  0.2567 -0.2903
11911TIP3   OH257223   6.445   1.201  14.463  0.0126 -0.4330 -0.3551
11911TIP3    H157224   6.432   1.295  14.477 -0.5183 -0.1612 -2.4471
11911TIP3    H257225   6.378   1.177  14.399  0.8219 -2.0165 -0.6435
11912TIP3   OH257226   6.068   1.620  12.312  0.0889 -0.2018 -0.1472
11912TIP3    H157227   6.084   1.546  12.254 -1.9289 -0.6989 -0.1357
11912TIP3    H257228   6.021   1.684  12.258  0.2211  0.3110  0.3256
11913TIP3   OH257229   6.536   3.429   6.281 -0.0699  0.1387  0.3715
11913TIP3    H157230   6.520   3.357   6.342 -0.3659 -0.3185 -0.2348
11913TIP3    H257231   6.539   3.507   6.336  0.6979 -0.3854  1.0881
11914TIP3   OH257232   1.439   0.102  16.433 -0.8423  0.0335 -0.4800
11914TIP3    H157233   1.420   0.032  16.371 -0.4883 -0.3583 -0.1504
11914TIP3    H257234   1.400   0.074  16.515 -0.3612  0.0337 -0.2459
11915TIP3   OH257235   2.002   1.799   0.464  0.3970  0.1034 -0.2510
11915TIP3    H157236   1.956   1.863   0.518  1.0249 -0.8852  1.5234
11915TIP3    H257237   1.944   1.785   0.388 -2.3274 -1.1198  1.8778
11916TIP3   OH257238   2.519   1.167  12.514  0.4025  0.1270 -0.0210
11916TIP3    H157239   2.515   1.113  12.593  0.3350  1.5434  0.9773
11916TIP3    H257240   2.528   1.257  12.546  3.4566  0.5229 -1.6286
11917TIP3   OH257241   6.349   4.525  14.472  0.1588  0.1203  0.5787
11917TIP3    H157242   6.300   4.458  14.424 -0.5519  1.5099 -0.7230
11917TIP3    H257243   6.284   4.592  14.491  1.6158  2.5002 -2.0834
11918TIP3   OH257244   1.112   0.445  11.695 -0.4442 -0.2924  0.1133
11918TIP3    H157245   1.067   0.430  11.612  0.3782  1.2108 -0.6448
11918TIP3    H257246   1.183   0.380  11.695  0.3398  0.5281 -0.9893
11919TIP3   OH257247   3.951   6.795  13.627 -0.2091  0.3655 -0.1478
11919TIP3    H157248   3.928   6.855  13.698  0.9727  0.6987 -0.0367
11919TIP3    H257249   3.967   6.711  13.670 -1.1835  0.1153 -0.2317
11920TIP3   OH257250   1.128   1.069  14.656  0.1825  0.1604 -0.0592
11920TIP3    H157251   1.059   1.135  14.663 -0.1067 -0.0123 -1.1437
11920TIP3    H257252   1.149   1.065  14.563 -0.4619 -1.9376 -0.1626
11921TIP3   OH257253   3.540   1.404   4.925 -0.8146 -0.0776 -0.4060
11921TIP3    H157254   3.446   1.413   4.942 -1.3299 -1.1332 -2.4109
11921TIP3    H257255   3.545   1.361   4.839  1.5045  0.6768 -0.7159
11922TIP3   OH257256   2.351   1.447  10.911 -0.1257  0.2778 -0.1267
11922TIP3    H157257   2.337   1.522  10.854 -0.6123 -0.6913 -1.3299
11922TIP3    H257258   2.446   1.437  10.916 -0.0753  0.4974 -0.6112
11923TIP3   OH257259   2.535   6.733  15.462  0.3932 -0.0593 -0.0191
11923TIP3    H157260   2.602   6.733  15.530  0.8019  0.9741 -0.3975
11923TIP3    H257261   2.452   6.724  15.509  0.6844  0.4092  0.5979
11924TIP3   OH257262   5.315   3.210   1.002 -0.3934  0.1258  0.1833
11924TIP3    H157263   5.408   3.202   0.982 -0.4820  0.8016 -0.5665
11924TIP3    H257264   5.279   3.258   0.927 -1.0031  1.4734  1.2951
11925TIP3   OH257265   1.125   4.214  14.589 -0.2107  0.8230 -0.0437
11925TIP3    H157266   1.148   4.211  14.682 -2.3816 -3.1147  0.6032
11925TIP3    H257267   1.188   4.156  14.546 -0.1917  1.3618 -0.7575
11926TIP3   OH257268   5.652   5.294  15.935 -0.2794  0.4671 -0.0929
11926TIP3    H157269   5.738   5.281  15.975 -1.5878  0.0993  2.8047
11926TIP3    H257270   5.669   5.350  15.859  2.5905 -0.2230 -0.0595
11927TIP3   OH257271   2.190   6.776  12.437 -0.1191  0.3145 -0.3443
11927TIP3    H157272   2.147   6.803  12.356 -1.4891 -1.0356 -0.1322
11927TIP3    H257273   2.283   6.780  12.417 -0.4179  0.0933 -1.9806
11928TIP3   OH257274   5.125   1.492  15.607 -0.1269  0.4271 -0.3787
11928TIP3    H157275   5.205   1.458  15.648 -0.6007  1.4830  1.5396
11928TIP3    H257276   5.137   1.587  15.605 -1.6174  0.6897  0.7116
11929TIP3   OH257277   5.685   1.433   2.807 -0.3359 -0.3624 -0.4172
11929TIP3    H157278   5.672   1.383   2.887 -2.0534 -1.4679 -1.3112
11929TIP3    H257279   5.625   1.392   2.744 -0.2971  1.5473 -1.7752
11930TIP3   OH257280   4.015   3.302   2.455 -0.4331  0.1508 -0.1292
11930TIP3    H157281   4.049   3.249   2.527 -0.7980 -0.0348 -0.0928
11930TIP3    H257282   3.920   3.301   2.467 -0.4685  0.4539 -0.3793
11931TIP3   OH257283   1.193   4.764   1.429 -0.0502  0.0163 -0.0939
11931TIP3    H157284   1.232   4.714   1.358 -0.3838 -1.2967  0.6071
11931TIP3    H257285   1.201   4.707   1.506 -1.6455  0.4716  0.4560
11932TIP3   OH257286   3.692   1.952  13.846  0.3809  0.3361  0.3579
11932TIP3    H157287   3.680   2.047  13.840  2.2248  0.6735  1.1022
11932TIP3    H257288   3.606   1.915  13.829  0.0700  2.0378 -2.4246
11933TIP3   OH257289   2.833   5.663   6.093 -0.1349  0.0735 -0.2727
11933TIP3    H157290   2.922   5.689   6.070 -0.4735  1.7759  0.2086
11933TIP3    H257291   2.783   5.744   6.088 -1.4015 -0.6283  0.7022
11934TIP3   OH257292   4.164   6.637   3.317 -0.0044  0.1201 -0.1426
11934TIP3    H157293   4.074   6.627   3.286  0.4099 -3.0834 -0.7345
11934TIP3    H257294   4.218   6.634   3.238  0.7035  0.1177  0.3262
11935TIP3   OH257295   3.354   5.580  11.632  0.6772 -0.6329  0.5438
11935TIP3    H157296   3.325   5.626  11.553 -0.5529 -0.0057  1.3403
11935TIP3    H257297   3.331   5.489  11.616  0.7525 -0.5680  0.0395
11936TIP3   OH257298   5.861   5.310  17.264  0.0729 -0.3182  0.4538
11936TIP3    H157299   5.783   5.274  17.308  0.2603  0.7972  1.7812
11936TIP3    H257300   5.929   5.308  17.331  1.2593 -1.3732 -0.7276
11937TIP3   OH257301   3.127   0.029   3.287 -0.1103  0.3456 -0.0534
11937TIP3    H157302   3.187   0.027   3.212  0.7884  1.1199  0.6172
11937TIP3    H257303   3.157   0.103   3.340 -0.2143 -0.6617  1.4962
11938TIP3   OH257304   1.350   1.085   1.958 -0.1342 -0.5121 -0.1593
11938TIP3    H157305   1.331   1.007   1.906 -0.9943 -0.2585 -0.2354
11938TIP3    H257306   1.387   1.147   1.896  2.3693 -1.4799  0.2363
11939TIP3   OH257307   6.271   0.609  12.510  0.0604 -0.3804 -0.3922
11939TIP3    H157308   6.184   0.611  12.472  0.8148  0.7289 -2.2255
11939TIP3    H257309   6.257   0.588  12.602 -2.0598 -0.8963 -0.7791
11940TIP3   OH257310   6.770   3.672   0.978  0.6372 -0.7142 -0.1638
11940TIP3    H157311   6.697   3.651   0.920  0.8787  0.4789 -0.9482
11940TIP3    H257312   6.847   3.670   0.920  0.6196  2.8657 -0.5418
11941TIP3   OH257313   4.546   2.938   0.508  0.1293  0.1623 -0.3071
11941TIP3    H157314   4.535   2.856   0.459 -0.8229  1.1152 -1.7696
11941TIP3    H257315   4.505   2.920   0.593  1.3474 -1.3645  0.0075
11942TIP3   OH257316   5.240   5.216  16.763  0.2333  0.6455 -0.2506
11942TIP3    H157317   5.318   5.248  16.717  0.4409 -0.7433 -0.8950
11942TIP3    H257318   5.179   5.290  16.757  0.9825  1.2428 -0.9813
11943TIP3   OH257319   2.783   5.307  11.448 -0.3241  0.4196 -0.6966
11943TIP3    H157320   2.770   5.264  11.364  0.8668  1.0942 -1.2419
11943TIP3    H257321   2.706   5.363  11.459 -1.1859 -0.7469 -0.6459
11944TIP3   OH257322   3.195   4.973   1.610  0.1941  0.1485 -0.1170
11944TIP3    H157323   3.248   4.909   1.563 -0.2034  0.0116 -0.3910
11944TIP3    H257324   3.180   5.043   1.547 -0.3898 -0.0622 -0.2253
11945TIP3   OH257325   3.567   0.238   2.762 -0.3084  0.0383  0.9130
11945TIP3    H157326   3.591   0.185   2.686 -1.0472 -0.3682  0.9534
11945TIP3    H257327   3.643   0.295   2.777  0.7345 -1.3777  1.2112
11946TIP3   OH257328   0.641   4.508  11.924  0.0249  0.5214 -0.9826
11946TIP3    H157329   0.703   4.515  11.852  0.3823  2.9266 -0.5146
11946TIP3    H257330   0.688   4.542  12.000 -1.1321  0.2946 -0.1379
11947TIP3   OH257331   4.509   5.086   5.589 -0.2525  0.6936  0.2639
11947TIP3    H157332   4.458   5.027   5.645  2.4412 -2.0136  0.1071
11947TIP3    H257333   4.554   5.144   5.651 -0.5018  0.4991  0.6378
11948TIP3   OH257334   3.995   4.522  17.237  0.5990  0.0168  0.3296
11948TIP3    H157335   4.036   4.436  17.243  0.8937  0.2172  1.4295
11948TIP3    H257336   3.914   4.515  17.288 -0.3122 -0.1136 -1.0844
11949TIP3   OH257337   2.674   4.274   1.934 -0.5470 -0.2630  0.2511
11949TIP3    H157338   2.610   4.273   2.005 -0.5209 -2.4163  0.3194
11949TIP3    H257339   2.624   4.296   1.856 -0.5878  2.0785  0.8676
11950TIP3   OH257340   2.277   2.381  16.077 -0.1876 -0.2295  0.4377
11950TIP3    H157341   2.270   2.387  16.172  1.4975 -1.9757  0.7328
11950TIP3    H257342   2.286   2.287  16.059 -0.9326  0.0155 -1.5012
11951TIP3   OH257343   5.907   0.246   1.602 -0.2449  0.4064 -0.2657
11951TIP3    H157344   5.929   0.273   1.691  0.9267  0.7133 -0.6309
11951TIP3    H257345   5.813   0.226   1.605 -0.1225 -0.0755  1.1544
11952TIP3   OH257346   6.198   5.029   4.540 -0.2781  0.2620 -0.1848
11952TIP3    H157347   6.228   4.963   4.602  1.1229  1.7559  0.7936
11952TIP3    H257348   6.138   5.085   4.591  0.4610  1.1795 -0.2855
11953TIP3   OH257349   4.550   5.502  16.810 -0.2003  0.8648 -0.3683
11953TIP3    H157350   4.466   5.455  16.805 -0.4150  1.2106 -0.0526
11953TIP3    H257351   4.615   5.437  16.783 -0.1297 -0.6048  2.8687
11954TIP3   OH257352   0.767   4.934   1.077  0.2009 -0.1632 -0.0329
11954TIP3    H157353   0.834   4.981   1.128 -0.3695 -0.1458  0.7174
11954TIP3    H257354   0.745   4.859   1.131 -0.2488 -0.2734 -0.3709
11955TIP3   OH257355   5.785   5.546  13.517 -0.2674 -0.1176 -0.0742
11955TIP3    H157356   5.881   5.544  13.518 -0.1549  1.8516 -1.6526
11955TIP3    H257357   5.763   5.638  13.502 -2.3407 -0.8159 -1.8478
11956TIP3   OH257358   0.761   2.667   3.962 -0.5986  0.1237 -0.3273
11956TIP3    H157359   0.746   2.757   3.992 -0.7273  0.7313 -2.0923
11956TIP3    H257360   0.808   2.677   3.879  0.2068 -1.4788 -0.1042
11957TIP3   OH257361   3.310   1.880  11.455  0.2261  0.2628 -0.4803
11957TIP3    H157362   3.376   1.833  11.404  0.3408 -1.0805  0.8561
11957TIP3    H257363   3.234   1.822  11.457 -1.5546  2.2471 -2.9756
11958TIP3   OH257364   3.681   5.278   2.756  0.1909  0.1340 -0.1829
11958TIP3    H157365   3.654   5.341   2.690  2.0158  1.4043  0.2219
11958TIP3    H257366   3.746   5.324   2.808  0.0988 -1.4282  1.4054
11959TIP3   OH257367   6.082   6.802   0.838  0.5603 -0.3789  0.3205
11959TIP3    H157368   6.170   6.775   0.810  0.7693  0.7471 -0.1793
11959TIP3    H257369   6.070   6.889   0.799  0.2001  0.5657  2.3953
11960TIP3   OH257370   5.091   1.114   0.364 -0.5812  0.0651  0.5897
11960TIP3    H157371   5.041   1.136   0.443 -0.0188 -1.0967  1.2907
11960TIP3    H257372   5.180   1.101   0.395  0.0879  1.5882 -0.5785
11961TIP3   OH257373   1.810   2.593  11.966 -0.0144 -0.1148  0.2072
11961TIP3    H157374   1.876   2.524  11.966 -0.8139 -0.8914  0.1501
11961TIP3    H257375   1.850   2.665  11.918  0.0966 -1.2621 -1.4954
11962TIP3   OH257376   5.612   5.895  14.406  0.7391  0.2807  0.1243
11962TIP3    H157377   5.696   5.895  14.451 -0.1670 -0.2868  1.9081
11962TIP3    H257378   5.613   5.975  14.353  3.2143 -0.7743 -1.5847
11963TIP3   OH257379   5.453   2.730   2.868  0.6716 -0.6029  0.1242
11963TIP3    H157380   5.527   2.789   2.883  0.1835 -0.0106  0.2616
11963TIP3    H257381   5.483   2.670   2.800  1.0046  0.1330 -0.3938
11964TIP3   OH257382   6.021   3.803  11.723  0.2953 -0.5304  0.3377
11964TIP3    H157383   6.091   3.832  11.783  1.3357 -1.4426 -0.4119
11964TIP3    H257384   6.067   3.773  11.645 -0.9228 -1.5645 -0.0062
11965TIP3   OH257385   3.468   1.160  12.785 -0.4184  0.0162 -0.3002
11965TIP3    H157386   3.525   1.209  12.726 -2.0411  0.8879 -1.2355
11965TIP3    H257387   3.406   1.116  12.726 -0.5594 -1.1232  0.6610
11966TIP3   OH257388   5.264   5.787  14.182  0.7996  0.5123 -0.1550
11966TIP3    H157389   5.357   5.787  14.157  1.2214 -1.3752  1.2332
11966TIP3    H257390   5.243   5.695  14.198 -1.9275  0.6081 -2.4324
11967TIP3   OH257391   2.245   6.693  11.379  0.1524 -0.4089  0.0123
11967TIP3    H157392   2.295   6.762  11.421 -0.4311  0.4580 -0.6791
11967TIP3    H257393   2.248   6.620  11.440 -1.5305  1.1256  2.0899
11968TIP3   OH257394   2.323   3.594   5.232  0.5329  0.2029 -0.4302
11968TIP3    H157395   2.279   3.645   5.165 -0.4065 -1.0012 -0.7671
11968TIP3    H257396   2.253   3.563   5.290  1.3138  1.1147  1.0539
11969TIP3   OH257397   4.422   2.805  11.835  0.1432  0.2441 -0.4283
11969TIP3    H157398   4.333   2.769  11.838  0.2349  0.0283 -0.2169
11969TIP3    H257399   4.468   2.761  11.907  0.2168  0.9027 -0.0618
11970TIP3   OH257400   0.910   2.903  12.185 -0.3654  0.5596 -0.3221
11970TIP3    H157401   0.942   2.949  12.107 -0.1844 -1.5556 -1.5729
11970TIP3    H257402   0.987   2.891  12.240 -0.2341  0.8635 -0.4360
11971TIP3   OH257403   5.277   2.398   0.248 -0.0767  0.1261 -0.2579
11971TIP3    H157404   5.237   2.484   0.232  0.5769  0.6983  0.9534
11971TIP3    H257405   5.301   2.401   0.341  0.6533 -1.0759 -0.3929
11972TIP3   OH257406   2.522   2.858  15.994  0.2314 -1.0616 -0.3580
11972TIP3    H157407   2.603   2.901  16.025 -1.6601  1.4658  1.5347
11972TIP3    H257408   2.514   2.885  15.903  0.1529  1.0602  0.2259
11973TIP3   OH257409   3.727   4.702   2.666 -0.9709  0.7062  0.0190
11973TIP3    H157410   3.806   4.756   2.670 -0.3729  0.1092 -2.1648
11973TIP3    H257411   3.759   4.613   2.680 -1.3016  0.5043 -0.4901
11974TIP3   OH257412   5.388   3.008   2.722 -0.2924 -0.2279  0.0738
11974TIP3    H157413   5.394   2.943   2.652 -2.0433  2.3634 -2.7239
11974TIP3    H257414   5.312   2.979   2.774 -0.7703 -0.7031 -0.8501
11975TIP3   OH257415   1.466   0.278   2.258 -0.2708 -0.3776  0.1377
11975TIP3    H157416   1.518   0.354   2.285  0.1349 -0.8203  0.6308
11975TIP3    H257417   1.434   0.240   2.340 -1.2087 -0.2311 -0.1514
11976TIP3   OH257418   3.725   6.287  13.350  0.4036 -0.3371 -0.2017
11976TIP3    H157419   3.801   6.245  13.308  0.7650 -0.5522  0.6389
11976TIP3    H257420   3.722   6.375  13.312 -1.1126 -1.4452 -2.9421
11977TIP3   OH257421   1.382   6.729  10.567 -0.0008 -0.1935 -0.4690
11977TIP3    H157422   1.397   6.645  10.610 -0.5348 -1.9950 -3.4837
11977TIP3    H257423   1.305   6.714  10.511  0.6095  1.9204 -2.0203
11978TIP3   OH257424   1.844   2.199  16.346 -0.5313 -0.3027  0.5112
11978TIP3    H157425   1.831   2.108  16.318  0.1749 -0.0053 -0.8153
11978TIP3    H257426   1.771   2.247  16.306 -0.1165 -0.0550  0.0434
11979TIP3   OH257427   1.208   5.993  13.166 -0.0225  0.4051 -0.0565
11979TIP3    H157428   1.233   5.966  13.077 -3.3456 -1.9397 -0.4800
11979TIP3    H257429   1.186   6.086  13.157  0.0251  0.3013 -1.6455
11980TIP3   OH257430   6.207   5.624  12.843 -0.3098  0.1108 -0.6205
11980TIP3    H157431   6.144   5.553  12.830 -1.4156  1.3821 -2.7257
11980TIP3    H257432   6.269   5.589  12.907 -1.7579 -2.1037 -0.3085
11981TIP3   OH257433   4.684   0.739  15.793 -0.3319 -0.0942  0.2896
11981TIP3    H157434   4.703   0.832  15.807  2.0232  0.0921 -2.9584
11981TIP3    H257435   4.686   0.728  15.698  1.3469 -3.7788  0.5736
11982TIP3   OH257436   1.055   0.540   1.616 -0.1829 -0.5016 -0.1961
11982TIP3    H157437   1.108   0.525   1.695 -1.2626  1.4880  0.9834
11982TIP3    H257438   1.119   0.549   1.546  0.8850 -0.9319  0.6846
11983TIP3   OH257439   4.731   4.406  15.455 -0.4294 -0.2043  0.0656
11983TIP3    H157440   4.645   4.439  15.429 -0.5253  0.9893  1.7084
11983TIP3    H257441   4.774   4.482  15.496  1.1409 -0.9614 -0.1320
11984TIP3   OH257442   3.200   4.747   5.053 -0.4481 -0.0006 -0.7728
11984TIP3    H157443   3.265   4.814   5.032  0.4944 -0.6468 -0.0168
11984TIP3    H257444   3.139   4.749   4.979  1.3781 -0.5585 -2.3927
11985TIP3   OH257445   3.572   6.325  14.303  0.4754  0.3236  0.1372
11985TIP3    H157446   3.533   6.397  14.352  1.5329  0.1162  1.3308
11985TIP3    H257447   3.619   6.367  14.231 -0.6402  0.6673 -0.4073
11986TIP3   OH257448   2.954   0.064   2.920  0.3968  0.8094 -0.9383
11986TIP3    H157449   2.912   0.146   2.945 -2.2656 -0.3254 -1.2944
11986TIP3    H257450   2.984   0.025   3.002  1.6309  2.0483 -0.7688
11987TIP3   OH257451   2.959   3.052   1.972  0.4076 -0.1480 -0.6403
11987TIP3    H157452   2.950   3.027   2.064 -0.5362  0.5853 -0.5131
11987TIP3    H257453   3.051   3.080   1.964 -0.2161  2.8283  0.9328
11988TIP3   OH257454   4.559   5.167  15.611  0.0457 -0.2431 -0.0332
11988TIP3    H157455   4.635   5.192  15.664  0.1813  0.1064 -0.3844
11988TIP3    H257456   4.497   5.239  15.622 -0.0857 -0.3583 -0.0276
11989TIP3   OH257457   2.502   3.766   2.079 -0.0911  0.6095 -0.2545
11989TIP3    H157458   2.598   3.763   2.081  0.0423  1.4615 -2.2802
11989TIP3    H257459   2.483   3.840   2.021 -2.0068  1.1348  0.9682
11990TIP3   OH257460   6.228   2.623   0.005  0.5124  0.0723  0.8155
11990TIP3    H157461   6.255   2.539   0.041  1.6020 -0.0725 -0.2428
11990TIP3    H257462   6.254   2.687   0.070  0.8521 -0.3166  1.0664
11991TIP3   OH257463   0.766   1.296   1.374 -0.1257  0.3351  0.7221
11991TIP3    H157464   0.798   1.273   1.461 -1.0254  0.7630  1.1854
11991TIP3    H257465   0.693   1.357   1.391 -0.0001  0.8002 -0.3430
11992TIP3   OH257466   5.454   3.569  10.969  0.8205  0.1783 -0.3462
11992TIP3    H157467   5.367   3.534  10.990  1.0520 -0.1316  0.1100
11992TIP3    H257468   5.462   3.560  10.874  0.5081 -0.1410 -0.3413
11993TIP3   OH257469   6.088   4.865  14.284  0.0288  0.1177 -0.2198
11993TIP3    H157470   6.161   4.870  14.347  0.7333 -1.2515 -0.8729
11993TIP3    H257471   6.066   4.772  14.281 -0.6211  0.2943 -1.2901
11994TIP3   OH257472   5.456   6.146  12.275  0.3164  0.0315  0.4640
11994TIP3    H157473   5.442   6.139  12.370  0.6669 -1.1281  0.4409
11994TIP3    H257474   5.545   6.114  12.261 -0.1871 -1.0708 -0.3957
11995TIP3   OH257475   2.517   1.897  15.189  0.2561  0.3761  0.3680
11995TIP3    H157476   2.469   1.933  15.114  0.1247 -0.4861  0.0264
11995TIP3    H257477   2.454   1.895  15.260  0.1027  0.2802  0.2289
11996TIP3   OH257478   3.970   5.235  13.184 -0.4662  0.1436  0.3180
11996TIP3    H157479   3.941   5.309  13.130  1.0978  2.7583  2.7735
11996TIP3    H257480   3.917   5.241  13.264  0.2958 -0.8759  0.9253
11997TIP3   OH257481   1.305   5.151   5.499 -0.1122  0.6108 -0.2400
11997TIP3    H157482   1.227   5.108   5.466  0.2482 -0.7153  0.5787
11997TIP3    H257483   1.374   5.127   5.438  0.4407 -1.4109  1.0694
11998TIP3   OH257484   0.204   6.690   3.964  0.3431  0.2925 -0.1572
11998TIP3    H157485   0.206   6.754   4.035 -0.6572 -2.4922  2.5856
11998TIP3    H257486   0.295   6.687   3.932  0.8534  1.5110  1.0797
11999TIP3   OH257487   5.104   6.164   2.466 -0.0448  0.0306 -0.0688
11999TIP3    H157488   5.119   6.201   2.553 -1.9607  1.3391 -0.2332
11999TIP3    H257489   5.109   6.069   2.479  0.0008  0.2166  1.3976
12000TIP3   OH257490   3.345   2.604  17.037  0.0071  0.4825  0.1968
12000TIP3    H157491   3.310   2.588  17.125  1.1530 -0.0020  0.5755
12000TIP3    H257492   3.270   2.588  16.979 -0.3721 -0.6979  0.9762
12001TIP3   OH257493   5.110   5.689   1.700  0.4550  0.4401 -0.0136
12001TIP3    H157494   5.134   5.731   1.618  0.6606 -0.7874 -0.6114
12001TIP3    H257495   5.117   5.758   1.765  2.2845  0.9929 -0.7082
12002TIP3   OH257496   0.233   6.027  15.293  0.4255  0.0303  0.0308
12002TIP3    H157497   0.141   6.041  15.314  1.1652  1.1777  3.1043
12002TIP3    H257498   0.271   6.115  15.292  1.7006 -0.4966  0.0559
12003TIP3   OH257499   3.223   5.815   3.817  0.5945  0.3397  0.4576
12003TIP3    H157500   3.248   5.797   3.727  0.8879 -2.3893  0.9908
12003TIP3    H257501   3.241   5.908   3.829  0.2233  0.8609 -2.3611
12004TIP3   OH257502   1.137   6.385  13.892 -0.1773  0.2386 -1.2153
12004TIP3    H157503   1.215   6.435  13.915 -1.2774  2.0850 -1.2883
12004TIP3    H257504   1.107   6.347  13.974  0.5191 -0.0817 -1.1027
12005TIP3   OH257505   2.235   0.310  12.345  0.4229 -0.1506 -0.0982
12005TIP3    H157506   2.210   0.346  12.430  0.9581 -0.6701  0.2925
12005TIP3    H257507   2.330   0.323  12.340  0.3342  0.3036 -0.8294
12006TIP3   OH257508   1.312   5.201  12.270  0.3302 -0.9605 -0.3506
12006TIP3    H157509   1.310   5.123  12.215 -1.6418 -1.3648  0.1996
12006TIP3    H257510   1.402   5.232  12.265  0.1295 -0.4952 -4.4220
12007TIP3   OH257511   2.209   6.681  13.737 -0.4628  0.2445  0.3605
12007TIP3    H157512   2.235   6.700  13.647  0.7591 -0.1526  0.5994
12007TIP3    H257513   2.123   6.721  13.747  0.0829  1.7137 -0.4941
12008TIP3   OH257514   0.689   1.968   2.145  0.0161 -0.1632 -0.1591
12008TIP3    H157515   0.613   1.960   2.203 -0.3467  0.4797 -0.5297
12008TIP3    H257516   0.658   1.935   2.060  0.9963 -2.5582  0.3465
12009TIP3   OH257517   0.584   0.519   2.302 -0.1700 -0.5203  0.1545
12009TIP3    H157518   0.493   0.549   2.310 -0.0581 -0.3360  0.8079
12009TIP3    H257519   0.618   0.522   2.391  1.1008  1.3893 -0.3353
12010TIP3   OH257520   4.556   5.935  14.408 -0.5154  0.7657 -0.2745
12010TIP3    H157521   4.586   5.990  14.335  1.8209  1.0593  0.8386
12010TIP3    H257522   4.487   5.987  14.450 -1.8581  0.6264 -2.1461
12011TIP3   OH257523   3.286   6.639   3.819  0.0753  0.0988 -0.0692
12011TIP3    H157524   3.235   6.716   3.792  1.5383  0.3808 -2.2234
12011TIP3    H257525   3.349   6.674   3.882 -2.6165 -0.3724  3.2286
12012TIP3   OH257526   5.743   2.968   5.863 -0.2626 -0.0188 -0.6530
12012TIP3    H157527   5.835   2.978   5.887 -0.4039  0.8795 -0.4665
12012TIP3    H257528   5.695   2.993   5.941 -0.6949  1.4470 -1.3599
12013TIP3   OH257529   0.440   1.751  12.999 -0.0030 -0.1556  0.9000
12013TIP3    H157530   0.449   1.656  12.994 -1.2136 -0.2369 -0.8989
12013TIP3    H257531   0.381   1.773  12.926  2.2546  2.2187 -0.3796
12014TIP3   OH257532   1.205   4.060  16.563  0.3248  0.1732 -0.0350
12014TIP3    H157533   1.230   4.139  16.612  0.7224 -0.4762  0.8556
12014TIP3    H257534   1.226   4.080  16.472  0.2482  1.1603  0.1588
12015TIP3   OH257535   4.619   2.213  14.018 -0.3292 -0.3651  0.2463
12015TIP3    H157536   4.596   2.198  13.927 -0.5634 -0.6796  0.3532
12015TIP3    H257537   4.658   2.300  14.020 -0.0340 -0.4897 -0.2022
12016TIP3   OH257538   1.548   5.677  12.563 -0.0515 -0.0505 -0.1380
12016TIP3    H157539   1.466   5.657  12.517  0.7595 -0.7697 -1.3342
12016TIP3    H257540   1.586   5.591  12.582  0.8374  0.2861 -0.3705
12017TIP3   OH257541   0.145   2.371  16.105 -0.2117 -0.6417 -0.0871
12017TIP3    H157542   0.217   2.330  16.153 -2.3187 -1.4918  2.6176
12017TIP3    H257543   0.114   2.441  16.163 -1.1982  0.0950 -1.4419
12018TIP3   OH257544   3.156   6.102  15.832 -0.1309  0.6655 -0.4504
12018TIP3    H157545   3.130   6.195  15.829  1.1778  1.1022  0.6996
12018TIP3    H257546   3.150   6.079  15.924 -1.0860 -0.6261 -0.8102
12019TIP3   OH257547   1.401   1.224  16.574 -0.5796  0.2442 -0.0738
12019TIP3    H157548   1.369   1.188  16.492 -1.7032  0.0158  0.4531
12019TIP3    H257549   1.326   1.222  16.633  0.4281 -0.4239  1.2425
12020TIP3   OH257550   3.176   0.462   2.354 -0.7016 -0.0333  0.0903
12020TIP3    H157551   3.238   0.388   2.358  0.3106  0.7804 -0.1611
12020TIP3    H257552   3.127   0.448   2.273 -0.7580 -0.6113  0.2181
12021TIP3   OH257553   5.243   6.350  13.756  0.0909 -0.8100  0.2015
12021TIP3    H157554   5.313   6.391  13.706 -0.7021 -0.8187 -0.9551
12021TIP3    H257555   5.170   6.413  13.749 -0.8922 -2.0213 -0.9385
12022TIP3   OH257556   5.576   5.023   2.546  0.4273  0.0661 -0.0303
12022TIP3    H157557   5.562   4.973   2.466  2.7296  0.2609 -0.6323
12022TIP3    H257558   5.543   5.111   2.525  0.9768  0.1087 -0.7903
12023TIP3   OH257559   3.343   6.085  13.812  0.5695  0.1042 -0.4618
12023TIP3    H157560   3.383   6.171  13.824 -1.3495  0.9353  0.2247
12023TIP3    H257561   3.254   6.095  13.843 -0.8347 -1.1519 -3.6257
12024TIP3   OH257562   1.301   1.158   3.755  0.4166 -0.1413 -0.7431
12024TIP3    H157563   1.382   1.209   3.750 -0.1695  0.7349 -1.9846
12024TIP3    H257564   1.297   1.127   3.845  1.6617  0.5868 -0.4158
12025TIP3   OH257565   4.658   0.366  14.490 -0.5423 -0.6949 -0.3919
12025TIP3    H157566   4.617   0.452  14.499 -1.5136 -1.3013  1.4537
12025TIP3    H257567   4.606   0.322  14.422 -0.1848  0.0736 -1.1802
12026TIP3   OH257568   1.162   4.301  16.717  0.8780  0.0985 -0.6705
12026TIP3    H157569   1.097   4.320  16.649 -0.9247 -0.1969  0.8731
12026TIP3    H257570   1.201   4.386  16.737  0.4763  0.4007 -1.1333
12027TIP3   OH257571   6.537   3.331  11.465 -0.2237 -0.1020  0.1714
12027TIP3    H157572   6.507   3.379  11.388 -1.4376  0.7255  1.1308
12027TIP3    H257573   6.471   3.264  11.479 -0.0039 -0.2529  0.5021
12028TIP3   OH257574   0.811   5.840   1.760  0.0040 -0.2848  0.0576
12028TIP3    H157575   0.734   5.797   1.722  0.2852 -0.9909  0.2898
12028TIP3    H257576   0.886   5.795   1.721  0.3002 -0.4417  0.7954
12029TIP3   OH257577   1.812   0.148  12.625  0.2250  0.4339  0.2968
12029TIP3    H157578   1.809   0.055  12.646  0.5051  0.3999  0.1828
12029TIP3    H257579   1.874   0.186  12.688  1.4281  0.2526 -0.7493
12030TIP3   OH257580   6.404   5.211   3.135 -0.4708  0.1673  0.4996
12030TIP3    H157581   6.460   5.139   3.166  0.8711  1.0083  0.1207
12030TIP3    H257582   6.322   5.168   3.110  0.0389 -1.1339  0.9446
12031TIP3   OH257583   4.787   5.280   1.457 -0.2626 -0.7275  0.3071
12031TIP3    H157584   4.712   5.260   1.513  0.9423 -0.7915  1.9845
12031TIP3    H257585   4.761   5.250   1.370 -1.0669 -3.5428  1.4094
12032TIP3   OH257586   5.916   0.805   2.255  0.5474  0.0864  0.5406
12032TIP3    H157587   5.918   0.798   2.159  0.5553  0.1469  0.5365
12032TIP3    H257588   5.903   0.715   2.285  2.7093 -0.2799  0.5656
12033TIP3   OH257589   2.554   1.129   3.306  0.9519  0.0160  0.5059
12033TIP3    H157590   2.633   1.076   3.298  0.6893 -0.4894  1.1045
12033TIP3    H257591   2.509   1.118   3.222  0.9317 -0.6748  0.5999
12034TIP3   OH257592   3.454   3.207   0.515 -0.2780 -0.2412 -0.4952
12034TIP3    H157593   3.473   3.272   0.583  1.1567 -2.9756  1.9818
12034TIP3    H257594   3.511   3.230   0.442  1.4273  0.3776  0.9619
12035TIP3   OH257595   3.513   4.336   3.215 -0.6580 -0.1358 -0.0702
12035TIP3    H157596   3.457   4.282   3.159 -1.5424 -1.7101  2.1969
12035TIP3    H257597   3.602   4.310   3.191 -1.0236 -1.1161 -0.4386
12036TIP3   OH257598   5.873   5.475   5.779  0.1491 -0.1916  0.2770
12036TIP3    H157599   5.921   5.547   5.737  1.0147 -1.7132 -1.4942
12036TIP3    H257600   5.908   5.396   5.738 -3.8025 -1.4660 -1.1390
12037TIP3   OH257601   5.650   2.863   6.716 -0.7542  0.3501 -0.4034
12037TIP3    H157602   5.567   2.838   6.674 -0.7706 -0.1453 -0.0749
12037TIP3    H257603   5.688   2.927   6.655 -2.1072  1.7928  0.1852
12038TIP3   OH257604   4.259   5.212   5.905 -0.4372 -0.4039 -0.1883
12038TIP3    H157605   4.247   5.118   5.891  0.9925 -0.5090 -0.8250
12038TIP3    H257606   4.326   5.238   5.843  0.2549  0.7485  0.9807
12039TIP3   OH257607   5.488   3.160  14.861 -0.4126  0.1628 -0.0326
12039TIP3    H157608   5.422   3.163  14.930 -1.4641 -0.0277 -1.0185
12039TIP3    H257609   5.458   3.222  14.795  0.5304  0.2680 -0.3861
12040TIP3   OH257610   2.974   5.435  11.582  0.4855 -0.1322  0.7115
12040TIP3    H157611   3.014   5.382  11.651 -0.7341  0.1016  1.6535
12040TIP3    H257612   2.895   5.387  11.557  0.2496  0.4059  0.3941
12041TIP3   OH257613   0.751   5.641  16.382 -0.0967 -0.1956  0.0208
12041TIP3    H157614   0.721   5.724  16.419 -0.2373  0.6804 -1.9092
12041TIP3    H257615   0.684   5.618  16.318 -0.6730 -2.4629  1.3477
12042TIP3   OH257616   1.235   4.827   5.561 -0.4630  0.1420  0.0063
12042TIP3    H157617   1.177   4.833   5.637 -0.1707  0.0317  0.2390
12042TIP3    H257618   1.301   4.762   5.586 -0.3111  0.1757 -0.3046
12043TIP3   OH257619   6.393   4.321   1.174  0.5024 -0.5068  0.1616
12043TIP3    H157620   6.325   4.254   1.182 -0.6255  0.7035  1.1983
12043TIP3    H257621   6.344   4.403   1.164  1.8292  0.0711 -2.4513
12044TIP3   OH257622   6.682   1.835   4.967 -0.4260  0.4665 -0.2230
12044TIP3    H157623   6.743   1.763   4.951 -0.1216  1.0945 -2.2265
12044TIP3    H257624   6.705   1.900   4.900 -0.7593  2.3754  1.4414
12045TIP3   OH257625   6.715   1.142   5.675  0.3691 -0.0064  0.6437
12045TIP3    H157626   6.673   1.221   5.639 -1.8464 -1.6322 -0.5700
12045TIP3    H257627   6.675   1.070   5.628  0.8202 -2.0336  3.1586
12046TIP3   OH257628   0.051   4.980  15.821  0.0159  0.1146 -0.4131
12046TIP3    H157629   0.057   4.898  15.773 -1.0261  1.2058 -2.5666
12046TIP3    H257630   0.136   5.022  15.808  0.5799 -0.6081  0.7627
12047TIP3   OH257631   2.304   4.896  11.570  0.0691 -0.1335  0.5470
12047TIP3    H157632   2.231   4.933  11.522 -1.0640 -1.1724  1.4164
12047TIP3    H257633   2.345   4.971  11.614 -0.0296  0.5460 -0.4945
12048TIP3   OH257634   3.225   4.417  13.588 -0.3988  0.5176 -0.0769
12048TIP3    H157635   3.295   4.353  13.577 -0.0874  0.4853  1.7112
12048TIP3    H257636   3.163   4.375  13.647 -1.7702  0.6945 -1.3386
12049TIP3   OH257637   6.475   0.331   0.557  0.2269 -0.4055  0.1862
12049TIP3    H157638   6.395   0.373   0.588 -0.2691 -0.3036 -1.1695
12049TIP3    H257639   6.479   0.249   0.606 -1.2276 -0.8544 -0.4082
12050TIP3   OH257640   0.433   3.836   2.895 -0.2453  0.2907 -0.4565
12050TIP3    H157641   0.372   3.843   2.969  0.1818  1.0574 -0.1690
12050TIP3    H257642   0.381   3.862   2.819  0.0603  2.2409 -0.0283
12051TIP3   OH257643   2.784   6.439  14.198  0.3251  0.0835  0.1501
12051TIP3    H157644   2.785   6.477  14.286  0.0320  1.0455 -0.2487
12051TIP3    H257645   2.719   6.491  14.150 -1.5933 -2.1866  0.1158
12052TIP3   OH257646   2.702   2.246  14.702  0.0749  0.5947  0.8206
12052TIP3    H157647   2.644   2.256  14.627  0.4566  1.0106  0.5757
12052TIP3    H257648   2.685   2.157  14.734  1.1949 -0.2909 -0.8841
12053TIP3   OH257649   3.564   1.667   1.109  0.3221  0.0586  0.2876
12053TIP3    H157650   3.568   1.598   1.042  1.5195 -0.4995  0.8965
12053TIP3    H257651   3.617   1.738   1.074 -2.5374  1.6035 -1.2663
12054TIP3   OH257652   1.851   4.378   0.067 -0.7842  0.5339  0.9583
12054TIP3    H157653   1.772   4.417   0.103 -2.2472  0.9466 -2.3082
12054TIP3    H257654   1.895   4.452   0.023  0.1170 -0.1737  0.6447
12055TIP3   OH257655   3.311   4.711  11.438 -0.2040 -0.4746  0.4407
12055TIP3    H157656   3.233   4.752  11.399  0.4061 -0.2665 -0.5936
12055TIP3    H257657   3.297   4.617  11.426  0.1574 -0.4012 -0.6677
12056TIP3   OH257658   2.609   6.554   1.947  0.4098 -0.2002  0.1915
12056TIP3    H157659   2.621   6.648   1.951  1.2355 -0.3390  1.6823
12056TIP3    H257660   2.641   6.522   2.031 -0.8186 -1.7029  0.1358
12057TIP3   OH257661   3.780   4.863  16.044 -0.1364 -0.2654 -0.4095
12057TIP3    H157662   3.696   4.876  15.999 -0.0169  0.1320 -0.5210
12057TIP3    H257663   3.784   4.934  16.109  0.1867 -0.1787 -0.5192
12058TIP3   OH257664   0.231   2.418   6.310  0.2416  0.1633  0.2329
12058TIP3    H157665   0.215   2.333   6.349 -0.0533 -0.1995 -0.6407
12058TIP3    H257666   0.202   2.482   6.375  4.3128 -0.1893  2.7705
12059TIP3   OH257667   1.222   1.530  15.216 -0.2699 -0.3105  0.3560
12059TIP3    H157668   1.302   1.479  15.206  0.3899  0.4793  1.4340
12059TIP3    H257669   1.195   1.550  15.126  2.3516  1.8662 -0.0652
12060TIP3   OH257670   6.535   6.134  11.918  0.1128 -0.1431 -0.1159
12060TIP3    H157671   6.476   6.204  11.945  1.2523  1.1714 -0.9104
12060TIP3    H257672   6.601   6.177  11.864  2.7108 -1.2070  1.9373
12061TIP3   OH257673   3.839   0.142   2.861  0.1447  0.0145 -0.2698
12061TIP3    H157674   3.787   0.100   2.929  0.7253  0.0541  0.2063
12061TIP3    H257675   3.846   0.075   2.793  0.6955 -0.5185  0.2975
12062TIP3   OH257676   3.050   6.022   5.327  0.5005 -0.1322 -0.4367
12062TIP3    H157677   2.977   6.011   5.265 -0.1638  0.7860  0.1646
12062TIP3    H257678   3.014   6.077   5.397  1.5173 -0.3957  0.3106
12063TIP3   OH257679   6.542   5.988  15.129 -0.5483 -0.1588  0.1786
12063TIP3    H157680   6.473   6.053  15.113 -0.4417 -0.8303 -3.9430
12063TIP3    H257681   6.495   5.907  15.149 -0.9828 -0.3246 -1.3903
12064TIP3   OH257682   6.290   4.234  16.098  0.0674 -0.6278  0.3459
12064TIP3    H157683   6.243   4.241  16.181  1.1229  0.5583  0.8838
12064TIP3    H257684   6.381   4.217  16.124  0.3198 -0.7541 -0.5905
12065TIP3   OH257685   2.417   4.359  11.508 -0.5744 -0.6361 -0.0926
12065TIP3    H157686   2.487   4.376  11.445  1.8122 -1.2047  2.2108
12065TIP3    H257687   2.392   4.445  11.540 -0.8190 -0.4356 -0.8172
12066TIP3   OH257688   0.001   3.520   6.135  0.4162  0.7247 -0.1471
12066TIP3    H157689   0.012   3.479   6.221  1.5899  0.5215 -0.3720
12066TIP3    H257690  -0.036   3.451   6.080  1.5066  0.2236 -0.2842
12067TIP3   OH257691   0.078   1.156  15.015 -0.3374 -0.0631 -0.1607
12067TIP3    H157692   0.009   1.112  15.065  1.7763 -1.0171  2.2011
12067TIP3    H257693   0.131   1.084  14.980 -0.4507  0.6434 -1.8349
12068TIP3   OH257694   6.008   0.739  12.906 -0.0187 -0.2881  0.4401
12068TIP3    H157695   6.053   0.689  12.838  1.3677  1.5346 -0.0696
12068TIP3    H257696   5.950   0.798  12.858 -1.2307 -1.0079  0.9973
12069TIP3   OH257697   2.842   0.872  15.400  0.0036 -0.2620 -0.1880
12069TIP3    H157698   2.887   0.894  15.319  0.3888 -1.2817 -0.2665
12069TIP3    H257699   2.790   0.794  15.378 -1.9226  0.9335 -0.1413
12070TIP3   OH257700   6.669   4.943  12.198  0.2770 -0.0409  0.1329
12070TIP3    H157701   6.613   4.884  12.249  0.5855 -0.2150  0.2762
12070TIP3    H257702   6.613   5.017  12.177  0.8167  1.3124  2.9528
12071TIP3   OH257703   4.986   3.056  13.545 -0.4601  0.2833  0.4512
12071TIP3    H157704   4.941   3.140  13.557 -0.7269 -0.0773  2.2473
12071TIP3    H257705   5.061   3.061  13.605  0.2363 -0.2770 -0.3659
12072TIP3   OH257706   3.098   3.193   3.507 -0.0867  0.3127 -0.2259
12072TIP3    H157707   3.037   3.125   3.480 -0.9691  0.6141  0.9368
12072TIP3    H257708   3.152   3.151   3.574  0.0190  0.4682 -0.2130
12073TIP3   OH257709   4.551   6.490  12.186  0.1158 -0.6769 -0.3042
12073TIP3    H157710   4.560   6.449  12.101 -1.0038 -0.4477 -0.5537
12073TIP3    H257711   4.526   6.580  12.167  1.6305 -0.1147  0.2497
12074TIP3   OH257712   2.506   1.284   4.071  0.2861  0.0840 -0.2415
12074TIP3    H157713   2.432   1.229   4.048 -0.1615  0.9499 -0.9364
12074TIP3    H257714   2.467   1.365   4.103  0.9271 -0.1912  1.2934
12075TIP3   OH257715   6.384   5.364  16.453  0.3730  0.2511 -0.2602
12075TIP3    H157716   6.463   5.394  16.407  1.9776 -0.2131  1.9940
12075TIP3    H257717   6.375   5.425  16.527 -0.8666 -0.2484  0.0294
12076TIP3   OH257718   5.245   0.633   0.326  0.3479 -0.5288 -0.6264
12076TIP3    H157719   5.181   0.666   0.389  1.7926  0.1461  0.5486
12076TIP3    H257720   5.199   0.633   0.242 -1.4935 -1.0254  0.3293
12077TIP3   OH257721   5.862   2.314   5.309 -0.1707  0.2424 -0.2261
12077TIP3    H157722   5.822   2.311   5.222  0.4722  2.8580 -0.7233
12077TIP3    H257723   5.792   2.289   5.369 -1.5202  1.2268 -1.3150
12078TIP3   OH257724   0.449   6.672  15.538 -0.1199  0.0278 -0.6400
12078TIP3    H157725   0.396   6.748  15.563  1.4155  0.8130  0.3729
12078TIP3    H257726   0.502   6.702  15.465  0.1509 -0.2136 -0.5443
12079TIP3   OH257727   5.683   1.354   6.453  0.5828 -0.0812 -0.9274
12079TIP3    H157728   5.645   1.409   6.521 -0.1145 -0.7048 -0.7963
12079TIP3    H257729   5.754   1.307   6.496 -1.9578 -3.0771  0.4078
12080TIP3   OH257730   0.080   2.337   0.578  0.5664 -0.2885 -0.2548
12080TIP3    H157731  -0.011   2.322   0.553  0.2761  0.7873  0.1241
12080TIP3    H257732   0.130   2.286   0.514 -0.2660 -0.1311 -1.0595
12081TIP3   OH257733   1.798   0.469   1.413 -0.7886 -0.0801 -0.3043
12081TIP3    H157734   1.727   0.427   1.460 -1.1345 -0.0384 -0.7902
12081TIP3    H257735   1.794   0.561   1.441  1.2072 -0.6596  2.3253
12082TIP3   OH257736   5.410   0.818   3.547 -0.0014 -0.0411 -0.0674
12082TIP3    H157737   5.358   0.862   3.479 -2.1378 -4.2166 -1.4492
12082TIP3    H257738   5.501   0.830   3.518 -0.6925  0.5524 -2.2259
12083TIP3   OH257739   1.310   2.817   3.094 -0.1212 -0.3137 -0.4734
12083TIP3    H157740   1.264   2.771   3.024 -1.6252  1.2332 -0.5773
12083TIP3    H257741   1.319   2.907   3.062 -0.5282  0.3461  1.1368
12084TIP3   OH257742   4.288   5.071   4.369 -0.4942  0.0231  0.7369
12084TIP3    H157743   4.253   4.994   4.323 -0.2830 -0.5470  1.5160
12084TIP3    H257744   4.383   5.063   4.359 -0.4546 -0.0154  1.1253
12085TIP3   OH257745   3.482   5.818   4.522  0.0570  0.1066  0.1327
12085TIP3    H157746   3.409   5.775   4.478  0.5528  1.2198 -1.9162
12085TIP3    H257747   3.552   5.752   4.523 -0.6421 -0.6533  1.2874
12086TIP3   OH257748   0.405   5.316   2.327 -0.2698  0.0459  0.1805
12086TIP3    H157749   0.340   5.248   2.314  0.0484 -0.5851  1.7036
12086TIP3    H257750   0.355   5.398   2.328 -1.0831 -0.4337  1.4343
12087TIP3   OH257751   2.652   6.758   4.146  0.0640  0.0154 -0.5965
12087TIP3    H157752   2.581   6.803   4.100  0.5816  0.3411 -1.0902
12087TIP3    H257753   2.647   6.668   4.114  0.0403  0.0990 -0.8308
12088TIP3   OH257754   0.999   2.795  13.742  0.1664  0.2021  0.2824
12088TIP3    H157755   0.926   2.857  13.745  0.5227  0.5837  1.1224
12088TIP3    H257756   1.074   2.844  13.775  0.4128 -0.7241  1.1508
12089TIP3   OH257757   2.418   3.902  16.637  0.5203 -0.0913 -0.4129
12089TIP3    H157758   2.401   3.853  16.718 -1.4180  1.9884  0.5294
12089TIP3    H257759   2.513   3.918  16.639  0.8294 -1.7947  0.3767
12090TIP3   OH257760   2.389   1.515  15.371  0.1784 -0.3159  0.2500
12090TIP3    H157761   2.397   1.534  15.278  1.7987  0.9527  0.5816
12090TIP3    H257762   2.351   1.428  15.376  1.8278 -1.2157 -1.6568
12091TIP3   OH257763   0.600   6.394   5.132 -0.3353  0.0940 -0.1005
12091TIP3    H157764   0.579   6.353   5.216  0.7118  0.0676  0.1646
12091TIP3    H257765   0.549   6.474   5.131  0.0163  0.3394  0.7946
12092TIP3   OH257766   4.123   2.522  12.120 -0.2468 -0.7253 -0.1206
12092TIP3    H157767   4.076   2.454  12.169  0.1594 -2.1541 -1.6346
12092TIP3    H257768   4.213   2.492  12.118  0.1008  0.2818 -0.1619
12093TIP3   OH257769   3.282   1.539  14.760  0.0761  0.8140  0.5635
12093TIP3    H157770   3.242   1.466  14.713 -0.1916  0.1534  1.7655
12093TIP3    H257771   3.210   1.601  14.774  0.6089  2.0923 -1.7914
12094TIP3   OH257772   4.784   4.107   0.772 -0.2879 -0.3147  0.4864
12094TIP3    H157773   4.715   4.167   0.744 -0.1556 -0.7694 -0.8848
12094TIP3    H257774   4.854   4.119   0.708 -0.8053 -2.9040 -0.6969
12095TIP3   OH257775   1.093   1.220   0.223 -0.3970  0.6628 -0.1909
12095TIP3    H157776   1.001   1.199   0.212 -0.0799 -0.5151 -0.7131
12095TIP3    H257777   1.139   1.161   0.164  0.8937 -0.8649  2.1601
12096TIP3   OH257778   5.123   1.326   5.966  0.4724 -0.7201 -1.0734
12096TIP3    H157779   5.122   1.234   5.989  0.9870 -0.7491 -1.1707
12096TIP3    H257780   5.100   1.372   6.047  2.4656 -0.8047 -0.4092
12097TIP3   OH257781   2.576   2.589   1.147 -0.1139 -0.3725 -0.4965
12097TIP3    H157782   2.584   2.673   1.193  0.9888 -0.7243 -0.0221
12097TIP3    H257783   2.558   2.525   1.216  2.6808 -1.0933 -0.3204
12098TIP3   OH257784   2.471   5.986   3.106  0.3700  0.5024 -0.4811
12098TIP3    H157785   2.395   5.928   3.112  0.7062 -0.2553 -2.5500
12098TIP3    H257786   2.542   5.930   3.075  2.2251  0.8911  2.6454
12099TIP3   OH257787   1.927   1.014   3.748 -0.0591 -0.1251 -0.2207
12099TIP3    H157788   1.958   1.103   3.762 -0.9572  0.2211 -0.3482
12099TIP3    H257789   1.988   0.976   3.685  0.3914  0.3618 -0.0756
12100TIP3   OH257790   0.896   3.621  12.467  0.1643 -0.2913 -0.0409
12100TIP3    H157791   0.892   3.525  12.470 -2.3274 -0.2426 -0.1186
12100TIP3    H257792   0.838   3.650  12.537  0.9982  1.1868  0.0760
12101TIP3   OH257793   6.247   2.987   1.615  0.2463 -0.0667  0.0517
12101TIP3    H157794   6.238   3.064   1.671 -1.5028 -0.5630  0.5032
12101TIP3    H257795   6.180   2.998   1.548  0.9653 -0.4919 -0.7649
12102TIP3   OH257796   3.781   0.166   6.114  0.3858 -0.0129 -0.1575
12102TIP3    H157797   3.728   0.245   6.124  0.2597 -0.0630 -0.4172
12102TIP3    H257798   3.855   0.179   6.173  0.3600  0.2949 -0.1915
12103TIP3   OH257799   2.287   2.204   5.818  0.1507 -0.7561 -0.0166
12103TIP3    H157800   2.340   2.235   5.891  3.0251 -0.8601 -1.8835
12103TIP3    H257801   2.321   2.117   5.799 -0.1472 -0.5170 -1.7989
12104TIP3   OH257802   5.335   0.653  11.944  0.0591 -0.6856 -0.0633
12104TIP3    H157803   5.326   0.747  11.929  1.6821 -0.4202  0.4625
12104TIP3    H257804   5.250   0.617  11.919 -0.5700  0.9025 -0.3467
12105TIP3   OH257805   4.293   0.031   4.912  0.8958  0.1578  0.2749
12105TIP3    H157806   4.279  -0.040   4.975 -0.2959 -0.9694 -1.1451
12105TIP3    H257807   4.386   0.053   4.920  1.1709 -1.1894  1.1508
12106TIP3   OH257808   0.203   1.862   2.770  0.0408 -0.3045 -0.1281
12106TIP3    H157809   0.125   1.910   2.741  0.8873  0.4522 -1.2154
12106TIP3    H257810   0.175   1.819   2.851 -1.4484  0.1096 -0.3830
12107TIP3   OH257811   2.699   5.534  15.723 -0.2891 -0.3803  0.3670
12107TIP3    H157812   2.744   5.618  15.729 -1.2597  0.2031 -0.3052
12107TIP3    H257813   2.719   5.502  15.635 -2.5751  0.7424 -0.6520
12108TIP3   OH257814   0.138   4.833  17.190 -0.0724  0.2080  0.2527
12108TIP3    H157815   0.184   4.774  17.250 -0.6583  0.3769  0.8869
12108TIP3    H257816   0.196   4.842  17.115 -0.3269 -1.8581 -0.2479
12109TIP3   OH257817   2.706   2.108   3.074  0.5360  0.0445  0.5031
12109TIP3    H157818   2.689   2.041   3.007 -0.1673 -0.2314  0.9527
12109TIP3    H257819   2.761   2.063   3.138 -0.9271 -0.5088  1.4286
12110TIP3   OH257820   6.434   2.285   4.715  0.5126 -0.3617 -0.3708
12110TIP3    H157821   6.350   2.245   4.690  0.4715 -0.3222 -0.2983
12110TIP3    H257822   6.454   2.246   4.800 -1.2515  2.2691  1.4005
12111TIP3   OH257823   4.227   6.123  16.518 -0.4095  0.3577  0.7531
12111TIP3    H157824   4.304   6.122  16.461 -1.9124 -0.8378 -1.3398
12111TIP3    H257825   4.203   6.216  16.523 -0.3129  0.4793 -0.6668
12112TIP3   OH257826   6.307   6.063   1.376  0.0996  0.3255 -0.0750
12112TIP3    H157827   6.249   6.103   1.441 -2.0850  0.4847 -1.9608
12112TIP3    H257828   6.335   5.981   1.416 -0.5267  0.7892  1.3810
12113TIP3   OH257829   5.685   5.003   6.347 -0.0066 -0.4068 -0.0293
12113TIP3    H157830   5.758   4.943   6.361  0.0810 -0.0635  1.1146
12113TIP3    H257831   5.623   4.953   6.295  0.8976 -0.8170 -0.7451
12114TIP3   OH257832   2.615   6.387  16.912 -0.0149 -0.7879 -0.6305
12114TIP3    H157833   2.528   6.425  16.921  0.6054  0.6619 -0.3921
12114TIP3    H257834   2.647   6.421  16.828  0.2800 -1.3994 -0.7735
12115TIP3   OH257835   3.915   0.990   0.813  0.4681 -0.7393 -0.3011
12115TIP3    H157836   3.828   0.994   0.853 -0.0082 -2.4098 -1.0649
12115TIP3    H257837   3.897   0.987   0.719  1.3736 -0.8765 -0.4740
12116TIP3   OH257838   1.360   1.724   0.663 -0.2868  0.4212 -0.0434
12116TIP3    H157839   1.381   1.782   0.736 -0.6903  0.5425 -0.0218
12116TIP3    H257840   1.390   1.772   0.585  0.9209 -0.0677  0.0889
12117TIP3   OH257841   4.151   4.303   0.186 -0.1170  0.1741  0.1499
12117TIP3    H157842   4.059   4.311   0.213 -0.8449  0.3840 -2.1929
12117TIP3    H257843   4.148   4.307   0.091  2.3920  0.6200  0.0396
12118TIP3   OH257844   5.576   5.597   0.961 -0.1445  0.1794 -0.4387
12118TIP3    H157845   5.628   5.574   0.885  0.1180  2.0917 -0.8641
12118TIP3    H257846   5.505   5.533   0.961  0.3457 -0.3930 -1.7660
12119TIP3   OH257847   5.772   4.095   0.613 -0.1946  0.0080  0.0104
12119TIP3    H157848   5.724   4.012   0.621  0.1759 -0.3362 -1.0871
12119TIP3    H257849   5.767   4.134   0.700 -1.2357 -0.6940  0.2946
12120TIP3   OH257850   3.052   3.693  14.826 -0.9015  0.3613  0.2743
12120TIP3    H157851   3.112   3.638  14.876 -1.4010  0.2697  0.7860
12120TIP3    H257852   3.066   3.666  14.735 -0.0815  0.4367  0.3713
12121TIP3   OH257853   6.514   5.512   0.816  0.1965 -1.0002 -0.1332
12121TIP3    H157854   6.545   5.563   0.890 -0.0394 -1.2359  0.1327
12121TIP3    H257855   6.459   5.444   0.855 -3.0842  1.0975 -0.7059
12122TIP3   OH257856   4.497   3.267   4.026  0.0817 -0.0734 -0.5038
12122TIP3    H157857   4.478   3.320   3.948  1.8543  1.4178 -0.0143
12122TIP3    H257858   4.592   3.253   4.023 -0.0811 -1.5463  0.4440
12123TIP3   OH257859   1.086   3.928   6.125  0.1360  0.6015 -0.3145
12123TIP3    H157860   1.128   3.913   6.210 -0.2164  0.7231 -0.1180
12123TIP3    H257861   1.145   3.989   6.080  1.2983 -0.9144 -0.9120
12124TIP3   OH257862   3.340   5.638   1.663  0.3221  0.0945  0.2178
12124TIP3    H157863   3.413   5.644   1.725  1.1082  0.2938 -0.6931
12124TIP3    H257864   3.273   5.589   1.709  1.2703 -0.6384  0.8716
12125TIP3   OH257865   3.813   6.066   0.416 -0.4078 -0.0154 -0.3729
12125TIP3    H157866   3.741   6.082   0.355 -0.4621 -0.2722 -0.3785
12125TIP3    H257867   3.812   5.971   0.429  0.2651 -0.0889 -0.7895
12126TIP3   OH257868   6.095   6.637   2.756 -0.2186 -0.0826  0.2486
12126TIP3    H157869   6.103   6.599   2.669 -0.4834  1.2357 -0.3779
12126TIP3    H257870   6.181   6.626   2.795  0.0550 -0.2204 -0.3791
12127TIP3   OH257871   0.144   4.940  15.415 -0.6002 -0.1460 -0.2706
12127TIP3    H157872   0.050   4.926  15.421 -0.6068  0.0028 -0.0317
12127TIP3    H257873   0.153   5.028  15.376 -0.5666  0.4256  0.9833
12128TIP3   OH257874   6.317   6.744  15.039 -0.0665  0.4285 -0.0540
12128TIP3    H157875   6.314   6.839  15.043 -0.2951  0.3800  1.7549
12128TIP3    H257876   6.228   6.718  15.014  0.6384  0.7047 -3.3092
12129TIP3   OH257877   4.998   6.097   2.219  0.4475  0.1156  0.0721
12129TIP3    H157878   4.917   6.049   2.232 -0.2643  1.3277  0.2247
12129TIP3    H257879   5.021   6.131   2.306  0.7578  0.3429 -0.0942
12130TIP3   OH257880   0.164   1.361  11.377  0.1031  0.3346 -0.5966
12130TIP3    H157881   0.111   1.430  11.336 -1.0012  0.8396  1.5355
12130TIP3    H257882   0.201   1.403  11.455  0.6241 -1.0796 -0.0617
12131TIP3   OH257883   5.311   6.273  16.602  0.3121  0.2223 -0.0752
12131TIP3    H157884   5.231   6.300  16.648 -0.8075  0.7362 -2.1849
12131TIP3    H257885   5.280   6.210  16.537  1.5951  0.5661 -1.0482
12132TIP3   OH257886   1.322   2.882   6.486  0.5878  0.0025  0.1068
12132TIP3    H157887   1.262   2.888   6.412  2.1094  0.3846 -1.1487
12132TIP3    H257888   1.406   2.912   6.452  1.3890  0.0292  1.9552
12133TIP3   OH257889   6.247   5.494   0.273  0.5245 -0.2692 -0.2601
12133TIP3    H157890   6.298   5.466   0.348 -1.2333  0.9479  1.5191
12133TIP3    H257891   6.248   5.590   0.277 -1.7143 -0.1914 -0.2111
12134TIP3   OH257892   4.017   5.578  15.357 -0.0484 -0.0591  0.2820
12134TIP3    H157893   4.075   5.511  15.322  1.1997  0.0818  1.9735
12134TIP3    H257894   4.015   5.646  15.290  1.8540 -0.0229  0.2186
12135TIP3   OH257895   3.687   2.269   4.942 -0.0276  0.5472 -0.0472
12135TIP3    H157896   3.668   2.359   4.967 -0.1171 -0.1788  2.7797
12135TIP3    H257897   3.782   2.261   4.950 -0.2691 -0.5208  3.6498
12136TIP3   OH257898   0.008   0.783   1.596 -0.3580 -0.0580  0.0227
12136TIP3    H157899  -0.058   0.825   1.650 -0.3017 -1.5256  1.2923
12136TIP3    H257900   0.091   0.816   1.628 -0.3496 -0.5076  0.4705
12137TIP3   OH257901   2.066   1.066  16.434  0.7906  0.4969  0.5465
12137TIP3    H157902   2.084   1.060  16.528 -3.5153 -1.0067  1.5059
12137TIP3    H257903   1.977   1.099  16.429  0.3348 -0.8890 -2.9607
12138TIP3   OH257904   3.743   0.774  11.539  0.2024 -0.3022 -0.5967
12138TIP3    H157905   3.691   0.852  11.520  0.2286 -0.5061 -1.5534
12138TIP3    H257906   3.705   0.706  11.483  0.4092 -0.8831 -0.0335
12139TIP3   OH257907   4.719   4.089  10.713 -0.1178  0.4297  0.2531
12139TIP3    H157908   4.776   4.056  10.643  0.1275  1.3680 -0.0081
12139TIP3    H257909   4.777   4.097  10.789  0.0548  1.1836  0.0454
12140TIP3   OH257910   5.042   3.944   0.174  0.1280  0.3462 -0.1268
12140TIP3    H157911   5.108   3.909   0.233  2.4114  3.2391 -0.7432
12140TIP3    H257912   4.987   3.999   0.230  1.6395  2.2370 -0.4232
12141TIP3   OH257913   0.629   1.685  11.580  0.2216  0.0002  0.0032
12141TIP3    H157914   0.592   1.644  11.502  3.0516 -0.7459 -1.0767
12141TIP3    H257915   0.676   1.762  11.547  2.3489 -0.9065  0.7150
12142TIP3   OH257916   0.861   2.009   5.534 -0.0847  0.7085 -0.2752
12142TIP3    H157917   0.843   1.935   5.593 -1.1988  0.5592 -0.7755
12142TIP3    H257918   0.863   2.085   5.591 -0.6348  0.4966  0.0413
12143TIP3   OH257919   4.867   5.145   3.337  0.2462 -0.3691  0.0963
12143TIP3    H157920   4.909   5.105   3.413  2.2617  0.3045 -0.5805
12143TIP3    H257921   4.842   5.233   3.367  1.2550 -0.0166 -0.0375
12144TIP3   OH257922   6.165   5.683   2.378 -0.1878  0.0292 -0.4503
12144TIP3    H157923   6.203   5.760   2.420  1.1700  1.2492 -3.6058
12144TIP3    H257924   6.240   5.636   2.343 -1.2019 -1.0852 -1.1944
12145TIP3   OH257925   1.219   1.916  16.620 -0.4412  0.3002  0.1853
12145TIP3    H157926   1.303   1.945  16.585 -0.7189  1.8598  0.7177
12145TIP3    H257927   1.242   1.848  16.683  0.3962  0.4381  0.0414
12146TIP3   OH257928   1.535   1.419  15.941  0.1194 -0.0404 -0.1796
12146TIP3    H157929   1.610   1.395  15.886  0.4226  0.2935  0.0820
12146TIP3    H257930   1.526   1.347  16.002 -1.1728 -1.1595 -1.6122
12147TIP3   OH257931   1.505   6.464   1.019  0.0784  0.0206 -0.1412
12147TIP3    H157932   1.459   6.430   0.943 -0.3206  1.5641 -0.6273
12147TIP3    H257933   1.585   6.502   0.984 -0.2323  0.9735  0.1663
12148TIP3   OH257934   0.213   0.673   1.012 -0.1846  0.3831 -0.2634
12148TIP3    H157935   0.203   0.761   0.976  2.6334  1.3356  0.9948
12148TIP3    H257936   0.217   0.686   1.107  1.1135 -0.9535 -0.0966
12149TIP3   OH257937   2.669   1.460  15.291  0.0150  0.3199 -0.0673
12149TIP3    H157938   2.589   1.497  15.254 -0.9961  0.2102  1.8646
12149TIP3    H257939   2.740   1.508  15.248 -0.7745 -1.8536 -4.3793
12150TIP3   OH257940   2.184   2.051  12.909 -0.3816  0.1018 -0.1064
12150TIP3    H157941   2.222   1.963  12.905 -2.1590 -0.6606 -1.3843
12150TIP3    H257942   2.250   2.103  12.956 -0.6763 -2.6169  3.8248
12151TIP3   OH257943   4.930   4.399  11.922  0.9767  0.1525 -0.5692
12151TIP3    H157944   5.023   4.417  11.914  1.0402  0.5107  0.7837
12151TIP3    H257945   4.925   4.307  11.950  0.8813 -0.0784 -1.3089
12152TIP3   OH257946   2.687   2.679  14.815 -0.0269  0.0637  0.2939
12152TIP3    H157947   2.738   2.653  14.738 -0.4404 -0.3033  0.1462
12152TIP3    H257948   2.754   2.699  14.881  0.3597  1.3581 -0.4603
12153TIP3   OH257949   2.527   4.779   5.097 -0.4060  0.6970 -0.1209
12153TIP3    H157950   2.454   4.720   5.077  0.2933 -0.2746  0.1258
12153TIP3    H257951   2.503   4.819   5.180  0.4522 -1.5463  1.3003
12154TIP3   OH257952   3.325   3.669  11.822 -0.3824  0.2287 -0.3554
12154TIP3    H157953   3.318   3.674  11.727 -2.6235 -0.4418 -0.2839
12154TIP3    H257954   3.293   3.754  11.853 -1.8160 -0.3462 -0.1804
12155TIP3   OH257955   0.076   6.773  14.820 -0.3025  0.5043 -0.0603
12155TIP3    H157956   0.114   6.716  14.753  0.1824  2.0404 -1.1278
12155TIP3    H257957  -0.011   6.735  14.837 -0.1726 -0.2819 -1.0727
12156TIP3   OH257958   3.428   2.318  12.763  0.3294 -0.6220 -0.3047
12156TIP3    H157959   3.508   2.365  12.740  0.5643 -0.6402  0.4736
12156TIP3    H257960   3.365   2.387  12.787 -0.2338 -0.5345 -1.9025
12157TIP3   OH257961   1.785   6.617   0.587  0.1517  0.5230 -0.5882
12157TIP3    H157962   1.832   6.534   0.579  2.0745  1.2187  1.9716
12157TIP3    H257963   1.810   6.667   0.509  1.3554 -0.2463 -0.7184
12158TIP3   OH257964   4.517   1.822   4.579  0.3171  0.3043  0.1802
12158TIP3    H157965   4.554   1.736   4.562 -0.6851 -0.4278  1.5330
12158TIP3    H257966   4.589   1.872   4.619  1.5566  0.8620 -2.5501
12159TIP3   OH257967   1.197   4.934  16.766  0.1014 -1.2393 -0.0424
12159TIP3    H157968   1.245   4.994  16.823 -0.8872 -0.7203  0.2606
12159TIP3    H257969   1.255   4.921  16.691  0.1334  0.5114 -0.3646
12160TIP3   OH257970   6.347   1.267  15.345 -0.3283 -0.2067  0.4328
12160TIP3    H157971   6.283   1.207  15.385  0.1692  1.0101  3.3169
12160TIP3    H257972   6.413   1.280  15.413 -0.3272  3.4752 -0.0873
12161TIP3   OH257973   5.853   0.662   5.535  0.3474  0.7161 -0.2193
12161TIP3    H157974   5.924   0.602   5.557  0.9862  1.8540  0.9764
12161TIP3    H257975   5.836   0.646   5.443  1.6250 -0.1408 -0.3333
12162TIP3   OH257976   0.199   1.015  16.770  0.2849 -0.0247  0.4111
12162TIP3    H157977   0.278   1.060  16.799 -0.4234  1.1560  0.6121
12162TIP3    H257978   0.134   1.036  16.838 -0.5670  0.2208 -0.4460
12163TIP3   OH257979   1.283   3.560  14.341 -0.8902  0.5550 -0.0359
12163TIP3    H157980   1.371   3.575  14.307  0.8421 -1.7322  2.9095
12163TIP3    H257981   1.244   3.647  14.347  1.0252  1.6017 -1.6889
12164TIP3   OH257982   5.111   3.867  10.901  0.1424  0.5952 -0.2297
12164TIP3    H157983   5.204   3.883  10.913  0.0995  0.3235  0.5458
12164TIP3    H257984   5.067   3.932  10.956 -0.0357 -1.5588  2.3949
12165TIP3   OH257985   3.467   1.367  11.591 -0.1015  0.1579 -0.0274
12165TIP3    H157986   3.528   1.294  11.580  0.8491  1.1585 -1.7992
12165TIP3    H257987   3.417   1.369  11.510  0.1235  1.6703 -0.1506
12166TIP3   OH257988   4.012   5.683  13.132  0.0359  0.2561 -0.0032
12166TIP3    H157989   3.940   5.621  13.143 -0.0366  0.2762 -0.3589
12166TIP3    H257990   4.085   5.644  13.181  0.4768 -0.9208 -1.5021
12167TIP3   OH257991   4.303   1.437   5.296  0.5646 -0.5629  0.1857
12167TIP3    H157992   4.288   1.473   5.208  0.7119 -1.1459 -0.0804
12167TIP3    H257993   4.229   1.468   5.347  0.1917 -0.6718 -0.2813
12168TIP3   OH257994   5.521   2.401   5.920  0.2635 -0.2699 -0.0109
12168TIP3    H157995   5.478   2.402   6.005  0.1168 -0.1158 -0.0857
12168TIP3    H257996   5.491   2.320   5.879  0.9699 -0.7508  0.4034
12169TIP3   OH257997   6.009   4.783  11.490  0.3780 -0.0989 -0.0396
12169TIP3    H157998   5.945   4.713  11.499  0.1390  0.0476 -0.5549
12169TIP3    H257999   5.983   4.829  11.410  1.4655 -0.3830 -0.5630
12170TIP3   OH258000   0.145   5.996  17.036  0.2967  0.1615 -0.0752
12170TIP3    H158001   0.212   6.051  17.076  1.7888 -1.9888  0.5222
12170TIP3    H258002   0.085   5.975  17.107  0.1487  0.3636 -0.1366
12171TIP3   OH258003   1.373   1.024   3.440 -0.2944 -0.2463 -0.1234
12171TIP3    H158004   1.376   0.945   3.495 -1.4315  1.6802  2.9714
12171TIP3    H258005   1.280   1.038   3.424 -0.1383  0.6795 -0.2540
12172TIP3   OH258006   6.457   2.636   3.666  0.4427  0.8938 -0.7751
12172TIP3    H158007   6.428   2.633   3.575 -0.6440 -2.8076 -0.4594
12172TIP3    H258008   6.403   2.704   3.706 -0.6137  1.0707 -2.3988
12173TIP3   OH258009   5.046   6.498  16.520 -0.4234 -0.0766 -0.2010
12173TIP3    H158010   5.031   6.463  16.432  0.4144  0.7898 -0.6995
12173TIP3    H258011   5.113   6.566  16.508  0.4191 -0.6097  1.2382
12174TIP3   OH258012   2.850   6.170   0.358 -0.2297 -0.0143 -0.2952
12174TIP3    H158013   2.870   6.208   0.273 -2.6648  0.5553 -0.6776
12174TIP3    H258014   2.928   6.188   0.411  0.9666  0.4147 -2.1184
12175TIP3   OH258015   0.404   4.367   2.623 -0.3184  0.1148  0.1339
12175TIP3    H158016   0.467   4.361   2.551  0.1419 -2.4028  0.6695
12175TIP3    H258017   0.321   4.338   2.585 -0.7085  1.3609 -0.0165
12176TIP3   OH258018   5.975   4.242   0.111 -0.4034 -0.0259 -0.1708
12176TIP3    H158019   5.908   4.180   0.082 -1.2773 -0.1259  1.8636
12176TIP3    H258020   5.987   4.222   0.204  3.1497 -0.5930 -0.6294
12177TIP3   OH258021   3.318   2.250   5.269  0.5171 -0.0265 -0.3632
12177TIP3    H158022   3.260   2.236   5.345  1.7122  2.7947  1.2584
12177TIP3    H258023   3.404   2.221   5.299  1.4260  2.9732  0.2863
12178TIP3   OH258024   3.091   4.147  17.015 -0.5514  0.8004  0.3800
12178TIP3    H158025   3.040   4.228  17.025 -1.1621  0.1465  4.1295
12178TIP3    H258026   3.025   4.077  17.015  0.1102  0.1507  1.1133
12179TIP3   OH258027   2.541   3.846  17.034  0.3155  0.1163  0.6734
12179TIP3    H158028   2.498   3.818  16.953 -0.7688  1.1036  0.8795
12179TIP3    H258029   2.486   3.811  17.104 -1.7176  3.4585  0.9510
12180TIP3   OH258030   5.052   6.597   3.863  0.1819  0.1958  0.1208
12180TIP3    H158031   5.017   6.515   3.827 -0.6606  0.3066  0.6646
12180TIP3    H258032   5.145   6.579   3.875 -0.0390 -0.7963  0.5090
12181TIP3   OH258033   1.238   5.960   2.278  0.6443 -0.0199  0.2743
12181TIP3    H158034   1.284   5.916   2.206  1.3071 -1.5484  1.5534
12181TIP3    H258035   1.306   6.010   2.322  0.0939  1.5119 -0.5505
12182TIP3   OH258036   2.841   5.524  14.783 -0.1594 -0.5494  0.0924
12182TIP3    H158037   2.934   5.504  14.772 -0.1014 -0.9623  1.2119
12182TIP3    H258038   2.798   5.438  14.781 -0.4495 -0.4044  0.1222
12183TIP3   OH258039   5.610   4.585   4.872 -0.2187 -0.6328 -0.0902
12183TIP3    H158040   5.526   4.613   4.910 -1.5863 -1.6744 -2.1407
12183TIP3    H258041   5.630   4.503   4.917  1.0550  0.8143  2.1531
12184TIP3   OH258042   0.035   0.190   2.525  0.2963  0.0657  0.4830
12184TIP3    H158043   0.029   0.095   2.528 -2.2677  0.1558  1.9696
12184TIP3    H258044  -0.053   0.219   2.499 -0.1944  2.0180  3.7078
12185TIP3   OH258045   2.121   0.084  17.041  0.1919 -0.1248 -0.0987
12185TIP3    H158046   2.139   0.172  17.075 -0.8974  0.1404 -0.1582
12185TIP3    H258047   2.175   0.026  17.095  0.4364  0.5278  0.3745
12186TIP3   OH258048   5.608   2.596   5.746 -0.2184  0.1904 -0.1177
12186TIP3    H158049   5.576   2.533   5.811 -0.6681  0.3825 -0.1464
12186TIP3    H258050   5.701   2.605   5.765 -0.4495  0.6718  0.8688
12187TIP3   OH258051   4.072   2.162  11.537 -0.3119  0.0321  0.9623
12187TIP3    H158052   4.147   2.198  11.489 -0.3770  0.1426  0.9438
12187TIP3    H258053   3.996   2.182  11.482 -0.0755 -2.6893 -0.5174
12188TIP3   OH258054   3.849   4.572  13.240 -0.1362  0.0268  0.0723
12188TIP3    H158055   3.787   4.503  13.216 -0.5313  0.9432 -1.7263
12188TIP3    H258056   3.898   4.536  13.314  0.5039 -2.6994 -1.5208
12189TIP3   OH258057   6.336   2.202   2.599  0.1318  0.9720 -0.0426
12189TIP3    H158058   6.264   2.187   2.538 -0.2829 -0.8453  0.8113
12189TIP3    H258059   6.301   2.266   2.662  0.3358  2.3445 -1.2608
12190TIP3   OH258060   1.988   2.924   0.864 -0.3374  0.0742 -0.4448
12190TIP3    H158061   2.078   2.910   0.895 -0.8501 -0.3933  0.8928
12190TIP3    H258062   1.975   3.018   0.869 -0.4985 -0.0102  1.0838
12191TIP3   OH258063   5.330   2.661  13.750 -0.4220 -0.3899 -0.0718
12191TIP3    H158064   5.261   2.661  13.817 -0.1754  0.5240  0.1975
12191TIP3    H258065   5.292   2.708  13.676  0.5167  1.7733  0.7562
12192TIP3   OH258066   3.753   3.165  16.433 -0.1644 -0.0818 -0.1055
12192TIP3    H158067   3.815   3.143  16.502 -1.6722 -2.8897  0.5276
12192TIP3    H258068   3.790   3.242  16.390  1.0060  1.6187  3.5561
12193TIP3   OH258069   3.045   5.792   2.372 -0.0122  0.1565 -0.1202
12193TIP3    H158070   3.034   5.887   2.368  1.2327  0.3074 -0.2939
12193TIP3    H258071   3.082   5.776   2.458  1.2062 -0.0007 -0.6582
12194TIP3   OH258072   3.980   4.708  11.438  0.0534  0.1755 -0.5065
12194TIP3    H158073   4.070   4.679  11.443  0.0669  0.4411  1.7925
12194TIP3    H258074   3.981   4.796  11.477 -1.1567  0.2612 -0.6315
12195TIP3   OH258075   0.922   2.255   5.635 -0.1958  0.4518  0.0102
12195TIP3    H158076   0.857   2.304   5.585  0.6646  0.7709 -0.8211
12195TIP3    H258077   1.002   2.306   5.627  0.0595  0.3113  1.4201
12196TIP3   OH258078   0.902   0.174  15.281  0.0036 -0.0757 -0.1085
12196TIP3    H158079   0.963   0.114  15.325 -0.2354  0.6711  1.3024
12196TIP3    H258080   0.937   0.261  15.299  0.4340  0.2654 -2.2676
12197TIP3   OH258081   5.832   3.237   0.183  0.0751  0.0164  0.7700
12197TIP3    H158082   5.881   3.219   0.103  1.5864  1.4726  1.3113
12197TIP3    H258083   5.821   3.152   0.224  2.7753 -0.3253  0.9411
12198TIP3   OH258084   5.258   1.362   0.424  0.3292 -0.2287 -0.4605
12198TIP3    H158085   5.223   1.436   0.474 -1.2150 -1.3952  0.2806
12198TIP3    H258086   5.237   1.383   0.333 -2.0870 -0.6854 -0.0786
12199TIP3   OH258087   3.797   5.159  17.082  0.0881 -0.5892  0.3798
12199TIP3    H158088   3.839   5.099  17.020 -0.4185  0.3703 -0.9626
12199TIP3    H258089   3.783   5.107  17.161  0.8879 -1.8294 -0.2592
12200TIP3   OH258090   1.542   1.076   4.521 -0.1240 -0.2057 -0.0264
12200TIP3    H158091   1.569   1.133   4.449 -0.8990  0.5223  0.2386
12200TIP3    H258092   1.589   1.110   4.597 -1.9133  1.2299  0.4876
12201TIP3   OH258093   3.139   2.197  17.061 -0.5759  0.3968 -0.6014
12201TIP3    H158094   3.110   2.137  17.130  0.1587  1.8054  1.0089
12201TIP3    H258095   3.143   2.283  17.104 -0.3712  1.3905 -2.4920
12202TIP3   OH258096   1.868   4.751   3.658 -0.3131 -0.3719 -0.4696
12202TIP3    H158097   1.869   4.673   3.603 -0.9758 -1.0644  0.4711
12202TIP3    H258098   1.780   4.752   3.697 -0.5684  1.2413 -1.0131
12203TIP3   OH258099   5.797   3.257  13.781  0.5018 -0.7972  0.8209
12203TIP3    H158100   5.834   3.330  13.831  0.3521 -0.6951  0.7824
12203TIP3    H258101   5.834   3.266  13.693 -0.5835  0.0407  0.4288
12204TIP3   OH258102   6.625   2.128   2.267 -0.5661  0.2006  0.2464
12204TIP3    H158103   6.549   2.175   2.302 -0.8156 -1.2660  1.7863
12204TIP3    H258104   6.698   2.157   2.321  0.1686  2.0562 -1.6048
12205TIP3   OH258105   2.124   5.309  11.891  0.3114  0.3424 -0.1474
12205TIP3    H158106   2.072   5.358  11.954  0.8946  0.9411 -0.1180
12205TIP3    H258107   2.083   5.223  11.887 -0.8848  0.9054 -0.3857
12206TIP3   OH258108   1.203   4.251  16.329  0.0842  0.4949  0.1271
12206TIP3    H158109   1.164   4.329  16.369 -0.2317  0.5331 -0.2491
12206TIP3    H258110   1.272   4.285  16.272  0.7642  0.4191  0.8931
12207TIP3   OH258111   6.243   0.432   5.225  0.2875 -0.4136  0.3073
12207TIP3    H158112   6.309   0.362   5.227  1.5692  0.7534  0.1322
12207TIP3    H258113   6.287   0.507   5.265 -0.7917  0.5223 -0.2182
12208TIP3   OH258114   0.149   0.663  11.657  0.4747  0.0123 -0.2793
12208TIP3    H158115   0.062   0.639  11.687  0.5195  0.6586  0.3963
12208TIP3    H258116   0.188   0.581  11.626  0.6564 -0.8174  1.9918
12209TIP3   OH258117   4.538   6.121  13.780 -0.1051 -0.3218  0.0447
12209TIP3    H158118   4.453   6.154  13.751 -0.7257  0.3337  2.3822
12209TIP3    H258119   4.601   6.162  13.720 -1.4180 -1.2569 -2.0751
12210TIP3   OH258120   5.704   2.684  16.284 -0.7162  0.1844  0.0601
12210TIP3    H158121   5.639   2.636  16.335 -0.1649 -0.7991 -0.1307
12210TIP3    H258122   5.788   2.654  16.320 -0.3551  1.3641  0.2465
12211TIP3   OH258123   1.399   3.967   6.134 -0.3089 -0.2617  0.1450
12211TIP3    H158124   1.374   4.060   6.135  0.9602  0.1028  0.3790
12211TIP3    H258125   1.470   3.963   6.069 -0.5632 -1.1327 -0.0835
12212TIP3   OH258126   6.535   5.460   2.766  0.2498 -0.0469 -0.1041
12212TIP3    H158127   6.474   5.398   2.725  0.8519  0.0549 -1.2034
12212TIP3    H258128   6.614   5.456   2.711  0.1955  1.9341 -0.3997
12213TIP3   OH258129   6.546   0.436  14.672 -0.2553  0.1857  0.1679
12213TIP3    H158130   6.489   0.423  14.596 -0.2339  0.4128  0.1114
12213TIP3    H258131   6.610   0.365  14.666 -0.8490 -0.3892  0.5309
12214TIP3   OH258132   2.925   3.637   0.564 -0.3220  0.3205  0.3820
12214TIP3    H158133   2.975   3.612   0.641 -0.6350  0.5439  0.6587
12214TIP3    H258134   2.941   3.731   0.554  0.1167  0.2031 -0.1200
12215TIP3   OH258135   0.334   0.353  15.187 -0.5376 -0.3474 -0.0926
12215TIP3    H158136   0.299   0.374  15.100  0.5246 -0.1250 -0.4841
12215TIP3    H258137   0.427   0.376  15.181 -0.0877 -1.8618  0.5881
12216TIP3   OH258138   3.886   3.597  16.097  0.6447 -0.2116 -0.3933
12216TIP3    H158139   3.880   3.510  16.137 -0.4684  0.4129  0.8716
12216TIP3    H258140   3.961   3.637  16.140  0.4876 -0.1576 -0.1663
12217TIP3   OH258141   2.492   3.002  11.231  0.4062  0.5264 -0.1253
12217TIP3    H158142   2.530   2.953  11.159 -0.7484 -0.3012 -0.2125
12217TIP3    H258143   2.555   2.994  11.302  1.8218  1.8254 -1.1690
12218TIP3   OH258144   2.919   5.635  15.510 -0.7964  0.1189 -0.5182
12218TIP3    H158145   2.929   5.719  15.553 -3.4656 -0.0539  0.6534
12218TIP3    H258146   2.978   5.576  15.557 -1.5299  0.5870  1.0645
12219TIP3   OH258147   2.691   1.547   4.342  0.1727 -0.1273 -0.3614
12219TIP3    H158148   2.732   1.616   4.393  1.1733 -1.2605  0.3939
12219TIP3    H258149   2.644   1.594   4.272  0.5579  1.3152  0.3188
12220TIP3   OH258150   0.012   3.862   5.480  0.1533 -0.1293  0.2710
12220TIP3    H158151  -0.084   3.856   5.488  0.2367 -0.7464  0.8319
12220TIP3    H258152   0.032   3.813   5.400  0.1767 -1.7337  1.2185
12221TIP3   OH258153   1.937   6.461   4.186  0.0174 -0.5611 -0.1860
12221TIP3    H158154   1.993   6.469   4.263  0.0243  0.0187 -0.2423
12221TIP3    H258155   1.860   6.514   4.207 -0.5581 -1.4190 -0.0733
12222TIP3   OH258156   6.230   5.122  13.337  0.6432  0.1912 -0.0408
12222TIP3    H158157   6.154   5.180  13.340  0.3586 -0.0491 -1.6548
12222TIP3    H258158   6.222   5.067  13.415 -1.4997 -0.6017 -0.7590
12223TIP3   OH258159   5.953   6.072  11.332 -0.1146  0.0547 -0.0259
12223TIP3    H158160   5.873   6.024  11.352 -0.0624 -0.2716 -0.5786
12223TIP3    H258161   5.943   6.097  11.239 -0.2710  1.3507  0.3104
12224TIP3   OH258162   4.630   6.725  16.565 -0.4010  0.0707 -0.3782
12224TIP3    H158163   4.546   6.762  16.535  0.4153  1.6235 -0.8551
12224TIP3    H258164   4.626   6.633  16.539 -1.1060  0.6039 -2.3335
12225TIP3   OH258165   6.576   1.206   1.330  0.2102 -0.0179  0.3940
12225TIP3    H158166   6.503   1.144   1.333  1.1189 -1.1816 -0.4555
12225TIP3    H258167   6.629   1.184   1.407  0.7511 -0.5799 -0.1375
12226TIP3   OH258168   2.267   3.009   3.442 -0.1637  0.6383 -0.0004
12226TIP3    H158169   2.279   2.915   3.434 -1.1339  0.6044 -1.2369
12226TIP3    H258170   2.318   3.046   3.370 -0.5028  1.0078 -0.0520
12227TIP3   OH258171   3.375   2.850   1.367 -0.6298  0.5188 -0.3544
12227TIP3    H158172   3.471   2.855   1.365 -0.5168 -0.1968  1.2063
12227TIP3    H258173   3.346   2.895   1.288  0.9684  1.5154 -0.4065
12228TIP3   OH258174   0.241   3.708   3.862 -0.0063  0.4640 -0.1898
12228TIP3    H158175   0.329   3.674   3.849  0.6064  2.2562 -1.0882
12228TIP3    H258176   0.246   3.758   3.943 -0.0384  1.0039 -0.5146
12229TIP3   OH258177   2.593   2.844   3.288 -0.1094  0.2926 -0.1299
12229TIP3    H158178   2.669   2.791   3.311  0.1297 -0.0316 -1.5240
12229TIP3    H258179   2.524   2.815   3.347 -0.3041 -2.4252 -1.5652
12230TIP3   OH258180   6.093   2.853  16.892 -0.3599  0.0182 -0.6666
12230TIP3    H158181   6.173   2.901  16.873  0.4104 -0.8265  0.3402
12230TIP3    H258182   6.030   2.920  16.917  0.4811  0.5661  0.0288
12231TIP3   OH258183   6.685   2.058   4.795 -0.3306 -0.1722 -0.1825
12231TIP3    H158184   6.644   2.022   4.716  0.4105  1.0141 -1.1441
12231TIP3    H258185   6.774   2.079   4.769 -0.4134  1.3172  0.6316
12232TIP3   OH258186   4.490   3.485  12.748 -0.1067  0.4108 -0.2704
12232TIP3    H158187   4.457   3.397  12.766  1.7347 -0.1919  0.3988
12232TIP3    H258188   4.419   3.544  12.774 -1.7860 -0.8741 -1.7308
12233TIP3   OH258189   4.079   6.173   2.725  0.2452 -0.5942  0.0430
12233TIP3    H158190   4.074   6.122   2.806  1.6940 -1.3045 -0.2796
12233TIP3    H258191   4.173   6.191   2.713 -0.1362  1.3761 -0.3495
12234TIP3   OH258192   2.476   3.924  13.934 -0.0518 -0.3067 -0.2105
12234TIP3    H158193   2.390   3.931  13.977 -0.5728 -0.8371 -1.1158
12234TIP3    H258194   2.456   3.928  13.840  0.5396 -3.2808 -0.5848
12235TIP3   OH258195   6.070   3.029  13.305  0.3650  1.0052  0.2066
12235TIP3    H158196   6.159   3.063  13.297  1.3731 -1.1782  1.1394
12235TIP3    H258197   6.076   2.964  13.375 -1.2090 -1.4221 -1.7146
12236TIP3   OH258198   6.813   4.445   1.311  0.0238 -0.3751  0.0911
12236TIP3    H158199   6.746   4.509   1.285 -0.7200 -0.8313  0.8439
12236TIP3    H258200   6.828   4.464   1.404  1.1182 -0.1300 -0.1299
12237TIP3   OH258201   1.168   5.013   6.476  0.4082  0.0610  0.0057
12237TIP3    H158202   1.250   5.034   6.432 -0.6703 -0.6424 -2.5331
12237TIP3    H258203   1.189   5.015   6.570  3.1367  0.4745 -0.5437
12238TIP3   OH258204   0.693   1.787  14.882 -0.0740  0.2008 -0.9473
12238TIP3    H158205   0.775   1.738  14.873 -0.2557 -0.0603 -1.1800
12238TIP3    H258206   0.639   1.734  14.939  0.3783  0.9710  0.2491
12239TIP3   OH258207   0.139   2.975  15.412 -0.1971  0.2251 -0.1655
12239TIP3    H158208   0.092   3.059  15.417  0.5558  0.5866  1.4132
12239TIP3    H258209   0.228   2.996  15.442 -0.4843 -1.4810  2.0513
12240TIP3   OH258210   4.291   6.069  14.416  0.1351 -0.0753  0.3464
12240TIP3    H158211   4.201   6.038  14.406  1.1689 -3.8918  1.3537
12240TIP3    H258212   4.287   6.131  14.489 -1.7701  0.6233 -0.2816
12241TIP3   OH258213   3.486   4.361  14.219  0.3042  0.2892  0.4597
12241TIP3    H158214   3.461   4.424  14.152 -1.7986 -0.2174  0.6892
12241TIP3    H258215   3.543   4.298  14.174  0.1872  0.8237 -0.4444
12242TIP3   OH258216   0.618   1.049   5.206  0.3459  1.0415  0.2063
12242TIP3    H158217   0.611   0.959   5.238 -0.5714  0.2801 -1.9588
12242TIP3    H258218   0.699   1.082   5.246 -0.7528  0.3124  3.3678
12243TIP3   OH258219   0.603   6.813  15.066  0.2356 -0.1802  0.5456
12243TIP3    H158220   0.577   6.899  15.034  1.7394 -0.1740 -0.8491
12243TIP3    H258221   0.524   6.759  15.057 -0.4302  0.7888  0.4108
12244TIP3   OH258222   3.618   1.497   0.901  0.2566 -0.4732 -0.5190
12244TIP3    H158223   3.538   1.493   0.850 -0.0594  1.3851 -0.2315
12244TIP3    H258224   3.687   1.471   0.841 -0.5553 -2.4087 -0.6837
12245TIP3   OH258225   3.781   3.400   3.927  0.0074  0.3075  0.3566
12245TIP3    H158226   3.693   3.409   3.964 -0.9478 -2.6133 -0.8606
12245TIP3    H258227   3.771   3.425   3.835  0.1103 -1.0626 -0.0586
12246TIP3   OH258228   2.557   3.660   5.094 -0.0766  0.2620  0.2574
12246TIP3    H158229   2.520   3.575   5.117 -1.9704  0.0568 -2.9681
12246TIP3    H258230   2.480   3.716   5.082  0.8078  1.0548 -2.3759
12247TIP3   OH258231   2.785   6.190  13.847 -0.6815 -0.1801  0.7112
12247TIP3    H158232   2.747   6.202  13.934 -1.6572 -3.0335  0.7635
12247TIP3    H258233   2.723   6.231  13.787 -1.1057 -0.1052  1.2008
12248TIP3   OH258234   6.358   1.500  14.790 -0.0129 -0.2388  0.3811
12248TIP3    H158235   6.432   1.452  14.828  0.1223  0.1788  0.6541
12248TIP3    H258236   6.326   1.444  14.719  0.1738 -0.7039  0.6670
12249TIP3   OH258237   5.568   0.959   1.504  0.6516  0.0247 -0.3617
12249TIP3    H158238   5.637   0.928   1.564  0.6867  0.2557 -0.2827
12249TIP3    H258239   5.597   0.930   1.418  1.0601  0.4803 -0.3823
12250TIP3   OH258240   0.279   3.378   2.486  0.0427  0.5433 -0.2713
12250TIP3    H158241   0.340   3.352   2.554 -0.0520  1.5158  0.2040
12250TIP3    H258242   0.194   3.382   2.530 -0.1715  0.3080 -0.6564
12251TIP3   OH258243   1.176   3.173  13.410  0.4002 -0.1002 -0.0934
12251TIP3    H158244   1.227   3.210  13.338  2.3710  1.7927  2.0465
12251TIP3    H258245   1.210   3.084  13.421  0.5108 -0.1859 -1.0816
12252TIP3   OH258246   2.201   2.947  14.208  0.1686 -0.5194  0.4058
12252TIP3    H158247   2.218   2.959  14.114 -1.0059  0.3245  0.2903
12252TIP3    H258248   2.172   2.856  14.215 -2.4709  0.1769 -0.5005
12253TIP3   OH258249   4.305   0.232   6.133 -0.0136 -0.5219 -0.3031
12253TIP3    H158250   4.378   0.171   6.142  0.5572  0.3340  1.2732
12253TIP3    H258251   4.237   0.182   6.087  1.1138 -1.7146 -0.7276
12254TIP3   OH258252   6.317   0.442   2.947  0.1928  0.2017 -0.4294
12254TIP3    H158253   6.322   0.375   2.878 -0.2018 -0.6176  0.3149
12254TIP3    H258254   6.231   0.428   2.987  1.1564 -0.6111  1.4912
12255TIP3   OH258255   0.218   5.435  16.652  0.5123 -0.1103  0.2901
12255TIP3    H158256   0.216   5.502  16.720 -1.5065  0.1322  0.0613
12255TIP3    H258257   0.175   5.359  16.691  3.2071 -1.5300  0.7238
12256TIP3   OH258258   5.327   0.309  14.602 -0.7476  0.0286  0.3878
12256TIP3    H158259   5.252   0.252  14.592 -0.3728 -0.3231 -0.5470
12256TIP3    H258260   5.295   0.396  14.577 -1.4305  0.3576  2.2210
12257TIP3   OH258261   0.512   4.874   5.173  0.1010  0.0383 -0.3046
12257TIP3    H158262   0.446   4.890   5.240 -0.0268  3.1506 -1.0177
12257TIP3    H258263   0.465   4.828   5.104 -1.5129  2.2979 -0.8536
12258TIP3   OH258264   0.955   3.689   1.664 -0.2963 -0.2333 -0.3265
12258TIP3    H158265   0.918   3.761   1.613  2.3470  2.3062  1.0177
12258TIP3    H258266   1.023   3.652   1.609  1.5029  1.4881  0.6191
12259TIP3   OH258267   2.848   1.571  13.584  0.1806  0.2960 -0.3437
12259TIP3    H158268   2.809   1.611  13.507  0.3026  1.1375  0.0190
12259TIP3    H258269   2.909   1.638  13.617  1.3605 -0.6854 -0.4709
12260TIP3   OH258270   4.181   4.846  16.170 -0.6897  0.0619  0.3064
12260TIP3    H158271   4.190   4.918  16.107 -0.2036  0.4027  0.7522
12260TIP3    H258272   4.140   4.887  16.247  0.5468  0.1137  0.9591
12261TIP3   OH258273   6.711   4.439  15.223  0.2278 -0.2792  0.0154
12261TIP3    H158274   6.792   4.475  15.258 -0.2914  1.6055 -0.5440
12261TIP3    H258275   6.722   4.445  15.128 -1.2060  1.7123 -0.0832
12262TIP3   OH258276   6.224   3.082   6.036  0.4266 -0.4349  0.5573
12262TIP3    H158277   6.218   3.017   5.966  0.7774 -0.1682  0.2728
12262TIP3    H258278   6.242   3.165   5.990  0.6526 -0.2578  0.9595
12263TIP3   OH258279   4.185   6.155  11.681  0.4750  0.2299  0.3644
12263TIP3    H158280   4.181   6.234  11.734  0.6365 -1.1564  2.5853
12263TIP3    H258281   4.206   6.085  11.743  1.8440 -1.3589 -1.7175
12264TIP3   OH258282   5.684   4.906   0.105 -0.9403  0.4725 -0.2646
12264TIP3    H158283   5.776   4.878   0.101 -1.5510 -1.8501  0.4313
12264TIP3    H258284   5.657   4.913   0.014 -0.3932 -0.0607 -0.4767
12265TIP3   OH258285   5.689   2.280  13.188 -0.1320 -0.1210 -0.3556
12265TIP3    H158286   5.723   2.193  13.169 -0.6109 -0.2042 -0.8450
12265TIP3    H258287   5.748   2.339  13.141 -0.7939 -0.2801 -1.4139
12266TIP3   OH258288   2.037   0.222   3.081  0.3720 -0.1076  0.4604
12266TIP3    H158289   2.123   0.257   3.058  0.6229  0.3133  1.9318
12266TIP3    H258290   2.021   0.252   3.171 -1.0840 -0.6140  0.4131
12267TIP3   OH258291   5.507   2.436  12.534  0.0297 -0.0787  0.3781
12267TIP3    H158292   5.561   2.370  12.491  2.5554  1.2292  1.3500
12267TIP3    H258293   5.428   2.442  12.480 -0.1721 -3.5942  0.0599
12268TIP3   OH258294   3.116   4.095   0.222  0.4220 -0.0102  0.6236
12268TIP3    H158295   3.045   4.138   0.269  0.1242  0.7353 -0.4557
12268TIP3    H258296   3.195   4.121   0.268  0.1909  1.2001  0.3641
12269TIP3   OH258297   3.841   0.609   4.187  0.0724  0.0526 -0.7183
12269TIP3    H158298   3.917   0.667   4.187  0.0552  0.0820 -1.6075
12269TIP3    H258299   3.874   0.528   4.225 -0.3459  1.1587  2.2945
12270TIP3   OH258300   1.646   4.053   4.404  0.3064 -0.2084  0.0627
12270TIP3    H158301   1.606   3.994   4.340  0.3804 -1.4624  1.1217
12270TIP3    H258302   1.722   4.005   4.436  1.0607  0.9811  0.0896
12271TIP3   OH258303   6.579   3.947   2.663  0.0079  0.1873 -0.3934
12271TIP3    H158304   6.571   3.983   2.751 -2.3085 -0.4464 -0.2687
12271TIP3    H258305   6.546   3.857   2.671  0.8779 -0.2784 -1.6803
12272TIP3   OH258306   4.237   1.255   3.172 -0.1679 -0.1215 -0.2238
12272TIP3    H158307   4.161   1.202   3.153  0.7800 -2.2702  1.5021
12272TIP3    H258308   4.279   1.269   3.087 -1.3627 -0.6816 -0.9245
12273TIP3   OH258309   3.715   5.612  16.985  0.2254  0.7463 -0.1372
12273TIP3    H158310   3.703   5.622  17.079  1.3792  0.4702  0.0474
12273TIP3    H258311   3.762   5.690  16.958  0.4662  0.5231 -0.3715
12274TIP3   OH258312   1.572   5.232   5.607 -0.3518 -0.1342 -0.3416
12274TIP3    H158313   1.484   5.196   5.621 -0.5647  0.5112  0.0685
12274TIP3    H258314   1.604   5.249   5.696  0.5496 -1.1831 -0.4509
12275TIP3   OH258315   1.555   1.191  12.920  0.2205  0.1850 -0.1230
12275TIP3    H158316   1.565   1.236  12.836 -1.0932 -0.7931 -0.8471
12275TIP3    H258317   1.508   1.254  12.975 -1.1659 -0.0693 -0.9657
12276TIP3   OH258318   0.192   1.745   4.237 -0.3418 -0.8236 -0.4176
12276TIP3    H158319   0.113   1.781   4.278 -1.2076 -1.9288 -1.0466
12276TIP3    H258320   0.217   1.809   4.171 -0.9384 -0.6490 -0.4754
12277TIP3   OH258321   4.628   0.479   2.975 -0.3006  0.0686  0.1981
12277TIP3    H158322   4.567   0.489   3.048  1.0260 -1.6879  1.6776
12277TIP3    H258323   4.587   0.414   2.918  0.0959 -1.0948  1.1783
12278TIP3   OH258324   5.765   4.179   2.005  0.6383 -0.0906 -0.2731
12278TIP3    H158325   5.680   4.221   2.013  0.3376 -0.3182 -1.8370
12278TIP3    H258326   5.777   4.132   2.087 -1.3069 -1.0311 -0.4788
12279TIP3   OH258327   4.175   0.007  11.285  0.1939 -0.3751  0.2305
12279TIP3    H158328   4.159   0.086  11.338  1.3428  1.2661 -1.7280
12279TIP3    H258329   4.251  -0.034  11.326  0.3005  0.1725  0.5946
12280TIP3   OH258330   1.993   4.925   4.677  0.5735  0.6061  0.4328
12280TIP3    H158331   1.929   4.878   4.623  0.2618  2.2261 -0.6727
12280TIP3    H258332   1.960   4.916   4.767  0.0733 -0.5167  0.1555
12281TIP3   OH258333   5.897   3.256  14.888  0.4693 -0.3448 -0.1778
12281TIP3    H158334   5.807   3.289  14.889  0.3921 -0.5670  0.3464
12281TIP3    H258335   5.940   3.302  14.960  0.4597 -1.1097  0.3298
12282TIP3   OH258336   1.476   0.178   3.641  0.6852 -0.7891  0.2279
12282TIP3    H158337   1.477   0.096   3.592 -1.7793 -1.7783  1.7004
12282TIP3    H258338   1.405   0.168   3.703  0.5293  2.3669  0.6882
12283TIP3   OH258339   1.030   2.697   1.378  0.0682  0.2140 -0.3951
12283TIP3    H158340   1.098   2.715   1.444 -0.7121  0.2799  0.4131
12283TIP3    H258341   1.003   2.607   1.397  1.1611 -0.4649 -1.8614
12284TIP3   OH258342   0.022   2.384  15.236 -0.0547  0.4211  0.2125
12284TIP3    H158343   0.073   2.395  15.155 -0.2043 -1.0382 -0.1075
12284TIP3    H258344   0.040   2.294  15.263 -0.9340  0.5254  1.1677
12285TIP3   OH258345   1.401   1.090  11.777 -0.3665 -0.6506  0.3583
12285TIP3    H158346   1.471   1.025  11.783 -1.4322 -1.8992 -0.1429
12285TIP3    H258347   1.340   1.053  11.712 -1.1323  0.7378  0.2479
12286TIP3   OH258348   2.231   0.333   0.518  0.1900  0.0106 -0.0399
12286TIP3    H158349   2.239   0.427   0.536 -0.7741 -0.3218  2.5107
12286TIP3    H258350   2.291   0.291   0.580 -0.2286 -1.1096 -0.3646
12287TIP3   OH258351   3.766   1.292   2.749 -0.6069 -0.3517  0.1976
12287TIP3    H158352   3.832   1.319   2.686  0.8623 -2.0337  0.9216
12287TIP3    H258353   3.682   1.314   2.708  0.3343 -0.2403 -1.7431
12288TIP3   OH258354   3.429   5.961   2.813 -0.0765  0.2372 -0.4906
12288TIP3    H158355   3.501   5.915   2.855 -0.3909  0.5575  0.4383
12288TIP3    H258356   3.351   5.933   2.862 -0.3750  1.1078 -0.4448
12289TIP3   OH258357   5.166   1.023   5.758 -1.0381 -0.0223 -0.4624
12289TIP3    H158358   5.171   0.928   5.747 -2.3431 -0.4258  1.8571
12289TIP3    H258359   5.243   1.057   5.712 -1.0944 -2.0754 -2.2240
12290TIP3   OH258360   5.682   5.327  11.554 -0.0420 -0.5949 -0.4578
12290TIP3    H158361   5.748   5.261  11.577 -0.2413 -0.6374  0.0000
12290TIP3    H258362   5.699   5.399  11.614  0.7288  0.1454 -1.5301
12291TIP3   OH258363   3.392   3.112  11.899 -0.4173  0.4267 -0.0653
12291TIP3    H158364   3.393   3.199  11.939 -0.8853  0.7254 -0.6901
12291TIP3    H258365   3.457   3.117  11.829 -0.9854  0.5162 -0.5928
12292TIP3   OH258366   2.392   4.270  13.589 -0.0826 -0.1288 -0.3596
12292TIP3    H158367   2.383   4.322  13.669  0.3300 -2.6681  1.4677
12292TIP3    H258368   2.427   4.331  13.524  1.0954  1.6621  1.8242
12293TIP3   OH258369   4.652   1.538  14.124 -0.2303 -0.5210  0.1436
12293TIP3    H158370   4.627   1.570  14.211 -0.3300  0.2840 -0.1702
12293TIP3    H258371   4.747   1.528  14.128  0.0522  1.5581 -0.2839
12294TIP3   OH258372   0.257   6.368   5.277 -1.0607 -0.4373 -0.3901
12294TIP3    H158373   0.273   6.453   5.235  1.1379  0.1111  1.3513
12294TIP3    H258374   0.187   6.384   5.339  1.4627  1.1297  2.3117
12295TIP3   OH258375   1.363   3.707   0.661  0.5313  0.1472 -0.4733
12295TIP3    H158376   1.405   3.709   0.575  0.8156  2.1704 -0.3151
12295TIP3    H258377   1.300   3.779   0.659 -1.3762 -1.4040  0.1119
12296TIP3   OH258378   4.728   5.144   0.555  0.5181 -0.4191  0.5270
12296TIP3    H158379   4.819   5.116   0.566  0.5949 -0.4533 -0.1521
12296TIP3    H258380   4.730   5.200   0.477 -0.0398 -0.3873  0.5333
12297TIP3   OH258381   1.853   5.524   3.371  0.1081 -0.0651  0.1594
12297TIP3    H158382   1.781   5.587   3.363  0.7687  0.5763 -0.8942
12297TIP3    H258383   1.850   5.498   3.463  1.3641  3.4442  1.3800
12298TIP3   OH258384   1.132   5.083   1.712  0.1112  0.3891  0.0842
12298TIP3    H158385   1.217   5.104   1.749  0.7382  0.1086 -1.1399
12298TIP3    H258386   1.148   5.076   1.618 -1.3956  0.9928 -0.2475
12299TIP3   OH258387   2.493   0.697  14.921  0.2506  0.1345 -0.0843
12299TIP3    H158388   2.520   0.785  14.893 -0.3782  0.1180 -0.7655
12299TIP3    H258389   2.528   0.689  15.010  1.6878  0.4523 -0.5913
12300TIP3   OH258390   4.088   0.615   3.693  0.1290 -0.4696 -0.3955
12300TIP3    H158391   4.175   0.589   3.723  0.2660 -0.9709 -1.1996
12300TIP3    H258392   4.093   0.710   3.685  0.4044 -0.4343  0.1786
12301TIP3   OH258393   0.830   2.957  14.038 -0.1388 -0.2375 -0.6143
12301TIP3    H158394   0.903   2.898  14.054 -0.5937 -0.3857  1.2229
12301TIP3    H258395   0.833   2.976  13.944  2.3706 -0.0329 -0.5417
12302TIP3   OH258396   0.575   3.257   1.261  0.4370 -0.1138 -0.3130
12302TIP3    H158397   0.520   3.324   1.301  1.2178  1.0747 -1.1623
12302TIP3    H258398   0.534   3.239   1.177  2.1372  1.9701 -1.6841
12303TIP3   OH258399   6.650   5.639  11.521 -0.1078 -0.5859 -0.2725
12303TIP3    H158400   6.589   5.663  11.591  0.9183  2.8751 -0.4027
12303TIP3    H258401   6.625   5.549  11.498 -1.4274 -1.3825  3.4774
12304TIP3   OH258402   3.404   5.551  16.730  0.2183  0.3982  0.3125
12304TIP3    H158403   3.330   5.607  16.751 -0.0300  0.1736  0.0589
12304TIP3    H258404   3.365   5.464  16.718  0.6111  0.1395  0.8392
12305TIP3   OH258405   0.398   4.031  15.903 -0.6701  0.2964 -0.6626
12305TIP3    H158406   0.324   3.985  15.861 -1.1396  0.6642 -0.2513
12305TIP3    H258407   0.411   4.109  15.850  0.1836 -0.3385 -1.4108
12306TIP3   OH258408   2.541   2.381  15.449  0.2989 -0.3319  0.0375
12306TIP3    H158409   2.453   2.410  15.474  0.3830 -0.4270  0.4377
12306TIP3    H258410   2.596   2.458  15.461  0.1834 -0.1258 -0.6986
12307TIP3   OH258411   4.630   0.117  11.854  0.6130  0.2677  0.3101
12307TIP3    H158412   4.692   0.124  11.927 -0.1930 -1.2670  1.2136
12307TIP3    H258413   4.683   0.124  11.776  1.8654 -0.4815  1.0603
12308TIP3   OH258414   3.594   4.917  17.203  0.0282  0.7157 -0.0836
12308TIP3    H158415   3.621   4.838  17.250 -0.0548  0.0170 -1.1562
12308TIP3    H258416   3.508   4.939  17.240  0.1302  0.4045  0.3463
12309TIP3   OH258417   2.362   2.456  12.997  0.1718  0.5793 -0.1181
12309TIP3    H158418   2.410   2.440  12.916 -1.4821  0.2758 -1.0932
12309TIP3    H258419   2.369   2.374  13.046 -1.9390 -0.6299 -1.6909
12310TIP3   OH258420   5.267   2.052  11.290  0.0800  0.1722 -0.5454
12310TIP3    H158421   5.245   2.071  11.199  1.5615 -2.3155 -1.5342
12310TIP3    H258422   5.188   2.013  11.327 -0.1271  0.0143 -1.1522
12311TIP3   OH258423   4.447   6.400   2.193 -0.2856 -0.4587 -0.6488
12311TIP3    H158424   4.488   6.486   2.204 -0.4820 -0.5693  1.1297
12311TIP3    H258425   4.353   6.419   2.188 -0.3803 -0.6193  0.4476
12312TIP3   OH258426   1.525   2.086   1.716  0.0648 -0.3279 -0.8125
12312TIP3    H158427   1.585   2.129   1.656  0.2907  0.5233  0.0042
12312TIP3    H258428   1.581   2.037   1.776  0.0446  1.2724  0.5785
12313TIP3   OH258429   1.802   0.652  16.846 -0.1445  0.4156 -0.1839
12313TIP3    H158430   1.709   0.674  16.850 -0.3268 -0.1407 -1.1258
12313TIP3    H258431   1.837   0.708  16.777  0.3267  0.9529  0.4779
12314TIP3   OH258432   5.797   5.327  13.117 -0.4372 -0.0923  0.0264
12314TIP3    H158433   5.765   5.266  13.184  2.0992 -0.2523  1.1981
12314TIP3    H258434   5.841   5.396  13.167  3.6504 -1.4267 -1.3874
12315TIP3   OH258435   2.123   2.956   2.793  0.1529 -0.1919  0.1335
12315TIP3    H158436   2.213   2.973   2.767  0.7463 -1.9084  0.8693
12315TIP3    H258437   2.074   3.033   2.765  1.6463  0.2931 -1.2721
12316TIP3   OH258438   2.933   5.183   1.330 -0.0347  0.4632 -0.2638
12316TIP3    H158439   2.924   5.209   1.422  0.9037  3.5353 -0.9224
12316TIP3    H258440   2.846   5.150   1.306 -0.3630 -0.1755  1.6209
12317TIP3   OH258441   2.039   1.863   6.584  0.1163  0.6763  0.1450
12317TIP3    H158442   2.031   1.767   6.585  0.4004  0.5076 -3.1336
12317TIP3    H258443   1.950   1.893   6.563  0.2132  1.0940  0.3340
12318TIP3   OH258444   3.268   0.646   3.508  0.1552  0.0464 -0.4972
12318TIP3    H158445   3.209   0.721   3.521  1.1013  0.5928  0.8654
12318TIP3    H258446   3.256   0.622   3.416 -3.2635 -0.8235  0.0305
12319TIP3   OH258447   3.496   3.646   1.045 -0.1984  0.1484 -0.2353
12319TIP3    H158448   3.471   3.554   1.036  0.6996 -0.0557 -0.7886
12319TIP3    H258449   3.575   3.655   0.991  0.5350  0.9171  0.9134
12320TIP3   OH258450   3.933   0.525  14.638  0.4890  0.0718 -0.0311
12320TIP3    H158451   3.898   0.597  14.690  0.9279  0.7481 -0.6521
12320TIP3    H258452   3.925   0.555  14.548 -0.7790 -1.3107 -0.4139
12321TIP3   OH258453   3.968   5.419  12.332  0.7438 -0.7305  0.0143
12321TIP3    H158454   3.941   5.330  12.353 -0.1682 -0.4204  0.1862
12321TIP3    H258455   3.911   5.475  12.386  0.5389 -0.0140 -0.9249
12322TIP3   OH258456   2.621   0.759   0.360 -0.9078  0.4304  0.2171
12322TIP3    H158457   2.632   0.738   0.267 -0.0592  1.3812  0.0830
12322TIP3    H258458   2.656   0.683   0.406 -0.3437  0.3992 -0.2473
12323TIP3   OH258459   2.488   5.375  13.977 -0.0308  0.3148  0.3992
12323TIP3    H158460   2.521   5.301  14.029 -0.5373 -0.2308 -0.0337
12323TIP3    H258461   2.552   5.444  13.990  0.5182 -0.2448  0.7202
12324TIP3   OH258462   4.947   3.700   4.695  0.1696  0.3433 -0.9198
12324TIP3    H158463   4.889   3.747   4.755  1.0328  1.1201 -0.6646
12324TIP3    H258464   4.918   3.609   4.700  1.3845 -0.0214  2.1986
12325TIP3   OH258465   5.275   0.835  16.117  0.5502 -0.1340 -0.3033
12325TIP3    H158466   5.248   0.777  16.046  1.6321 -0.6447 -0.3236
12325TIP3    H258467   5.194   0.856  16.163 -0.4466  1.5102 -2.6011
12326TIP3   OH258468   6.361   6.537  13.802  0.0848  0.1393 -0.1379
12326TIP3    H158469   6.402   6.586  13.731 -1.1905 -1.3740 -2.0127
12326TIP3    H258470   6.415   6.556  13.879  3.1456 -0.2700 -2.0401
12327TIP3   OH258471   6.264   1.281   4.588  0.7137 -0.0235  0.0299
12327TIP3    H158472   6.325   1.280   4.514  0.4488  0.6727 -0.2034
12327TIP3    H258473   6.211   1.360   4.575  0.6413  0.0890  0.9415
12328TIP3   OH258474   5.138   2.253  12.276  0.5698 -0.4502 -0.2212
12328TIP3    H158475   5.123   2.331  12.223 -0.1279 -0.1800  0.3643
12328TIP3    H258476   5.069   2.192  12.250 -0.0125 -0.1730  0.6311
12329TIP3   OH258477   1.024   4.448   1.267  0.1359 -0.1876  0.2802
12329TIP3    H158478   0.965   4.415   1.335  2.0304  1.5867  2.9699
12329TIP3    H258479   1.112   4.429   1.301  1.1572  0.5736 -1.8063
12330TIP3   OH258480   4.936   2.594   1.317 -0.9359  0.0239  0.3263
12330TIP3    H158481   4.896   2.661   1.372 -0.3106 -0.7755  1.7862
12330TIP3    H258482   5.015   2.567   1.364 -1.4833 -2.1633  0.1044
12331TIP3   OH258483   2.224   4.048  12.803 -0.3906  0.0275  0.2658
12331TIP3    H158484   2.163   4.112  12.840  0.9993  1.6173 -0.0800
12331TIP3    H258485   2.307   4.066  12.846  0.0545 -1.5625  0.1392
12332TIP3   OH258486   3.730   0.933  16.585 -0.3839 -0.2355  0.1842
12332TIP3    H158487   3.744   1.012  16.637 -1.4347 -0.2292  0.4697
12332TIP3    H258488   3.763   0.862  16.640 -1.4032 -0.2188  0.8408
12333TIP3   OH258489   4.731   4.672  13.845 -0.2099 -0.4616  0.2490
12333TIP3    H158490   4.680   4.749  13.869 -0.4980  0.5433 -3.0226
12333TIP3    H258491   4.814   4.707  13.812  0.2905 -1.6649  0.1725
12334TIP3   OH258492   1.872   6.422  11.421 -0.3533  0.0945  0.4105
12334TIP3    H158493   1.831   6.340  11.392  0.1442  0.2022 -0.6339
12334TIP3    H258494   1.860   6.482  11.348  1.2499  0.2680  0.2529
12335TIP3   OH258495   1.820   2.518  14.545 -0.0579 -0.3926  0.1270
12335TIP3    H158496   1.734   2.520  14.502  0.3330 -1.3323 -0.7470
12335TIP3    H258497   1.848   2.427  14.537 -0.3492 -0.8807  3.2462
12336TIP3   OH258498   1.042   4.315   4.185 -0.2960 -0.0339 -0.9151
12336TIP3    H158499   1.053   4.229   4.144  1.9251 -1.6958  2.6652
12336TIP3    H258500   0.958   4.309   4.230 -0.5692  0.0388 -1.4089
12337TIP3   OH258501   1.692   0.702   3.801  0.2141 -0.0408  0.1734
12337TIP3    H158502   1.727   0.779   3.846  0.3416  1.5045 -2.3780
12337TIP3    H258503   1.751   0.687   3.728 -0.9198 -1.3494 -0.5315
12338TIP3   OH258504   1.670   6.203   4.705  0.3839  0.3014 -1.0823
12338TIP3    H158505   1.670   6.256   4.785  2.0914  0.2644 -1.0064
12338TIP3    H258506   1.609   6.132   4.724  0.5427  0.4478  0.0939
12339TIP3   OH258507   2.818   4.890   2.523 -0.1751  0.6228 -0.4510
12339TIP3    H158508   2.822   4.804   2.480  0.6845 -0.7298  2.0889
12339TIP3    H258509   2.799   4.951   2.453  1.1521 -1.3919 -2.7381
12340TIP3   OH258510   6.143   4.820  16.778  0.4412 -0.1895 -0.4322
12340TIP3    H158511   6.049   4.813  16.794  0.4832 -1.5481 -0.6457
12340TIP3    H258512   6.157   4.770  16.698  1.5610 -1.4744  0.5135
12341TIP3   OH258513   0.226   6.340   0.202 -0.5664  0.4589  0.5939
12341TIP3    H158514   0.313   6.359   0.166  0.3986 -3.0144  0.7308
12341TIP3    H258515   0.170   6.410   0.167  2.2135  2.8402  0.5222
12342TIP3   OH258516   3.105   3.744   2.165 -0.4555  0.0784 -0.3493
12342TIP3    H158517   3.110   3.840   2.171  0.6543 -0.0286  0.7889
12342TIP3    H258518   3.148   3.723   2.083 -1.0492  0.5651 -0.8019
12343TIP3   OH258519   4.909   1.424   0.923  0.5724 -0.5814  0.5572
12343TIP3    H158520   4.931   1.444   0.832  2.1939 -2.0686  0.5747
12343TIP3    H258521   4.829   1.372   0.918  0.0726  0.2114  0.0754
12344TIP3   OH258522   6.362   3.278   5.923  0.6090  0.5909  1.1285
12344TIP3    H158523   6.337   3.364   5.889 -3.1554  0.2996  2.6518
12344TIP3    H258524   6.449   3.292   5.961  2.8837  2.0960 -3.8186
12345TIP3   OH258525   0.338   4.325   4.010  0.6555  0.2911  0.3091
12345TIP3    H158526   0.345   4.235   4.042  1.5450 -0.0843 -0.8694
12345TIP3    H258527   0.295   4.372   4.081  0.7626 -0.9202  1.2135
12346TIP3   OH258528   0.183   1.581   5.800 -0.0886 -0.2385  0.0266
12346TIP3    H158529   0.105   1.634   5.782 -1.2065 -1.7791  0.1740
12346TIP3    H258530   0.242   1.641   5.845 -1.5384  0.7519  0.6945
12347TIP3   OH258531   2.286   4.991   0.225  0.6769 -0.4555 -0.2296
12347TIP3    H158532   2.237   4.984   0.143  2.0695 -0.0262 -1.1298
12347TIP3    H258533   2.309   4.900   0.246  2.1137 -0.4292 -1.4830
12348TIP3   OH258534   4.107   4.346   2.433 -0.5333  0.1802 -0.2816
12348TIP3    H158535   4.098   4.425   2.380 -2.5934 -0.3747 -0.8766
12348TIP3    H258536   4.158   4.286   2.378 -0.0961  0.6437 -0.3840
12349TIP3   OH258537   4.650   5.211   2.983  0.5937 -0.3685  0.1988
12349TIP3    H158538   4.723   5.248   3.034  0.0621  2.3380 -0.8134
12349TIP3    H258539   4.692   5.162   2.913  1.3888 -0.6439  0.8488
12350TIP3   OH258540   2.793   0.651  12.677  0.0124  0.2784  0.2521
12350TIP3    H158541   2.816   0.618  12.590  0.5189  1.0329  0.0859
12350TIP3    H258542   2.698   0.660  12.676 -0.1242 -1.0143  0.2555
12351TIP3   OH258543   0.582   5.999   5.290 -0.3151  0.3130 -0.3172
12351TIP3    H158544   0.648   6.068   5.300  2.4295 -2.3750  2.9078
12351TIP3    H258545   0.593   5.968   5.201  3.2313 -0.2054  0.1476
12352TIP3   OH258546   6.718   2.602  16.490 -0.1386 -0.6389 -0.5359
12352TIP3    H158547   6.718   2.682  16.542  1.1504 -0.0713 -1.3598
12352TIP3    H258548   6.626   2.590  16.465 -0.3278  0.6825 -0.5358
12353TIP3   OH258549   0.144   4.340  11.252 -0.0630  0.2907  0.4518
12353TIP3    H158550   0.200   4.304  11.183  0.9696  0.9683  0.9054
12353TIP3    H258551   0.078   4.273  11.268 -0.3993  0.1703 -1.2766
12354TIP3   OH258552   3.086   5.017  15.222  0.0050  0.1818 -0.4071
12354TIP3    H158553   3.115   4.936  15.263 -0.3833 -0.2383 -0.9334
12354TIP3    H258554   3.127   5.087  15.273  3.7135 -0.3379 -2.3193
12355TIP3   OH258555   5.658   1.411   5.226 -0.6786  0.0552  0.2330
12355TIP3    H158556   5.608   1.331   5.210  0.3329 -0.1412 -2.4809
12355TIP3    H258557   5.709   1.393   5.305 -2.5242 -0.8819  1.2668
12356TIP3   OH258558   2.634   2.283   5.390  0.0767  0.2909 -0.4251
12356TIP3    H158559   2.569   2.220   5.421 -0.3218  0.9213  0.0242
12356TIP3    H258560   2.621   2.287   5.295  0.4293 -0.6566 -0.5270
12357TIP3   OH258561   5.933   4.265  15.670  0.2944 -0.2213  0.3599
12357TIP3    H158562   5.843   4.254  15.640  0.7873  0.5700 -1.5119
12357TIP3    H258563   5.980   4.190  15.634  1.2487  1.6096 -2.5410
12358TIP3   OH258564   3.737   4.393   2.665  0.5804 -0.2199  0.8596
12358TIP3    H158565   3.786   4.311   2.674  2.9950  1.1915  1.5764
12358TIP3    H258566   3.713   4.416   2.755  2.0689  1.0105  0.9865
12359TIP3   OH258567   2.093   4.777   3.371 -0.1417  0.7350  0.4187
12359TIP3    H158568   2.089   4.870   3.349 -3.1129  0.9776  1.5103
12359TIP3    H258569   2.127   4.774   3.460 -2.8433  1.1581  1.5745
12360TIP3   OH258570   6.396   4.562   3.439  0.2002 -0.4675 -0.8596
12360TIP3    H158571   6.372   4.490   3.381 -1.0044  1.1587 -2.5339
12360TIP3    H258572   6.319   4.619   3.438  0.7297  0.3775  1.1994
12361TIP3   OH258573   1.482   3.072  13.479 -0.5721 -0.2990  0.1158
12361TIP3    H158574   1.545   3.003  13.460  1.0177  0.5675  1.9390
12361TIP3    H258575   1.454   3.055  13.569 -1.7226  0.2795 -0.1141
12362TIP3   OH258576   0.465   0.654  12.616  0.1182  0.4426 -0.2162
12362TIP3    H158577   0.433   0.714  12.683  0.4947  0.3695  0.0299
12362TIP3    H258578   0.393   0.592  12.603 -0.1795  0.7949 -0.2988
12363TIP3   OH258579   1.918   4.212   4.554  0.2203 -0.2940 -0.0975
12363TIP3    H158580   1.828   4.237   4.572  0.6799  0.3689  1.4932
12363TIP3    H258581   1.933   4.236   4.463 -0.9297  0.4569 -0.1026
12364TIP3   OH258582   6.331   2.694  16.124 -0.1735 -0.1800 -0.0517
12364TIP3    H158583   6.402   2.747  16.087  0.4279 -1.1868 -0.3764
12364TIP3    H258584   6.287   2.753  16.185  1.6957  0.1387  1.0877
12365TIP3   OH258585   1.713   2.957  16.881  0.2011  0.6699  0.7669
12365TIP3    H158586   1.786   2.974  16.822 -1.4093 -0.6263 -1.7789
12365TIP3    H258587   1.637   2.997  16.839 -1.1220 -0.8135  1.5941
12366TIP3   OH258588   1.781   5.085   1.087 -0.0348 -0.7640 -0.2223
12366TIP3    H158589   1.785   5.052   0.997 -1.5286  0.8726 -0.9645
12366TIP3    H258590   1.711   5.033   1.128 -1.1743  0.2406 -0.8462
12367TIP3   OH258591   4.463   5.567   4.887  0.0904 -0.4396 -0.5528
12367TIP3    H158592   4.547   5.598   4.853 -1.0697  0.1550 -3.1597
12367TIP3    H258593   4.420   5.527   4.811 -2.0049 -0.6487  0.6764
12368TIP3   OH258594   2.961   2.999   2.252  0.2226  0.8636 -0.5722
12368TIP3    H158595   3.032   3.038   2.303  0.5247 -0.0539 -0.2801
12368TIP3    H258596   2.983   2.906   2.247 -3.3393 -0.5338  3.6869
12369TIP3   OH258597   4.943   0.369  15.185 -0.1215  0.2792  0.0002
12369TIP3    H158598   4.971   0.304  15.121 -0.6901 -0.9935  1.0051
12369TIP3    H258599   4.980   0.338  15.268 -0.1330  1.4209  0.4525
12370TIP3   OH258600   0.442   6.762   1.843  0.1900 -0.0948 -0.4972
12370TIP3    H158601   0.355   6.788   1.811  0.6322  1.6719 -0.3916
12370TIP3    H258602   0.435   6.770   1.938  0.4848  0.1738 -0.4950
12371TIP3   OH258603   5.381   2.366   2.958 -0.5270  0.0685 -0.4268
12371TIP3    H158604   5.354   2.283   2.920 -2.2166  1.2600 -2.0178
12371TIP3    H258605   5.410   2.344   3.046  0.2081 -2.3427 -1.1934
12372TIP3   OH258606   1.989   6.731  11.702 -0.2130  0.2404 -0.6527
12372TIP3    H158607   2.002   6.738  11.796 -1.7174 -0.6929 -0.3483
12372TIP3    H258608   2.027   6.811  11.666 -0.5513  1.0967  0.8448
12373TIP3   OH258609   0.842   5.840  13.508 -0.5590 -0.2657 -0.4913
12373TIP3    H158610   0.764   5.883  13.544 -0.9734 -0.3327 -1.2997
12373TIP3    H258611   0.812   5.753  13.482  0.1692 -0.8969  0.6904
12374TIP3   OH258612   5.704   6.540  14.538  0.0304  0.0864 -0.0458
12374TIP3    H158613   5.763   6.549  14.463 -1.0051 -1.5942 -1.1695
12374TIP3    H258614   5.748   6.478  14.596 -0.2829 -0.6346 -0.5543
12375TIP3   OH258615   0.095   4.981  16.113 -0.2351  0.0331 -0.2399
12375TIP3    H158616   0.092   4.967  16.018 -1.8133 -2.8730  0.1218
12375TIP3    H258617   0.020   4.932  16.146  1.2930 -0.5186  2.6760
12376TIP3   OH258618   0.664   5.979  14.889  0.9009 -0.0582 -0.6597
12376TIP3    H158619   0.695   5.890  14.878  2.9233  0.2473  1.6299
12376TIP3    H258620   0.600   5.973  14.960  3.6549  0.6039  2.1292
12377TIP3   OH258621   5.122   3.338  11.237  0.2240 -0.3107  0.0942
12377TIP3    H158622   5.092   3.287  11.312  2.0749 -0.6971  0.6297
12377TIP3    H258623   5.091   3.290  11.161 -2.0073  0.2927  0.5663
12378TIP3   OH258624   3.393   2.904  13.689 -0.1146 -0.0567  0.4773
12378TIP3    H158625   3.385   2.971  13.621 -2.2024  1.1754  1.8021
12378TIP3    H258626   3.357   2.825  13.649  1.0422 -0.0621 -0.6340
12379TIP3   OH258627   5.431   1.949  14.985  0.0745 -0.1488 -0.2831
12379TIP3    H158628   5.407   1.965  15.077 -0.8407  1.0726 -0.7158
12379TIP3    H258629   5.490   2.021  14.963 -0.1675 -0.1172 -0.8242
12380TIP3   OH258630   1.092   3.453  11.872  0.6920 -0.1787 -0.1450
12380TIP3    H158631   1.001   3.476  11.855  0.8295 -0.9128 -2.0974
12380TIP3    H258632   1.092   3.419  11.961 -1.2794 -1.7188 -0.6714
12381TIP3   OH258633   6.441   2.511   3.386 -0.4174  0.1321  0.2179
12381TIP3    H158634   6.433   2.533   3.293 -0.3079 -0.0235  0.1702
12381TIP3    H258635   6.373   2.445   3.401  1.1556 -1.7357 -0.3601
12382TIP3   OH258636   4.118   3.829  10.394 -0.5694 -0.1065  0.7193
12382TIP3    H158637   4.067   3.845  10.315  0.2785  1.0096  0.3666
12382TIP3    H258638   4.060   3.854  10.466 -0.8021  0.4020  0.3594
12383TIP3   OH258639   6.776   6.398   0.415 -0.0104 -0.3892 -0.3715
12383TIP3    H158640   6.797   6.424   0.505  2.0280  0.0109 -0.9212
12383TIP3    H258641   6.859   6.402   0.369 -1.0367 -0.4701 -2.3237
12384TIP3   OH258642   2.876   5.483  13.766 -0.0485  0.2006 -0.3521
12384TIP3    H158643   2.860   5.562  13.714  0.5285 -0.1331 -1.0670
12384TIP3    H258644   2.838   5.501  13.851  1.2284  1.7987 -0.0723
12385TIP3   OH258645   5.710   0.167  12.875  0.6444 -0.5091 -0.2227
12385TIP3    H158646   5.739   0.141  12.963  0.4324 -0.7430 -0.2214
12385TIP3    H258647   5.749   0.253  12.862 -3.3759  1.9677  2.1830
12386TIP3   OH258648   0.296   0.040   2.995 -0.0837  0.2356 -0.1434
12386TIP3    H158649   0.377  -0.009   3.013  0.2656  0.8587 -0.0113
12386TIP3    H258650   0.249  -0.014   2.931  0.8558  0.3103 -0.9127
12387TIP3   OH258651   4.421   0.405   4.913 -0.3052 -0.2329 -0.3859
12387TIP3    H158652   4.471   0.487   4.921 -0.5520 -0.1718  0.6378
12387TIP3    H258653   4.447   0.370   4.828  0.8173  0.2384 -0.2582
12388TIP3   OH258654   1.971   4.235  15.546  0.6513  0.1296 -0.3376
12388TIP3    H158655   1.883   4.274  15.542  0.2191 -0.5219  1.7573
12388TIP3    H258656   2.030   4.307  15.524 -0.3077  1.0648  0.0526
12389TIP3   OH258657   0.644   3.178   3.722 -0.3917  0.3978 -0.1953
12389TIP3    H158658   0.562   3.211   3.758 -0.8815 -0.0767 -0.8566
12389TIP3    H258659   0.712   3.228   3.767 -0.9801 -0.2006  1.4230
12390TIP3   OH258660   1.959   1.572  14.399 -0.0295 -0.2193  0.2647
12390TIP3    H158661   1.969   1.497  14.457  1.4079  0.3685  0.8183
12390TIP3    H258662   1.948   1.647  14.458 -4.0853 -0.1886 -0.2457
12391TIP3   OH258663   4.681   5.639   5.889 -0.0432  1.0314 -0.6730
12391TIP3    H158664   4.736   5.592   5.951 -0.2971  0.6804 -0.7106
12391TIP3    H258665   4.631   5.571   5.845 -0.2029  1.3153 -0.9351
12392TIP3   OH258666   2.570   2.662  15.151 -0.5163  0.3950  0.5993
12392TIP3    H158667   2.650   2.683  15.200 -1.0033  0.4664  1.3770
12392TIP3    H258668   2.542   2.746  15.114 -0.3133  0.3957  0.4431
12393TIP3   OH258669   3.596   5.821  14.935  0.5066 -0.9296  0.2493
12393TIP3    H158670   3.625   5.909  14.960  2.7700 -0.8034 -2.3634
12393TIP3    H258671   3.578   5.778  15.019 -1.7856  2.2477  1.6108
12394TIP3   OH258672   1.261   6.671  11.466 -0.5563  0.4762 -0.2208
12394TIP3    H158673   1.234   6.580  11.482  0.2192  0.3256  0.3028
12394TIP3    H258674   1.180   6.721  11.470 -0.9444 -0.1446 -0.1265
12395TIP3   OH258675   4.149   6.678  17.008  0.1251 -0.6863 -0.4375
12395TIP3    H158676   4.120   6.596  16.967  2.1672 -0.7323 -1.9315
12395TIP3    H258677   4.073   6.707  17.058 -0.2792 -4.2094  1.3498
12396TIP3   OH258678   1.183   5.050   6.008  0.3319  0.2147 -0.1429
12396TIP3    H158679   1.154   5.126   5.958 -0.3345  0.4704  0.6050
12396TIP3    H258680   1.110   4.989   6.005 -1.0265  1.4658  2.9859
12397TIP3   OH258681   4.244   3.548  12.822  0.5888 -0.8960  0.2453
12397TIP3    H158682   4.167   3.527  12.769  0.4983 -0.8450  0.3563
12397TIP3    H258683   4.214   3.615  12.883  0.4822 -1.5232  0.8908
12398TIP3   OH258684   6.575   6.444   4.222  0.1585 -0.1348 -0.2086
12398TIP3    H158685   6.504   6.392   4.186 -0.7869  0.5606  0.5965
12398TIP3    H258686   6.635   6.379   4.260 -0.5846 -0.6901  0.0461
12399TIP3   OH258687   5.115   1.965  12.960 -0.2410  0.5428 -0.2914
12399TIP3    H158688   5.210   1.973  12.964 -0.1888  0.2154 -0.8117
12399TIP3    H258689   5.089   1.952  13.051  0.2667  0.0930 -0.2041
12400TIP3   OH258690   2.341   1.338  14.050 -0.6788 -0.1949 -0.2741
12400TIP3    H158691   2.276   1.408  14.044 -0.2157  0.2623 -0.0108
12400TIP3    H258692   2.421   1.381  14.081  0.4166 -0.3345 -2.6658
12401TIP3   OH258693   0.134   3.050  11.991  0.1356  0.0731  0.4620
12401TIP3    H158694   0.229   3.046  12.001  0.1799 -1.9786 -0.3318
12401TIP3    H258695   0.119   3.118  11.925  1.1619 -0.6482 -0.5468
12402TIP3   OH258696   1.607   6.017   0.573 -0.3074  0.4955 -0.2654
12402TIP3    H158697   1.614   5.925   0.599  3.3177  0.7106  0.0530
12402TIP3    H258698   1.558   6.058   0.644 -0.2278 -0.8704  0.6262
12403TIP3   OH258699   5.389   0.836   6.048 -0.1998 -0.4439 -0.2666
12403TIP3    H158700   5.328   0.835   5.974  0.5160 -1.3357 -0.8587
12403TIP3    H258701   5.461   0.780   6.021 -0.4651 -1.7765  1.5544
12404TIP3   OH258702   6.438   3.543   0.170  0.1228  0.7742 -0.6136
12404TIP3    H158703   6.375   3.528   0.099 -1.0309  2.9288 -0.1458
12404TIP3    H258704   6.386   3.586   0.238  1.8072  1.3139  0.3801
12405TIP3   OH258705   3.709   5.104  12.309 -0.3830 -0.0567 -0.5981
12405TIP3    H158706   3.635   5.060  12.350  1.0157 -1.8382  0.1806
12405TIP3    H258707   3.759   5.033  12.268  1.4682  0.9089 -0.1394
12406TIP3   OH258708   5.546   4.768   4.341  0.4185  0.1425 -0.1202
12406TIP3    H158709   5.595   4.692   4.372  0.5223  0.2067 -0.1252
12406TIP3    H258710   5.485   4.732   4.276 -1.6680 -0.4201  2.0038
12407TIP3   OH258711   0.497   1.745   0.373 -0.4940 -0.2347 -0.4479
12407TIP3    H158712   0.515   1.829   0.416 -1.2853 -0.6105  0.6727
12407TIP3    H258713   0.583   1.709   0.353 -0.0964 -0.0187  0.7943
12408TIP3   OH258714   5.710   3.010  12.588 -0.2219  0.5251  0.1730
12408TIP3    H158715   5.716   3.001  12.493 -0.9141 -0.8570  0.2316
12408TIP3    H258716   5.793   2.976  12.621 -0.5108 -0.2535  0.1135
12409TIP3   OH258717   6.329   0.628  14.148 -0.0259  0.1079 -0.2588
12409TIP3    H158718   6.318   0.684  14.071 -0.7241 -2.1590 -1.9241
12409TIP3    H258719   6.423   0.607  14.150 -0.0730 -0.1555 -0.7580
12410TIP3   OH258720   4.307   2.447   4.235  0.0557 -0.0595  0.8698
12410TIP3    H158721   4.287   2.466   4.326 -1.9777  0.4161  0.3540
12410TIP3    H258722   4.239   2.490   4.184  0.9558 -0.5678 -0.8836
12411TIP3   OH258723   5.395   6.467  15.909  0.2374  0.6256  0.0050
12411TIP3    H158724   5.391   6.477  16.004 -1.4236  0.9818 -0.0847
12411TIP3    H258725   5.304   6.456  15.881  0.7090  0.3161 -1.5325
12412TIP3   OH258726   3.714   4.461  12.430  0.1811 -1.0700  0.1937
12412TIP3    H158727   3.801   4.453  12.468  0.2819 -0.2157  0.1683
12412TIP3    H258728   3.729   4.468  12.336  0.0315 -1.6768  0.1219
12413TIP3   OH258729   1.230   0.803   4.829 -0.2130 -0.1524  0.3196
12413TIP3    H158730   1.307   0.753   4.856  0.9267  0.2353 -2.0113
12413TIP3    H258731   1.171   0.737   4.792 -0.0184 -0.1760  0.0453
12414TIP3   OH258732   1.820   2.402  16.540 -0.2128  0.0704 -0.3565
12414TIP3    H158733   1.913   2.424  16.526 -0.2127  0.0037 -0.4648
12414TIP3    H258734   1.813   2.310  16.514  0.0499 -0.4428  1.3118
12415TIP3   OH258735   5.637   0.575  11.548  0.1141 -0.4897  0.4261
12415TIP3    H158736   5.588   0.596  11.628  0.6024  1.1935  0.3051
12415TIP3    H258737   5.720   0.539  11.579  0.8709  1.4125  0.7601
12416TIP3   OH258738   4.076   3.108  12.452 -0.2913 -0.4512 -0.1234
12416TIP3    H158739   4.138   3.085  12.521 -1.3242 -1.6201  0.4537
12416TIP3    H258740   4.057   3.025  12.408 -1.0944 -0.0327 -0.5981
12417TIP3   OH258741   5.570   4.988   1.918  0.4169 -0.1488 -0.0042
12417TIP3    H158742   5.554   5.062   1.978  1.4354  0.4277 -0.4125
12417TIP3    H258743   5.623   4.927   1.969 -2.0551 -1.5947  1.0147
12418TIP3   OH258744   5.454   1.145   3.387  0.1836 -0.6641  0.0075
12418TIP3    H158745   5.394   1.113   3.319  1.0092 -2.6872  0.1527
12418TIP3    H258746   5.541   1.137   3.348  0.6053 -1.0347  0.9992
12419TIP3   OH258747   3.577   3.075  12.560 -0.4045  0.0665 -0.8667
12419TIP3    H158748   3.526   3.010  12.512 -0.6907 -0.1771 -0.2381
12419TIP3    H258749   3.667   3.062  12.529  0.2212 -3.0300  1.7223
12420TIP3   OH258750   4.644   6.172   1.351 -0.5780 -0.4498 -0.0980
12420TIP3    H158751   4.711   6.123   1.303 -0.1549  0.5813 -0.5929
12420TIP3    H258752   4.572   6.110   1.363  0.1321 -1.3284 -0.2804
12421TIP3   OH258753   3.956   6.236  16.654  0.0485 -0.1250  0.3402
12421TIP3    H158754   3.950   6.288  16.574  1.6453 -2.1976 -1.2708
12421TIP3    H258755   3.873   6.189  16.659 -0.4667  0.7946  0.4965
12422TIP3   OH258756   4.343   0.538   3.762 -0.6908  0.9010  0.2686
12422TIP3    H158757   4.434   0.507   3.770 -0.6999  0.1446 -1.8754
12422TIP3    H258758   4.349   0.632   3.782  0.6635  0.9743 -0.3283
12423TIP3   OH258759   5.293   5.748   4.416 -0.2323 -0.2113  0.6054
12423TIP3    H158760   5.235   5.816   4.381  0.2818 -0.0432  0.0675
12423TIP3    H258761   5.310   5.690   4.342  1.1726  0.3610  0.4395
12424TIP3   OH258762   2.193   2.752  12.945 -0.1195 -0.3406 -0.5603
12424TIP3    H158763   2.160   2.818  13.006  0.0274 -0.3363 -0.4853
12424TIP3    H258764   2.152   2.670  12.973 -1.0056 -0.1337 -1.1963
12425TIP3   OH258765   2.473   1.741  15.472 -0.3760 -0.2757 -0.1643
12425TIP3    H158766   2.455   1.651  15.446 -0.7108 -0.0540 -0.7381
12425TIP3    H258767   2.410   1.793  15.422 -1.0231  0.1831  1.0997
12426TIP3   OH258768   1.662   4.631  14.583  0.5419 -0.0833  0.6139
12426TIP3    H158769   1.584   4.687  14.589  1.8362  1.7684  1.1230
12426TIP3    H258770   1.631   4.544  14.608 -1.1542  0.8033  1.7887
12427TIP3   OH258771   2.520   1.559   0.983  0.3453  0.0850  0.5294
12427TIP3    H158772   2.558   1.545   0.896  1.3878 -0.1233  1.0022
12427TIP3    H258773   2.532   1.652   1.000 -3.2525  1.0081 -1.0684
12428TIP3   OH258774   0.784   2.195   1.667 -0.1661 -1.0427 -0.2610
12428TIP3    H158775   0.741   2.152   1.593  2.1637 -1.3117 -1.5860
12428TIP3    H258776   0.846   2.129   1.699  0.3048 -0.2034  0.6082
12429TIP3   OH258777   2.161   6.470  13.217 -0.4910  0.7734 -0.4492
12429TIP3    H158778   2.162   6.498  13.309 -0.9952  1.5228 -0.6661
12429TIP3    H258779   2.122   6.543  13.170 -0.4874  0.2830 -1.2306
12430TIP3   OH258780   1.787   3.371  11.800 -0.0369  0.3884  0.0295
12430TIP3    H158781   1.744   3.363  11.886  0.5250  0.4618  0.3221
12430TIP3    H258782   1.851   3.300  11.799  0.7872  1.1155  0.1702
12431TIP3   OH258783   4.260   3.614   1.822 -0.2623 -0.3417  0.0978
12431TIP3    H158784   4.205   3.618   1.744  0.6554  1.6733 -0.5098
12431TIP3    H258785   4.349   3.619   1.789  0.1468  0.3317  1.2565
12432TIP3   OH258786   1.039   6.053   1.161 -0.3336 -0.9076  0.1175
12432TIP3    H158787   1.105   5.999   1.206  2.4480  1.6047 -0.6136
12432TIP3    H258788   1.061   6.143   1.185 -3.5404  0.1166 -0.2708
12433TIP3   OH258789   6.380   0.536   4.468  0.6011 -0.1323  0.3106
12433TIP3    H158790   6.357   0.449   4.500 -0.7436 -0.1382 -0.5591
12433TIP3    H258791   6.306   0.561   4.413  0.7740  1.7248  0.8465
12434TIP3   OH258792   1.620   0.988  16.641  0.1129  0.2700 -0.3453
12434TIP3    H158793   1.672   1.066  16.659  0.0288  0.0246  1.0000
12434TIP3    H258794   1.540   1.000  16.692  0.0759 -0.6626 -0.1712
12435TIP3   OH258795   6.405   6.374   0.136 -0.1567 -0.5840 -0.4493
12435TIP3    H158796   6.330   6.317   0.153  0.2558 -1.7192 -2.2576
12435TIP3    H258797   6.369   6.463   0.144 -0.9695 -1.0414  1.6613
12436TIP3   OH258798   1.000   4.415  13.638 -0.0217  0.0051 -0.3789
12436TIP3    H158799   1.041   4.329  13.644  0.8960  0.5580  2.4803
12436TIP3    H258800   1.014   4.442  13.547  1.2159 -2.0831 -0.8675
12437TIP3   OH258801   6.327   6.227  11.704 -0.0820  0.2715 -0.3830
12437TIP3    H158802   6.380   6.169  11.759  1.8509  0.9634 -1.4313
12437TIP3    H258803   6.273   6.167  11.651 -1.1704 -0.4181  1.4010
12438TIP3   OH258804   4.252   0.057   2.966 -0.4774 -0.2553 -0.5755
12438TIP3    H158805   4.290  -0.029   2.987  0.0984  0.1046 -0.1290
12438TIP3    H258806   4.280   0.114   3.037 -1.0778  0.2494 -0.7325
12439TIP3   OH258807   0.494   0.507  12.872 -0.4413  0.4617 -0.2289
12439TIP3    H158808   0.491   0.556  12.790  0.3735 -1.2918 -1.3569
12439TIP3    H258809   0.510   0.416  12.846 -1.6966 -0.4165  1.7838
12440TIP3   OH258810   6.021   4.437   3.614  0.1613 -0.3620  0.3276
12440TIP3    H158811   5.951   4.501   3.598  0.8438  0.6065  1.0695
12440TIP3    H258812   6.072   4.475   3.686  0.5571 -1.7849  0.8228
12441TIP3   OH258813   0.954   5.571   3.629  0.1937 -0.1994 -0.0187
12441TIP3    H158814   0.950   5.574   3.533 -2.1133 -0.9820 -0.0137
12441TIP3    H258815   1.047   5.564   3.649  0.6772 -1.1637 -2.2591
12442TIP3   OH258816   2.668   4.639   3.443 -0.4448 -0.9004  0.3300
12442TIP3    H158817   2.672   4.718   3.497  1.9063 -0.6700 -0.0505
12442TIP3    H258818   2.726   4.577   3.488  0.2128 -1.2905 -0.9938
12443TIP3   OH258819   1.429   2.936   1.239  0.5889  0.5499  0.1684
12443TIP3    H158820   1.334   2.932   1.228  0.4531  0.6056  1.2471
12443TIP3    H258821   1.458   2.996   1.170 -0.0659 -0.0275 -0.6367
12444TIP3   OH258822   1.167   3.844  11.707 -0.1302  0.1587  0.4010
12444TIP3    H158823   1.192   3.936  11.717 -0.1947  0.1075  1.0898
12444TIP3    H258824   1.085   3.847  11.659 -0.5468  0.5096  1.1211
12445TIP3   OH258825   5.015   5.116   5.328 -0.8616 -0.0971  0.0391
12445TIP3    H158826   4.933   5.089   5.368 -0.4769  2.1668  2.6848
12445TIP3    H258827   5.080   5.109   5.398  0.5630  1.0935 -1.0734
12446TIP3   OH258828   2.446   4.478   4.788 -0.4165 -0.0832 -0.8633
12446TIP3    H158829   2.518   4.417   4.772  0.5005  1.1218 -1.4918
12446TIP3    H258830   2.380   4.426   4.833  1.2003 -1.0121  0.5198
12447TIP3   OH258831   4.811   2.893   2.098  0.3030  0.3069  0.1942
12447TIP3    H158832   4.870   2.922   2.027 -1.0070  0.0547 -1.0417
12447TIP3    H258833   4.800   2.799   2.083 -1.6900  0.6204 -0.6356
12448TIP3   OH258834   5.633   6.302   5.684 -0.2503 -0.5777 -0.2427
12448TIP3    H158835   5.626   6.209   5.663 -0.3591 -0.4127 -0.9617
12448TIP3    H258836   5.668   6.304   5.773  1.0724 -1.3010 -0.7202
12449TIP3   OH258837   6.410   1.727  11.970  0.7501  0.9325  0.3099
12449TIP3    H158838   6.367   1.804  11.933  0.9010  0.1183 -1.7238
12449TIP3    H258839   6.383   1.655  11.912 -0.4929 -0.8334  2.9093
12450TIP3   OH258840   0.064   1.554  11.110  0.2114 -0.2883  0.4860
12450TIP3    H158841   0.117   1.510  11.043 -0.8721 -1.2774  0.2466
12450TIP3    H258842   0.004   1.609  11.059 -0.4413 -0.8466  0.6303
12451TIP3   OH258843   3.945   1.972   3.700 -0.2547 -0.0813  0.3356
12451TIP3    H158844   3.933   1.955   3.793 -0.5849 -2.1510 -0.0336
12451TIP3    H258845   3.891   1.906   3.656 -0.1770  0.8905 -1.3393
12452TIP3   OH258846   3.104   5.159   2.875  0.2569 -0.6184  0.5572
12452TIP3    H158847   3.081   5.072   2.842 -0.3037  0.1133 -1.1020
12452TIP3    H258848   3.194   5.173   2.846 -0.5960  0.4795 -1.8611
12453TIP3   OH258849   2.471   5.058   2.582  0.3602  0.3199  0.0606
12453TIP3    H158850   2.524   5.137   2.574  0.8096 -0.0211 -0.4292
12453TIP3    H258851   2.381   5.088   2.566  0.6485  0.5599 -1.2162
12454TIP3   OH258852   0.248   4.522   1.101  0.0957 -0.2053 -0.1255
12454TIP3    H158853   0.216   4.457   1.040 -0.9984  1.2557 -1.1734
12454TIP3    H258854   0.171   4.549   1.151  0.4859  0.4416  0.1461
12455TIP3   OH258855   6.555   6.742  12.486 -0.0722 -0.4466  0.4089
12455TIP3    H158856   6.649   6.728  12.493  0.2358  0.5731 -1.0775
12455TIP3    H258857   6.520   6.657  12.456  0.3397 -0.8773  1.1373
12456TIP3   OH258858   1.263   6.703   3.681  0.8804  0.2303  0.0897
12456TIP3    H158859   1.204   6.630   3.699 -0.6022  1.0796 -1.1256
12456TIP3    H258860   1.222   6.779   3.721  1.2804  0.7938 -0.5370
12457TIP3   OH258861   3.905   3.575   2.163  0.3233  0.7355 -0.1368
12457TIP3    H158862   3.960   3.610   2.093  2.6854 -0.2788  1.0904
12457TIP3    H258863   3.885   3.486   2.136  1.9839  0.0341  0.7858
12458TIP3   OH258864   0.944   2.425   5.954  0.2891  0.0446 -0.3990
12458TIP3    H158865   1.036   2.410   5.974 -0.0434 -0.4659  0.8329
12458TIP3    H258866   0.897   2.361   6.007 -0.7333 -0.5019 -1.8871
12459TIP3   OH258867   5.355   3.950  14.608  0.2188 -0.7262 -0.3488
12459TIP3    H158868   5.354   3.983  14.697  3.4169  0.0463 -0.5021
12459TIP3    H258869   5.443   3.967  14.576 -0.4248 -2.1247 -3.2550
12460TIP3   OH258870   2.774   3.301   3.408  0.5198 -0.7486 -0.1114
12460TIP3    H158871   2.800   3.389   3.380  1.8233 -1.1286 -0.1665
12460TIP3    H258872   2.715   3.315   3.482 -0.1954  0.1917 -0.8484
12461TIP3   OH258873   0.169   5.589  13.170 -0.0928  0.7576 -0.3449
12461TIP3    H158874   0.199   5.523  13.107  0.3816 -0.0720  0.7207
12461TIP3    H258875   0.077   5.568  13.185 -0.1911  0.9203 -0.6995
12462TIP3   OH258876   0.675   0.213  15.580 -0.2012 -0.1674 -0.0973
12462TIP3    H158877   0.610   0.241  15.516 -0.5936  0.1014  0.4055
12462TIP3    H258878   0.699   0.124  15.553  1.7154  0.9115 -2.2363
12463TIP3   OH258879   2.610   2.948  12.248  0.2208 -0.3726 -0.1294
12463TIP3    H158880   2.607   2.935  12.343 -0.2787  0.4755 -0.0163
12463TIP3    H258881   2.543   2.890  12.214  0.2228 -0.4888  0.0607
12464TIP3   OH258882   6.709   3.091  16.021 -0.0244 -0.5479  0.0143
12464TIP3    H158883   6.699   3.077  15.927 -0.5567 -2.3710  0.3130
12464TIP3    H258884   6.804   3.088  16.035  0.0383 -0.6310 -0.4126
12465TIP3   OH258885   1.199   0.230   6.027 -0.7924 -0.8228 -0.1086
12465TIP3    H158886   1.116   0.273   6.049 -0.8493 -1.0429  0.1035
12465TIP3    H258887   1.257   0.302   6.002 -1.1924 -0.7014 -0.7283
12466TIP3   OH258888   3.722   6.121  14.407  0.3791  0.4690  0.1727
12466TIP3    H158889   3.683   6.194  14.360 -0.1243  0.4732  0.5918
12466TIP3    H258890   3.666   6.108  14.483 -0.2132 -1.0800 -0.4806
12467TIP3   OH258891   6.688   1.070  15.611  0.1349  0.3571 -0.1895
12467TIP3    H158892   6.717   1.048  15.523  1.4819 -0.7289  0.4814
12467TIP3    H258893   6.625   1.002  15.634  0.2387  0.2929 -0.0937
12468TIP3   OH258894   3.874   6.125   4.618 -0.0451  0.7188  0.2623
12468TIP3    H158895   3.816   6.134   4.694  0.5171 -1.0053  0.9511
12468TIP3    H258896   3.952   6.083   4.653 -0.2721 -1.2770 -1.4508
12469TIP3   OH258897   2.935   0.962  15.178  0.1262  0.0187 -0.1338
12469TIP3    H158898   2.937   0.905  15.101  1.4826 -0.8451  0.4876
12469TIP3    H258899   2.991   1.036  15.155 -0.4599  0.3770 -0.4147
12470TIP3   OH258900   4.894   3.731  11.899  0.4393  0.0549 -0.0808
12470TIP3    H158901   4.800   3.730  11.879  0.4193  0.0017  0.0111
12470TIP3    H258902   4.936   3.699  11.820  0.2919 -1.1910  0.3120
12471TIP3   OH258903   2.097   1.085  12.741  0.1999  0.2613  0.4719
12471TIP3    H158904   2.088   0.990  12.731  0.5914  0.0170  2.0893
12471TIP3    H258905   2.008   1.119  12.732 -0.5459 -0.6728  3.2159
12472TIP3   OH258906   0.186   2.388  13.688  0.2302  0.1440  0.0879
12472TIP3    H158907   0.153   2.312  13.641 -1.9192  0.8569  0.3561
12472TIP3    H258908   0.224   2.352  13.769  0.1371 -0.7174 -0.2479
12473TIP3   OH258909   0.614   4.972  11.115 -0.1831  0.2001  0.1947
12473TIP3    H158910   0.622   5.034  11.188 -2.1177  0.0332  0.6067
12473TIP3    H258911   0.535   4.922  11.135  0.2020 -1.0140 -1.1745
12474TIP3   OH258912   6.541   2.342  15.547 -0.2813 -0.5464  0.6640
12474TIP3    H158913   6.475   2.370  15.610  1.0134 -1.0969  2.3179
12474TIP3    H258914   6.590   2.422  15.526  0.7816 -0.7496  2.2125
12475TIP3   OH258915   5.909   0.068   0.526  0.0284  0.2069 -0.5697
12475TIP3    H158916   5.997   0.102   0.539 -0.4091  0.9415  0.6905
12475TIP3    H258917   5.916  -0.026   0.546  0.6229  0.1560 -1.0130
12476TIP3   OH258918   3.149   5.816  15.989 -0.7717 -0.0768 -0.0441
12476TIP3    H158919   3.142   5.888  16.051 -2.0853 -0.7819  0.6698
12476TIP3    H258920   3.235   5.778  16.005 -0.4101  0.7933  0.1446
12477TIP3   OH258921   1.977   3.166   5.970  0.4082  0.2459  0.0324
12477TIP3    H158922   2.005   3.207   6.052  2.6268  0.5848 -0.7984
12477TIP3    H258923   1.882   3.160   5.976  0.0867  3.9293  0.9606
12478TIP3   OH258924   1.437   4.417  11.446  0.0452  0.5613  0.2496
12478TIP3    H158925   1.451   4.486  11.381 -1.6420  0.7366  0.0203
12478TIP3    H258926   1.351   4.381  11.424 -0.3512  0.2844  2.0931
12479TIP3   OH258927   2.295   3.339  11.567  0.6726 -0.7921  0.0096
12479TIP3    H158928   2.343   3.401  11.513 -0.6336  0.4652  0.2086
12479TIP3    H258929   2.330   3.352  11.655 -0.6141  0.8280  0.3371
12480TIP3   OH258930   2.018   5.964  15.508  0.1733  0.6060  0.0621
12480TIP3    H158931   1.936   5.987  15.551  0.2775 -0.9082  1.1370
12480TIP3    H258932   2.043   5.880  15.546  0.2036 -0.9357 -3.0608
12481TIP3   OH258933   6.330   2.343  12.007  0.1576  0.3219  0.0576
12481TIP3    H158934   6.366   2.256  11.995  0.1940  0.1871  1.0794
12481TIP3    H258935   6.407   2.400  12.018  0.1092  0.2978  0.5416
12482TIP3   OH258936   0.852   1.265   6.572 -0.2951 -0.1450 -0.0063
12482TIP3    H158937   0.795   1.217   6.632  1.3281 -1.5229  0.5232
12482TIP3    H258938   0.887   1.197   6.514  1.9446  0.3785  0.6491
12483TIP3   OH258939   1.611   4.207   1.788  0.1802 -0.1431 -0.1648
12483TIP3    H158940   1.657   4.127   1.763 -0.2171  0.3705 -2.8822
12483TIP3    H258941   1.519   4.190   1.766  0.1209  1.0942 -0.9624
12484TIP3   OH258942   6.432   2.305  13.175  0.1909  0.0206  0.6158
12484TIP3    H158943   6.376   2.283  13.249 -1.7476  0.1537 -0.7338
12484TIP3    H258944   6.439   2.223  13.126 -0.9342  0.5886 -0.5398
12485TIP3   OH258945   5.989   0.035   5.291  0.1117  0.5990 -0.4135
12485TIP3    H158946   5.975  -0.018   5.212 -1.3357 -0.3512  0.4221
12485TIP3    H258947   6.059  -0.010   5.339  0.5282  0.7996 -0.8278
12486TIP3   OH258948   3.255   4.045   3.313 -0.8618  0.2163 -0.9789
12486TIP3    H158949   3.339   4.002   3.295  0.1805  1.7050  0.0684
12486TIP3    H258950   3.279   4.134   3.338 -2.7269  0.5000 -0.0444
12487TIP3   OH258951   2.635   6.819   5.141 -0.2941 -0.0153  0.2215
12487TIP3    H158952   2.558   6.868   5.170  0.4811  1.4460 -0.1043
12487TIP3    H258953   2.702   6.840   5.206  0.2134 -0.2163 -0.2322
12488TIP3   OH258954   3.250   4.058  13.155  0.2607 -0.0357  0.8564
12488TIP3    H158955   3.337   4.036  13.189  1.2391 -0.2884 -1.6275
12488TIP3    H258956   3.252   4.032  13.063 -2.5766 -0.3261  0.7731
12489TIP3   OH258957   1.698   2.833   2.220 -0.0397 -0.5651 -0.2518
12489TIP3    H158958   1.737   2.778   2.288 -0.5744 -0.9905 -0.2847
12489TIP3    H258959   1.771   2.887   2.188  0.6479 -1.7101 -0.6813
12490TIP3   OH258960   0.084   0.229  14.963 -0.0186 -0.1933  0.2922
12490TIP3    H158961   0.083   0.139  14.931 -2.5930 -0.6975  1.5813
12490TIP3    H258962   0.171   0.261  14.938  0.4617 -2.5306 -1.4656
12491TIP3   OH258963   4.563   2.024  16.697 -0.0992 -0.1898  0.9213
12491TIP3    H158964   4.480   2.055  16.734 -0.6470 -1.1569  0.5199
12491TIP3    H258965   4.540   1.986  16.613  0.9877  0.9605  0.0553
12492TIP3   OH258966   6.421   4.477   1.621  0.4100 -0.2682  0.0553
12492TIP3    H158967   6.420   4.402   1.562 -2.3988 -1.0009  0.8598
12492TIP3    H258968   6.448   4.551   1.566  1.9869 -1.6097 -1.0628
12493TIP3   OH258969   5.332   6.116  14.070 -0.5893 -0.4308  0.0323
12493TIP3    H158970   5.383   6.049  14.025  0.3987 -0.6599  1.4277
12493TIP3    H258971   5.316   6.080  14.157  0.0871  1.1644  0.8798
12494TIP3   OH258972   5.252   2.259  14.346 -0.1126 -0.4516  0.3297
12494TIP3    H158973   5.266   2.199  14.420  0.0268 -2.1846 -1.0433
12494TIP3    H258974   5.169   2.302  14.365  0.0148 -0.7216  1.5799
12495TIP3   OH258975   4.747   3.712  12.414  0.7008  0.0488 -0.2989
12495TIP3    H158976   4.691   3.636  12.432  1.7609 -0.6023  0.3950
12495TIP3    H258977   4.709   3.752  12.336 -0.1455 -0.9428 -0.4144
12496TIP3   OH258978   2.292   1.746  11.515  0.2936 -0.0129 -0.4898
12496TIP3    H158979   2.387   1.759  11.511  0.2520  1.2504  1.5258
12496TIP3    H258980   2.282   1.661  11.558  0.5914  1.1609  2.1111
12497TIP3   OH258981   3.850   5.455   5.360 -0.4108  0.7088  0.1439
12497TIP3    H158982   3.842   5.499   5.275 -0.5244  0.8003  0.2013
12497TIP3    H258983   3.942   5.465   5.383 -0.1604 -0.1707 -0.4287
12498TIP3   OH258984   6.767   1.108   5.947  0.2447 -0.2648  0.1427
12498TIP3    H158985   6.770   1.013   5.954  0.9451 -0.3202 -0.7212
12498TIP3    H258986   6.753   1.125   5.854  2.4074  0.4727 -0.1243
12499TIP3   OH258987   0.938   5.014  12.482 -0.1347  0.2069  0.2938
12499TIP3    H158988   0.960   5.086  12.423 -2.7231 -0.9860 -2.3599
12499TIP3    H258989   0.894   5.057  12.556 -1.9360  1.4411 -1.3782
12500TIP3   OH258990   6.013   4.072  16.140 -0.5165  0.0550 -1.0234
12500TIP3    H158991   5.932   4.039  16.101 -0.1663  0.4617 -2.1357
12500TIP3    H258992   5.988   4.096  16.230 -2.2442  2.4156 -2.0281
12501TIP3   OH258993   2.606   2.895   6.525  0.1682 -0.5622 -0.4208
12501TIP3    H158994   2.518   2.880   6.558 -0.0692  1.3136 -0.0914
12501TIP3    H258995   2.643   2.808   6.514 -1.3276 -1.3492  0.5010
12502TIP3   OH258996   5.759   5.926   4.723  0.4330  1.2592  0.2750
12502TIP3    H158997   5.771   5.906   4.630 -1.3647  1.0784  0.0588
12502TIP3    H258998   5.679   5.977   4.727  1.3655  2.7126  1.5709
12503TIP3   OH258999   2.252   1.377  12.197 -0.0589 -0.4486  0.0001
12503TIP3    H159000   2.162   1.410  12.199  0.3439  0.6921 -0.1879
12503TIP3    H259001   2.266   1.351  12.106 -0.4203 -1.2864  0.1763
12504TIP3   OH259002   5.712   4.682   0.426 -0.2838 -0.3974  0.2580
12504TIP3    H159003   5.747   4.611   0.373 -1.4604 -1.0507  0.3312
12504TIP3    H259004   5.635   4.713   0.378 -0.2298  0.3205  0.6072
12505TIP3   OH259005   4.636   1.638  12.791 -0.4011  0.0643  0.4110
12505TIP3    H159006   4.638   1.656  12.885 -0.9961 -0.3510  0.5078
12505TIP3    H259007   4.726   1.616  12.768 -0.3474 -0.3018  0.9802
12506TIP3   OH259008   0.892   0.981  15.949  0.2378 -0.0884 -0.0050
12506TIP3    H159009   0.816   0.939  15.909  0.2145  0.3909 -0.4713
12506TIP3    H259010   0.915   1.052  15.889 -3.3819  4.7050  3.4594
12507TIP3   OH259011   5.693   1.107  12.558 -0.7573  0.1145 -0.1386
12507TIP3    H159012   5.786   1.091  12.546 -0.8104  0.3556 -0.8906
12507TIP3    H259013   5.652   1.021  12.557 -0.8508  0.1274 -2.5215
12508TIP3   OH259014   0.513   1.434  12.662  0.1709  0.6816 -0.2986
12508TIP3    H159015   0.515   1.424  12.567 -0.6119 -1.2618 -0.1575
12508TIP3    H259016   0.573   1.367  12.695 -3.0310 -2.0102  0.6682
12509TIP3   OH259017   2.463   5.564  14.853 -0.3282  0.1202 -0.5160
12509TIP3    H159018   2.369   5.556  14.873  0.0072 -2.5333  0.4811
12509TIP3    H259019   2.480   5.494  14.790  1.6274 -2.2032  2.3282
12510TIP3   OH259020   0.599   3.786   3.433  0.2124 -0.1586 -0.1296
12510TIP3    H159021   0.590   3.879   3.410  0.0504 -0.5759 -1.9261
12510TIP3    H259022   0.525   3.744   3.388  0.1848 -1.1487  0.8075
12511TIP3   OH259023   3.146   4.290   0.538 -0.3210  0.0042 -0.8070
12511TIP3    H159024   3.126   4.224   0.604 -0.4010  0.3319 -0.5029
12511TIP3    H259025   3.184   4.363   0.587 -0.7180  0.3990 -1.0751
12512TIP3   OH259026   1.696   0.634  16.463  0.5467  0.2101 -0.9217
12512TIP3    H159027   1.682   0.541  16.478 -3.2059  0.5657 -1.1655
12512TIP3    H259028   1.720   0.640  16.371  1.6230 -0.5435 -0.7046
12513TIP3   OH259029   0.876   3.031   3.284  0.1726  0.0308 -0.6851
12513TIP3    H159030   0.969   3.015   3.265  0.0061  0.6665 -2.1350
12513TIP3    H259031   0.830   3.001   3.207 -0.4943  3.2137 -1.6965
12514TIP3   OH259032   2.609   6.409   1.420  0.2491  0.2900  0.0655
12514TIP3    H159033   2.519   6.386   1.440 -0.1771  1.6092 -0.2193
12514TIP3    H259034   2.640   6.454   1.500  0.4700  0.3283 -0.0408
12515TIP3   OH259035   6.451   6.160  13.827 -0.2503  0.5812 -0.0447
12515TIP3    H159036   6.490   6.120  13.749 -1.1231  0.6622 -0.5341
12515TIP3    H259037   6.393   6.228  13.793  2.5434  3.6792  0.7675
12516TIP3   OH259038   2.684   4.109   1.004  0.0895  0.1888 -0.5757
12516TIP3    H159039   2.591   4.133   0.998 -0.6317 -2.6329 -1.9470
12516TIP3    H259040   2.687   4.044   1.074  1.1599  0.5558 -0.2576
12517TIP3   OH259041   2.863   4.837  16.489 -0.3320  0.0973  0.1310
12517TIP3    H159042   2.956   4.859  16.501 -0.3297  0.9628 -1.2933
12517TIP3    H259043   2.823   4.859  16.573  0.6531  0.2389  0.5857
12518TIP3   OH259044   2.580   4.038  11.920 -0.0636 -0.0021 -0.2431
12518TIP3    H159045   2.497   4.021  11.964  0.2820 -1.2389 -0.0445
12518TIP3    H259046   2.570   3.998  11.833  0.2850 -0.0547 -0.2615
12519TIP3   OH259047   3.627   2.338  15.007  0.0731 -0.0913  0.5326
12519TIP3    H159048   3.534   2.325  14.986  0.2280 -1.1392  0.4165
12519TIP3    H259049   3.663   2.249  15.010  1.4487  0.3564 -1.1851
12520TIP3   OH259050   1.411   6.015   3.880  1.0580 -0.3989  0.1644
12520TIP3    H159051   1.323   6.049   3.861  1.1732 -0.9228 -1.4489
12520TIP3    H259052   1.423   6.031   3.974  0.0270  1.4911  0.0373
12521TIP3   OH259053   5.559   3.246  16.395 -0.1392  0.0537  0.1081
12521TIP3    H159054   5.611   3.317  16.432  0.9456 -0.1206 -0.9898
12521TIP3    H259055   5.595   3.166  16.433 -0.2077 -0.0115  0.0400
12522TIP3   OH259056   1.115   0.356   1.193  0.5086 -0.3985  0.0009
12522TIP3    H159057   1.161   0.307   1.262 -0.2401 -1.2790 -0.1006
12522TIP3    H259058   1.113   0.446   1.224 -2.2582 -1.1679  2.5446
12523TIP3   OH259059   5.009   6.043   5.842 -0.9691 -0.2502 -0.6352
12523TIP3    H159060   5.103   6.035   5.854 -1.1964 -0.9952  0.8361
12523TIP3    H259061   4.971   6.012   5.924 -2.5278 -0.7517 -1.4983
12524TIP3   OH259062   4.355   2.368  11.605 -0.1285  0.6910 -0.1571
12524TIP3    H159063   4.366   2.275  11.588 -2.0293  0.2109  0.9087
12524TIP3    H259064   4.438   2.395  11.645  1.1887 -0.0390 -2.2718
12525TIP3   OH259065   1.026   3.605  17.170 -0.4603 -0.2881 -0.4218
12525TIP3    H159066   0.972   3.585  17.093 -0.7889  1.8795 -0.8463
12525TIP3    H259067   0.984   3.558  17.242 -0.1398 -2.3740 -1.5209
12526TIP3   OH259068   0.011   5.579   0.496 -0.3598  0.3777  0.1440
12526TIP3    H159069   0.026   5.620   0.581 -1.6287  0.1130  0.5145
12526TIP3    H259070  -0.007   5.487   0.516 -0.2828  0.2333 -0.4423
12527TIP3   OH259071   2.977   4.199  13.453  0.0799 -0.2111  0.1956
12527TIP3    H159072   3.047   4.141  13.424  2.5583  2.3918  0.4608
12527TIP3    H259073   2.998   4.283  13.412 -1.3761  1.3539  2.4374
12528TIP3   OH259074   3.422   0.867   4.010 -0.3418  0.0634 -0.4031
12528TIP3    H159075   3.383   0.867   3.923  0.7216  0.9395 -0.9177
12528TIP3    H259076   3.511   0.835   3.997 -0.8120 -1.8562  0.7270
12529TIP3   OH259077   3.001   6.332  13.379  0.5943 -0.0122  0.2801
12529TIP3    H159078   2.991   6.244  13.344  0.3214 -0.3535  1.1930
12529TIP3    H259079   3.084   6.364  13.341 -0.5275  0.3266 -2.0463
12530TIP3   OH259080   0.355   0.727  14.381  0.1919  0.0825 -0.0591
12530TIP3    H159081   0.357   0.645  14.430  0.1165  0.3655  0.4278
12530TIP3    H259082   0.447   0.746  14.363  0.1630 -0.5099 -0.8638
12531TIP3   OH259083   2.486   6.629  12.204 -0.2063  0.4518 -0.1178
12531TIP3    H159084   2.478   6.574  12.282  1.6517  1.1042  0.6033
12531TIP3    H259085   2.491   6.568  12.131 -1.3511 -0.1955  0.3330
12532TIP3   OH259086   5.575   3.599  11.443  0.2463 -0.5546 -0.5196
12532TIP3    H159087   5.620   3.516  11.456 -0.4549 -0.9424 -0.5077
12532TIP3    H259088   5.516   3.583  11.370 -0.3827 -0.2754 -0.0821
12533TIP3   OH259089   5.829   6.147   1.604 -0.4345 -0.0144  0.7611
12533TIP3    H159090   5.867   6.160   1.691  0.5272  0.5184  0.2767
12533TIP3    H259091   5.849   6.228   1.557 -0.4894 -0.5031 -0.1230
12534TIP3   OH259092   0.038   2.914   4.669  0.1114 -0.2615  0.0808
12534TIP3    H159093  -0.044   2.959   4.689 -0.8125 -0.9044 -2.0854
12534TIP3    H259094   0.095   2.935   4.744 -1.2445  2.0547  0.5557
12535TIP3   OH259095   0.879   5.130   2.382 -0.2114 -0.2998  0.0774
12535TIP3    H159096   0.844   5.070   2.448  1.3426 -0.4645  0.8123
12535TIP3    H259097   0.899   5.210   2.431  0.2592 -0.1541 -0.3424
12536TIP3   OH259098   0.397   2.215   5.921 -0.6828 -0.0657  0.4005
12536TIP3    H159099   0.379   2.179   6.007  1.3592 -1.7662  0.1970
12536TIP3    H259100   0.420   2.138   5.867 -0.7363  1.0730 -1.3278
12537TIP3   OH259101   4.569   2.153  15.628 -0.5788 -0.3568 -0.2161
12537TIP3    H159102   4.497   2.215  15.612 -0.3814  0.3757  1.5077
12537TIP3    H259103   4.633   2.172  15.560 -1.9895 -1.0048 -1.7670
12538TIP3   OH259104   6.783   5.357   5.555  0.6504  0.3313 -0.9376
12538TIP3    H159105   6.783   5.449   5.529  1.2634 -0.0226 -2.2706
12538TIP3    H259106   6.845   5.353   5.628 -2.5826  1.7038  2.1974
12539TIP3   OH259107   1.006   3.637   0.565  0.1215  0.5287 -0.7667
12539TIP3    H159108   0.983   3.717   0.611  1.1806  0.1205  0.5635
12539TIP3    H259109   0.964   3.567   0.615 -0.4122  0.2046 -1.6437
12540TIP3   OH259110   4.361   4.134  16.305  0.0152  0.4092 -0.0474
12540TIP3    H159111   4.336   4.091  16.387  0.2008  2.4814  1.1684
12540TIP3    H259112   4.284   4.127  16.249  0.0153 -1.3581  0.1198
12541TIP3   OH259113   4.801   2.970   6.510 -0.6187  0.2527  0.6170
12541TIP3    H159114   4.885   2.991   6.468 -0.2102  0.4785  1.5202
12541TIP3    H259115   4.813   2.998   6.601 -1.2475 -0.8380  1.0472
12542TIP3   OH259116   6.303   1.518  15.838  0.3097  0.0738 -0.5037
12542TIP3    H159117   6.375   1.555  15.788 -0.2387  1.4312 -0.3248
12542TIP3    H259118   6.261   1.593  15.880  0.7231 -0.9897  2.0024
12543TIP3   OH259119   2.371   0.071  13.127 -0.4230 -0.6761  0.4171
12543TIP3    H159120   2.309   0.132  13.166  0.7056  0.1121  1.0250
12543TIP3    H259121   2.323  -0.012  13.124 -1.2069 -0.3030  1.6883
12544TIP3   OH259122   2.442   5.253   3.061 -0.1296 -0.0372 -0.1422
12544TIP3    H159123   2.497   5.223   2.988 -0.9347 -0.2694 -0.6665
12544TIP3    H259124   2.485   5.333   3.091  0.2121  0.0702 -0.8787
12545TIP3   OH259125   6.093   6.617   0.368 -0.1680 -0.6780 -0.2782
12545TIP3    H159126   6.027   6.561   0.328 -0.6017  0.2817 -0.9518
12545TIP3    H259127   6.045   6.667   0.434 -0.1979  0.2124 -0.9483
12546TIP3   OH259128   3.332   6.042   3.317  0.1060 -0.2683  0.4529
12546TIP3    H159129   3.327   6.118   3.259  0.2572  1.6363  2.7595
12546TIP3    H259130   3.412   5.997   3.292  0.6723  1.0527 -0.1686
12547TIP3   OH259131   4.857   0.269  12.830  0.4485  0.3692  0.6830
12547TIP3    H159132   4.802   0.338  12.867  0.2990  0.8996 -0.4878
12547TIP3    H259133   4.796   0.210  12.785  0.6020 -0.3946  1.4456
12548TIP3   OH259134   3.312   0.834   2.699  0.5967  0.2469  0.1718
12548TIP3    H159135   3.263   0.900   2.650 -0.9840  0.6352  2.1459
12548TIP3    H259136   3.305   0.755   2.646 -0.6556  0.7456 -0.4518
12549TIP3   OH259137   2.274   5.236   2.459  0.3931 -0.3675 -0.0836
12549TIP3    H159138   2.194   5.289   2.447  0.6379 -0.4194 -2.3343
12549TIP3    H259139   2.342   5.286   2.413  0.5611 -2.7032 -2.6347
12550TIP3   OH259140   6.162   4.520  16.251  0.0081 -0.4305 -0.2475
12550TIP3    H159141   6.170   4.436  16.297  0.9204 -0.7025 -0.8567
12550TIP3    H259142   6.084   4.510  16.196  0.6034 -1.2449 -0.9847
12551TIP3   OH259143   2.744   0.212   4.020 -0.6232  0.1161  0.0482
12551TIP3    H159144   2.717   0.300   4.045  1.1331  0.3018  1.5435
12551TIP3    H259145   2.803   0.185   4.090  1.6885 -0.8377 -2.1156
12552TIP3   OH259146   5.635   5.045  13.085  0.0905  0.1708 -0.3918
12552TIP3    H159147   5.578   5.121  13.090 -2.5012 -1.6295 -0.9095
12552TIP3    H259148   5.678   5.042  13.171 -0.2016  1.8225 -0.1482
12553TIP3   OH259149   5.226   3.801  10.660  0.3363 -0.6620 -0.0147
12553TIP3    H159150   5.185   3.798  10.746  0.1885  0.5685 -0.0178
12553TIP3    H259151   5.261   3.890  10.653  2.7925 -1.5812 -0.1436
12554TIP3   OH259152   4.162   5.003  17.199  0.2310 -0.0420  0.1226
12554TIP3    H159153   4.139   5.054  17.277 -0.9652 -0.5625  0.1362
12554TIP3    H259154   4.119   4.919  17.212  1.7259 -0.8736 -0.1688
12555TIP3   OH259155   1.748   3.806  16.567  0.0030  0.0117 -0.0082
12555TIP3    H159156   1.715   3.741  16.505  2.2122  0.0879 -1.3460
12555TIP3    H259157   1.686   3.802  16.640 -3.1008  0.3484 -2.3652
12556TIP3   OH259158   0.818   3.073  15.128 -0.5530 -0.4785 -0.4163
12556TIP3    H159159   0.837   3.107  15.041 -1.1959 -0.3073 -0.4930
12556TIP3    H259160   0.834   3.147  15.187  2.8014 -1.3679 -0.0118
12557TIP3   OH259161   2.433   2.562   4.462  0.0746 -0.4200 -0.3567
12557TIP3    H159162   2.352   2.543   4.415 -0.4142  0.8740 -0.0830
12557TIP3    H259163   2.499   2.507   4.420 -0.7630 -0.8218 -1.1735
12558TIP3   OH259164   2.143   6.383   3.442  0.3780  0.3193 -0.1710
12558TIP3    H159165   2.177   6.453   3.387 -1.7235 -0.1216 -2.1817
12558TIP3    H259166   2.063   6.419   3.480 -0.4462 -0.7595 -0.8158
12559TIP3   OH259167   1.068   1.503  14.147  0.1927 -0.6223  0.4823
12559TIP3    H159168   1.125   1.523  14.221  2.1825 -2.1345 -0.5412
12559TIP3    H259169   1.079   1.577  14.087  1.1150 -0.9012  0.2938
12560TIP3   OH259170   1.530   1.602  11.815 -0.4899  0.1252 -0.1378
12560TIP3    H159171   1.537   1.524  11.870  2.0733  0.1933 -0.2472
12560TIP3    H259172   1.513   1.674  11.876 -0.3819 -0.1822  0.2599
12561TIP3   OH259173   6.802   4.993   2.213 -0.4124  0.4534 -0.1096
12561TIP3    H159174   6.786   4.949   2.297  2.9735 -2.4216 -0.7328
12561TIP3    H259175   6.749   4.943   2.150  0.0420  0.0572 -0.1870
12562TIP3   OH259176   6.020   0.016  12.586  0.1543  0.3170 -0.0076
12562TIP3    H159177   6.102   0.005  12.633  0.9773 -0.9601 -1.6252
12562TIP3    H259178   5.973  -0.066  12.600  0.6391 -0.3102 -1.6981
12563TIP3   OH259179   1.620   0.139  16.216 -0.5242  0.8961  0.9527
12563TIP3    H159180   1.649   0.049  16.203  0.7994  1.4247 -0.0002
12563TIP3    H259181   1.573   0.138  16.299 -1.4852 -0.8810  0.4240
12564TIP3   OH259182   5.523   1.185   2.027 -0.0926 -0.7128 -0.5098
12564TIP3    H159183   5.510   1.203   2.120  1.8323  0.1747 -0.3535
12564TIP3    H259184   5.504   1.092   2.018  0.4541 -1.0012  0.9651
12565TIP3   OH259185   1.757   6.087   4.216  0.1109  0.5716  0.2941
12565TIP3    H159186   1.708   6.129   4.286  2.0414 -0.2945  2.2935
12565TIP3    H259187   1.825   6.037   4.261  0.3592 -1.4976 -2.1293
12566TIP3   OH259188   5.131   5.431  16.584 -0.0849 -0.7788  0.1971
12566TIP3    H159189   5.149   5.524  16.599 -2.0128 -0.2641 -0.4264
12566TIP3    H259190   5.203   5.402  16.527 -1.0226  1.1400 -2.1713
12567TIP3   OH259191   5.216   2.518  16.375 -0.4285 -0.1484 -0.0248
12567TIP3    H159192   5.230   2.611  16.394  2.7208 -0.3216 -0.8759
12567TIP3    H259193   5.255   2.473  16.450  0.1232 -0.7708 -0.6722
12568TIP3   OH259194   0.438   0.016  15.337 -0.2672 -0.3258  0.6195
12568TIP3    H159195   0.524   0.054  15.321 -0.7282  0.2308 -0.7213
12568TIP3    H259196   0.392   0.081  15.390 -0.6195  0.4510 -0.5984
12569TIP3   OH259197   5.481   5.879  13.925 -0.4490 -0.2639  0.1564
12569TIP3    H159198   5.510   5.794  13.891  0.7208  1.1720 -2.8465
12569TIP3    H259199   5.545   5.900  13.993 -0.3446 -1.4721  0.4521
12570TIP3   OH259200   6.211   2.996   0.497 -0.7183 -0.0050 -0.0395
12570TIP3    H159201   6.229   2.936   0.424 -0.1221 -1.1896  1.0362
12570TIP3    H259202   6.288   3.053   0.500 -0.8942  0.2630 -0.5400
12571TIP3   OH259203   1.534   6.779  12.786 -0.1177  0.0831 -0.0776
12571TIP3    H159204   1.502   6.815  12.703  0.6759  0.3311 -0.2796
12571TIP3    H259205   1.496   6.691  12.790 -1.4329  0.6296  0.0512
12572TIP3   OH259206   6.041   3.506   3.491  0.2934 -0.6949  0.6774
12572TIP3    H159207   6.001   3.491   3.406  0.3057  0.0795  0.5238
12572TIP3    H259208   5.989   3.454   3.552  0.2554 -1.2184  0.2066
12573TIP3   OH259209   6.120   5.619   1.395  0.1006  0.4069  0.2553
12573TIP3    H159210   6.202   5.658   1.424  0.6729 -1.2357  0.9832
12573TIP3    H259211   6.143   5.571   1.315  0.2611 -1.3699  1.3107
12574TIP3   OH259212   2.878   5.134   5.522  0.1676  0.3245 -0.5932
12574TIP3    H159213   2.800   5.184   5.547  0.3706 -0.3264  1.5187
12574TIP3    H259214   2.846   5.073   5.455 -1.5354 -0.9537  1.2885
12575TIP3   OH259215   3.251   0.215   0.702 -0.1818 -0.2197  0.6544
12575TIP3    H159216   3.160   0.183   0.697 -0.3348  0.2800  0.1377
12575TIP3    H259217   3.294   0.177   0.626 -0.1365  0.0926  0.5220
12576TIP3   OH259218   3.817   0.350   1.370  0.1848 -0.2335 -0.1782
12576TIP3    H159219   3.803   0.444   1.369 -0.4449 -0.2343  2.2933
12576TIP3    H259220   3.906   0.338   1.337  0.0226  1.1465 -1.1724
12577TIP3   OH259221   0.421   2.610  15.870  0.3018  0.2150  0.5112
12577TIP3    H159222   0.391   2.587  15.958  0.3881 -0.5043  0.3577
12577TIP3    H259223   0.356   2.569  15.812 -0.2856  1.4610  0.2495
12578TIP3   OH259224   2.418   3.538  14.430  0.6659 -0.7868  0.4144
12578TIP3    H159225   2.388   3.555  14.520  1.9001 -0.6693  0.8217
12578TIP3    H259226   2.406   3.622  14.385  0.0871 -0.8324  0.4683
12579TIP3   OH259227   5.221   5.861  12.616 -0.2407 -0.5997 -0.4075
12579TIP3    H159228   5.242   5.894  12.528 -1.4660  0.6041 -0.2834
12579TIP3    H259229   5.128   5.839  12.611 -0.1854 -1.0330  0.4376
12580TIP3   OH259230   5.316   6.425  11.481 -0.6323  0.0183  0.1400
12580TIP3    H159231   5.254   6.377  11.427  0.6370  0.1149 -1.4987
12580TIP3    H259232   5.273   6.508  11.500  0.0654  1.5224 -3.7507
12581TIP3   OH259233   1.931   6.189   4.831  0.3783  0.4978 -0.0277
12581TIP3    H159234   1.857   6.172   4.773 -0.2072 -0.9770  1.1093
12581TIP3    H259235   2.006   6.148   4.787  0.4211  1.3770 -0.8249
12582TIP3   OH259236   6.098   1.073   1.160  0.1550 -0.1019 -0.1610
12582TIP3    H159237   6.061   0.993   1.122 -0.0298  0.8923 -2.2340
12582TIP3    H259238   6.069   1.072   1.251 -0.7124 -1.8640 -0.4048
12583TIP3   OH259239   0.977   4.816  15.151 -0.3327 -0.1794 -0.3158
12583TIP3    H159240   0.886   4.793  15.130 -0.4316 -0.3085  0.2383
12583TIP3    H259241   1.029   4.758  15.097 -0.5731  0.3542 -1.1461
12584TIP3   OH259242   1.270   3.112   4.335  0.3953  0.7776  0.0020
12584TIP3    H159243   1.180   3.088   4.359  0.1451  1.4295 -0.2579
12584TIP3    H259244   1.289   3.190   4.387  0.5081  1.1248 -0.5499
12585TIP3   OH259245   1.627   1.363   2.881 -0.3231 -0.0863  0.1850
12585TIP3    H159246   1.538   1.396   2.892  0.3524  1.3696  1.6523
12585TIP3    H259247   1.667   1.370   2.968  1.9086  1.3437 -0.8543
12586TIP3   OH259248   2.851   3.761  11.331  0.5063  0.1869 -0.7123
12586TIP3    H159249   2.827   3.813  11.254 -0.1587  0.6179 -0.2188
12586TIP3    H259250   2.810   3.806  11.405  2.7842  0.9395  0.1770
12587TIP3   OH259251   6.114   0.587   3.583  0.2228  0.2546  0.1714
12587TIP3    H159252   6.044   0.553   3.527  0.7750 -0.9604  0.1801
12587TIP3    H259253   6.186   0.605   3.523  0.9562 -1.4215  0.4823
12588TIP3   OH259254   5.408   1.834   1.460 -1.0439  0.4461  0.6344
12588TIP3    H159255   5.400   1.929   1.466  0.7844  0.6300  0.9332
12588TIP3    H259256   5.369   1.812   1.375  0.5533  1.7942 -0.5333
12589TIP3   OH259257   4.844   3.006  11.411 -0.2378  0.4260  0.2030
12589TIP3    H159258   4.807   2.981  11.326  0.7017  1.3749 -0.5203
12589TIP3    H259259   4.777   2.981  11.475 -1.3475  0.4789 -0.8924
12590TIP3   OH259260   1.850   0.718  12.269  0.2079  0.1701 -0.5572
12590TIP3    H159261   1.860   0.657  12.196  1.3668  1.1880 -1.2922
12590TIP3    H259262   1.863   0.664  12.347  1.2103 -0.5431 -1.1881
12591TIP3   OH259263   1.829   2.701  13.913 -1.2165 -0.1124  0.1545
12591TIP3    H159264   1.830   2.605  13.909 -0.6807 -0.2324  2.2255
12591TIP3    H259265   1.892   2.723  13.982  0.3281  1.8498 -1.7389
12592TIP3   OH259266   5.490   0.560   5.906 -0.0245  0.4698  0.3365
12592TIP3    H159267   5.500   0.601   5.820 -1.7651 -1.1420 -0.6820
12592TIP3    H259268   5.512   0.468   5.892  1.7079  0.5329  2.1253
12593TIP3   OH259269   5.838   1.805  13.935  0.0324 -0.1481  0.1557
12593TIP3    H159270   5.893   1.862  13.989 -0.3476 -0.0626  0.4513
12593TIP3    H259271   5.766   1.780  13.992  0.8302 -1.9409  0.4374
12594TIP3   OH259272   5.588   6.308  13.603 -0.1574 -0.1623  0.2010
12594TIP3    H159273   5.599   6.403  13.605 -0.9531 -0.0642  0.1404
12594TIP3    H259274   5.581   6.283  13.695 -1.2543  0.0050  0.1733
12595TIP3   OH259275   3.189   1.559  16.993 -0.3005  0.5809  0.0946
12595TIP3    H159276   3.246   1.495  17.035 -1.1328 -0.0114  0.3430
12595TIP3    H259277   3.225   1.570  16.905 -0.1607 -0.2472  0.0434
12596TIP3   OH259278   4.385   4.939  15.397  0.8180  0.1511 -0.3492
12596TIP3    H159279   4.326   4.863  15.401  0.0634  0.6928 -1.0138
12596TIP3    H259280   4.386   4.965  15.305  0.8582  1.1140 -0.0906
12597TIP3   OH259281   3.237   6.688   4.562  0.0462  0.3907 -0.3953
12597TIP3    H159282   3.161   6.702   4.619 -0.0694 -0.4428 -0.3391
12597TIP3    H259283   3.291   6.767   4.575  0.1895  0.0811  1.1330
12598TIP3   OH259284   2.941   0.339   3.396 -0.4290 -0.3917 -0.0758
12598TIP3    H159285   2.935   0.262   3.452 -1.2883  0.9817  1.8208
12598TIP3    H259286   2.969   0.410   3.454  3.1276  0.2533 -2.2856
12599TIP3   OH259287   2.277   2.824   0.895  0.2445 -0.5702  0.4076
12599TIP3    H159288   2.229   2.779   0.964  2.1784 -0.9146  1.6073
12599TIP3    H259289   2.337   2.882   0.941 -0.5341  1.5299 -1.0732
12600TIP3   OH259290   3.610   3.248   2.059 -0.0241 -0.2149  0.4675
12600TIP3    H159291   3.605   3.329   2.110 -1.1516 -0.4331  0.7285
12600TIP3    H259292   3.660   3.272   1.981 -2.0156  1.2893 -0.4436
12601TIP3   OH259293   3.369   2.365  13.043 -0.1574  0.2134  0.0513
12601TIP3    H159294   3.407   2.281  13.018 -0.4411 -0.2483  1.1013
12601TIP3    H259295   3.313   2.389  12.969  1.2756  0.3550 -1.0246
12602TIP3   OH259296   3.536   0.388   3.625 -0.2308  0.3507  0.5732
12602TIP3    H159297   3.525   0.483   3.621 -1.3705  0.2228  0.4661
12602TIP3    H259298   3.547   0.362   3.533 -1.3519  0.2274  0.4646
12603TIP3   OH259299   0.923   1.663  14.810 -0.2885  0.2413  0.2495
12603TIP3    H159300   0.981   1.635  14.881  0.6811 -1.6674 -1.2272
12603TIP3    H259301   0.965   1.632  14.730 -0.6061  3.5566 -1.3635
12604TIP3   OH259302   6.078   5.298  14.124 -0.6456  0.1683 -0.1937
12604TIP3    H159303   6.072   5.211  14.084 -0.7431 -0.1394  0.4826
12604TIP3    H259304   6.155   5.294  14.179  0.1710  0.9690 -1.2334
12605TIP3   OH259305   4.212   0.832   4.397  0.7206  1.0888 -0.5284
12605TIP3    H159306   4.131   0.801   4.357  0.4420  0.1695  0.6850
12605TIP3    H259307   4.269   0.754   4.400  0.6238  1.0577  1.0776
12606TIP3   OH259308   6.329   5.791   2.829 -0.0557  0.7568 -0.2593
12606TIP3    H159309   6.256   5.756   2.880  0.5527 -1.6229 -0.9246
12606TIP3    H259310   6.368   5.858   2.887 -2.2413  1.5662  0.4010
12607TIP3   OH259311   6.817   2.212  10.583  0.5608  0.5145 -0.4675
12607TIP3    H159312   6.809   2.305  10.559  0.9886  1.3197  2.1268
12607TIP3    H259313   6.729   2.177  10.569  0.0669  1.6398 -0.3252
12608TIP3   OH259314   6.149   2.764  10.701 -0.1146 -0.1737 -0.4189
12608TIP3    H159315   6.195   2.684  10.676  1.5559 -0.8939  4.0567
12608TIP3    H259316   6.063   2.734  10.730 -0.3338  0.0181 -0.8559
12609TIP3   OH259317   1.316   2.583   6.585 -0.0242 -0.0795  0.1655
12609TIP3    H159318   1.322   2.676   6.563  0.1252  0.1073  0.9647
12609TIP3    H259319   1.404   2.549   6.571 -0.9543 -1.1650 -4.5335
12610TIP3   OH259320   5.949   2.548  13.943  0.4833  0.0883 -0.1786
12610TIP3    H159321   6.030   2.502  13.963 -0.7340 -2.2276 -0.1384
12610TIP3    H259322   5.901   2.488  13.885 -0.9762  1.5971 -0.6178
12611TIP3   OH259323   1.503   0.396  14.269  0.8028  0.1413 -0.4975
12611TIP3    H159324   1.410   0.417  14.263  0.5026 -0.6417  0.8432
12611TIP3    H259325   1.513   0.315  14.219  0.0785 -1.5385  1.8978
12612TIP3   OH259326   3.405   6.322   3.717 -0.0668  0.3663 -0.5172
12612TIP3    H159327   3.415   6.414   3.741 -0.8923  0.3995 -0.2427
12612TIP3    H259328   3.434   6.273   3.795  3.8749  0.2256 -1.8659
12613TIP3   OH259329   5.456   6.437   4.169 -0.1825  0.0485  0.2735
12613TIP3    H159330   5.418   6.461   4.084  1.4163  1.8223 -0.0034
12613TIP3    H259331   5.463   6.342   4.165 -0.6078  0.0469 -1.3878
12614TIP3   OH259332   5.352   5.811   3.199  0.4682  0.4872 -0.0224
12614TIP3    H159333   5.415   5.739   3.199  0.3746  0.3834 -1.3455
12614TIP3    H259334   5.370   5.859   3.280 -0.4396 -1.8506  1.6811
12615TIP3   OH259335   4.735   5.058   5.405 -0.2031  0.4070 -0.4891
12615TIP3    H159336   4.709   5.084   5.317  0.4085 -1.5102 -1.2922
12615TIP3    H259337   4.655   5.063   5.457 -0.7682  0.6715 -1.3761
12616TIP3   OH259338   5.997   6.061  12.861  0.0459 -0.5111 -0.2593
12616TIP3    H159339   5.926   5.997  12.868 -0.0364 -0.2674  2.3945
12616TIP3    H259340   5.958   6.143  12.891  1.5473 -0.5516  2.0841
12617TIP3   OH259341   5.171   2.726  12.224  0.4143 -0.6353 -0.0773
12617TIP3    H159342   5.110   2.712  12.152  0.7189 -0.2843 -0.4138
12617TIP3    H259343   5.163   2.648  12.278  0.8010 -1.3119 -0.9598
12618TIP3   OH259344   4.411   3.321  12.302  0.3984  0.2017 -0.3021
12618TIP3    H159345   4.386   3.409  12.330  1.1235  0.8830 -1.6927
12618TIP3    H259346   4.494   3.305  12.346  0.4551  0.3653 -0.3478
12619TIP3   OH259347   5.497   1.345   2.631  0.1440  0.2046 -0.4671
12619TIP3    H159348   5.549   1.264   2.631 -0.7638 -0.3895 -0.5673
12619TIP3    H259349   5.450   1.344   2.548 -0.4161  0.4781 -0.1623
12620TIP3   OH259350   0.418   3.555  15.913  0.0517  0.1431  0.0639
12620TIP3    H159351   0.369   3.634  15.935  0.2141  0.7042 -1.4823
12620TIP3    H259352   0.509   3.577  15.933  0.0784  0.3078 -0.2281
12621TIP3   OH259353   3.971   0.281  12.737  0.0380  0.8920 -0.6064
12621TIP3    H159354   3.966   0.196  12.694  2.1639  1.4677 -2.1460
12621TIP3    H259355   3.894   0.329  12.705 -1.0262 -0.2990  0.0653
12622TIP3   OH259356   5.650   3.545   0.771 -0.6560 -0.2773 -0.2485
12622TIP3    H159357   5.568   3.588   0.743 -0.1494  1.4783  0.8107
12622TIP3    H259358   5.671   3.486   0.699 -3.0335 -1.0547 -0.3994
12623TIP3   OH259359   0.282   5.375   4.400  0.2438  0.3672 -0.4336
12623TIP3    H159360   0.368   5.336   4.414  0.0446  0.0701 -0.0268
12623TIP3    H259361   0.295   5.468   4.419  0.1698  0.1132  1.0120
12624TIP3   OH259362   0.539   5.544   2.976  0.0234  0.3453 -0.5227
12624TIP3    H159363   0.494   5.607   3.032 -1.9339 -2.2200  1.0522
12624TIP3    H259364   0.472   5.515   2.914  0.7521 -0.4747 -0.9475
12625TIP3   OH259365   3.955   2.477   3.148  0.1218 -0.3205  0.8714
12625TIP3    H159366   3.962   2.424   3.068 -0.9481  0.9624 -0.1098
12625TIP3    H259367   4.046   2.492   3.175  0.4905 -0.8340 -0.0561
12626TIP3   OH259368   0.337   6.421  15.588 -0.4323  0.0904 -0.5512
12626TIP3    H159369   0.404   6.394  15.650 -1.8744  0.2540  1.1400
12626TIP3    H259370   0.362   6.510  15.563  1.9433 -1.0582 -2.8250
12627TIP3   OH259371   2.599   0.720  13.800  0.0284 -0.3752 -0.3492
12627TIP3    H159372   2.600   0.641  13.747 -3.1001 -1.3782  0.8964
12627TIP3    H259373   2.676   0.711  13.857  1.2482 -1.1302 -2.0537
12628TIP3   OH259374   4.864   4.460   2.029  0.0510  0.6106 -0.2080
12628TIP3    H159375   4.815   4.392   1.981 -0.1600  1.5471 -1.3921
12628TIP3    H259376   4.954   4.452   1.998 -0.1173  1.3274 -0.9468
12629TIP3   OH259377   3.529   6.424  10.533 -0.4837  0.4230 -0.2877
12629TIP3    H159378   3.540   6.504  10.482  0.3985  1.3559  1.2845
12629TIP3    H259379   3.436   6.422  10.555 -0.5792  0.8309 -0.6422
12630TIP3   OH259380   3.658   3.698  12.317 -0.2247 -0.1225 -0.1765
12630TIP3    H159381   3.642   3.740  12.401  0.6956 -0.4436  0.1703
12630TIP3    H259382   3.571   3.678  12.283 -0.6920  1.6707 -0.1665
12631TIP3   OH259383   3.588   3.540  16.226  0.6160 -0.0159  0.4780
12631TIP3    H159384   3.603   3.451  16.259  0.9974 -0.3325 -0.5160
12631TIP3    H259385   3.622   3.597  16.295 -0.4998 -0.6078  1.5576
12632TIP3   OH259386   4.498   4.290  14.253  0.2469  0.4652  0.3544
12632TIP3    H159387   4.476   4.255  14.340  1.3705  0.3668  0.6231
12632TIP3    H259388   4.543   4.372  14.271  2.7170 -0.7233  0.0448
12633TIP3   OH259389   1.521   1.223   0.638  0.5160 -0.0887  0.0270
12633TIP3    H159390   1.542   1.310   0.672 -0.5431  0.0063  0.4857
12633TIP3    H259391   1.530   1.231   0.544 -4.2024  2.0070 -0.5537
12634TIP3   OH259392   2.708   5.647   5.007 -0.2623 -0.3830  0.0903
12634TIP3    H159393   2.775   5.715   5.007 -1.3577  0.7390 -0.8913
12634TIP3    H259394   2.677   5.643   4.916 -1.3509 -1.0612  0.4634
12635TIP3   OH259395   0.459   5.102   4.195 -0.3486  0.2540 -0.3696
12635TIP3    H159396   0.483   5.128   4.284  0.5271 -1.8714  0.0715
12635TIP3    H259397   0.474   5.181   4.142 -2.9075  2.2746  1.6041
12636TIP3   OH259398   3.629   3.969  13.644 -0.1134 -0.6655 -0.3313
12636TIP3    H159399   3.654   3.905  13.577  1.0138 -0.7492  0.1509
12636TIP3    H259400   3.705   4.026  13.651 -1.3993  1.2827 -1.3588
12637TIP3   OH259401   3.320   5.282  13.560  0.0895 -0.5042 -0.0601
12637TIP3    H159402   3.368   5.214  13.606  0.9259  2.2692  3.6641
12637TIP3    H259403   3.232   5.278  13.597  0.1478  0.3466  0.1990
12638TIP3   OH259404   4.877   6.229  15.717 -0.1234 -0.7073  0.1105
12638TIP3    H159405   4.904   6.223  15.809  0.5052  1.8183  0.1505
12638TIP3    H259406   4.794   6.276  15.719  0.3460  0.1816 -0.6632
12639TIP3   OH259407   1.412   4.530  11.888  0.3043  0.1066 -0.6016
12639TIP3    H159408   1.336   4.587  11.894 -0.6036 -1.0128 -1.2274
12639TIP3    H259409   1.395   4.460  11.951 -0.0438 -1.1102 -2.0064
12640TIP3   OH259410   5.439   2.315  14.677  0.4380  0.0560 -0.3842
12640TIP3    H159411   5.415   2.238  14.626  0.0608 -0.2965  0.3054
12640TIP3    H259412   5.360   2.337  14.726  1.5003 -1.2771  2.1235
12641TIP3   OH259413   1.933   4.589  16.329 -0.0803  0.2205 -0.3075
12641TIP3    H159414   1.957   4.561  16.241  0.7457  1.5423 -0.5291
12641TIP3    H259415   1.954   4.514  16.385  0.8601 -0.0792 -1.0359
12642TIP3   OH259416   3.287   0.120  10.778  0.1906  0.5263  0.1465
12642TIP3    H159417   3.341   0.199  10.772 -0.2785  0.7627 -2.6033
12642TIP3    H259418   3.201   0.152  10.806  0.2799  0.8442  0.0676
12643TIP3   OH259419   2.779   3.235  10.982  0.4566  0.6338 -0.0711
12643TIP3    H159420   2.831   3.155  10.975  2.3842  1.8417  0.0103
12643TIP3    H259421   2.694   3.205  11.016  1.3240 -1.2927  0.5048
12644TIP3   OH259422   0.390   2.654   6.461 -0.3188 -0.4689 -0.3648
12644TIP3    H159423   0.440   2.579   6.495 -0.5688 -0.3840  0.2002
12644TIP3    H259424   0.453   2.726   6.461 -0.5969 -0.1985  0.9714
12645TIP3   OH259425   0.551   2.184  15.076  0.5031 -0.0879 -0.7609
12645TIP3    H159426   0.638   2.165  15.110  0.5344  0.0496 -0.7597
12645TIP3    H259427   0.539   2.278  15.093  0.8657  0.1852 -1.8923
12646TIP3   OH259428   0.192   3.358   3.583 -0.5168  0.0480 -0.7645
12646TIP3    H159429   0.173   3.316   3.666 -2.4562  0.3717 -1.0046
12646TIP3    H259430   0.205   3.450   3.605  1.4932 -0.2399 -0.5365
12647TIP3   OH259431   4.271   1.458   2.887  0.2843  0.0450  0.1795
12647TIP3    H159432   4.351   1.414   2.915  0.1215 -0.0925  0.4357
12647TIP3    H259433   4.251   1.420   2.802  1.2803  1.1046 -0.5731
12648TIP3   OH259434   3.346   4.048  11.844 -0.3323  0.4764 -0.3860
12648TIP3    H159435   3.418   4.077  11.788  0.9380 -0.9059  0.4601
12648TIP3    H259436   3.310   4.128  11.881  2.1619  1.1387  0.8385
12649TIP3   OH259437   5.614   3.216   3.067 -1.0770 -0.0431 -0.0693
12649TIP3    H159438   5.565   3.140   3.037  1.0131 -1.1937 -0.7872
12649TIP3    H259439   5.674   3.181   3.133  0.3418  0.8201 -0.8481
12650TIP3   OH259440   4.778   2.974  12.218 -0.1401 -0.4647  0.2350
12650TIP3    H159441   4.852   3.003  12.271 -1.6744 -0.4970  2.5087
12650TIP3    H259442   4.758   2.886  12.250 -1.3580 -0.3339 -0.1012
12651TIP3   OH259443   4.345   5.632   2.125 -0.1497 -0.2196  0.3011
12651TIP3    H159444   4.349   5.542   2.159 -0.6076 -0.7895 -1.0697
12651TIP3    H259445   4.356   5.622   2.030 -1.4117  1.0529 -0.0147
12652TIP3   OH259446   4.370   5.310  17.166 -0.3567  0.3760 -0.5160
12652TIP3    H159447   4.380   5.305  17.261  1.6901  0.8080 -0.6812
12652TIP3    H259448   4.329   5.395  17.150  0.1267  0.6865 -0.0835
12653TIP3   OH259449   3.051   4.426   1.412 -0.4429  0.0860 -0.3822
12653TIP3    H159450   3.004   4.343   1.419 -0.0365 -0.1846 -0.7720
12653TIP3    H259451   3.087   4.441   1.499  0.0417 -0.4974 -0.4698
12654TIP3   OH259452   2.993   6.296   3.474 -0.0558  0.7743  0.4625
12654TIP3    H159453   3.045   6.376   3.468 -0.6851  1.1809  0.3228
12654TIP3    H259454   3.030   6.238   3.408  0.1465  1.0942  0.2939
12655TIP3   OH259455   1.000   4.801   2.439 -1.0470 -0.2292  0.0699
12655TIP3    H159456   0.916   4.847   2.444 -1.4044 -0.8667  0.1053
12655TIP3    H259457   1.002   4.765   2.350 -1.7824 -1.9702  0.7021
12656TIP3   OH259458   5.664   6.430  11.234 -0.3562 -0.0114 -0.1753
12656TIP3    H159459   5.756   6.409  11.217  0.0034  0.6831  0.7878
12656TIP3    H259460   5.661   6.446  11.328 -1.5507 -0.4043 -0.1412
12657TIP3   OH259461   5.641   0.587  10.607  0.1932  0.1871 -0.2893
12657TIP3    H159462   5.550   0.612  10.624  0.0979 -0.5607  0.3488
12657TIP3    H259463   5.692   0.664  10.629 -0.3222  0.8149 -1.2149
12658TIP3   OH259464   5.140   5.355  12.860 -0.0729  0.7505  0.1010
12658TIP3    H159465   5.149   5.365  12.955  0.8611 -1.0123  0.2444
12658TIP3    H259466   5.074   5.420  12.835  1.9613  3.5570  1.4347
12659TIP3   OH259467   4.634   5.684  14.052 -0.0844 -0.1125  0.1461
12659TIP3    H159468   4.575   5.633  13.996 -0.2758  1.9211 -1.6119
12659TIP3    H259469   4.588   5.767  14.066  0.7876  0.1336  1.8428
12660TIP3   OH259470   3.103   5.695   6.082 -0.0934  0.0185 -0.9517
12660TIP3    H159471   3.164   5.662   6.017  0.1906  0.5530 -0.9684
12660TIP3    H259472   3.157   5.751   6.138 -0.8108  1.5792 -1.7647
12661TIP3   OH259473   1.941   0.820   5.027 -0.3764 -0.8897  0.1638
12661TIP3    H159474   1.911   0.736   4.992  1.5846 -0.5085 -2.9323
12661TIP3    H259475   1.862   0.872   5.037 -1.4375 -2.4031  0.0139
12662TIP3   OH259476   0.465   0.571  16.698 -0.4323 -0.0626  0.0521
12662TIP3    H159477   0.460   0.598  16.607  2.0970 -0.4809 -0.2895
12662TIP3    H259478   0.495   0.649  16.745  0.4150 -0.4397  0.1507
12663TIP3   OH259479   6.067   1.354   6.191 -0.1617  0.2317  0.9685
12663TIP3    H159480   6.086   1.396   6.274 -0.8327  2.2048  0.1731
12663TIP3    H259481   6.003   1.286   6.213 -0.7093  1.0538  1.9832
12664TIP3   OH259482   1.334   3.407  13.449 -0.0955  0.1281  0.1763
12664TIP3    H159483   1.405   3.354  13.485 -0.2566 -0.6482 -0.6108
12664TIP3    H259484   1.268   3.409  13.518  1.4222  2.4689  1.7079
12665TIP3   OH259485   2.341   6.534   1.312 -0.1022 -0.2012 -0.1698
12665TIP3    H159486   2.277   6.464   1.299  0.2293 -0.7117  0.8502
12665TIP3    H259487   2.326   6.593   1.238  0.1163 -1.7156 -1.4946
12666TIP3   OH259488   2.946   2.498  15.390  0.1438  0.3715 -0.2730
12666TIP3    H159489   2.913   2.416  15.426 -2.0851  0.1795 -2.4538
12666TIP3    H259490   3.038   2.480  15.369  0.6642 -0.4070  2.3131
12667TIP3   OH259491   4.333   2.724   1.662 -0.4329  0.3123 -0.0331
12667TIP3    H159492   4.298   2.636   1.655 -3.2073  0.9588  3.1667
12667TIP3    H259493   4.419   2.713   1.704 -0.4509 -0.8959 -0.2919
12668TIP3   OH259494   1.513   0.959   2.482 -0.2540  0.1972 -0.3310
12668TIP3    H159495   1.508   1.026   2.551  0.7260  1.0156 -1.0177
12668TIP3    H259496   1.448   0.987   2.417 -0.8231 -0.2969  0.0182
12669TIP3   OH259497   6.218   0.368   2.594  0.0077 -0.2656 -0.1646
12669TIP3    H159498   6.205   0.288   2.644 -1.2778 -0.8850 -1.4029
12669TIP3    H259499   6.133   0.411   2.596  0.7011  1.1482  0.5530
12670TIP3   OH259500   3.689   0.980   1.450 -0.5752 -0.0184 -0.3991
12670TIP3    H159501   3.698   1.028   1.532  2.0901 -1.7623  0.4267
12670TIP3    H259502   3.656   0.894   1.475 -0.7982 -0.2061 -1.2865
12671TIP3   OH259503   2.209   1.662  13.029 -0.0366 -0.2199 -0.1418
12671TIP3    H159504   2.203   1.734  13.092  0.4347 -0.0922 -0.2412
12671TIP3    H259505   2.263   1.596  13.073 -1.0720 -0.8425  0.2492
12672TIP3   OH259506   2.158   5.985  13.087 -0.3219 -0.3298 -0.1243
12672TIP3    H159507   2.132   5.922  13.021 -0.3965  0.2026 -0.6086
12672TIP3    H259508   2.204   5.933  13.154 -2.9393 -1.3653  0.9782
12673TIP3   OH259509   0.632   3.710   6.534 -0.3588 -0.0250  0.2011
12673TIP3    H159510   0.703   3.670   6.583 -1.6482 -0.2841  1.9358
12673TIP3    H259511   0.663   3.799   6.516  0.2006  0.0353  1.3752
12674TIP3   OH259512   1.311   6.347  12.296  0.1686  0.2275  0.3114
12674TIP3    H159513   1.342   6.381  12.380  0.5168  1.9779 -0.4828
12674TIP3    H259514   1.230   6.300  12.318 -0.6024  1.9752  1.4594
12675TIP3   OH259515   5.828   1.829   4.551 -0.2119  0.2457  0.4337
12675TIP3    H159516   5.903   1.821   4.492 -1.1114 -2.9827 -0.4305
12675TIP3    H259517   5.858   1.792   4.634 -0.7515 -0.9495  0.1196
12676TIP3   OH259518   5.530   5.753  16.537 -0.1815  0.2148 -0.3191
12676TIP3    H159519   5.570   5.701  16.468 -0.6754 -0.4394 -0.1185
12676TIP3    H259520   5.444   5.776  16.503 -0.4649 -0.1896  0.1069
12677TIP3   OH259521   4.677   1.811  11.764  0.1662  0.1844  0.1794
12677TIP3    H159522   4.697   1.899  11.731 -0.2981 -0.0421 -0.7654
12677TIP3    H259523   4.607   1.825  11.827 -0.1976  0.4617 -0.2766
12678TIP3   OH259524   6.155   0.507   3.846  0.1245  0.1283  0.1386
12678TIP3    H159525   6.077   0.479   3.895 -1.5079  2.2402 -1.1106
12678TIP3    H259526   6.122   0.529   3.759  2.2332  0.6622 -0.5821
12679TIP3   OH259527   2.676   6.214   3.035 -0.6461 -0.1615  0.1510
12679TIP3    H159528   2.769   6.193   3.044 -0.7541 -0.4083  0.7347
12679TIP3    H259529   2.671   6.273   2.960 -0.2179 -1.5679 -1.0461
12680TIP3   OH259530   1.113   3.420   0.192  0.1865 -0.0166  0.2746
12680TIP3    H159531   1.076   3.346   0.241 -1.2529 -0.6477 -1.6355
12680TIP3    H259532   1.143   3.381   0.110  1.3235  1.2212  0.0681
12681TIP3   OH259533   6.210   4.692  13.691 -0.1020  0.1730  0.2931
12681TIP3    H159534   6.194   4.692  13.786 -0.7973  1.3966  0.2038
12681TIP3    H259535   6.130   4.730  13.654  0.4892  0.4599 -0.7211
12682TIP3   OH259536   1.645   2.480   2.034 -0.0319 -1.2717 -0.1971
12682TIP3    H159537   1.566   2.535   2.036  0.1620 -1.0118  0.9432
12682TIP3    H259538   1.633   2.424   1.956 -1.7081 -1.7802  0.3719
12683TIP3   OH259539   6.649   1.109  14.228  0.0242 -0.1899  0.6668
12683TIP3    H159540   6.596   1.094  14.150 -0.7975 -0.3277  1.2371
12683TIP3    H259541   6.588   1.097  14.301  0.7499  0.0523  1.3263
12684TIP3   OH259542   0.033   0.690  13.698 -0.3693 -0.1478  0.0578
12684TIP3    H159543  -0.033   0.654  13.757 -2.0614  2.6297  0.0384
12684TIP3    H259544  -0.016   0.720  13.622  1.2533 -0.0315 -0.9986
12685TIP3   OH259545   1.336   2.899   5.496  0.3629 -0.1106 -0.0844
12685TIP3    H159546   1.302   2.982   5.462  0.8070  0.0203 -0.2123
12685TIP3    H259547   1.289   2.887   5.579  0.3590  0.3157 -0.0197
12686TIP3   OH259548   0.718   5.097   0.864  0.6390  0.0501 -0.0076
12686TIP3    H159549   0.660   5.159   0.908  1.3913  1.3933 -0.8361
12686TIP3    H259550   0.738   5.031   0.931  1.1020  1.5791  1.4355
12687TIP3   OH259551   0.320   1.031  14.842 -0.1352  0.0747 -0.2337
12687TIP3    H159552   0.395   1.090  14.837 -0.7938  0.9282 -0.1444
12687TIP3    H259553   0.261   1.061  14.773  0.6963 -2.2059 -2.0833
12688TIP3   OH259554   4.450   2.690  13.001 -0.4388  0.0665  0.3101
12688TIP3    H159555   4.491   2.616  13.047 -1.8984 -0.7476  0.3607
12688TIP3    H259556   4.405   2.649  12.927 -1.5939  0.8589  0.5562
12689TIP3   OH259557   3.266   5.463   2.367  0.2399  0.1048  0.1183
12689TIP3    H159558   3.174   5.448   2.389  0.8360 -0.2892  2.7184
12689TIP3    H259559   3.282   5.555   2.389  0.9330 -0.3716  1.7570
12690TIP3   OH259560   6.617   0.099  11.857  0.6507  0.9813  0.1097
12690TIP3    H159561   6.593   0.016  11.815  2.7138  0.3720  0.0574
12690TIP3    H259562   6.707   0.115  11.830  2.6964 -0.1114  5.1454
12691TIP3   OH259563   1.018   1.956  13.933  0.0047 -0.1797  0.1432
12691TIP3    H159564   1.081   2.024  13.907  0.5501 -0.8323 -0.2564
12691TIP3    H259565   0.961   1.946  13.857 -0.1443 -0.1063  0.2423
12692TIP3   OH259566   5.159   0.676   2.303 -0.4052 -0.6773 -0.1637
12692TIP3    H159567   5.135   0.620   2.377 -0.5520  0.0396  0.3363
12692TIP3    H259568   5.076   0.693   2.258 -0.1539 -2.2909 -1.3762
12693TIP3   OH259569   2.289   6.741   1.111 -0.0268 -0.3853 -0.1914
12693TIP3    H159570   2.212   6.730   1.056  0.1377 -2.5387 -0.1041
12693TIP3    H259571   2.363   6.721   1.054  0.1692 -2.2785  0.6391
12694TIP3   OH259572   5.513   4.727   0.239 -0.7058 -0.0370  0.1236
12694TIP3    H159573   5.553   4.798   0.189 -3.2760  1.2199 -0.2714
12694TIP3    H259574   5.443   4.694   0.184 -1.1397 -1.2434  1.3292
12695TIP3   OH259575   5.446   1.352   3.056 -0.0392 -0.3861 -0.2696
12695TIP3    H159576   5.519   1.293   3.037 -0.0190 -0.8399  1.1253
12695TIP3    H259577   5.413   1.377   2.970 -0.7626 -3.3308 -0.9649
12696TIP3   OH259578   5.849   6.039  14.984 -0.5017 -0.1249 -1.1093
12696TIP3    H159579   5.827   5.956  15.025 -0.6838  0.0590 -0.8395
12696TIP3    H259580   5.789   6.046  14.910 -0.6165 -0.1408 -1.0174
12697TIP3   OH259581   6.260   0.490  14.423 -0.8115 -0.6757  0.7539
12697TIP3    H159582   6.199   0.432  14.470  0.6621 -1.7151  1.4429
12697TIP3    H259583   6.243   0.471  14.331 -1.5157 -0.9753  0.9354
12698TIP3   OH259584   2.583   0.287   1.337 -0.1920  0.1698 -0.9018
12698TIP3    H159585   2.609   0.307   1.247 -1.3357 -0.3427 -1.3646
12698TIP3    H259586   2.505   0.232   1.327  0.2262 -0.6900  0.3868
12699TIP3   OH259587   4.781   2.729  13.319  0.5198  0.2883  0.2417
12699TIP3    H159588   4.854   2.673  13.344 -0.7559 -1.1944  0.8601
12699TIP3    H259589   4.746   2.760  13.402  0.2808  0.7670 -0.0346
12700TIP3   OH259590   0.362   0.159  17.044  0.1367  0.7693 -0.3510
12700TIP3    H159591   0.338   0.242  17.004 -0.2471  0.1240 -1.5109
12700TIP3    H259592   0.395   0.106  16.972  1.5362  0.3114  0.5683
12701TIP3   OH259593   4.683   3.674  15.903  0.4899  0.2913 -0.1747
12701TIP3    H159594   4.710   3.747  15.958  1.6076  0.3237 -0.7282
12701TIP3    H259595   4.751   3.608  15.915 -0.8789 -0.9773  0.8705
12702TIP3   OH259596   3.099   4.096   0.739 -0.0326 -0.4667  0.0646
12702TIP3    H159597   3.036   4.154   0.782  0.0019 -0.0995 -0.3693
12702TIP3    H259598   3.175   4.094   0.797  0.7274  1.4313 -0.8066
12703TIP3   OH259599   6.632   6.719   5.018 -0.2301  0.6840  0.2334
12703TIP3    H159600   6.669   6.662   5.086  0.0992 -0.6100 -0.9836
12703TIP3    H259601   6.675   6.803   5.031  1.8236 -0.2858 -0.0177
12704TIP3   OH259602   0.985   3.379   6.422 -0.3305  0.8346 -0.2822
12704TIP3    H159603   0.996   3.330   6.503 -0.5082  1.5731  0.2037
12704TIP3    H259604   0.982   3.312   6.353  0.6855  0.2574  0.2232
12705TIP3   OH259605   0.891   1.195  11.373 -0.4379 -0.3607  0.1257
12705TIP3    H159606   0.880   1.272  11.318  1.8035  0.2811  0.4897
12705TIP3    H259607   0.851   1.124  11.323  0.2261  0.4678 -1.6769
12706TIP3   OH259608   5.765   2.918   3.905  0.1947  0.4478  0.2765
12706TIP3    H159609   5.844   2.961   3.937 -0.7063  1.6068  1.0045
12706TIP3    H259610   5.722   2.884   3.983  0.4568 -1.0765 -0.2076
12707TIP3   OH259611   4.382   2.302  12.163  0.7151 -0.0797  0.0848
12707TIP3    H159612   4.439   2.268  12.233  1.1972  0.3243 -0.1049
12707TIP3    H259613   4.303   2.248  12.168  0.4865  0.3592  1.3400
12708TIP3   OH259614   1.944   5.481   3.106  0.8892  0.1685  0.1029
12708TIP3    H159615   1.988   5.565   3.092 -3.0242  2.2114 -1.8745
12708TIP3    H259616   1.922   5.481   3.199  0.5677  1.6201  0.0610
12709TIP3   OH259617   2.369   6.455   4.301  0.0126  0.1029  0.1141
12709TIP3    H159618   2.307   6.429   4.233 -1.1449  2.1418  0.3277
12709TIP3    H259619   2.442   6.495   4.254  0.2702 -0.4940 -0.0133
12710TIP3   OH259620   5.017   2.957   4.129  0.0920  0.5729  0.9768
12710TIP3    H159621   5.069   2.883   4.098 -1.5354  0.1587 -0.9973
12710TIP3    H259622   4.927   2.926   4.125 -0.7844  3.0567 -1.3203
12711TIP3   OH259623   3.422   1.593  16.344  0.7630 -0.7592 -0.4373
12711TIP3    H159624   3.505   1.570  16.387  1.2688 -0.1976 -1.0855
12711TIP3    H259625   3.411   1.525  16.277 -0.3596 -2.0216  0.9363
12712TIP3   OH259626   1.187   6.674   1.532  0.4531  0.1650 -0.7216
12712TIP3    H159627   1.260   6.638   1.582  1.1607  0.4883 -1.5099
12712TIP3    H259628   1.113   6.673   1.594  0.9165 -0.8769 -0.1554
12713TIP3   OH259629   0.853   4.251  16.911  0.5259 -0.3350 -0.2940
12713TIP3    H159630   0.843   4.165  16.951 -0.2764  0.0268  0.3173
12713TIP3    H259631   0.929   4.289  16.954 -0.0723 -0.1212  0.5905
12714TIP3   OH259632   2.482   1.087  15.619 -0.1684 -0.0411  0.3096
12714TIP3    H159633   2.486   1.143  15.541 -0.8968  1.0360  1.0240
12714TIP3    H259634   2.389   1.081  15.640 -0.1495 -1.8347  0.0570
12715TIP3   OH259635   1.871   3.525  15.371 -0.0253  0.2416  0.7443
12715TIP3    H159636   1.925   3.450  15.398  2.8156  1.7915 -0.2728
12715TIP3    H259637   1.832   3.498  15.288 -0.0488 -0.5259  0.9916
12716TIP3   OH259638   0.157   0.378   2.718  0.2339 -0.2363  0.0822
12716TIP3    H159639   0.166   0.435   2.642  0.6932 -0.1959  0.1631
12716TIP3    H259640   0.122   0.296   2.683  1.3174 -0.5431 -0.3186
12717TIP3   OH259641   4.328   2.060   2.773 -0.4212  0.2086  0.1177
12717TIP3    H159642   4.399   2.063   2.708  1.4509 -0.2930  2.0425
12717TIP3    H259643   4.333   1.971   2.809 -2.9213 -0.2815 -0.5778
12718TIP3   OH259644   1.080   2.174   3.435 -0.4885  1.1458  0.4964
12718TIP3    H159645   1.132   2.237   3.386  0.4302  0.2123  0.2267
12718TIP3    H259646   1.057   2.220   3.516  0.9791  1.5240  0.7366
12719TIP3   OH259647   5.674   3.407   4.227 -0.1171  0.2824 -0.0338
12719TIP3    H159648   5.614   3.352   4.276 -0.2932 -0.5486 -1.1285
12719TIP3    H259649   5.648   3.496   4.248  0.4152 -0.0242  2.0701
12720TIP3   OH259650   1.361   2.541   3.607  0.3719 -0.0654  0.1537
12720TIP3    H159651   1.451   2.516   3.629  0.4164  1.3270  1.7391
12720TIP3    H259652   1.368   2.580   3.520  1.1905 -0.4620  0.0232
12721TIP3   OH259653   0.175   4.842   2.756 -0.6213 -0.5180 -0.0064
12721TIP3    H159654   0.267   4.822   2.775 -0.2105  1.1167 -0.1170
12721TIP3    H259655   0.127   4.767   2.791  0.7992 -1.8879 -0.8190
12722TIP3   OH259656   1.616   0.325  14.857 -0.2527  0.0655 -0.4632
12722TIP3    H159657   1.668   0.364  14.787  0.4691 -0.7503 -0.3949
12722TIP3    H259658   1.675   0.264  14.900 -0.1372  1.7995  2.0054
12723TIP3   OH259659   1.312   2.702   3.360  0.9643 -0.0496  0.1019
12723TIP3    H159660   1.391   2.751   3.380  2.2188 -0.9500 -2.3342
12723TIP3    H259661   1.296   2.717   3.267 -0.7503 -1.2677  0.1420
12724TIP3   OH259662   1.848   3.485  14.052 -0.5974  0.1250 -0.1226
12724TIP3    H159663   1.860   3.543  13.977 -0.3320 -1.2535 -1.1930
12724TIP3    H259664   1.937   3.456  14.074 -0.8685 -1.3051 -0.8083
12725TIP3   OH259665   3.641   3.008  14.073  0.4753  0.3311  0.1510
12725TIP3    H159666   3.620   2.936  14.012 -2.8180 -0.1163  1.6237
12725TIP3    H259667   3.659   2.964  14.156 -0.4027  1.1219  0.7789
12726TIP3   OH259668   4.630   1.598  13.823 -0.0137  0.1611  0.1147
12726TIP3    H159669   4.641   1.625  13.914 -1.6950  3.1876 -0.4543
12726TIP3    H259670   4.545   1.553  13.821 -1.0421  2.0366 -0.2595
12727TIP3   OH259671   4.843   4.615  13.380 -0.0971  0.3811 -0.3635
12727TIP3    H159672   4.791   4.689  13.410  0.6285 -0.2000  2.6432
12727TIP3    H259673   4.921   4.617  13.434  0.4723 -1.9222 -0.9866
12728TIP3   OH259674   1.539   5.092   0.270  0.2410  0.0586 -0.5088
12728TIP3    H159675   1.505   5.059   0.353 -0.5591  0.0454 -0.8366
12728TIP3    H259676   1.630   5.062   0.268 -0.1453 -1.1715 -0.2867
12729TIP3   OH259677   6.210   3.311   6.255  0.0328  0.3460 -0.5584
12729TIP3    H159678   6.239   3.364   6.329 -2.2065 -1.4383  1.7816
12729TIP3    H259679   6.289   3.266   6.225  1.1952  1.9593 -0.0325
12730TIP3   OH259680   2.495   4.110   0.332  0.6704  0.5338 -0.0428
12730TIP3    H159681   2.541   4.067   0.260  0.3712 -0.9362  0.6056
12730TIP3    H259682   2.562   4.125   0.398  0.3493 -1.3881  0.8022
12731TIP3   OH259683   5.643   4.680  12.710 -0.6910 -0.3240 -0.1813
12731TIP3    H159684   5.574   4.740  12.738  0.4323  1.2807 -0.6996
12731TIP3    H259685   5.720   4.736  12.699  0.1359 -1.6977 -1.7511
12732TIP3   OH259686   4.469   6.129   4.081 -0.0952 -0.1899 -0.3127
12732TIP3    H159687   4.534   6.073   4.037 -0.8457 -0.2967 -1.3349
12732TIP3    H259688   4.397   6.135   4.018 -0.2926  1.4392  0.0139
12733TIP3   OH259689   0.003   1.473  14.449 -0.1454 -0.0214  0.1275
12733TIP3    H159690  -0.027   1.383  14.465  1.8243 -0.6447  0.6924
12733TIP3    H259691  -0.075   1.527  14.460 -1.0223 -1.4933  1.6970
12734TIP3   OH259692   6.752   4.142  15.152  0.5003 -0.2115  0.2342
12734TIP3    H159693   6.704   4.206  15.204 -0.9027 -0.7790 -0.3164
12734TIP3    H259694   6.802   4.195  15.089 -0.3521  0.3747  0.0244
12735TIP3   OH259695   2.537   0.602  11.301  0.0061  0.4159  0.6090
12735TIP3    H159696   2.481   0.612  11.224  0.0010  1.2840  0.7074
12735TIP3    H259697   2.544   0.691  11.337  0.7178  0.1713  1.1074
12736TIP3   OH259698   4.722   2.077   3.701 -0.1269  0.1878 -0.0427
12736TIP3    H159699   4.672   2.027   3.766 -0.1989  0.3592  0.0346
12736TIP3    H259700   4.659   2.093   3.631  0.0411 -0.2749 -0.3017
12737TIP3   OH259701   6.793   0.128   3.504 -0.4747 -0.1462 -0.5110
12737TIP3    H159702   6.808   0.181   3.426  2.7091  0.8165  0.5935
12737TIP3    H259703   6.837   0.045   3.485 -2.1110 -1.0022 -0.7463
12738TIP3   OH259704   3.362   2.092  15.191  0.4800 -0.3099 -0.0892
12738TIP3    H159705   3.411   2.017  15.158 -0.0990 -1.4770  1.5683
12738TIP3    H259706   3.306   2.056  15.260 -1.9462  1.1425 -1.1712
12739TIP3   OH259707   1.562   6.183   5.984  0.0057 -0.4348  0.0027
12739TIP3    H159708   1.594   6.101   6.021 -0.4374  0.0754  1.6071
12739TIP3    H259709   1.466   6.173   5.983 -0.0451  0.0149  0.1131
12740TIP3   OH259710   0.296   0.676   2.974  0.1463 -0.1877  0.0553
12740TIP3    H159711   0.206   0.648   2.993  0.4063 -0.7777  0.4456
12740TIP3    H259712   0.287   0.734   2.899 -0.8533  1.6561  1.4935
12741TIP3   OH259713   4.689   6.804  16.862 -0.1281  0.0929 -0.0889
12741TIP3    H159714   4.627   6.744  16.904  1.1620 -1.2266  0.0024
12741TIP3    H259715   4.718   6.757  16.784 -0.9078  1.6477 -1.3731
12742TIP3   OH259716   3.694   5.048  11.953  0.4062  0.4452 -0.0709
12742TIP3    H159717   3.627   4.997  11.998  1.2806 -0.2192  0.4953
12742TIP3    H259718   3.664   5.050  11.862 -2.0557  2.8929  0.6511
12743TIP3   OH259719   1.473   3.208  11.890 -0.1304 -0.0630 -0.2202
12743TIP3    H159720   1.495   3.299  11.873 -1.2165  0.1080 -0.8548
12743TIP3    H259721   1.520   3.159  11.823 -0.2988  0.1235 -0.4759
12744TIP3   OH259722   6.488   0.895   6.335  0.3372  0.0119  0.1303
12744TIP3    H159723   6.492   0.802   6.359  0.7470 -0.5473 -1.8691
12744TIP3    H259724   6.576   0.915   6.303  0.3846  1.2389  0.9895
12745TIP3   OH259725   4.393   3.148   1.403 -0.1431  0.0141  0.3946
12745TIP3    H159726   4.362   3.105   1.483 -1.8062  0.3878  0.0020
12745TIP3    H259727   4.352   3.235   1.406 -0.4531 -0.0608 -0.9747
12746TIP3   OH259728   5.745   6.305   1.354 -0.3202  0.5945  0.0977
12746TIP3    H159729   5.672   6.248   1.332  0.2037 -0.1231  0.1670
12746TIP3    H259730   5.708   6.393   1.354 -0.7581  0.4680 -1.9181
12747TIP3   OH259731   4.923   3.385   4.087 -0.3058  0.1716  0.8621
12747TIP3    H159732   4.945   3.415   3.999  0.6770  1.1985  1.4292
12747TIP3    H259733   4.845   3.332   4.076 -2.2737  3.0888 -0.2157
12748TIP3   OH259734   5.636   1.649   2.648  0.1732 -0.5209  0.1675
12748TIP3    H159735   5.668   1.630   2.559 -0.6157 -0.2292 -0.1870
12748TIP3    H259736   5.663   1.573   2.699 -0.7989 -1.4934 -0.6957
12749TIP3   OH259737   6.330   4.598   5.348 -0.6112  0.2275  0.0781
12749TIP3    H159738   6.374   4.539   5.409 -2.4008 -0.4712  0.7759
12749TIP3    H259739   6.401   4.642   5.301  0.7945 -1.8965  0.0698
12750TIP3   OH259740   2.233   2.581  13.348  0.2705 -0.2188  0.4862
12750TIP3    H159741   2.209   2.674  13.357  0.6539  0.1148 -1.5156
12750TIP3    H259742   2.186   2.537  13.419 -0.0019  1.4828  1.4120
12751TIP3   OH259743   3.477   4.163  15.785  0.4014 -0.2636  0.7705
12751TIP3    H159744   3.564   4.152  15.747  0.3043  2.1920 -0.3662
12751TIP3    H259745   3.491   4.218  15.862 -0.2576  1.9487 -0.5824
12752TIP3   OH259746   5.887   5.194  11.699 -0.6001  0.4137  0.8137
12752TIP3    H159747   5.897   5.276  11.746  0.2307  0.7497  0.0892
12752TIP3    H259748   5.877   5.127  11.767 -0.4203  1.0083  1.4272
12753TIP3   OH259749   5.654   4.341  15.633  0.5674  0.3235 -0.1771
12753TIP3    H159750   5.587   4.405  15.656 -0.2327 -0.2671 -0.8194
12753TIP3    H259751   5.677   4.361  15.542  0.9573  0.2499 -0.0976
12754TIP3   OH259752   6.475   0.105   0.343  0.2352  0.2670  0.8099
12754TIP3    H159753   6.445   0.087   0.432  0.6311 -1.2246  0.6682
12754TIP3    H259754   6.409   0.165   0.308 -0.8242 -0.4036  1.5786
12755TIP3   OH259755   6.712   5.279  12.955  0.1052  0.5893 -0.0603
12755TIP3    H159756   6.715   5.353  12.895 -0.5134  0.4273 -0.3065
12755TIP3    H259757   6.621   5.277  12.986 -0.2295 -0.7907 -1.0047
12756TIP3   OH259758   4.655   5.151  10.694  0.2003 -0.2889  0.3578
12756TIP3    H159759   4.607   5.223  10.733  0.4618  0.0365  0.0900
12756TIP3    H259760   4.747   5.179  10.697  0.4737 -1.2265  1.5743
12757TIP3   OH259761   5.402   6.785   4.294  0.3144 -0.2313  0.2510
12757TIP3    H159762   5.325   6.763   4.242  0.4979 -1.0539  0.3096
12757TIP3    H259763   5.428   6.872   4.263  0.5148 -0.7600 -1.1641
12758TIP3   OH259764   0.653   5.577  14.138  0.6818  0.0218  0.0785
12758TIP3    H159765   0.631   5.559  14.229  0.4983 -0.4421 -0.0548
12758TIP3    H259766   0.748   5.565  14.133  0.5328 -1.2050 -0.0688
12759TIP3   OH259767   2.340   4.240   5.905  0.0456 -0.0728  0.0489
12759TIP3    H159768   2.371   4.327   5.931 -2.4892  0.3351  2.1275
12759TIP3    H259769   2.305   4.252   5.817 -0.0973  0.9542  0.2333
12760TIP3   OH259770   5.024   1.663   1.618 -0.1594  0.1553  0.4685
12760TIP3    H159771   4.947   1.708   1.585 -1.7923 -2.9129 -0.2338
12760TIP3    H259772   5.062   1.723   1.682 -2.9520  1.8898  0.6197
12761TIP3   OH259773   6.216   5.772   0.293  0.8292  0.3177 -0.2125
12761TIP3    H159774   6.304   5.807   0.294  1.7650 -1.2974 -4.4155
12761TIP3    H259775   6.161   5.844   0.261  0.7154  1.0573  1.5691
12762TIP3   OH259776   0.308   4.775   1.634  0.2172 -0.0274 -0.0822
12762TIP3    H159777   0.389   4.826   1.643  0.3427 -0.1198 -0.6368
12762TIP3    H259778   0.261   4.817   1.562  0.3241 -0.6926 -0.5480
12763TIP3   OH259779   3.269   0.668  15.002  0.0268  0.0155  0.3853
12763TIP3    H159780   3.230   0.582  14.982 -0.3394  0.6994 -2.1529
12763TIP3    H259781   3.194   0.728  15.002  0.5836  0.7523 -0.8015
12764TIP3   OH259782   6.234   5.329  16.216  0.1833 -0.6909 -0.2343
12764TIP3    H159783   6.265   5.258  16.159 -0.1714 -0.1782 -1.0923
12764TIP3    H259784   6.286   5.320  16.296 -0.7403 -2.7017  0.2028
12765TIP3   OH259785   2.906   4.306   1.686 -0.4493 -0.3816 -0.0161
12765TIP3    H159786   2.919   4.344   1.773  1.1477 -0.7589 -0.0493
12765TIP3    H259787   2.927   4.213   1.697 -0.9442 -0.5755 -0.6589
12766TIP3   OH259788   5.027   3.996  15.685  0.3147 -0.3878  0.2218
12766TIP3    H159789   5.066   3.910  15.701  0.5518 -0.3412 -0.1121
12766TIP3    H259790   4.985   4.019  15.768  0.4784 -0.7058  0.3934
12767TIP3   OH259791   6.015   1.715  11.692 -0.0878  0.7705 -0.1859
12767TIP3    H159792   5.924   1.691  11.710 -0.2432 -0.9079 -2.8132
12767TIP3    H259793   6.010   1.773  11.616  1.0605  0.5757 -0.4231
12768TIP3   OH259794   0.772   6.560  16.050  0.2059  0.3587  0.0656
12768TIP3    H159795   0.779   6.466  16.033  0.7400  0.1950  1.1184
12768TIP3    H259796   0.682   6.582  16.024 -0.3802 -0.7260  1.0598
12769TIP3   OH259797   4.091   1.040  16.209  0.3744 -0.1453  0.1594
12769TIP3    H159798   4.156   1.110  16.205  1.4346 -1.0157  1.3981
12769TIP3    H259799   4.052   1.048  16.296  0.5793 -1.1373  0.3556
12770TIP3   OH259800   3.383   2.332   0.608 -0.5894 -0.4902  0.2240
12770TIP3    H159801   3.375   2.253   0.554  2.6652 -1.1918  0.5507
12770TIP3    H259802   3.377   2.299   0.698  2.5781 -0.8033  0.4286
12771TIP3   OH259803   5.308   0.382  15.577 -0.5688 -0.4996  0.6897
12771TIP3    H159804   5.333   0.300  15.619  0.7857  0.3008  1.4997
12771TIP3    H259805   5.388   0.415  15.537 -1.6514 -0.8331 -1.9321
12772TIP3   OH259806   4.627   4.920   0.055  1.1041  0.2942  0.3159
12772TIP3    H159807   4.631   4.870  -0.026 -0.7450  1.4164 -0.5551
12772TIP3    H259808   4.562   4.874   0.109 -0.5891  1.6260 -0.4812
12773TIP3   OH259809   2.079   1.043  14.954 -0.4985  0.0589 -0.0298
12773TIP3    H159810   2.082   0.989  15.034 -0.0135 -0.8087 -0.6185
12773TIP3    H259811   1.991   1.029  14.919  0.0716 -1.5217 -0.9413
12774TIP3   OH259812   5.525   2.906  12.773  0.2741  0.1960  0.3810
12774TIP3    H159813   5.525   3.001  12.782 -0.6847  0.2657 -0.2681
12774TIP3    H259814   5.582   2.889  12.698  0.1188  0.2777  0.2463
12775TIP3   OH259815   3.389   5.244   2.803 -0.3444 -0.2061 -0.4335
12775TIP3    H159816   3.481   5.221   2.787  0.6136  2.1402  1.0906
12775TIP3    H259817   3.373   5.319   2.747 -0.0118  1.8701  2.0742
12776TIP3   OH259818   3.449   1.356  15.507 -0.1383  0.4867 -0.0503
12776TIP3    H159819   3.474   1.370  15.416 -0.6831  1.4820 -0.0605
12776TIP3    H259820   3.432   1.262  15.513  2.6660 -0.1045 -0.2568
12777TIP3   OH259821   6.060   3.515  16.843  0.2976 -0.2627  0.9258
12777TIP3    H159822   6.013   3.433  16.859  1.3706 -0.6070  2.5633
12777TIP3    H259823   6.142   3.506  16.893  1.3837  0.9721 -0.5212
12778TIP3   OH259824   4.027   3.965  15.658  0.4424  0.2151  0.2801
12778TIP3    H159825   4.031   4.021  15.580  1.4090 -0.4302 -0.1575
12778TIP3    H259826   4.118   3.954  15.684  0.3328 -1.7481 -0.0782
12779TIP3   OH259827   2.497   2.543  17.219 -0.1713 -0.3620  0.7829
12779TIP3    H159828   2.428   2.487  17.255  0.4548 -1.0319  0.9745
12779TIP3    H259829   2.575   2.488  17.222  0.0871 -0.1174 -0.7363
12780TIP3   OH259830   4.567   0.065   5.867  0.5602 -0.3104 -0.1983
12780TIP3    H159831   4.519   0.026   5.794  1.3853 -1.6322 -0.0601
12780TIP3    H259832   4.518   0.039   5.945  0.4752 -0.0867 -0.1739
12781TIP3   OH259833   6.000   4.251   3.954 -0.1528 -0.4410  0.1581
12781TIP3    H159834   6.088   4.238   3.917 -1.4562 -3.0262 -2.4086
12781TIP3    H259835   6.008   4.223   4.045  1.9681  0.9035  0.4692
12782TIP3   OH259836   1.727   4.959  15.601 -0.3642  0.0244  0.1664
12782TIP3    H159837   1.807   5.012  15.593 -0.6895  0.6143  0.6647
12782TIP3    H259838   1.693   4.953  15.512 -0.0622  0.2480  0.0341
12783TIP3   OH259839   3.750   3.649   1.504 -0.3618 -0.8507 -0.0114
12783TIP3    H159840   3.714   3.733   1.474 -0.9290 -0.3957  1.7860
12783TIP3    H259841   3.683   3.615   1.564 -0.2874 -2.7684 -0.9368
12784TIP3   OH259842   2.876   0.718   0.464  0.4183  0.3152  0.2816
12784TIP3    H159843   2.876   0.634   0.511 -1.1807 -0.0787 -0.3703
12784TIP3    H259844   2.869   0.784   0.533 -1.5345 -0.2374  0.6708
12785TIP3   OH259845   4.030   6.619  11.183 -0.1584 -0.1077  0.6142
12785TIP3    H159846   4.008   6.630  11.091  2.4614  0.2134 -0.0588
12785TIP3    H259847   4.069   6.702  11.209  0.0572 -0.5311  1.7194
12786TIP3   OH259848   5.130   2.482   4.839  0.0431 -0.2067  0.0358
12786TIP3    H159849   5.039   2.463   4.813 -0.5629  1.5307  0.7546
12786TIP3    H259850   5.128   2.484   4.934  1.5671 -3.3024  0.2396
12787TIP3   OH259851   5.040   5.003  15.147  0.0437  0.2835  0.4361
12787TIP3    H159852   5.055   4.954  15.227 -3.2720 -0.7591  0.5822
12787TIP3    H259853   5.005   4.938  15.086 -0.6417  1.6900 -0.7214
12788TIP3   OH259854   4.847   1.730   0.208 -0.1841 -0.3988  0.5639
12788TIP3    H159855   4.899   1.739   0.288 -0.7793  2.0221  0.7749
12788TIP3    H259856   4.879   1.650   0.167  1.5082 -0.6545  2.2516
12789TIP3   OH259857   3.110   0.019   3.721  0.5817 -0.4071 -0.2398
12789TIP3    H159858   3.045   0.019   3.791 -1.5124  0.9716 -2.0137
12789TIP3    H259859   3.143   0.109   3.719  1.3677 -0.6922 -0.3673
12790TIP3   OH259860   5.427   6.400  13.134 -0.0880 -0.1179 -0.8493
12790TIP3    H159861   5.386   6.484  13.113 -0.3235 -0.7122 -3.1114
12790TIP3    H259862   5.520   6.414  13.115  0.7049  0.8083  2.9178
12791TIP3   OH259863   4.014   0.216   5.165  0.4915 -0.3143  0.3467
12791TIP3    H159864   4.080   0.153   5.137  0.0648 -0.2229 -0.9616
12791TIP3    H259865   4.030   0.294   5.111 -0.7571 -0.3418 -0.1095
12792TIP3   OH259866   0.858   0.856  15.134  0.0468  0.3103 -0.4453
12792TIP3    H159867   0.882   0.765  15.116  0.8111  0.2796  0.6322
12792TIP3    H259868   0.842   0.858  15.228 -0.7351  1.1302 -0.5783
12793TIP3   OH259869   2.891   5.957   1.710 -0.1944  0.3776 -0.0434
12793TIP3    H159870   2.942   5.894   1.659  0.4523 -0.4160  1.5358
12793TIP3    H259871   2.915   5.940   1.801 -1.5906  1.5111  0.5751
12794TIP3   OH259872   5.462   2.983  14.607  0.0257  0.1214  0.4973
12794TIP3    H159873   5.429   2.984  14.697 -2.4949 -0.7977 -0.3369
12794TIP3    H259874   5.424   2.905  14.568  1.8725 -0.0414 -1.1301
12795TIP3   OH259875   4.599   3.951   5.097 -0.2642  0.5491  0.2976
12795TIP3    H159876   4.530   3.889   5.072  0.1372  0.3845 -0.4205
12795TIP3    H259877   4.580   4.030   5.048  0.1346  0.4551 -0.0151
12796TIP3   OH259878   4.478   1.681   0.356 -0.2660 -0.3975 -0.2648
12796TIP3    H159879   4.392   1.641   0.365 -0.0601 -0.7436  0.2479
12796TIP3    H259880   4.534   1.610   0.322  0.0343 -0.4778  0.3654
12797TIP3   OH259881   6.251   5.502  17.250 -0.1952  0.1434 -0.1263
12797TIP3    H159882   6.169   5.550  17.256 -0.2133  0.0708  0.2279
12797TIP3    H259883   6.290   5.510  17.337 -0.4530 -0.9322  0.1063
12798TIP3   OH259884   1.592   6.752  14.055  0.0458 -0.1425 -0.2293
12798TIP3    H159885   1.632   6.667  14.039 -0.2638 -0.7177  1.8113
12798TIP3    H259886   1.653   6.796  14.114  0.2675  1.1434 -1.3575
12799TIP3   OH259887   0.262   0.340  12.996  0.2599  0.0507 -0.3488
12799TIP3    H159888   0.354   0.339  12.971 -0.3973 -0.2029 -3.1209
12799TIP3    H259889   0.233   0.430  12.980 -0.2463 -0.1662 -0.6896
12800TIP3   OH259890   0.133   4.985  14.651 -0.2138  0.6989  0.3596
12800TIP3    H159891   0.222   5.018  14.638 -0.0930 -0.2356 -1.4598
12800TIP3    H259892   0.077   5.047  14.604 -0.2593 -0.0562 -0.6140
12801TIP3   OH259893   1.527   0.888  13.319 -0.1673  0.2970 -0.1388
12801TIP3    H159894   1.580   0.879  13.240  1.5681 -0.1188  1.0259
12801TIP3    H259895   1.581   0.938  13.379 -1.5012  0.7036  0.7673
12802TIP3   OH259896   6.106   1.076   3.049 -0.3822 -0.4293  0.1672
12802TIP3    H159897   6.143   1.094   3.135 -1.2782  0.2781  0.4122
12802TIP3    H259898   6.053   1.153   3.028  1.0432  0.1275 -1.7074
12803TIP3   OH259899   6.563   4.129  12.257  0.1922 -0.4397  0.3720
12803TIP3    H159900   6.601   4.067  12.319  0.4272 -0.5548  0.1195
12803TIP3    H259901   6.631   4.196  12.247  1.3865 -1.8733 -1.9109
12804TIP3   OH259902   4.952   2.050  12.694 -0.0379 -0.4151  0.6419
12804TIP3    H159903   4.983   1.971  12.739  1.5333  0.2876  0.8855
12804TIP3    H259904   4.985   2.122  12.748 -1.8289  0.4325  0.6733
12805TIP3   OH259905   0.388   4.298   0.441 -0.3465 -0.1599  0.3715
12805TIP3    H159906   0.457   4.234   0.421  0.8039  0.6726  1.5357
12805TIP3    H259907   0.316   4.245   0.475 -0.1468 -1.0064 -0.4679
12806TIP3   OH259908   2.469   5.511  17.081 -0.1389  0.4081 -0.0225
12806TIP3    H159909   2.503   5.460  17.008  0.6171  0.2860  0.4080
12806TIP3    H259910   2.508   5.472  17.159 -0.4900  0.8920  0.4084
12807TIP3   OH259911   1.528   4.936  13.097  0.3519  0.3006  0.2181
12807TIP3    H159912   1.481   5.015  13.071  1.7635  1.2035  0.3351
12807TIP3    H259913   1.564   4.957  13.183  0.7910 -0.4526  0.2278
12808TIP3   OH259914   2.859   4.554  11.007  0.2969 -0.1983  0.6243
12808TIP3    H159915   2.780   4.544  10.953  0.9038  0.1166 -0.3355
12808TIP3    H259916   2.892   4.641  10.984  2.1938 -1.2165 -0.7190
12809TIP3   OH259917   2.395   6.583   3.717  0.5710 -0.4311 -0.1838
12809TIP3    H159918   2.480   6.616   3.690  0.7370 -1.3929 -0.8960
12809TIP3    H259919   2.360   6.651   3.775  0.1334  1.8368 -2.9012
12810TIP3   OH259920   2.420   0.817  14.594  0.3453 -0.2807 -0.2346
12810TIP3    H159921   2.331   0.832  14.560  0.7285  1.5246 -0.5073
12810TIP3    H259922   2.458   0.755  14.531 -0.1697  0.2103 -1.0567
12811TIP3   OH259923   2.369   3.862  15.201  0.1591 -0.2537 -0.3858
12811TIP3    H159924   2.424   3.928  15.244 -1.1726  0.4388  0.3279
12811TIP3    H259925   2.343   3.803  15.271 -1.0100  0.1594 -0.4529
12812TIP3   OH259926   5.641   5.941   2.620  0.3690 -0.4599 -0.1420
12812TIP3    H159927   5.704   6.012   2.614 -0.1096 -0.0696 -0.7158
12812TIP3    H259928   5.557   5.981   2.596  0.0860 -1.2079 -0.4455
12813TIP3   OH259929   6.335   4.534  12.601  0.1532  0.1889 -0.0464
12813TIP3    H159930   6.299   4.448  12.621 -0.7616  0.2388 -1.3573
12813TIP3    H259931   6.430   4.524  12.613  0.2502 -1.4807 -1.7729
12814TIP3   OH259932   3.324   2.405  11.062  0.3914 -0.1814 -0.0583
12814TIP3    H159933   3.308   2.379  10.972  0.5731 -1.7862  0.3378
12814TIP3    H259934   3.262   2.476  11.079  0.0129 -0.2101 -1.2750
12815TIP3   OH259935   1.963   5.422  14.171  0.0644  0.4217 -0.7104
12815TIP3    H159936   2.036   5.419  14.109 -0.1397 -2.5210 -0.9516
12815TIP3    H259937   2.004   5.448  14.254  1.5520 -1.5203 -0.7479
12816TIP3   OH259938   4.679   0.070  15.053 -0.0196 -0.4497 -0.3500
12816TIP3    H159939   4.630  -0.009  15.030 -1.4257  0.6289 -1.1711
12816TIP3    H259940   4.652   0.135  14.988 -0.0502  1.1455  1.1898
12817TIP3   OH259941   2.933   0.895  11.972 -0.3874 -0.3206  0.2314
12817TIP3    H159942   2.940   0.816  12.026 -0.5211  0.9557  2.2254
12817TIP3    H259943   2.921   0.966  12.035 -1.9202  1.1213 -1.5495
12818TIP3   OH259944   4.198   1.906  15.946 -0.3013  0.5180  0.3161
12818TIP3    H159945   4.291   1.923  15.959 -0.4016  0.7355  0.7926
12818TIP3    H259946   4.154   1.963  16.010 -0.8416  1.6754 -1.0444
12819TIP3   OH259947   0.864   1.957   3.008  0.2837  0.1144 -0.4626
12819TIP3    H159948   0.906   2.033   3.049  2.2714 -1.5927  0.9121
12819TIP3    H259949   0.812   1.918   3.078  1.0025 -0.9574 -0.5090
12820TIP3   OH259950   6.324   2.838   5.396  0.6704  0.0152 -0.0005
12820TIP3    H159951   6.237   2.810   5.425  1.5504 -1.3231  1.5213
12820TIP3    H259952   6.337   2.792   5.314 -0.7971  1.7765 -1.3160
12821TIP3   OH259953   5.121   2.418   5.855  0.3430  0.4923  0.3847
12821TIP3    H159954   5.070   2.469   5.918  1.2215  0.3132  1.2722
12821TIP3    H259955   5.056   2.372   5.803 -0.4738  2.4012 -0.3732
12822TIP3   OH259956   2.991   0.314  16.547  0.7039  0.1303 -0.1751
12822TIP3    H159957   2.951   0.333  16.462  2.3777  0.8639 -0.8370
12822TIP3    H259958   2.989   0.397  16.594 -0.5040 -0.3480  0.6577
12823TIP3   OH259959   4.672   1.158   3.463  0.8574  0.0977 -0.1967
12823TIP3    H159960   4.718   1.114   3.534 -1.1257 -0.7804  0.6116
12823TIP3    H259961   4.666   1.092   3.394  1.2058  0.3672 -0.4909
12824TIP3   OH259962   6.356   1.594  17.084  0.0471  0.0314 -0.0539
12824TIP3    H159963   6.379   1.684  17.104  1.0917 -0.0481 -0.7863
12824TIP3    H259964   6.437   1.556  17.050 -0.5870 -0.9502 -0.5081
12825TIP3   OH259965   4.406   2.448  12.505  0.0219 -0.3961 -0.0877
12825TIP3    H159966   4.340   2.500  12.459  0.1150 -0.3512 -0.1722
12825TIP3    H259967   4.487   2.498  12.495 -0.4798  1.1763  2.6748
12826TIP3   OH259968   0.428   5.654   2.715  0.1059 -0.1104 -1.0005
12826TIP3    H159969   0.495   5.665   2.782 -3.0006 -3.2837  3.2066
12826TIP3    H259970   0.375   5.733   2.720  0.7459  0.3123 -0.8101
12827TIP3   OH259971   5.548   1.851   4.471 -0.2427  0.2591  0.2940
12827TIP3    H159972   5.536   1.937   4.511  0.0974  1.2777 -1.7166
12827TIP3    H259973   5.643   1.838   4.469 -0.3063 -0.3965  1.0199
12828TIP3   OH259974   6.171   5.296   5.025  0.4997 -0.7282  0.5267
12828TIP3    H159975   6.210   5.383   5.034  1.4968 -1.0456 -0.4900
12828TIP3    H259976   6.223   5.240   5.082  1.0817 -1.0085 -0.2624
12829TIP3   OH259977   4.706   6.640   4.916  0.6101 -0.0141  0.1844
12829TIP3    H159978   4.776   6.604   4.971  0.7311  0.1711  0.1515
12829TIP3    H259979   4.636   6.575   4.923  1.2230 -0.8103 -0.7401
12830TIP3   OH259980   0.642   1.016   3.546 -0.5756  0.6117 -0.0619
12830TIP3    H159981   0.609   1.102   3.519 -1.6275 -0.0388 -0.9089
12830TIP3    H259982   0.588   0.993   3.622 -0.7402  0.4174 -0.2368
12831TIP3   OH259983   6.440   4.034   3.732  0.6263 -0.1242  0.4888
12831TIP3    H159984   6.409   4.013   3.644  2.1366 -2.3683  0.4300
12831TIP3    H259985   6.454   4.129   3.730  0.8179 -0.1407 -1.7514
12832TIP3   OH259986   5.657   1.761   0.981 -0.0360  0.4201 -0.0677
12832TIP3    H159987   5.564   1.747   0.964 -0.4426  1.2597  1.3396
12832TIP3    H259988   5.682   1.688   1.037 -0.5984  1.7284  1.9787
12833TIP3   OH259989   2.176   3.468   0.114 -0.2049 -0.3669  0.1139
12833TIP3    H159990   2.082   3.480   0.103 -0.0625  0.4420 -0.2500
12833TIP3    H259991   2.189   3.469   0.209 -0.6673 -1.3761  0.2017
12834TIP3   OH259992   0.322   6.299  15.330 -0.1161  0.6014  0.3475
12834TIP3    H159993   0.305   6.352  15.408 -0.4950  2.0717 -0.6745
12834TIP3    H259994   0.258   6.331  15.266 -2.7066 -3.3653  0.5792
12835TIP3   OH259995   0.917   4.563   3.911  0.3583  0.4510  0.2505
12835TIP3    H159996   0.867   4.641   3.888  0.1095  0.6467  1.3638
12835TIP3    H259997   0.921   4.565   4.007 -0.8204 -1.5777  0.4114
12836TIP3   OH259998   1.492   5.690  12.900 -0.1082 -0.2465  0.0632
12836TIP3    H159999   1.550   5.641  12.843 -0.4246  0.6553 -1.0730
12836TIP3    H260000   1.419   5.716  12.844 -0.5643  0.4445  0.9393
12837TIP3   OH260001   3.932   5.277  10.405 -0.0811 -0.0807  0.0320
12837TIP3    H160002   4.015   5.295  10.361 -0.8242  3.6768 -0.1461
12837TIP3    H260003   3.926   5.182  10.406  4.6031 -0.6175  0.8144
12838TIP3   OH260004   0.076   4.471   0.412  0.0143  0.0451 -0.6689
12838TIP3    H160005   0.155   4.519   0.435 -1.3328  1.2452  1.7129
12838TIP3    H260006   0.030   4.457   0.494 -1.1910 -2.6677 -1.6611
12839TIP3   OH260007   2.614   0.847  14.138 -0.0507  0.1412  0.2867
12839TIP3    H160008   2.526   0.883  14.151 -0.0917  0.2159 -0.1678
12839TIP3    H260009   2.640   0.879  14.052  0.6750  0.6243  0.6765
12840TIP3   OH260010   5.485   1.072  11.518  0.0680  0.0228  0.0470
12840TIP3    H160011   5.403   1.024  11.515  1.8466 -3.4046  0.7687
12840TIP3    H260012   5.511   1.081  11.427 -1.2598  1.5873 -0.2195
12841TIP3   OH260013   4.114   1.575   1.737  0.3847  0.0673  0.2992
12841TIP3    H160014   4.019   1.590   1.744 -0.1590 -2.2265 -1.2131
12841TIP3    H260015   4.127   1.549   1.646  2.5090  0.3160  0.4838
12842TIP3   OH260016   2.772   1.756   4.807  0.5458 -0.4840 -0.1078
12842TIP3    H160017   2.707   1.712   4.862  0.3472 -1.4414 -1.0683
12842TIP3    H260018   2.736   1.750   4.718  1.9561 -1.0964 -0.6734
12843TIP3   OH260019   0.749   4.272   4.301 -0.3188 -0.4171  0.3519
12843TIP3    H160020   0.686   4.261   4.372 -0.9906  0.4969 -0.0864
12843TIP3    H260021   0.713   4.343   4.248 -0.3581 -1.7473 -1.4880
12844TIP3   OH260022   1.980   5.906  14.841 -0.0481 -0.3338  0.2248
12844TIP3    H160023   2.001   5.916  14.748  1.2771 -0.2550  0.5162
12844TIP3    H260024   1.957   5.813  14.850  1.6387 -0.7866  0.1374
12845TIP3   OH260025   4.276   1.945   2.381 -0.2822  0.8969 -0.1820
12845TIP3    H160026   4.333   1.934   2.305 -1.5500  0.3417 -1.0952
12845TIP3    H260027   4.313   2.019   2.428  1.6531  0.0406 -0.2836
12846TIP3   OH260028   1.016   1.761   3.418 -0.0554  0.9192 -0.0706
12846TIP3    H160029   1.051   1.770   3.330 -0.6242 -1.0217 -0.5397
12846TIP3    H260030   0.940   1.704   3.409  0.4665 -0.1824  1.7923
12847TIP3   OH260031   0.991   6.423   3.451 -0.0368 -0.1575  0.0581
12847TIP3    H160032   0.973   6.517   3.442 -0.4629 -0.0631  1.6260
12847TIP3    H260033   1.083   6.414   3.427  0.4520  0.9372  1.3752
12848TIP3   OH260034   2.436   2.012  16.236 -0.1975  0.2983 -0.0159
12848TIP3    H160035   2.516   2.054  16.267  0.6409 -0.1383 -1.5078
12848TIP3    H260036   2.368   2.042  16.297  1.0590  0.7907  1.1787
12849TIP3   OH260037   6.744   5.159  13.696 -0.2089 -0.1652 -0.3784
12849TIP3    H160038   6.772   5.233  13.642 -0.9724  0.4848  0.0944
12849TIP3    H260039   6.826   5.118  13.724  0.2417  0.7639 -0.2809
12850TIP3   OH260040   1.274   5.718  10.715  0.2431 -0.1059 -0.1330
12850TIP3    H160041   1.212   5.651  10.687 -0.6301  0.4541  0.3980
12850TIP3    H260042   1.285   5.703  10.809 -1.2630  1.4782  0.3456
12851TIP3   OH260043   2.451   1.925   0.172  0.2448 -0.1313  0.3191
12851TIP3    H160044   2.362   1.917   0.138 -0.1255  2.7517  0.3407
12851TIP3    H260045   2.486   2.005   0.130  3.0282 -1.4108 -0.0581
12852TIP3   OH260046   2.549   0.527   2.624 -0.6945 -0.1682  0.3334
12852TIP3    H160047   2.467   0.564   2.590  0.3111  1.4548 -0.4313
12852TIP3    H260048   2.616   0.592   2.602  1.7581 -3.5750 -3.6639
12853TIP3   OH260049   2.116   3.449   2.661 -0.0157  0.2313 -0.2080
12853TIP3    H160050   2.132   3.510   2.590  0.0094  1.6974  1.0027
12853TIP3    H260051   2.132   3.500   2.741  0.0408 -1.3719  0.8530
12854TIP3   OH260052   2.444   1.965   5.864 -0.1189  0.0149  0.2888
12854TIP3    H160053   2.530   2.004   5.851 -1.7527  3.5965 -0.8898
12854TIP3    H260054   2.449   1.927   5.952  3.0554 -1.3141 -0.3159
12855TIP3   OH260055   0.719   0.455   0.607 -0.4043 -0.2998 -0.2403
12855TIP3    H160056   0.786   0.522   0.590  0.2034 -1.0707 -1.0039
12855TIP3    H260057   0.649   0.502   0.652  0.8064  0.4611  0.9239
12856TIP3   OH260058   2.006   1.309  15.521 -0.0293 -0.3451  0.8665
12856TIP3    H160059   2.031   1.350  15.604  1.0709  2.3844 -0.6880
12856TIP3    H260060   2.084   1.262  15.493 -0.1625 -0.6477  0.9911
12857TIP3   OH260061   4.298   6.605   5.059  1.0400 -0.4577 -0.4850
12857TIP3    H160062   4.260   6.569   4.979  0.3213  1.1274 -0.9058
12857TIP3    H260063   4.360   6.539   5.088 -0.4534 -2.1660 -0.9939
12858TIP3   OH260064   3.360   3.776  15.672 -0.7353 -0.4167  0.0695
12858TIP3    H160065   3.319   3.694  15.645 -0.7604 -0.8955  1.4824
12858TIP3    H260066   3.454   3.760  15.661 -0.7181 -0.7787  0.6958
12859TIP3   OH260067   5.199   4.894  13.337 -0.7348  0.0625  0.2982
12859TIP3    H160068   5.138   4.896  13.411 -1.7053  1.9902 -0.5053
12859TIP3    H260069   5.282   4.927  13.373 -0.6666 -0.7470  0.9247
12860TIP3   OH260070   4.263   2.048   0.305  0.2607  0.3024 -1.0952
12860TIP3    H160071   4.233   2.014   0.220 -0.6760  0.0911 -0.6843
12860TIP3    H260072   4.226   1.988   0.369 -2.6751  2.8246 -0.2118
12861TIP3   OH260073   3.241   6.472   0.046  0.1477 -0.0569 -0.9695
12861TIP3    H160074   3.313   6.492   0.106 -1.0371 -0.0597  0.5258
12861TIP3    H260075   3.239   6.545  -0.015 -0.5682  1.6092  0.9464
12862TIP3   OH260076   0.577   3.070   4.864 -0.1792 -0.2530  0.5065
12862TIP3    H160077   0.484   3.072   4.841 -0.1197  0.8428  0.3246
12862TIP3    H260078   0.620   3.121   4.795  0.4335  0.0871  1.1282
12863TIP3   OH260079   4.356   0.705  14.945  0.1292  0.3858  0.3416
12863TIP3    H160080   4.291   0.678  15.011 -0.1742  1.9012  0.7073
12863TIP3    H260081   4.304   0.746  14.876  0.4471 -1.1843 -0.8808
12864TIP3   OH260082   4.870   5.048  13.199  0.4504 -0.2648 -0.0931
12864TIP3    H160083   4.917   5.117  13.246  0.6571  1.5310 -2.6996
12864TIP3    H260084   4.938   4.989  13.169  0.7556  0.5611 -1.1031
12865TIP3   OH260085   2.046   5.232  16.421 -0.1280  0.1169 -0.1962
12865TIP3    H160086   1.961   5.255  16.384 -0.7671  0.5704  1.4724
12865TIP3    H260087   2.107   5.294  16.381 -0.7751  0.5871 -0.4748
12866TIP3   OH260088   0.925   2.933   2.716  0.4200 -0.4564 -0.3491
12866TIP3    H160089   0.903   3.010   2.664  1.3224  0.0923  0.0495
12866TIP3    H260090   0.993   2.964   2.777 -1.1505 -0.8295  1.7261
12867TIP3   OH260091   4.159   6.450  16.813 -0.3713 -0.2578  0.5739
12867TIP3    H160092   4.086   6.481  16.758 -1.0049  0.3666  1.7211
12867TIP3    H260093   4.237   6.469  16.762 -0.9967 -1.0104 -0.7275
12868TIP3   OH260094   4.259   1.858   4.486 -0.1661  0.3915  0.2802
12868TIP3    H160095   4.344   1.828   4.515 -0.0110  0.9521  0.4307
12868TIP3    H260096   4.203   1.781   4.488  0.1368  0.1859  0.9541
12869TIP3   OH260097   4.915   2.780  15.975 -0.6180  0.0621 -0.7203
12869TIP3    H160098   4.956   2.861  15.945  0.3729 -0.9842 -2.3618
12869TIP3    H260099   4.946   2.768  16.064 -0.5438  1.3195 -0.5601
12870TIP3   OH260100   5.236   4.167  14.778  0.3180  0.1655  0.2889
12870TIP3    H160101   5.173   4.171  14.851  0.0624 -0.2211  0.0923
12870TIP3    H260102   5.321   4.161  14.821  0.1871  0.1831  0.5557
12871TIP3   OH260103   5.025   4.469  12.516  0.1672 -0.1926 -0.1893
12871TIP3    H160104   5.089   4.521  12.564 -0.4038  0.4574 -0.1069
12871TIP3    H260105   4.999   4.400  12.578  0.3594 -0.1083 -0.0124
12872TIP3   OH260106   4.731   2.725   0.656  0.0553  0.4156  0.8336
12872TIP3    H160107   4.755   2.657   0.718  0.8589  1.4413  1.6718
12872TIP3    H260108   4.642   2.749   0.681 -0.9332 -1.4936 -0.5696
12873TIP3   OH260109   3.550   3.346   5.133 -0.2536  0.7692  0.4043
12873TIP3    H160110   3.609   3.404   5.182 -0.9361  0.3544  1.7878
12873TIP3    H260111   3.462   3.370   5.162 -0.6417  0.0699 -0.1499
12874TIP3   OH260112   6.231   5.047  13.031 -0.2539  0.2632  0.2090
12874TIP3    H160113   6.222   5.051  13.126  0.8608 -0.3647  0.3597
12874TIP3    H260114   6.142   5.029  12.999 -0.6690  0.6477  1.1117
12875TIP3   OH260115   1.070   0.149  13.923  0.2039  0.2548  0.3125
12875TIP3    H160116   1.059   0.109  14.010  0.1264  0.0459  0.2073
12875TIP3    H260117   1.113   0.233  13.941  1.4709 -0.3885  0.4361
12876TIP3   OH260118   3.180   2.711   3.496  0.0422 -0.5748 -0.7165
12876TIP3    H160119   3.110   2.713   3.431 -0.6411  0.4888  0.0256
12876TIP3    H260120   3.217   2.799   3.493  0.0707 -0.5473  0.2611
12877TIP3   OH260121   4.546   2.630  11.566 -0.2677  0.2519  0.3538
12877TIP3    H160122   4.507   2.567  11.505 -2.9014  0.6254  1.4842
12877TIP3    H260123   4.598   2.576  11.626  1.5384 -0.2248 -1.5176
12878TIP3   OH260124   5.912   2.148   2.843  0.1907  0.2713 -0.6658
12878TIP3    H160125   5.884   2.173   2.931  0.0181  0.5364 -0.7938
12878TIP3    H260126   5.831   2.148   2.791  0.2467 -0.1699 -0.7594
12879TIP3   OH260127   4.176   4.341   5.529 -0.8241 -0.1775 -0.1075
12879TIP3    H160128   4.259   4.295   5.513 -1.0326  0.0362 -2.0237
12879TIP3    H260129   4.115   4.304   5.465 -2.4140 -0.7097  1.6203
12880TIP3   OH260130   0.847   4.071   5.779  0.1760  0.3904  0.2450
12880TIP3    H160131   0.776   4.115   5.731 -0.3839  0.5516  1.1892
12880TIP3    H260132   0.807   3.990   5.811  1.2239 -0.9205 -1.5580
12881TIP3   OH260133   3.167   5.728  14.348  0.3615 -0.2806 -0.2692
12881TIP3    H160134   3.116   5.778  14.412  2.0266  0.4783  0.5219
12881TIP3    H260135   3.105   5.710  14.277 -1.7268 -1.6836  1.7616
12882TIP3   OH260136   6.490   3.639   2.184  0.0859 -0.1632 -0.3805
12882TIP3    H160137   6.481   3.544   2.196  0.7931 -0.4127 -1.7050
12882TIP3    H260138   6.402   3.673   2.204 -0.3137 -1.1400 -0.3972
12883TIP3   OH260139   4.867   3.712   4.434 -0.1201 -0.6396  0.3639
12883TIP3    H160140   4.939   3.720   4.497 -0.7511 -0.7527  1.1053
12883TIP3    H260141   4.823   3.797   4.437  0.5593 -0.2150 -0.8239
12884TIP3   OH260142   1.972   2.128  14.097  0.3342 -0.2548  0.0750
12884TIP3    H160143   2.017   2.140  14.013 -1.4855 -0.1820 -0.9577
12884TIP3    H260144   1.917   2.051  14.082 -1.8510  1.1779  0.3220
12885TIP3   OH260145   0.834   2.861   5.250 -0.0890  0.3711  0.8432
12885TIP3    H160146   0.785   2.826   5.324 -1.1656  1.9632  0.9359
12885TIP3    H260147   0.884   2.934   5.287  1.0508 -0.1683  0.4082
12886TIP3   OH260148   4.485   3.670   2.450 -0.3983 -0.5432 -0.3646
12886TIP3    H160149   4.398   3.653   2.486  0.6418 -0.9314  2.1685
12886TIP3    H260150   4.511   3.587   2.409  0.1231 -1.6291  1.9902
12887TIP3   OH260151   4.110   6.495  11.414  0.0565 -0.0436  0.2476
12887TIP3    H160152   4.068   6.409  11.420  1.0018 -0.5510 -0.0866
12887TIP3    H260153   4.072   6.534  11.335 -1.0485  0.2406  0.8982
12888TIP3   OH260154   5.820   1.919   2.170  0.9637 -0.2196 -0.4083
12888TIP3    H160155   5.746   1.939   2.113  0.2612 -0.3080  0.4612
12888TIP3    H260156   5.892   1.971   2.135  0.0862  1.0816 -0.3245
12889TIP3   OH260157   1.999   6.012   1.953 -0.2536  0.1752  0.1930
12889TIP3    H160158   2.019   5.918   1.960 -1.1686 -0.4534 -3.4035
12889TIP3    H260159   1.990   6.027   1.858 -1.2971  3.6639  0.7197
12890TIP3   OH260160   2.463   5.547   3.567  0.0465  0.1029  0.3821
12890TIP3    H160161   2.482   5.639   3.545 -2.2140  0.1453 -1.7331
12890TIP3    H260162   2.494   5.498   3.492 -0.6764 -0.6501  0.5679
12891TIP3   OH260163   5.237   4.884   0.821 -0.3270  0.4505 -0.2259
12891TIP3    H160164   5.157   4.890   0.769  0.1421  1.9663 -0.8275
12891TIP3    H260165   5.300   4.841   0.763 -0.8627 -1.4372  0.5089
12892TIP3   OH260166   0.883   2.314   1.047  0.1258  0.4257  0.3605
12892TIP3    H160167   0.839   2.245   1.096  0.4230 -1.3053 -1.6444
12892TIP3    H260168   0.815   2.351   0.991  0.3998  0.3168 -0.0537
12893TIP3   OH260169   6.201   6.296  13.749  0.5619  0.5627 -0.2776
12893TIP3    H160170   6.243   6.377  13.777  0.5281  0.3786  0.3162
12893TIP3    H260171   6.123   6.289  13.804  1.3899 -0.6705  0.8065
12894TIP3   OH260172   5.358   3.533   3.635  0.2863 -0.3852 -0.4490
12894TIP3    H160173   5.318   3.500   3.716  0.4581  1.4599  0.4409
12894TIP3    H260174   5.446   3.495   3.635 -0.5558 -2.5114 -1.1736
12895TIP3   OH260175   6.555   3.239  14.978 -0.1881  0.4667  0.3417
12895TIP3    H160176   6.633   3.276  14.936  0.1939 -1.2502 -0.5688
12895TIP3    H260177   6.497   3.216  14.904 -2.1992  2.9072  1.0183
12896TIP3   OH260178   2.226   5.927   3.293 -0.4349  0.4103 -0.0804
12896TIP3    H160179   2.144   5.897   3.333  0.4316 -2.4341 -0.1808
12896TIP3    H260180   2.278   5.958   3.367 -0.8515  0.3108  0.2609
12897TIP3   OH260181   6.456   2.071  15.428  0.8064  0.2633  0.2318
12897TIP3    H160182   6.469   2.166  15.440  0.6038  0.2355  0.6807
12897TIP3    H260183   6.400   2.045  15.501  2.0569 -0.4622  0.9713
12898TIP3   OH260184   3.559   4.788   0.834 -0.0810  0.4866  0.0621
12898TIP3    H160185   3.607   4.817   0.912 -0.6339 -0.6137  0.8354
12898TIP3    H260186   3.597   4.839   0.762  0.3583  1.6191  1.0590
12899TIP3   OH260187   5.702   5.017   0.410  0.1224 -0.4035  0.1046
12899TIP3    H160188   5.681   4.966   0.331  0.4168  0.4158 -0.5179
12899TIP3    H260189   5.717   4.951   0.478  0.0135 -1.1304 -0.5625
12900TIP3   OH260190   4.164   0.468  16.838 -0.3714 -0.5998 -0.1097
12900TIP3    H160191   4.144   0.553  16.877 -1.0599 -1.4398  1.4407
12900TIP3    H260192   4.078   0.427  16.824  0.0125 -1.9636  1.3380
12901TIP3   OH260193   6.270   0.722  16.000 -0.1721  0.2240  0.0724
12901TIP3    H160194   6.282   0.778  15.923  1.6392 -0.3967 -0.1502
12901TIP3    H260195   6.328   0.759  16.066 -0.6773 -0.0566  0.6797
12902TIP3   OH260196   0.011   3.784  14.973 -0.0043 -0.0611 -0.0035
12902TIP3    H160197   0.044   3.767  14.884  2.0513 -0.0046  0.7022
12902TIP3    H260198  -0.002   3.879  14.976  2.7887  0.3795  0.6114
12903TIP3   OH260199   2.711   1.222   0.528 -0.1517  0.2044 -0.6770
12903TIP3    H160200   2.732   1.213   0.621  1.8397 -1.6877 -1.2151
12903TIP3    H260201   2.667   1.140   0.505 -0.7203  0.6937 -1.3794
12904TIP3   OH260202   4.084   6.017   0.121 -1.0587 -0.3408 -0.1601
12904TIP3    H160203   4.005   5.963   0.123 -1.2203 -0.2410 -2.3329
12904TIP3    H260204   4.149   5.966   0.170 -2.2475 -0.6958  1.1301
12905TIP3   OH260205   2.652   0.586  15.933  0.5349 -0.5672  0.2146
12905TIP3    H160206   2.708   0.590  16.011  0.6660 -0.1159  0.0974
12905TIP3    H260207   2.713   0.582  15.859  0.4258  0.3039  0.0651
12906TIP3   OH260208   6.703   0.028  16.037  0.0035 -0.4360 -0.4021
12906TIP3    H160209   6.772   0.038  15.971  0.1242  0.2178 -0.1790
12906TIP3    H260210   6.750   0.011  16.118  0.0299  1.9495  0.1504
12907TIP3   OH260211   6.285   2.693  16.752  0.1951 -0.0671 -0.2115
12907TIP3    H160212   6.251   2.604  16.747  1.2892 -0.4972 -0.3006
12907TIP3    H260213   6.271   2.718  16.843 -1.0502  0.0662 -0.4273
12908TIP3   OH260214   5.482   2.247  16.610  0.1242  0.7933 -0.7875
12908TIP3    H160215   5.530   2.164  16.614  0.6722  1.1018 -0.8377
12908TIP3    H260216   5.408   2.229  16.553  1.3081  0.8665 -2.4188
12909TIP3   OH260217   2.560   1.390  16.133  0.2026 -0.4082  0.3809
12909TIP3    H160218   2.504   1.409  16.208 -0.6365 -0.6556 -0.1644
12909TIP3    H260219   2.508   1.331  16.079  0.1502  1.0121 -1.1869
12910TIP3   OH260220   6.786   0.462  16.125 -0.3776 -0.8794  0.0897
12910TIP3    H160221   6.840   0.527  16.170  1.5457 -2.0064 -0.5079
12910TIP3    H260222   6.774   0.392  16.188 -1.3439 -0.5551  0.2838
12911TIP3   OH260223   2.119   4.544  11.504  0.3943  0.4669  0.4129
12911TIP3    H160224   2.072   4.622  11.473  2.3491  0.8150 -1.9964
12911TIP3    H260225   2.052   4.475  11.502 -0.6382  1.4379 -0.5190
12912TIP3   OH260226   0.709   0.509  11.432  0.2082 -0.0377  0.1925
12912TIP3    H160227   0.735   0.422  11.404  0.0292  0.2289 -0.8408
12912TIP3    H260228   0.791   0.551  11.458  0.2732 -0.5606  0.8530
12913TIP3   OH260229   0.816   2.482  14.312  0.0363 -0.2181  0.5980
12913TIP3    H160230   0.864   2.553  14.355  0.2925 -0.3322  0.5057
12913TIP3    H260231   0.761   2.526  14.247 -1.0165  0.0404  1.6221
12914TIP3   OH260232   3.368   1.960  12.505  0.0642  0.3043 -0.5055
12914TIP3    H160233   3.301   1.917  12.453  0.6852  1.4582 -2.3350
12914TIP3    H260234   3.347   2.053  12.499  0.1429  0.4906  1.3753
12915TIP3   OH260235   4.021   5.552  14.750  0.3919  0.5273 -0.2713
12915TIP3    H160236   3.988   5.614  14.685 -0.0878  0.7407  0.1678
12915TIP3    H260237   4.103   5.591  14.782  0.1827  0.8535 -0.1247
12916TIP3   OH260238   6.363   1.413   2.660  0.0311 -0.7219  0.0192
12916TIP3    H160239   6.382   1.354   2.734  0.6052  0.5067  0.8846
12916TIP3    H260240   6.310   1.360   2.601 -1.1283 -1.5096  1.6855
12917TIP3   OH260241   4.238   4.086   2.734  0.0756 -0.1041  0.5204
12917TIP3    H160242   4.248   4.101   2.828  1.4229 -1.4449  0.6190
12917TIP3    H260243   4.327   4.092   2.699 -0.1949 -1.1846 -0.4081
12918TIP3   OH260244   1.121   0.390  16.042 -0.3293  0.4946 -0.2025
12918TIP3    H160245   1.216   0.388  16.056 -0.1323  3.3984 -0.4135
12918TIP3    H260246   1.111   0.398  15.948 -0.7521  0.6571 -0.1470
12919TIP3   OH260247   4.827   2.444   4.318  0.5045 -0.0342 -0.9249
12919TIP3    H160248   4.907   2.419   4.364  0.4694  3.3870  1.3448
12919TIP3    H260249   4.758   2.434   4.383 -0.1980  1.2036 -1.4482
12920TIP3   OH260250   2.877   4.905   1.866  0.2590  0.0229  0.2168
12920TIP3    H160251   2.792   4.870   1.890  0.0386 -0.4483 -1.1797
12920TIP3    H260252   2.932   4.828   1.852  0.3262  0.2736 -0.9413
12921TIP3   OH260253   5.881   6.548  14.327 -0.3520  0.3236 -0.7722
12921TIP3    H160254   5.904   6.630  14.284 -0.1407  1.1782  0.8765
12921TIP3    H260255   5.960   6.524  14.376 -0.1696 -1.2656 -1.8028
12922TIP3   OH260256   2.452   2.585   5.263  0.1567  0.1006  0.1144
12922TIP3    H160257   2.498   2.511   5.223 -1.9982 -1.3606  0.1799
12922TIP3    H260258   2.521   2.649   5.282  1.7351 -0.6528 -2.5891
12923TIP3   OH260259   1.948   6.427  15.307  0.3032  0.4946  0.2471
12923TIP3    H160260   2.042   6.432  15.325  0.7741 -0.7126 -1.5492
12923TIP3    H260261   1.917   6.359  15.366 -0.0114  2.5566  2.6236
12924TIP3   OH260262   3.309   6.396   5.745  0.6613  0.1009  0.0400
12924TIP3    H160263   3.267   6.460   5.688  0.7432  0.6075  0.5466
12924TIP3    H260264   3.387   6.441   5.778 -0.3378  0.4688  1.9820
12925TIP3   OH260265   2.271   6.339   5.055  0.2987 -0.0254 -0.5585
12925TIP3    H160266   2.342   6.326   4.992  1.9223  2.0436  0.6845
12925TIP3    H260267   2.312   6.322   5.140 -0.3658  2.1829  0.2629
12926TIP3   OH260268   5.273   4.178  17.247  0.0427  0.2198 -0.1426
12926TIP3    H160269   5.242   4.251  17.193 -1.5901 -0.2774  0.0531
12926TIP3    H260270   5.195   4.123  17.260  0.8585 -0.7167  1.0575
12927TIP3   OH260271   3.838   5.980  15.590 -0.2170  0.4409  0.0538
12927TIP3    H160272   3.881   5.929  15.658  0.7729 -0.0041 -0.8813
12927TIP3    H260273   3.763   5.927  15.564 -0.5396  0.5616  0.6938
12928TIP3   OH260274   0.419   2.166  16.006 -0.2431  0.2242 -0.0644
12928TIP3    H160275   0.423   2.073  16.027 -1.5440  0.0643 -0.4298
12928TIP3    H260276   0.428   2.210  16.090 -0.4050 -0.2600  0.2118
12929TIP3   OH260277   5.146   5.880   1.884 -0.4337 -0.3227 -0.1573
12929TIP3    H160278   5.062   5.912   1.917 -0.2202  2.1801 -1.7896
12929TIP3    H260279   5.204   5.882   1.960 -1.3057 -0.0048  0.5155
12930TIP3   OH260280   0.973   1.726  15.129  0.3776 -0.1253 -0.0228
12930TIP3    H160281   1.028   1.729  15.207  1.1950 -1.1391 -0.5400
12930TIP3    H260282   1.021   1.776  15.063  0.3578 -0.4376 -0.2782
12931TIP3   OH260283   4.688   3.563  13.503 -0.0243  0.6107 -0.3264
12931TIP3    H160284   4.613   3.612  13.537  1.1106  2.0146  0.2448
12931TIP3    H260285   4.696   3.487  13.561 -1.6536 -0.1656 -1.0673
12932TIP3   OH260286   0.049   1.888  13.122 -0.2197 -0.3034  0.0090
12932TIP3    H160287  -0.033   1.929  13.150 -1.5276 -2.7839  0.0237
12932TIP3    H260288   0.086   1.950  13.059 -1.5673  1.3330  0.7328
12933TIP3   OH260289   4.879   1.849   0.521  0.4137 -0.3162  0.4172
12933TIP3    H160290   4.948   1.871   0.458  0.3240 -0.7381  0.1669
12933TIP3    H260291   4.852   1.933   0.558  1.9844 -0.2582  1.5056
12934TIP3   OH260292   6.817   4.348  12.839  0.9828  0.3125  0.3421
12934TIP3    H160293   6.852   4.365  12.927  0.2957  2.3127  0.2776
12934TIP3    H260294   6.732   4.391  12.839 -0.0803 -1.6571 -0.5831
12935TIP3   OH260295   5.520   1.353   1.812 -0.6449  0.1926  0.1024
12935TIP3    H160296   5.522   1.278   1.871 -1.6802  0.1190  0.0725
12935TIP3    H260297   5.498   1.316   1.727  2.2742  0.1045 -0.7102
12936TIP3   OH260298   5.214   2.562   3.777 -0.5589 -0.3904 -0.2857
12936TIP3    H160299   5.298   2.528   3.807  0.2102  1.9854  0.4896
12936TIP3    H260300   5.163   2.484   3.756  2.0627 -1.9077 -1.5616
12937TIP3   OH260301   1.751   2.673  15.117 -0.3452 -0.1881  0.0438
12937TIP3    H160302   1.734   2.594  15.169 -1.2545 -0.9025 -1.2673
12937TIP3    H260303   1.704   2.742  15.163  0.0448 -0.5087  0.9428
12938TIP3   OH260304   0.847   2.945  13.368 -0.0254  0.1605  0.4051
12938TIP3    H160305   0.914   2.881  13.341  0.9451  2.0323 -1.9777
12938TIP3    H260306   0.888   3.030  13.352 -1.8551  1.4142  1.9908
12939TIP3   OH260307   0.553   4.748  14.354  0.1971  0.1740  0.6865
12939TIP3    H160308   0.613   4.683  14.392 -0.0722 -0.6271 -0.2290
12939TIP3    H260309   0.611   4.813  14.313  0.4504  0.0867  0.9008
12940TIP3   OH260310   5.340   6.746  14.615  0.2238  0.0456  0.2776
12940TIP3    H160311   5.388   6.675  14.571  1.0624  0.2000  0.9086
12940TIP3    H260312   5.248   6.727  14.598  0.5096  0.4068 -2.0407
12941TIP3   OH260313   2.796   1.937   5.392  0.0667 -0.4994  0.3774
12941TIP3    H160314   2.764   1.866   5.336 -0.4350  0.8759 -1.1849
12941TIP3    H260315   2.889   1.919   5.402  0.3153 -0.4778 -1.4907
12942TIP3   OH260316   6.324   1.133   4.969 -0.0834  0.0303 -0.3679
12942TIP3    H160317   6.306   1.192   4.897 -0.1563  0.4448 -0.0154
12942TIP3    H260318   6.408   1.162   5.004 -0.2870  0.1493  0.0263
12943TIP3   OH260319   5.118   4.426  17.145  0.3432 -0.1461 -1.0125
12943TIP3    H160320   5.195   4.467  17.107  0.6152 -2.4364 -3.1351
12943TIP3    H260321   5.127   4.441  17.239  2.9279  0.3463 -1.2758
12944TIP3   OH260322   5.035   4.792   1.034 -0.1748  0.7297 -0.5447
12944TIP3    H160323   5.008   4.804   0.943 -0.7780  1.7246 -0.2533
12944TIP3    H260324   5.030   4.880   1.072  1.0036  0.5009  0.2059
12945TIP3   OH260325   4.481   0.817  11.667 -0.1202 -0.1581  0.5903
12945TIP3    H160326   4.577   0.815  11.671 -0.1604 -0.9243  1.4535
12945TIP3    H260327   4.453   0.795  11.755 -1.0989 -1.7618 -0.0748
12946TIP3   OH260328   0.290   1.948   1.739  0.4497  0.0644 -0.0858
12946TIP3    H160329   0.217   1.886   1.741  0.5018  0.0258  0.8721
12946TIP3    H260330   0.253   2.030   1.770  0.6825  0.1890 -0.1336
12947TIP3   OH260331   0.867   4.336   3.585  0.0095  0.5143 -0.8175
12947TIP3    H160332   0.800   4.285   3.630  1.9735 -0.6459  0.9388
12947TIP3    H260333   0.849   4.427   3.610 -2.2701  0.5688 -2.3329
12948TIP3   OH260334   5.691   5.549   4.796  0.6539 -0.2951 -0.4846
12948TIP3    H160335   5.642   5.546   4.713  0.9243  0.5691 -0.6844
12948TIP3    H260336   5.742   5.630   4.791  0.8745 -0.3682  0.4198
12949TIP3   OH260337   5.981   6.535  12.652  0.0337  0.6180 -0.0750
12949TIP3    H160338   6.053   6.505  12.708 -1.2053  0.4361  1.4729
12949TIP3    H260339   5.938   6.455  12.623 -0.6486  0.7525  0.5271
12950TIP3   OH260340   6.589   6.165   4.400  0.5420 -0.8127  0.1368
12950TIP3    H160341   6.592   6.186   4.307 -0.6692 -0.5403  0.1507
12950TIP3    H260342   6.600   6.070   4.404  0.3945 -0.8483 -0.2908
12951TIP3   OH260343   2.580   2.578  13.619  0.2462 -0.0839  0.3807
12951TIP3    H160344   2.508   2.565  13.680  0.7510  0.7418  1.1899
12951TIP3    H260345   2.579   2.501  13.563 -0.6346 -0.5585  1.0261
12952TIP3   OH260346   4.348   4.261  16.605  0.0060  0.2110 -0.1011
12952TIP3    H160347   4.263   4.227  16.577 -0.7454 -0.3581  2.5788
12952TIP3    H260348   4.367   4.214  16.687  1.4051  2.5390  1.0172
12953TIP3   OH260349   0.735   6.783  15.491 -0.2315  0.2972 -0.1973
12953TIP3    H160350   0.796   6.748  15.427 -0.7034 -0.4066 -0.2703
12953TIP3    H260351   0.767   6.750  15.575  0.4643  1.3277 -0.0351
12954TIP3   OH260352   0.836   2.785   2.076 -1.0475  0.6632  0.0624
12954TIP3    H160353   0.905   2.720   2.064  0.0592  2.0155 -1.6044
12954TIP3    H260354   0.833   2.831   1.992 -3.3997  1.2346  0.3976
12955TIP3   OH260355   0.026   5.246   3.092 -0.4338  0.1977 -0.4179
12955TIP3    H160356  -0.007   5.156   3.103  0.1862 -0.1778 -1.4930
12955TIP3    H260357  -0.049   5.296   3.062 -0.7436  0.0026  0.0270
12956TIP3   OH260358   1.011   2.119  13.653 -0.3455 -0.7920  0.4214
12956TIP3    H160359   1.089   2.174  13.648 -0.0784 -1.2105  0.0111
12956TIP3    H260360   0.942   2.179  13.683 -0.1409 -0.1337 -0.3711
12957TIP3   OH260361   0.075   5.713  17.140 -0.1301  0.1680  0.3759
12957TIP3    H160362   0.099   5.742  17.228 -0.9957 -0.4160  0.8106
12957TIP3    H260363   0.142   5.752  17.083  1.3896 -0.7745  1.4588
12958TIP3   OH260364   0.938   5.437  16.505  0.2701  0.2773  0.6229
12958TIP3    H160365   0.877   5.511  16.496  0.5241  0.4911  0.6256
12958TIP3    H260366   0.883   5.359  16.503  0.1731  0.3608 -1.4380
12959TIP3   OH260367   6.169   1.645   5.331  0.6351 -0.4907  0.2640
12959TIP3    H160368   6.138   1.555   5.321 -0.3059  0.0011 -1.9122
12959TIP3    H260369   6.105   1.685   5.391  0.5567 -1.0407  0.5567
12960TIP3   OH260370   6.634   3.867   5.776  0.4337 -0.2421  0.1620
12960TIP3    H160371   6.553   3.898   5.736 -0.6551 -3.1359 -0.0937
12960TIP3    H260372   6.615   3.865   5.870  0.1406 -1.0285  0.0924
12961TIP3   OH260373   3.147   1.354  14.950  0.0137  0.1128 -1.2988
12961TIP3    H160374   3.170   1.336  14.859  2.7086 -0.9475 -0.5066
12961TIP3    H260375   3.178   1.443  14.966  1.5103 -0.4566 -0.8877
12962TIP3   OH260376   0.874   5.147   1.724 -0.2896  0.0497  0.5504
12962TIP3    H160377   0.842   5.189   1.804  0.4203 -0.5701  1.1827
12962TIP3    H260378   0.969   5.145   1.734 -0.2730 -1.3319  0.3798
12963TIP3   OH260379   4.974   2.592  14.517 -0.3104 -0.5158  0.4371
12963TIP3    H160380   4.879   2.602  14.519 -0.4064 -1.0281 -0.6447
12963TIP3    H260381   4.988   2.512  14.467  0.7006 -0.1467  0.1050
12964TIP3   OH260382   0.757   2.858  12.852 -0.5758  0.1523 -0.0492
12964TIP3    H160383   0.751   2.774  12.806 -1.1442  0.9597 -1.5309
12964TIP3    H260384   0.783   2.835  12.941  0.2350 -1.5189 -0.6729
12965TIP3   OH260385   6.820   5.152  11.351  0.1282 -0.3652 -0.6428
12965TIP3    H160386   6.866   5.235  11.350  0.1196 -0.3481 -2.3991
12965TIP3    H260387   6.738   5.169  11.305 -1.5328 -0.5078  2.0070
12966TIP3   OH260388   1.441   1.558   5.300  0.1140 -0.9808  0.1323
12966TIP3    H160389   1.394   1.514   5.229  0.4435 -0.7622 -0.2302
12966TIP3    H260390   1.530   1.523   5.296  0.4705 -0.0684 -0.3741
12967TIP3   OH260391   6.140   3.410  13.136  0.9466 -0.0016 -0.4828
12967TIP3    H160392   6.077   3.362  13.083  1.2566 -1.0040  0.0289
12967TIP3    H260393   6.090   3.437  13.213  0.9639 -0.1964 -0.4013
12968TIP3   OH260394   6.337   3.816  15.463 -0.4075  0.0626  0.0453
12968TIP3    H160395   6.417   3.773  15.434  0.2096 -0.0394  1.7743
12968TIP3    H260396   6.269   3.748  15.455 -0.2819  0.0589 -1.1319
12969TIP3   OH260397   3.390   2.856   5.585  0.0902  0.5625 -0.0411
12969TIP3    H160398   3.300   2.834   5.562  0.5762 -0.5554 -0.9774
12969TIP3    H260399   3.405   2.811   5.668 -0.5904  1.7987  0.7864
12970TIP3   OH260400   3.089   3.783  16.726 -0.3244  0.4847 -0.1777
12970TIP3    H160401   3.161   3.723  16.705 -1.0837 -0.0840 -1.2532
12970TIP3    H260402   3.116   3.867  16.689 -0.1642  0.3058 -0.4650
12971TIP3   OH260403   5.487   4.143   6.217 -0.1968  0.1513 -0.4621
12971TIP3    H160404   5.569   4.177   6.182 -0.5999 -0.0416 -1.6249
12971TIP3    H260405   5.438   4.221   6.243 -0.8214  0.4508 -2.4453
12972TIP3   OH260406   3.810   2.366   2.659 -0.7059  0.2194 -0.0384
12972TIP3    H160407   3.822   2.428   2.587 -0.7106  1.3438  0.8974
12972TIP3    H260408   3.716   2.367   2.676 -0.6110  0.5967  0.5094
12973TIP3   OH260409   0.036   0.634   3.915 -0.3398  0.1449  0.1407
12973TIP3    H160410   0.037   0.540   3.933 -0.3237 -0.4988 -2.7487
12973TIP3    H260411   0.117   0.651   3.868 -0.2883  1.6638  0.7038
12974TIP3   OH260412   5.482   2.880  15.444 -0.3177 -0.2751 -0.1270
12974TIP3    H160413   5.406   2.822  15.456  0.3359 -1.3100 -0.8624
12974TIP3    H260414   5.531   2.873  15.526  0.3684 -1.7047 -0.6312
12975TIP3   OH260415   4.521   6.605   1.731 -0.3280 -0.3536 -0.6684
12975TIP3    H160416   4.541   6.518   1.698  1.8420 -0.8128  1.5600
12975TIP3    H260417   4.585   6.662   1.687 -0.9719 -0.0550 -1.2366
12976TIP3   OH260418   0.929   0.618  16.854 -0.4451  0.2988  0.3272
12976TIP3    H160419   0.904   0.561  16.926 -3.6030 -1.6166 -2.0240
12976TIP3    H260420   0.967   0.558  16.789 -2.3735  1.0224 -1.5713
12977TIP3   OH260421   5.764   5.921  16.976  0.0542  0.3394 -0.0204
12977TIP3    H160422   5.672   5.928  17.001  0.1146 -0.5083  0.4552
12977TIP3    H260423   5.779   5.828  16.962  1.1199  0.3357  0.9934
12978TIP3   OH260424   1.107   5.609  13.353  0.1278 -0.3897 -0.4382
12978TIP3    H160425   1.178   5.658  13.310 -1.3141  0.3793 -2.0728
12978TIP3    H260426   1.107   5.524  13.309  1.1348 -1.0688  0.8017
12979TIP3   OH260427   1.467   2.983   1.644 -0.2093  0.2514  0.4928
12979TIP3    H160428   1.527   3.030   1.586 -1.4734  0.9351 -0.2905
12979TIP3    H260429   1.382   2.988   1.601 -1.0560  0.1829  2.0735
12980TIP3   OH260430   6.676   4.159   4.421  0.1199  0.2820 -0.1154
12980TIP3    H160431   6.609   4.215   4.383  0.2234  0.9277  0.6482
12980TIP3    H260432   6.742   4.219   4.455 -0.6892 -0.1968  2.4724
12981TIP3   OH260433   4.553   6.000   4.308 -0.1017 -0.0777  0.2775
12981TIP3    H160434   4.503   6.047   4.241  0.0746  1.4666  1.1843
12981TIP3    H260435   4.490   5.938   4.346 -0.7570  0.4213  0.0170
12982TIP3   OH260436   6.306   0.621  12.079 -0.0153  0.4266 -0.0312
12982TIP3    H160437   6.242   0.556  12.108  0.1452 -0.2425 -1.1184
12982TIP3    H260438   6.255   0.702  12.072 -0.8621 -0.1829 -1.2646
12983TIP3   OH260439   5.252   3.203  13.409 -0.1554  0.2132  0.0109
12983TIP3    H160440   5.273   3.169  13.322  0.5949  0.2443  0.1754
12983TIP3    H260441   5.278   3.133  13.469 -0.6441  0.2047  0.2170
12984TIP3   OH260442   2.840   3.283  11.367  0.0789  1.1189 -0.6671
12984TIP3    H160443   2.772   3.272  11.433  1.0950 -0.1386  0.2102
12984TIP3    H260444   2.841   3.201  11.318  2.4744  0.1226  0.8512
12985TIP3   OH260445   6.591   2.586  11.520 -0.9168 -0.1483  0.0031
12985TIP3    H160446   6.663   2.573  11.459 -0.9839 -1.6382  0.1894
12985TIP3    H260447   6.633   2.617  11.601 -0.8881  2.3560 -0.8992
12986TIP3   OH260448   2.302   4.998  16.140 -0.4223  0.1748  0.3088
12986TIP3    H160449   2.333   5.036  16.223 -0.0961 -0.2095  0.3647
12986TIP3    H260450   2.225   4.948  16.165  0.6090 -1.3027  0.6716
12987TIP3   OH260451   3.818   0.177   5.363  0.2162 -0.3280 -0.6174
12987TIP3    H160452   3.882   0.207   5.299 -0.6208 -0.0220 -1.3246
12987TIP3    H260453   3.818   0.245   5.431 -0.1144  0.1948 -1.1382
12988TIP3   OH260454   3.127   2.312   3.443  0.2762 -0.2367  0.1488
12988TIP3    H160455   3.101   2.375   3.510 -0.2874 -1.4831  1.1390
12988TIP3    H260456   3.132   2.363   3.362  1.1464  1.3441  1.1487
12989TIP3   OH260457   4.386   2.724   2.095 -0.3020 -0.4388 -0.0370
12989TIP3    H160458   4.366   2.663   2.166  0.7261 -0.4021  0.3009
12989TIP3    H260459   4.302   2.764   2.073 -0.8129 -1.2250  0.4388
12990TIP3   OH260460   5.141   2.047   4.276  0.2166  0.1740  0.5324
12990TIP3    H160461   5.217   1.989   4.269  0.9942  0.8868  2.5020
12990TIP3    H260462   5.066   1.988   4.269  0.9372 -0.6332 -0.7417
12991TIP3   OH260463   1.835   3.740  15.005  0.5930  0.2623 -0.4266
12991TIP3    H160464   1.824   3.820  14.955 -1.9367  0.0824 -0.2909
12991TIP3    H260465   1.779   3.676  14.960  0.9408 -0.8490  0.6621
12992TIP3   OH260466   1.948   5.522   2.725 -0.1075  0.4328 -0.2306
12992TIP3    H160467   2.012   5.471   2.776 -0.3411  1.3424  1.0403
12992TIP3    H260468   1.899   5.457   2.675 -1.5333 -0.8640  2.5900
12993TIP3   OH260469   5.062   5.760   5.429 -0.6845  0.1241 -0.2129
12993TIP3    H160470   4.996   5.829   5.430  0.1188  0.9147  1.2505
12993TIP3    H260471   5.013   5.681   5.454 -1.4408  0.2886 -1.0857
12994TIP3   OH260472   5.448   4.632  15.941  0.0753 -0.1046 -0.0575
12994TIP3    H160473   5.403   4.556  15.904  1.0517 -1.5793  1.6456
12994TIP3    H260474   5.439   4.699  15.874  0.0219 -2.0019 -2.0668
12995TIP3   OH260475   4.580   3.554   4.573 -0.2332  0.4879  0.1877
12995TIP3    H160476   4.602   3.625   4.514 -2.5035  1.2661  0.1754
12995TIP3    H260477   4.663   3.511   4.591  0.7432  1.1170 -2.3819
12996TIP3   OH260478   0.004   1.014  14.462 -0.0001 -0.0875  0.6250
12996TIP3    H160479   0.096   1.037  14.470  0.9332 -2.0143 -2.5994
12996TIP3    H260480   0.003   0.921  14.440 -2.5513  0.2025 -1.0414
12997TIP3   OH260481   2.417   0.047  14.131 -0.0935  0.1282 -0.3001
12997TIP3    H160482   2.409  -0.035  14.179  0.3788 -1.7641 -3.1524
12997TIP3    H260483   2.438   0.112  14.197 -0.7946 -1.9606  2.1523
12998TIP3   OH260484   2.436   5.178  12.549  0.1072  1.2438 -0.3017
12998TIP3    H160485   2.498   5.113  12.581 -0.5293 -0.3400 -2.0539
12998TIP3    H260486   2.353   5.131  12.542 -0.9041  2.8490  0.3796
12999TIP3   OH260487   6.189   4.493   6.730  0.1378  0.5178  0.7010
12999TIP3    H160488   6.125   4.428   6.701  0.3891  0.9639 -0.9849
12999TIP3    H260489   6.159   4.520   6.816 -1.2643 -0.1629  0.4559
13000TIP3   OH260490   2.914   5.297  15.402 -0.7709  0.4682 -0.1585
13000TIP3    H160491   2.853   5.322  15.332 -2.1397  1.4094  1.2670
13000TIP3    H260492   2.908   5.202  15.407  1.7880  0.0043 -3.3466
13001TIP3   OH260493   5.638   2.789   3.142 -0.3743 -0.0240 -0.7610
13001TIP3    H160494   5.710   2.831   3.187  0.1147 -0.5691 -1.0231
13001TIP3    H260495   5.617   2.849   3.070 -0.3225  0.2320 -0.5659
13002TIP3   OH260496   6.220   3.106  13.952 -0.3362 -0.0385 -0.0158
13002TIP3    H160497   6.156   3.177  13.955  0.1495  0.3820  0.6009
13002TIP3    H260498   6.280   3.125  14.023  0.0626 -0.8275 -0.1309
13003TIP3   OH260499   2.442   5.425   0.518 -0.1662  0.1402 -0.3374
13003TIP3    H160500   2.350   5.432   0.494 -0.2623 -0.4840 -0.1852
13003TIP3    H260501   2.478   5.512   0.502 -1.3854  1.2383  2.2096
13004TIP3   OH260502   6.451   2.836  14.673 -0.5698 -0.6759  0.3187
13004TIP3    H160503   6.468   2.839  14.579 -0.8126  0.7500  0.2957
13004TIP3    H260504   6.530   2.871  14.713 -1.8060  2.2832  0.4083
13005TIP3   OH260505   3.988   6.259  13.220 -0.4285  0.2517  0.3388
13005TIP3    H160506   4.029   6.260  13.134 -0.8836 -1.0645  0.0887
13005TIP3    H260507   3.987   6.167  13.245 -1.3692  0.4930  1.2400
13006TIP3   OH260508   6.505   4.762  14.811  0.2642 -0.7748  0.1849
13006TIP3    H160509   6.580   4.823  14.815  0.5151 -1.0953  0.4140
13006TIP3    H260510   6.429   4.819  14.799  0.6634 -0.5134 -1.4420
13007TIP3   OH260511   1.929   4.206   5.760  0.2421  0.0697 -0.1992
13007TIP3    H160512   1.897   4.131   5.709 -2.0235 -0.5046  1.8944
13007TIP3    H260513   1.866   4.216   5.831  2.2318  1.9767  1.4548
13008TIP3   OH260514   6.372   1.111   0.532 -0.6650  0.4123 -0.4629
13008TIP3    H160515   6.297   1.058   0.559  0.4050 -1.2766 -0.6005
13008TIP3    H260516   6.443   1.081   0.588 -0.0886  1.9997 -0.3175
13009TIP3   OH260517   5.064   6.295  15.056  0.3068  0.1470  0.6710
13009TIP3    H160518   5.088   6.210  15.093 -0.0320 -0.2145  0.0696
13009TIP3    H260519   5.094   6.291  14.965 -3.1881 -0.9000 -0.6062
13010TIP3   OH260520   5.176   0.376  12.133  0.0509 -0.6243 -0.1129
13010TIP3    H160521   5.260   0.420  12.120 -0.0149 -0.4490  0.0456
13010TIP3    H260522   5.198   0.283  12.140  0.5313 -0.3914  2.3545
13011TIP3   OH260523   2.461   4.906   3.828  0.2398  0.1882  0.0434
13011TIP3    H160524   2.416   4.938   3.907 -0.6015 -0.9826  0.0573
13011TIP3    H260525   2.449   4.977   3.764 -0.2580  0.5709  0.5418
13012TIP3   OH260526   1.049   4.511  15.650  0.6741  0.1818  0.4751
13012TIP3    H160527   1.040   4.430  15.599 -0.1422 -0.7455  2.0315
13012TIP3    H260528   1.037   4.581  15.586 -2.2178 -0.9299 -0.3615
13013TIP3   OH260529   5.407   1.680   6.485 -0.7739  0.2762 -0.2343
13013TIP3    H160530   5.324   1.725   6.501 -1.3710 -1.2231  1.2057
13013TIP3    H260531   5.474   1.747   6.497 -1.6800  1.0801  0.5292
13014TIP3   OH260532   5.892   2.359  15.179  0.6416  0.5994 -0.1271
13014TIP3    H160533   5.876   2.304  15.256  0.8617 -2.3690 -2.0481
13014TIP3    H260534   5.851   2.443  15.201 -1.2499 -0.8215  2.3652
13015TIP3   OH260535   4.816   5.565   0.274  0.1186 -0.1013  0.2452
13015TIP3    H160536   4.772   5.646   0.299  0.0764 -0.2078  0.5186
13015TIP3    H260537   4.907   5.578   0.299 -0.2582 -0.9240  2.2220
13016TIP3   OH260538   4.123   3.876   5.961 -0.7259  0.2021  0.4986
13016TIP3    H160539   4.091   3.928   6.035 -0.2183  1.4921 -0.1650
13016TIP3    H260540   4.218   3.889   5.962 -0.8671  2.0009 -1.6112
13017TIP3   OH260541   1.385   4.677   0.497 -0.7056 -0.3040 -0.2931
13017TIP3    H160542   1.336   4.752   0.465  0.2439  1.7726  2.7302
13017TIP3    H260543   1.468   4.680   0.449 -0.4350  0.9729  0.2293
13018TIP3   OH260544   1.914   0.652  15.598 -0.0638 -0.2708 -0.0410
13018TIP3    H160545   1.935   0.732  15.646 -0.6635 -0.4154  0.4737
13018TIP3    H260546   1.837   0.674  15.546  0.2005 -0.3047 -0.4518
13019TIP3   OH260547   6.526   0.468  11.273 -0.0454  0.3354  0.8152
13019TIP3    H160548   6.443   0.507  11.246  1.0030  2.0502 -0.1260
13019TIP3    H260549   6.505   0.376  11.290 -2.2706  0.8771  1.3383
13020TIP3   OH260550   1.689   3.305   4.686 -0.7268 -0.0901  0.1188
13020TIP3    H160551   1.782   3.300   4.708 -0.1739  1.1053 -1.7608
13020TIP3    H260552   1.657   3.382   4.732 -0.4965  0.1985 -0.2039
13021TIP3   OH260553   5.687   0.473   0.066  0.0070 -0.3478 -0.0300
13021TIP3    H160554   5.666   0.441   0.154 -3.1936  0.7592 -0.2801
13021TIP3    H260555   5.659   0.402   0.008  0.1589 -0.2271 -0.2513
13022TIP3   OH260556   3.722   5.352  14.730  0.1718 -0.3541 -0.0273
13022TIP3    H160557   3.642   5.397  14.757 -1.1882 -1.5182 -1.9005
13022TIP3    H260558   3.773   5.420  14.686  0.0217  0.2826  0.7503
13023TIP3   OH260559   5.472   5.995  15.306  0.1946 -0.0394 -0.0048
13023TIP3    H160560   5.551   6.038  15.339 -0.1788  0.9063 -0.2948
13023TIP3    H260561   5.479   6.000  15.211 -0.0776 -0.2061 -0.0359
13024TIP3   OH260562   4.891   0.120  13.607 -0.3042 -0.2820 -0.4223
13024TIP3    H160563   4.841   0.117  13.525 -0.9276 -0.4954 -0.0488
13024TIP3    H260564   4.876   0.034  13.646  0.7441 -0.5113 -0.5179
13025TIP3   OH260565   3.799   5.659   1.665 -0.0650  0.3306 -0.1266
13025TIP3    H160566   3.892   5.678   1.679 -0.4296  1.3222  1.2215
13025TIP3    H260567   3.787   5.569   1.693  0.2763  0.5866  0.8616
13026TIP3   OH260568   2.685   6.447   6.301 -0.1868  0.0162  0.9565
13026TIP3    H160569   2.769   6.475   6.263 -1.1871 -0.0604 -1.4540
13026TIP3    H260570   2.657   6.522   6.354  1.3785  0.0255  1.8419
13027TIP3   OH260571   4.649   4.795  15.221 -0.3567  0.5365 -0.4859
13027TIP3    H160572   4.725   4.793  15.163 -1.0695  2.1392 -1.5457
13027TIP3    H260573   4.639   4.887  15.244 -3.4119  0.8077 -2.3754
13028TIP3   OH260574   2.286   0.085  14.430 -0.2126  0.2492  0.2036
13028TIP3    H160575   2.210   0.136  14.402 -0.5740 -0.5287 -0.2683
13028TIP3    H260576   2.359   0.147  14.427 -0.4307  0.4614 -1.4537
13029TIP3   OH260577   5.985   5.890  12.175 -0.0517  0.0090 -0.2158
13029TIP3    H160578   6.020   5.813  12.220  0.5326  0.8659  0.8461
13029TIP3    H260579   5.928   5.854  12.107  1.2914 -1.3949 -0.6674
13030TIP3   OH260580   6.459   4.446   3.028 -0.2419 -0.7909  0.3467
13030TIP3    H160581   6.464   4.350   3.025 -0.3859 -0.9056  2.3647
13030TIP3    H260582   6.395   4.464   3.096 -0.7592  0.7768 -0.5067
13031TIP3   OH260583   4.779   5.722  17.028 -0.1898 -0.2452  0.0941
13031TIP3    H160584   4.843   5.666  17.072 -0.7090  0.4222  1.7826
13031TIP3    H260585   4.778   5.691  16.938  1.0350 -1.5847  0.5028
13032TIP3   OH260586   3.569   1.212   3.725  0.0149  0.1906  0.0710
13032TIP3    H160587   3.565   1.199   3.630 -0.6627  0.3709  0.0679
13032TIP3    H260588   3.640   1.275   3.737  0.2879 -0.0434 -0.2921
13033TIP3   OH260589   2.704   6.254  15.783  0.0636 -0.6294 -0.1996
13033TIP3    H160590   2.738   6.312  15.851 -2.3140 -0.0441  0.5727
13033TIP3    H260591   2.647   6.309  15.730  3.3021 -0.5657 -4.0598
13034TIP3   OH260592   5.868   5.983  12.581  1.0348  0.0948  0.5106
13034TIP3    H160593   5.941   5.937  12.622  0.1502 -0.2005  1.8319
13034TIP3    H260594   5.792   5.961  12.636  0.2118  1.4827 -0.0225
13035TIP3   OH260595   3.647   5.536  11.437 -1.1108 -0.5227 -0.3753
13035TIP3    H160596   3.587   5.537  11.363 -0.6183 -0.0091 -0.7825
13035TIP3    H260597   3.678   5.626  11.443 -1.2803 -0.5228  0.5729
13036TIP3   OH260598   0.311   5.547  15.286 -0.3707 -0.5403 -0.2064
13036TIP3    H160599   0.219   5.530  15.267 -0.1456 -0.5291 -1.4398
13036TIP3    H260600   0.359   5.485  15.231  0.3767  0.8059 -1.1431
13037TIP3   OH260601   2.222   3.268  10.871 -0.5164  1.0018 -0.1787
13037TIP3    H160602   2.179   3.317  10.941  0.3866  0.3590  0.8786
13037TIP3    H260603   2.268   3.334  10.820 -1.3487  1.5052 -0.2939
13038TIP3   OH260604   6.116   1.851  15.033 -0.2949  0.3688 -0.2528
13038TIP3    H160605   6.156   1.811  15.110 -1.7442  0.2508  0.4643
13038TIP3    H260606   6.153   1.803  14.959  1.3180  0.6613  0.3221
13039TIP3   OH260607   0.508   5.436  13.215 -0.4361  0.0263 -0.0283
13039TIP3    H160608   0.431   5.411  13.164 -1.3523  1.4854  0.5789
13039TIP3    H260609   0.515   5.368  13.282 -1.8344  0.4004  0.5406
13040TIP3   OH260610   0.044   5.069   5.089 -0.0253  0.3760  0.0495
13040TIP3    H160611   0.036   5.084   5.183 -0.0879  0.2936  0.0581
13040TIP3    H260612  -0.028   5.008   5.069 -1.4359  2.0994 -0.4379
13041TIP3   OH260613   0.806   5.805   2.526  0.6850 -0.5480  0.0070
13041TIP3    H160614   0.720   5.847   2.520  0.7352 -0.3684  0.5510
13041TIP3    H260615   0.797   5.741   2.596  0.9377 -0.6683 -0.0698
13042TIP3   OH260616   0.609   5.010  15.760  0.9815  0.1408 -0.6266
13042TIP3    H160617   0.683   5.066  15.737 -0.5882  1.9061 -1.7423
13042TIP3    H260618   0.617   4.997  15.855  1.7643  1.7937 -0.4284
13043TIP3   OH260619   3.066   0.275  14.542 -0.3023 -0.6087  0.2395
13043TIP3    H160620   3.119   0.306  14.615 -1.1027 -2.0324  1.4833
13043TIP3    H260621   3.098   0.324  14.466  1.1557  0.2649  1.3694
13044TIP3   OH260622   3.460   2.185   3.630  0.6939  0.0782  0.2228
13044TIP3    H160623   3.419   2.194   3.544  1.3199  0.9293  0.0073
13044TIP3    H260624   3.551   2.163   3.611  1.0057  0.9642  0.6428
13045TIP3   OH260625   3.775   0.574  11.016 -0.4389  0.4148  0.1522
13045TIP3    H160626   3.753   0.595  10.925 -0.2718  1.5736  0.3590
13045TIP3    H260627   3.765   0.657  11.063  3.0619  0.8066  0.4949
13046TIP3   OH260628   1.634   0.384  16.563 -0.4354  0.9314 -0.5822
13046TIP3    H160629   1.603   0.411  16.649 -0.6806 -1.6379  0.2344
13046TIP3    H260630   1.555   0.369  16.512 -0.3727  0.2534 -0.4900
13047TIP3   OH260631   2.827   0.756  13.200 -0.3655  0.5485  0.3658
13047TIP3    H160632   2.735   0.758  13.224 -0.7281 -1.5594 -0.6312
13047TIP3    H260633   2.827   0.746  13.105  0.7914 -1.5014  0.5031
13048TIP3   OH260634   4.882   1.620   3.455 -0.3927  0.7607 -0.5601
13048TIP3    H160635   4.808   1.671   3.422 -0.5050  0.3362 -0.9838
13048TIP3    H260636   4.954   1.682   3.461 -0.0145  0.6154 -2.8107
13049TIP3   OH260637   5.504   6.697   4.988  0.3937  0.3808  0.1534
13049TIP3    H160638   5.475   6.643   4.914  0.5507  0.4876  0.0123
13049TIP3    H260639   5.500   6.638   5.063  0.6971  0.1278 -0.0238
13050TIP3   OH260640   2.130   3.079  15.191  0.2853 -0.5194  0.3314
13050TIP3    H160641   2.198   3.106  15.130 -1.2505  1.4481 -0.6432
13050TIP3    H260642   2.086   3.006  15.147  1.3651 -1.4031  0.6988
13051TIP3   OH260643   2.326   5.013   4.939  0.2971 -0.5150  0.6864
13051TIP3    H160644   2.292   5.039   5.025 -2.6192 -0.5569 -0.3307
13051TIP3    H260645   2.290   4.925   4.925  0.5324 -0.4177 -0.6755
13052TIP3   OH260646   5.864   0.559  12.205 -0.2751 -0.4280  0.1353
13052TIP3    H160647   5.806   0.596  12.139  2.0983  2.7765 -0.4031
13052TIP3    H260648   5.860   0.464  12.190 -2.6411 -0.0805 -2.0966
13053TIP3   OH260649   2.480   0.088   1.707 -0.1256 -0.5524 -0.3178
13053TIP3    H160650   2.432   0.159   1.749 -0.9554 -1.2180 -0.1153
13053TIP3    H260651   2.416   0.046   1.650  0.2899 -1.2971 -0.2474
13054TIP3   OH260652   0.436   5.558  12.544 -0.0820  0.3953 -0.3090
13054TIP3    H160653   0.356   5.578  12.592  0.5570  0.1720  0.8805
13054TIP3    H260654   0.425   5.467  12.516 -0.1719  0.3037  0.0199
13055TIP3   OH260655   4.341   4.197  13.190 -0.1666 -0.2114 -0.1056
13055TIP3    H160656   4.333   4.259  13.118 -0.6404 -1.7243 -1.4133
13055TIP3    H260657   4.435   4.185  13.202 -0.0483  1.4043  0.7713
13056TIP3   OH260658   3.914   5.495  11.003  0.7830 -0.6743 -0.0166
13056TIP3    H160659   3.884   5.576  11.044  2.2584 -1.1400  2.1751
13056TIP3    H260660   3.837   5.460  10.959 -0.3656  0.9502  0.6197
13057TIP3   OH260661   2.671   5.319   5.645 -0.0156  0.2833  0.1846
13057TIP3    H160662   2.613   5.391   5.621 -1.0893 -0.1191  1.4602
13057TIP3    H260663   2.735   5.358   5.704  0.1170  0.4220 -0.0494
13058TIP3   OH260664   3.786   3.976   4.936 -0.1209 -0.0347  0.7078
13058TIP3    H160665   3.776   4.048   4.999 -2.2661 -0.6455  1.1667
13058TIP3    H260666   3.856   3.922   4.972  0.3778  0.9265  1.2412
13059TIP3   OH260667   5.506   0.031   3.587  0.3379  0.8097 -0.4229
13059TIP3    H160668   5.420   0.068   3.605  0.8456  1.3989  0.9182
13059TIP3    H260669   5.538   0.079   3.511 -0.1661  1.1636 -0.4100
13060TIP3   OH260670   0.457   6.430  12.190 -0.7032  0.7014  0.2423
13060TIP3    H160671   0.372   6.434  12.146 -0.5018  1.5951 -0.0880
13060TIP3    H260672   0.520   6.459  12.123 -0.1679  0.3375  0.5768
13061TIP3   OH260673   2.618   4.902  14.648  0.4034  0.5414  0.0909
13061TIP3    H160674   2.707   4.869  14.635  0.2428  0.1172  0.0598
13061TIP3    H260675   2.562   4.839  14.604  0.1351  1.2098 -0.5328
13062TIP3   OH260676   1.788   4.223   3.355 -0.1866 -0.2971  0.4281
13062TIP3    H160677   1.741   4.301   3.382 -0.6788 -1.2320  2.4872
13062TIP3    H260678   1.876   4.233   3.392 -0.5343 -1.0962  1.5407
13063TIP3   OH260679   5.403   3.579   0.343 -0.1864 -0.1735 -0.3299
13063TIP3    H160680   5.362   3.494   0.333  0.6001 -0.3772 -2.1547
13063TIP3    H260681   5.496   3.563   0.328  0.0747  0.8804  0.0816
13064TIP3   OH260682   3.105   2.094   2.856  0.0004 -0.2199 -0.1443
13064TIP3    H160683   3.163   2.085   2.932 -0.3324  2.2321  0.5028
13064TIP3    H260684   3.163   2.087   2.781  1.1399  1.7119  0.4790
13065TIP3   OH260685   0.252   6.269   0.489  0.1320 -0.4863  0.4029
13065TIP3    H160686   0.238   6.296   0.398  0.2325  0.2444  0.5963
13065TIP3    H260687   0.345   6.287   0.505  0.7669 -2.9047 -0.0869
13066TIP3   OH260688   4.567   6.118  15.394 -0.0038 -0.4052 -0.1877
13066TIP3    H160689   4.579   6.204  15.435 -1.5195 -0.0086 -0.5289
13066TIP3    H260690   4.493   6.079  15.442 -1.3652 -0.2174 -2.0486
13067TIP3   OH260691   2.744   1.260   0.921  0.3794 -0.1949  0.6340
13067TIP3    H160692   2.806   1.331   0.936  0.6244 -0.5417  1.2541
13067TIP3    H260693   2.758   1.199   0.992 -1.1533  0.0436  1.1879
13068TIP3   OH260694   0.036   5.458  15.265 -0.2233 -0.0166 -0.7222
13068TIP3    H160695   0.058   5.438  15.174 -1.6299  0.6536 -1.2395
13068TIP3    H260696  -0.046   5.508  15.260  0.3863  1.2256  0.8347
13069TIP3   OH260697   2.330   2.336  11.103  0.2536 -0.0542 -0.3573
13069TIP3    H160698   2.373   2.267  11.053 -2.7013 -0.1537 -3.0361
13069TIP3    H260699   2.242   2.341  11.067 -1.1930  1.9318  2.9789
13070TIP3   OH260700   5.201   6.770   3.233  0.1572 -0.1216  0.0254
13070TIP3    H160701   5.193   6.700   3.168 -1.6294 -0.6793  0.7754
13070TIP3    H260702   5.211   6.725   3.316 -0.0211  0.5254  0.4051
13071TIP3   OH260703   5.435   2.895  15.133 -0.1473  0.6191 -0.3341
13071TIP3    H160704   5.346   2.859  15.130 -0.4617  0.9750  2.2347
13071TIP3    H260705   5.444   2.929  15.222  1.9665  2.2112 -1.0751
13072TIP3   OH260706   6.236   3.032  16.554 -0.5848 -0.1025  0.5363
13072TIP3    H160707   6.243   3.020  16.649 -0.4136  0.7248  0.6379
13072TIP3    H260708   6.326   3.048  16.525 -0.5789 -0.7535  0.1666
13073TIP3   OH260709   0.336   6.077   2.914  0.1224 -0.3820  1.6765
13073TIP3    H160710   0.349   6.157   2.864 -0.6773 -1.2150  0.0754
13073TIP3    H260711   0.352   6.103   3.005  2.4417  0.9949  0.9629
13074TIP3   OH260712   4.318   6.463  13.883  0.2732  0.1792  0.1457
13074TIP3    H160713   4.320   6.558  13.871 -2.5807  0.4123  0.8037
13074TIP3    H260714   4.226   6.443  13.899  0.6038 -2.8648 -1.0678
13075TIP3   OH260715   6.276   4.522  17.104 -0.3054 -0.3196  0.0407
13075TIP3    H160716   6.221   4.600  17.102 -0.6356 -0.5463  0.1233
13075TIP3    H260717   6.220   4.452  17.069  0.2400 -0.3630 -0.7512
13076TIP3   OH260718   0.517   0.941   2.774  0.0439  0.0409  1.0277
13076TIP3    H160719   0.476   0.959   2.859 -1.5074 -2.1626  0.8230
13076TIP3    H260720   0.477   1.004   2.714 -0.4930  0.1616  1.5115
13077TIP3   OH260721   4.254   1.324   5.853 -0.0178 -0.0532 -0.3635
13077TIP3    H160722   4.280   1.310   5.944 -1.9456 -1.3700  0.0534
13077TIP3    H260723   4.239   1.235   5.819 -0.7984  0.4940 -1.4903
13078TIP3   OH260724   1.231   2.223  11.902 -0.1421  0.1323  0.3072
13078TIP3    H160725   1.246   2.304  11.952 -2.3166  1.4200 -0.9526
13078TIP3    H260726   1.279   2.236  11.820  0.4797 -0.4090  0.5762
13079TIP3   OH260727   1.664   5.636  15.049 -0.1998  0.0101  0.4759
13079TIP3    H160728   1.689   5.651  15.140  1.2406  0.7370 -0.0054
13079TIP3    H260729   1.597   5.703  15.031  1.9786  2.2108  0.0543
13080TIP3   OH260730   0.000   6.091  12.148  0.1716  0.1103 -0.4180
13080TIP3    H160731   0.074   6.149  12.128 -1.5902  3.1669  1.2750
13080TIP3    H260732   0.023   6.050  12.231 -0.2829  1.6460  0.4986
13081TIP3   OH260733   3.317   4.215  14.943 -0.4095 -0.4739 -0.1469
13081TIP3    H160734   3.327   4.193  14.850  1.3960 -0.4439 -0.0065
13081TIP3    H260735   3.228   4.250  14.950 -0.4164  0.0187 -1.9675
13082TIP3   OH260736   2.129   4.848   5.401 -0.2009  0.1220 -0.5766
13082TIP3    H160737   2.214   4.808   5.420 -0.8230 -1.6724 -1.3338
13082TIP3    H260738   2.072   4.820   5.473 -0.1051  1.5555  0.0821
13083TIP3   OH260739   2.283   6.448   0.933 -0.0959  0.0467  0.5276
13083TIP3    H160740   2.242   6.394   0.866  0.3504 -0.3142  0.5398
13083TIP3    H260741   2.214   6.465   0.997 -0.6920  0.8975 -0.3209
13084TIP3   OH260742   2.002   3.798   4.321 -0.7251 -0.1157  0.1395
13084TIP3    H160743   1.922   3.822   4.368  0.5977 -0.2005  2.6397
13084TIP3    H260744   1.993   3.704   4.304 -1.1342 -0.1363  0.4566
13085TIP3   OH260745   3.810   4.952  13.217  0.1648 -0.2204  0.0617
13085TIP3    H160746   3.831   5.045  13.204  1.4496 -0.6008 -0.6890
13085TIP3    H260747   3.784   4.921  13.130  1.0953 -0.8826  0.0028
13086TIP3   OH260748   6.626   0.500  14.245 -0.3694  0.2717  0.1036
13086TIP3    H160749   6.671   0.475  14.326  0.6472  1.8042  0.0406
13086TIP3    H260750   6.664   0.443  14.178 -1.7245 -1.5107  0.7696
13087TIP3   OH260751   5.128   2.495  10.421 -0.6648  0.5037 -0.7300
13087TIP3    H160752   5.054   2.555  10.411 -2.2081 -0.8971  1.5050
13087TIP3    H260753   5.089   2.408  10.418  0.7885 -0.2661  1.1228
13088TIP3   OH260754   2.448   1.490  11.296 -0.2202  0.3654  0.2439
13088TIP3    H160755   2.521   1.487  11.358  0.3814  0.6900 -0.4351
13088TIP3    H260756   2.461   1.413  11.241  0.0886  0.8773 -0.4064
13089TIP3   OH260757   0.332   3.531  13.722  0.3801 -0.0368  0.0980
13089TIP3    H160758   0.346   3.556  13.631  0.2103 -1.6339 -0.3895
13089TIP3    H260759   0.407   3.567  13.769 -0.3004  2.1673 -0.3659
13090TIP3   OH260760   4.350   1.895  13.638  0.7406  0.0794  0.0750
13090TIP3    H160761   4.330   1.820  13.583  0.0803 -0.2306  0.7168
13090TIP3    H260762   4.311   1.874  13.723 -0.0185  1.4072  0.1018
13091TIP3   OH260763   5.765   0.930   1.678 -0.3569  0.3974 -0.6862
13091TIP3    H160764   5.801   0.907   1.764 -2.8883  0.8482  0.5915
13091TIP3    H260765   5.767   1.025   1.676 -0.3597  0.3906 -1.1222
13092TIP3   OH260766   2.785   0.896  10.765  0.6407  0.4400  0.8577
13092TIP3    H160767   2.752   0.844  10.691 -1.9501  1.9185  0.8432
13092TIP3    H260768   2.808   0.981  10.726  0.6293  0.7579  1.5402
13093TIP3   OH260769   1.021   2.404  13.000 -0.8588 -0.2304 -0.2351
13093TIP3    H160770   1.059   2.322  12.971  2.5283  0.4282  1.7897
13093TIP3    H260771   0.994   2.388  13.091  0.1529  0.9438  0.2946
13094TIP3   OH260772   4.343   3.593  15.327  0.4376  0.1495  0.1071
13094TIP3    H160773   4.366   3.683  15.304  0.4898 -0.9160 -4.9859
13094TIP3    H260774   4.249   3.596  15.345  0.2574  1.1165 -0.9246
13095TIP3   OH260775   1.187   1.659  14.589 -0.2669 -0.1641  0.4299
13095TIP3    H160776   1.189   1.663  14.493  1.0494  1.0716  0.4747
13095TIP3    H260777   1.115   1.599  14.609 -0.3409 -0.7244 -1.3324
13096TIP3   OH260778   6.346   1.926  12.882  0.7403  0.0874  0.1477
13096TIP3    H160779   6.305   1.841  12.896 -0.3061  0.7974  1.6229
13096TIP3    H260780   6.354   1.934  12.787 -0.6024 -0.9741 -0.0754
13097TIP3   OH260781   4.240   2.858  13.644  0.7358 -0.2536 -0.0293
13097TIP3    H160782   4.330   2.883  13.664  1.5707 -2.1648 -1.0855
13097TIP3    H260783   4.240   2.838  13.551 -0.8783  0.0072 -0.1169
13098TIP3   OH260784   1.758   0.113  12.898 -0.0614  0.5219  0.4791
13098TIP3    H160785   1.733   0.189  12.845  0.4856  0.6350  0.3816
13098TIP3    H260786   1.682   0.055  12.893 -0.4911  1.0601  0.5604
13099TIP3   OH260787   2.373   6.487  17.006 -0.4149 -0.1917 -0.1474
13099TIP3    H160788   2.293   6.441  16.979 -0.6855 -0.2426  0.7295
13099TIP3    H260789   2.345   6.578  17.020 -0.7699 -0.5788  2.0230
13100TIP3   OH260790   4.679   0.752   6.132  0.1154 -0.5815 -0.0736
13100TIP3    H160791   4.746   0.696   6.172  1.1972  1.4615  1.1388
13100TIP3    H260792   4.693   0.838   6.172 -3.2162 -0.0358  0.2169
13101TIP3   OH260793   2.024   0.590  14.571 -0.0707  0.3556  0.3223
13101TIP3    H160794   2.116   0.567  14.558 -0.2857 -1.0578  1.1050
13101TIP3    H260795   2.024   0.656  14.640  0.2465 -1.4598  2.1675
13102TIP3   OH260796   3.308   1.725  12.260  0.0483  0.1659 -0.1477
13102TIP3    H160797   3.384   1.776  12.232  0.6940 -1.3117 -1.1973
13102TIP3    H260798   3.335   1.687  12.344  0.4882 -0.3852 -0.5361
13103TIP3   OH260799   0.672   5.945   1.403 -0.4602 -0.2419 -0.1443
13103TIP3    H160800   0.636   6.015   1.459  2.7326  1.7478 -0.3404
13103TIP3    H260801   0.727   5.893   1.461  0.4372 -0.0437 -0.7944
13104TIP3   OH260802   2.298   2.285   2.078 -0.1891  0.4604  0.1683
13104TIP3    H160803   2.238   2.356   2.104  2.0834  2.6360 -0.1985
13104TIP3    H260804   2.280   2.272   1.985 -0.9553  0.1727  0.3466
13105TIP3   OH260805   6.000   2.043  16.162 -0.0242  0.1692 -0.1455
13105TIP3    H160806   5.908   2.034  16.188 -0.1469  0.1054 -0.5893
13105TIP3    H260807   6.005   1.999  16.077  0.5065 -0.1744  0.0607
13106TIP3   OH260808   6.373   1.942   2.418  0.2219 -0.2355  0.2596
13106TIP3    H160809   6.367   1.969   2.510  2.7741 -3.4473  1.5779
13106TIP3    H260810   6.293   1.976   2.378 -0.3783  2.4355  3.2882
13107TIP3   OH260811   0.752   4.733   2.792  0.3314  0.2796 -0.3196
13107TIP3    H160812   0.665   4.757   2.760 -0.1792 -0.4106  0.4914
13107TIP3    H260813   0.760   4.779   2.876  0.8545  0.5151 -0.4887
13108TIP3   OH260814   2.665   2.327   2.503 -0.0670  0.7808  0.1904
13108TIP3    H160815   2.713   2.284   2.432 -1.4076  0.5207 -0.5992
13108TIP3    H260816   2.578   2.343   2.466 -2.5657 -3.8186  3.2539
13109TIP3   OH260817   2.562   1.757  13.876 -0.0466 -0.0703  0.0454
13109TIP3    H160818   2.487   1.700  13.860 -0.4600  0.9713 -2.0475
13109TIP3    H260819   2.638   1.701  13.861 -0.4250 -0.5345 -0.1743
13110TIP3   OH260820   3.329   3.164  17.212  0.3815  0.4923  0.1626
13110TIP3    H160821   3.349   3.201  17.126 -2.1324  1.2696 -0.1715
13110TIP3    H260822   3.354   3.072  17.205 -0.0893  0.4653 -1.5431
13111TIP3   OH260823   0.162   6.410   3.489 -0.0917 -0.4539  0.3596
13111TIP3    H160824   0.165   6.374   3.400 -4.4558 -2.7839  0.8459
13111TIP3    H260825   0.218   6.352   3.540  2.6863  1.0775 -0.7658
13112TIP3   OH260826   1.988   4.850  15.868  0.5742  0.0253 -0.2508
13112TIP3    H160827   1.978   4.924  15.927 -1.4691  0.3786 -0.9525
13112TIP3    H260828   2.079   4.822  15.879  0.4908  0.5605  2.4376
13113TIP3   OH260829   0.066   6.452  17.185 -0.0239 -0.6054  0.0199
13113TIP3    H160830   0.085   6.518  17.118  0.2124 -0.8257 -0.1333
13113TIP3    H260831   0.019   6.383  17.138  0.8667 -1.1422 -0.1047
13114TIP3   OH260832   1.443   0.164   3.043  0.4894 -0.0031  0.2554
13114TIP3    H160833   1.397   0.081   3.053  3.3021 -1.8250 -0.8282
13114TIP3    H260834   1.444   0.202   3.131  0.8962 -2.1163  1.2124
13115TIP3   OH260835   1.342   3.383   2.608  0.6749 -0.0388 -0.3867
13115TIP3    H160836   1.267   3.362   2.553 -0.3066 -0.3660  1.0461
13115TIP3    H260837   1.384   3.457   2.562  0.2944 -0.7208 -1.9094
13116TIP3   OH260838   1.272   0.229   2.084  0.0821  0.2681  0.1748
13116TIP3    H160839   1.346   0.261   2.136 -0.2566  1.0841  0.1691
13116TIP3    H260840   1.277   0.279   2.003 -0.0793 -0.1661 -0.1057
13117TIP3   OH260841   5.062   5.321   0.561 -0.2691 -0.3125 -0.0191
13117TIP3    H160842   5.037   5.228   0.569 -1.9968  0.0781 -0.5080
13117TIP3    H260843   4.984   5.364   0.526  0.5123  1.3414  0.1868
13118TIP3   OH260844   5.743   5.528  11.321  0.0016  0.4096 -0.7263
13118TIP3    H160845   5.720   5.506  11.231 -1.3605 -1.3055 -0.0218
13118TIP3    H260846   5.818   5.472  11.342  0.1969  0.6687 -0.7295
13119TIP3   OH260847   4.478   4.553   6.356  0.0332 -0.2765  0.6475
13119TIP3    H160848   4.396   4.518   6.391 -0.7393  0.0209 -0.7952
13119TIP3    H260849   4.452   4.634   6.312  0.7478 -1.1258 -1.4656
13120TIP3   OH260850   3.214   5.322  14.096  0.1559 -0.2477  0.6042
13120TIP3    H160851   3.129   5.364  14.107 -0.3191 -0.9411 -0.3162
13120TIP3    H260852   3.271   5.368  14.158 -0.5440  1.1600  0.2602
13121TIP3   OH260853   0.167   2.402   1.676  0.4635  0.5496  0.2031
13121TIP3    H160854   0.188   2.399   1.583 -1.0671 -0.3194 -0.1496
13121TIP3    H260855   0.105   2.474   1.685 -0.0419  0.1014  0.3873
13122TIP3   OH260856   0.308   1.383  12.174  0.2089 -0.4989 -0.3471
13122TIP3    H160857   0.215   1.405  12.167 -0.4581 -2.1270  2.0567
13122TIP3    H260858   0.350   1.435  12.106 -1.9435  3.2635  0.9040
13123TIP3   OH260859   0.903   6.051  11.890  0.4086 -0.1194 -0.0914
13123TIP3    H160860   0.901   6.033  11.796  0.0738 -0.1544 -0.0769
13123TIP3    H260861   0.953   6.133  11.897 -1.4440  1.1215 -0.5060
13124TIP3   OH260862   6.511   1.112   2.239 -0.4842  0.0087 -0.1013
13124TIP3    H160863   6.514   1.157   2.323 -2.2832 -2.7700  1.6228
13124TIP3    H260864   6.555   1.171   2.178  1.5444  1.8240  2.8973
13125TIP3   OH260865   1.292   4.800  13.537 -0.3961  0.0817  0.0377
13125TIP3    H160866   1.334   4.726  13.492  1.2888  0.9803  0.0673
13125TIP3    H260867   1.231   4.758  13.598  1.2606 -1.3673  0.8001
13126TIP3   OH260868   3.390   0.256  12.108  0.1804 -0.3009 -0.3980
13126TIP3    H160869   3.375   0.170  12.147  0.3627 -0.0156  0.3325
13126TIP3    H260870   3.302   0.291  12.092  0.0547  0.0732  0.9243
13127TIP3   OH260871   3.082   3.581  13.430 -0.0819 -0.3829  0.0985
13127TIP3    H160872   3.083   3.672  13.459 -2.5754 -1.0589  2.8528
13127TIP3    H260873   3.124   3.533  13.502 -1.4631 -1.6389  0.1231
13128TIP3   OH260874   3.449   5.658   2.508 -0.4470 -0.0786 -0.0210
13128TIP3    H160875   3.537   5.619   2.505 -0.8630 -0.9791 -1.1007
13128TIP3    H260876   3.465   5.752   2.504  0.4465 -0.2573 -1.1765
13129TIP3   OH260877   5.509   3.355   5.882  0.1790  0.6119  0.6859
13129TIP3    H160878   5.602   3.353   5.859 -0.4466 -1.6927 -2.3931
13129TIP3    H260879   5.503   3.306   5.964  1.6870  0.9696  1.0340
13130TIP3   OH260880   0.743   2.565  10.846  0.1145  0.3651  0.0929
13130TIP3    H160881   0.680   2.507  10.888 -0.2958  0.0876 -0.8806
13130TIP3    H260882   0.805   2.505  10.803  0.9343  0.6357  0.8627
13131TIP3   OH260883   1.760   4.465   5.916  0.0689 -0.4705  0.3920
13131TIP3    H160884   1.744   4.506   6.001  0.3385 -0.8919  0.6481
13131TIP3    H260885   1.759   4.371   5.934 -0.7099 -0.5912 -0.2167
13132TIP3   OH260886   5.518   1.923  11.990  0.1684 -0.0713  0.6386
13132TIP3    H160887   5.578   1.994  11.970 -0.0405  0.2860  1.2731
13132TIP3    H260888   5.443   1.938  11.931  0.5785 -0.3707  0.0330
13133TIP3   OH260889   1.759   3.226  12.903 -0.2690 -0.4736  0.0834
13133TIP3    H160890   1.668   3.256  12.905  0.2185  1.0172  1.4212
13133TIP3    H260891   1.803   3.286  12.842  0.3119  0.4484  1.3496
13134TIP3   OH260892   0.590   0.878   0.319 -0.0986 -0.2003  0.0617
13134TIP3    H160893   0.500   0.854   0.295  0.1018  0.5655 -1.6079
13134TIP3    H260894   0.581   0.922   0.404 -1.7417  2.2706 -1.2547
13135TIP3   OH260895   1.368   4.708   1.938 -0.0117  0.0254 -0.2491
13135TIP3    H160896   1.411   4.623   1.926 -0.0122  0.1335 -1.0901
13135TIP3    H260897   1.276   4.686   1.953  0.3390 -0.2167  1.7600
13136TIP3   OH260898   5.746   0.934  13.344  0.4037 -0.8545 -0.8389
13136TIP3    H160899   5.712   0.914  13.257 -1.6783  1.4660 -0.6853
13136TIP3    H260900   5.809   1.005  13.329 -2.5566  2.1281 -0.3291
13137TIP3   OH260901   4.236   0.313   2.850  0.1395 -0.1149 -0.0528
13137TIP3    H160902   4.236   0.218   2.866  0.4954 -0.7300 -3.1282
13137TIP3    H260903   4.157   0.328   2.798  0.5778  1.0947 -0.3872
13138TIP3   OH260904   2.792   6.043  12.521  0.1591 -0.3933  0.2837
13138TIP3    H160905   2.725   5.994  12.473  1.1496  0.0304 -1.6297
13138TIP3    H260906   2.752   6.128  12.540 -0.4720 -0.8037  0.8201
13139TIP3   OH260907   5.210   3.658  13.750  0.7283 -0.7576 -0.4687
13139TIP3    H160908   5.203   3.734  13.691  0.2391 -0.3632  0.0784
13139TIP3    H260909   5.184   3.584  13.696  1.2601 -0.5431 -1.0285
13140TIP3   OH260910   2.547   3.558   2.270  0.8205 -0.0827  0.1411
13140TIP3    H160911   2.502   3.628   2.223  1.5113  0.3149  0.0519
13140TIP3    H260912   2.635   3.558   2.233  0.1830 -2.6112 -1.6033
13141TIP3   OH260913   1.629   6.234   4.416 -0.6727  0.1419 -0.3969
13141TIP3    H160914   1.641   6.224   4.510 -1.0587 -0.8071 -0.4385
13141TIP3    H260915   1.538   6.208   4.400 -0.3165 -0.6986 -1.1565
13142TIP3   OH260916   3.655   1.275   3.081  0.4491 -0.1814 -0.2351
13142TIP3    H160917   3.716   1.241   3.016  0.1821 -1.2824  0.0789
13142TIP3    H260918   3.575   1.224   3.069 -0.4298  1.2079 -0.6088
13143TIP3   OH260919   2.131   4.205  16.212 -0.2001  0.3575 -0.3978
13143TIP3    H160920   2.139   4.125  16.263 -0.7158 -0.8808 -2.1754
13143TIP3    H260921   2.045   4.199  16.171  0.5407  0.8636 -2.1019
13144TIP3   OH260922   2.071   0.433  15.616 -0.1226 -0.0683 -0.4969
13144TIP3    H160923   2.029   0.372  15.557 -1.3585  0.5434 -0.2856
13144TIP3    H260924   2.015   0.511  15.614  0.2560  0.2671  0.8319
13145TIP3   OH260925   2.113   1.848   5.316  0.2789  0.2987 -0.7727
13145TIP3    H160926   2.057   1.809   5.384 -0.4137  1.6381 -0.5384
13145TIP3    H260927   2.180   1.782   5.299  0.3671 -0.1356  1.0954
13146TIP3   OH260928   1.033   4.398  15.171 -0.3391 -0.2154  0.3070
13146TIP3    H160929   1.087   4.386  15.249 -0.3342 -2.3487  0.0435
13146TIP3    H260930   0.944   4.381  15.202 -0.9124  2.9002  0.6553
13147TIP3   OH260931   5.662   1.032   0.160 -0.0684  0.6116  0.0274
13147TIP3    H160932   5.708   0.973   0.220  0.6574  1.7337  0.6096
13147TIP3    H260933   5.574   1.038   0.196 -0.0362  0.1878  0.1864
13148TIP3   OH260934   6.426   1.277   5.921  0.0989 -0.3290  0.0417
13148TIP3    H160935   6.461   1.222   5.850 -1.1134 -1.6716  0.4355
13148TIP3    H260936   6.436   1.366   5.888  0.7245 -0.8508 -1.2885
13149TIP3   OH260937   2.278   5.882  14.302 -0.0109  0.2394  0.1559
13149TIP3    H160938   2.225   5.826  14.246 -0.3956  1.4538 -0.7346
13149TIP3    H260939   2.292   5.830  14.382 -1.8539 -0.4126  0.0938
13150TIP3   OH260940   1.208   1.826   1.585  0.1981  0.6884 -0.8264
13150TIP3    H160941   1.258   1.810   1.665  0.6302  2.6366 -0.6724
13150TIP3    H260942   1.245   1.906   1.548 -1.6404  1.2102 -1.6672
13151TIP3   OH260943   1.004   5.473  12.057 -0.3607  0.2192 -0.2493
13151TIP3    H160944   0.952   5.491  12.136  0.7644 -2.1232  1.1344
13151TIP3    H260945   0.970   5.390  12.024  0.9209 -0.1605 -0.6788
13152TIP3   OH260946   2.089   5.735  13.557 -0.6889  0.4294 -0.0940
13152TIP3    H160947   2.181   5.761  13.565 -0.8344  1.3553 -1.3477
13152TIP3    H260948   2.047   5.806  13.509 -2.0178 -0.1141  0.2147
13153TIP3   OH260949   3.858   3.227  15.625 -0.2630  0.0929 -0.5609
13153TIP3    H160950   3.865   3.322  15.623  1.5318 -0.0112 -0.8114
13153TIP3    H260951   3.764   3.210  15.615 -0.6100  1.8182 -0.6043
13154TIP3   OH260952   0.030   3.782  15.687 -0.2770 -0.0691 -0.5456
13154TIP3    H160953   0.059   3.734  15.610  0.2929  0.9485 -0.9793
13154TIP3    H260954  -0.037   3.842  15.654 -0.2356  0.1660 -0.2070
13155TIP3   OH260955   2.907   0.278  14.899 -0.2867 -0.5472  0.0304
13155TIP3    H160956   2.859   0.213  14.950  0.4893  0.1646  1.7139
13155TIP3    H260957   2.910   0.241  14.810 -2.9276 -1.1364  0.1084
13156TIP3   OH260958   0.000   4.367  10.816 -0.4144 -0.3374  0.0069
13156TIP3    H160959   0.088   4.341  10.846 -0.2029  1.2180  0.8158
13156TIP3    H260960   0.015   4.411  10.733 -0.2398  1.1457  0.7951
13157TIP3   OH260961   1.969   4.226   4.282 -0.1925 -0.1050  0.6842
13157TIP3    H160962   1.921   4.147   4.261 -1.8011  0.5393  1.7319
13157TIP3    H260963   1.993   4.263   4.197 -1.6744 -0.3902  0.1107
13158TIP3   OH260964   2.922   0.528  16.719  0.5763 -0.0568 -0.0867
13158TIP3    H160965   2.973   0.609  16.708  0.6746 -0.3776 -2.4125
13158TIP3    H260966   2.835   0.549  16.686 -0.0685 -0.3143  1.3453
13159TIP3   OH260967   1.887   5.046  11.010 -0.1245  0.3268  0.0438
13159TIP3    H160968   1.859   5.138  11.009 -2.0127 -0.1960  0.4926
13159TIP3    H260969   1.890   5.021  10.917  0.3481  0.8062 -0.0793
13160TIP3   OH260970   5.846   6.408  17.260  0.1398  0.1480  0.2484
13160TIP3    H160971   5.774   6.471  17.259 -0.3671 -0.4269 -0.0211
13160TIP3    H260972   5.808   6.327  17.227  0.3671 -0.7691  2.1318
13161TIP3   OH260973   3.954   5.009  10.382 -0.2853  0.6584 -0.0015
13161TIP3    H160974   3.951   5.001  10.477  0.4268 -3.5348 -0.1387
13161TIP3    H260975   4.047   5.002  10.361 -0.5778 -0.3119 -1.0464
13162TIP3   OH260976   3.223   6.389  13.240 -0.0482 -0.2410  0.5388
13162TIP3    H160977   3.270   6.449  13.182  0.8450 -0.5122  0.9508
13162TIP3    H260978   3.292   6.335  13.279 -0.7813 -1.1664  0.5973
13163TIP3   OH260979   4.191   2.864   4.860 -0.0087  0.1954 -0.3145
13163TIP3    H160980   4.206   2.811   4.782  1.9372  0.7859 -0.3988
13163TIP3    H260981   4.188   2.954   4.828  3.2899  0.7233  0.4032
13164TIP3   OH260982   5.216   4.964   1.972 -0.1583  0.2231  0.0097
13164TIP3    H160983   5.291   4.921   2.013 -0.3112 -1.2054 -1.0930
13164TIP3    H260984   5.235   5.057   1.978  0.7736 -0.0259  1.4570
13165TIP3   OH260985   0.840   3.725  15.496  0.4305 -0.1528  0.4234
13165TIP3    H160986   0.863   3.764  15.581  1.9097  1.7916 -0.7898
13165TIP3    H260987   0.789   3.793  15.451 -0.9113 -1.4086 -0.0523
13166TIP3   OH260988   2.852   0.263   1.803  0.0470  0.1701 -0.4761
13166TIP3    H160989   2.784   0.269   1.870 -0.1729 -1.1281 -0.5434
13166TIP3    H260990   2.805   0.235   1.724  0.8300 -2.4242 -0.1157
13167TIP3   OH260991   2.984   6.649   4.904  0.0964 -0.3118  0.5776
13167TIP3    H160992   3.071   6.610   4.909 -0.7391 -2.6293 -1.1369
13167TIP3    H260993   2.929   6.580   4.868 -2.1523  1.5928  0.1056
13168TIP3   OH260994   0.054   6.314   6.130  0.0029  0.2384  0.0352
13168TIP3    H160995   0.033   6.361   6.212  0.3687 -1.3527  1.0858
13168TIP3    H260996   0.142   6.343   6.108  2.1045 -2.9884  3.0898
13169TIP3   OH260997   1.598   1.694  13.121 -0.0105  0.2771 -0.0288
13169TIP3    H160998   1.682   1.701  13.166 -0.3195  0.2007  0.5748
13169TIP3    H260999   1.553   1.621  13.165 -0.9502  1.1986  0.5957
13170TIP3   OH261000   1.303   2.551  17.143  0.0092 -0.2837  0.0571
13170TIP3    H161001   1.214   2.566  17.112 -0.0928 -0.8346  0.0787
13170TIP3    H261002   1.359   2.593  17.078 -0.2568 -0.0725 -0.0375
13171TIP3   OH261003   6.602   4.061   1.478 -0.4225 -0.1049 -0.1910
13171TIP3    H161004   6.617   4.086   1.569  1.6887 -1.4727 -0.1051
13171TIP3    H261005   6.614   4.143   1.429  2.9390 -0.1156  0.3867
13172TIP3   OH261006   3.594   6.445   6.149  0.4352  0.2207 -0.2738
13172TIP3    H161007   3.662   6.411   6.207  0.3521  4.1089  2.4778
13172TIP3    H261008   3.512   6.425   6.193 -0.0265 -0.9062 -1.5649
13173TIP3   OH261009   3.509   3.567   3.659  0.2562 -0.0614 -0.0655
13173TIP3    H161010   3.417   3.572   3.684 -0.0216  0.9736 -1.1940
13173TIP3    H261011   3.508   3.539   3.568  1.0686 -0.3360  0.0050
13174TIP3   OH261012   1.716   0.802   4.666  0.0669 -0.3573  0.3257
13174TIP3    H161013   1.718   0.744   4.742 -0.5154 -0.4967  0.2368
13174TIP3    H261014   1.748   0.749   4.593 -0.6745 -0.6451  0.1987
13175TIP3   OH261015   2.329   0.341  11.197 -0.0123  0.1811  0.1186
13175TIP3    H161016   2.243   0.318  11.162 -0.4566  0.0192  1.2613
13175TIP3    H261017   2.373   0.257  11.210 -0.2062  0.1760  0.7887
13176TIP3   OH261018   1.087   6.316  11.033 -0.1178 -0.3878 -0.1604
13176TIP3    H161019   1.121   6.276  11.113  0.2787 -0.4575 -0.3607
13176TIP3    H261020   1.125   6.264  10.963 -0.7857 -0.5828 -0.3919
13177TIP3   OH261021   4.119   3.837   1.153 -0.0564  0.4523 -0.4156
13177TIP3    H161022   4.138   3.860   1.244  2.7325  1.3319 -1.1225
13177TIP3    H261023   4.136   3.743   1.147 -1.3703  0.1502  0.1680
13178TIP3   OH261024   3.090   0.355  12.665 -0.0941  0.0470 -0.0433
13178TIP3    H161025   3.147   0.337  12.740  0.0850 -2.8285 -0.7575
13178TIP3    H261026   3.004   0.368  12.704  0.1898 -0.3398  0.7497
13179TIP3   OH261027   4.805   0.143  16.613  0.2339  0.6527 -0.5040
13179TIP3    H161028   4.724   0.093  16.601 -1.4702  3.3251 -1.0028
13179TIP3    H261029   4.810   0.156  16.708 -0.5247  1.3332 -0.5437
13180TIP3   OH261030   3.397   5.464   4.257  0.6266 -0.9725  0.2219
13180TIP3    H161031   3.406   5.406   4.332 -0.8959  0.4821  1.6389
13180TIP3    H261032   3.371   5.548   4.295 -0.7313 -0.3097 -1.9761
13181TIP3   OH261033   6.645   3.833   2.301  0.0227 -0.3883 -0.8365
13181TIP3    H161034   6.685   3.785   2.374  1.5736  0.1991 -1.2675
13181TIP3    H261035   6.608   3.765   2.245 -0.9809 -0.8630  0.3507
13182TIP3   OH261036   2.213   5.048  14.208 -0.3108 -0.1030  0.5013
13182TIP3    H161037   2.128   5.021  14.173 -1.2449  0.2667  2.3586
13182TIP3    H261038   2.192   5.114  14.274  1.1902 -1.7450  2.7562
13183TIP3   OH261039   0.946   0.452  11.914  0.3189 -0.3014  0.0735
13183TIP3    H161040   0.931   0.546  11.926  0.2400 -0.3527  0.3833
13183TIP3    H261041   0.983   0.445  11.826 -0.3628 -0.0603 -0.2329
13184TIP3   OH261042   1.079   3.483  12.842  0.6143 -0.2559 -0.1238
13184TIP3    H161043   0.986   3.462  12.833  0.4696  0.3041  0.0437
13184TIP3    H261044   1.123   3.416  12.790  0.1894 -1.1929  0.6794
13185TIP3   OH261045   5.132   3.817  14.544 -0.1617  0.2596 -0.3598
13185TIP3    H161046   5.202   3.876  14.570  1.2541 -0.3077 -2.6419
13185TIP3    H261047   5.161   3.779  14.461 -1.8504 -2.2378  0.0720
13186TIP3   OH261048   6.534   3.425  12.255 -0.1445 -0.1901 -0.2543
13186TIP3    H161049   6.454   3.373  12.252 -0.9639  1.0486 -2.2903
13186TIP3    H261050   6.529   3.473  12.337 -0.4406 -1.6517  0.6145
13187TIP3   OH261051   5.452   5.541   2.998 -0.3477 -0.1719 -0.0258
13187TIP3    H161052   5.462   5.618   2.941  2.4714 -0.7517 -0.4389
13187TIP3    H261053   5.470   5.466   2.941  1.0633 -0.8483  1.2497
13188TIP3   OH261054   3.849   2.602  13.769  0.2085  0.2345 -0.0106
13188TIP3    H161055   3.831   2.569  13.680  3.5816  0.3294 -0.8344
13188TIP3    H261056   3.878   2.692  13.756 -0.2467  0.5921  1.3248
13189TIP3   OH261057   3.100   1.149  16.199 -0.1401  0.1666  0.7163
13189TIP3    H161058   3.025   1.208  16.206 -1.5530 -1.2340 -1.4070
13189TIP3    H261059   3.091   1.108  16.113  3.6192  0.5669 -0.0577
13190TIP3   OH261060   2.155   1.408  14.590  0.7239  0.1353 -0.2264
13190TIP3    H161061   2.203   1.332  14.624  0.1739  0.1490  0.6248
13190TIP3    H261062   2.217   1.481  14.599 -0.1360  0.6402  3.1281
13191TIP3   OH261063   6.803   6.299   4.960 -0.2355 -0.0941 -0.4381
13191TIP3    H161064   6.869   6.335   4.901 -0.7945  2.3710  0.3303
13191TIP3    H261065   6.727   6.281   4.903 -0.3056  0.9822 -0.7074
13192TIP3   OH261066   2.762   1.163  16.042  0.7255 -0.0439 -0.3086
13192TIP3    H161067   2.698   1.115  15.990 -1.3552 -0.3186  2.3309
13192TIP3    H261068   2.844   1.116  16.028  0.2229 -0.3423 -2.9001
13193TIP3   OH261069   6.771   6.584  13.356  0.1063 -0.8011  0.6461
13193TIP3    H161070   6.849   6.616  13.310  0.4582 -1.7258  0.5758
13193TIP3    H261071   6.798   6.579  13.448 -1.1670  2.8679  1.3712
13194TIP3   OH261072   4.157   2.813   1.927  0.1392  0.1847 -0.6012
13194TIP3    H161073   4.229   2.830   1.866  0.3395 -0.3616 -0.5256
13194TIP3    H261074   4.083   2.791   1.870  0.0137  0.8086 -0.6813
13195TIP3   OH261075   6.463   5.186   3.522  0.5174 -0.0589  0.2418
13195TIP3    H161076   6.458   5.281   3.515 -0.7053 -0.0928  0.4152
13195TIP3    H261077   6.403   5.164   3.593 -0.2423 -1.0563 -0.6734
13196TIP3   OH261078   2.665   6.457  10.606  0.0853  0.0871  0.0982
13196TIP3    H161079   2.645   6.364  10.613 -0.3946  0.1794 -0.0229
13196TIP3    H261080   2.616   6.487  10.529 -1.2169  0.8156  1.1714
13197TIP3   OH261081   6.390   6.149   0.459  0.5789  0.4605  0.0776
13197TIP3    H161082   6.354   6.203   0.530 -2.7919 -1.0838 -0.2854
13197TIP3    H261083   6.370   6.198   0.379  1.5860  0.7146 -0.0415
13198TIP3   OH261084   3.215   6.217  12.742  0.1843  0.4961  0.1602
13198TIP3    H161085   3.225   6.150  12.809  0.8262  0.2858 -0.1401
13198TIP3    H261086   3.210   6.299  12.791  2.0213  0.4875  0.4322
13199TIP3   OH261087   0.810   2.255  16.203  0.6196 -0.8299  0.1697
13199TIP3    H161088   0.869   2.188  16.235  0.1501 -0.7513  1.2614
13199TIP3    H261089   0.723   2.229  16.235  0.2981 -0.1581 -0.1111
13200TIP3   OH261090   0.057   5.231  12.529  0.6827 -0.0335 -0.0056
13200TIP3    H161091   0.107   5.165  12.578 -1.4800 -0.4412  1.8128
13200TIP3    H261092   0.120   5.267  12.467  2.5423 -2.2544  0.4304
13201TIP3   OH261093   2.320   3.319  12.396  0.8424  0.2627 -0.3621
13201TIP3    H161094   2.275   3.280  12.321  0.8062 -1.3222  0.4405
13201TIP3    H261095   2.409   3.336  12.365  0.5300  0.6343 -1.0691
13202TIP3   OH261096   2.453   6.391   5.844  0.6655  0.3773  0.3674
13202TIP3    H161097   2.484   6.367   5.931  1.0491 -0.1131  0.1037
13202TIP3    H261098   2.533   6.403   5.792  0.4271 -0.5243 -0.2273
13203TIP3   OH261099   6.435   0.782   3.573  0.2869 -0.0933 -0.1357
13203TIP3    H161100   6.493   0.728   3.626 -0.6743  0.3446  1.4613
13203TIP3    H261101   6.448   0.752   3.483  2.0373 -0.8292  0.3285
13204TIP3   OH261102   6.702   2.408  14.043  0.3960 -0.3906  0.1695
13204TIP3    H161103   6.784   2.370  14.074  0.9726 -0.8451 -1.7976
13204TIP3    H261104   6.726   2.457  13.964 -0.7717  1.9054  1.1344
13205TIP3   OH261105   6.631   4.269   5.657 -0.0636 -0.1491  0.3649
13205TIP3    H161106   6.573   4.193   5.652 -0.1215 -0.1566  0.9744
13205TIP3    H261107   6.713   4.233   5.692  0.8377 -0.4162 -1.8781
13206TIP3   OH261108   2.321   2.336  12.709  0.4741 -0.9627 -0.0213
13206TIP3    H161109   2.289   2.246  12.706 -1.2150 -0.4770  1.5779
13206TIP3    H261110   2.254   2.388  12.664  0.6797 -0.3374  0.3738
13207TIP3   OH261111   5.763   1.621   2.399 -0.6019  0.5358  1.0917
13207TIP3    H161112   5.705   1.646   2.327 -0.7370 -1.1008  0.5860
13207TIP3    H261113   5.844   1.670   2.382 -0.0251 -1.0298 -1.1851
13208TIP3   OH261114   0.913   4.821  13.511 -0.0990 -0.5831 -0.3120
13208TIP3    H161115   0.964   4.800  13.589 -1.2308  1.5668  1.1072
13208TIP3    H261116   0.977   4.818  13.439  1.2519 -1.3729  0.8754
13209TIP3   OH261117   4.066   6.316  14.854 -0.0605  0.0055 -0.1845
13209TIP3    H161118   4.040   6.307  14.762 -0.5110 -0.3175 -0.0275
13209TIP3    H261119   3.992   6.359  14.895 -0.6123 -1.4396  0.3873
13210TIP3   OH261120   0.133   6.511  13.957 -0.0684 -0.0082 -0.2836
13210TIP3    H161121   0.200   6.548  14.014 -2.2620 -0.1858  2.6595
13210TIP3    H261122   0.077   6.585  13.935  0.3152 -0.0969 -1.6459
13211TIP3   OH261123   2.022   5.655  17.195 -0.0377  0.4676 -0.8655
13211TIP3    H161124   2.109   5.653  17.154 -0.1579  0.4217 -1.1191
13211TIP3    H261125   1.961   5.655  17.121 -0.2559  0.3873 -0.6836
13212TIP3   OH261126   2.193   1.523  16.037 -0.1834  0.6074  0.1954
13212TIP3    H161127   2.253   1.538  16.110  1.8542  0.0276 -1.2628
13212TIP3    H261128   2.239   1.461  15.980 -2.8759 -1.1377 -0.2486
13213TIP3   OH261129   4.906   6.201   0.122  0.5079  0.5767  0.4086
13213TIP3    H161130   4.841   6.155   0.175  0.3463  1.8650  1.3931
13213TIP3    H261131   4.861   6.219   0.039  0.6537 -1.1838 -0.0740
13214TIP3   OH261132   5.692   3.457  14.936  0.5255 -0.1017 -0.0033
13214TIP3    H161133   5.597   3.465  14.926  0.4672 -1.5880 -1.0738
13214TIP3    H261134   5.726   3.540  14.904 -0.3783  0.0172 -0.7171
13215TIP3   OH261135   1.068   5.364   2.959 -0.2990  0.0408 -0.3531
13215TIP3    H161136   0.978   5.341   2.983  0.2460 -0.9977  0.8595
13215TIP3    H261137   1.095   5.429   3.025 -0.0926  0.1693 -0.5636
13216TIP3   OH261138   6.638   0.819   2.967 -0.0458 -0.1435  0.1824
13216TIP3    H161139   6.571   0.874   3.008  0.4146  1.1378 -0.7349
13216TIP3    H261140   6.645   0.852   2.878  1.3113 -0.7280  0.0549
13217TIP3   OH261141   5.939   0.661  14.065  0.4408  0.1640 -0.0032
13217TIP3    H161142   5.955   0.606  13.988  0.3487  0.1593 -0.0191
13217TIP3    H261143   6.005   0.730  14.059  0.6726 -0.0451  0.1110
13218TIP3   OH261144   2.666   6.624  11.781  0.1968 -0.2394  0.3887
13218TIP3    H161145   2.618   6.564  11.724 -0.6182  0.5187  0.2646
13218TIP3    H261146   2.739   6.571  11.816  1.8629 -0.2609 -2.7635
13219TIP3   OH261147   3.375   0.493  10.941  0.2783 -0.0782 -0.2160
13219TIP3    H161148   3.354   0.411  10.986 -0.9546  0.0121 -0.5716
13219TIP3    H261149   3.455   0.474  10.892  0.0982 -1.0280 -0.1726
13220TIP3   OH261150   1.606   5.109   3.705  0.0141  0.3890  0.1139
13220TIP3    H161151   1.569   5.114   3.617  1.5882 -0.1443 -0.6124
13220TIP3    H261152   1.531   5.085   3.761 -0.5893 -1.7017 -1.4378
13221TIP3   OH261153   1.683   3.960  10.528 -0.4530  0.1008  0.6846
13221TIP3    H161154   1.753   3.946  10.465 -1.0117 -0.5358  0.1996
13221TIP3    H261155   1.727   3.960  10.613  0.0537 -0.9747  0.4389
13222TIP3   OH261156   5.013   3.530   2.524  0.0503 -0.7371 -0.5530
13222TIP3    H161157   4.925   3.528   2.563  0.3367 -0.2919  0.1439
13222TIP3    H261158   5.027   3.441   2.491 -0.1433 -1.1831  0.5305
13223TIP3   OH261159   1.081   3.411   3.915  0.4833 -0.0276  0.3342
13223TIP3    H161160   1.137   3.376   3.985 -1.0226 -1.5143  0.8649
13223TIP3    H261161   1.125   3.385   3.834  2.0916  1.4505  0.6728
13224TIP3   OH261162   6.123   5.111  16.829 -0.0345  0.0265 -0.3279
13224TIP3    H161163   6.049   5.114  16.889  0.3307 -0.9401  0.1891
13224TIP3    H261164   6.198   5.135  16.883 -0.0013  1.3547 -0.9318
13225TIP3   OH261165   0.661   0.355  12.157 -0.4095 -0.1286 -0.0279
13225TIP3    H161166   0.620   0.401  12.230 -1.7934 -2.3089  0.6372
13225TIP3    H261167   0.651   0.415  12.082 -0.8355  1.2474  1.0952
13226TIP3   OH261168   0.643   5.972  15.794  0.3526  0.3217  0.6329
13226TIP3    H161169   0.689   5.934  15.869 -0.8959 -2.4527  0.1162
13226TIP3    H261170   0.696   5.947  15.718  0.1614  0.6992  0.3730
13227TIP3   OH261171   5.411   1.006   1.192  0.6400 -0.0813  0.1271
13227TIP3    H161172   5.458   0.937   1.238 -1.1485 -1.5403 -0.1164
13227TIP3    H261173   5.452   1.010   1.106  1.0236 -0.5478  0.2848
13228TIP3   OH261174   0.580   1.943  13.335  0.6282  0.0503  0.9573
13228TIP3    H161175   0.635   1.866  13.350 -0.4344 -0.5525  1.8894
13228TIP3    H261176   0.612   2.009  13.396  2.1915  0.7390 -0.5230
13229TIP3   OH261177   5.655   2.221  12.423  0.0307 -0.2041 -0.6083
13229TIP3    H161178   5.726   2.203  12.361  0.9343 -1.8667  0.8070
13229TIP3    H261179   5.586   2.159  12.399  1.4536 -2.8715  1.5986
13230TIP3   OH261180   0.240   4.674  13.559  0.1079 -0.0038  0.2632
13230TIP3    H161181   0.299   4.724  13.615 -0.5988  0.1638  0.8777
13230TIP3    H261182   0.286   4.591  13.544 -0.1710 -0.5263  2.0642
13231TIP3   OH261183   5.416   5.721  10.971 -0.0955  0.6640  0.3991
13231TIP3    H161184   5.389   5.669  10.895  1.2815 -0.0199  0.3273
13231TIP3    H261185   5.349   5.788  10.980 -1.0360 -0.1131 -0.5525
13232TIP3   OH261186   2.262   5.826  15.764  0.0771  0.4679  0.2615
13232TIP3    H161187   2.186   5.807  15.819 -0.8037  1.8175 -0.4262
13232TIP3    H261188   2.312   5.745  15.762 -2.0142 -0.8743 -0.2937
13233TIP3   OH261189   1.159   5.221  11.923  0.4040 -0.0315  0.0567
13233TIP3    H161190   1.246   5.189  11.899  1.0514  2.2792 -0.9728
13233TIP3    H261191   1.167   5.316  11.921 -2.5677  0.2981 -1.7443
13234TIP3   OH261192   1.759   2.062   5.859 -0.2373  0.0244  0.2027
13234TIP3    H161193   1.721   2.040   5.944  0.0555  0.2859  0.4009
13234TIP3    H261194   1.848   2.090   5.878 -0.8451  2.2862  0.0995
13235TIP3   OH261195   5.201   1.762   0.087 -0.3573 -0.3779 -0.0352
13235TIP3    H161196   5.193   1.716   0.003  2.5095 -1.2436  0.0803
13235TIP3    H261197   5.280   1.815   0.079  0.4355 -1.0594  2.3529
13236TIP3   OH261198   4.530   1.092  12.654 -0.0891  0.0621 -0.4545
13236TIP3    H161199   4.561   1.004  12.634 -0.3141 -0.2664  0.6003
13236TIP3    H261200   4.502   1.088  12.745  0.4044  1.3718 -0.2179
13237TIP3   OH261201   1.710   2.370  13.963 -0.2723 -0.4096 -0.4262
13237TIP3    H161202   1.684   2.448  13.914 -0.1785  0.8332  1.3886
13237TIP3    H261203   1.653   2.301  13.929 -1.1665  0.7028 -1.2958
13238TIP3   OH261204   4.745   0.270   4.964  0.1296  0.3632  0.2850
13238TIP3    H161205   4.669   0.213   4.960  1.3289 -1.3691  1.1854
13238TIP3    H261206   4.748   0.300   5.055  0.4777  0.4711  0.2412
13239TIP3   OH261207   5.716   1.146   0.477 -0.5149  0.2213  0.7641
13239TIP3    H161208   5.781   1.190   0.532 -1.7068  0.9298  1.6499
13239TIP3    H261209   5.726   1.188   0.391  2.5039 -2.0256 -0.1627
13240TIP3   OH261210   3.435   1.712   0.386 -0.3764 -0.0126  0.2535
13240TIP3    H161211   3.517   1.712   0.436  0.0978 -1.2422 -0.4689
13240TIP3    H261212   3.430   1.800   0.350  0.4631  0.1902  0.5944
13241TIP3   OH261213   4.872   2.311  10.839 -0.3175 -0.0164  0.5809
13241TIP3    H161214   4.913   2.266  10.914  1.0062  0.2480  0.0409
13241TIP3    H261215   4.924   2.390  10.827  0.9176 -1.0728 -1.9297
13242TIP3   OH261216   6.701   3.026  15.069 -0.1515 -0.4481  0.3939
13242TIP3    H161217   6.662   3.100  15.021  0.6527 -0.0805  0.2953
13242TIP3    H261218   6.626   2.972  15.093 -0.7656  0.4275  0.5106
13243TIP3   OH261219   2.819   1.174  11.182  0.5126 -0.2639  0.2011
13243TIP3    H161220   2.910   1.155  11.206  0.5483 -0.8897 -0.3879
13243TIP3    H261221   2.791   1.096  11.134  0.1953  0.5921 -1.0491
13244TIP3   OH261222   4.825   3.825  13.243 -0.3121  0.5446 -0.3554
13244TIP3    H161223   4.870   3.859  13.321 -2.3608  1.1353  0.6589
13244TIP3    H261224   4.755   3.770  13.278 -1.0621  0.5311 -1.7947
13245TIP3   OH261225   6.507   5.091  14.678 -0.0938 -0.1565  0.2503
13245TIP3    H161226   6.424   5.044  14.684 -1.2185  1.7901  1.0779
13245TIP3    H261227   6.488   5.165  14.620  1.5935 -0.6296 -0.9744
13246TIP3   OH261228   3.763   1.095   5.182 -0.2362 -0.4995 -0.0151
13246TIP3    H161229   3.769   1.186   5.210 -0.9217 -0.7039  0.8203
13246TIP3    H261230   3.854   1.068   5.169  0.0637 -0.1526  1.2473
13247TIP3   OH261231   5.880   6.019   1.363  0.7978  0.3211 -0.5157
13247TIP3    H161232   5.800   5.971   1.342  0.5890  0.8022 -0.8516
13247TIP3    H261233   5.869   6.047   1.454 -0.1420  1.7343 -1.0116
13248TIP3   OH261234   2.085   6.243  11.348 -0.1531  0.0410  0.0489
13248TIP3    H161235   2.100   6.304  11.276 -1.9887 -0.1858 -0.5931
13248TIP3    H261236   2.047   6.297  11.417  0.4875  0.0403  0.4098
13249TIP3   OH261237   0.734   0.280   0.368 -0.2431  1.1281  0.2001
13249TIP3    H161238   0.721   0.274   0.462 -1.3432 -0.7687 -0.0136
13249TIP3    H261239   0.646   0.285   0.331 -0.0319 -1.2553 -0.8228
13250TIP3   OH261240   1.589   3.729   6.070 -0.4189 -0.2347 -0.8128
13250TIP3    H161241   1.623   3.810   6.033 -1.7514  0.5454 -0.3901
13250TIP3    H261242   1.658   3.664   6.053  1.5093  1.3424  0.4308
13251TIP3   OH261243   3.171   1.291  15.601 -0.0732 -0.1977 -0.0641
13251TIP3    H161244   3.104   1.235  15.640  1.1760 -0.9217  1.1232
13251TIP3    H261245   3.236   1.231  15.566  1.0623  0.4744  0.8084
13252TIP3   OH261246   1.393   5.324  14.631  0.3368 -0.3254 -0.1819
13252TIP3    H161247   1.402   5.373  14.549  1.7581 -0.4825 -0.1387
13252TIP3    H261248   1.454   5.366  14.691 -1.7381  0.7530  1.3204
13253TIP3   OH261249   5.993   4.066  12.262 -0.6198  0.1291 -0.1289
13253TIP3    H161250   6.078   4.028  12.280 -0.7102 -0.3254 -0.6212
13253TIP3    H261251   5.943   3.995  12.220 -0.9734  0.6194 -0.5558
13254TIP3   OH261252   4.724   6.411  11.538 -0.0558  0.4350 -0.5721
13254TIP3    H161253   4.755   6.321  11.526  0.8099  0.7285 -0.6219
13254TIP3    H261254   4.630   6.407  11.518  0.2052 -0.2238 -1.7568
13255TIP3   OH261255   3.928   0.907  16.975  0.1492 -0.6884 -0.0501
13255TIP3    H161256   3.946   0.885  16.884  1.2147 -0.8764  0.1893
13255TIP3    H261257   3.958   0.831  17.025  0.1436 -0.3375  0.5052
13256TIP3   OH261258   6.106   4.422   5.236  0.0819 -0.5634  0.2906
13256TIP3    H161259   6.167   4.370   5.287  1.3953  1.2291  0.6242
13256TIP3    H261260   6.074   4.362   5.169  1.8046 -1.6992  0.4281
13257TIP3   OH261261   1.078   0.392   5.102 -0.3921  0.2977  0.1887
13257TIP3    H161262   1.124   0.324   5.150  0.2840  0.8886  0.4037
13257TIP3    H261263   1.021   0.433   5.167  0.6166  1.1811  0.5505
13258TIP3   OH261264   5.760   3.376   2.901 -0.2502  0.3764 -0.1307
13258TIP3    H161265   5.716   3.299   2.936  0.9022  0.4460  1.6159
13258TIP3    H261266   5.702   3.449   2.925 -0.3391  0.2498  0.0425
13259TIP3   OH261267   1.365   1.504   1.714 -0.1600  0.7034  0.0329
13259TIP3    H161268   1.330   1.527   1.800  1.8524 -1.4571  1.5474
13259TIP3    H261269   1.454   1.540   1.714 -0.5707  1.8620 -1.7514
13260TIP3   OH261270   2.265   2.979  16.599  0.5462  0.4566 -0.1157
13260TIP3    H161271   2.304   3.022  16.523 -0.8120 -0.9824 -1.7208
13260TIP3    H261272   2.181   2.945  16.567 -0.2157  0.0418  2.1225
13261TIP3   OH261273   3.740   6.069  15.928  0.9766  0.0882  0.4143
13261TIP3    H161274   3.797   6.015  15.873  0.5953 -0.6585  0.7374
13261TIP3    H261275   3.653   6.031  15.917  0.2894  1.8877 -0.9352
13262TIP3   OH261276   1.805   4.698  15.655  0.3163  0.4785 -0.2498
13262TIP3    H161277   1.834   4.780  15.695  0.6762  0.0352  0.4002
13262TIP3    H261278   1.730   4.723  15.602 -0.6454  0.9498  1.2828
13263TIP3   OH261279   6.532   2.449   0.152  0.1444  0.6202  0.5266
13263TIP3    H161280   6.524   2.540   0.182 -0.9577  0.2727  1.3300
13263TIP3    H261281   6.546   2.457   0.057  0.3261  1.6292  0.6240
13264TIP3   OH261282   5.854   1.681  12.076 -0.1065 -0.2249  0.5316
13264TIP3    H161283   5.782   1.650  12.130 -0.4507 -1.7407 -0.7281
13264TIP3    H261284   5.827   1.662  11.986  1.4085  0.1513 -0.0387
13265TIP3   OH261285   2.468   3.692   4.027 -0.2217 -0.0577  0.0278
13265TIP3    H161286   2.453   3.756   4.096 -0.7857 -0.3358  0.1750
13265TIP3    H261287   2.476   3.608   4.073  0.9656 -0.0468 -0.1232
13266TIP3   OH261288   5.317   3.828  14.186  0.0231 -0.1156  0.3630
13266TIP3    H161289   5.347   3.835  14.277  1.8435 -2.6046  0.0843
13266TIP3    H261290   5.355   3.904  14.143 -0.7391  1.0273  1.6378
13267TIP3   OH261291   6.524   3.097   3.332  0.2483  0.2547  0.2693
13267TIP3    H161292   6.518   3.012   3.376 -0.6311  0.2716  0.1909
13267TIP3    H261293   6.497   3.079   3.242 -0.9382  0.7952  0.4986
13268TIP3   OH261294   2.377   3.729  11.498 -0.0938  0.2129 -0.6491
13268TIP3    H161295   2.451   3.751  11.555  1.5437 -0.8032 -2.2807
13268TIP3    H261296   2.313   3.799  11.513  1.2742  1.2482  0.6479
13269TIP3   OH261297   5.612   0.121   3.321  0.7289 -0.1368  0.4381
13269TIP3    H161298   5.662   0.193   3.283  1.1013 -0.7374 -0.2245
13269TIP3    H261299   5.613   0.052   3.254  1.3144 -1.1775  1.4708
13270TIP3   OH261300   2.537   1.726  17.261 -0.4799 -0.1816 -0.0428
13270TIP3    H161301   2.451   1.768  17.260 -0.2957  0.2813  1.3845
13270TIP3    H261302   2.598   1.796  17.285 -0.1235 -1.1208  2.0211
13271TIP3   OH261303   6.791   5.959   5.687 -0.0174  0.1940  0.5715
13271TIP3    H161304   6.729   5.892   5.714  0.4344 -0.0005  1.1569
13271TIP3    H261305   6.792   6.022   5.760  1.3483 -0.4301  1.1398
13272TIP3   OH261306   6.627   3.619   6.472  0.2379  0.0099 -0.2128
13272TIP3    H161307   6.657   3.540   6.517  0.0586  0.5777  0.9426
13272TIP3    H261308   6.574   3.665   6.537  0.6772  1.2884 -0.7226
13273TIP3   OH261309   0.288   1.971  16.680 -0.2439  0.4864 -0.5540
13273TIP3    H161310   0.268   1.878  16.688  1.3379  0.0875 -1.0758
13273TIP3    H261311   0.305   1.999  16.770 -0.8800  0.3186 -0.3764
13274TIP3   OH261312   1.044   0.622  16.545  1.0468 -0.2029 -0.0997
13274TIP3    H161313   1.067   0.534  16.513  1.3136 -1.1123  2.4173
13274TIP3    H261314   0.983   0.607  16.617  0.0297  1.7775 -0.4811
13275TIP3   OH261315   6.339   5.612  12.450 -0.2117 -0.1673  0.1848
13275TIP3    H161316   6.311   5.522  12.464  2.2388 -1.3101 -1.5277
13275TIP3    H261317   6.295   5.639  12.369  0.9442 -0.7658 -0.6703
13276TIP3   OH261318   0.542   2.914   1.010 -0.0319 -0.4390  0.4338
13276TIP3    H161319   0.625   2.940   0.970 -0.4210  2.1149  1.0962
13276TIP3    H261320   0.566   2.884   1.098  0.0770  3.0007  1.7263
13277TIP3   OH261321   0.440   1.653   2.054  0.4619 -0.6858 -0.4096
13277TIP3    H161322   0.448   1.580   2.116 -0.7337 -1.1899 -0.8063
13277TIP3    H261323   0.355   1.693   2.076  1.0932  0.5875 -0.2090
13278TIP3   OH261324   4.759   5.363  13.741 -0.3868 -0.1039  0.6825
13278TIP3    H161325   4.766   5.372  13.836 -0.0723 -0.6929  0.7259
13278TIP3    H261326   4.671   5.394  13.719  0.3829  2.4112  0.8445
13279TIP3   OH261327   0.411   5.168  16.123 -0.3499 -0.5008 -0.5828
13279TIP3    H161328   0.335   5.174  16.181 -0.2168  0.4706 -0.4848
13279TIP3    H261329   0.437   5.076  16.127 -0.3122 -0.4576  0.9605
13280TIP3   OH261330   0.263   1.246   0.879 -0.1638 -0.2488  0.1760
13280TIP3    H161331   0.284   1.244   0.785 -1.1944  1.8235 -0.1618
13280TIP3    H261332   0.211   1.167   0.894  0.3974 -0.8376 -0.9025
13281TIP3   OH261333   5.251   6.684  12.282 -0.7453  0.1401  0.6719
13281TIP3    H161334   5.265   6.755  12.344  0.2960  2.6916 -2.2272
13281TIP3    H261335   5.157   6.668  12.284 -0.8875  1.0034  2.0123
13282TIP3   OH261336   3.380   0.311   5.706 -0.1513 -0.4345 -0.0845
13282TIP3    H161337   3.437   0.324   5.782  0.5892 -2.9885 -0.1043
13282TIP3    H261338   3.357   0.400   5.677 -1.2075  0.6745  3.6044
13283TIP3   OH261339   5.286   5.199   4.565  0.3051  0.1857  0.1484
13283TIP3    H161340   5.346   5.142   4.516 -0.1174 -1.0119  0.9709
13283TIP3    H261341   5.267   5.271   4.505  1.6629 -0.0014 -0.5512
13284TIP3   OH261342   5.260   6.529   5.358  0.1551  0.0927  0.4673
13284TIP3    H161343   5.187   6.588   5.338 -1.0138 -0.9748  1.3757
13284TIP3    H261344   5.338   6.582   5.343 -0.8299  1.8804  1.2206
13285TIP3   OH261345   5.018   2.525   0.827  0.3320 -0.0351 -0.0557
13285TIP3    H161346   5.030   2.559   0.916 -0.2431  0.2032 -0.0670
13285TIP3    H261347   5.088   2.460   0.817  0.1704 -0.3382  0.7084
13286TIP3   OH261348   2.097   3.336  12.563 -0.0885  0.6344 -0.7304
13286TIP3    H161349   2.018   3.309  12.517  0.3947 -0.7584 -0.7935
13286TIP3    H261350   2.169   3.312  12.505  0.5466 -1.3482  0.7666
13287TIP3   OH261351   6.726   0.609  15.550  0.3408 -0.2482 -0.0840
13287TIP3    H161352   6.705   0.651  15.467 -0.3363 -1.1880 -0.4056
13287TIP3    H261353   6.651   0.552  15.568 -0.2325  1.0309  1.9275
13288TIP3   OH261354   6.201   1.209   2.518 -0.1878 -0.0672 -0.5947
13288TIP3    H161355   6.253   1.143   2.473 -2.9575 -2.2967 -0.7932
13288TIP3    H261356   6.155   1.256   2.448  0.6174  1.1026 -0.3711
13289TIP3   OH261357   3.581   4.230  11.869 -0.1998 -0.0810  0.0710
13289TIP3    H161358   3.531   4.291  11.923 -0.9019 -1.5274  1.1138
13289TIP3    H261359   3.624   4.171  11.931 -1.2444 -1.9726 -0.9020
13290TIP3   OH261360   1.303   6.591   1.981  0.2801 -0.2361  0.1877
13290TIP3    H161361   1.266   6.650   2.047  2.6047  1.8670 -0.2446
13290TIP3    H261362   1.390   6.570   2.014 -0.0454 -2.5273 -0.2752
13291TIP3   OH261363   4.789   1.079  13.663  0.3548 -0.3452 -0.4069
13291TIP3    H161364   4.729   1.148  13.693  0.3340  0.9291 -3.0377
13291TIP3    H261365   4.843   1.059  13.739 -2.0625 -0.1286  1.5176
13292TIP3   OH261366   1.901   6.642   2.976  0.0695  0.2231 -0.2864
13292TIP3    H161367   1.836   6.707   2.951 -0.2664 -0.0536 -0.1500
13292TIP3    H261368   1.858   6.591   3.045 -0.4311 -1.3752 -1.7128
13293TIP3   OH261369   3.223   3.129  11.586 -0.0188  0.2092  0.0946
13293TIP3    H161370   3.227   3.167  11.498  0.2203  0.9904  0.4428
13293TIP3    H261371   3.292   3.063  11.587  0.0517  0.2764 -0.2661
13294TIP3   OH261372   0.876   3.190   4.239 -0.0255 -0.2010 -0.6176
13294TIP3    H161373   0.785   3.216   4.254  0.3270 -0.1770  1.7751
13294TIP3    H261374   0.925   3.273   4.241  0.3393 -0.4341  0.6805
13295TIP3   OH261375   6.552   6.820  16.706  0.3664  0.0989 -0.2138
13295TIP3    H161376   6.514   6.735  16.684 -0.7467  0.2062  1.1840
13295TIP3    H261377   6.480   6.882  16.695  0.3766  0.4527  1.4808
13296TIP3   OH261378   2.365   1.503   2.203 -0.2402  0.2325 -0.1056
13296TIP3    H161379   2.315   1.523   2.124 -1.5544 -1.0508  0.3496
13296TIP3    H261380   2.455   1.494   2.172 -0.6838 -0.0006 -1.4223
13297TIP3   OH261381   3.034   6.066  16.841  0.5844 -0.1128 -0.6010
13297TIP3    H161382   3.115   6.099  16.802 -0.1403  0.8575 -1.3255
13297TIP3    H261383   2.975   6.054  16.767  0.7288 -2.9118 -0.3523
13298TIP3   OH261384   6.361   0.277  11.946  0.3132  1.1015  0.3592
13298TIP3    H161385   6.312   0.228  11.880  0.4024  0.4704  0.7542
13298TIP3    H261386   6.452   0.267  11.921  0.3797  0.4731  0.8301
13299TIP3   OH261387   3.421   4.893   4.939 -0.3607 -0.1616  0.0252
13299TIP3    H161388   3.498   4.949   4.951 -0.6844  0.3397 -0.2462
13299TIP3    H261389   3.373   4.932   4.867 -2.2219  1.0453  1.8075
13300TIP3   OH261390   4.089   0.500  10.371  0.0383 -0.1201 -0.0130
13300TIP3    H161391   4.153   0.531  10.306 -0.2773  0.8633  0.1249
13300TIP3    H261392   4.087   0.569  10.437  0.5155 -1.2167  1.1744
13301TIP3   OH261393   6.060   5.102  15.807 -0.0151 -0.2788 -0.0064
13301TIP3    H161394   6.094   5.183  15.844 -1.3242  0.2150  0.1433
13301TIP3    H261395   6.111   5.089  15.727 -0.2496  1.0558 -0.3953
13302TIP3   OH261396   0.870   2.352  14.774  0.5628 -0.2231  0.1297
13302TIP3    H161397   0.889   2.347  14.868 -2.4394  0.6822  0.8763
13302TIP3    H261398   0.860   2.260  14.747  0.4775 -0.4495  0.9161
13303TIP3   OH261399   0.428   2.211  16.628 -0.2971  0.2921 -0.1766
13303TIP3    H161400   0.454   2.249  16.712 -3.0651  1.8126  0.1048
13303TIP3    H261401   0.400   2.122  16.649 -1.4870  0.8373  0.6759
13304TIP3   OH261402   2.887   1.915  14.294  0.8647  0.6174 -0.1309
13304TIP3    H161403   2.830   1.869  14.356 -2.0643  1.2442 -2.1621
13304TIP3    H261404   2.956   1.952  14.349  0.3758 -1.6862  2.2520
13305TIP3   OH261405   0.815   6.214  13.471 -0.0668 -0.6935 -0.1852
13305TIP3    H161406   0.882   6.227  13.538 -2.6000 -1.0834  2.6626
13305TIP3    H261407   0.853   6.249  13.391  2.3224  1.9986  1.9222
13306TIP3   OH261408   0.685   5.708  12.386  0.4780  0.8832  0.0691
13306TIP3    H161409   0.628   5.632  12.388  0.8323  0.6375  1.3786
13306TIP3    H261410   0.719   5.716  12.475  1.7771  1.5554 -0.4505
13307TIP3   OH261411   2.644   4.341  12.711  0.2908 -0.5186 -0.2561
13307TIP3    H161412   2.587   4.265  12.702  1.4867 -1.5929  0.7701
13307TIP3    H261413   2.694   4.343  12.629  0.4634 -1.0439 -0.1703
13308TIP3   OH261414   0.531   6.143   0.521  0.0163 -0.7575 -0.2370
13308TIP3    H161415   0.578   6.188   0.451  0.6123 -1.0837 -0.0545
13308TIP3    H261416   0.533   6.050   0.495  0.3020 -0.8880  0.2446
13309TIP3   OH261417   5.215   2.103  16.785  0.7474 -0.3519  0.2896
13309TIP3    H161418   5.236   2.184  16.831  1.0060 -0.1842 -0.1192
13309TIP3    H261419   5.124   2.116  16.755  0.9415 -0.0214 -0.1697
13310TIP3   OH261420   4.223   5.160  16.978 -0.4994 -0.0382 -0.1188
13310TIP3    H161421   4.288   5.215  17.022 -1.5133  0.0610  1.3600
13310TIP3    H261422   4.185   5.108  17.048  0.3430 -2.6069 -1.4614
13311TIP3   OH261423   0.364   3.597  11.558  0.5199  0.1348  0.5350
13311TIP3    H161424   0.353   3.628  11.648 -0.5012 -0.9055  0.7954
13311TIP3    H261425   0.390   3.505  11.568  0.1764 -0.0523 -0.2279
13312TIP3   OH261426   4.410   6.672  12.548 -0.4404  0.3371  0.1162
13312TIP3    H161427   4.431   6.580  12.529 -1.0646  0.4065 -1.0411
13312TIP3    H261428   4.318   6.680  12.521 -0.0506  1.5882 -0.9061
13313TIP3   OH261429   4.627   3.899   2.478  0.0980 -0.0705 -0.0356
13313TIP3    H161430   4.675   3.884   2.559 -0.9445 -1.7859  0.3020
13313TIP3    H261431   4.590   3.814   2.455  0.9273  0.1856 -2.7023
13314TIP3   OH261432   3.096   2.184  15.898  0.5486  0.0996  0.4034
13314TIP3    H161433   3.025   2.121  15.885  1.0279 -0.7228  1.5943
13314TIP3    H261434   3.144   2.183  15.815 -0.7496  0.6017 -0.3886
13315TIP3   OH261435   4.022   2.439  14.734 -0.4328 -0.3307  0.2620
13315TIP3    H161436   3.974   2.376  14.680  2.0133 -1.8912 -0.2340
13315TIP3    H261437   3.956   2.473  14.794 -2.0369 -2.8378  0.0863
13316TIP3   OH261438   5.173   6.299  15.957  0.5316 -0.1269 -0.1062
13316TIP3    H161439   5.198   6.213  15.992  2.1006 -0.3211 -1.5794
13316TIP3    H261440   5.196   6.295  15.864 -1.2137  1.2220 -0.6528
13317TIP3   OH261441   6.000   5.404   1.024 -0.0697  0.1716  0.5337
13317TIP3    H161442   6.081   5.420   1.073 -0.2480  0.9600  0.5861
13317TIP3    H261443   6.012   5.453   0.943 -1.3334  2.0719  1.4126
13318TIP3   OH261444   1.925   4.574  13.996  0.1804  0.0150  0.5931
13318TIP3    H161445   1.869   4.571  14.073  1.0162 -0.4722  1.2002
13318TIP3    H261446   1.947   4.667  13.986  0.5466  0.0155  1.3111
13319TIP3   OH261447   3.644   3.014  11.474  0.1556 -0.2049  0.3073
13319TIP3    H161448   3.735   2.989  11.485  0.2368 -0.4575 -0.7975
13319TIP3    H261449   3.644   3.070  11.396 -0.7893 -1.2008 -0.4481
13320TIP3   OH261450   5.773   3.611  15.928  0.4354 -0.2102  0.4124
13320TIP3    H161451   5.852   3.559  15.913 -0.3123 -1.2408 -0.0857
13320TIP3    H261452   5.798   3.673  15.997  0.8221 -2.5641  2.5334
13321TIP3   OH261453   3.710   3.009  16.818  0.4413 -0.0247 -0.3693
13321TIP3    H161454   3.786   2.976  16.771  0.9219 -1.3543  1.2763
13321TIP3    H261455   3.717   2.972  16.906 -2.0822 -0.1331 -0.1450
13322TIP3   OH261456   0.052   1.934   0.355  0.5853  0.5354 -0.1563
13322TIP3    H161457   0.109   2.008   0.376 -0.3667  1.6219 -1.1998
13322TIP3    H261458  -0.036   1.971   0.355  0.0625 -0.6504 -0.5293
13323TIP3   OH261459   1.360   1.402  11.400  0.5418  0.4933 -0.7891
13323TIP3    H161460   1.387   1.479  11.451  0.4557  0.2677 -0.3953
13323TIP3    H261461   1.274   1.425  11.366 -0.2196 -0.0331  0.6720
13324TIP3   OH261462   5.045   6.677   5.930 -0.0561  0.4534  0.1644
13324TIP3    H161463   5.047   6.772   5.922  0.5391  0.5995  1.7783
13324TIP3    H261464   5.099   6.646   5.857  0.8459  1.4212  0.3887
13325TIP3   OH261465   5.518   6.349   0.976  0.2382 -0.7045  0.2065
13325TIP3    H161466   5.557   6.339   1.063  2.7456  0.2471 -0.7230
13325TIP3    H261467   5.525   6.263   0.936  1.4117 -0.5709  0.0863
13326TIP3   OH261468   4.795   4.753   1.496  0.6900  0.2885 -0.7501
13326TIP3    H161469   4.851   4.713   1.562 -1.1846 -0.6098  0.3789
13326TIP3    H261470   4.722   4.691   1.486 -0.6778  1.9136 -1.3187
13327TIP3   OH261471   4.167   4.707   0.023 -0.1066 -0.1835  0.0065
13327TIP3    H161472   4.252   4.664   0.024 -0.4957 -0.9953 -0.8918
13327TIP3    H261473   4.107   4.642  -0.013 -0.4170  1.5646 -2.9825
13328TIP3   OH261474   0.340   6.253   1.148  0.4064  0.3313 -0.9768
13328TIP3    H161475   0.339   6.176   1.091 -0.7064  0.6311 -1.4072
13328TIP3    H261476   0.258   6.298   1.127 -0.5341 -0.0656  1.5633
13329TIP3   OH261477   1.250   2.969  13.739  0.6716 -0.2074  0.3248
13329TIP3    H161478   1.183   3.035  13.721  0.9460  0.0402  0.2138
13329TIP3    H261479   1.327   3.019  13.765  1.2630 -0.4188 -0.9450
13330TIP3   OH261480   2.749   2.549  13.921 -0.1810  0.5080 -0.0468
13330TIP3    H161481   2.799   2.623  13.886  1.0829  0.2617  1.1213
13330TIP3    H261482   2.658   2.568  13.898  0.5102  0.4289 -3.2355
13331TIP3   OH261483   0.687   3.638  12.639  0.2203  0.7156 -0.2212
13331TIP3    H161484   0.635   3.692  12.700  0.4387  1.8169 -0.9749
13331TIP3    H261485   0.634   3.635  12.559  1.2918  1.9241 -1.0320
13332TIP3   OH261486   0.610   3.230  10.904  0.1540 -0.4011 -0.0645
13332TIP3    H161487   0.668   3.222  10.980  0.0744  0.2039  0.0657
13332TIP3    H261488   0.549   3.300  10.927 -1.1525 -1.5537  0.1262
13333TIP3   OH261489   6.788   0.879  11.231 -0.1158 -0.8800 -0.7208
13333TIP3    H161490   6.852   0.840  11.291 -1.0578 -0.5808  0.5216
13333TIP3    H261491   6.748   0.805  11.186 -0.3500 -1.2006  0.0116
13334TIP3   OH261492   6.765   0.143   4.748  0.0017 -0.7732 -0.2445
13334TIP3    H161493   6.825   0.211   4.719 -0.4423 -0.6626 -0.9420
13334TIP3    H261494   6.797   0.117   4.834  0.1574  0.3379  0.0483
13335TIP3   OH261495   0.321   2.496  14.038  0.3989  0.2866 -0.0242
13335TIP3    H161496   0.289   2.420  13.989 -1.0449  0.2943  0.8545
13335TIP3    H261497   0.408   2.514  14.001  0.8214 -1.8459 -0.1698
13336TIP3   OH261498   6.258   5.712  12.199  0.5003  0.2313 -0.1004
13336TIP3    H161499   6.228   5.763  12.124 -2.2642 -0.1556  0.6223
13336TIP3    H261500   6.292   5.631  12.160  0.3253  0.5837 -1.0170
13337TIP3   OH261501   5.041   5.526  15.452  0.0169 -0.0925 -0.7484
13337TIP3    H161502   5.025   5.440  15.491 -0.1177 -0.4623 -1.6117
13337TIP3    H261503   4.977   5.533  15.382 -1.3339  1.5591  0.5581
13338TIP3   OH261504   2.119   2.195  13.157  0.1760 -0.3227 -0.1831
13338TIP3    H161505   2.036   2.174  13.200  1.0942 -0.8213  1.4169
13338TIP3    H261506   2.121   2.137  13.080 -0.1171 -1.6956  0.8097
13339TIP3   OH261507   6.542   1.375   0.494  0.0051 -0.6734  0.6317
13339TIP3    H161508   6.596   1.363   0.416 -0.7984 -1.3296  0.1554
13339TIP3    H261509   6.478   1.304   0.490 -1.3512  0.4829  0.7857
13340TIP3   OH261510   4.845   1.124  17.219 -0.1806 -0.6286  0.1959
13340TIP3    H161511   4.766   1.156  17.174 -0.2725 -1.2157 -0.0781
13340TIP3    H261512   4.910   1.116  17.149  0.8753  2.0475  0.7644
13341TIP3   OH261513   3.495   4.366   1.574 -0.2155 -0.5163  0.0508
13341TIP3    H161514   3.400   4.380   1.575 -0.0737  0.8992  2.5826
13341TIP3    H261515   3.530   4.433   1.632  2.4694 -0.4757 -1.4526
13342TIP3   OH261516   3.806   0.006   2.604  0.3060  0.2262 -0.4698
13342TIP3    H161517   3.738   0.052   2.554  1.1673  1.8029 -0.2682
13342TIP3    H261518   3.872  -0.017   2.539  0.1861 -0.1225 -0.4672
13343TIP3   OH261519   1.260   5.462   2.484  0.0177  0.2421  0.4549
13343TIP3    H161520   1.304   5.472   2.399 -0.4740 -2.0121 -0.1139
13343TIP3    H261521   1.329   5.479   2.549  0.1431  3.1540 -0.3042
13344TIP3   OH261522   6.127   3.443   4.567  0.1157 -0.2893  0.4696
13344TIP3    H161523   6.104   3.507   4.499  0.5766 -0.3285  0.2739
13344TIP3    H261524   6.222   3.432   4.559  0.1907 -0.2231  1.1822
13345TIP3   OH261525   4.798   4.026  13.736 -0.8772  0.7504 -0.4447
13345TIP3    H161526   4.726   4.086  13.754 -0.5490  0.7114  1.2158
13345TIP3    H261527   4.804   3.972  13.815  1.7266  1.5556  0.0185
13346TIP3   OH261528   4.057   3.378  14.726  0.1890  0.1533 -0.0554
13346TIP3    H161529   4.038   3.470  14.703 -1.2047  0.0338  0.4889
13346TIP3    H261530   4.044   3.375  14.821  3.5014  0.1040  0.4915
13347TIP3   OH261531   5.596   5.974  16.646 -0.0604  0.4022  0.0290
13347TIP3    H161532   5.537   5.900  16.630 -0.6975  0.5592  1.4322
13347TIP3    H261533   5.653   5.943  16.718 -0.2977  1.2411  0.5905
13348TIP3   OH261534   2.976   3.437  13.192 -0.0608 -0.1563 -0.1252
13348TIP3    H161535   2.898   3.393  13.226  0.2581 -0.6070  0.0391
13348TIP3    H261536   3.019   3.473  13.270 -1.1059  1.8022 -0.3881
13349TIP3   OH261537   2.496   0.741   2.293 -0.1190 -0.1501 -0.0334
13349TIP3    H161538   2.519   0.801   2.364  0.4020 -0.2595 -0.1101
13349TIP3    H261539   2.410   0.772   2.263  0.6761  1.3620 -0.9123
13350TIP3   OH261540   0.752   0.161  16.318 -0.1391 -0.3992  0.0345
13350TIP3    H161541   0.671   0.175  16.270 -0.2949  0.5010  0.5468
13350TIP3    H261542   0.743   0.214  16.397  0.1507 -1.7987  1.0261
13351TIP3   OH261543   1.832   1.799  11.580 -0.2987 -0.3390 -0.7388
13351TIP3    H161544   1.884   1.868  11.622 -0.6697 -0.4306 -0.1137
13351TIP3    H261545   1.865   1.718  11.619 -0.9064 -0.3967 -0.3395
13352TIP3   OH261546   2.687   0.229  13.266  0.8246  0.5582 -0.5353
13352TIP3    H161547   2.603   0.187  13.247  0.9437 -0.6249  1.2586
13352TIP3    H261548   2.752   0.162  13.245  1.2273  0.9286 -0.4779
13353TIP3   OH261549   4.804   5.573  14.655 -0.1386  0.0646 -0.5434
13353TIP3    H161550   4.743   5.542  14.722  1.2642  1.4074  1.4915
13353TIP3    H261551   4.772   5.660  14.631  0.2177  0.2233 -0.4580
13354TIP3   OH261552   3.689   5.447  10.817 -0.9273  0.6559 -0.6799
13354TIP3    H161553   3.768   5.436  10.764  1.2205  0.5908  2.2682
13354TIP3    H261554   3.653   5.531  10.789  0.8479  1.2528 -1.3499
13355TIP3   OH261555   6.226   1.833   4.804 -0.2267  0.3035 -0.1328
13355TIP3    H161556   6.241   1.749   4.760 -0.7609 -1.1464  2.2880
13355TIP3    H261557   6.295   1.838   4.869 -1.7845  0.3923  1.5771
13356TIP3   OH261558   5.660   0.419  14.133  0.0611  0.1296 -0.0425
13356TIP3    H161559   5.698   0.416  14.045  0.4809 -0.3064  0.1490
13356TIP3    H261560   5.671   0.510  14.161 -0.6897  0.4320 -0.7053
13357TIP3   OH261561   2.131   4.517  16.626  0.3419  0.4999 -0.2744
13357TIP3    H161562   2.062   4.583  16.621 -1.1408 -1.0165 -1.3721
13357TIP3    H261563   2.083   4.434  16.628  2.1434 -0.5623  0.3025
13358TIP3   OH261564   6.348   3.732   0.401 -0.1290  0.1801  0.1730
13358TIP3    H161565   6.440   3.726   0.427  0.1941  0.2497 -0.8992
13358TIP3    H261566   6.329   3.826   0.400  0.6797  0.3761 -2.4763
13359TIP3   OH261567   1.920   1.716   2.846 -0.0006  0.2726 -0.6498
13359TIP3    H161568   1.845   1.769   2.819 -0.2402  0.5825  0.5649
13359TIP3    H261569   1.995   1.756   2.801 -0.5028  0.1701 -1.5941
13360TIP3   OH261570   2.591   5.363   0.280 -0.0240  0.2791 -0.2570
13360TIP3    H161571   2.609   5.427   0.349  1.5732 -1.3930  0.9850
13360TIP3    H261572   2.505   5.327   0.302 -0.5260  1.3268 -0.4546
13361TIP3   OH261573   1.702   4.469  14.920  0.7853  0.0174  0.0362
13361TIP3    H161574   1.768   4.409  14.953  0.6291  0.5971  1.4577
13361TIP3    H261575   1.624   4.451  14.973  0.4563  0.8237 -0.1511
13362TIP3   OH261576   1.226   3.960  11.226  0.2189  0.3546  0.1984
13362TIP3    H161577   1.272   3.932  11.305  1.7173  1.3630 -0.2748
13362TIP3    H261578   1.177   4.037  11.253 -1.4760 -0.8499  0.7586
13363TIP3   OH261579   1.039   6.791  15.454  0.2092  0.1605 -0.2367
13363TIP3    H161580   1.029   6.768  15.546 -0.2479  2.1147  0.2453
13363TIP3    H261581   1.118   6.846  15.452  0.8260 -0.7456 -1.1895
13364TIP3   OH261582   4.469   0.559   4.650 -0.1964  0.4294 -0.2265
13364TIP3    H161583   4.469   0.464   4.650  3.0622  0.3151 -0.1402
13364TIP3    H261584   4.476   0.584   4.558  0.6442  0.5052 -0.1483
13365TIP3   OH261585   4.163   2.370   1.447 -0.3497  0.2551 -0.1433
13365TIP3    H161586   4.124   2.429   1.384  1.6269  0.0807 -1.6326
13365TIP3    H261587   4.167   2.285   1.403  3.9229  0.7752 -1.2660
13366TIP3   OH261588   1.099   3.031  13.075 -0.4757 -0.6235 -0.2677
13366TIP3    H161589   1.093   3.126  13.072 -0.1344 -0.4682  2.0473
13366TIP3    H261590   1.182   3.014  13.121 -1.4869 -1.9692  1.1330
13367TIP3   OH261591   5.917   2.091  12.687 -0.1435 -0.1484  0.4162
13367TIP3    H161592   5.856   2.155  12.723  0.4775  0.5133  0.3102
13367TIP3    H261593   5.885   2.074  12.598  1.6161  2.7015 -0.9107
13368TIP3   OH261594   4.525   0.226  14.298  0.4976 -0.1724 -0.0057
13368TIP3    H161595   4.493   0.237  14.209  0.3503 -0.0926  0.0561
13368TIP3    H261596   4.562   0.138  14.300 -0.3551 -0.5443  0.1092
13369TIP3   OH261597   2.237   0.758   0.272  0.2860 -0.7581 -0.3387
13369TIP3    H161598   2.149   0.789   0.249 -0.0857 -1.5201  0.0201
13369TIP3    H261599   2.294   0.832   0.251 -0.5033 -0.0429 -0.0343
13370TIP3   OH261600   1.623   1.171   2.671  0.0654  0.1094  0.1586
13370TIP3    H161601   1.603   1.233   2.741 -0.5138 -0.6177  0.6428
13370TIP3    H261602   1.631   1.225   2.593 -0.5086  0.7862  0.5608
13371TIP3   OH261603   0.806   0.621  15.532 -0.1378  0.1256  0.3542
13371TIP3    H161604   0.754   0.606  15.611 -1.6984  3.3868  0.1348
13371TIP3    H261605   0.880   0.674  15.562 -0.5843  1.1399 -0.2754
13372TIP3   OH261606   4.562   3.097   2.553 -0.2544  0.3238 -0.3869
13372TIP3    H161607   4.573   3.186   2.588 -0.6107  0.2389 -0.0537
13372TIP3    H261608   4.641   3.082   2.502 -0.3006  0.9303 -0.6495
13373TIP3   OH261609   2.641   6.388   4.863  0.0364 -0.2892  0.3119
13373TIP3    H161610   2.661   6.391   4.957 -1.0868 -2.2070  0.6581
13373TIP3    H261611   2.547   6.371   4.858  0.0520 -0.0940 -1.1715
13374TIP3   OH261612   6.612   5.120  15.815  0.1002  0.0103 -0.3402
13374TIP3    H161613   6.686   5.059  15.823 -0.4690 -0.6618 -0.1461
13374TIP3    H261614   6.609   5.141  15.722 -0.0281 -0.6850 -0.5008
13375TIP3   OH261615   5.583   5.695  14.140  0.0736  0.0890  0.3190
13375TIP3    H161616   5.603   5.782  14.173 -0.9555 -0.7066  3.3643
13375TIP3    H261617   5.658   5.642  14.166  0.6185 -0.0391 -1.3744
13376TIP3   OH261618   3.799   5.141   4.542 -0.3233 -0.2694 -0.0307
13376TIP3    H161619   3.876   5.181   4.500 -1.2724  1.1866 -0.4666
13376TIP3    H261620   3.738   5.125   4.469 -2.0346  2.3782  0.6853
13377TIP3   OH261621   0.478   0.586  12.255 -0.3042  0.2994  0.5486
13377TIP3    H161622   0.413   0.638  12.302 -1.4140 -0.2271 -0.3585
13377TIP3    H261623   0.426   0.524  12.204  0.9467 -0.6643  0.4134
13378TIP3   OH261624   2.339   5.750  12.537 -0.3298  0.2329  0.1330
13378TIP3    H161625   2.383   5.668  12.514 -0.0853 -0.3222  2.3294
13378TIP3    H261626   2.371   5.813  12.473  0.4872 -1.0804 -0.8160
13379TIP3   OH261627   0.793   6.082   3.658 -0.5366  0.2158 -0.2110
13379TIP3    H161628   0.779   6.058   3.750 -0.5875 -0.5484 -0.4079
13379TIP3    H261629   0.837   6.006   3.620 -0.2782  0.6331 -0.7608
13380TIP3   OH261630   1.110   0.692  12.663 -0.4499  0.1606 -0.1643
13380TIP3    H161631   1.133   0.721  12.575 -2.4778 -0.7898 -1.0877
13380TIP3    H261632   1.178   0.728  12.720 -0.2141  2.5642 -1.8403
13381TIP3   OH261633   3.655   6.406   4.680 -1.1395  0.0731 -0.0792
13381TIP3    H161634   3.564   6.426   4.657 -0.5332  1.9831 -0.9968
13381TIP3    H261635   3.691   6.490   4.709 -0.4598 -1.1987  3.3206
13382TIP3   OH261636   2.228   4.277   2.179 -0.6396  0.3264  0.8305
13382TIP3    H161637   2.198   4.224   2.106  1.4179  1.6246 -1.0756
13382TIP3    H261638   2.175   4.247   2.254 -1.3285 -2.5514 -0.6610
13383TIP3   OH261639   5.313   6.466   3.555  0.1472  0.1421  0.0688
13383TIP3    H161640   5.327   6.470   3.650 -0.2448 -0.3220  0.1484
13383TIP3    H261641   5.370   6.396   3.525 -1.7739 -1.6270  0.3675
13384TIP3   OH261642   2.023   2.256  16.768 -0.3059 -0.0984  0.1437
13384TIP3    H161643   2.084   2.185  16.786  0.1212  0.2264 -0.0136
13384TIP3    H261644   2.007   2.296  16.853  0.7161  0.6290  0.0116
13385TIP3   OH261645   3.045   3.349   1.449 -0.4951 -0.0409 -0.2927
13385TIP3    H161646   3.040   3.253   1.455  1.8724 -0.2939 -1.2902
13385TIP3    H261647   2.956   3.379   1.465 -1.3034 -2.4160 -0.0092
13386TIP3   OH261648   0.126   1.034  12.021  0.0527 -0.9954 -0.1313
13386TIP3    H161649   0.088   0.955  12.059 -0.7425 -0.6948 -0.2822
13386TIP3    H261650   0.058   1.068  11.963  0.3669 -0.1713 -0.0331
13387TIP3   OH261651   1.504   6.220   3.042 -0.3158 -0.4117 -0.0894
13387TIP3    H161652   1.491   6.233   3.136  0.2827 -0.6619  0.0312
13387TIP3    H261653   1.539   6.132   3.035 -1.2782 -0.7647 -0.6348
13388TIP3   OH261654   1.025   6.790  13.733 -0.0254 -0.6989  0.3953
13388TIP3    H161655   1.011   6.852  13.805 -0.2884 -0.1523 -0.1154
13388TIP3    H261656   1.100   6.826  13.686  0.1348 -1.0460  0.3878
13389TIP3   OH261657   3.911   1.269   4.563  0.2744  0.1498  0.6081
13389TIP3    H161658   3.997   1.229   4.576  0.2848 -0.0232  0.0111
13389TIP3    H261659   3.926   1.339   4.499 -0.0276  0.1366  0.5223
13390TIP3   OH261660   3.450   5.005  12.354  0.0781 -0.7978 -0.3090
13390TIP3    H161661   3.406   5.059  12.288 -0.0273  0.0120  0.4064
13390TIP3    H261662   3.420   5.041  12.438  1.3304 -0.8750  0.1885
13391TIP3   OH261663   0.041   0.960   2.213 -0.2476 -0.7194  0.2991
13391TIP3    H161664   0.135   0.977   2.208 -0.3805 -0.3749 -1.4221
13391TIP3    H261665   0.005   1.037   2.258  0.1479 -0.2926 -0.1139
13392TIP3   OH261666   2.847   1.460  11.224  1.2572  0.1564  0.2948
13392TIP3    H161667   2.822   1.369  11.209 -0.1326  0.7256 -1.1816
13392TIP3    H261668   2.808   1.482  11.308  0.1414 -0.1505 -0.1276
13393TIP3   OH261669   5.501   4.352   2.983 -0.1743  0.4451 -0.6581
13393TIP3    H161670   5.490   4.261   3.010  0.2233  0.2788 -1.0324
13393TIP3    H261671   5.489   4.351   2.888  1.2513  0.5253 -0.8663
13394TIP3   OH261672   2.748   1.459   4.610  0.6659  0.1257 -0.0980
13394TIP3    H161673   2.747   1.457   4.514 -0.1738  0.7409 -0.1119
13394TIP3    H261674   2.662   1.427   4.636  0.6092  0.6734  0.4255
13395TIP3   OH261675   1.852   6.367   2.556 -0.1032  0.0961  0.5106
13395TIP3    H161676   1.913   6.422   2.605 -0.6683  0.3060  0.9860
13395TIP3    H261677   1.792   6.333   2.622 -0.2261 -0.4826  0.1146
13396TIP3   OH261678   4.808   3.985  14.904 -0.1805 -0.2572  0.4825
13396TIP3    H161679   4.866   3.916  14.872 -1.2176 -1.3002  0.7784
13396TIP3    H261680   4.758   3.943  14.975 -1.1698  0.6497  0.3430
13397TIP3   OH261681   3.221   6.198   4.018 -0.5265 -0.3189  0.0120
13397TIP3    H161682   3.188   6.170   3.933  0.4443  0.8491 -0.7758
13397TIP3    H261683   3.168   6.275   4.040 -0.3681 -0.2575  0.1859
13398TIP3   OH261684   5.109   2.180  15.044 -0.4145  0.1578  0.2144
13398TIP3    H161685   5.105   2.093  15.004  1.6600  0.7914 -1.5722
13398TIP3    H261686   5.070   2.238  14.978  1.0720  0.9410 -0.0125
13399TIP3   OH261687   3.152   4.302   5.452  0.9351 -0.2090  0.1581
13399TIP3    H161688   3.067   4.258   5.460  0.3068  0.7573 -0.8281
13399TIP3    H261689   3.207   4.240   5.405  0.4605 -0.4536 -0.0764
13400TIP3   OH261690   5.487   5.120  11.424 -0.7275  0.2096 -0.0543
13400TIP3    H161691   5.562   5.155  11.376  1.0457 -1.4104  1.3458
13400TIP3    H261692   5.437   5.071  11.359  2.4072 -3.1876 -0.2535
13401TIP3   OH261693   3.000   2.902   0.969 -0.0046 -0.7414 -0.3918
13401TIP3    H161694   2.950   2.927   1.047  0.3223 -0.2552 -0.3352
13401TIP3    H261695   2.937   2.855   0.915 -0.1424 -1.4128  0.3306
13402TIP3   OH261696   1.452   4.598  17.195 -0.4060  0.1093  0.6942
13402TIP3    H161697   1.400   4.603  17.275 -1.6535  2.6263 -0.1696
13402TIP3    H261698   1.427   4.675  17.145  0.8169 -1.0212 -1.8601
13403TIP3   OH261699   3.236   6.379  16.213 -0.7182 -0.0490  0.0630
13403TIP3    H161700   3.249   6.366  16.306  1.7100 -2.8266 -0.5077
13403TIP3    H261701   3.180   6.456  16.207  2.3067  2.8470  3.7074
13404TIP3   OH261702   4.808   0.408   2.395  0.3431  0.4490  0.1348
13404TIP3    H161703   4.801   0.318   2.426 -0.6892  0.7745  0.9330
13404TIP3    H261704   4.847   0.401   2.308 -0.8887 -0.8876 -0.3549
13405TIP3   OH261705   0.869   4.154  11.532 -0.0280 -0.0916 -0.3892
13405TIP3    H161706   0.788   4.202  11.515  0.4775  1.0507  0.3622
13405TIP3    H261707   0.870   4.085  11.465 -1.0801  0.5408 -1.0861
13406TIP3   OH261708   1.952   6.018  15.981  0.0595 -0.6419 -0.4876
13406TIP3    H161709   1.861   6.019  16.010  1.2130  1.6954  3.9137
13406TIP3    H261710   1.994   5.954  16.038  1.5240 -0.2105 -1.0415
13407TIP3   OH261711   3.458   0.215  14.869  0.2303  0.1690 -0.1302
13407TIP3    H161712   3.392   0.174  14.925  1.5278  0.9001  2.0459
13407TIP3    H261713   3.518   0.258  14.930  1.8958  0.7790 -2.0920
13408TIP3   OH261714   0.357   4.568  13.161 -0.8907  0.0317 -0.2857
13408TIP3    H161715   0.294   4.616  13.216 -1.3369 -0.8384 -0.0158
13408TIP3    H261716   0.302   4.515  13.103 -0.4044 -0.7425 -0.0452
13409TIP3   OH261717   3.396   1.341   1.094 -0.2321  0.8251 -0.3881
13409TIP3    H161718   3.480   1.369   1.059 -0.5917  1.4427 -0.7797
13409TIP3    H261719   3.337   1.344   1.018 -0.1694 -1.5900 -0.5962
13410TIP3   OH261720   4.615   5.506   6.441 -0.2647 -0.0531  0.2588
13410TIP3    H161721   4.660   5.439   6.491  2.3799 -0.5640 -2.4480
13410TIP3    H261722   4.608   5.581   6.501  2.8824 -0.5208  1.4128
13411TIP3   OH261723   5.030   3.041  15.029  0.5676 -0.3156 -0.9288
13411TIP3    H161724   5.072   2.993  14.957  0.5538 -1.4326 -0.2282
13411TIP3    H261725   4.936   3.026  15.016  0.5403 -0.1611 -0.9141
13412TIP3   OH261726   6.018   3.438  14.709 -0.1431 -0.0791 -0.1933
13412TIP3    H161727   5.958   3.380  14.756  0.2764  0.4108  0.9821
13412TIP3    H261728   6.056   3.494  14.777 -0.7658  1.7997 -1.3392
13413TIP3   OH261729   4.748   4.578  12.008  0.3407 -0.0897 -0.1201
13413TIP3    H161730   4.818   4.515  11.996  0.5015 -0.0859  0.7088
13413TIP3    H261731   4.700   4.546  12.084 -1.3622 -0.8019 -1.4304
13414TIP3   OH261732   2.571   0.642   1.895  0.0177 -0.0739  0.0363
13414TIP3    H161733   2.629   0.718   1.889  2.0890 -1.3521  2.2185
13414TIP3    H261734   2.590   0.592   1.816 -0.1985  0.8467 -0.6274
13415TIP3   OH261735   5.715   5.176  16.277 -0.4535  0.0115 -0.1842
13415TIP3    H161736   5.707   5.103  16.338  2.0096 -1.4856 -1.4910
13415TIP3    H261737   5.807   5.202  16.283 -0.0922 -0.2466 -3.2477
13416TIP3   OH261738   3.392   0.802  15.190  0.0715 -0.1366 -0.9335
13416TIP3    H161739   3.363   0.734  15.128 -0.5798 -0.1658 -0.6017
13416TIP3    H261740   3.482   0.821  15.163  1.4105 -3.2740  0.7927
13417TIP3   OH261741   0.463   1.588   1.170  0.4663  0.2918  0.1102
13417TIP3    H161742   0.433   1.572   1.080 -0.9455 -0.9560  0.7687
13417TIP3    H261743   0.478   1.501   1.206 -2.9819  0.4293  2.3534
13418TIP3   OH261744   6.161   4.308  14.378 -0.3777  0.4087  0.3491
13418TIP3    H161745   6.105   4.356  14.440 -0.6243 -0.5369  0.8850
13418TIP3    H261746   6.168   4.221  14.416  0.6753  0.2313 -0.2235
13419TIP3   OH261747   6.267   0.815  12.880  0.2226  0.1487 -0.3309
13419TIP3    H161748   6.185   0.777  12.911  0.6660 -2.4487 -1.9688
13419TIP3    H261749   6.256   0.822  12.785  2.5072 -2.2924 -0.9228
13420TIP3   OH261750   4.938   4.455   2.935  0.4021  0.4988  0.6763
13420TIP3    H161751   4.919   4.363   2.916  0.9340  0.3598  0.7941
13420TIP3    H261752   4.868   4.504   2.891  1.0007  0.1228 -0.7727
13421TIP3   OH261753   2.940   4.298  13.068  0.2489  0.3800 -0.2581
13421TIP3    H161754   2.998   4.338  13.133 -1.3352  2.8387 -0.2505
13421TIP3    H261755   3.000   4.250  13.010  1.7344 -1.8562  2.8197
13422TIP3   OH261756   0.866   4.610   4.600  0.2201 -0.8597  0.3467
13422TIP3    H161757   0.838   4.557   4.674 -0.5013 -0.8054  0.1203
13422TIP3    H261758   0.787   4.623   4.548  0.1145  1.3477  0.9539
13423TIP3   OH261759   4.603   0.520  14.855 -0.2605  0.9584 -0.7662
13423TIP3    H161760   4.533   0.584  14.866 -0.7949  0.6240 -2.0981
13423TIP3    H261761   4.673   0.552  14.913 -1.5230  1.2299  0.6635
13424TIP3   OH261762   4.834   2.124  11.357 -0.2855 -0.2335  0.1153
13424TIP3    H161763   4.765   2.063  11.334  1.0885 -1.7386 -0.2060
13424TIP3    H261764   4.904   2.069  11.392  0.8294  1.2161  0.2789
13425TIP3   OH261765   0.583   4.009  16.549 -0.0219 -0.7175  0.6133
13425TIP3    H161766   0.599   3.929  16.599 -2.5490 -1.2943  0.6482
13425TIP3    H261767   0.577   3.979  16.458  1.5316 -0.1307  0.2846
13426TIP3   OH261768   1.293   2.165  15.048  0.0339 -0.5691  0.7549
13426TIP3    H161769   1.278   2.151  14.954 -0.6266  0.1670  0.7394
13426TIP3    H261770   1.221   2.222  15.075 -0.4920 -1.7890  1.9854
13427TIP3   OH261771   0.751   6.597  16.721  0.1047 -0.4036  0.0820
13427TIP3    H161772   0.771   6.681  16.679 -0.1149  0.0572  0.8760
13427TIP3    H261773   0.701   6.549  16.656  0.1893  0.1017 -0.3660
13428TIP3   OH261774   1.658   4.436   3.689 -0.2475  0.5520  0.0856
13428TIP3    H161775   1.586   4.462   3.746 -0.2574  1.2185 -0.2249
13428TIP3    H261776   1.633   4.468   3.603 -0.3698 -0.7080 -0.3686
13429TIP3   OH261777   6.455   6.539   1.897 -0.0793  0.0995 -0.0494
13429TIP3    H161778   6.459   6.544   1.992  1.5651  0.1787 -0.0935
13429TIP3    H261779   6.511   6.610   1.866 -1.6445  0.9320 -1.1192
13430TIP3   OH261780   6.116   6.431  13.110  0.6529 -0.2847  0.3058
13430TIP3    H161781   6.151   6.349  13.144  0.6624 -0.1349  0.6605
13430TIP3    H261782   6.102   6.486  13.187 -1.1940 -0.6494  0.2728
13431TIP3   OH261783   0.908   1.681   5.245  0.0657  0.3243 -0.3731
13431TIP3    H161784   0.934   1.594   5.214 -2.6718 -0.5609 -0.4043
13431TIP3    H261785   0.990   1.722   5.271  1.4851 -2.1438 -0.6329
13432TIP3   OH261786   6.735   3.544   0.127  0.3046  0.2418 -0.8559
13432TIP3    H161787   6.736   3.606   0.054  0.1465  1.1195 -0.1238
13432TIP3    H261788   6.643   3.522   0.139  0.2287  0.8090 -0.3411
13433TIP3   OH261789   3.958   6.018   5.750  0.5272  0.7624  0.2408
13433TIP3    H161790   3.928   5.975   5.670 -0.1877  1.4055  0.1496
13433TIP3    H261791   4.019   5.956   5.790 -1.5799 -0.9800  0.8947
13434TIP3   OH261792   4.241   5.005   5.628  0.5814  0.4396 -0.0526
13434TIP3    H161793   4.264   4.965   5.712 -0.2955 -0.5133 -0.2506
13434TIP3    H261794   4.145   5.007   5.628  0.5942  1.6289 -0.4865
13435TIP3   OH261795   5.169   2.879   5.000  0.4319 -0.5897  0.1628
13435TIP3    H161796   5.248   2.934   4.998  2.1980 -2.9291  0.3210
13435TIP3    H261797   5.201   2.794   5.033 -2.5951 -1.0142  2.4387
13436TIP3   OH261798   0.836   1.546  13.916 -0.2656  0.1974  0.3557
13436TIP3    H161799   0.752   1.552  13.961 -0.1078  0.4878  0.6161
13436TIP3    H261800   0.900   1.571  13.982  0.1058 -0.8129  0.4040
13437TIP3   OH261801   1.711   4.045   2.491 -0.6540  0.0380  0.8111
13437TIP3    H161802   1.781   4.105   2.515 -0.8105  0.5533  0.0227
13437TIP3    H261803   1.750   3.988   2.424 -2.1808  3.4442 -3.4755
13438TIP3   OH261804   0.237   3.004   1.767  0.1075 -0.3859  0.2088
13438TIP3    H161805   0.268   3.032   1.854  1.7413 -1.1146 -0.0996
13438TIP3    H261806   0.232   2.909   1.773 -3.1151 -0.2823  0.5198
13439TIP3   OH261807   0.566   1.712   3.098  0.0531 -0.6928 -0.2809
13439TIP3    H161808   0.495   1.775   3.110  0.7670  0.0146  0.3139
13439TIP3    H261809   0.522   1.630   3.080 -0.9237 -0.2762  0.1401
13440TIP3   OH261810   3.417   4.691   0.021  0.0834  0.1522  0.2828
13440TIP3    H161811   3.401   4.651  -0.064 -0.3946  0.2854  0.3027
13440TIP3    H261812   3.377   4.778   0.013  0.9320  0.5541  0.3003
13441TIP3   OH261813   4.793   0.641  13.782 -0.4573  0.0853  0.0504
13441TIP3    H161814   4.748   0.724  13.797 -0.3530 -0.2153  2.2396
13441TIP3    H261815   4.730   0.574  13.808 -0.4644 -0.5671 -1.4965
13442TIP3   OH261816   2.883   4.840   5.650  0.5812 -0.0734 -0.1542
13442TIP3    H161817   2.875   4.745   5.657  1.0888 -0.1727 -0.9189
13442TIP3    H261818   2.864   4.860   5.559  1.6864  0.4304 -0.2893
13443TIP3   OH261819   5.353   4.140  13.557 -0.0011  0.1081 -0.8889
13443TIP3    H161820   5.378   4.230  13.537  0.1221  0.1329 -0.6233
13443TIP3    H261821   5.265   4.131  13.519  0.4044  0.0163 -1.8311
13444TIP3   OH261822   5.757   4.381  11.378  0.3775  0.7139  0.0519
13444TIP3    H161823   5.768   4.290  11.402 -1.9034 -0.1072 -1.6062
13444TIP3    H261824   5.841   4.407  11.340  0.6795 -1.0907 -0.5875
13445TIP3   OH261825   2.976   3.445  12.751 -0.6149  0.2289 -1.0305
13445TIP3    H161826   2.881   3.458  12.756 -0.9374 -1.9877 -0.2955
13445TIP3    H261827   2.987   3.376  12.686  0.4796  0.2207 -0.8504
13446TIP3   OH261828   5.574   1.287  12.029  0.2527 -0.9621  0.3943
13446TIP3    H161829   5.558   1.299  12.122  0.2758 -2.2424  0.5928
13446TIP3    H261830   5.669   1.285  12.021  0.2530 -1.3282  0.4326
13447TIP3   OH261831   4.819   6.388  16.163  0.4097 -0.4135 -0.3879
13447TIP3    H161832   4.794   6.450  16.231  0.4253 -1.1004  0.2525
13447TIP3    H261833   4.737   6.363  16.122  0.2307 -1.1079  0.3591
13448TIP3   OH261834   0.994   6.270   0.803 -0.3692  0.6019 -0.3944
13448TIP3    H161835   0.977   6.176   0.801 -0.1039  0.4904  1.4951
13448TIP3    H261836   0.940   6.303   0.874  0.6009  1.6443 -0.1064
13449TIP3   OH261837   4.821   1.253   3.979  0.7059  0.4163  0.0639
13449TIP3    H161838   4.735   1.217   3.957 -0.1627  1.3999  1.6395
13449TIP3    H261839   4.818   1.264   4.074  2.6582  0.3114  0.1776
13450TIP3   OH261840   0.837   4.952   5.719  0.0529  0.2733 -0.0438
13450TIP3    H161841   0.853   4.883   5.654 -3.7378 -0.1403 -0.7665
13450TIP3    H261842   0.832   5.033   5.667 -2.6006 -0.0079 -0.3905
13451TIP3   OH261843   5.483   1.679  16.333 -0.1790 -0.4420  0.1313
13451TIP3    H161844   5.496   1.645  16.422 -0.2149  1.0617  0.7394
13451TIP3    H261845   5.565   1.723  16.312 -1.1308  1.6612  0.5775
13452TIP3   OH261846   0.481   6.581   3.894  0.1089  0.0457  0.3678
13452TIP3    H161847   0.566   6.625   3.891 -0.6845  1.6398 -0.0564
13452TIP3    H261848   0.502   6.488   3.905  1.8663  0.5057  1.2110
13453TIP3   OH261849   3.377   3.075  14.137 -0.2561 -0.2039  0.1411
13453TIP3    H161850   3.463   3.080  14.096  0.0169  0.9528  0.8117
13453TIP3    H261851   3.316   3.065  14.064  0.2548  1.3623 -0.5432
13454TIP3   OH261852   2.272   2.083   0.994  0.7292 -0.9681  0.2464
13454TIP3    H161853   2.208   2.146   0.962  0.1831 -0.2287  2.5869
13454TIP3    H261854   2.258   2.005   0.941 -1.4557 -0.4950  0.0514
13455TIP3   OH261855   6.770   0.095   4.427 -0.3613 -0.5255  0.8542
13455TIP3    H161856   6.718   0.068   4.503 -0.2166 -0.9744  0.7941
13455TIP3    H261857   6.849   0.040   4.431 -0.2736 -0.4284  0.4773
13456TIP3   OH261858   3.271   4.763   5.623 -0.6997  0.2389 -0.5340
13456TIP3    H161859   3.234   4.802   5.702  0.4428 -0.3539  0.3179
13456TIP3    H261860   3.267   4.832   5.557 -0.5632  1.1322  0.3803
13457TIP3   OH261861   5.879   4.291  16.926  0.7219  0.3944  0.0497
13457TIP3    H161862   5.839   4.207  16.946  0.3674  0.4146 -0.5631
13457TIP3    H261863   5.855   4.308  16.835  0.5348  1.3059  0.2634
13458TIP3   OH261864   4.452   5.081  16.745  0.4071  0.1346 -1.0832
13458TIP3    H161865   4.442   5.103  16.653 -0.0130 -0.3108 -1.1463
13458TIP3    H261866   4.383   5.018  16.763  1.1032 -0.5494 -0.7218
13459TIP3   OH261867   4.556   0.032   4.927  0.1099  0.1755  0.2808
13459TIP3    H161868   4.615  -0.043   4.919 -1.2952 -0.9956  0.4238
13459TIP3    H261869   4.535   0.037   5.020  0.4877  0.9892  0.3256
13460TIP3   OH261870   6.050   2.476   4.163 -0.0976 -0.3242 -0.0611
13460TIP3    H161871   6.137   2.436   4.165 -1.0286 -2.4744  0.8905
13460TIP3    H261872   5.990   2.402   4.168 -1.9785  1.1893  0.9434
13461TIP3   OH261873   2.168   5.931  15.189 -0.5760  0.0103 -0.3048
13461TIP3    H161874   2.091   5.968  15.233 -0.9101 -0.3676 -0.5613
13461TIP3    H261875   2.222   5.898  15.261 -1.3128 -0.9796 -0.1712
13462TIP3   OH261876   3.665   0.154   1.606 -0.0155  0.2445 -0.2405
13462TIP3    H161877   3.711   0.154   1.522 -0.4375  0.1800 -0.4749
13462TIP3    H261878   3.573   0.143   1.582 -0.4392  2.6329  0.0708
13463TIP3   OH261879   1.791   0.439  14.633  0.0650  0.6116  0.0644
13463TIP3    H161880   1.791   0.377  14.560 -1.0891  0.5261  0.1152
13463TIP3    H261881   1.836   0.516  14.599  0.1655  0.3064 -0.5092
13464TIP3   OH261882   2.803   2.210   1.238  0.0331 -0.2185 -0.0275
13464TIP3    H161883   2.717   2.214   1.279  0.2101 -1.4104  0.5025
13464TIP3    H261884   2.788   2.168   1.154  0.0040  0.1436 -0.2026
13465TIP3   OH261885   5.074   4.139  11.606  0.4329  0.1542 -0.1474
13465TIP3    H161886   5.059   4.146  11.700 -1.7846 -2.7227 -0.1361
13465TIP3    H261887   5.137   4.208  11.586  0.5119  1.2577  3.3088
13466TIP3   OH261888   3.997   0.166  14.807  0.2200  0.6286  0.2643
13466TIP3    H161889   4.047   0.247  14.819  0.3588  0.4134  1.1490
13466TIP3    H261890   3.968   0.170  14.716  1.2460  1.0921 -0.0582
13467TIP3   OH261891   3.255   2.110  16.132  0.5544  0.7511 -0.1549
13467TIP3    H161892   3.229   2.160  16.055  0.0580  0.7275 -0.0037
13467TIP3    H261893   3.281   2.024  16.098  0.8243  0.9106 -0.3493
13468TIP3   OH261894   4.967   0.347  17.118 -0.2075  0.3224  0.1128
13468TIP3    H161895   4.998   0.280  17.179 -0.7456  0.7814  0.9186
13468TIP3    H261896   4.879   0.368  17.149 -0.6557  0.2574 -1.0996
13469TIP3   OH261897   6.655   0.441  11.531 -0.0776 -0.3944  0.0883
13469TIP3    H161898   6.564   0.465  11.513 -0.0484  0.1274  0.6044
13469TIP3    H261899   6.668   0.466  11.622  0.2728 -1.4346  0.3354
13470TIP3   OH261900   4.548   1.896  15.198 -0.3518  0.0671 -0.0714
13470TIP3    H161901   4.517   1.808  15.177 -3.0853  0.3768  2.0897
13470TIP3    H261902   4.601   1.884  15.277 -0.4068  0.3032  0.0017
13471TIP3   OH261903   1.943   0.105  11.197  0.4714  0.6316 -0.0463
13471TIP3    H161904   1.993   0.141  11.270  0.3093  2.3405 -0.7341
13471TIP3    H261905   2.010   0.081  11.133  0.5939 -0.5635  0.5063
13472TIP3   OH261906   0.446   5.667  16.351 -0.2140 -0.3287 -0.1285
13472TIP3    H161907   0.458   5.659  16.256 -1.0329  0.9564 -0.3545
13472TIP3    H261908   0.434   5.576  16.381  0.1991 -0.7600 -1.2165
13473TIP3   OH261909   4.831   3.877  14.209 -0.8762 -0.2570  0.4215
13473TIP3    H161910   4.919   3.866  14.172 -0.9141  2.2612 -0.6097
13473TIP3    H261911   4.846   3.885  14.304  0.6431  3.9193  0.0555
13474TIP3   OH261912   2.429   2.386   2.355 -0.5710  0.1750 -0.0811
13474TIP3    H161913   2.443   2.402   2.262 -2.2569 -0.6797 -0.5185
13474TIP3    H261914   2.425   2.473   2.394 -0.4311  0.5610 -0.9036
13475TIP3   OH261915   2.814   4.514   0.005 -0.1915 -0.0622  0.6752
13475TIP3    H161916   2.862   4.549  -0.070 -0.8723  0.5611  0.5148
13475TIP3    H261917   2.830   4.420   0.002  0.4416  0.0498  0.2206
13476TIP3   OH261918   1.977   2.017  15.579  0.8463  0.1001 -0.0665
13476TIP3    H161919   1.980   2.111  15.599  0.0142  0.0851  0.1649
13476TIP3    H261920   1.908   1.983  15.635  1.4196 -0.7362  0.1564
13477TIP3   OH261921   6.510   5.728  10.800 -0.1260  0.5255 -0.2181
13477TIP3    H161922   6.419   5.749  10.823  0.1451  0.8831  0.5476
13477TIP3    H261923   6.559   5.743  10.880  0.3947 -1.1235 -0.1833
13478TIP3   OH261924   2.185   5.250   5.076 -0.5216  0.5230 -0.6166
13478TIP3    H161925   2.232   5.284   5.000 -2.2594  2.5394 -0.8756
13478TIP3    H261926   2.134   5.325   5.109 -1.0372 -0.7018  1.5905
13479TIP3   OH261927   0.543   2.277   1.755  0.1319  0.4814  0.0120
13479TIP3    H161928   0.638   2.286   1.747  0.0088  1.7378 -0.3719
13479TIP3    H261929   0.511   2.277   1.665 -0.1897 -0.7677  0.1063
13480TIP3   OH261930   2.918   4.266  16.642 -0.2162 -0.7518  0.0214
13480TIP3    H161931   2.969   4.330  16.692  1.0514  0.5962 -2.7795
13480TIP3    H261932   2.838   4.254  16.694  0.1621  1.9571  1.4417
13481TIP3   OH261933   2.578   0.922   0.957  0.2863 -0.1818 -0.0763
13481TIP3    H161934   2.527   0.987   0.908  0.2411 -1.1716 -1.4008
13481TIP3    H261935   2.571   0.950   1.048  0.1903  1.6109 -0.5915
13482TIP3   OH261936   2.434   4.248   3.305  0.4815  0.3183 -0.4284
13482TIP3    H161937   2.512   4.294   3.274  2.0402 -1.5050  0.6188
13482TIP3    H261938   2.467   4.176   3.358 -1.9333 -0.5248  0.0798
13483TIP3   OH261939   1.927   6.220   5.349 -0.5663 -0.3357 -0.3887
13483TIP3    H161940   1.861   6.213   5.418  0.9816 -0.3766  1.1625
13483TIP3    H261941   1.878   6.207   5.267 -2.2212 -1.9492  0.7642
13484TIP3   OH261942   5.929   6.649  15.801 -0.3157  0.0731 -0.0823
13484TIP3    H161943   6.017   6.622  15.773 -0.5423 -1.7312  0.7732
13484TIP3    H261944   5.945   6.711  15.872  0.2765  0.1545 -0.2795
13485TIP3   OH261945   3.552   2.012   1.034  0.4815  0.1517  0.0715
13485TIP3    H161946   3.504   1.993   1.115  0.1216  3.6070  0.7851
13485TIP3    H261947   3.644   2.004   1.058  0.3637  0.3266  0.5799
13486TIP3   OH261948   2.572   3.915  12.377  0.3808  0.2575 -0.3052
13486TIP3    H161949   2.515   3.946  12.307 -1.6364 -1.0050  0.6799
13486TIP3    H261950   2.626   3.990  12.399 -0.9386  1.5521 -1.2817
13487TIP3   OH261951   0.791   4.647   1.221  0.1352 -0.9076 -0.2756
13487TIP3    H161952   0.846   4.577   1.255  0.7994  0.0312  0.6590
13487TIP3    H261953   0.705   4.630   1.259  0.6358 -0.4267  1.1518
13488TIP3   OH261954   5.887   2.932  11.758 -0.2447 -0.0118  0.5440
13488TIP3    H161955   5.948   2.864  11.785 -0.6098 -0.2024  0.8936
13488TIP3    H261956   5.924   3.013  11.793  0.4789  0.0589 -0.3352
13489TIP3   OH261957   2.026   6.248  13.171 -0.4033  0.5689 -1.0132
13489TIP3    H161958   1.954   6.292  13.215 -0.2188  0.0449 -0.1584
13489TIP3    H261959   2.097   6.312  13.172 -0.3042  0.4570 -0.2608
13490TIP3   OH261960   0.526   0.969  16.152 -0.1305  0.7070  0.3415
13490TIP3    H161961   0.498   1.031  16.085  0.0250  0.9992  0.5432
13490TIP3    H261962   0.508   1.013  16.235 -2.4073 -0.5362  0.5879
13491TIP3   OH261963   0.963   1.340  14.400  0.0347 -0.1387  0.3538
13491TIP3    H161964   0.965   1.259  14.348 -1.8123  0.7273 -1.1643
13491TIP3    H261965   0.944   1.310  14.489 -2.7130 -1.3422 -0.5151
13492TIP3   OH261966   6.239   1.893  14.086 -0.5698 -0.2257 -0.2543
13492TIP3    H161967   6.177   1.896  14.013  0.0378 -1.2837 -0.8388
13492TIP3    H261968   6.324   1.909  14.045 -0.4655  1.6575  0.6010
13493TIP3   OH261969   2.502   4.521   0.959  0.7056  0.1105 -0.2449
13493TIP3    H161970   2.544   4.513   1.045 -0.4295  0.6236  0.3873
13493TIP3    H261971   2.551   4.591   0.915  0.2191  1.0823  0.6920
13494TIP3   OH261972   2.834   2.649   1.650 -0.2421 -0.1226 -0.3419
13494TIP3    H161973   2.911   2.640   1.594  1.1879 -0.1629  1.5690
13494TIP3    H261974   2.861   2.706   1.721 -1.8184 -0.5688  0.6764
13495TIP3   OH261975   1.523   0.818   5.686 -0.2825 -0.2418  0.1706
13495TIP3    H161976   1.527   0.780   5.773 -0.4384  1.1681  0.8304
13495TIP3    H261977   1.605   0.790   5.644  0.7969  0.7092  1.5209
13496TIP3   OH261978   2.986   5.442   3.474  0.1823 -0.0833  0.4112
13496TIP3    H161979   2.997   5.464   3.381 -0.2369 -1.2463  0.0699
13496TIP3    H261980   2.929   5.511   3.508 -0.1915  0.0062 -0.3594
13497TIP3   OH261981   2.292   0.054  10.436 -0.0802  0.6059  0.5175
13497TIP3    H161982   2.273   0.131  10.382 -2.8087  0.6959  1.4587
13497TIP3    H261983   2.381   0.027  10.409 -0.4025  1.9796 -2.3293
13498TIP3   OH261984   5.846   3.066  16.238 -0.5050  0.4084  1.0461
13498TIP3    H161985   5.812   2.994  16.291 -0.1406  0.5143  1.4278
13498TIP3    H261986   5.931   3.086  16.276  0.0262  0.0954  0.0481
13499TIP3   OH261987   2.663   3.909   1.179 -0.0595 -0.0571  0.2240
13499TIP3    H161988   2.731   3.855   1.140  0.2989  0.4201  0.1760
13499TIP3    H261989   2.627   3.856   1.250 -0.9711 -1.0961 -0.9575
13500TIP3   OH261990   5.837   3.351  16.936 -0.0461  0.1808  0.5751
13500TIP3    H161991   5.782   3.310  16.869  0.3360 -0.6723  0.7664
13500TIP3    H261992   5.814   3.444  16.932 -0.7124  0.0028 -0.0861
13501TIP3   OH261993   3.103   0.890   3.558 -0.4495  0.5068 -0.0625
13501TIP3    H161994   3.192   0.917   3.534  0.4249 -1.5758  0.6294
13501TIP3    H261995   3.063   0.867   3.474  0.1236  0.1565 -0.2467
13502TIP3   OH261996   1.104   4.269  12.906 -0.3444  0.2392 -0.1687
13502TIP3    H161997   1.081   4.177  12.891 -1.9211  0.1110  2.4979
13502TIP3    H261998   1.192   4.266  12.943 -0.1937 -0.1574 -0.5593
13503TIP3   OH261999   4.976   5.547   5.946  0.0083 -0.0355  0.0285
13503TIP3    H162000   5.058   5.509   5.977 -0.3978 -2.0114 -1.1312
13503TIP3    H262001   5.002   5.606   5.876  0.5586  0.9090  0.9970
13504TIP3   OH262002   1.239   1.216  15.760  0.3462  0.2436  0.8100
13504TIP3    H162003   1.145   1.200  15.759  0.1390  1.1368  2.2882
13504TIP3    H262004   1.260   1.231  15.853  2.0112 -0.2904  0.5618
13505TIP3   OH262005   4.939   5.270  15.525  0.0099  0.2838 -0.2639
13505TIP3    H162006   4.910   5.194  15.576  1.0855  0.9030  1.3646
13505TIP3    H262007   4.902   5.256  15.438 -1.4198 -1.1292  0.5078
13506TIP3   OH262008   3.668   2.787   1.262  0.0961  0.3984 -0.3295
13506TIP3    H162009   3.753   2.823   1.286 -0.0594  0.5198  0.0418
13506TIP3    H262010   3.666   2.701   1.304 -0.1208  0.5563 -0.0088
13507TIP3   OH262011   1.966   1.439  13.212  0.4867  0.0967  0.1211
13507TIP3    H162012   1.921   1.515  13.248  1.1964  0.6657 -0.1783
13507TIP3    H262013   2.023   1.409  13.283 -0.7297 -0.9633  0.6994
13508TIP3   OH262014   0.454   0.316   2.173 -0.3091 -0.5292 -0.4658
13508TIP3    H162015   0.512   0.373   2.223 -0.9513 -0.0048 -0.3030
13508TIP3    H262016   0.445   0.238   2.228  1.1985 -1.1454 -1.0454
13509TIP3   OH262017   3.482   2.905  16.693 -0.2888  0.2878  0.3575
13509TIP3    H162018   3.487   2.829  16.751  0.2737 -0.0951 -0.1705
13509TIP3    H262019   3.566   2.949  16.704 -0.3929  0.5163  0.2403
13510TIP3   OH262020   2.856   0.659  14.444 -0.5209 -0.1470  0.3011
13510TIP3    H162021   2.842   0.752  14.427  0.0284 -0.0291  0.4745
13510TIP3    H262022   2.771   0.618  14.428 -1.3672  0.6861  2.2851
13511TIP3   OH262023   4.402   4.175  15.194 -0.3829  0.2008 -0.5847
13511TIP3    H162024   4.364   4.251  15.237 -2.9704 -1.4078  0.2172
13511TIP3    H262025   4.371   4.179  15.104  1.3512  1.2290 -1.1679
13512TIP3   OH262026   2.362   1.433   0.342  0.2091 -0.0886  0.0858
13512TIP3    H162027   2.326   1.499   0.283 -0.3609  0.0482  0.5732
13512TIP3    H262028   2.344   1.466   0.429  0.4135 -0.6260  0.3398
13513TIP3   OH262029   4.927   6.482   3.368 -0.0683 -0.7059  0.4718
13513TIP3    H162030   5.009   6.523   3.394 -0.2202 -0.6559  0.8824
13513TIP3    H262031   4.863   6.553   3.367  0.1864 -0.4532 -1.3117
13514TIP3   OH262032   1.526   1.677  15.238  0.4886 -0.6391  0.2099
13514TIP3    H162033   1.508   1.648  15.149  4.4192  1.3634 -1.4901
13514TIP3    H262034   1.513   1.772  15.236 -1.7249 -0.8034  2.5540
13515TIP3   OH262035   6.345   4.357   5.760 -0.0178  0.1695  0.5775
13515TIP3    H162036   6.364   4.318   5.845  0.5663 -0.1319  0.3082
13515TIP3    H262037   6.430   4.381   5.724 -0.3964  2.9703  1.3238
13516TIP3   OH262038   6.782   5.910  11.238 -0.0045 -0.1201 -0.1861
13516TIP3    H162039   6.830   5.831  11.215  0.3707 -0.1343  0.6092
13516TIP3    H262040   6.841   5.959  11.294 -1.1389 -0.4555  1.3792
13517TIP3   OH262041   5.936   5.388   5.244 -0.5013 -0.1103  0.0411
13517TIP3    H162042   5.847   5.413   5.266 -0.1301  0.3901  1.0133
13517TIP3    H262043   5.946   5.414   5.152 -0.3594  2.7418  0.7753
13518TIP3   OH262044   6.077   0.429   3.092  0.0015 -0.5350 -0.0773
13518TIP3    H162045   6.033   0.344   3.094 -0.5211 -0.2759  1.4756
13518TIP3    H262046   6.008   0.491   3.069 -0.0008 -0.3637  0.3705
13519TIP3   OH262047   4.681   0.210   6.185  0.1967 -0.1277 -0.0322
13519TIP3    H162048   4.774   0.190   6.174 -0.0071 -1.6500  0.7874
13519TIP3    H262049   4.638   0.165   6.112  0.3032  3.0813 -2.2818
13520TIP3   OH262050   5.324   5.788  12.207 -0.7739  0.1557  0.0985
13520TIP3    H162051   5.306   5.791  12.113 -0.6113 -1.4945 -0.0128
13520TIP3    H262052   5.418   5.773  12.214 -0.9366 -0.7537  0.4876
13521TIP3   OH262053   5.407   3.553  14.447 -0.3592  0.1258  0.1290
13521TIP3    H162054   5.456   3.633  14.467 -0.7993  0.3294  0.4207
13521TIP3    H262055   5.353   3.538  14.525 -0.6542 -0.1739 -0.1276
13522TIP3   OH262056   5.783   0.451   5.973 -0.0907 -0.2601 -0.2496
13522TIP3    H162057   5.784   0.432   6.067 -0.7429 -2.3334 -0.6014
13522TIP3    H262058   5.692   0.469   5.953 -0.2698 -1.6239 -0.7651
13523TIP3   OH262059   6.588   1.010  11.508  0.0718 -0.1701 -0.0087
13523TIP3    H162060   6.647   1.038  11.437 -0.4991  0.9364 -0.0634
13523TIP3    H262061   6.647   0.986  11.579  0.7374 -2.6925 -1.2858
13524TIP3   OH262062   4.007   1.127   3.186 -0.1217 -0.2220 -0.4870
13524TIP3    H162063   3.989   1.042   3.148 -4.3465  1.5847 -3.3924
13524TIP3    H262064   3.932   1.143   3.244  0.5035  1.5120 -0.0887
13525TIP3   OH262065   6.719   3.202  16.752  0.2265 -0.3086  0.1480
13525TIP3    H162066   6.679   3.282  16.785 -0.7796 -1.2362  1.3014
13525TIP3    H262067   6.741   3.221  16.661 -0.4948  1.0847  0.2492
13526TIP3   OH262068   2.493   5.260  16.159  1.0462 -0.6084  0.3092
13526TIP3    H162069   2.482   5.198  16.231 -0.0683 -0.6429  0.1164
13526TIP3    H262070   2.499   5.346  16.201 -1.3566 -0.4280  0.3871
13527TIP3   OH262071   3.457   3.905   4.036 -0.2402  0.4440  0.2996
13527TIP3    H162072   3.499   3.894   3.950  0.0446 -0.7197  0.5648
13527TIP3    H262073   3.504   3.977   4.077 -0.6960  1.3421 -0.7067
13528TIP3   OH262074   1.200   1.788  15.758  0.5014  0.4619 -0.1421
13528TIP3    H162075   1.210   1.696  15.735  0.1225 -0.0956  1.7519
13528TIP3    H262076   1.106   1.799  15.774  0.7563  0.7167  1.3200
13529TIP3   OH262077   3.666   2.252   6.087  0.2233  0.1409 -0.6173
13529TIP3    H162078   3.636   2.343   6.082  0.2026  0.1840  0.1071
13529TIP3    H262079   3.758   2.256   6.061  0.3020  0.4166 -0.3026
13530TIP3   OH262080   0.594   1.371  16.155 -0.3968 -0.4601 -0.7611
13530TIP3    H162081   0.653   1.373  16.080  0.8985 -2.4353  0.1468
13530TIP3    H262082   0.579   1.464  16.175  2.1660  0.1339 -1.2177
13531TIP3   OH262083   2.020   5.129   4.129  0.0451  0.3052  0.0694
13531TIP3    H162084   2.091   5.169   4.080  0.4876  2.2146  2.1040
13531TIP3    H262085   2.058   5.049   4.166  1.0118  1.0571  0.7339
13532TIP3   OH262086   4.533   1.407   6.084 -0.4827 -0.0941 -0.7882
13532TIP3    H162087   4.545   1.313   6.074  0.6271 -0.1733  0.8825
13532TIP3    H262088   4.619   1.445   6.065 -0.6454  0.4836 -0.4174
13533TIP3   OH262089   6.184   3.709   2.829 -0.5679  0.0502 -0.6296
13533TIP3    H162090   6.136   3.764   2.891 -1.2674  0.5067 -1.5559
13533TIP3    H262091   6.272   3.702   2.866 -0.5503  1.5632 -0.3374
13534TIP3   OH262092   5.900   5.530  16.626  0.7256 -0.6312 -0.5330
13534TIP3    H162093   5.956   5.454  16.641  1.0321 -0.5078 -1.0477
13534TIP3    H262094   5.868   5.520  16.537  0.3557 -0.4196 -0.4294
13535TIP3   OH262095   5.189   3.568   0.799 -0.1051 -0.2563  0.3408
13535TIP3    H162096   5.098   3.538   0.807  0.7640 -2.8783  1.4997
13535TIP3    H262097   5.233   3.532   0.876  2.1854 -0.1526 -0.8314
13536TIP3   OH262098   3.848   0.176  15.751  0.1438  0.4858  0.2570
13536TIP3    H162099   3.781   0.144  15.690  0.3456 -2.0759  1.2420
13536TIP3    H262100   3.886   0.252  15.707  0.4459 -1.3421 -2.9662
13537TIP3   OH262101   4.060   6.382  13.967  0.2695  0.0598 -1.1323
13537TIP3    H162102   3.988   6.413  13.912 -0.8914  1.7924  1.1580
13537TIP3    H262103   4.040   6.418  14.054  1.5867 -3.1160  0.6356
13538TIP3   OH262104   1.650   2.300  15.589 -0.2448 -0.1938  0.3457
13538TIP3    H162105   1.573   2.286  15.644 -0.0709  0.6476  0.8339
13538TIP3    H262106   1.630   2.379  15.539 -0.5858 -1.2087 -1.1735
13539TIP3   OH262107   6.265   2.105   0.715  0.3172  0.5317  0.1353
13539TIP3    H162108   6.285   2.149   0.797 -0.2858 -0.1667  0.6708
13539TIP3    H262109   6.175   2.130   0.695 -0.5263 -1.4970  1.1653
13540TIP3   OH262110   2.681   2.732  11.416 -0.2458 -0.1934  0.3934
13540TIP3    H162111   2.767   2.724  11.457  0.1147  2.0188  0.2264
13540TIP3    H262112   2.639   2.803  11.464 -2.1038 -1.4073  0.6299
13541TIP3   OH262113   3.914   1.468   0.299 -0.3411 -0.3415 -0.0806
13541TIP3    H162114   3.979   1.400   0.280  1.1577  1.0426 -0.1090
13541TIP3    H262115   3.870   1.483   0.216  0.8805  0.2693 -0.6495
13542TIP3   OH262116   3.191   2.285  14.363 -0.0159  0.4318  0.0014
13542TIP3    H162117   3.170   2.233  14.286 -0.5684 -0.1202  0.5113
13542TIP3    H262118   3.261   2.237  14.407  1.8364  1.8586 -1.2710
13543TIP3   OH262119   4.930   4.009   2.808 -0.2381  0.0763  0.3419
13543TIP3    H162120   4.892   4.093   2.833  1.1740  1.3901 -1.6499
13543TIP3    H262121   5.000   3.995   2.872 -1.0591 -0.0770  1.2330
13544TIP3   OH262122   5.530   5.280  12.513 -0.6800 -0.2700 -0.3455
13544TIP3    H162123   5.584   5.225  12.456  1.4672  0.4117  0.8924
13544TIP3    H262124   5.544   5.244  12.601 -0.3428  1.3406  0.2999
13545TIP3   OH262125   5.468   6.405  16.231  0.5266  0.5348 -0.2464
13545TIP3    H162126   5.545   6.415  16.286  0.2510  0.1616  0.2185
13545TIP3    H262127   5.484   6.326  16.180  0.8095  0.9148 -0.7545
13546TIP3   OH262128   2.692   6.321   3.916  0.7587 -0.3479 -0.5306
13546TIP3    H162129   2.744   6.273   3.980  1.7984  1.9356  0.4598
13546TIP3    H262130   2.755   6.346   3.848  0.2678 -0.2611 -0.9574
13547TIP3   OH262131   0.483   0.794   5.695 -0.5426 -0.2067  0.1487
13547TIP3    H162132   0.556   0.731   5.690  0.8105  1.3196 -0.3292
13547TIP3    H262133   0.506   0.850   5.769 -0.8620  0.7153 -0.4329
13548TIP3   OH262134   0.649   1.174   5.510 -0.1134 -0.0638  0.3483
13548TIP3    H162135   0.554   1.174   5.524  0.1132 -0.1264  2.1368
13548TIP3    H262136   0.669   1.265   5.486 -0.2526  0.9001  3.4202
13549TIP3   OH262137   5.430   2.698   3.562  0.2384  0.1676  0.1418
13549TIP3    H162138   5.344   2.668   3.590  1.0661 -3.0328 -0.3692
13549TIP3    H262139   5.420   2.715   3.468 -0.2548  1.6987  0.4485
13550TIP3   OH262140   3.177   2.239   2.509 -0.0060 -0.0029  0.4803
13550TIP3    H162141   3.163   2.284   2.425 -0.2817 -0.8995  0.0264
13550TIP3    H262142   3.205   2.308   2.569  1.4867  0.4504 -0.6738
13551TIP3   OH262143   2.848   5.902   3.715 -0.0368 -0.3558 -0.0293
13551TIP3    H162144   2.911   5.879   3.783 -1.4425 -0.9110  1.1398
13551TIP3    H262145   2.850   5.998   3.712  0.8281 -0.3658  0.0180
13552TIP3   OH262146   5.372   3.202   6.349 -0.3471  0.6118 -0.9104
13552TIP3    H162147   5.295   3.239   6.393 -0.1736  1.5786 -1.3782
13552TIP3    H262148   5.446   3.231   6.402 -0.2036  1.0290 -1.3297
13553TIP3   OH262149   2.729   6.338  14.956 -0.1328  0.4176 -0.2333
13553TIP3    H162150   2.786   6.266  14.982 -0.0093  0.0084 -1.5457
13553TIP3    H262151   2.780   6.417  14.975  0.8969  0.0589 -1.3852
13554TIP3   OH262152   6.554   3.471   4.145  0.4389  0.4139  1.3786
13554TIP3    H162153   6.523   3.413   4.214 -0.6336 -2.2160 -1.0825
13554TIP3    H262154   6.473   3.508   4.108  0.9263  1.1422  1.0280
13555TIP3   OH262155   2.468   0.253  16.839 -0.3876 -0.2424  0.1974
13555TIP3    H162156   2.510   0.278  16.757  1.1743  0.0337  1.0379
13555TIP3    H262157   2.375   0.254  16.820 -0.0589  0.0325 -1.5083
13556TIP3   OH262158   3.619   5.408  12.903  0.1046  0.2343  0.1449
13556TIP3    H162159   3.617   5.500  12.877  0.2507  0.0682 -0.4822
13556TIP3    H262160   3.544   5.398  12.962 -0.3214  0.6054 -0.3231
13557TIP3   OH262161   3.903   2.126  14.196  0.0667 -0.4088  0.2951
13557TIP3    H162162   3.917   2.217  14.171  0.5357 -0.7431 -0.6754
13557TIP3    H262163   3.949   2.117  14.280 -1.2923  0.6390  1.1951
13558TIP3   OH262164   6.592   4.696   2.494 -0.4086 -0.1840  0.7650
13558TIP3    H162165   6.549   4.779   2.510 -0.9764 -0.4773  0.7774
13558TIP3    H262166   6.613   4.697   2.401 -0.7143 -0.1712  0.6976
13559TIP3   OH262167   1.948   0.181   1.297  0.2042  0.1456 -0.2254
13559TIP3    H162168   1.852   0.175   1.301  0.2447 -0.1236  0.5035
13559TIP3    H262169   1.966   0.218   1.210 -0.4796 -1.6171 -1.1749
13560TIP3   OH262170   5.130   1.355   1.263  0.0552 -0.7453  0.2494
13560TIP3    H162171   5.042   1.326   1.236  0.1686 -1.3718  0.5334
13560TIP3    H262172   5.117   1.396   1.348 -0.0223 -0.4409  0.0942
13561TIP3   OH262173   6.224   5.043  13.894 -0.1175 -0.1699  0.3783
13561TIP3    H162174   6.280   5.005  13.961 -0.0501  0.7665  0.8574
13561TIP3    H262175   6.277   5.041  13.814 -0.3720 -1.7391  0.2145
13562TIP3   OH262176   4.173   6.676   3.954 -0.5122  0.7995 -0.1145
13562TIP3    H162177   4.123   6.641   3.880 -1.4650  0.0607  0.8412
13562TIP3    H262178   4.109   6.727   4.004  0.3022  1.9377 -0.1836
13563TIP3   OH262179   1.693   6.319  14.973 -0.2228 -0.7760 -0.0968
13563TIP3    H162180   1.781   6.322  14.935  1.0603  1.0601  2.7415
13563TIP3    H262181   1.638   6.362  14.908  1.9971  2.9948  0.2471
13564TIP3   OH262182   1.041   3.481   3.323  0.5187 -0.4962 -0.0559
13564TIP3    H162183   1.022   3.551   3.260 -1.6322  0.2246  1.2734
13564TIP3    H262184   1.079   3.526   3.398 -0.2390 -0.8380  0.5401
13565TIP3   OH262185   1.637   5.061   6.203 -0.5441  0.3183 -0.1928
13565TIP3    H162186   1.679   5.000   6.142 -1.9953 -1.8229  0.8105
13565TIP3    H262187   1.604   5.132   6.148  0.0762 -0.4534 -1.6034
13566TIP3   OH262188   6.206   4.403  11.857 -1.0524  0.5648 -0.2956
13566TIP3    H162189   6.172   4.485  11.893 -1.7821  0.3280 -0.4296
13566TIP3    H262190   6.159   4.335  11.905 -0.4772  0.2200 -0.2118
13567TIP3   OH262191   6.146   4.528   4.246 -0.0982  0.2153  1.0676
13567TIP3    H162192   6.124   4.526   4.339 -0.6110  1.2104  0.9831
13567TIP3    H262193   6.062   4.518   4.202 -0.0306  1.0880  0.7242
13568TIP3   OH262194   1.930   5.525   1.613 -0.2588 -0.6506 -0.3914
13568TIP3    H162195   2.014   5.535   1.570 -0.6245  1.0908 -0.7642
13568TIP3    H262196   1.867   5.520   1.541 -0.5060 -1.9980 -0.1189
13569TIP3   OH262197   1.589   1.268   1.467  0.3019  0.4366  0.0822
13569TIP3    H162198   1.567   1.333   1.401  0.5789  0.0781 -0.3649
13569TIP3    H262199   1.658   1.215   1.427  2.1025  1.5872  1.4817
13570TIP3   OH262200   6.570   3.378   4.855 -0.3149  0.4971  0.4596
13570TIP3    H162201   6.636   3.447   4.863 -0.1470  0.2770  1.0721
13570TIP3    H262202   6.487   3.423   4.868 -0.4223  1.0235 -1.6817
13571TIP3   OH262203   3.391   5.017  16.132  0.2076  0.4102  0.0824
13571TIP3    H162204   3.435   5.037  16.215  0.9234 -0.6567 -0.0109
13571TIP3    H262205   3.330   4.946  16.154  0.6616 -0.1257 -0.3617
13572TIP3   OH262206   0.990   3.193   1.942  0.6601 -0.1382 -0.8959
13572TIP3    H162207   0.944   3.278   1.944 -0.5565 -0.7671 -0.9692
13572TIP3    H262208   1.050   3.197   2.016 -0.7235  0.0941  0.2706
13573TIP3   OH262209   2.094   5.110  16.983  0.3552  0.5661  0.2342
13573TIP3    H162210   2.106   5.158  16.901 -0.3713 -2.2629 -1.6970
13573TIP3    H262211   2.180   5.074  17.003  0.1217 -0.5154 -0.5747
13574TIP3   OH262212   2.726   4.815   2.929  0.0511 -0.2703  0.2062
13574TIP3    H162213   2.783   4.782   2.860  0.1493  0.0757  0.1193
13574TIP3    H262214   2.694   4.736   2.974 -0.7698 -0.5429 -0.8279
13575TIP3   OH262215   2.831   1.121  14.941  0.3955 -0.2779 -0.7858
13575TIP3    H162216   2.902   1.170  14.901  0.6471  0.9974  1.0963
13575TIP3    H262217   2.768   1.188  14.968  0.0624 -1.0823  0.5318
13576TIP3   OH262218   5.028   1.106  17.011  0.2888  0.5461  0.6094
13576TIP3    H162219   5.120   1.120  16.989  0.0025  0.7697 -0.5413
13576TIP3    H262220   4.989   1.076  16.929 -0.8942  1.5925  0.7625
13577TIP3   OH262221   6.781   0.822   0.744 -0.2638 -0.0447  0.4262
13577TIP3    H162222   6.838   0.748   0.765  0.2055  0.8890  2.8053
13577TIP3    H262223   6.712   0.785   0.689  2.0376 -1.4202 -1.7365
13578TIP3   OH262224   2.769   2.174  16.598 -0.2471  0.5293 -0.0257
13578TIP3    H162225   2.714   2.246  16.628  0.3907  1.0914 -0.1662
13578TIP3    H262226   2.842   2.217  16.553  1.0923 -0.1111  1.4365
13579TIP3   OH262227   5.008   2.425  15.990  0.2373 -0.2890 -0.1865
13579TIP3    H162228   5.009   2.411  16.085  0.0867 -0.5345 -0.2211
13579TIP3    H262229   4.979   2.342  15.953 -1.1382  0.2403 -0.3652
13580TIP3   OH262230   0.249   2.464   3.998 -0.0870 -0.1572  0.3808
13580TIP3    H162231   0.327   2.483   4.049  0.2593  1.9632 -0.8109
13580TIP3    H262232   0.266   2.503   3.912 -2.3708  0.2489  0.0292
13581TIP3   OH262233   3.161   6.370   5.052  0.2586  0.1179  0.1691
13581TIP3    H162234   3.220   6.401   5.120  0.2821 -0.3508  0.3628
13581TIP3    H262235   3.215   6.315   4.995  0.3038  0.7241 -0.3901
13582TIP3   OH262236   3.968   3.182  12.697 -0.4185  0.3292 -0.0061
13582TIP3    H162237   3.912   3.106  12.683 -0.9516  0.8591 -0.8798
13582TIP3    H262238   3.994   3.210  12.609  1.8522 -0.3296  0.3804
13583TIP3   OH262239   1.386   6.665  11.740  0.8124  0.7611  0.4431
13583TIP3    H162240   1.398   6.659  11.645 -0.7891 -1.1756  0.3016
13583TIP3    H262241   1.419   6.752  11.763  2.0385  0.9421 -1.7380
13584TIP3   OH262242   4.720   4.657  14.906  0.3015  0.3357  0.3430
13584TIP3    H162243   4.780   4.717  14.950 -0.7194  2.1232 -0.6332
13584TIP3    H262244   4.775   4.607  14.847  0.8995  1.7688 -0.3482
13585TIP3   OH262245   0.517   4.838   3.049 -0.0662  0.3676  0.4705
13585TIP3    H162246   0.465   4.757   3.049  0.1195  0.2246  1.9319
13585TIP3    H262247   0.457   4.904   3.014 -0.5293 -0.2104  0.1417
13586TIP3   OH262248   2.975   1.577  10.846  0.1860 -0.0835  0.0188
13586TIP3    H162249   2.938   1.507  10.792  2.3388 -1.6462  0.4169
13586TIP3    H262250   3.058   1.541  10.878  1.2721  2.5699  0.4713
13587TIP3   OH262251   3.981   3.176   0.801 -0.2269 -0.4086 -0.4304
13587TIP3    H162252   3.889   3.174   0.777 -0.5737  0.6217  0.7038
13587TIP3    H262253   4.020   3.243   0.744 -0.6322  0.6375  0.5005
13588TIP3   OH262254   0.420   4.284   5.300  0.6321  0.0697 -0.4929
13588TIP3    H162255   0.410   4.251   5.211 -0.1020  0.1637 -0.4471
13588TIP3    H262256   0.399   4.209   5.356  0.4785  0.1848 -0.3968
13589TIP3   OH262257   0.366   4.690  17.248  0.2189 -0.5060 -0.4401
13589TIP3    H162258   0.335   4.624  17.186 -1.4525  0.5561 -0.8234
13589TIP3    H262259   0.441   4.731  17.205 -1.8773  1.3389 -2.6602
13590TIP3   OH262260   3.042   0.341   4.512  0.6049 -0.0019 -0.0178
13590TIP3    H162261   3.070   0.289   4.437  0.2477 -0.5854  0.2516
13590TIP3    H262262   2.958   0.378   4.486  0.3742 -0.3846  0.1753
13591TIP3   OH262263   1.446   0.045  13.073  0.3455 -0.3035 -0.3100
13591TIP3    H162264   1.393   0.015  12.999  0.5197 -3.3275  0.6699
13591TIP3    H262265   1.419   0.136  13.087 -0.1710  0.1703 -3.6013
13592TIP3   OH262266   2.324   5.817  16.144 -0.3334 -0.2181 -0.0450
13592TIP3    H162267   2.324   5.877  16.219  0.1985 -0.6191  0.2826
13592TIP3    H262268   2.384   5.857  16.082  0.3925 -0.6377  0.3704
13593TIP3   OH262269   5.694   3.276  17.149  0.2355  0.0349  0.0403
13593TIP3    H162270   5.693   3.313  17.060  0.8442  1.2250  0.5071
13593TIP3    H262271   5.765   3.212  17.147  1.0055  0.8608 -0.0432
13594TIP3   OH262272   3.649   4.153  12.403 -0.1253  0.3003 -0.4913
13594TIP3    H162273   3.690   4.084  12.456 -2.0911 -0.5907 -0.0505
13594TIP3    H262274   3.684   4.234  12.440  3.2083 -0.3563 -1.8061
13595TIP3   OH262275   6.309   3.163   5.065  0.2400  0.2208  0.0135
13595TIP3    H162276   6.378   3.123   5.012  1.0624  0.0432  1.1739
13595TIP3    H262277   6.330   3.137   5.155 -0.3496  1.5958  0.5829
13596TIP3   OH262278   0.198   4.380   3.499  0.0930  0.0210 -0.0878
13596TIP3    H162279   0.175   4.300   3.453 -0.2313  0.3590 -0.5255
13596TIP3    H262280   0.288   4.367   3.526 -0.1495 -0.7428  0.3893
13597TIP3   OH262281   5.154   4.187  12.572 -0.0030 -0.1318  0.2783
13597TIP3    H162282   5.241   4.152  12.552 -0.0888  0.0502 -0.4730
13597TIP3    H262283   5.096   4.111  12.564  0.2631 -0.6078  2.3631
13598TIP3   OH262284   5.982   6.797  14.275  0.2254 -0.3466 -0.3555
13598TIP3    H162285   6.043   6.848  14.222 -0.1226 -0.5762 -0.9866
13598TIP3    H262286   5.962   6.854  14.349  0.9741 -0.1555 -0.2870
13599TIP3   OH262287   1.114   1.974  11.890 -0.0440 -0.2838  0.0889
13599TIP3    H162288   1.148   1.932  11.969  1.5703  0.5756 -0.1220
13599TIP3    H262289   1.155   2.060  11.888 -1.2266  0.2921 -0.9067
13600TIP3   OH262290   3.846   1.315  15.930 -0.0828  0.0361 -0.8255
13600TIP3    H162291   3.833   1.365  16.011 -0.4587 -1.1295 -0.1495
13600TIP3    H262292   3.853   1.382  15.862  1.1413  1.0766  0.2754
13601TIP3   OH262293   3.549   2.939   4.914 -0.3629 -0.0008 -0.3357
13601TIP3    H162294   3.609   2.882   4.963  0.0648  0.9106  0.2249
13601TIP3    H262295   3.529   2.890   4.834  0.1467 -0.8524  0.0484
13602TIP3   OH262296   4.328   5.905   2.970 -0.3963 -0.0097  0.4263
13602TIP3    H162297   4.301   5.813   2.976 -1.1216  0.1952  0.4148
13602TIP3    H262298   4.403   5.912   3.028 -1.7089 -0.1084  2.2080
13603TIP3   OH262299   3.228   4.381   3.443  0.5623  0.3885 -0.2417
13603TIP3    H162300   3.177   4.459   3.461  0.6622  0.5722 -0.7482
13603TIP3    H262301   3.290   4.407   3.374  0.3118 -0.2429 -0.7223
13604TIP3   OH262302   5.377   1.476   2.376  0.0133  0.3356 -0.2206
13604TIP3    H162303   5.455   1.515   2.337 -0.4875  0.8384 -0.7399
13604TIP3    H262304   5.336   1.428   2.304 -0.8174  1.1080 -0.2669
13605TIP3   OH262305   5.328   5.082  17.279 -0.2911  0.6694 -0.2452
13605TIP3    H162306   5.253   5.140  17.263  0.4797  1.1868 -2.2095
13605TIP3    H262307   5.389   5.101  17.208  0.4785 -1.7775 -0.3159
13606TIP3   OH262308   2.022   0.288   5.001  0.1743  0.1750 -0.2942
13606TIP3    H162309   1.966   0.255   4.931  0.3333 -0.6658 -0.0436
13606TIP3    H262310   1.962   0.313   5.071  0.0902 -0.6686 -0.0483
13607TIP3   OH262311   0.687   2.577  16.659 -0.0899  0.2339  0.5258
13607TIP3    H162312   0.610   2.611  16.704 -0.5449 -0.0382 -0.0365
13607TIP3    H262313   0.748   2.651  16.655  0.1266  0.1517  1.9438
13608TIP3   OH262314   1.125   1.859  14.929 -0.1020 -0.9073 -0.5164
13608TIP3    H162315   1.187   1.879  14.859  0.4825  0.9106  0.4455
13608TIP3    H262316   1.045   1.904  14.903  1.2686  3.4578  1.7404
13609TIP3   OH262317   6.308   3.753  11.089  0.2670  0.2983  0.1209
13609TIP3    H162318   6.297   3.659  11.072 -0.6825  0.5600 -0.7938
13609TIP3    H262319   6.300   3.794  11.003 -2.1107  1.4589  0.8380
13610TIP3   OH262320   5.882   2.438   1.562  0.0169 -0.0129 -0.5757
13610TIP3    H162321   5.926   2.456   1.479  1.8797  0.4612  0.4529
13610TIP3    H262322   5.931   2.365   1.600 -0.0191  0.5708  0.6472
13611TIP3   OH262323   0.594   1.322  11.461 -0.1890 -0.1461  0.3542
13611TIP3    H162324   0.675   1.348  11.504  0.4261 -2.0627  0.4519
13611TIP3    H262325   0.570   1.239  11.503 -0.0047 -1.7057 -2.3807
13612TIP3   OH262326   0.304   0.233  15.489 -0.4160 -0.1494 -0.3859
13612TIP3    H162327   0.274   0.273  15.407  0.6174  0.0775 -0.6804
13612TIP3    H262328   0.318   0.308  15.548  2.6352  0.1745 -1.3037
13613TIP3   OH262329   5.535   6.394   5.021  0.1283 -0.2718 -0.6208
13613TIP3    H162330   5.609   6.379   5.080  0.4000  0.2181 -0.8313
13613TIP3    H262331   5.537   6.320   4.960  1.7324  0.7865 -1.9317
13614TIP3   OH262332   4.204   2.451  13.913  0.1370 -0.2450 -0.1575
13614TIP3    H162333   4.156   2.517  13.962  2.7118  0.0993  2.1281
13614TIP3    H262334   4.227   2.385  13.979  0.5477 -1.6965 -1.6907
13615TIP3   OH262335   5.097   0.026  10.662  0.5916 -0.0757  0.4181
13615TIP3    H162336   5.128   0.116  10.651  0.4680 -0.0163  0.5476
13615TIP3    H262337   5.173  -0.028  10.642  0.6511  0.0562  0.2827
13616TIP3   OH262338   1.815   1.481   1.158  0.0208 -0.7211  0.1955
13616TIP3    H162339   1.736   1.520   1.193 -0.3917 -1.4116  0.0583
13616TIP3    H262340   1.843   1.541   1.088 -0.8890 -0.9245 -0.3589
13617TIP3   OH262341   5.700   0.100  17.218  0.0782  0.7691 -0.6519
13617TIP3    H162342   5.642   0.089  17.143 -1.3875  1.1132  0.4004
13617TIP3    H262343   5.660   0.047  17.287  2.0666 -0.5533 -0.4180
13618TIP3   OH262344   4.800   4.845  12.566 -0.6548  0.1262 -0.0554
13618TIP3    H162345   4.762   4.932  12.560 -1.8976 -0.4737 -1.1811
13618TIP3    H262346   4.812   4.817  12.476  1.1227 -0.3093  0.2738
13619TIP3   OH262347   2.400   0.024  15.156  0.3047  0.0942 -0.6978
13619TIP3    H162348   2.433  -0.059  15.121  1.9970  0.6793 -0.5498
13619TIP3    H262349   2.370   0.072  15.079 -0.0931 -0.3831 -0.8504
13620TIP3   OH262350   6.761   1.611   5.439 -0.1147 -0.3878 -0.2975
13620TIP3    H162351   6.753   1.635   5.532 -1.8894 -0.5005 -0.3889
13620TIP3    H262352   6.809   1.684   5.400  0.3829 -0.1874  0.6433
13621TIP3   OH262353   3.889   1.599   5.452 -0.3408 -0.0521  0.0997
13621TIP3    H162354   3.862   1.665   5.388  0.3847 -0.1312 -0.2960
13621TIP3    H262355   3.905   1.520   5.401 -1.5762 -0.6702  0.6188
13622TIP3   OH262356   1.277   1.199   5.239 -0.4693  0.4278 -0.0708
13622TIP3    H162357   1.291   1.183   5.332 -0.1652  1.5602  0.0896
13622TIP3    H262358   1.215   1.272   5.236 -0.8976  0.0522 -0.7683
13623TIP3   OH262359   5.624   0.168   5.183  0.7059  0.2937  0.5007
13623TIP3    H162360   5.585   0.254   5.199 -1.8217 -0.7944  0.5868
13623TIP3    H262361   5.625   0.159   5.088  2.1908  0.8923  0.4305
13624TIP3   OH262362   4.050   1.570  12.466  0.0768 -0.1757  0.0177
13624TIP3    H162363   3.987   1.577  12.538 -0.3421 -1.1062 -0.2484
13624TIP3    H262364   4.037   1.482  12.431  1.6846 -0.4575  0.0853
13625TIP3   OH262365   4.619   6.163  16.557 -0.7721 -0.2186 -0.3326
13625TIP3    H162366   4.593   6.076  16.588 -3.0127  0.0323 -1.3027
13625TIP3    H262367   4.606   6.159  16.462 -2.5186  1.6026 -0.2382
13626TIP3   OH262368   1.317   4.889   4.130 -0.4166 -0.4301  0.0634
13626TIP3    H162369   1.271   4.825   4.183 -1.6180  1.2926  1.2293
13626TIP3    H262370   1.409   4.874   4.148 -0.7344 -1.0195  1.3092
13627TIP3   OH262371   1.519   1.795   1.393  0.2467 -0.6011  0.2114
13627TIP3    H162372   1.571   1.801   1.314  0.3917 -0.6713  0.3020
13627TIP3    H262373   1.580   1.766   1.461  0.1243 -0.5414  0.3491
13628TIP3   OH262374   4.897   4.562   0.849  0.2776 -0.3391 -0.2704
13628TIP3    H162375   4.987   4.558   0.881  0.2285  0.0815 -0.0643
13628TIP3    H262376   4.844   4.552   0.928  0.1450 -0.3951 -0.3670
13629TIP3   OH262377   0.783   1.302  16.740 -0.5393  0.5736 -0.1448
13629TIP3    H162378   0.691   1.286  16.720 -0.7705  1.8849 -0.2123
13629TIP3    H262379   0.806   1.378  16.687  0.1073  1.3067  1.1438
13630TIP3   OH262380   4.084   4.327  14.088  0.0941 -0.0299 -0.2782
13630TIP3    H162381   4.127   4.333  14.002  0.4670 -0.0677 -0.0975
13630TIP3    H262382   4.018   4.259  14.077  0.4401 -0.3482 -0.4124
13631TIP3   OH262383   2.200   2.522   3.818  0.2763  0.8099 -0.3564
13631TIP3    H162384   2.219   2.435   3.851 -1.1030  0.7525  0.3471
13631TIP3    H262385   2.282   2.550   3.777  1.0199 -0.4351  0.2090
13632TIP3   OH262386   0.762   4.758   5.139  0.5040  0.1423 -0.3223
13632TIP3    H162387   0.724   4.670   5.145  0.5916  0.1774  0.8314
13632TIP3    H262388   0.686   4.815   5.128  0.2112  0.1762  1.6375
13633TIP3   OH262389   1.960   5.950   6.428  0.3371 -0.0133  0.1437
13633TIP3    H162390   1.985   5.878   6.369  0.4401  0.6141 -0.5915
13633TIP3    H262391   1.907   6.007   6.374 -0.5487 -0.0120  0.9937
13634TIP3   OH262392   0.215   4.825  11.883 -0.0782 -0.3448 -0.0111
13634TIP3    H162393   0.237   4.733  11.869 -0.3797 -0.2752 -1.0787
13634TIP3    H262394   0.124   4.824  11.914 -0.0551 -0.4143  0.0529
13635TIP3   OH262395   2.424   0.323   4.298  0.2104  0.5024 -0.1830
13635TIP3    H162396   2.372   0.377   4.357  0.4002 -0.7046  1.1463
13635TIP3    H262397   2.394   0.234   4.314  0.0920  0.1551 -2.1246
13636TIP3   OH262398   5.911   4.523   5.741 -0.1634 -0.0321  0.1261
13636TIP3    H162399   5.868   4.544   5.823 -0.7535  0.8630 -0.4007
13636TIP3    H262400   5.842   4.527   5.675  0.5851  0.7504 -0.6353
13637TIP3   OH262401   2.933   1.140   6.023 -0.3225  0.6945 -0.3594
13637TIP3    H162402   2.963   1.209   6.083  0.2257  2.0495 -2.0990
13637TIP3    H262403   2.976   1.061   6.056 -0.0519  1.3739  1.0403
13638TIP3   OH262404   2.423   2.743  12.249  0.1241  0.2862 -0.0783
13638TIP3    H162405   2.359   2.711  12.312  1.2146 -3.8653 -0.7792
13638TIP3    H262406   2.390   2.713  12.164  2.0422 -0.3162 -0.6520
13639TIP3   OH262407   5.139   2.917  14.395 -0.0643  0.2441  0.0250
13639TIP3    H162408   5.212   2.854  14.391 -0.9660 -0.9395  1.2846
13639TIP3    H262409   5.182   3.002  14.403  1.2148 -0.0624 -2.4965
13640TIP3   OH262410   1.434   4.053   2.523 -0.4358  0.0810 -0.2576
13640TIP3    H162411   1.527   4.030   2.524 -0.8777 -1.8331 -0.1817
13640TIP3    H262412   1.424   4.113   2.598  0.8447  0.8812 -0.6967
13641TIP3   OH262413   0.647   0.996  15.806 -0.1222 -0.0672 -0.1675
13641TIP3    H162414   0.570   1.045  15.776 -0.5482  0.6193  1.9055
13641TIP3    H262415   0.611   0.923  15.856  0.5471  0.3644  0.9847
13642TIP3   OH262416   3.154   2.275  11.408  0.4845  0.2895 -0.2498
13642TIP3    H162417   3.104   2.354  11.431 -1.2813 -0.3214 -1.7431
13642TIP3    H262418   3.117   2.206  11.463 -0.5174 -0.2009 -1.4802
13643TIP3   OH262419   6.023   5.174   0.461  0.4682 -0.0082  0.6537
13643TIP3    H162420   6.066   5.184   0.377 -0.2640 -0.7143  0.1799
13643TIP3    H262421   6.042   5.084   0.487  1.9150  0.6291  1.9603
13644TIP3   OH262422   4.212   1.596   0.321  0.1007  0.2619  0.3172
13644TIP3    H162423   4.192   1.502   0.313  0.7035  0.1332  0.2220
13644TIP3    H262424   4.149   1.629   0.385 -0.2561 -0.1662  0.1913
13645TIP3   OH262425   3.823   2.628  12.705  0.3033  0.3557 -0.1078
13645TIP3    H162426   3.843   2.539  12.675  0.4484  0.3273  0.0713
13645TIP3    H262427   3.906   2.662  12.737 -0.1495 -0.1945  1.7568
13646TIP3   OH262428   3.967   2.306   1.630 -0.0880 -0.3165 -0.5123
13646TIP3    H162429   4.049   2.258   1.627 -1.3421 -2.5507 -0.9625
13646TIP3    H262430   3.936   2.297   1.720 -0.5294 -0.7296 -0.7008
13647TIP3   OH262431   2.759   5.919  11.633 -0.1539 -0.2876 -0.3157
13647TIP3    H162432   2.800   5.836  11.656 -1.1246 -0.9141 -0.7917
13647TIP3    H262433   2.829   5.969  11.590  0.2316 -1.1558 -0.7228
13648TIP3   OH262434   1.456   2.022  13.717 -0.4286 -0.1621 -0.8307
13648TIP3    H162435   1.392   2.066  13.773 -0.1553 -0.4454 -0.2872
13648TIP3    H262436   1.404   1.989  13.644 -1.2202 -1.8684  0.4340
13649TIP3   OH262437   3.173   3.324  14.472 -0.4708  0.4528 -0.5328
13649TIP3    H162438   3.188   3.282  14.387 -0.0695 -0.4186 -0.0460
13649TIP3    H262439   3.200   3.258  14.536 -1.9718  0.6153  0.3009
13650TIP3   OH262440   3.229   4.048  16.666 -0.0483  0.4807  0.1130
13650TIP3    H162441   3.316   4.050  16.626  0.2412  3.5345  0.6319
13650TIP3    H262442   3.246   4.044  16.760 -0.5568 -0.5023  0.1786
13651TIP3   OH262443   2.695   1.205  13.127 -0.1531  0.5565  0.4510
13651TIP3    H162444   2.718   1.147  13.200 -1.8096 -1.0520 -0.2284
13651TIP3    H262445   2.599   1.203  13.125 -0.1636  1.4971 -1.0452
13652TIP3   OH262446   1.627   2.570   2.713  0.3572 -0.3703 -0.4398
13652TIP3    H162447   1.597   2.620   2.789 -1.4031  0.0578 -1.3567
13652TIP3    H262448   1.550   2.519   2.687  1.7601 -2.6986 -0.2517
13653TIP3   OH262449   3.003   0.122   0.694 -0.4940 -0.6911 -0.1665
13653TIP3    H162450   2.977   0.179   0.622 -2.6470  0.3726  1.3416
13653TIP3    H262451   2.931   0.059   0.701  0.6510 -2.0548 -0.1927
13654TIP3   OH262452   5.258   3.843  11.958  0.4893 -0.6268 -0.5916
13654TIP3    H162453   5.347   3.819  11.984  0.4858 -0.6079 -0.5618
13654TIP3    H262454   5.214   3.864  12.040  0.2451 -1.3433 -0.5338
13655TIP3   OH262455   5.072   4.534  10.608  0.0294  0.0278  0.0326
13655TIP3    H162456   5.106   4.583  10.682 -0.3789  0.1861  0.1152
13655TIP3    H262457   5.004   4.478  10.645  0.4913 -0.6087 -0.0594
13656TIP3   OH262458   1.458   6.381  12.674 -0.0382  0.0641 -0.0856
13656TIP3    H162459   1.391   6.442  12.645  0.2820  0.9622  0.9614
13656TIP3    H262460   1.410   6.301  12.695 -0.3815 -0.2946 -2.0936
13657TIP3   OH262461   4.764   0.583   2.712  0.0998  0.1343  0.2756
13657TIP3    H162462   4.775   0.512   2.649  0.6838 -0.2811  0.8355
13657TIP3    H262463   4.807   0.551   2.791  1.6396  1.6796  0.1131
13658TIP3   OH262464   3.486   2.413   2.246 -0.0513  0.1450  0.2750
13658TIP3    H162465   3.485   2.495   2.295 -1.2092  0.2549  0.0827
13658TIP3    H262466   3.404   2.413   2.196 -0.0490 -1.1089  0.2364
13659TIP3   OH262467   5.080   0.952   1.671 -0.1048  1.0052  0.1156
13659TIP3    H162468   5.171   0.922   1.671 -0.3987  0.0456 -1.0566
13659TIP3    H262469   5.085   1.044   1.647  0.4989  0.6661 -1.1513
13660TIP3   OH262470   5.662   2.780  11.094  0.1383 -0.0815 -0.1015
13660TIP3    H162471   5.739   2.774  11.151  0.0491 -2.3688 -0.1173
13660TIP3    H262472   5.595   2.822  11.148  1.1632  1.3686  0.1196
13661TIP3   OH262473   1.340   6.394  17.234  0.0985  0.1113 -0.0330
13661TIP3    H162474   1.379   6.428  17.315 -0.9616 -0.6820  0.8422
13661TIP3    H262475   1.381   6.308  17.222  0.1593  0.1732 -0.2584
13662TIP3   OH262476   3.970   0.991   2.752  0.4783 -0.0151 -0.0697
13662TIP3    H162477   4.058   0.959   2.771 -0.2400 -1.8084  0.4266
13662TIP3    H262478   3.984   1.065   2.692  2.3220  0.0161  0.3362
13663TIP3   OH262479   3.226   0.039  14.068 -0.6233 -0.7289  0.4067
13663TIP3    H162480   3.162   0.105  14.044  0.0466 -0.4530 -0.6743
13663TIP3    H262481   3.311   0.081  14.053 -0.1901 -1.4207  0.8689
13664TIP3   OH262482   3.978   2.636   4.842  0.0005 -0.3602 -0.2372
13664TIP3    H162483   3.961   2.730   4.844 -1.7651 -0.6514  0.8610
13664TIP3    H262484   4.027   2.622   4.760  1.4701  1.6490  0.2001
13665TIP3   OH262485   4.118   2.163  14.588  0.4300  0.3018 -0.8430
13665TIP3    H162486   4.025   2.166  14.566  0.2827  1.2213 -0.1982
13665TIP3    H262487   4.136   2.071  14.606 -0.5462  0.2236 -0.2014
13666TIP3   OH262488   3.839   2.154   3.000  0.3376  0.1141 -0.4000
13666TIP3    H162489   3.837   2.129   2.908 -0.0979 -0.6856 -0.1820
13666TIP3    H262490   3.926   2.131   3.030  0.7245  1.0283 -0.7755
13667TIP3   OH262491   5.429   4.403  14.892 -0.2689 -0.2672 -0.1358
13667TIP3    H162492   5.459   4.312  14.884 -0.5131 -0.4669  1.0495
13667TIP3    H262493   5.361   4.400  14.959 -0.1548  0.8234  0.0451
13668TIP3   OH262494   0.036   0.912  15.303 -0.4573  0.4924 -0.4721
13668TIP3    H162495  -0.021   0.941  15.232 -1.0649 -0.1274 -0.2491
13668TIP3    H262496   0.011   0.821  15.319  1.1308 -0.0569 -0.8899
13669TIP3   OH262497   6.328   1.373  10.847 -0.0824  0.8212  0.1267
13669TIP3    H162498   6.342   1.279  10.859 -1.1045  0.7303  0.6952
13669TIP3    H262499   6.382   1.396  10.771 -1.8949 -0.7630 -1.7685
13670TIP3   OH262500   5.940   5.535  13.261  0.3433  1.0393  0.4173
13670TIP3    H162501   5.967   5.608  13.206  0.1147  1.3780  0.7491
13670TIP3    H262502   5.893   5.576  13.334 -2.5438  0.3835 -0.9502
13671TIP3   OH262503   0.445   1.541   0.574  0.7310 -0.1142 -0.1236
13671TIP3    H162504   0.470   1.604   0.507 -1.5882  0.1706 -0.7792
13671TIP3    H262505   0.436   1.593   0.654  0.2394  0.1330 -0.3389
13672TIP3   OH262506   4.542   6.245  13.302  0.1290 -0.2789 -0.6169
13672TIP3    H162507   4.615   6.297  13.268  0.3679  1.0161  1.6165
13672TIP3    H262508   4.481   6.311  13.336 -2.0344 -1.3388 -2.2308
13673TIP3   OH262509   4.975   1.068   4.817  0.6432 -0.1750 -0.9652
13673TIP3    H162510   5.061   1.097   4.786  0.9016 -1.9323 -2.0217
13673TIP3    H262511   4.983   1.066   4.912  0.8865  2.2024 -0.8614
13674TIP3   OH262512   0.407   1.518   0.211 -0.2267  0.8016 -0.3149
13674TIP3    H162513   0.330   1.479   0.253 -1.4210  2.1340 -1.1710
13674TIP3    H262514   0.429   1.592   0.267  1.2739 -0.3171  0.6354
13675TIP3   OH262515   5.731   6.191  11.522  0.2208  0.3940  0.1355
13675TIP3    H162516   5.722   6.168  11.615  0.4585  1.8814  0.5583
13675TIP3    H262517   5.821   6.169  11.500  0.6602  1.5023  0.7276
13676TIP3   OH262518   3.958   5.491  16.686  0.4472 -0.4488  0.0424
13676TIP3    H162519   3.955   5.422  16.751 -0.8601  0.3322  0.8570
13676TIP3    H262520   4.042   5.535  16.701  0.3414 -0.5318  0.9317
13677TIP3   OH262521   0.377   0.997  13.133 -0.0918 -0.8443 -0.1558
13677TIP3    H162522   0.302   0.940  13.150  0.6104 -1.6683  0.2306
13677TIP3    H262523   0.451   0.938  13.124  0.3229 -0.1288 -1.8104
13678TIP3   OH262524   3.442   1.631  11.668  0.3407 -0.3170 -0.3004
13678TIP3    H162525   3.450   1.689  11.593 -1.0617  0.0262 -0.2123
13678TIP3    H262526   3.455   1.543  11.633 -1.3775 -0.2575 -1.1793
13679TIP3   OH262527   1.986   0.108  15.168 -0.1836 -0.3145 -0.3216
13679TIP3    H162528   1.917   0.083  15.230  0.2053 -0.3237  0.1123
13679TIP3    H262529   1.939   0.131  15.088 -0.7270  0.1884  0.1348
13680TIP3   OH262530   4.162   3.078   0.495  0.2276  0.2002 -0.1325
13680TIP3    H162531   4.081   3.086   0.445 -0.3071  0.6611  0.7878
13680TIP3    H262532   4.202   3.165   0.490 -0.9870  0.9800  2.1308
13681TIP3   OH262533   0.571   0.931  10.860 -0.9306  0.0448  0.3329
13681TIP3    H162534   0.593   1.024  10.861 -0.5703  0.0726 -2.4769
13681TIP3    H262535   0.503   0.922  10.793  0.0194 -1.8586 -0.4797
13682TIP3   OH262536   1.236   0.139   3.833 -0.0282 -0.3558 -0.7031
13682TIP3    H162537   1.253   0.228   3.863  1.3150 -0.9188  0.3799
13682TIP3    H262538   1.183   0.100   3.903  0.2245 -0.6828 -0.6897
13683TIP3   OH262539   4.043   2.661   2.847  0.0054  0.1419 -0.0453
13683TIP3    H162540   4.129   2.684   2.812 -0.1978 -0.4508 -0.9591
13683TIP3    H262541   4.034   2.717   2.925  0.6914  1.1154 -0.6327
13684TIP3   OH262542   3.797   0.814  14.351  0.2187 -0.0918  0.1500
13684TIP3    H162543   3.876   0.763  14.367  0.7217  0.2494 -1.1375
13684TIP3    H262544   3.747   0.762  14.288 -0.1714  0.1073  0.2923
13685TIP3   OH262545   5.518   1.900  12.905 -0.4950 -0.3860 -0.0559
13685TIP3    H162546   5.472   1.980  12.930 -0.5408 -0.2410 -0.6067
13685TIP3    H262547   5.610   1.924  12.904 -0.6237  0.1862 -2.0842
13686TIP3   OH262548   1.993   6.612   6.038  0.5449 -0.2743 -0.3530
13686TIP3    H162549   2.057   6.561   5.988  0.0140 -0.4660 -0.8567
13686TIP3    H262550   1.911   6.600   5.990  0.8259  2.9392 -1.8942
13687TIP3   OH262551   2.677   2.241   1.751  0.1560 -0.0881  0.7162
13687TIP3    H162552   2.611   2.303   1.781 -0.0048  0.5390 -0.8353
13687TIP3    H262553   2.748   2.247   1.816  0.7700  2.7739 -0.0932
13688TIP3   OH262554   0.802   0.343   5.667  0.0692  0.1319  0.0226
13688TIP3    H162555   0.796   0.283   5.741  0.5141 -0.5433 -0.4701
13688TIP3    H262556   0.759   0.423   5.697 -0.8475 -0.5435  0.5791
13689TIP3   OH262557   3.077   0.473  16.254 -0.8857 -0.2773  0.0428
13689TIP3    H162558   3.080   0.568  16.240 -0.1821 -0.4271 -0.9706
13689TIP3    H262559   3.156   0.453  16.304 -0.7664 -0.3756 -0.1783
13690TIP3   OH262560   1.200   2.601  16.611 -0.0697  0.0866  0.0767
13690TIP3    H162561   1.259   2.640  16.675 -1.1040  1.6304  0.1565
13690TIP3    H262562   1.234   2.513  16.597  1.0496  0.2284  1.6256
13691TIP3   OH262563   2.254   3.327   6.069  0.8204 -0.1216  0.0940
13691TIP3    H162564   2.172   3.374   6.083  0.9379 -0.2278  1.2217
13691TIP3    H262565   2.322   3.390   6.092  1.1221  0.2670 -1.6882
13692TIP3   OH262566   1.534   4.670  16.173  0.1659  0.0233 -0.7368
13692TIP3    H162567   1.449   4.630  16.159 -0.4405  1.8188 -2.7897
13692TIP3    H262568   1.571   4.623  16.248 -1.8622 -1.9629 -0.8774
13693TIP3   OH262569   4.082   0.935   0.283  0.8822 -0.0625  0.0194
13693TIP3    H162570   4.105   1.025   0.309 -1.0484  0.6855 -0.6568
13693TIP3    H262571   4.089   0.935   0.188 -0.6134 -0.1233 -0.1208
13694TIP3   OH262572   2.838   0.601  12.060 -0.0108 -0.2147 -0.1949
13694TIP3    H162573   2.748   0.631  12.072 -0.3619 -1.7583  1.4758
13694TIP3    H262574   2.877   0.605  12.148  0.3509 -3.0730 -0.1255
13695TIP3   OH262575   5.410   3.324  11.644 -0.4181  0.1433  0.5738
13695TIP3    H162576   5.447   3.258  11.585 -0.9342  0.8029 -0.5377
13695TIP3    H262577   5.328   3.351  11.601  0.3942  2.4115  0.3137
13696TIP3   OH262578   1.830   2.224  15.892  0.6183  0.0463  0.2067
13696TIP3    H162579   1.856   2.261  15.807 -0.4053 -1.6105 -0.8726
13696TIP3    H262580   1.770   2.153  15.870 -2.0483  1.4152  2.4426
13697TIP3   OH262581   6.472   3.687  16.834 -0.6775 -0.1388 -0.7029
13697TIP3    H162582   6.502   3.764  16.882 -0.9039 -0.4563 -0.0391
13697TIP3    H262583   6.383   3.707  16.807  0.2978  1.1336 -3.3757
13698TIP3   OH262584   0.369   3.588  16.615 -0.1511  0.2407 -0.6994
13698TIP3    H162585   0.325   3.626  16.539 -1.0787 -1.4065 -1.0355
13698TIP3    H262586   0.329   3.501  16.625  1.8388 -0.6413  0.0358
13699TIP3   OH262587   5.442   1.480   6.254 -0.4345 -0.6943 -0.4215
13699TIP3    H162588   5.409   1.490   6.343 -0.8415  0.4285 -0.6797
13699TIP3    H262589   5.423   1.389   6.231  0.2046 -1.1667  0.8308
13700TIP3   OH262590   1.995   5.101   5.408 -0.4481 -0.2524  0.2684
13700TIP3    H162591   1.947   5.111   5.491 -0.2817 -2.6387  0.7160
13700TIP3    H262592   2.048   5.022   5.420  1.8665  0.9624 -1.0690
13701TIP3   OH262593   2.587   5.918  13.722  0.1019  0.1651  0.2189
13701TIP3    H162594   2.555   5.867  13.797 -1.2723  0.5436 -0.0774
13701TIP3    H262595   2.564   6.008  13.743  0.6390  0.4071 -0.2082
13702TIP3   OH262596   3.654   0.557   3.333  0.3818 -0.5605 -0.5521
13702TIP3    H162597   3.598   0.579   3.258  1.6745  0.4619 -1.2482
13702TIP3    H262598   3.606   0.590   3.409  0.2055  0.6535 -1.1732
13703TIP3   OH262599   4.287   4.479   0.770  0.0034  0.4215  0.4884
13703TIP3    H162600   4.280   4.384   0.778 -2.5754  0.4272 -0.6908
13703TIP3    H262601   4.275   4.496   0.677  2.0805  1.8608  0.4222
13704TIP3   OH262602   1.721   6.031  16.140 -0.2002 -0.3816 -0.0919
13704TIP3    H162603   1.748   6.083  16.216 -0.8793  0.9440 -0.7242
13704TIP3    H262604   1.660   6.087  16.093  2.3323  0.0430 -3.1907
13705TIP3   OH262605   5.273   2.690  15.516  0.1795 -0.2218  0.1639
13705TIP3    H162606   5.190   2.732  15.493 -0.0057  1.3747  3.1796
13705TIP3    H262607   5.255   2.596  15.509 -0.9773  0.1046 -1.8819
13706TIP3   OH262608   3.956   6.055   2.241 -0.0259 -0.1848  0.0660
13706TIP3    H162609   3.896   6.041   2.168  1.2108  2.7866 -1.7035
13706TIP3    H262610   4.022   5.986   2.231 -0.2141 -0.2031 -1.2838
13707TIP3   OH262611   2.259   4.598  14.751 -0.3893 -0.6814 -0.0124
13707TIP3    H162612   2.233   4.612  14.660 -1.4068 -1.6887  0.1114
13707TIP3    H262613   2.179   4.571  14.796  0.6881 -3.3171  0.5021
13708TIP3   OH262614   2.016   4.152   3.112 -0.0563  0.1724 -0.1051
13708TIP3    H162615   2.068   4.217   3.160  1.1879  0.6104 -1.9128
13708TIP3    H262616   1.926   4.169   3.138  0.5748 -0.1191  2.5835
13709TIP3   OH262617   5.268   0.618  14.692  0.0855  0.0030  0.3396
13709TIP3    H162618   5.295   0.607  14.601  1.0261  3.5867  0.0112
13709TIP3    H262619   5.174   0.600  14.692 -0.1827  1.0774 -1.6506
13710TIP3   OH262620   3.142   5.731   5.615 -0.2368 -0.5671  0.0837
13710TIP3    H162621   3.168   5.814   5.576  0.0611 -0.4085  0.6206
13710TIP3    H262622   3.046   5.734   5.616 -0.2838 -0.8164 -1.1606
13711TIP3   OH262623   1.217   0.397  14.018  0.3068  0.0727  0.3333
13711TIP3    H162624   1.209   0.483  13.977 -2.5384 -0.9429 -1.5488
13711TIP3    H262625   1.158   0.401  14.094 -0.5138 -0.4241 -0.2573
13712TIP3   OH262626   4.076   1.369  10.961 -0.0609  0.5549 -0.3356
13712TIP3    H162627   4.030   1.315  11.024  0.1109  1.1691  0.3329
13712TIP3    H262628   4.008   1.423  10.921 -0.1649  0.1897 -0.6605
13713TIP3   OH262629   1.209   3.811   1.256 -0.6282  0.1944 -0.1645
13713TIP3    H162630   1.148   3.850   1.194 -0.9291 -1.3462 -0.8856
13713TIP3    H262631   1.225   3.723   1.222  1.0251  0.1218  0.6903
13714TIP3   OH262632   3.544   6.268  12.732  0.1275 -0.0602  0.0881
13714TIP3    H162633   3.496   6.249  12.652 -0.2122  1.4020 -0.0855
13714TIP3    H262634   3.479   6.259  12.802  0.5284 -1.7826  0.2890
13715TIP3   OH262635   1.892   3.114  11.491 -0.2882  0.4891  0.2147
13715TIP3    H162636   1.833   3.170  11.542 -0.1885  0.2149  0.6370
13715TIP3    H262637   1.908   3.039  11.548 -1.2593 -0.4925 -0.7423
13716TIP3   OH262638   5.733   1.460   6.200 -0.7932  0.6718  0.0186
13716TIP3    H162639   5.729   1.398   6.272  0.3828  0.8209  0.2280
13716TIP3    H262640   5.649   1.507   6.204 -0.9826  0.2798  0.9126
13717TIP3   OH262641   6.039   4.488  16.705 -0.3166  0.0972 -0.5638
13717TIP3    H162642   5.945   4.503  16.707 -0.5432 -1.2166  1.6867
13717TIP3    H262643   6.048   4.396  16.679  0.1677 -0.5079  1.5691
13718TIP3   OH262644   1.608   3.904  11.573  0.9417  0.4027 -0.1963
13718TIP3    H162645   1.602   3.817  11.534 -0.7729  0.3362  0.1667
13718TIP3    H262646   1.640   3.888  11.662 -0.2599  0.0440  0.1811
13719TIP3   OH262647   2.067   1.069   0.820 -0.0508 -0.3099  0.1217
13719TIP3    H162648   2.082   1.158   0.851 -0.0909  0.1672 -1.1499
13719TIP3    H262649   1.975   1.067   0.794 -0.2277 -0.9328  0.7656
13720TIP3   OH262650   6.540   1.488  12.300  0.0211  0.0529 -0.0358
13720TIP3    H162651   6.595   1.432  12.245  0.2804  0.6751 -0.4247
13720TIP3    H262652   6.586   1.492  12.384  0.6879  0.7198 -0.4173
13721TIP3   OH262653   3.429   0.889   0.121 -0.4867  0.1570 -0.1987
13721TIP3    H162654   3.454   0.976   0.153 -0.0274  0.1116 -0.4240
13721TIP3    H262655   3.496   0.831   0.157 -1.2897 -0.2425  0.6852
13722TIP3   OH262656   2.709   3.087  16.121 -0.2852  1.0577  0.8665
13722TIP3    H162657   2.772   3.148  16.083 -0.3659  1.4888  1.4077
13722TIP3    H262658   2.753   3.050  16.197  0.6035 -1.2541 -0.6790
13723TIP3   OH262659   4.487   0.104   1.899 -0.6625  0.4925  0.2930
13723TIP3    H162660   4.560   0.073   1.845  0.1420  0.2287  1.4835
13723TIP3    H262661   4.459   0.186   1.858  1.7523  1.7640  0.9771
13724TIP3   OH262662   5.113   6.052   0.211  0.1835  0.6070  0.6071
13724TIP3    H162663   5.081   5.963   0.223 -0.3652  1.0245  2.7404
13724TIP3    H262664   5.038   6.100   0.174 -0.8934  0.9769  3.0607
13725TIP3   OH262665   6.376   0.239   1.122 -0.0645 -0.2497  0.7097
13725TIP3    H162666   6.391   0.287   1.041 -0.1805 -1.7496 -0.2425
13725TIP3    H262667   6.301   0.182   1.102  0.3335 -1.1308  1.6451
13726TIP3   OH262668   5.049   1.672  14.217  0.1384  0.4450 -0.2044
13726TIP3    H162669   4.998   1.594  14.195  0.7251 -0.2012  0.6590
13726TIP3    H262670   5.023   1.694  14.306  1.2296  0.2080  0.1859
13727TIP3   OH262671   1.647   5.574  13.278 -0.2541 -0.6183 -0.3675
13727TIP3    H162672   1.693   5.625  13.345  0.8172 -0.1425 -1.4286
13727TIP3    H262673   1.684   5.604  13.195  0.3200 -2.9939 -1.0638
13728TIP3   OH262674   3.993   5.395   5.052 -0.4315  0.7524  0.6685
13728TIP3    H162675   3.904   5.372   5.025  0.7114  0.7921 -3.8337
13728TIP3    H262676   3.983   5.479   5.098 -2.6132  1.8792 -1.6327
13729TIP3   OH262677   1.512   1.970   2.627  0.1980 -0.1709  0.0100
13729TIP3    H162678   1.578   1.964   2.697 -0.0149  1.4822  0.4038
13729TIP3    H262679   1.561   1.960   2.546  0.5679 -1.2857  0.3436
13730TIP3   OH262680   0.211   4.473  11.471  0.7283 -0.8100  0.5082
13730TIP3    H162681   0.213   4.448  11.378 -0.9877  0.4730  0.0668
13730TIP3    H262682   0.123   4.507  11.484  0.4731 -2.2016  2.9930
13731TIP3   OH262683   6.069   6.528  14.519 -0.4030  0.8777 -0.0317
13731TIP3    H162684   6.135   6.595  14.535 -0.5971  1.2939 -0.8972
13731TIP3    H262685   6.083   6.463  14.588 -0.8686  2.3017  1.4604
13732TIP3   OH262686   0.062   4.067   6.469  0.3452  0.2675  0.0267
13732TIP3    H162687   0.091   4.017   6.393 -1.1955 -0.4098 -0.1589
13732TIP3    H262688  -0.021   4.106   6.442  0.5797  1.3588  0.8244
13733TIP3   OH262689   3.983   0.857   4.143 -0.0128 -0.2108 -0.0657
13733TIP3    H162690   4.039   0.926   4.175  0.0837 -0.0681 -0.5312
13733TIP3    H262691   3.894   0.891   4.153 -0.0513 -0.6021  1.0604
13734TIP3   OH262692   0.958   6.686   0.485  0.2251 -0.4061  0.0144
13734TIP3    H162693   1.003   6.603   0.502 -0.2998 -0.6393  0.3364
13734TIP3    H262694   0.998   6.720   0.406  0.1066 -1.2272 -0.4156
13735TIP3   OH262695   0.870   4.049   3.537  0.3760 -0.1410 -0.0715
13735TIP3    H162696   0.796   4.067   3.595 -0.0593 -0.2472 -0.5917
13735TIP3    H262697   0.882   4.131   3.488 -0.0635 -0.4682 -0.7264
13736TIP3   OH262698   5.712   1.869   3.199 -0.1587  0.4607 -0.4371
13736TIP3    H162699   5.657   1.816   3.142  0.1626 -0.1472 -0.1876
13736TIP3    H262700   5.801   1.856   3.167  0.1139 -0.4938  0.6531
13737TIP3   OH262701   5.761   2.755   2.866 -0.0250 -0.1464  0.0453
13737TIP3    H162702   5.799   2.724   2.949  3.4774 -0.2457 -1.3983
13737TIP3    H262703   5.797   2.696   2.800  1.0854  2.6131 -1.9955
13738TIP3   OH262704   2.648   6.137  16.327  0.4230  0.2397 -0.1921
13738TIP3    H162705   2.559   6.138  16.294 -0.9899 -2.8435  2.9403
13738TIP3    H262706   2.666   6.228  16.352 -1.7982  0.9331 -0.9417
13739TIP3   OH262707   3.958   2.830  11.347 -0.1225  0.4454  0.5131
13739TIP3    H162708   4.006   2.901  11.390  1.3993 -1.8375  2.8954
13739TIP3    H262709   3.911   2.786  11.418 -2.0968 -0.1982 -1.0872
13740TIP3   OH262710   1.109   3.658  15.579 -1.0784  0.4596  0.2729
13740TIP3    H162711   1.052   3.582  15.570 -2.3650  1.5017 -0.9894
13740TIP3    H262712   1.083   3.716  15.507 -0.2673  2.1644  1.2816
13741TIP3   OH262713   1.476   0.657  10.410 -0.2201 -0.6543  0.0278
13741TIP3    H162714   1.536   0.712  10.360 -1.1522 -0.5720 -1.0416
13741TIP3    H262715   1.513   0.569  10.405  0.2148 -0.4712  0.0255
13742TIP3   OH262716   5.046   3.880   0.533  0.3970  0.1877  0.1410
13742TIP3    H162717   5.123   3.892   0.478  0.9207 -1.7955  0.3907
13742TIP3    H262718   4.985   3.830   0.479  0.4798 -0.8297  0.9689
13743TIP3   OH262719   2.081   2.097   0.343  0.4855  0.8095 -0.0271
13743TIP3    H162720   2.074   2.108   0.438  1.8215  0.0970  0.1827
13743TIP3    H262721   2.035   2.172   0.306 -0.6226  0.7521  1.1725
13744TIP3   OH262722   1.771   4.933   4.839 -0.3145 -0.4475 -0.7425
13744TIP3    H162723   1.772   4.840   4.861 -1.0837 -0.6636 -1.5768
13744TIP3    H262724   1.811   4.976   4.914 -2.7304 -1.1571  1.0594
13745TIP3   OH262725   2.147   0.916   3.043  0.1612  0.6690 -0.3255
13745TIP3    H162726   2.090   0.843   3.018 -0.5424  0.5946  1.4100
13745TIP3    H262727   2.108   0.992   2.999  0.6231  0.1187 -1.7527
13746TIP3   OH262728   5.253   3.312  12.301 -0.2309  0.2327  0.2156
13746TIP3    H162729   5.237   3.313  12.207  0.9757  1.0981 -0.0059
13746TIP3    H262730   5.227   3.400  12.330 -2.3946 -0.6266  1.0436
13747TIP3   OH262731   0.188   6.669  14.596  1.0545  0.3223  0.3928
13747TIP3    H162732   0.251   6.603  14.568  0.9941  0.2738  0.3705
13747TIP3    H262733   0.130   6.680  14.521  0.0586 -0.8042  0.9773
13748TIP3   OH262734   2.468   2.593  16.009 -0.6816 -0.5361  0.2827
13748TIP3    H162735   2.443   2.673  16.054  2.4329 -0.2723  1.8370
13748TIP3    H262736   2.401   2.529  16.033 -2.4481  1.1844  0.1631
13749TIP3   OH262737   5.889   1.951  15.919 -0.1589  0.5653 -0.2861
13749TIP3    H162738   5.934   1.987  15.843 -0.0075  0.7142 -0.1271
13749TIP3    H262739   5.895   1.856  15.909  0.0921  0.5860 -0.3228
13750TIP3   OH262740   5.760   5.930  12.894  0.3983 -0.5046  1.4261
13750TIP3    H162741   5.738   5.845  12.932 -0.0399  0.1677  2.7513
13750TIP3    H262742   5.684   5.985  12.915  1.7146  0.8702  2.8517
13751TIP3   OH262743   3.965   5.193   4.313  0.2633  0.2004 -0.3443
13751TIP3    H162744   4.037   5.164   4.256 -0.8096  0.5639 -1.9632
13751TIP3    H262745   3.964   5.288   4.303 -1.2519  0.1084 -1.4347
13752TIP3   OH262746   0.053   3.509   5.529 -0.5874 -0.3639 -0.5678
13752TIP3    H162747  -0.003   3.582   5.557 -0.6874 -0.6097 -0.1121
13752TIP3    H262748   0.007   3.431   5.560  0.3851 -0.5399  0.5088
13753TIP3   OH262749   1.298   5.049   3.190  0.6271 -0.2454 -0.2891
13753TIP3    H162750   1.278   5.095   3.108  0.8712 -0.3815 -0.4261
13753TIP3    H262751   1.388   5.075   3.210 -0.0865  1.4225  1.0164
13754TIP3   OH262752   4.734   1.309  13.153 -0.3007  0.2725  0.9764
13754TIP3    H162753   4.796   1.326  13.082 -0.1143 -0.9723  0.8257
13754TIP3    H262754   4.648   1.313  13.111 -0.1683 -0.9307  0.5661
13755TIP3   OH262755   6.421   1.946   3.627 -0.0093 -0.0228  0.3097
13755TIP3    H162756   6.346   1.974   3.679 -0.6607 -0.4222 -0.3886
13755TIP3    H262757   6.490   2.009   3.648  0.1340 -0.8040  2.4931
13756TIP3   OH262758   3.573   4.228  17.196  0.1228 -0.5115  0.1667
13756TIP3    H162759   3.510   4.255  17.129  0.7595 -0.0104 -0.2380
13756TIP3    H262760   3.597   4.139  17.173  1.3580  0.1067 -1.0850
13757TIP3   OH262761   6.529   5.252   4.352 -0.1877  0.1857  0.4003
13757TIP3    H162762   6.604   5.277   4.406 -1.2763 -1.0971  2.6984
13757TIP3    H262763   6.504   5.165   4.385  0.6761 -2.0820 -4.0603
13758TIP3   OH262764   5.103   5.599   4.960 -0.1219  0.2699 -0.4096
13758TIP3    H162765   5.073   5.531   4.900  1.3503  0.1698 -1.0812
13758TIP3    H262766   5.168   5.556   5.015 -0.4117  0.7251  0.3125
13759TIP3   OH262767   3.406   2.921  11.571 -0.2933  0.1186 -0.2526
13759TIP3    H162768   3.412   2.889  11.661 -0.3858  2.1531  0.5423
13759TIP3    H262769   3.495   2.948  11.549 -0.0807 -1.2541 -1.1536
13760TIP3   OH262770   3.935   0.537   0.107 -0.4995 -0.1461 -0.1136
13760TIP3    H162771   3.943   0.559   0.014 -0.5159 -0.3254 -0.1584
13760TIP3    H262772   3.911   0.619   0.149  0.0850  0.0679 -0.1853
13761TIP3   OH262773   1.923   3.524   0.123  0.0806  0.2480  0.9528
13761TIP3    H162774   1.843   3.566   0.155 -0.3181 -0.1885  0.5399
13761TIP3    H262775   1.935   3.559   0.035 -0.1639 -0.3903  0.6675
13762TIP3   OH262776   4.617   1.944  11.278 -0.3469  0.0739 -0.1405
13762TIP3    H162777   4.537   1.892  11.288 -0.6176  0.5223  0.0406
13762TIP3    H262778   4.629   1.949  11.183  1.8710 -3.6263 -0.2678
13763TIP3   OH262779   1.411   1.220  12.503 -0.0809  0.1920  0.0388
13763TIP3    H162780   1.365   1.298  12.473 -1.6176 -0.0647  1.5746
13763TIP3    H262781   1.342   1.158  12.523  1.0364 -0.8810  0.6782
13764TIP3   OH262782   6.624   4.614  11.987  0.2560 -0.2448 -0.2168
13764TIP3    H162783   6.555   4.568  12.035 -0.1581  0.6045  0.0274
13764TIP3    H262784   6.590   4.622  11.898 -0.3941  0.9968  0.1215
13765TIP3   OH262785   4.828   6.009  16.001  0.1398  0.1302  0.2679
13765TIP3    H162786   4.741   6.027  16.037 -1.1591 -1.7354 -1.7249
13765TIP3    H262787   4.878   5.975  16.075 -1.6891 -1.3175  0.9069
13766TIP3   OH262788   4.583   6.493  14.443 -0.8337  0.3369 -0.0466
13766TIP3    H162789   4.567   6.409  14.486  1.1256  0.4778  1.0798
13766TIP3    H262790   4.570   6.558  14.513  1.8966  0.6064  0.3261
13767TIP3   OH262791   5.991   2.359   2.544 -0.0284 -0.6007  0.5683
13767TIP3    H162792   6.005   2.264   2.549 -0.7995 -0.7394  0.1593
13767TIP3    H262793   6.064   2.391   2.491  0.1569 -0.9781  0.5886
13768TIP3   OH262794   5.311   5.412  10.468  0.0090  0.0520 -0.3366
13768TIP3    H162795   5.238   5.350  10.469 -1.6209  1.8739 -0.5416
13768TIP3    H262796   5.330   5.427  10.376  0.1018  0.1816 -0.2986
13769TIP3   OH262797   1.800   6.144   5.106 -0.3275  0.2632 -0.0101
13769TIP3    H162798   1.744   6.221   5.092 -1.1034 -0.6622 -2.4287
13769TIP3    H262799   1.863   6.146   5.033  0.6199 -0.5968  0.7483
13770TIP3   OH262800   3.708   2.071  16.429  0.1610 -0.7416  0.1006
13770TIP3    H162801   3.742   2.028  16.350 -1.4432 -2.0882  0.0971
13770TIP3    H262802   3.784   2.118  16.465  1.5287 -2.0598 -0.9238
13771TIP3   OH262803   5.905   1.970  11.006 -0.2030  0.2810  0.1861
13771TIP3    H162804   5.904   1.911  10.931 -0.1162  1.6133 -0.8891
13771TIP3    H262805   5.830   2.027  10.994  0.5057  1.3012  0.4535
13772TIP3   OH262806   5.834   3.523  13.893  0.0175 -1.0048 -0.2108
13772TIP3    H162807   5.884   3.604  13.898  0.9219 -1.6117  1.2179
13772TIP3    H262808   5.747   3.545  13.924 -0.2099 -0.2479 -1.3443
13773TIP3   OH262809   2.746   3.290   1.872 -0.3902  0.1852 -0.1171
13773TIP3    H162810   2.726   3.228   1.943 -1.9844  1.3296  0.4797
13773TIP3    H262811   2.710   3.250   1.794  0.4306 -0.5826 -0.1268
13774TIP3   OH262812   2.747   6.533  15.585  0.3594 -0.2020 -0.3951
13774TIP3    H162813   2.820   6.514  15.527  0.3832  2.2158 -1.3004
13774TIP3    H262814   2.784   6.592  15.651 -0.2190 -0.9915  0.6556
13775TIP3   OH262815   4.663   0.864   3.141  0.1844 -0.6065  0.2242
13775TIP3    H162816   4.585   0.915   3.121  1.0848 -0.1310 -2.5640
13775TIP3    H262817   4.734   0.909   3.093  2.2797 -0.8159  2.8952
13776TIP3   OH262818   1.978   2.714   2.728  0.9793  0.2533  0.0639
13776TIP3    H162819   2.017   2.638   2.772  0.2156 -0.3399 -0.2649
13776TIP3    H262820   2.033   2.788   2.755  0.2265  0.0209  2.4681
13777TIP3   OH262821   2.745   0.384   4.548  0.0223  0.4677  0.7635
13777TIP3    H162822   2.753   0.406   4.641  1.4458  0.7882  0.5844
13777TIP3    H262823   2.680   0.446   4.515  0.5937  1.3439  1.2387
13778TIP3   OH262824   1.249   3.582  11.398 -0.0499 -0.4765  0.2984
13778TIP3    H162825   1.220   3.582  11.307  0.0979  0.8819  0.2435
13778TIP3    H262826   1.170   3.560  11.448 -0.6846  0.9632 -0.0133
13779TIP3   OH262827   5.362   5.290  13.472 -0.0838  0.3088 -0.4525
13779TIP3    H162828   5.356   5.195  13.467 -2.1628  0.3899 -0.5779
13779TIP3    H262829   5.449   5.311  13.439  0.4122 -1.5348 -0.4127
13780TIP3   OH262830   5.277   1.424  16.604  0.2036 -0.4801 -0.3197
13780TIP3    H162831   5.369   1.430  16.578  0.0379 -0.8274 -1.0101
13780TIP3    H262832   5.260   1.330  16.610  0.0911 -0.4188  0.5664
13781TIP3   OH262833   6.695   0.251   0.412 -0.6346 -0.4284 -0.0478
13781TIP3    H162834   6.632   0.189   0.375  0.7791 -1.7647 -0.3029
13781TIP3    H262835   6.642   0.310   0.466 -1.9396 -2.2697  0.7640
13782TIP3   OH262836   5.520   1.605   1.496  0.1872 -0.3758  0.4590
13782TIP3    H162837   5.432   1.577   1.523  0.8376 -2.1371  0.8998
13782TIP3    H262838   5.509   1.697   1.472 -1.5412 -0.2092  1.6339
13783TIP3   OH262839   0.771   5.342  12.308  0.3650  0.6689 -0.0223
13783TIP3    H162840   0.840   5.282  12.279 -0.6838 -0.3127 -0.5374
13783TIP3    H262841   0.813   5.394  12.377  2.1202  1.2397 -1.4007
13784TIP3   OH262842   3.876   3.429   3.190 -0.0446  0.0370 -0.9680
13784TIP3    H162843   3.879   3.402   3.098  1.5764 -1.0268 -0.6314
13784TIP3    H262844   3.858   3.523   3.186 -0.4785 -0.0750 -2.3410
13785TIP3   OH262845   4.961   4.854   0.771 -0.3807  0.1663  0.0353
13785TIP3    H162846   4.867   4.847   0.753 -0.2058 -0.1441 -0.8081
13785TIP3    H262847   4.993   4.764   0.762 -0.1561  0.1110  1.2643
13786TIP3   OH262848   1.276   4.566  12.253  0.3768  0.4769 -0.4747
13786TIP3    H162849   1.195   4.546  12.206 -0.4069  1.8362  0.2433
13786TIP3    H262850   1.283   4.496  12.318 -1.7096  1.7122  1.2373
13787TIP3   OH262851   0.098   4.384   5.229  0.3801  0.4062  0.1159
13787TIP3    H162852   0.110   4.398   5.135 -1.5571 -2.2458 -0.6474
13787TIP3    H262853   0.095   4.289   5.239  0.9447  0.5842  2.9716
13788TIP3   OH262854   5.465   1.497  14.249  0.2797  0.4866  0.5165
13788TIP3    H162855   5.405   1.526  14.181 -0.2619  2.5475  1.7594
13788TIP3    H262856   5.413   1.436  14.302 -0.0104  0.5540  0.3135
13789TIP3   OH262857   5.670   6.389   0.659  0.1874 -0.2027  0.1529
13789TIP3    H162858   5.673   6.361   0.751  2.7828 -0.7871 -0.0272
13789TIP3    H262859   5.686   6.309   0.609  4.1881  0.7855 -0.5031
13790TIP3   OH262860   6.208   6.742   5.922  0.1579  0.2355  0.3648
13790TIP3    H162861   6.285   6.731   5.977  1.6189  2.7685 -0.9819
13790TIP3    H262862   6.135   6.749   5.984  1.4103  0.6053  1.8659
13791TIP3   OH262863   2.419   4.246  12.831  0.1057  0.1710  0.4950
13791TIP3    H162864   2.374   4.329  12.846 -1.3594 -0.2077 -1.4197
13791TIP3    H262865   2.399   4.224  12.740  0.8098 -2.0809  0.8218
13792TIP3   OH262866   5.443   3.480  17.143  0.0009  0.2455  0.2807
13792TIP3    H162867   5.489   3.424  17.205 -2.4836 -0.9485  1.1694
13792TIP3    H262868   5.410   3.553  17.196 -0.4969  0.2328 -0.0024
13793TIP3   OH262869   1.633   1.726  15.860 -0.5072  0.2108  0.2460
13793TIP3    H162870   1.678   1.677  15.929 -1.6862  0.3893  1.1626
13793TIP3    H262871   1.541   1.706  15.873 -0.8810  1.5187 -0.2980
13794TIP3   OH262872   6.659   4.496  12.375  0.3741 -0.5033  0.0994
13794TIP3    H162873   6.634   4.419  12.325 -0.8845  0.3390 -0.6345
13794TIP3    H262874   6.743   4.523  12.338  0.0628 -0.6256 -0.7239
13795TIP3   OH262875   5.724   2.053   0.918  0.2876  0.2673  0.0181
13795TIP3    H162876   5.698   1.972   0.963  0.2097  0.5108  0.4121
13795TIP3    H262877   5.751   2.112   0.988  0.8232  0.4135 -0.3093
13796TIP3   OH262878   5.440   1.911   0.073  0.0345  0.0442 -0.1191
13796TIP3    H162879   5.480   1.927   0.158  0.5365  0.0670 -0.3582
13796TIP3    H262880   5.497   1.846   0.031 -1.5470 -1.8630  0.5355
13797TIP3   OH262881   2.196   2.698   5.321 -0.1014  0.2845 -0.5136
13797TIP3    H162882   2.283   2.666   5.297 -0.5415 -0.7047 -0.8511
13797TIP3    H262883   2.152   2.621   5.357 -0.8871  0.7487 -0.4677
13798TIP3   OH262884   1.554   3.310   2.754 -0.3342 -0.2940  0.5748
13798TIP3    H162885   1.477   3.345   2.710 -0.4035 -2.0778 -0.8387
13798TIP3    H262886   1.627   3.332   2.697  0.0834  0.4134  1.3538
13799TIP3   OH262887   6.673   2.419  14.392 -0.1940 -0.9097 -0.2346
13799TIP3    H162888   6.765   2.443  14.384 -0.2630  0.3904  2.0196
13799TIP3    H262889   6.627   2.503  14.390 -1.2104 -1.4500 -0.1030
13800TIP3   OH262890   1.656   0.808  13.082 -0.1978  0.1363 -0.0319
13800TIP3    H162891   1.589   0.849  13.028  0.5634  0.3810 -0.8099
13800TIP3    H262892   1.738   0.848  13.053  0.2833 -0.1059  0.9512
13801TIP3   OH262893   0.707   1.818   1.433 -0.1988 -0.0900 -0.0791
13801TIP3    H162894   0.784   1.831   1.489  0.4546  0.4641 -1.0741
13801TIP3    H262895   0.649   1.891   1.456  0.9313  1.3241 -1.4938
13802TIP3   OH262896   6.659   5.729   3.968  0.0263 -0.1114 -0.1440
13802TIP3    H162897   6.710   5.705   4.046  0.4227  0.8435 -0.0978
13802TIP3    H262898   6.720   5.779   3.914 -0.5873  0.2166 -0.5418
13803TIP3   OH262899   0.283   1.962   4.039  0.2359  0.3636 -0.0487
13803TIP3    H162900   0.195   1.991   4.066  0.9156  0.5981  2.0913
13803TIP3    H262901   0.308   2.024   3.970  0.1414  2.6433  1.8232
13804TIP3   OH262902   1.876   3.338   3.906  0.9793 -0.0260 -0.3436
13804TIP3    H162903   1.798   3.335   3.851  1.5887 -0.5054 -1.1985
13804TIP3    H262904   1.887   3.248   3.937 -0.2143  0.5062  1.8278
13805TIP3   OH262905   4.019   1.517  16.556 -0.1736  0.1736  0.1346
13805TIP3    H162906   4.064   1.440  16.591 -1.2785 -0.6202 -0.1258
13805TIP3    H262907   3.970   1.553  16.630  0.7449  0.9537  0.3828
13806TIP3   OH262908   1.302   1.706   2.181 -0.4081  0.0723  0.1008
13806TIP3    H162909   1.218   1.752   2.173  0.0771  0.7764 -1.3968
13806TIP3    H262910   1.348   1.752   2.251 -0.6682  0.6801 -0.1215
13807TIP3   OH262911   5.130   3.077   3.775 -0.3815 -0.0486 -0.3234
13807TIP3    H162912   5.034   3.072   3.776 -0.3718 -0.1590  0.8875
13807TIP3    H262913   5.149   3.128   3.696 -1.4276 -0.1761 -0.6834
13808TIP3   OH262914   5.109   1.802   3.475  0.0184  0.1302  0.1179
13808TIP3    H162915   5.181   1.811   3.414  0.7078 -1.4617  0.6513
13808TIP3    H262916   5.134   1.857   3.550 -0.3101  1.1948 -0.5348
13809TIP3   OH262917   3.140   2.825   0.170 -0.0491 -0.2059 -0.4735
13809TIP3    H162918   3.130   2.913   0.206 -1.0698 -0.1455 -0.8879
13809TIP3    H262919   3.235   2.809   0.171  0.3143  1.5592 -2.0072
13810TIP3   OH262920   5.640   3.855   0.615 -0.5376  0.0120 -0.3995
13810TIP3    H162921   5.607   3.878   0.702  1.0578 -0.6028  0.4205
13810TIP3    H262922   5.607   3.766   0.599 -0.4080 -0.0783 -0.1755
13811TIP3   OH262923   4.290   5.822  14.297  0.4116  0.2689 -0.3312
13811TIP3    H162924   4.231   5.777  14.358  0.6746 -0.4118 -0.5659
13811TIP3    H262925   4.324   5.896  14.346  0.8118 -0.4078  0.4450
13812TIP3   OH262926   4.226   0.658  13.005  0.4453 -0.0418 -0.3951
13812TIP3    H162927   4.132   0.676  13.000  0.3669 -0.5276 -0.7705
13812TIP3    H262928   4.263   0.736  13.046 -0.1159  0.1758 -0.2886
13813TIP3   OH262929   6.312   3.335   3.916  0.2447  0.1350 -0.1754
13813TIP3    H162930   6.321   3.430   3.928  0.9662  0.1609 -0.8358
13813TIP3    H262931   6.320   3.299   4.004 -1.4068  0.7703  0.2755
13814TIP3   OH262932   3.459   4.719  16.301  0.1386  0.1100 -0.1496
13814TIP3    H162933   3.365   4.737  16.302  0.1307  0.2302  1.6934
13814TIP3    H262934   3.498   4.795  16.345  1.3717  1.1403 -2.8469
13815TIP3   OH262935   1.201   4.249  14.840  0.2655  0.2997 -0.4866
13815TIP3    H162936   1.176   4.192  14.912  0.3117  0.4601 -0.3415
13815TIP3    H262937   1.128   4.310  14.831 -1.9432 -2.4219 -3.5494
13816TIP3   OH262938   5.129   0.522   3.404  0.0915 -0.0804 -0.5191
13816TIP3    H162939   5.118   0.603   3.453 -2.8888 -0.8429  0.2552
13816TIP3    H262940   5.200   0.476   3.449 -2.1174 -0.4973  2.8893
13817TIP3   OH262941   4.677   2.721  16.455 -0.0253  0.3261  0.2868
13817TIP3    H162942   4.724   2.640  16.473  0.3905  0.7817  1.3080
13817TIP3    H262943   4.745   2.783  16.427 -0.5080 -0.0442 -1.9274
13818TIP3   OH262944   2.208   5.742  15.004  0.7176  0.6438  0.1112
13818TIP3    H162945   2.200   5.812  15.070 -2.5094 -0.4614  1.1129
13818TIP3    H262946   2.178   5.664  15.050 -1.3209 -0.2561 -2.5399
13819TIP3   OH262947   0.909   0.225   1.033  0.0909 -0.1685  0.0630
13819TIP3    H162948   0.915   0.132   1.013 -0.4891  0.0004 -0.9757
13819TIP3    H262949   0.929   0.231   1.127 -0.1551 -1.3613  0.2079
13820TIP3   OH262950   4.709   2.413  12.239  1.3486 -0.5199 -0.4176
13820TIP3    H162951   4.716   2.395  12.333 -0.7507 -0.5102 -0.2063
13820TIP3    H262952   4.736   2.331  12.198  0.4790 -1.1859  0.2808
13821TIP3   OH262953   2.018   1.999  14.739 -0.3158  0.0049 -0.1803
13821TIP3    H162954   2.083   1.964  14.801 -1.4236 -1.6862  0.1026
13821TIP3    H262955   2.067   2.059  14.684  1.2342 -0.3326  0.7677
13822TIP3   OH262956   4.984   0.383  11.147 -0.0776  0.0487 -0.1789
13822TIP3    H162957   4.890   0.394  11.164  0.2454  0.8917  1.2797
13822TIP3    H262958   5.012   0.467  11.112 -0.1777 -0.7931 -2.4453
13823TIP3   OH262959   6.103   5.308  16.662  0.4245 -0.0118 -0.0227
13823TIP3    H162960   6.096   5.249  16.737  1.3174  2.3374  2.0614
13823TIP3    H262961   6.196   5.309  16.641  0.4070  0.5650 -0.0967
13824TIP3   OH262962   0.705   6.362   6.813 -0.2702  0.3746 -0.0012
13824TIP3    H162963   0.681   6.455   6.814 -0.3091  0.3573  0.5834
13824TIP3    H262964   0.659   6.324   6.888  2.1618  0.4838  1.6604
13825TIP3   OH262965   4.776   3.307   1.192  0.4254 -0.5428 -0.2237
13825TIP3    H162966   4.860   3.313   1.148  0.3089 -1.5650 -0.6074
13825TIP3    H262967   4.716   3.356   1.136  0.8146  0.5300  0.2514
13826TIP3   OH262968   2.582   4.655   1.860 -0.4495 -0.6234 -0.8696
13826TIP3    H162969   2.656   4.635   1.917  0.9892  0.7580 -2.1532
13826TIP3    H262970   2.551   4.569   1.830  0.2657 -1.2447  0.1170
13827TIP3   OH262971   5.005   2.607  15.383  0.1358 -0.2364  0.3936
13827TIP3    H162972   4.914   2.588  15.403 -0.2774  1.1503 -0.0724
13827TIP3    H262973   5.007   2.623  15.289  1.0075 -1.0229  0.2653
13828TIP3   OH262974   0.747   0.188   5.912  0.3811  0.1083  0.3491
13828TIP3    H162975   0.713   0.269   5.951 -2.0856 -0.7797  0.2333
13828TIP3    H262976   0.751   0.126   5.985 -0.2789 -0.3827 -0.0177
13829TIP3   OH262977   4.708   3.490   0.957 -0.7029  0.6043  0.1228
13829TIP3    H162978   4.620   3.490   0.994 -1.8606  0.9050 -2.4166
13829TIP3    H262979   4.701   3.544   0.878  1.6787  0.3278 -0.3557
13830TIP3   OH262980   6.137   0.847  12.652  0.1373 -0.0260 -0.2391
13830TIP3    H162981   6.123   0.773  12.593  1.0161  0.8179 -1.5662
13830TIP3    H262982   6.060   0.903  12.638 -0.1444 -0.2979  0.1847
13831TIP3   OH262983   4.083   2.623   2.532  0.5147 -0.5929  0.1784
13831TIP3    H162984   4.109   2.682   2.603  0.6817 -2.0765  1.3950
13831TIP3    H262985   3.992   2.646   2.513  0.5619  0.0072  0.6639
13832TIP3   OH262986   1.019   2.362   4.409 -0.0075 -0.0916  0.0555
13832TIP3    H162987   0.940   2.371   4.462 -0.0336  0.0107 -0.0022
13832TIP3    H262988   1.011   2.276   4.368  0.6444 -0.7589  1.2789
13833TIP3   OH262989   5.236   5.088  11.744 -0.0608 -0.2948  0.2114
13833TIP3    H162990   5.160   5.137  11.775  0.0716 -0.9727  1.6796
13833TIP3    H262991   5.198   5.016  11.693 -0.2913  0.6199 -0.9676
13834TIP3   OH262992   0.913   5.210  15.029  0.4334 -0.2006  0.0436
13834TIP3    H162993   0.862   5.136  14.997 -2.7874  0.8644  2.1684
13834TIP3    H262994   1.004   5.180  15.029 -0.6668 -3.9929  0.4474
13835TIP3   OH262995   4.429   6.387  12.479 -0.3021 -0.7054 -0.1680
13835TIP3    H162996   4.512   6.385  12.432  0.4547  1.1000  0.9887
13835TIP3    H262997   4.373   6.326  12.431  0.9803 -0.3012 -2.3226
13836TIP3   OH262998   5.732   6.468  11.487 -0.1073  0.0110 -0.3358
13836TIP3    H162999   5.778   6.524  11.550 -1.2595  1.5244 -0.7744
13836TIP3    H263000   5.755   6.379  11.512  1.3259  0.6480  0.7624
13837TIP3   OH263001   3.548   5.699  10.990 -0.5392  0.0439  0.4238
13837TIP3    H163002   3.526   5.679  10.899  0.9106  0.0381  0.0392
13837TIP3    H263003   3.499   5.779  11.010  1.2676  1.7392 -1.3598
13838TIP3   OH263004   2.773   5.848   0.906  0.7041  0.3471  0.5949
13838TIP3    H163005   2.764   5.936   0.944  2.1634  1.3373 -1.1715
13838TIP3    H263006   2.698   5.799   0.940 -0.5620  2.4789  1.0675
13839TIP3   OH263007   2.224   1.085  11.527  0.9203  0.1027  0.2078
13839TIP3    H163008   2.234   1.151  11.458  1.2594 -0.6696 -0.4948
13839TIP3    H263009   2.186   1.009  11.483  0.5512 -0.1863  1.0060
13840TIP3   OH263010   1.346   0.413  16.553  0.0704  0.4488  0.1488
13840TIP3    H163011   1.322   0.370  16.635 -1.0373 -0.9606 -0.8472
13840TIP3    H263012   1.272   0.394  16.495  1.9453 -0.8720 -1.9675
13841TIP3   OH263013   5.000   0.772   5.674 -0.3150  0.3778 -0.5897
13841TIP3    H163014   4.954   0.699   5.633  1.8347 -0.4837 -1.6573
13841TIP3    H263015   4.933   0.818   5.724 -1.7488 -2.4405  0.3313
13842TIP3   OH263016   2.464   0.939   2.753  0.0779  0.7047 -0.7293
13842TIP3    H163017   2.481   0.869   2.815 -0.6278  0.4849 -0.7765
13842TIP3    H263018   2.402   0.996   2.797  0.7809  1.4020 -0.6246
13843TIP3   OH263019   4.439   4.959  17.084  0.3228 -0.5217 -0.2425
13843TIP3    H163020   4.366   4.986  17.138  0.5449 -1.2092  0.4190
13843TIP3    H263021   4.489   5.039  17.068 -1.6982  0.4088 -2.5440
13844TIP3   OH263022   4.386   1.206   6.650  0.1077  0.5799  0.3374
13844TIP3    H163023   4.443   1.203   6.574 -3.1300 -2.1972 -2.3428
13844TIP3    H263024   4.390   1.117   6.686 -2.5615  0.1582 -0.1787
13845TIP3   OH263025   1.687   3.007   1.293  0.5027 -0.1695 -0.7324
13845TIP3    H163026   1.597   2.976   1.304  0.7088 -1.5432 -2.4636
13845TIP3    H263027   1.695   3.080   1.354 -1.9160  0.2618 -0.8404
13846TIP3   OH263028   3.652   6.035   4.238 -0.4231  0.8328  0.0893
13846TIP3    H163029   3.562   6.059   4.258  0.0459  2.7678  0.0267
13846TIP3    H263030   3.675   6.088   4.162  0.6341  0.0244 -0.1827
13847TIP3   OH263031   4.617   5.179  11.516  0.0594  0.3610 -0.1395
13847TIP3    H163032   4.677   5.226  11.574 -0.0100  0.1898  0.0723
13847TIP3    H263033   4.658   5.185  11.429  1.5742 -1.7081  0.3689
13848TIP3   OH263034   3.175   0.956   3.829  0.1677  0.1865  0.5026
13848TIP3    H163035   3.152   0.908   3.749  2.8991 -0.2135 -0.1532
13848TIP3    H263036   3.192   1.045   3.799 -0.7437  0.5482  1.0145
13849TIP3   OH263037   2.228   1.485   3.926 -0.0111  0.0922  0.5136
13849TIP3    H163038   2.230   1.464   4.019 -0.0960 -3.0557 -0.0875
13849TIP3    H263039   2.199   1.404   3.884 -0.6063  1.6070 -2.2194
13850TIP3   OH263040   3.368   2.238  14.950  0.0421 -0.2813 -0.0803
13850TIP3    H163041   3.345   2.165  15.008 -0.7823  1.0160  1.3079
13850TIP3    H263042   3.284   2.273  14.920  0.3751  0.7904  0.1882
13851TIP3   OH263043   5.265   4.558   5.373  0.2710 -0.3467 -0.1845
13851TIP3    H163044   5.194   4.588   5.430 -0.0508 -0.7953 -0.3520
13851TIP3    H263045   5.284   4.633   5.317 -0.2114 -0.2992 -0.2841
13852TIP3   OH263046   3.258   5.979   5.515 -0.2306  0.1246 -0.1113
13852TIP3    H163047   3.194   5.998   5.446 -0.4864  4.5656  1.0667
13852TIP3    H263048   3.337   6.024   5.488  0.7361 -0.8694  0.9641
13853TIP3   OH263049   2.567   4.809  11.476 -0.2037 -0.0469 -0.0566
13853TIP3    H163050   2.532   4.873  11.538  0.1021 -0.2943  0.3811
13853TIP3    H263051   2.588   4.860  11.398 -0.6512  0.2587  0.0150
13854TIP3   OH263052   1.485   4.756   2.155 -0.2921  0.5760  0.0675
13854TIP3    H163053   1.450   4.842   2.179 -1.1612  0.0290  0.8244
13854TIP3    H263054   1.439   4.732   2.075 -0.2965  0.6728  0.0420
13855TIP3   OH263055   0.040   5.138   0.837 -0.2924  0.1499  0.6770
13855TIP3    H163056  -0.022   5.112   0.905 -0.1290 -2.6066 -0.0845
13855TIP3    H263057  -0.011   5.137   0.756  0.3270 -0.5312  0.2709
13856TIP3   OH263058   4.751   3.578   2.582 -0.6016  0.6531  0.1550
13856TIP3    H163059   4.748   3.666   2.620  0.7663  0.5979  0.4359
13856TIP3    H263060   4.692   3.583   2.506 -1.4413  1.4707  0.8361
13857TIP3   OH263061   2.744   1.674   5.268 -0.5782 -0.0798  0.0865
13857TIP3    H163062   2.800   1.674   5.190 -0.1455  0.6174  0.3947
13857TIP3    H263063   2.657   1.652   5.234 -0.0878 -1.4133 -0.3639
13858TIP3   OH263064   2.964   6.343   2.739  0.6045  0.6290  0.4822
13858TIP3    H163065   2.967   6.247   2.744 -0.9002  0.3577 -1.9570
13858TIP3    H263066   3.055   6.370   2.747  1.2266 -1.1334 -0.0901
13859TIP3   OH263067   2.790   3.994  12.719  0.4542  0.3288  0.7585
13859TIP3    H163068   2.793   3.986  12.815  0.9909 -1.7281  0.6193
13859TIP3    H263069   2.860   4.055  12.698  0.9880  0.0385  1.6354
13860TIP3   OH263070   2.941   6.683   1.929 -0.5459 -0.0940 -0.2264
13860TIP3    H163071   2.973   6.658   1.843  0.2214 -0.0176  0.0325
13860TIP3    H263072   3.002   6.751   1.959 -0.7285 -0.2109  0.4310
13861TIP3   OH263073   1.691   6.244  12.075  0.3571  1.0674 -0.0543
13861TIP3    H163074   1.611   6.193  12.090 -0.3624  2.0359 -0.4748
13861TIP3    H263075   1.706   6.238  11.980  0.7917  0.8800  0.0243
13862TIP3   OH263076   6.509   3.525  14.105 -0.2121  0.7861 -0.4779
13862TIP3    H163077   6.438   3.538  14.041 -0.4710  0.1444 -0.3304
13862TIP3    H263078   6.579   3.484  14.055 -0.1731  0.8720 -0.4936
13863TIP3   OH263079   4.061   3.509   3.477  0.2434  0.2568 -0.2989
13863TIP3    H163080   4.065   3.457   3.397 -2.8731  0.3593 -0.6700
13863TIP3    H263081   4.036   3.446   3.545 -0.5425  0.7220 -0.1412
13864TIP3   OH263082   1.343   5.010  12.056  0.0256  0.8713  0.3115
13864TIP3    H163083   1.400   4.969  12.120 -0.8168 -1.1269 -0.1537
13864TIP3    H263084   1.262   4.958  12.058 -0.7055  1.8683 -1.0714
13865TIP3   OH263085   3.535   4.447  16.405 -0.1519  0.0218 -0.2883
13865TIP3    H163086   3.569   4.473  16.491  0.1752  0.0941 -0.4342
13865TIP3    H263087   3.476   4.518  16.380 -1.6415 -0.8266  0.6554
13866TIP3   OH263088   1.842   0.087  12.044  0.2940  0.6854  0.4894
13866TIP3    H163089   1.826   0.168  11.996 -0.3437 -0.1470 -0.7753
13866TIP3    H263090   1.767   0.079  12.103  0.1750  0.8425  0.3614
13867TIP3   OH263091   1.016   0.720   4.514 -0.3798 -0.0916 -0.0437
13867TIP3    H163092   1.001   0.801   4.465  2.4439  1.3040  1.1462
13867TIP3    H263093   1.111   0.708   4.511 -0.6902 -3.6288 -0.4658
13868TIP3   OH263094   0.418   4.415   3.120 -0.3810  0.0418 -0.2964
13868TIP3    H163095   0.480   4.432   3.191  1.1447 -2.0594 -1.0059
13868TIP3    H263096   0.391   4.325   3.133 -2.9177  0.7289 -0.3709
13869TIP3   OH263097   3.318   1.953   4.993  0.4786  0.2790 -0.3483
13869TIP3    H163098   3.303   2.001   4.911  0.4790  3.6992  1.4654
13869TIP3    H263099   3.402   1.985   5.024 -0.2469  0.3121  1.7371
13870TIP3   OH263100   6.343   5.589   2.134 -0.4678 -0.0186  0.0406
13870TIP3    H163101   6.303   5.502   2.126 -0.6677  0.2368 -2.7059
13870TIP3    H263102   6.284   5.647   2.086  0.9557  1.1671 -0.3523
13871TIP3   OH263103   0.393   6.709  12.256  0.0689  0.3531 -0.2069
13871TIP3    H163104   0.379   6.637  12.317  0.3900  1.0368  0.6934
13871TIP3    H263105   0.485   6.732  12.266  0.1034  0.5330 -0.8905
13872TIP3   OH263106   5.091   3.545   5.597  0.7118 -0.6251 -0.4170
13872TIP3    H163107   5.001   3.563   5.625  0.7575  1.9651 -1.6067
13872TIP3    H263108   5.145   3.593   5.659  1.0654  0.4976 -1.5408
13873TIP3   OH263109   4.522   3.125   0.217  0.0830  0.0892 -0.3851
13873TIP3    H163110   4.523   3.076   0.300 -2.2332  0.2727 -0.1691
13873TIP3    H263111   4.607   3.108   0.178  0.5905 -1.4155  1.2285
13874TIP3   OH263112   6.331   2.712   3.228  0.0213  0.2241  0.4587
13874TIP3    H163113   6.272   2.638   3.218 -0.3791  0.5596  0.2881
13874TIP3    H263114   6.320   2.762   3.147  1.9230 -0.6730 -0.4012
13875TIP3   OH263115   3.653   6.689   5.163 -1.0242 -0.1355  0.2615
13875TIP3    H163116   3.645   6.695   5.258  0.9858  0.0509  0.4515
13875TIP3    H263117   3.612   6.769   5.130 -2.6957 -0.6935  0.8600
13876TIP3   OH263118   6.501   4.992   4.122  0.4012 -0.1831  0.3689
13876TIP3    H163119   6.511   5.040   4.204 -1.0383  0.1378  0.3747
13876TIP3    H263120   6.553   4.913   4.135  0.5392  0.0624  1.4317
13877TIP3   OH263121   1.431   4.901   1.762  0.4553 -0.7977 -0.2599
13877TIP3    H163122   1.463   4.846   1.690  1.3348 -1.1373  0.3683
13877TIP3    H263123   1.418   4.840   1.834  0.7685 -0.2895  0.2364
13878TIP3   OH263124   0.713   4.661  16.771 -0.3067 -0.3769  0.1424
13878TIP3    H163125   0.794   4.664  16.720  0.0636  0.9277  0.7558
13878TIP3    H263126   0.684   4.570  16.765 -0.6534 -0.1486 -2.9469
13879TIP3   OH263127   4.635   6.559  14.779  0.7913  0.1128 -0.0209
13879TIP3    H163128   4.589   6.615  14.842 -0.2550 -0.8843  0.1447
13879TIP3    H263129   4.583   6.478  14.776  1.6564 -0.4404 -1.0526
13880TIP3   OH263130   2.491   4.679  14.463  0.0295 -0.2248 -0.5189
13880TIP3    H163131   2.477   4.597  14.416 -0.8658 -0.4983  0.1919
13880TIP3    H263132   2.435   4.742  14.418  1.8897  0.4373 -2.0674
13881TIP3   OH263133   6.234   3.559  13.395  0.2501 -0.1256 -0.5796
13881TIP3    H163134   6.328   3.571  13.386  0.1699 -0.2918 -1.8127
13881TIP3    H263135   6.212   3.600  13.479  1.5441 -0.8985  0.1590
13882TIP3   OH263136   4.113   4.106  15.411  0.1480  0.2893 -0.0651
13882TIP3    H163137   4.142   4.104  15.320  2.0380  2.1161  0.4097
13882TIP3    H263138   4.194   4.118  15.461 -0.8480 -0.6830  1.8662
13883TIP3   OH263139   3.717   3.140   0.740  0.2422 -0.9739  0.1619
13883TIP3    H163140   3.679   3.074   0.682 -2.6404  1.5293 -1.0714
13883TIP3    H263141   3.657   3.144   0.815 -0.3088  0.8929 -0.3112
13884TIP3   OH263142   5.482   2.085   2.308 -0.0601  0.2785  0.0962
13884TIP3    H163143   5.561   2.056   2.264 -0.5265  0.0465 -0.6133
13884TIP3    H263144   5.488   2.048   2.396  0.5583  0.1641  0.0070
13885TIP3   OH263145   6.341   3.038   4.482  0.3763  0.1860  0.2623
13885TIP3    H163146   6.248   3.034   4.460  0.2629  0.1136  0.7341
13885TIP3    H263147   6.344   3.087   4.565  0.6081 -1.1140  1.0520
13886TIP3   OH263148   2.234   4.059   5.447  0.7171  0.3323 -0.1218
13886TIP3    H163149   2.243   4.100   5.533  0.2931  0.4122 -0.1135
13886TIP3    H263150   2.293   3.983   5.450  0.5088  0.1837  0.3347
13887TIP3   OH263151   3.863   2.852   4.165 -0.1392  0.8524 -0.0975
13887TIP3    H163152   3.815   2.778   4.129 -0.6426 -0.0461  2.2624
13887TIP3    H263153   3.948   2.849   4.121 -1.4343  1.2786 -2.8897
13888TIP3   OH263154   6.623   4.477   0.861  0.2839  0.1140  0.0350
13888TIP3    H163155   6.558   4.409   0.880 -0.4707  1.3064  2.0195
13888TIP3    H263156   6.596   4.512   0.776 -2.0562  0.9088  1.0057
13889TIP3   OH263157   4.624   5.437   3.801 -0.0680 -0.1121  0.1299
13889TIP3    H163158   4.684   5.373   3.764  0.9180  0.7525  0.1687
13889TIP3    H263159   4.616   5.413   3.893  0.5609 -0.0039  0.2200
13890TIP3   OH263160   2.895   0.255   0.074 -0.1872  0.3054  0.3494
13890TIP3    H163161   2.873   0.348   0.084 -1.6901 -0.0452  0.6781
13890TIP3    H263162   2.967   0.241   0.135 -0.2104  1.1818  0.5975
13891TIP3   OH263163   4.632   1.876   6.304 -0.1715 -0.0343  0.3568
13891TIP3    H163164   4.546   1.886   6.263 -1.0103 -0.4458  1.9614
13891TIP3    H263165   4.687   1.842   6.233 -1.3342  0.1298 -0.6732
13892TIP3   OH263166   0.392   6.229  16.794  0.1998 -0.4330 -0.3099
13892TIP3    H163167   0.314   6.265  16.837  0.2338 -0.1142 -0.5154
13892TIP3    H263168   0.366   6.140  16.769 -0.3223 -0.1109 -0.9519
13893TIP3   OH263169   1.089   1.814   0.774  0.0279 -0.5768 -0.4301
13893TIP3    H163170   1.040   1.736   0.803 -0.1435 -0.2543  0.1751
13893TIP3    H263171   1.180   1.794   0.797 -0.1772 -0.0978  0.8818
13894TIP3   OH263172   2.219   0.567  16.799 -0.7488  0.5829  0.1437
13894TIP3    H163173   2.183   0.573  16.710  0.4573  0.2067 -0.3884
13894TIP3    H263174   2.201   0.652  16.838 -1.7182  0.5883 -0.2833
13895TIP3   OH263175   6.623   4.390   5.199 -0.2005 -0.5098 -0.7053
13895TIP3    H163176   6.717   4.379   5.190 -0.1293  0.7884 -1.7698
13895TIP3    H263177   6.613   4.446   5.277 -0.1503 -1.3222 -0.1047
13896TIP3   OH263178   5.826   5.221  12.703  0.1104 -0.4712 -0.0015
13896TIP3    H163179   5.868   5.192  12.784  0.6141 -0.7910 -0.3735
13896TIP3    H263180   5.733   5.228  12.726  0.1953 -0.9128  0.5024
13897TIP3   OH263181   2.062   6.213   1.453  0.0904 -0.3875  0.4091
13897TIP3    H163182   2.077   6.120   1.467 -1.0599 -0.6337  0.1046
13897TIP3    H263183   1.967   6.223   1.453  0.1531  0.5569 -0.9972
13898TIP3   OH263184   1.903   4.310  15.032 -0.2263 -0.1016  0.4090
13898TIP3    H163185   1.962   4.253  14.983 -0.7310 -0.7914  0.5853
13898TIP3    H263186   1.960   4.357  15.093  0.5046  1.2648 -1.2623
13899TIP3   OH263187   6.751   3.962   0.623  0.0857  0.0225 -0.3249
13899TIP3    H163188   6.721   4.052   0.636  0.0864  0.0563 -0.5528
13899TIP3    H263189   6.672   3.914   0.599  0.3218  0.2545 -1.6355
13900TIP3   OH263190   5.853   3.641  13.362  0.1715 -0.4531  0.0711
13900TIP3    H163191   5.863   3.556  13.320 -0.7907 -0.3186 -0.4733
13900TIP3    H263192   5.768   3.673  13.331  0.3807  0.5683  0.5044
13901TIP3   OH263193   0.971   6.287  16.162  0.1847 -0.2182 -0.5315
13901TIP3    H163194   0.892   6.243  16.130 -0.4362  0.1176  0.4738
13901TIP3    H263195   1.028   6.215  16.190  0.0961 -0.4558 -0.9572
13902TIP3   OH263196   5.714   0.647   3.758  0.0575 -0.0622  0.1825
13902TIP3    H163197   5.738   0.718   3.698  1.0643 -0.3220  0.2542
13902TIP3    H263198   5.677   0.691   3.834 -0.5559  0.3088 -0.3129
13903TIP3   OH263199   5.301   0.372  11.128  0.3048  0.0950 -0.0324
13903TIP3    H163200   5.351   0.422  11.064  1.6760 -0.5280  0.5250
13903TIP3    H263201   5.335   0.399  11.212 -1.8683  1.3279  0.5397
13904TIP3   OH263202   0.379   2.911  15.207  0.6321  0.0087 -0.1984
13904TIP3    H163203   0.321   2.859  15.261  0.3303 -0.8459 -1.2983
13904TIP3    H263204   0.322   2.976  15.166 -0.0372 -1.9623 -2.7219
13905TIP3   OH263205   6.586   3.255   6.081  0.1193 -0.3088  0.7192
13905TIP3    H163206   6.624   3.191   6.140 -1.0288 -0.0832  1.7462
13905TIP3    H263207   6.580   3.336   6.133 -1.4171 -0.2536  0.5212
13906TIP3   OH263208   1.931   3.218  12.348 -0.6707 -0.3591  0.0930
13906TIP3    H163209   1.847   3.210  12.393  0.8831 -1.1939  3.0980
13906TIP3    H263210   1.969   3.130  12.351  1.2335  0.4377  0.8396
13907TIP3   OH263211   5.969   4.491  13.483  0.3368 -0.1566  0.5326
13907TIP3    H163212   6.061   4.483  13.506  0.0540 -0.2754  1.7100
13907TIP3    H263213   5.969   4.533  13.397  1.4559  1.8120  1.4133
13908TIP3   OH263214   2.121   4.240  13.192 -0.6153  0.2015 -0.2839
13908TIP3    H163215   2.062   4.169  13.216 -1.6165  1.3836  0.9169
13908TIP3    H263216   2.205   4.197  13.173 -1.0707 -1.2540  0.8203
13909TIP3   OH263217   4.980   1.718   5.029 -0.0356  1.0516 -0.7540
13909TIP3    H163218   5.045   1.697   4.962 -0.1928 -1.4958 -0.2145
13909TIP3    H263219   4.996   1.654   5.099 -1.0711  2.4372  0.8253
13910TIP3   OH263220   5.945   4.535   3.225 -0.2266 -0.0688  0.9338
13910TIP3    H163221   5.885   4.580   3.166 -0.1886  0.7286  1.4937
13910TIP3    H263222   5.942   4.585   3.307  0.9503 -0.1890  1.0768
13911TIP3   OH263223   2.146   0.056   2.711  0.5333 -0.0874  0.0619
13911TIP3    H163224   2.098   0.051   2.794  1.7524  2.2446  0.9884
13911TIP3    H263225   2.088   0.106   2.653  0.3034 -0.4409 -0.0137
13912TIP3   OH263226   0.377   2.829   5.084  0.4325 -0.4384 -1.0601
13912TIP3    H163227   0.369   2.907   5.030 -3.3114 -1.3077 -2.0604
13912TIP3    H263228   0.346   2.856   5.170  0.3463 -0.5027 -1.0706
13913TIP3   OH263229   3.966   5.686  16.413  0.1560 -0.1608 -0.3786
13913TIP3    H163230   3.998   5.776  16.407 -1.3834  0.4442 -0.0166
13913TIP3    H263231   4.000   5.654  16.497 -0.2458  0.4934  0.0442
13914TIP3   OH263232   6.817   3.191   1.719 -0.2287 -0.0962 -0.1651
13914TIP3    H163233   6.874   3.249   1.667 -0.7741 -0.4718 -1.2059
13914TIP3    H263234   6.758   3.251   1.765  1.8890  0.4147  2.1326
13915TIP3   OH263235   5.392   0.966   4.400 -0.4778  0.0492  0.7801
13915TIP3    H163236   5.449   0.900   4.439  1.0712  0.8024 -0.0929
13915TIP3    H263237   5.341   1.000   4.474 -0.8029 -1.6069  1.3502
13916TIP3   OH263238   6.215   5.149   1.317  0.5798  0.1439  0.1437
13916TIP3    H163239   6.260   5.067   1.300 -0.0472 -0.1733 -0.0102
13916TIP3    H263240   6.123   5.131   1.298  0.6717  1.4089 -1.7789
13917TIP3   OH263241   0.637   2.385   5.558  0.4558  0.2254 -0.1170
13917TIP3    H163242   0.688   2.371   5.478  0.2864 -0.6336 -0.0775
13917TIP3    H263243   0.623   2.480   5.561 -0.3439  0.1776 -1.5922
13918TIP3   OH263244   0.547   6.726  11.969  0.1585  0.2932 -0.0306
13918TIP3    H163245   0.626   6.765  11.932  0.7298  0.9225  1.7575
13918TIP3    H263246   0.505   6.798  12.017 -1.9081  0.1614 -1.4999
13919TIP3   OH263247   0.380   1.127  16.924 -0.1888 -0.3410 -0.0078
13919TIP3    H163248   0.407   1.049  16.972 -0.3017  0.3880  1.3025
13919TIP3    H263249   0.337   1.182  16.990 -0.9328  0.4223 -1.1039
13920TIP3   OH263250   4.803   1.713  16.077  0.0165  0.2851  0.3656
13920TIP3    H163251   4.740   1.785  16.069 -0.4470  0.0411  1.5893
13920TIP3    H263252   4.882   1.755  16.110 -0.4599  0.1783  1.7365
13921TIP3   OH263253   6.337   5.837  14.772  0.2933 -0.0483 -0.0912
13921TIP3    H163254   6.338   5.920  14.725 -0.0683  0.4514  0.7538
13921TIP3    H263255   6.425   5.802  14.761  0.1848 -0.0021 -1.2177
13922TIP3   OH263256   6.099   6.808   4.241 -0.4366 -0.2202  0.1314
13922TIP3    H163257   6.130   6.879   4.185 -1.1656  0.4815  0.6042
13922TIP3    H263258   6.149   6.732   4.213  0.8193  0.6148  0.0423
13923TIP3   OH263259   1.366   3.564  10.907 -0.4717 -0.2476  0.3417
13923TIP3    H163260   1.413   3.633  10.859 -0.2856 -0.8836 -0.4108
13923TIP3    H263261   1.367   3.594  10.998  1.1415 -0.0995  0.3029
13924TIP3   OH263262   1.400   4.711  14.700  0.2951  0.1096  0.6384
13924TIP3    H163263   1.354   4.769  14.639  0.5012 -0.3042  0.0697
13924TIP3    H263264   1.349   4.630  14.698  0.3961  0.0409  0.8895
13925TIP3   OH263265   5.384   5.235   3.180 -0.2440  0.6058 -0.2859
13925TIP3    H163266   5.378   5.213   3.087  0.3540 -1.0374  0.0159
13925TIP3    H263267   5.295   5.253   3.207 -0.7228 -0.8517 -0.7789
13926TIP3   OH263268   1.179   4.081  15.740 -0.3555  0.1564  0.0543
13926TIP3    H163269   1.267   4.117  15.734  0.0760 -0.8974 -0.1365
13926TIP3    H263270   1.181   4.024  15.817 -0.5392 -0.7412 -0.5918
13927TIP3   OH263271   6.629   0.584   2.086  0.4414  0.7324 -0.4204
13927TIP3    H163272   6.567   0.656   2.092 -0.3081  0.1464 -0.9420
13927TIP3    H263273   6.595   0.517   2.144  0.8123  0.5662 -0.3893
13928TIP3   OH263274   4.232   0.544  10.897  0.6857 -0.0816  0.7506
13928TIP3    H163275   4.283   0.558  10.817  0.5025  1.9564  0.9360
13928TIP3    H263276   4.295   0.555  10.968  0.6517 -0.9320  0.9220
13929TIP3   OH263277   3.246   5.232   1.557  0.1468 -0.0533  0.0861
13929TIP3    H163278   3.243   5.315   1.510 -0.8526 -0.1883 -0.1113
13929TIP3    H263279   3.326   5.189   1.525  0.0324  0.3104 -0.7135
13930TIP3   OH263280   5.978   2.479  14.212 -0.4190  0.0092  0.6480
13930TIP3    H163281   5.927   2.508  14.137  1.9293  1.1660 -0.6186
13930TIP3    H263282   5.987   2.385  14.200 -1.2438 -0.0313  0.2777
13931TIP3   OH263283   3.963   2.519   5.496  0.2254  0.2890  0.5745
13931TIP3    H163284   3.969   2.429   5.528  0.9207  0.2202  0.2737
13931TIP3    H263285   3.881   2.522   5.447  1.1769 -0.7744 -1.1963
13932TIP3   OH263286   0.773   2.234  12.195 -0.0092 -0.0185  0.1758
13932TIP3    H163287   0.843   2.265  12.137  0.9658 -2.9475 -0.3717
13932TIP3    H263288   0.699   2.218  12.136  0.0592 -0.3511  0.1797
13933TIP3   OH263289   0.546   0.202   4.793  0.3142 -0.4095 -0.4487
13933TIP3    H163290   0.625   0.149   4.802  0.8765  0.5643  0.5812
13933TIP3    H263291   0.577   0.289   4.769 -0.4254 -0.0041  0.0139
13934TIP3   OH263292   4.928   2.878  15.558  0.1333 -0.2368  0.6282
13934TIP3    H163293   4.926   2.855  15.465  0.2212 -0.8033  0.7625
13934TIP3    H263294   4.890   2.803  15.602 -1.1121  0.5664  0.9656
13935TIP3   OH263295   3.867   4.215  15.487  0.3841 -0.4358 -0.4098
13935TIP3    H163296   3.904   4.304  15.487 -0.1590 -0.2048 -0.9025
13935TIP3    H263297   3.917   4.169  15.420  0.6097 -0.4789 -0.2131
13936TIP3   OH263298   5.468   5.118   1.700 -0.7106 -0.1885 -0.1282
13936TIP3    H163299   5.454   5.059   1.775  0.1482  0.3799  0.5047
13936TIP3    H263300   5.380   5.146   1.675 -0.9820  0.2182  1.1836
13937TIP3   OH263301   2.792   1.267   2.220  0.1722  0.4906  0.1401
13937TIP3    H163302   2.777   1.360   2.200  0.1809  0.3676 -0.4538
13937TIP3    H263303   2.723   1.221   2.174 -0.5490  0.2694  1.3935
13938TIP3   OH263304   2.425   3.865   1.344  0.0836  0.4011  0.0975
13938TIP3    H163305   2.458   3.779   1.367 -0.2606  0.7155  1.8997
13938TIP3    H263306   2.331   3.854   1.334  0.0527  0.5525  0.2170
13939TIP3   OH263307   2.804   1.998  12.569 -0.4039 -0.1902 -0.1043
13939TIP3    H163308   2.790   2.091  12.587  1.9458  0.1956  0.0990
13939TIP3    H263309   2.718   1.965  12.545 -1.7522  1.5383  1.9455
13940TIP3   OH263310   1.317   1.228  16.031 -0.0423  0.2854 -0.3944
13940TIP3    H163311   1.324   1.147  16.082  1.6192  0.8913  0.4463
13940TIP3    H263312   1.280   1.292  16.093 -2.6124 -0.0791 -1.4393
13941TIP3   OH263313   0.521   6.629  15.925  0.3803 -0.6581 -0.2258
13941TIP3    H163314   0.460   6.581  15.868 -0.0298 -0.4559  0.0376
13941TIP3    H263315   0.559   6.696  15.868  0.8248 -1.1733 -0.5497
13942TIP3   OH263316   3.943   3.770   3.419 -0.1253  0.6649  0.7918
13942TIP3    H163317   3.922   3.755   3.326  0.4800  0.2319  0.7243
13942TIP3    H263318   3.986   3.690   3.448  1.4105  1.4980  0.9386
13943TIP3   OH263319   2.863   1.955   3.243 -0.1838 -0.4562  0.0861
13943TIP3    H163320   2.870   1.868   3.281 -1.3865 -0.2163  0.9111
13943TIP3    H263321   2.865   2.014   3.318 -3.2928 -0.0079 -0.0807
13944TIP3   OH263322   5.459   4.120   3.426  0.2320 -0.1992  0.3531
13944TIP3    H163323   5.550   4.125   3.456 -0.4106 -0.1902  2.5021
13944TIP3    H263324   5.411   4.176   3.487 -1.2365 -0.1997 -0.7477
13945TIP3   OH263325   3.756   1.589   4.592 -0.0328  0.4648 -0.8943
13945TIP3    H163326   3.696   1.647   4.640 -0.9994 -1.5290  0.4618
13945TIP3    H263327   3.701   1.547   4.526 -0.1504 -1.2406  0.2332
13946TIP3   OH263328   1.128   0.082  17.254 -0.2137  0.1172  0.1230
13946TIP3    H163329   1.185   0.005  17.251  0.2640  0.4840 -1.1248
13946TIP3    H263330   1.114   0.104  17.162 -0.5127  1.4088  0.4613
13947TIP3   OH263331   4.308   3.129   3.089 -0.0349  0.0477 -0.0631
13947TIP3    H163332   4.366   3.146   3.015  1.7607 -1.3205  0.9323
13947TIP3    H263333   4.247   3.063   3.057 -0.3251  0.6587 -0.7935
13948TIP3   OH263334   5.077   1.801   4.071 -0.4596  0.1092  0.0728
13948TIP3    H163335   5.101   1.715   4.104 -0.2682  0.4871  0.9560
13948TIP3    H263336   5.034   1.844   4.146 -1.3331  0.4650 -0.6177
13949TIP3   OH263337   6.561   3.846   5.415 -0.0900 -0.2601  0.0097
13949TIP3    H163338   6.478   3.835   5.461  0.3041 -0.9386  0.5790
13949TIP3    H263339   6.551   3.929   5.368 -1.3494 -0.6602 -0.4928
13950TIP3   OH263340   3.048   5.486   1.754 -0.0021  0.5116 -0.3514
13950TIP3    H163341   3.102   5.514   1.828  0.3782  1.3814 -0.9292
13950TIP3    H263342   2.958   5.506   1.780  0.0081 -0.3157  0.3496
13951TIP3   OH263343   4.968   3.731   6.390  0.2859 -0.0201 -0.4289
13951TIP3    H163344   4.995   3.661   6.449 -0.0160 -0.3171 -0.6363
13951TIP3    H263345   5.039   3.795   6.393  0.8802 -0.6506 -0.7528
13952TIP3   OH263346   1.414   6.736  11.239 -0.3403  0.0816  0.2640
13952TIP3    H163347   1.430   6.818  11.285 -0.5913  1.5206 -2.0336
13952TIP3    H263348   1.346   6.692  11.291 -0.6784  1.6363  1.2098
13953TIP3   OH263349   0.694   0.381  14.554  0.0693 -0.5606  1.1433
13953TIP3    H163350   0.735   0.297  14.533 -0.4218 -0.5740  0.1657
13953TIP3    H263351   0.746   0.416  14.626  0.9886 -1.1691  0.7895
13954TIP3   OH263352   5.525   0.307   5.826  0.0832 -0.3015 -0.0423
13954TIP3    H163353   5.576   0.244   5.776  0.2738 -0.1822  0.0021
13954TIP3    H263354   5.476   0.254   5.889  2.2089 -0.2255  1.7794
13955TIP3   OH263355   2.146   0.030  13.988  0.5448  0.2444  0.5031
13955TIP3    H163356   2.197  -0.039  13.947  0.9968  0.9419 -0.1174
13955TIP3    H263357   2.211   0.094  14.018  0.0185  1.6386 -1.1998
13956TIP3   OH263358   0.808   0.278   2.200 -0.0402  0.4813 -0.1625
13956TIP3    H163359   0.890   0.237   2.227 -0.3792  0.6334  1.2034
13956TIP3    H263360   0.781   0.230   2.122  2.0205  1.3249 -1.4828
13957TIP3   OH263361   2.074   2.764   5.803 -0.7047 -0.0271  0.0165
13957TIP3    H163362   2.060   2.698   5.871 -0.9802 -1.2044 -1.1404
13957TIP3    H263363   2.142   2.727   5.747  1.4785  2.1055  1.0950
13958TIP3   OH263364   0.549   1.228   4.752  0.1780 -0.0259 -0.2696
13958TIP3    H163365   0.635   1.195   4.780 -0.8432 -1.7521  1.0219
13958TIP3    H263366   0.488   1.193   4.817 -1.8188 -0.7895 -2.4207
13959TIP3   OH263367   6.751   6.134   3.603 -0.0981  0.1227  0.2520
13959TIP3    H163368   6.774   6.227   3.601  0.5841 -0.0032  1.2306
13959TIP3    H263369   6.671   6.127   3.551 -0.7463  1.4343  1.0361
13960TIP3   OH263370   2.684   1.192  16.571 -0.5702  0.2798 -0.2559
13960TIP3    H163371   2.666   1.161  16.483  0.2538  1.0300 -0.7136
13960TIP3    H263372   2.683   1.288  16.563 -0.8457  0.3590  0.6234
13961TIP3   OH263373   6.551   1.224   3.500  0.1066  0.1991 -0.3190
13961TIP3    H163374   6.514   1.205   3.586 -0.1414  0.6119 -0.3296
13961TIP3    H263375   6.640   1.189   3.503 -0.3882 -1.1371 -0.4100
13962TIP3   OH263376   2.104   5.970  11.365  0.0751  0.0772 -0.1131
13962TIP3    H163377   2.097   6.065  11.373  0.1982  0.0191  0.8723
13962TIP3    H263378   2.076   5.937  11.451 -0.9994 -0.8315 -0.7937
13963TIP3   OH263379   3.073   1.217   4.095 -0.4173  0.0653 -0.0141
13963TIP3    H163380   3.070   1.312   4.082  2.4022  0.6818  2.6318
13963TIP3    H263381   3.139   1.187   4.032 -1.7016 -0.3186 -1.2385
13964TIP3   OH263382   6.583   0.008  10.528  0.0382 -0.3298 -0.2956
13964TIP3    H163383   6.676  -0.003  10.549  0.1153  1.4829  0.5344
13964TIP3    H263384   6.548   0.058  10.602 -1.2029  0.5390 -1.4211
13965TIP3   OH263385   1.663   1.435  15.319  0.2509 -0.3456 -0.1495
13965TIP3    H163386   1.627   1.523  15.305  1.4928  0.1523 -0.3174
13965TIP3    H263387   1.659   1.423  15.413 -0.9283 -0.5532 -0.2173
13966TIP3   OH263388   0.432   6.037  13.098 -0.3404  0.0167  0.5919
13966TIP3    H163389   0.510   6.007  13.051 -1.1744  2.0472 -2.3488
13966TIP3    H263390   0.362   6.033  13.033 -1.6838  2.5745  1.7668
13967TIP3   OH263391   5.276   6.688   6.479 -0.0078  0.1623  0.1696
13967TIP3    H163392   5.354   6.695   6.535 -0.6747  1.0185  1.0371
13967TIP3    H263393   5.246   6.598   6.491  0.2997  0.1151  0.5992
13968TIP3   OH263394   1.645   1.379   6.194 -0.3770  0.6776  0.3688
13968TIP3    H163395   1.738   1.391   6.178 -0.3114  1.1032  1.0328
13968TIP3    H263396   1.613   1.465   6.221 -0.6324  0.1892  1.6972
13969TIP3   OH263397   6.379   0.734   5.537 -0.3103  0.2839  0.2725
13969TIP3    H163398   6.362   0.751   5.444  2.2430  0.9220 -0.1462
13969TIP3    H263399   6.419   0.647   5.538 -1.0608 -0.0713  0.9071
13970TIP3   OH263400   3.455   3.026   2.616 -0.0435  0.2380  0.1249
13970TIP3    H163401   3.359   3.027   2.619 -0.1227 -0.2633 -1.6057
13970TIP3    H263402   3.479   2.937   2.639 -0.0861 -0.1271 -1.2039
13971TIP3   OH263403   5.012   3.187   4.871 -0.0407 -0.5734 -0.3865
13971TIP3    H163404   4.947   3.180   4.801 -0.2341  1.0285 -0.3956
13971TIP3    H263405   4.966   3.157   4.950  0.1255 -2.2225 -0.8780
13972TIP3   OH263406   0.064   2.372   5.679 -0.7205 -0.6099  0.4380
13972TIP3    H163407  -0.015   2.417   5.648 -1.0444 -0.5981  1.2412
13972TIP3    H263408   0.133   2.438   5.674 -0.6096 -0.7873 -0.8353
13973TIP3   OH263409   3.562   4.412   5.010 -0.4482  0.7188  0.4384
13973TIP3    H163410   3.495   4.475   4.981 -0.2888  1.6294  1.9463
13973TIP3    H263411   3.640   4.466   5.025 -0.2524  0.1487  1.5755
13974TIP3   OH263412   1.612   1.095   4.029 -0.0288 -0.1675  0.0279
13974TIP3    H163413   1.620   1.187   4.054 -0.1196 -0.6518  1.9654
13974TIP3    H263414   1.522   1.072   4.051  0.1416 -0.8535  0.0237
13975TIP3   OH263415   3.965   2.535   3.528  0.3849  0.0312 -0.0623
13975TIP3    H163416   3.957   2.446   3.495  1.9659 -0.7374  1.4797
13975TIP3    H263417   3.977   2.589   3.450  1.8219 -1.4242 -0.9029
13976TIP3   OH263418   2.539   2.460   3.676 -0.5476  0.8669 -0.4743
13976TIP3    H163419   2.544   2.369   3.706 -2.0755  0.5868 -0.9664
13976TIP3    H263420   2.625   2.496   3.695 -0.0863 -0.5240  0.2443
13977TIP3   OH263421   4.878   0.878   4.642 -0.7282  0.0349  0.0218
13977TIP3    H163422   4.799   0.867   4.696 -0.9480 -0.3242 -0.3606
13977TIP3    H263423   4.936   0.932   4.695 -0.3653 -1.4512  1.2290
13978TIP3   OH263424   0.822   3.578   2.057  0.3223  0.5283 -0.1721
13978TIP3    H163425   0.904   3.546   2.019  0.6164 -0.3717  1.1525
13978TIP3    H263426   0.821   3.672   2.035 -0.1277 -0.1225 -3.3911
13979TIP3   OH263427   0.710   1.070  14.033 -0.3382  0.6038 -0.0048
13979TIP3    H163428   0.671   1.058  14.119  0.1776  1.2063  0.3249
13979TIP3    H263429   0.741   0.983  14.007 -1.9730  0.0872 -0.3286
13980TIP3   OH263430   0.665   2.635  13.136 -0.2284 -0.1440 -0.0531
13980TIP3    H163431   0.671   2.559  13.195 -1.9466  0.9832  1.7062
13980TIP3    H263432   0.581   2.622  13.090 -0.8321  0.9449  0.7031
13981TIP3   OH263433   3.619   5.329  16.665 -0.2691 -0.1381  1.0313
13981TIP3    H163434   3.645   5.421  16.661 -2.2014  0.4135 -0.5343
13981TIP3    H263435   3.663   5.294  16.743  4.7601  0.6878 -1.0632
13982TIP3   OH263436   0.989   5.230   5.004 -0.1179  0.0104  0.4312
13982TIP3    H163437   1.019   5.140   5.020 -0.1613  0.0832  0.9500
13982TIP3    H263438   1.039   5.283   5.066  0.6362  0.4797 -0.5612
13983TIP3   OH263439   3.034   1.429   0.804 -0.6183 -0.5632  0.2966
13983TIP3    H163440   2.981   1.501   0.769 -1.7280 -0.9987  1.0007
13983TIP3    H263441   3.012   1.427   0.897  0.2757 -1.0799  0.5018
13984TIP3   OH263442   2.118   1.897  13.264 -0.0442 -0.4347 -0.4804
13984TIP3    H163443   2.179   1.971  13.271 -0.0818 -0.4181 -0.3259
13984TIP3    H263444   2.066   1.901  13.344 -0.3246 -0.3813 -0.6618
13985TIP3   OH263445   0.534   5.470  16.714  0.2691  0.4312 -0.2414
13985TIP3    H163446   0.444   5.466  16.683  1.1301  1.2876 -3.1639
13985TIP3    H263447   0.557   5.563  16.711  0.9066  0.3820  1.7106
13986TIP3   OH263448   1.830   4.828   0.333 -0.3466 -0.1021  0.2431
13986TIP3    H163449   1.782   4.759   0.378 -0.1736 -1.4347 -1.5163
13986TIP3    H263450   1.921   4.796   0.330 -0.3672 -0.1071 -1.0786
13987TIP3   OH263451   6.717   2.003  11.506 -0.2755 -0.2288 -0.1350
13987TIP3    H163452   6.720   1.917  11.464  0.0916  0.4824 -1.6328
13987TIP3    H263453   6.705   2.064  11.434  0.9165  1.1076  0.7482
13988TIP3   OH263454   3.271   0.376  14.702 -0.3561 -0.0366  0.3073
13988TIP3    H163455   3.301   0.451  14.650 -0.3683 -0.5704 -0.4898
13988TIP3    H263456   3.350   0.326  14.720 -0.5782 -0.8115 -0.7695
13989TIP3   OH263457   2.830   4.056  15.638  0.2861  0.3214 -0.5526
13989TIP3    H163458   2.891   4.130  15.639  1.8427 -0.8956 -0.1086
13989TIP3    H263459   2.748   4.092  15.671  1.5413  1.4495  1.5835
13990TIP3   OH263460   3.067   5.052  13.865  0.1083 -0.2266 -0.9665
13990TIP3    H163461   3.101   5.140  13.847  1.9352 -0.8535 -0.7255
13990TIP3    H263462   2.988   5.046  13.811 -0.1522  1.6027 -0.8765
13991TIP3   OH263463   2.818   0.827   4.356  0.1171  0.0559 -0.7827
13991TIP3    H163464   2.816   0.842   4.262  0.0371 -2.0112 -1.1425
13991TIP3    H263465   2.735   0.783   4.376  0.4840 -0.2682  0.1079
13992TIP3   OH263466   0.192   4.260   2.489  0.0999 -0.0111 -0.0834
13992TIP3    H163467   0.179   4.286   2.398 -1.7400 -0.3673  0.0263
13992TIP3    H263468   0.123   4.307   2.537  1.0362  0.1736  1.1419
13993TIP3   OH263469   4.033   6.630  16.565  0.3490  0.3125 -0.0820
13993TIP3    H163470   4.053   6.720  16.540 -1.3059  0.8196  0.3130
13993TIP3    H263471   4.041   6.579  16.484  1.4634  0.7668 -0.2695
13994TIP3   OH263472   1.048   0.856  13.046 -0.4222  0.5105  0.6480
13994TIP3    H163473   0.982   0.918  13.078 -0.2821  1.0941 -0.1479
13994TIP3    H263474   1.126   0.876  13.097 -0.8006 -0.0827  1.4915
13995TIP3   OH263475   1.833   4.862  14.678 -0.4111  1.2311  0.5414
13995TIP3    H163476   1.793   4.882  14.763 -1.1925  0.0421  0.4662
13995TIP3    H263477   1.789   4.783  14.648  0.2733  1.2983 -0.7109
13996TIP3   OH263478   4.621   6.105  14.203 -0.0036 -0.1117 -0.7624
13996TIP3    H163479   4.587   6.190  14.174 -1.5027 -0.7245 -0.9219
13996TIP3    H263480   4.700   6.091  14.152 -0.7837  0.3426 -2.1368
13997TIP3   OH263481   6.115   3.634   1.368  0.0837  0.5729 -0.6755
13997TIP3    H163482   6.040   3.652   1.312  0.3322  0.2154 -1.1356
13997TIP3    H263483   6.188   3.619   1.307 -0.0605 -1.8155 -0.3698
13998TIP3   OH263484   4.110   6.149  10.215 -0.1121 -0.2111  0.0783
13998TIP3    H163485   4.035   6.209  10.220 -0.7848 -0.9177 -1.0590
13998TIP3    H263486   4.103   6.096  10.294 -1.7517 -1.2991 -0.7354
13999TIP3   OH263487   0.730   3.754  16.444  0.1047  0.1917  0.3615
13999TIP3    H163488   0.782   3.683  16.408 -0.6442  0.0449 -0.4797
13999TIP3    H263489   0.697   3.720  16.528  2.3062  0.7421  1.5138
14000TIP3   OH263490   3.183   1.150  13.677 -0.0280  0.6504 -0.0573
14000TIP3    H163491   3.273   1.182  13.690  0.3156 -0.8003  1.7324
14000TIP3    H263492   3.190   1.055  13.690 -1.6491  0.3597 -1.0476
14001TIP3   OH263493   5.821   5.069  16.550  0.6331  0.0627  0.0111
14001TIP3    H163494   5.758   5.008  16.587 -0.7217  0.5154 -1.4463
14001TIP3    H263495   5.904   5.022  16.553  0.4331 -0.2881  2.6306
14002TIP3   OH263496   3.905   1.422  14.428  0.0958 -0.6375  0.6590
14002TIP3    H163497   3.930   1.340  14.385  0.9373  0.8386 -1.9455
14002TIP3    H263498   3.809   1.421  14.426  0.0989 -1.3881  0.2812
14003TIP3   OH263499   1.122   6.632   4.507 -0.2446 -0.6925  0.2655
14003TIP3    H163500   1.115   6.670   4.595 -0.8798  0.4728 -0.2647
14003TIP3    H263501   1.116   6.538   4.521  0.5031 -0.5720  1.5503
14004TIP3   OH263502   5.891   4.795  12.735 -0.0527  0.2562 -0.5092
14004TIP3    H163503   5.983   4.772  12.750 -0.4374 -1.6280 -0.8156
14004TIP3    H263504   5.894   4.852  12.658  0.6378 -3.1087 -3.2674
14005TIP3   OH263505   0.380   0.921  12.234  0.2595 -0.0407  0.3654
14005TIP3    H163506   0.363   1.001  12.183  0.2979  0.1265  0.6163
14005TIP3    H263507   0.451   0.878  12.187 -0.6422 -0.5963 -0.5246
14006TIP3   OH263508   4.097   1.360  14.904  0.2327 -0.6692  0.3493
14006TIP3    H163509   4.184   1.355  14.943  0.3083 -0.3957  0.2165
14006TIP3    H263510   4.112   1.343  14.811  0.2660  0.2768  0.1739
14007TIP3   OH263511   5.067   5.186   2.218  0.1114 -0.1526  0.4234
14007TIP3    H163512   5.094   5.149   2.302  0.8974 -0.2292  0.1414
14007TIP3    H263513   4.985   5.140   2.197  0.9745 -1.6199  0.1645
14008TIP3   OH263514   1.344   0.674  11.584  0.5579 -0.3126 -0.1456
14008TIP3    H163515   1.328   0.673  11.679  0.1524  0.7285 -0.1872
14008TIP3    H263516   1.438   0.662  11.575  0.7459  0.6117  0.4481
14009TIP3   OH263517   3.215   3.511  10.840  0.1919  0.1288 -0.4954
14009TIP3    H163518   3.207   3.561  10.758 -0.8150 -0.2443 -0.6382
14009TIP3    H263519   3.255   3.428  10.813  0.7596  0.3765 -0.4429
14010TIP3   OH263520   6.396   0.523  13.419 -0.3815 -0.4042  0.4903
14010TIP3    H163521   6.395   0.466  13.343 -2.4903  0.2909 -0.0788
14010TIP3    H263522   6.405   0.612  13.383  1.7474 -0.2204  1.2945
14011TIP3   OH263523   1.214   2.618   3.815  0.2801 -0.1735 -0.2553
14011TIP3    H163524   1.248   2.613   3.726 -1.9593 -1.2042 -1.1484
14011TIP3    H263525   1.237   2.706   3.845  1.3950  0.0646 -1.7035
14012TIP3   OH263526   0.033   2.494   2.383 -0.2792  0.1492  0.5519
14012TIP3    H163527   0.057   2.414   2.429  2.6265  0.7427  0.2769
14012TIP3    H263528   0.116   2.530   2.352 -1.6308  2.4484 -0.7231
14013TIP3   OH263529   5.147   1.508  10.822 -0.4879  0.3557  0.3754
14013TIP3    H163530   5.097   1.512  10.903 -0.4479 -0.0528  0.4273
14013TIP3    H263531   5.122   1.424  10.783  0.4740 -0.0636  0.6240
14014TIP3   OH263532   2.424   4.391  15.150 -0.6928  0.7155  0.3898
14014TIP3    H163533   2.342   4.355  15.183 -1.4062  0.0349 -1.9148
14014TIP3    H263534   2.433   4.354  15.062  1.5769  1.5791  0.1836
14015TIP3   OH263535   4.047   5.543  14.151  0.1752 -0.1767 -0.0981
14015TIP3    H163536   4.009   5.502  14.229  1.9338 -1.2243  0.2783
14015TIP3    H263537   4.141   5.526  14.159  0.7979  2.5751 -0.7852
14016TIP3   OH263538   5.703   5.676   2.496 -0.2752  0.5313 -0.3748
14016TIP3    H163539   5.791   5.703   2.523 -0.7202  1.2752  0.3795
14016TIP3    H263540   5.651   5.756   2.500 -0.7011  0.3780 -2.1368
14017TIP3   OH263541   6.181   0.918  16.720 -0.1187 -0.1456  0.2937
14017TIP3    H163542   6.255   0.944  16.774  0.2132 -1.6075  0.5903
14017TIP3    H263543   6.158   0.997  16.671  1.9599  0.1997 -0.1941
14018TIP3   OH263544   0.001   6.694  14.367  0.2665  0.0352  0.0037
14018TIP3    H163545  -0.074   6.748  14.392  1.3449  1.3143  0.5332
14018TIP3    H263546  -0.039   6.615  14.329 -1.3717 -0.3075  2.2634
14019TIP3   OH263547   5.935   5.384   3.478 -0.4515  0.1695  1.3946
14019TIP3    H163548   5.889   5.438   3.542 -0.4302  0.3041  1.2958
14019TIP3    H263549   5.995   5.331   3.530 -1.4408 -0.7635  1.6358
14020TIP3   OH263550   2.712   0.075  17.266 -0.5748 -0.1645  0.3149
14020TIP3    H163551   2.705   0.002  17.328  0.5506 -1.3146 -0.8616
14020TIP3    H263552   2.770   0.138  17.309  0.5049 -1.1187  0.2982
14021TIP3   OH263553   0.599   1.677  10.922 -0.3956 -0.2432 -0.3869
14021TIP3    H163554   0.683   1.656  10.961 -0.0917  1.2589 -0.1929
14021TIP3    H263555   0.570   1.595  10.881  0.7595 -0.9847  0.2477
14022TIP3   OH263556   6.098   3.059  11.484 -0.1618  0.3280  0.6836
14022TIP3    H163557   6.064   3.002  11.415 -0.7190  0.0265  1.1979
14022TIP3    H263558   6.123   2.999  11.554  0.1228  0.6539  0.8618
14023TIP3   OH263559   3.388   0.920  14.640 -0.1695 -0.4303 -0.2841
14023TIP3    H163560   3.447   0.931  14.565 -1.3855 -1.5492 -1.4393
14023TIP3    H263561   3.443   0.941  14.716  0.1708  4.7835 -1.5354
14024TIP3   OH263562   2.296   4.514  16.054 -0.3214 -0.5081 -0.0002
14024TIP3    H163563   2.257   4.505  16.141 -0.1777 -0.7472  0.0393
14024TIP3    H263564   2.364   4.447  16.051  0.4665  0.2595  0.1432
14025TIP3   OH263565   6.507   1.215   4.447  0.0045  0.6509 -0.2950
14025TIP3    H163566   6.492   1.135   4.498 -0.6584  0.8842 -0.1172
14025TIP3    H263567   6.534   1.184   4.361  2.1984  0.2485  0.4693
14026TIP3   OH263568   5.957   1.115   4.314  0.1147 -0.1909 -0.2828
14026TIP3    H163569   5.884   1.118   4.252  0.6494 -0.6784 -0.9540
14026TIP3    H263570   5.992   1.204   4.315 -0.7664  0.1648  0.4013
14027TIP3   OH263571   3.644   4.105  14.375  0.1831 -0.4721  0.2576
14027TIP3    H163572   3.557   4.144  14.381  0.2702  0.0509 -1.2725
14027TIP3    H263573   3.659   4.095  14.281  2.0899  0.1864  0.4461
14028TIP3   OH263574   0.456   0.470   2.791 -0.3162 -0.0762 -0.0689
14028TIP3    H163575   0.454   0.530   2.866 -0.2562  2.5269 -2.0125
14028TIP3    H263576   0.364   0.455   2.770 -0.3589  1.4346 -1.0891
14029TIP3   OH263577   0.406   6.091  13.910 -0.6861  0.3503 -0.6335
14029TIP3    H163578   0.460   6.129  13.841 -1.2238 -1.3715 -2.0473
14029TIP3    H263579   0.354   6.024  13.867  0.6045 -2.4607  1.7628
14030TIP3   OH263580   4.353   6.663   1.969  0.1509  0.4735 -0.1496
14030TIP3    H163581   4.413   6.628   1.904  0.9890 -0.4066  1.0636
14030TIP3    H263582   4.341   6.755   1.943  2.2324  0.7499 -0.2762
14031TIP3   OH263583   5.271   2.042  17.135  0.2057  0.0523 -0.3562
14031TIP3    H163584   5.341   2.107  17.125  0.1008  0.0166 -1.5012
14031TIP3    H263585   5.298   1.987  17.208  1.3018  0.1352 -0.6903
14032TIP3   OH263586   2.699   2.362   0.046  0.0064 -1.2094  0.3024
14032TIP3    H163587   2.630   2.295   0.037  1.5010 -2.9217  0.9011
14032TIP3    H263588   2.678   2.407   0.127 -1.2931 -0.5862 -0.3498
14033TIP3   OH263589   6.756   6.485   5.400 -0.3796 -0.0504 -0.1972
14033TIP3    H163590   6.757   6.393   5.427  0.6981 -0.1233 -0.4400
14033TIP3    H263591   6.701   6.528   5.465  1.9598 -0.2551  2.0971
14034TIP3   OH263592   2.524   3.432   6.238 -0.8032 -0.0040 -0.1931
14034TIP3    H163593   2.535   3.522   6.206 -1.5593 -0.2524 -1.1908
14034TIP3    H263594   2.608   3.390   6.219 -0.1658  0.6754  0.9800
14035TIP3   OH263595   6.294   1.643  10.827  0.1233 -0.1486 -0.0119
14035TIP3    H163596   6.288   1.554  10.863 -1.1418  0.0395  0.3093
14035TIP3    H263597   6.368   1.641  10.767  0.2360 -1.3664  0.1576
14036TIP3   OH263598   5.922   3.192   6.040 -0.2540  0.4150  0.3418
14036TIP3    H163599   5.889   3.279   6.061 -0.5833  0.3545  0.1038
14036TIP3    H263600   5.888   3.136   6.109 -1.2228  0.2393 -0.2553
14037TIP3   OH263601   0.837   2.846  14.342  0.0188  0.4692 -0.0483
14037TIP3    H163602   0.887   2.811  14.268  0.4444 -0.1199  0.5021
14037TIP3    H263603   0.757   2.880  14.302 -0.7532 -1.7564 -0.5852
14038TIP3   OH263604   3.948   0.243  15.156  0.3469  0.2906 -0.0054
14038TIP3    H163605   3.941   0.161  15.108 -0.6483  0.9861 -1.0904
14038TIP3    H263606   3.914   0.309  15.096  0.0478  1.3401  1.2770
14039TIP3   OH263607   3.026   6.114  14.328 -0.3439 -0.2894 -0.4470
14039TIP3    H163608   3.027   6.193  14.383  1.1961 -1.2890  1.0521
14039TIP3    H263609   2.949   6.065  14.357 -1.9105  1.0423 -2.0836
14040TIP3   OH263610   5.693   1.520   3.876  0.0996  0.0992  0.3225
14040TIP3    H163611   5.643   1.576   3.816 -0.1794 -0.1566  0.3181
14040TIP3    H263612   5.631   1.497   3.945  0.1033 -0.5232  0.1222
14041TIP3   OH263613   2.499   1.299  11.970 -0.2293 -0.1850 -0.1919
14041TIP3    H163614   2.406   1.280  11.973 -0.6677  1.3825 -1.9239
14041TIP3    H263615   2.516   1.353  12.047 -0.2515 -2.1793  1.2869
14042TIP3   OH263616   5.080   3.585   0.267  0.0837 -0.0059  0.7619
14042TIP3    H163617   4.993   3.549   0.249  0.0360 -0.2283  1.4224
14042TIP3    H263618   5.133   3.509   0.289  0.5579  0.0817 -0.0417
14043TIP3   OH263619   1.359   6.290   2.007  0.4469 -0.1652 -0.8821
14043TIP3    H163620   1.321   6.363   1.958 -0.4379 -0.9010 -1.3233
14043TIP3    H263621   1.374   6.325   2.095  0.1031  0.5687 -1.1034
14044TIP3   OH263622   6.615   2.154   6.019 -0.0744  0.1799 -0.4093
14044TIP3    H163623   6.552   2.189   6.082 -0.0964  1.4523 -1.1144
14044TIP3    H263624   6.649   2.075   6.061 -1.5071 -0.0730  0.3577
14045TIP3   OH263625   5.875   1.361  14.953 -0.8333 -0.0957 -0.0460
14045TIP3    H163626   5.859   1.455  14.953 -2.0016 -0.2781 -0.4137
14045TIP3    H263627   5.791   1.322  14.978 -0.9454 -1.0996 -1.7803
14046TIP3   OH263628   5.324   1.155  15.534 -0.1770  0.2023 -0.3665
14046TIP3    H163629   5.341   1.209  15.457  0.6735 -0.7957 -0.8967
14046TIP3    H263630   5.256   1.095  15.506 -2.7566  2.3088  0.8792
14047TIP3   OH263631   5.877   2.864  17.278 -0.3737  0.3858  0.1451
14047TIP3    H163632   5.782   2.865  17.269 -0.3480  0.5873 -0.1057
14047TIP3    H263633   5.900   2.771  17.271 -0.6257  0.2503  1.0182
14048TIP3   OH263634   6.357   1.080  12.884 -0.1794  0.1542 -0.0460
14048TIP3    H163635   6.291   1.118  12.942  1.3720  0.9600  1.2671
14048TIP3    H263636   6.356   0.987  12.903  0.0628  0.3617  1.0453
14049TIP3   OH263637   1.121   0.803  14.509  0.1130  0.3084 -0.6549
14049TIP3    H163638   1.072   0.828  14.430 -0.7141 -1.3513 -0.7196
14049TIP3    H263639   1.213   0.811  14.484 -0.0229  3.6696 -0.4827
14050TIP3   OH263640   5.746   4.185   4.467  0.3146 -0.2444  0.1280
14050TIP3    H163641   5.834   4.151   4.486  0.9819  1.3997  0.1557
14050TIP3    H263642   5.709   4.206   4.553 -0.1663 -1.0333  0.1240
14051TIP3   OH263643   5.968   1.143   5.813  0.3456  0.0385  0.1439
14051TIP3    H163644   5.927   1.214   5.861 -0.3042 -1.2392  1.5702
14051TIP3    H263645   5.895   1.095   5.774  0.7706  0.1057 -0.7621
14052TIP3   OH263646   4.156   1.652   5.535 -0.2733  0.4101  0.2274
14052TIP3    H163647   4.137   1.743   5.512 -1.4403 -0.0795 -0.9227
14052TIP3    H263648   4.078   1.604   5.506  1.1066 -1.2178 -0.9674
14053TIP3   OH263649   5.946   2.585  17.235 -0.3447 -0.5971 -0.4075
14053TIP3    H163650   6.040   2.592  17.246 -0.7039  0.4442  3.0282
14053TIP3    H263651   5.924   2.497  17.265 -0.4677 -1.0375 -1.7167
14054TIP3   OH263652   2.524   1.011   1.514  0.1185 -0.3012  0.4953
14054TIP3    H163653   2.490   1.071   1.447  0.8181 -2.3757 -1.8536
14054TIP3    H263654   2.449   0.956   1.537 -0.0011  0.1070  1.1164
14055TIP3   OH263655   6.597   5.779   5.767  0.1685 -0.3247  0.0779
14055TIP3    H163656   6.522   5.721   5.779 -0.8978  0.7295 -1.0383
14055TIP3    H263657   6.561   5.867   5.784  0.7625  0.3291 -1.7822
14056TIP3   OH263658   2.218   4.276   1.198  0.3001  0.4941 -0.1202
14056TIP3    H163659   2.226   4.358   1.151  1.9273  0.2385 -0.3359
14056TIP3    H263660   2.274   4.286   1.275 -0.4166  0.0126  0.4902
14057TIP3   OH263661   2.519   6.213   2.596  0.5747  0.1004  0.2006
14057TIP3    H163662   2.475   6.131   2.618 -0.1582  0.6920  1.0294
14057TIP3    H263663   2.597   6.214   2.651  1.2054 -0.5725 -0.6678
14058TIP3   OH263664   4.643   3.333   3.595  0.4196  0.3734 -0.2440
14058TIP3    H163665   4.635   3.406   3.656  2.8849  1.3129 -0.9249
14058TIP3    H263666   4.586   3.265   3.632  1.1177  1.1958  2.6381
14059TIP3   OH263667   3.388   2.524  15.423 -0.5683 -0.2090  0.3199
14059TIP3    H163668   3.430   2.439  15.419  2.9126  1.3901 -0.5122
14059TIP3    H263669   3.429   2.568  15.497  0.5112  2.0075 -1.4827
14060TIP3   OH263670   4.596   5.121  14.115 -0.2479 -0.4159 -0.3038
14060TIP3    H163671   4.668   5.104  14.054  0.0208 -0.6821  0.0857
14060TIP3    H263672   4.626   5.086  14.198 -0.5391  0.1096  0.0301
14061TIP3   OH263673   4.960   1.385   5.059 -0.0265  0.4825  0.0348
14061TIP3    H163674   5.030   1.448   5.073 -1.2035  1.5259  1.5671
14061TIP3    H263675   4.941   1.350   5.146  0.5886 -2.0528 -0.7611
14062TIP3   OH263676   5.948   2.745  15.707  0.1615  0.2475 -0.1851
14062TIP3    H163677   5.877   2.809  15.719 -0.9518 -1.1111  0.9034
14062TIP3    H263678   6.023   2.785  15.752 -0.1621  1.2922 -0.5272
14063TIP3   OH263679   3.093   2.189  14.133 -0.0986 -0.1039 -0.0046
14063TIP3    H163680   3.089   2.095  14.117  1.9118 -0.0528 -1.2249
14063TIP3    H263681   3.051   2.228  14.056 -2.1185  0.0297  1.1101
14064TIP3   OH263682   3.169   1.361   3.053 -0.2255 -0.0258  0.1386
14064TIP3    H163683   3.131   1.308   2.982  2.2427 -0.5396 -0.8891
14064TIP3    H263684   3.185   1.447   3.013 -1.3584  0.5915  0.9279
14065TIP3   OH263685   0.587   0.763  16.856 -0.5435  0.1050  0.4097
14065TIP3    H163686   0.657   0.827  16.844 -1.3168  0.6553 -1.5922
14065TIP3    H263687   0.616   0.709  16.929  0.1886  2.6584  2.1480
14066TIP3   OH263688   3.444   1.311   1.836  0.2549  0.1830 -0.1559
14066TIP3    H163689   3.383   1.362   1.783 -1.6183 -1.1459  0.6007
14066TIP3    H263690   3.481   1.373   1.898  0.9881  1.3520 -1.6742
14067TIP3   OH263691   2.914   6.161   5.515 -0.4258  0.0259  0.1593
14067TIP3    H163692   2.876   6.107   5.583  1.9419 -0.7760  0.9481
14067TIP3    H263693   2.854   6.153   5.441 -2.2969 -0.2436  1.6458
14068TIP3   OH263694   0.576   2.871   2.369 -0.3295 -0.4313  0.2456
14068TIP3    H163695   0.483   2.850   2.360 -0.2276 -1.8433  2.0008
14068TIP3    H263696   0.596   2.854   2.461  1.3481  1.2881  0.2693
14069TIP3   OH263697   3.945   6.457   1.947 -0.2348  0.4250  0.4536
14069TIP3    H163698   3.903   6.371   1.946  0.3929  0.1085  0.7820
14069TIP3    H263699   4.031   6.441   1.907 -0.2054  0.9515  0.3025
14070TIP3   OH263700   3.390   2.904  15.723  0.6131 -0.3518  0.4753
14070TIP3    H163701   3.297   2.923  15.731  0.8627  0.4136  1.8520
14070TIP3    H263702   3.394   2.822  15.674 -0.7936 -0.5736  0.7061
14071TIP3   OH263703   6.729   6.011   5.410 -0.5603  0.4502  0.2868
14071TIP3    H163704   6.729   6.106   5.425 -0.8625  0.6060 -0.6063
14071TIP3    H263705   6.769   5.974   5.488  1.2906  1.4482 -0.1253
14072TIP3   OH263706   4.618   5.435  11.346  0.0642  0.4800 -0.1012
14072TIP3    H163707   4.578   5.415  11.261 -1.0492  2.4153 -0.0999
14072TIP3    H263708   4.677   5.362  11.363 -2.5798 -1.9688 -0.6779
14073TIP3   OH263709   6.043   4.081   3.190  1.0386 -0.7875  0.0549
14073TIP3    H163710   6.043   4.159   3.246  2.6034  0.3726 -1.4590
14073TIP3    H263711   6.130   4.079   3.151  0.9575 -3.1893 -0.1594
14074TIP3   OH263712   2.111   1.606   6.490 -0.0178 -0.1133 -0.0065
14074TIP3    H163713   2.030   1.570   6.454  0.3163 -0.1476 -0.7566
14074TIP3    H263714   2.162   1.530   6.517  1.0012 -0.3239 -2.2653
14075TIP3   OH263715   4.071   4.850   1.725 -0.3059 -0.4698  0.3219
14075TIP3    H163716   4.145   4.876   1.671 -0.8689  1.2601  0.3055
14075TIP3    H263717   3.996   4.850   1.665 -0.6223 -0.3484  0.7104
14076TIP3   OH263718   6.649   0.031  12.941 -0.2434 -0.3031 -0.4621
14076TIP3    H163719   6.744   0.042  12.954 -0.3601 -0.3990  0.4895
14076TIP3    H263720   6.625  -0.040  12.999 -1.0601  0.3156 -0.0316
14077TIP3   OH263721   2.576   1.622   4.088  0.0385  0.2094 -0.2555
14077TIP3    H163722   2.533   1.662   4.013 -1.1537  3.0514  1.7535
14077TIP3    H263723   2.574   1.689   4.156  1.1282 -2.1451  2.3284
14078TIP3   OH263724   4.951   3.409   0.816  0.9505 -0.2085 -0.1485
14078TIP3    H163725   4.905   3.397   0.733  2.0276  0.5057 -0.8727
14078TIP3    H263726   4.881   3.411   0.882 -0.0556  0.8854 -1.2122
14079TIP3   OH263727   3.580   3.266  15.209 -0.0818  0.5652 -0.0646
14079TIP3    H163728   3.510   3.201  15.217  0.8788 -0.3681  1.1786
14079TIP3    H263729   3.661   3.215  15.215  0.8065  1.4069 -3.0557
14080TIP3   OH263730   6.320   4.426  15.059  0.3374 -0.3582 -0.3473
14080TIP3    H163731   6.365   4.441  14.976  1.2481  1.9347  0.4640
14080TIP3    H263732   6.260   4.500  15.068  0.4188 -0.4334  1.1135
14081TIP3   OH263733   5.004   5.121  11.493  0.1304  0.4936  0.0547
14081TIP3    H163734   5.019   5.174  11.572 -0.8072 -0.3550  0.8190
14081TIP3    H263735   4.961   5.042  11.525  0.3758 -0.1791 -1.2331
14082TIP3   OH263736   6.381   5.591   1.695  0.1273 -0.3985 -0.8685
14082TIP3    H163737   6.321   5.542   1.751 -1.6990 -0.1387 -2.4987
14082TIP3    H263738   6.432   5.524   1.649 -0.2033 -0.6843 -0.8224
14083TIP3   OH263739   2.396   0.181  15.979 -0.0709 -0.3012  0.1293
14083TIP3    H163740   2.406   0.262  16.029 -0.0544 -1.0400  1.3566
14083TIP3    H263741   2.315   0.142  16.011  0.4281 -1.2619  0.2837
14084TIP3   OH263742   3.932   1.940   5.032  0.1072  0.0978 -0.1818
14084TIP3    H163743   3.896   2.028   5.024 -0.1636 -0.0817 -0.9409
14084TIP3    H263744   3.919   1.900   4.946  1.6866 -0.1350 -0.3444
14085TIP3   OH263745   4.715   6.629  11.720 -0.7101  0.2618 -0.7234
14085TIP3    H163746   4.702   6.540  11.687  0.6241  0.2196 -1.1635
14085TIP3    H263747   4.719   6.619  11.816  1.5255 -0.4743 -0.8410
14086TIP3   OH263748   5.010   5.065   0.563 -0.2962  0.7311  0.3244
14086TIP3    H163749   5.041   5.003   0.629 -0.8852 -1.2369 -1.1241
14086TIP3    H263750   4.983   5.009   0.489  1.4764  2.8420 -2.1022
14087TIP3   OH263751   3.496   5.351   2.205  0.4057  0.9051  0.5659
14087TIP3    H163752   3.556   5.290   2.161  1.4300  0.9873  1.7950
14087TIP3    H263753   3.417   5.299   2.222 -0.0310  0.8631 -1.2935
14088TIP3   OH263754   5.986   5.114   2.865  0.4632 -0.5681 -0.0334
14088TIP3    H163755   5.960   5.178   2.932  1.2850  0.5662 -0.7522
14088TIP3    H263756   5.970   5.159   2.782  0.8124 -1.4038 -0.5639
14089TIP3   OH263757   4.134   3.389   1.935  0.4968 -0.6959  0.0553
14089TIP3    H163758   4.199   3.458   1.925  0.2048 -0.2978  0.8058
14089TIP3    H263759   4.097   3.378   1.848 -2.0597  2.7044  0.5326
14090TIP3   OH263760   2.508   4.878  13.671 -1.0644  0.0759  0.3223
14090TIP3    H163761   2.582   4.834  13.628  0.8257  0.5139  2.8532
14090TIP3    H263762   2.439   4.812  13.673  0.5367 -1.6924  1.0173
14091TIP3   OH263763   5.713   2.966  13.080 -0.5247  0.2542 -0.2844
14091TIP3    H163764   5.750   2.935  13.163  1.3297 -0.8517 -1.4441
14091TIP3    H263765   5.664   3.045  13.103  0.1338  0.1002  1.8174
14092TIP3   OH263766   4.666   0.954   4.797 -0.1820 -0.3240  0.2341
14092TIP3    H163767   4.594   0.892   4.807  0.1052 -0.7174 -0.1234
14092TIP3    H263768   4.690   0.978   4.886 -2.0211  1.2958  0.3580
14093TIP3   OH263769   3.551   5.918   3.974  0.4196 -0.1041  0.6442
14093TIP3    H163770   3.629   5.880   3.933 -0.0065  0.4733 -0.7447
14093TIP3    H263771   3.572   5.919   4.068  2.5073  1.0061  0.2247
14094TIP3   OH263772   1.108   1.078  11.876  0.2482  0.3050  0.0669
14094TIP3    H163773   1.174   1.147  11.875  0.9597 -0.2866  1.5452
14094TIP3    H263774   1.042   1.109  11.938  0.4582 -0.2265  0.5652
14095TIP3   OH263775   1.090   6.259  11.928 -0.5002 -0.2663  0.0355
14095TIP3    H163776   1.172   6.211  11.935 -1.4617 -2.3265 -1.5935
14095TIP3    H263777   1.116   6.348  11.905  1.2761 -1.0433 -1.2134
14096TIP3   OH263778   5.506   3.653   2.842  0.2766  0.0188 -0.4866
14096TIP3    H163779   5.588   3.677   2.798  0.3946 -1.3589 -1.0821
14096TIP3    H263780   5.482   3.569   2.804  0.2643 -1.1682  1.9470
14097TIP3   OH263781   5.378   2.021   6.157  0.2533  0.2865 -0.3759
14097TIP3    H163782   5.338   2.071   6.228  1.8197  0.9070  0.1021
14097TIP3    H263783   5.309   2.015   6.091 -1.1504 -0.0869  1.0578
14098TIP3   OH263784   4.522   5.148   1.511  0.2958 -0.6819  0.0317
14098TIP3    H163785   4.585   5.095   1.560 -0.3152 -0.5296  1.0142
14098TIP3    H263786   4.500   5.095   1.435  1.2746 -0.9248 -0.0987
14099TIP3   OH263787   0.494   1.078  13.685 -0.3974 -0.0805 -0.4975
14099TIP3    H163788   0.417   1.070  13.628 -0.9275  1.3190 -0.0319
14099TIP3    H263789   0.465   1.043  13.769  0.1348 -1.4091 -0.8438
14100TIP3   OH263790   6.653   3.876   1.741 -0.2411  0.4193 -0.0282
14100TIP3    H163791   6.583   3.847   1.800 -0.3101  0.0659 -0.2822
14100TIP3    H263792   6.729   3.826   1.769 -0.4931 -0.4402 -0.8271
14101TIP3   OH263793   4.205   3.124   5.547 -0.3392 -0.0047 -0.5261
14101TIP3    H163794   4.244   3.063   5.483 -0.4499 -1.6833  0.9289
14101TIP3    H263795   4.208   3.209   5.503  1.0022 -0.8162 -2.1517
14102TIP3   OH263796   4.118   4.242   1.479  0.1705 -0.0065 -0.3932
14102TIP3    H163797   4.143   4.304   1.547  1.5267  0.5742 -1.3752
14102TIP3    H263798   4.177   4.262   1.406 -2.0823  0.2887 -2.2336
14103TIP3   OH263799   3.233   3.506   4.680 -0.1919  0.1441  0.5517
14103TIP3    H163800   3.157   3.550   4.718 -0.8814 -0.1658 -0.4471
14103TIP3    H263801   3.301   3.514   4.747 -0.5273  2.0446  0.7260
14104TIP3   OH263802   1.536   3.631  14.266 -0.1080 -1.0608 -0.3123
14104TIP3    H163803   1.594   3.619  14.341  1.2502 -2.4239 -1.5222
14104TIP3    H263804   1.568   3.711  14.224 -0.9340 -0.2378  0.5517
14105TIP3   OH263805   3.797   1.652  13.316  0.1208  0.3302  0.0162
14105TIP3    H163806   3.745   1.728  13.288  0.6265  0.7356  0.1652
14105TIP3    H263807   3.831   1.615  13.235 -0.2956  0.1350 -0.0733
14106TIP3   OH263808   1.584   2.446  11.228  0.6807  0.4803  0.4378
14106TIP3    H163809   1.643   2.427  11.155 -0.3093 -0.4630 -0.1415
14106TIP3    H263810   1.513   2.496  11.190  0.7877  1.0907  1.0185
14107TIP3   OH263811   3.761   0.607  13.966  0.2347  0.3123 -0.1509
14107TIP3    H163812   3.749   0.582  14.057  2.3345 -0.9853 -0.1514
14107TIP3    H263813   3.719   0.692  13.958 -0.6110  0.1276  1.8285
14108TIP3   OH263814   5.720   4.055  16.932  0.1486  0.3083 -0.3316
14108TIP3    H163815   5.743   4.045  17.024 -0.3175  0.2486 -0.2201
14108TIP3    H263816   5.684   3.970  16.907 -1.6862  0.9467  0.0040
14109TIP3   OH263817   6.432   0.271  14.460  0.4561  0.6216  0.0720
14109TIP3    H163818   6.397   0.357  14.435  1.1087  0.1945 -2.5976
14109TIP3    H263819   6.360   0.228  14.506 -0.1779  2.2475  0.6761
14110TIP3   OH263820   5.026   1.124  15.416 -0.3171  0.0148 -0.8053
14110TIP3    H163821   4.985   1.160  15.494 -0.2027  1.9218 -1.5858
14110TIP3    H263822   5.054   1.200  15.365  2.1729 -1.1730 -1.3936
14111TIP3   OH263823   5.354   3.758   1.047  0.5218 -0.3218  0.2210
14111TIP3    H163824   5.259   3.747   1.055  0.3828 -0.7035 -1.4909
14111TIP3    H263825   5.386   3.671   1.023  1.3644 -0.2869  1.1777
14112TIP3   OH263826   6.726   1.249  15.308  0.1254  0.7925 -0.2941
14112TIP3    H163827   6.709   1.225  15.217  0.6772  2.8028 -0.9857
14112TIP3    H263828   6.821   1.241  15.317 -0.1891 -4.6027  1.7921
14113TIP3   OH263829   6.302   4.025  12.294  0.1145 -0.3565 -0.2116
14113TIP3    H163830   6.378   4.074  12.262  1.5836 -2.6854 -0.6037
14113TIP3    H263831   6.307   4.031  12.390  0.1307  0.4170 -0.2589
14114TIP3   OH263832   3.309   2.309  16.473 -0.3698 -0.2798  0.3236
14114TIP3    H163833   3.318   2.215  16.484  0.0333 -0.3841 -0.8174
14114TIP3    H263834   3.397   2.344  16.487 -0.3412 -0.1657 -0.1339
14115TIP3   OH263835   3.787   3.806   2.185 -0.4962 -0.3119  0.2517
14115TIP3    H163836   3.867   3.843   2.222 -0.7061  0.9724 -0.5367
14115TIP3    H263837   3.806   3.712   2.177  0.7048 -0.1185  0.6241
14116TIP3   OH263838   3.145   0.336   5.466  0.0168  0.1670 -0.2506
14116TIP3    H163839   3.214   0.391   5.428 -0.3058  0.6360 -0.1708
14116TIP3    H263840   3.192   0.277   5.525  0.5669 -0.8353 -1.6496
14117TIP3   OH263841   1.885   2.399  14.203  0.0688 -0.1013 -0.3925
14117TIP3    H163842   1.938   2.319  14.205 -1.0159 -0.8377 -0.3150
14117TIP3    H263843   1.828   2.389  14.127  0.2326  0.8165 -0.6520
14118TIP3   OH263844   0.990   6.730  13.275 -0.7601 -0.0784  0.6241
14118TIP3    H163845   1.057   6.707  13.339  0.4481  0.4378 -0.3978
14118TIP3    H263846   0.908   6.696  13.312 -0.0423 -0.1713  2.2068
14119TIP3   OH263847   3.107   4.843  11.330  0.1666 -0.5411 -0.1493
14119TIP3    H163848   3.141   4.852  11.241 -0.3008 -0.8918 -0.3648
14119TIP3    H263849   3.035   4.906  11.335 -1.1491 -1.9391 -0.6949
14120TIP3   OH263850   4.285   4.091  14.157  0.0513 -0.3714 -0.4385
14120TIP3    H163851   4.327   4.174  14.181  1.5900 -1.6589  1.6124
14120TIP3    H263852   4.203   4.091  14.208  0.8123 -0.7685  0.8361
14121TIP3   OH263853   4.580   6.316  16.060  0.3784 -0.5130 -0.0650
14121TIP3    H163854   4.521   6.240  16.063 -1.6103  0.9612  0.4525
14121TIP3    H263855   4.608   6.321  15.968 -2.3386  0.1352 -0.9590
14122TIP3   OH263856   2.351   1.093  16.393 -0.0588  0.6969  0.4757
14122TIP3    H163857   2.261   1.071  16.420 -0.3117  0.7559 -0.3028
14122TIP3    H263858   2.383   1.013  16.352 -0.3208  1.1562 -0.6699
14123TIP3   OH263859   6.344   0.909  13.135  0.1356 -0.1978  0.4993
14123TIP3    H163860   6.326   0.872  13.049  1.3505  0.1084  0.0918
14123TIP3    H263861   6.412   0.853  13.172 -0.0593 -0.0634  1.0717
14124TIP3   OH263862   2.641   3.571   0.121  0.0274  0.3213  0.2836
14124TIP3    H163863   2.731   3.570   0.086  1.3929  2.5672  3.2686
14124TIP3    H263864   2.593   3.625   0.058  1.0872  0.1595 -0.7114
14125TIP3   OH263865   1.259   4.309   6.146  0.1201 -0.7476 -0.2695
14125TIP3    H163866   1.197   4.253   6.099 -0.4465  0.4878 -1.0386
14125TIP3    H263867   1.338   4.308   6.092 -0.0145 -0.5111 -0.4684
14126TIP3   OH263868   2.401   3.660  13.548 -0.3201 -0.1163  0.1314
14126TIP3    H163869   2.355   3.623  13.624 -0.4830  0.7752  0.4727
14126TIP3    H263870   2.335   3.711  13.502  0.4440  1.7238  0.9867
14127TIP3   OH263871   2.490   5.114   6.068  0.3243 -0.0606 -0.2087
14127TIP3    H163872   2.448   5.052   6.009  0.5691  0.1478 -0.6029
14127TIP3    H263873   2.421   5.140   6.129  0.7529 -2.6100  1.5660
14128TIP3   OH263874   2.981   5.413  16.631  0.7123 -0.0701 -0.1557
14128TIP3    H163875   2.997   5.349  16.700 -0.0991  0.3118  0.3994
14128TIP3    H263876   2.953   5.361  16.556  0.6030 -0.4156  0.1203
14129TIP3   OH263877   4.595   0.525  16.685  1.1911 -0.3800  0.2372
14129TIP3    H163878   4.529   0.471  16.727 -1.7255  1.4330 -1.6861
14129TIP3    H263879   4.617   0.478  16.605 -0.5237  0.6129 -0.8832
14130TIP3   OH263880   4.650   5.849  13.185  0.1651  0.1249  0.3224
14130TIP3    H163881   4.727   5.898  13.214 -0.6647  1.7475 -0.1213
14130TIP3    H263882   4.645   5.775  13.246  0.2910  1.6966  2.3645
14131TIP3   OH263883   0.599   1.896  15.733  0.1741 -0.6554 -0.0180
14131TIP3    H163884   0.584   1.835  15.806 -1.6657  0.2386  0.4108
14131TIP3    H263885   0.618   1.980  15.776  1.1349 -0.5635 -0.5989
14132TIP3   OH263886   0.908   4.282  13.124 -0.8146 -0.1265  0.5444
14132TIP3    H163887   0.943   4.306  13.210  1.8660 -3.4594  0.6161
14132TIP3    H263888   0.981   4.295  13.064 -1.9744  0.1037 -0.8815
14133TIP3   OH263889   3.695   1.995  16.949  0.5340  0.4169  0.2001
14133TIP3    H163890   3.670   1.909  16.983 -0.1452  0.5248  0.0011
14133TIP3    H263891   3.732   2.041  17.024  1.0101 -0.0915  0.2809
14134TIP3   OH263892   0.004   3.354  16.517 -0.3093  0.1623 -0.4777
14134TIP3    H163893   0.031   3.343  16.426  2.1998 -0.5792  0.2576
14134TIP3    H263894   0.086   3.367  16.565 -1.4462 -0.5956  1.8421
14135TIP3   OH263895   1.419   6.509   4.454  0.0962 -0.7336  0.3176
14135TIP3    H163896   1.460   6.457   4.384 -0.7584 -0.8621 -0.0973
14135TIP3    H263897   1.325   6.495   4.442 -0.2602  1.8913 -0.6145
14136TIP3   OH263898   6.155   4.680   5.605  0.2927 -0.0690  0.3753
14136TIP3    H163899   6.225   4.729   5.648  1.0736 -1.5950  0.8901
14136TIP3    H263900   6.089   4.666   5.673  0.5503 -0.6424  0.5058
14137TIP3   OH263901   6.353   5.936   0.622  0.1264  0.1021  0.0608
14137TIP3    H163902   6.446   5.934   0.644  0.6783 -0.3763 -2.0581
14137TIP3    H263903   6.345   6.012   0.564 -0.2407 -1.2964 -1.8228
14138TIP3   OH263904   1.735   3.842   0.534  0.0125 -0.1712 -0.5088
14138TIP3    H163905   1.661   3.902   0.524  0.9068  1.0795  0.2422
14138TIP3    H263906   1.812   3.898   0.534  0.9372 -1.4035 -0.6622
14139TIP3   OH263907   3.982   6.661   1.490  0.0524 -0.2327  0.1292
14139TIP3    H163908   4.007   6.751   1.467 -1.0728  0.0891  0.0918
14139TIP3    H263909   4.051   6.632   1.550 -0.5071  1.3234  1.6099
14140TIP3   OH263910   2.003   0.941   1.216  0.7819 -0.3443  0.3493
14140TIP3    H163911   1.989   1.009   1.282  1.4526  1.6129 -1.4102
14140TIP3    H263912   1.948   0.968   1.142  1.4246 -1.4675 -0.5708
14141TIP3   OH263913   4.450   5.882  14.084  0.1711  0.0283 -0.3986
14141TIP3    H163914   4.419   5.863  14.172  0.1580 -0.7238 -0.5662
14141TIP3    H263915   4.374   5.917  14.039  0.0292 -0.1422 -0.2893
14142TIP3   OH263916   4.808   6.535  15.431  0.1501 -0.0807 -0.0072
14142TIP3    H163917   4.844   6.585  15.503  3.1251 -1.6913 -0.2141
14142TIP3    H263918   4.883   6.486  15.396 -1.6067 -1.0119 -2.8021
14143TIP3   OH263919   5.462   0.738  12.818 -0.3295 -0.5446  0.6087
14143TIP3    H163920   5.439   0.830  12.832 -2.3028 -0.9225  0.1967
14143TIP3    H263921   5.525   0.718  12.887 -0.7530  0.7952  1.4240
14144TIP3   OH263922   3.528   1.395   2.584  0.3316 -0.3138 -0.3108
14144TIP3    H163923   3.469   1.329   2.619  1.2471 -0.0402  1.9229
14144TIP3    H263924   3.473   1.451   2.529 -0.6006 -2.4464 -1.6643
14145TIP3   OH263925   5.981   6.775  15.501 -0.2402 -0.3105  0.2155
14145TIP3    H163926   6.033   6.723  15.563  1.1225 -2.5646 -2.5684
14145TIP3    H263927   6.041   6.844  15.471 -0.3241 -0.2540  0.1778
14146TIP3   OH263928   1.313   5.356   3.343 -0.0506 -0.1255 -0.1672
14146TIP3    H163929   1.231   5.356   3.292 -1.1538 -0.2783  1.5133
14146TIP3    H263930   1.298   5.291   3.412  0.7365  1.1831  1.3062
14147TIP3   OH263931   5.974   2.504   2.180 -0.2532 -0.5254  0.3231
14147TIP3    H163932   6.035   2.571   2.146  0.3072 -0.8064  0.7559
14147TIP3    H263933   5.911   2.554   2.231  1.7998 -0.5140  3.0849
14148TIP3   OH263934   4.690   4.585  16.333  0.0583  0.2655 -0.2624
14148TIP3    H163935   4.660   4.510  16.384 -0.3145  0.1894 -0.5840
14148TIP3    H263936   4.648   4.661  16.373 -0.4340  0.1788 -0.6033
14149TIP3   OH263937   4.591   3.357  16.121 -0.5236  0.2789 -0.3476
14149TIP3    H163938   4.621   3.327  16.036  2.6597 -0.3384  0.8433
14149TIP3    H263939   4.530   3.428  16.102 -1.8347 -1.4306 -3.1124
14150TIP3   OH263940   5.212   3.895   3.394 -0.1421 -0.5238  0.2587
14150TIP3    H163941   5.244   3.805   3.401  0.6810 -0.2646 -0.1139
14150TIP3    H263942   5.207   3.926   3.484 -1.7416 -1.3765  0.5124
14151TIP3   OH263943   1.708   3.302  11.550  0.2860 -0.1876 -0.5205
14151TIP3    H163944   1.722   3.344  11.635  1.8000  0.3896 -1.0146
14151TIP3    H263945   1.624   3.336  11.520  0.0735  0.1655  0.4271
14152TIP3   OH263946   1.330   1.136   2.916 -0.0619  0.2201 -0.2112
14152TIP3    H163947   1.314   1.097   2.830 -0.6527 -0.0238  0.0073
14152TIP3    H263948   1.249   1.184   2.936  0.1541  0.4501  0.1192
14153TIP3   OH263949   1.559   4.068  17.066  0.1880  0.0751  1.0814
14153TIP3    H163950   1.541   4.162  17.075 -0.1586 -0.0636  1.9404
14153TIP3    H263951   1.475   4.029  17.047  0.6985  0.1911 -1.7830
14154TIP3   OH263952   6.078   0.233   4.491 -0.5617 -0.6659  0.0238
14154TIP3    H163953   6.124   0.270   4.416 -0.4548  1.5649  1.0903
14154TIP3    H263954   6.140   0.240   4.564 -0.9416 -2.0202  0.5120
14155TIP3   OH263955   3.840   0.146  11.497 -0.2900  0.4146 -0.1262
14155TIP3    H163956   3.799   0.086  11.559  1.4910 -0.5653  0.1558
14155TIP3    H263957   3.786   0.139  11.418 -0.9641 -0.4420  0.3948
14156TIP3   OH263958   2.369   1.108  12.795 -0.4747  0.5645 -0.1831
14156TIP3    H163959   2.365   1.202  12.813 -3.2074  0.4559  0.2987
14156TIP3    H263960   2.280   1.085  12.768  0.5512 -1.5925 -2.1068
14157TIP3   OH263961   6.286   4.364  12.333 -0.2695 -0.1246 -0.0673
14157TIP3    H163962   6.328   4.354  12.419 -0.0885 -1.0071 -0.2403
14157TIP3    H263963   6.194   4.342  12.349 -0.1549 -0.6942 -0.1719
14158TIP3   OH263964   1.370   3.203  15.181  0.0932 -0.1964 -0.1709
14158TIP3    H163965   1.277   3.194  15.160 -0.2092  0.7320  0.6840
14158TIP3    H263966   1.376   3.286  15.228  0.7982 -1.7516  2.7348
14159TIP3   OH263967   5.970   5.569  12.290 -0.2958 -0.7398 -0.4998
14159TIP3    H163968   5.993   5.635  12.355 -0.3049 -0.9399 -0.2943
14159TIP3    H263969   6.003   5.487  12.325  1.5253 -0.5688 -1.6804
14160TIP3   OH263970   5.026   0.969   2.432  0.3062  0.1611  0.0806
14160TIP3    H163971   5.046   0.951   2.340  0.1737  0.5307 -0.0210
14160TIP3    H263972   5.075   0.902   2.480 -1.1576 -1.2809 -0.3323
14161TIP3   OH263973   5.911   3.326  14.223  0.0278  0.1397  0.0494
14161TIP3    H163974   6.000   3.323  14.256  0.4570 -0.2250 -1.0972
14161TIP3    H263975   5.885   3.418  14.229 -0.5154 -0.1007  2.8597
14162TIP3   OH263976   2.560   6.058   4.536 -0.6354  0.0940  0.2192
14162TIP3    H163977   2.489   6.113   4.502 -0.9697 -0.0060  0.7507
14162TIP3    H263978   2.578   5.995   4.465  0.7320  1.7508 -0.9918
14163TIP3   OH263979   4.934   1.045   1.936 -0.1601 -0.3667  0.1131
14163TIP3    H163980   4.884   0.967   1.911 -3.8952  1.8384 -0.1721
14163TIP3    H263981   4.974   1.076   1.855  0.1640 -1.1848 -0.0509
14164TIP3   OH263982   2.406   2.473  10.773  0.2336 -0.0417  0.1584
14164TIP3    H163983   2.408   2.568  10.778  0.0459  0.3933 -4.0324
14164TIP3    H263984   2.319   2.449  10.806 -0.5829  1.5103 -0.7353
14165TIP3   OH263985   3.338   5.167   1.022 -0.0892  0.2265  0.0121
14165TIP3    H163986   3.317   5.094   0.963 -0.4199  0.7980 -0.5923
14165TIP3    H263987   3.342   5.243   0.965  0.7966  0.6005  0.5608
14166TIP3   OH263988   0.797   1.738   4.306  0.3253  0.2421  0.2194
14166TIP3    H163989   0.888   1.744   4.277  0.9006 -0.0683  1.8684
14166TIP3    H263990   0.757   1.820   4.276  2.2884  2.4936  3.1970
14167TIP3   OH263991   5.750   5.183   4.260 -0.2157 -0.3244 -0.0558
14167TIP3    H163992   5.741   5.250   4.192  0.7075  2.3592  2.2291
14167TIP3    H263993   5.744   5.100   4.214 -1.8608  1.3002 -3.0528
14168TIP3   OH263994   0.724   4.177   3.189 -0.2911 -0.6608  0.0653
14168TIP3    H163995   0.711   4.136   3.103 -0.3666  0.4418 -0.4621
14168TIP3    H263996   0.679   4.261   3.182 -0.6409 -0.7300  1.3305
14169TIP3   OH263997   0.073   4.620   3.619 -0.1228 -0.2993 -0.4041
14169TIP3    H163998   0.119   4.563   3.557 -0.4585 -0.2618 -0.6944
14169TIP3    H263999   0.136   4.636   3.688  0.5892  0.4132 -1.1951
14170TIP3   OH264000   3.189   4.897   6.173  0.5037 -0.1481  0.1355
14170TIP3    H164001   3.270   4.878   6.220 -0.3815 -1.6799  1.1063
14170TIP3    H264002   3.164   4.985   6.202  1.1896 -0.1396  0.7211
14171TIP3   OH264003   3.615   0.147  16.336  0.1978 -0.2078  0.3105
14171TIP3    H164004   3.535   0.096  16.323  0.1286  0.2454 -1.2582
14171TIP3    H264005   3.593   0.211  16.403 -0.0757 -1.4440  1.4489
14172TIP3   OH264006   5.957   2.564   0.396  0.0118  0.2147 -0.0129
14172TIP3    H164007   5.945   2.626   0.468  0.1239 -0.9564  1.0462
14172TIP3    H264008   6.048   2.577   0.368  0.1011  0.3740  0.3484
14173TIP3   OH264009   0.893   6.253  14.330 -0.1784 -0.4739  0.2280
14173TIP3    H164010   0.942   6.330  14.302  2.1569 -0.4961  3.5583
14173TIP3    H264011   0.823   6.288  14.385  0.3669 -0.6648  1.0559
14174TIP3   OH264012   5.131   6.633   4.882 -0.3273  0.1819 -0.5134
14174TIP3    H164013   5.175   6.551   4.862  2.9942  1.6778  0.0576
14174TIP3    H264014   5.084   6.616   4.964 -0.5353 -1.3768 -0.9382
14175TIP3   OH264015   6.218   4.966  15.614  0.1582 -0.5828  0.0761
14175TIP3    H164016   6.221   4.877  15.648  1.4054 -1.1674 -1.4133
14175TIP3    H264017   6.270   4.962  15.533 -1.5509  1.0019 -1.1825
14176TIP3   OH264018   3.533   4.178   5.695  0.3695  0.0615  0.5988
14176TIP3    H164019   3.470   4.129   5.749 -0.7021  2.4042  1.6346
14176TIP3    H264020   3.618   4.161   5.736 -0.1108 -0.1585  1.5310
14177TIP3   OH264021   4.226   3.633   0.427  0.7073  0.0261 -0.8753
14177TIP3    H164022   4.133   3.623   0.449  1.3449 -1.8623  1.3622
14177TIP3    H264023   4.250   3.549   0.388  1.9714 -0.3635  0.6738
14178TIP3   OH264024   6.603   6.572  15.883  0.1143 -0.0975 -0.5252
14178TIP3    H164025   6.608   6.494  15.937 -1.0503 -0.0984 -0.3923
14178TIP3    H264026   6.610   6.645  15.945 -0.6992 -0.1000 -0.4219
14179TIP3   OH264027   5.165   1.333  11.203  0.4518  0.0395  0.1736
14179TIP3    H164028   5.150   1.427  11.193  0.4002 -0.1650 -2.1467
14179TIP3    H264029   5.196   1.304  11.117 -1.2634 -2.3852  0.2801
14180TIP3   OH264030   0.573   1.244   6.175 -0.4322  0.0736  0.2756
14180TIP3    H164031   0.568   1.333   6.211 -1.7623  0.3432 -0.5033
14180TIP3    H264032   0.550   1.187   6.249 -0.7088  0.4622  0.4945
14181TIP3   OH264033   5.840   5.694   5.388 -0.2380  0.2347 -0.0274
14181TIP3    H164034   5.822   5.732   5.302 -0.0357 -0.5881 -0.4362
14181TIP3    H264035   5.797   5.609   5.386 -0.1196  0.1547  0.6476
14182TIP3   OH264036   3.348   2.968   4.234  0.1959  0.2771  0.5357
14182TIP3    H164037   3.359   2.912   4.311  4.2295  0.7015  0.4869
14182TIP3    H264038   3.358   2.908   4.160 -0.7019  0.3318  0.3568
14183TIP3   OH264039   4.775   4.682  10.928 -0.4469 -0.0898  0.2913
14183TIP3    H164040   4.832   4.637  10.990 -1.5568  0.3992  1.7021
14183TIP3    H264041   4.743   4.612  10.870  1.7936 -0.3223 -0.7643
14184TIP3   OH264042   0.358   3.361  14.485  0.4351  0.3240  0.3790
14184TIP3    H164043   0.306   3.329  14.412 -1.3512  0.9118  1.3252
14184TIP3    H264044   0.312   3.330  14.563  0.5838  2.2018  1.2805
14185TIP3   OH264045   5.141   6.302  14.796 -0.0772  0.6442 -0.2447
14185TIP3    H164046   5.150   6.397  14.786 -0.0003  0.6117 -0.4956
14185TIP3    H264047   5.134   6.270  14.706  0.8738  0.3154 -0.2044
14186TIP3   OH264048   5.697   1.167   0.946 -0.9735 -0.2027 -0.0183
14186TIP3    H164049   5.779   1.216   0.943  1.1110 -3.3703 -0.7898
14186TIP3    H264050   5.646   1.208   1.015  1.4331  1.6692  0.7775
14187TIP3   OH264051   6.626   3.903  13.872 -0.4086  0.0024 -0.0395
14187TIP3    H164052   6.675   3.984  13.888  0.6149 -0.7593  0.8380
14187TIP3    H264053   6.604   3.871  13.960  1.0833 -1.7783 -0.2480
14188TIP3   OH264054   1.837   2.322  14.795 -0.4141 -0.4347  0.6415
14188TIP3    H164055   1.804   2.239  14.829  0.9455 -1.2041  0.1572
14188TIP3    H264056   1.897   2.297  14.724  2.4256  0.7522  2.4431
14189TIP3   OH264057   3.045   6.745  15.268 -0.3403  0.4403 -0.1330
14189TIP3    H164058   3.030   6.783  15.181 -0.4250 -0.9067 -0.7356
14189TIP3    H264059   3.128   6.782  15.297  0.9032 -0.8336 -1.8343
14190TIP3   OH264060   2.401   4.929  13.209 -0.1048  0.4718  0.1027
14190TIP3    H164061   2.429   4.842  13.181  0.9263  0.7619  0.2064
14190TIP3    H264062   2.349   4.913  13.288 -0.6681 -0.1079 -0.3629
14191TIP3   OH264063   4.161   1.060   3.426  0.1573  0.0369  0.3468
14191TIP3    H164064   4.152   1.065   3.331  2.3182 -2.9304 -0.1595
14191TIP3    H264065   4.207   1.140   3.450 -0.2194  0.7206 -1.1175
14192TIP3   OH264066   0.555   6.722   1.536 -0.3690 -0.5057 -0.2709
14192TIP3    H164067   0.584   6.757   1.621 -1.6791 -0.0651  0.0227
14192TIP3    H264068   0.567   6.628   1.543  2.5055 -0.2704 -0.7843
14193TIP3   OH264069   4.920   2.546   3.529  0.3475 -0.8937  0.0856
14193TIP3    H164070   5.004   2.564   3.571  0.7956  0.6124 -1.3567
14193TIP3    H264071   4.861   2.522   3.601  0.9601  1.9709  1.6690
14194TIP3   OH264072   4.301   3.104   2.441 -0.1741  0.6107  0.4013
14194TIP3    H164073   4.375   3.105   2.503  0.2393 -2.1729  0.0636
14194TIP3    H264074   4.341   3.123   2.356 -0.2350  1.3228  0.5258
14195TIP3   OH264075   6.576   6.787  13.368  0.0488  0.0674  0.4311
14195TIP3    H164076   6.644   6.721  13.379 -0.9214 -0.7846  1.4946
14195TIP3    H264077   6.614   6.850  13.305  1.5755 -0.6739  0.5630
14196TIP3   OH264078   1.648   0.760   2.110 -0.5514  0.1426 -0.0274
14196TIP3    H164079   1.693   0.760   2.026 -0.2109 -1.2492  0.1166
14196TIP3    H264080   1.699   0.820   2.165 -0.5426  0.7464 -0.6915
14197TIP3   OH264081   1.347   3.682  11.149 -0.7910 -0.0953 -0.2181
14197TIP3    H164082   1.257   3.650  11.144 -0.7776 -0.3293  0.7757
14197TIP3    H264083   1.338   3.775  11.172 -0.7864 -0.1556  0.0372
14198TIP3   OH264084   4.533   4.593  15.397  0.0800  0.0952  0.3209
14198TIP3    H164085   4.561   4.656  15.331  0.4719  0.8395  1.1702
14198TIP3    H264086   4.518   4.646  15.476 -2.9947 -0.3458  0.1672
14199TIP3   OH264087   5.866   2.214   1.118 -0.0035  0.1356  0.2206
14199TIP3    H164088   5.931   2.201   1.186  0.1661 -2.5768 -0.3367
14199TIP3    H264089   5.917   2.231   1.039 -0.0303 -0.2412  0.1190
14200TIP3   OH264090   0.812   1.724   3.905  0.2455  0.2361 -0.3911
14200TIP3    H164091   0.856   1.640   3.893  0.5556  0.5997 -1.9676
14200TIP3    H264092   0.884   1.785   3.924  0.1516  0.3784 -0.4994
14201TIP3   OH264093   5.680   4.600  12.453  0.2298  0.3052 -0.0091
14201TIP3    H164094   5.631   4.518  12.467  0.9134  0.2436  2.4599
14201TIP3    H264095   5.647   4.659  12.520  1.0029  1.4734 -0.6335
14202TIP3   OH264096   1.423   4.295  15.437  0.4923  0.1581 -0.6618
14202TIP3    H164097   1.505   4.256  15.405 -0.3015 -1.0953 -1.2228
14202TIP3    H264098   1.361   4.282  15.365 -0.9534 -1.4253  0.8019
14203TIP3   OH264099   5.867   0.936  11.747 -0.2062 -0.3770  0.1890
14203TIP3    H164100   5.953   0.953  11.784 -0.8889  0.6343  1.4377
14203TIP3    H264101   5.865   0.842  11.733  0.7942 -0.5389  0.9806
14204TIP3   OH264102   2.435   0.145   5.247 -0.5333 -0.6899  0.2005
14204TIP3    H164103   2.380   0.130   5.324 -0.2489  1.6751  0.9529
14204TIP3    H264104   2.498   0.211   5.275  1.2236 -1.5994 -1.3442
14205TIP3   OH264105   0.207   5.563  14.407  0.0401  0.2095  0.1337
14205TIP3    H164106   0.257   5.548  14.488  0.7444  0.0296 -0.3257
14205TIP3    H264107   0.200   5.476  14.367 -0.8994  0.1874  0.3332
14206TIP3   OH264108   2.221   2.016   1.257 -0.5253 -0.2360 -0.0664
14206TIP3    H164109   2.273   2.026   1.177 -1.4294  0.7809 -0.5528
14206TIP3    H264110   2.216   1.922   1.271 -0.3781 -0.4267 -1.2245
14207TIP3   OH264111   3.169   6.068  16.124 -0.1542 -0.2575 -0.6157
14207TIP3    H164112   3.091   6.121  16.140 -0.1959  0.1191 -1.9027
14207TIP3    H264113   3.231   6.096  16.191 -1.4991 -1.4187  1.1964
14208TIP3   OH264114   2.396   0.594   3.149  0.0808 -0.1335  0.8260
14208TIP3    H164115   2.339   0.573   3.223 -2.1423  1.0770 -0.4213
14208TIP3    H264116   2.445   0.671   3.178 -0.1210 -0.2001  1.3524
14209TIP3   OH264117   2.815   2.146   0.969  0.1144  0.4482  0.4087
14209TIP3    H164118   2.780   2.058   0.957  0.6196  0.2805  0.1601
14209TIP3    H264119   2.757   2.201   0.916  1.5928 -0.1295 -1.9620
14210TIP3   OH264120   6.105   3.667  14.962 -0.3407  0.2277 -0.1562
14210TIP3    H164121   6.038   3.679  15.029 -0.5613 -2.0040  0.1029
14210TIP3    H264122   6.176   3.725  14.989 -0.7998  0.0808  1.5011
14211TIP3   OH264123   1.669   1.086   3.749  0.1919  0.7308 -0.1911
14211TIP3    H164124   1.760   1.056   3.744 -0.3918 -0.8963 -3.5909
14211TIP3    H264125   1.618   1.005   3.758 -1.0200  1.5149  0.1729
14212TIP3   OH264126   1.362   3.160   3.555  0.4293 -0.7697  0.0817
14212TIP3    H164127   1.320   3.153   3.469  0.4221  0.1675 -0.0019
14212TIP3    H264128   1.441   3.107   3.547 -0.5635 -2.3503  0.1544
14213TIP3   OH264129   1.276   2.998   0.792 -0.3022 -0.2131 -0.1639
14213TIP3    H164130   1.297   3.089   0.811 -1.0203 -0.4267  1.9324
14213TIP3    H264131   1.360   2.953   0.794  0.1596  0.4732 -2.0055
14214TIP3   OH264132   3.412   4.890  11.770  0.0165 -0.3638  0.2792
14214TIP3    H164133   3.467   4.853  11.840 -1.6266 -0.6861  1.4472
14214TIP3    H264134   3.332   4.838  11.773  0.2819 -1.0800 -2.5873
14215TIP3   OH264135   3.580   6.545   1.421  0.0122  0.1646  0.2995
14215TIP3    H164136   3.601   6.459   1.387  2.1260  0.9771 -0.6153
14215TIP3    H264137   3.618   6.546   1.509  0.1450  0.2118  0.2423
14216TIP3   OH264138   2.300   5.723  11.709 -0.1140  0.2775  1.0882
14216TIP3    H164139   2.290   5.629  11.721 -0.7446 -0.0873 -1.7685
14216TIP3    H264140   2.334   5.733  11.620  0.1347  2.7561  1.3853
14217TIP3   OH264141   1.313   5.038  13.690  0.1779 -0.2811 -0.0787
14217TIP3    H164142   1.400   5.076  13.677 -0.0773  0.4107  0.1450
14217TIP3    H264143   1.317   4.953  13.647  0.9553 -0.2466 -0.0942
14218TIP3   OH264144   5.957   5.733   3.822 -0.2550  0.0849  0.1065
14218TIP3    H164145   5.908   5.803   3.865 -0.3522 -0.7568  1.3896
14218TIP3    H264146   6.036   5.776   3.790 -0.7797  0.9888 -0.0354
14219TIP3   OH264147   3.522   5.696   3.773  0.7947 -0.0964 -0.1806
14219TIP3    H164148   3.485   5.765   3.828 -0.5706  0.1201 -1.3219
14219TIP3    H264149   3.496   5.614   3.816  1.8328  0.0542  0.7966
14220TIP3   OH264150   3.856   3.864   3.776  0.5732 -1.0474  0.2244
14220TIP3    H164151   3.873   3.892   3.866  0.0892  0.4722 -0.1235
14220TIP3    H264152   3.768   3.827   3.779 -0.2921  0.8570  0.0491
14221TIP3   OH264153   4.352   3.652   0.682 -0.7226 -0.4256  0.3670
14221TIP3    H164154   4.432   3.698   0.656 -0.5826 -0.1650  1.2431
14221TIP3    H264155   4.312   3.627   0.599  0.6209 -1.1924 -0.0831
14222TIP3   OH264156   4.871   2.704   5.645  0.3750  0.2982  0.4852
14222TIP3    H164157   4.855   2.622   5.598 -0.1856 -0.3407  1.7331
14222TIP3    H264158   4.956   2.734   5.614  0.1056 -0.2044 -0.7702
14223TIP3   OH264159   6.787   1.844  11.244 -0.5104  0.4763 -0.4232
14223TIP3    H164160   6.876   1.817  11.223 -1.3337 -1.5567 -1.6087
14223TIP3    H264161   6.747   1.862  11.158 -1.5263  0.2893 -0.0066
14224TIP3   OH264162   4.404   3.579  16.074  0.8237 -0.2155  0.2649
14224TIP3    H164163   4.310   3.587  16.095  0.4061 -1.4591 -1.0112
14224TIP3    H264164   4.438   3.668  16.086 -0.3222  0.0812  1.6065
14225TIP3   OH264165   5.491   4.941  16.373  0.2568 -0.2544  0.2524
14225TIP3    H164166   5.444   4.925  16.291  1.5412 -0.5212 -0.4532
14225TIP3    H264167   5.440   4.895  16.439  0.4266 -1.9612 -0.7562
14226TIP3   OH264168   1.862   1.754   2.533  0.3827 -0.1321  0.3474
14226TIP3    H164169   1.900   1.697   2.466  1.5710  0.1069  0.7834
14226TIP3    H264170   1.807   1.696   2.586  0.9709 -0.7161  0.3262
14227TIP3   OH264171   1.148   6.321  14.617  0.1255  0.0810  0.1687
14227TIP3    H164172   1.125   6.326  14.710 -1.8824 -0.0248 -0.2833
14227TIP3    H264173   1.082   6.375  14.573  0.9804  0.0389 -1.2098
14228TIP3   OH264174   4.050   2.924  10.648  0.2126  0.0352  1.2532
14228TIP3    H164175   4.124   2.885  10.601 -0.4750  0.5261 -0.3157
14228TIP3    H264176   3.979   2.860  10.636 -0.3562  0.7929  0.3771
14229TIP3   OH264177   6.206   3.161   2.377  0.0810 -0.5251  0.2444
14229TIP3    H164178   6.238   3.251   2.365 -0.1732 -0.4302  0.2630
14229TIP3    H264179   6.132   3.171   2.436  0.2097 -0.7800  0.4486
14230TIP3   OH264180   1.931   2.726  12.806 -0.0319 -0.3448 -0.1908
14230TIP3    H164181   2.012   2.691  12.843  0.4439  1.1024  0.1857
14230TIP3    H264182   1.934   2.819  12.825 -0.7999  0.0982 -1.9979
14231TIP3   OH264183   1.206   6.527   2.591  0.2121  0.4717 -0.4121
14231TIP3    H164184   1.301   6.517   2.587  0.0476 -1.0541 -1.1344
14231TIP3    H264185   1.171   6.441   2.567 -1.3556  0.6764  0.9299
14232TIP3   OH264186   2.924   6.605  13.302  0.2142 -0.4201 -0.1616
14232TIP3    H164187   2.830   6.613  13.320  0.2124  0.7913 -0.6888
14232TIP3    H264188   2.936   6.512  13.280 -0.8717 -0.5646 -0.1827
14233TIP3   OH264189   3.256   0.195   4.369 -0.2098  0.4116  0.2064
14233TIP3    H164190   3.287   0.131   4.305 -0.2017 -0.5939  1.1777
14233TIP3    H264191   3.320   0.190   4.440  0.6974  2.6907 -0.3717
14234TIP3   OH264192   3.433   4.296  14.480 -0.1453 -0.4382 -0.4677
14234TIP3    H164193   3.392   4.210  14.476 -0.9860 -0.1405  1.0345
14234TIP3    H264194   3.440   4.324  14.389 -0.2822 -1.8821 -0.9454
14235TIP3   OH264195   0.410   2.334  16.221 -0.3264 -0.0282  0.1981
14235TIP3    H164196   0.363   2.358  16.300 -1.2368  0.8712 -0.5853
14235TIP3    H264197   0.425   2.418  16.176  2.9153 -0.1129  0.8563
14236TIP3   OH264198   3.200   5.367   5.432 -0.1499 -0.3115 -0.1233
14236TIP3    H164199   3.155   5.298   5.383 -0.9876  0.9127 -1.1242
14236TIP3    H264200   3.156   5.367   5.518  2.3629 -3.5403  1.4051
14237TIP3   OH264201   5.984   0.216  13.857 -0.1862 -0.5686  0.3006
14237TIP3    H164202   5.988   0.140  13.800  0.4118  0.5524 -1.2346
14237TIP3    H264203   6.055   0.203  13.920  1.6084 -0.1240 -1.5271
14238TIP3   OH264204   4.964   3.216  15.270 -0.2118  0.5633 -0.0655
14238TIP3    H164205   4.949   3.311  15.270  1.3166  0.8759  2.3141
14238TIP3    H264206   4.992   3.197  15.180  1.0669  2.6947 -0.1977
14239TIP3   OH264207   3.806   4.524  13.765 -0.1180  0.1860 -0.1446
14239TIP3    H164208   3.826   4.590  13.831 -0.7922 -0.7401  1.0311
14239TIP3    H264209   3.753   4.460  13.812  0.5869 -1.2321 -1.2323
14240TIP3   OH264210   2.828   6.269  11.290 -0.6210 -0.2351 -0.0216
14240TIP3    H164211   2.868   6.262  11.377 -2.5886 -2.0782  0.8040
14240TIP3    H264212   2.734   6.261  11.306 -1.1013  0.2623 -2.2663
14241TIP3   OH264213   1.708   5.803  13.468 -0.1949 -0.0101 -0.5194
14241TIP3    H164214   1.656   5.836  13.394  0.5414 -1.3921 -1.6927
14241TIP3    H264215   1.799   5.817  13.442  0.0665  0.4885  0.6158
14242TIP3   OH264216   5.794   2.878  15.347  0.4428  0.4712  0.4510
14242TIP3    H164217   5.713   2.834  15.319 -0.8118  0.4391  3.6974
14242TIP3    H264218   5.863   2.832  15.299 -1.2946 -0.7042 -1.1012
14243TIP3   OH264219   4.539   1.597  12.098 -0.4554  0.1623 -0.3074
14243TIP3    H164220   4.474   1.559  12.157 -0.0877  0.3888  0.2563
14243TIP3    H264221   4.504   1.684  12.076  0.8157  1.3594  2.0429
14244TIP3   OH264222   3.733   0.281  11.209 -0.5250 -0.0730  0.3322
14244TIP3    H164223   3.724   0.340  11.285  1.4445  1.8217 -0.8035
14244TIP3    H264224   3.799   0.323  11.154 -1.0680 -1.9827 -1.9089
14245TIP3   OH264225   3.851   0.598  11.864 -0.5145 -0.2838 -0.0236
14245TIP3    H164226   3.765   0.556  11.868 -1.3463  1.3508  0.1843
14245TIP3    H264227   3.850   0.661  11.936 -0.3912  1.9683 -1.8857
14246TIP3   OH264228   4.845   0.587  16.390  0.3292  0.3206 -0.3094
14246TIP3    H164229   4.919   0.546  16.345  0.3764 -1.0582  0.9407
14246TIP3    H264230   4.794   0.513  16.423 -0.7699  1.2779  0.1910
14247TIP3   OH264231   2.301   2.705  15.252  0.0870 -0.5847  0.5748
14247TIP3    H164232   2.220   2.727  15.205  0.8757  0.0049 -0.5809
14247TIP3    H264233   2.347   2.644  15.194  1.6298  1.0590 -0.0536
14248TIP3   OH264234   3.613   1.295  12.037 -0.4031 -0.1833 -0.4380
14248TIP3    H164235   3.534   1.312  11.986 -0.5412 -0.6696 -0.3940
14248TIP3    H264236   3.593   1.327  12.125  0.3459  1.9756 -0.9976
14249TIP3   OH264237   5.907   2.373   4.818  0.0735 -0.1080 -0.2997
14249TIP3    H164238   5.927   2.338   4.732  2.3290  1.5310 -0.5253
14249TIP3    H264239   5.853   2.305   4.860 -1.4391 -0.7541 -3.0867
14250TIP3   OH264240   4.503   3.646   0.293  0.0872 -0.6879  0.0898
14250TIP3    H164241   4.523   3.573   0.351  0.3169  1.0875  2.3975
14250TIP3    H264242   4.477   3.605   0.211  0.9794 -3.3211  1.0061
14251TIP3   OH264243   3.793   2.079   1.142  0.0759 -0.4051 -0.5756
14251TIP3    H164244   3.830   2.167   1.130 -2.4227  0.8227  0.0681
14251TIP3    H264245   3.857   2.033   1.197  0.6740  1.5468  0.4436
14252TIP3   OH264246   5.641   5.754   3.446 -0.2790  0.0904  0.0037
14252TIP3    H164247   5.599   5.685   3.394 -0.5474  0.2530  0.0057
14252TIP3    H264248   5.586   5.831   3.432 -0.1772  0.2137  0.2855
14253TIP3   OH264249   5.726   1.852   1.808  0.1499  0.2432 -0.4134
14253TIP3    H164250   5.707   1.888   1.722  0.3855  0.9706 -0.1714
14253TIP3    H264251   5.668   1.775   1.816  0.5672 -0.1885 -1.4483
14254TIP3   OH264252   5.469   2.011  12.502 -0.1434  0.0678 -0.2838
14254TIP3    H164253   5.441   1.946  12.438  0.4166  0.0255 -0.4932
14254TIP3    H264254   5.389   2.059  12.525 -0.8987 -1.7602  1.1296
14255TIP3   OH264255   1.985   4.314  16.499 -0.0920  0.0574 -0.0148
14255TIP3    H164256   2.042   4.238  16.491 -0.2867 -0.0588 -0.2970
14255TIP3    H264257   1.904   4.280  16.538 -0.4684 -0.0294 -0.8427
14256TIP3   OH264258   1.474   6.220   1.293  0.0696  0.0791 -0.7906
14256TIP3    H164259   1.464   6.128   1.317  0.9563  0.1434 -0.1196
14256TIP3    H264260   1.403   6.237   1.231 -2.3255 -0.1185  1.7109
14257TIP3   OH264261   1.563   0.349  12.754 -0.0158 -0.0195 -0.1606
14257TIP3    H164262   1.481   0.301  12.748 -0.2242  0.2722  0.2725
14257TIP3    H264263   1.537   0.439  12.774  0.3835  0.2048 -0.6427
14258TIP3   OH264264   3.588   0.271   5.885 -0.0318  0.1771  0.1710
14258TIP3    H164265   3.674   0.233   5.867 -0.2916 -0.2286 -0.2131
14258TIP3    H264266   3.560   0.230   5.966 -1.6069 -2.7393 -1.6932
14259TIP3   OH264267   5.578   4.478   3.428 -0.6715 -0.1489  0.3089
14259TIP3    H164268   5.541   4.546   3.372  1.5261  1.0481  0.2093
14259TIP3    H264269   5.591   4.403   3.370  0.1588  0.5666 -0.4678
14260TIP3   OH264270   0.359   1.141   3.899 -0.2527 -0.8061  0.5149
14260TIP3    H164271   0.372   1.192   3.819  2.7910 -1.9104  0.1841
14260TIP3    H264272   0.324   1.204   3.962 -0.0577  0.7741 -0.8946
14261TIP3   OH264273   6.576   2.803  15.806  0.3849  0.6739 -0.3741
14261TIP3    H164274   6.534   2.757  15.733  1.0915  0.4066 -0.6164
14261TIP3    H264275   6.595   2.891  15.772  0.5068  0.6227 -0.4387
14262TIP3   OH264276   3.021   3.454   3.384 -0.4360 -0.3440  0.3668
14262TIP3    H164277   2.994   3.521   3.447  1.4371 -0.5206  1.4345
14262TIP3    H264278   2.995   3.372   3.425  0.2535 -0.4265  0.6557
14263TIP3   OH264279   0.931   5.463   1.439 -0.0381  0.6244 -0.7856
14263TIP3    H164280   1.012   5.415   1.455  0.8106  1.5703 -2.0794
14263TIP3    H264281   0.862   5.400   1.459  1.0018 -0.2041  0.3179
14264TIP3   OH264282   1.045   1.085  15.437 -0.1925 -0.4608  0.3527
14264TIP3    H164283   1.135   1.116  15.440  0.3044 -1.6700 -1.0290
14264TIP3    H264284   1.005   1.133  15.365  0.7031 -3.1589 -2.0847
14265TIP3   OH264285   3.101   3.292  17.247  0.0083  0.6670  0.1901
14265TIP3    H164286   3.180   3.238  17.244  0.1789  0.9609 -1.5837
14265TIP3    H264287   3.033   3.239  17.205 -0.1734  1.2758 -0.3053
14266TIP3   OH264288   5.149   2.522  12.931  0.5280  0.1619  0.8903
14266TIP3    H164289   5.109   2.563  13.007 -0.5798 -0.5481  0.7260
14266TIP3    H264290   5.201   2.591  12.890 -1.2755  1.4288  0.6045
14267TIP3   OH264291   6.789   2.880   3.976 -0.5272 -0.5453  0.0635
14267TIP3    H164292   6.873   2.908   3.938 -0.2748 -1.5142 -0.1091
14267TIP3    H264293   6.813   2.835   4.057 -0.8252 -1.5070 -0.3758
14268TIP3   OH264294   4.060   6.009  15.413 -0.0372 -0.0095  0.4149
14268TIP3    H164295   4.102   5.956  15.481 -0.8721  0.1663  1.0745
14268TIP3    H264296   3.970   6.021  15.443 -0.0715  1.1570 -0.0883
14269TIP3   OH264297   1.545   3.367   4.275 -0.1775 -0.2364  0.4255
14269TIP3    H164298   1.621   3.308   4.267 -0.3749 -0.5497  0.8243
14269TIP3    H264299   1.524   3.366   4.368 -1.2330 -0.8714  0.1971
14270TIP3   OH264300   5.003   1.889   3.046 -0.4948 -0.3114  0.0168
14270TIP3    H164301   5.031   1.885   2.955 -0.8461 -0.5740 -0.0789
14270TIP3    H264302   4.908   1.888   3.042 -0.5312  0.7003  0.3356
14271TIP3   OH264303   2.602   0.353   0.899 -0.2017  0.2103  0.3531
14271TIP3    H164304   2.586   0.259   0.898  1.6162 -0.1821 -2.0768
14271TIP3    H264305   2.551   0.387   0.825 -0.3315  1.0547  0.8129
14272TIP3   OH264306   2.354   2.744   0.134  0.2306 -0.0502 -0.4612
14272TIP3    H164307   2.431   2.731   0.190 -1.6037  0.7414  2.4711
14272TIP3    H264308   2.358   2.837   0.110  0.9873 -0.3764 -1.6562
14273TIP3   OH264309   3.770   0.752  16.102  0.2297  0.0701 -0.2822
14273TIP3    H164310   3.849   0.792  16.064 -0.2709  2.1810  0.7485
14273TIP3    H264311   3.703   0.764  16.035  0.8653 -2.4884 -1.5231
14274TIP3   OH264312   5.978   1.216  14.496 -0.3415  0.5656 -0.1448
14274TIP3    H164313   5.909   1.282  14.502 -0.7055  0.1719  0.0010
14274TIP3    H264314   5.965   1.160  14.572  2.4187  2.6316  2.0999
14275TIP3   OH264315   3.726   3.936  15.894  0.1706  0.0833 -0.2328
14275TIP3    H164316   3.688   3.970  15.974 -3.7887 -1.2943 -1.2885
14275TIP3    H264317   3.749   4.014  15.843  0.2928  0.9766  1.1363
14276TIP3   OH264318   1.179   3.737   5.717 -0.0677  0.6509 -0.2025
14276TIP3    H164319   1.146   3.694   5.796  0.1609  0.7986 -0.0245
14276TIP3    H264320   1.253   3.788   5.748 -0.1173  0.8868 -0.4765
14277TIP3   OH264321   6.010   3.843   5.656  0.1199 -0.4475  0.3259
14277TIP3    H164322   5.935   3.825   5.714  0.0504  1.0421  0.7235
14277TIP3    H264323   6.058   3.913   5.699  1.4985 -1.0392 -0.1778
14278TIP3   OH264324   4.364   4.458   4.837  0.5632  0.0809  0.0414
14278TIP3    H164325   4.332   4.548   4.831  0.3865 -0.0250 -0.6709
14278TIP3    H264326   4.314   4.420   4.909  0.7406  0.5877  0.4422
14279TIP3   OH264327   2.217   0.662  14.858  0.6325  0.0609 -0.0989
14279TIP3    H164328   2.292   0.666  14.919  0.8170  0.7675 -0.3625
14279TIP3    H264329   2.247   0.709  14.781  1.1257 -2.4751 -1.5674
14280TIP3   OH264330   6.682   2.968  12.092  0.1755 -0.0350  0.7854
14280TIP3    H164331   6.732   3.047  12.072 -1.3715  0.8133  0.0093
14280TIP3    H264332   6.594   2.988  12.060 -0.1611 -2.2435  0.2047
14281TIP3   OH264333   3.595   4.069   5.313 -0.0048 -0.0911 -0.4163
14281TIP3    H164334   3.596   3.988   5.262  0.4558 -0.6026  0.3834
14281TIP3    H264335   3.664   4.057   5.379  2.3006  2.2223 -2.2171
14282TIP3   OH264336   1.238   2.542   2.641 -0.3412 -0.3410 -0.1564
14282TIP3    H164337   1.155   2.534   2.594 -0.6013 -0.6956  0.3491
14282TIP3    H264338   1.292   2.470   2.608 -0.6198 -0.7542  0.2664
14283TIP3   OH264339   2.513   1.717   3.791  0.2100  0.2352 -0.4935
14283TIP3    H164340   2.565   1.670   3.726 -1.3547  0.6651 -2.1170
14283TIP3    H264341   2.528   1.809   3.773 -0.2789  0.3602 -0.2837
14284TIP3   OH264342   5.050   4.082  11.866  0.6301 -0.2684 -0.2252
14284TIP3    H164343   5.014   3.997  11.843  1.0524 -0.3625 -0.5560
14284TIP3    H264344   5.094   4.068  11.950 -1.1909  0.1515  0.8521
14285TIP3   OH264345   4.312   4.135  15.590  0.4359  0.2486 -0.3435
14285TIP3    H164346   4.301   4.070  15.659 -0.2530 -0.5109 -1.1504
14285TIP3    H264347   4.341   4.214  15.636 -0.2183 -0.1735  0.8303
14286TIP3   OH264348   1.269   5.111  11.589  0.4227  0.2618 -0.3278
14286TIP3    H164349   1.345   5.100  11.531  1.0474  1.4867  0.2285
14286TIP3    H264350   1.306   5.101  11.677 -0.3557 -0.6589 -0.0876
14287TIP3   OH264351   5.526   6.707  15.448  0.0325 -0.2355  0.2824
14287TIP3    H164352   5.603   6.650  15.447 -0.4794 -1.0274  2.0271
14287TIP3    H264353   5.555   6.787  15.403  1.2730 -1.2291 -0.7453
14288TIP3   OH264354   5.821   6.172  16.870 -0.1872 -0.2907  0.5009
14288TIP3    H164355   5.746   6.222  16.901 -0.1656 -0.8106  1.4169
14288TIP3    H264356   5.819   6.091  16.921  0.3109 -0.8300 -0.3085
14289TIP3   OH264357   5.620   5.140  15.642  0.6610  0.0213  0.5222
14289TIP3    H164358   5.683   5.089  15.693  0.6022  0.8311  1.4413
14289TIP3    H264359   5.672   5.209  15.601  1.0507 -1.7735 -2.2148
14290TIP3   OH264360   1.166   5.689   4.394  0.2594 -0.0634 -0.1542
14290TIP3    H164361   1.229   5.642   4.448 -0.4763  0.4147  1.1546
14290TIP3    H264362   1.081   5.655   4.420 -0.0482 -1.5315 -2.7009
14291TIP3   OH264363   2.598   6.096   3.595 -0.3442  0.1366 -0.0772
14291TIP3    H164364   2.507   6.065   3.594 -0.4868 -0.0997  4.0251
14291TIP3    H264365   2.592   6.186   3.563 -2.4989  0.8710  2.0526
14292TIP3   OH264366   3.705   4.598   5.559  0.1539  0.3754 -0.0127
14292TIP3    H164367   3.657   4.676   5.587  0.2658  1.0645 -1.6471
14292TIP3    H264368   3.796   4.618   5.581  0.0305  0.1455  0.7455
14293TIP3   OH264369   6.366   3.305  15.678  0.1890  0.2337  0.5599
14293TIP3    H164370   6.377   3.330  15.587  3.2400 -0.4939  0.6203
14293TIP3    H264371   6.401   3.380  15.728  0.6385 -0.2846  1.0351
14294TIP3   OH264372   4.021   2.732   3.709 -0.2006  0.5776 -0.0454
14294TIP3    H164373   4.001   2.653   3.660 -1.2501  1.1812 -0.6429
14294TIP3    H264374   4.115   2.729   3.724 -0.0014 -0.0474 -1.3517
14295TIP3   OH264375   1.180   5.481  13.983 -0.0901 -0.3846  0.4903
14295TIP3    H164376   1.231   5.538  14.040 -2.6907  2.0645  0.5649
14295TIP3    H264377   1.143   5.415  14.042  0.8120 -0.5993  0.8387
14296TIP3   OH264378   5.629   3.593   2.535 -0.1022 -0.1172 -0.1132
14296TIP3    H164379   5.687   3.579   2.460 -1.3558  1.7454 -1.5417
14296TIP3    H264380   5.541   3.591   2.497 -0.7664  0.8857  1.3080
14297TIP3   OH264381   4.410   2.356   1.245 -0.3452  0.6149 -0.3497
14297TIP3    H164382   4.338   2.418   1.261  0.4947  1.8481 -1.2134
14297TIP3    H264383   4.369   2.286   1.194 -0.9089  1.3984 -1.0114
14298TIP3   OH264384   0.223   2.473  11.237 -0.3654  0.1249 -0.0809
14298TIP3    H164385   0.246   2.548  11.182  2.6991  0.0537  0.8918
14298TIP3    H264386   0.259   2.398  11.191 -0.9720 -0.4098  0.3023
14299TIP3   OH264387   4.398   2.942   2.890 -1.1173  0.0848 -0.3696
14299TIP3    H164388   4.481   2.914   2.851 -0.6209  1.2932 -0.2327
14299TIP3    H264389   4.387   2.885   2.966 -0.4721 -0.1682 -0.4578
14300TIP3   OH264390   1.250   6.158   0.518 -0.2238 -0.3540 -0.3167
14300TIP3    H164391   1.161   6.145   0.553  0.4627  0.5526  1.9364
14300TIP3    H264392   1.307   6.123   0.586  1.2192  1.4607 -0.5381
14301TIP3   OH264393   6.073   4.984   5.887 -0.2644 -0.3371  0.3837
14301TIP3    H164394   5.991   4.947   5.921 -1.3135 -0.4651 -2.1078
14301TIP3    H264395   6.058   4.995   5.793  2.8364 -1.0094 -0.2965
14302TIP3   OH264396   6.591   6.813   4.217  0.0545 -0.1778 -0.2083
14302TIP3    H164397   6.657   6.743   4.218  0.6528  0.3477  1.4631
14302TIP3    H264398   6.603   6.858   4.301 -1.5398  0.7933 -0.4573
14303TIP3   OH264399   2.366   6.252   4.824  0.4767  0.2946  0.4426
14303TIP3    H164400   2.345   6.298   4.743 -0.9406 -0.1768  0.5177
14303TIP3    H264401   2.309   6.174   4.823  1.6814 -0.6354  1.0564
14304TIP3   OH264402   3.926   2.690  15.521 -0.1043 -0.0747  0.2661
14304TIP3    H164403   4.000   2.750  15.533  1.5689 -2.0325  0.2755
14304TIP3    H264404   3.929   2.633  15.598 -2.7562  0.8462  1.1671
14305TIP3   OH264405   3.312   6.757   4.197 -0.0267  0.1003  0.7122
14305TIP3    H164406   3.377   6.713   4.142  1.1952  1.2061  1.2302
14305TIP3    H264407   3.248   6.689   4.218 -1.5071 -0.0794 -3.3664
14306TIP3   OH264408   0.884   3.700  14.789  0.2024 -0.6806 -0.2601
14306TIP3    H164409   0.937   3.764  14.741  0.6810  0.2543  1.4388
14306TIP3    H264410   0.880   3.624  14.731  0.5387  0.4772 -1.8752
14307TIP3   OH264411   2.713   1.529  13.829  0.6225 -0.1760  0.4594
14307TIP3    H164412   2.718   1.434  13.821  0.5508 -0.2056  0.7557
14307TIP3    H264413   2.717   1.561  13.739  0.4626 -0.4680  0.3484
14308TIP3   OH264414   6.087   3.562  15.940 -0.3459  0.8254 -0.0207
14308TIP3    H164415   6.102   3.561  16.034 -0.8056  1.2983  0.0609
14308TIP3    H264416   6.141   3.635  15.909  0.4394  0.1670 -0.2401
14309TIP3   OH264417   2.927   4.688  17.087 -0.1010 -0.4805 -0.1803
14309TIP3    H164418   2.834   4.696  17.065 -0.5984 -2.2340  1.0411
14309TIP3    H264419   2.970   4.668  17.004 -0.9024 -0.1757 -0.6735
14310TIP3   OH264420   4.864   5.737   2.633  1.0071  0.4660 -0.0648
14310TIP3    H164421   4.799   5.687   2.682  0.8395 -0.0486 -0.7971
14310TIP3    H264422   4.814   5.782   2.565  1.2256  1.2389  0.2825
14311TIP3   OH264423   0.567   1.634  16.216 -0.2035 -0.4405 -0.2210
14311TIP3    H164424   0.578   1.651  16.309  1.2814 -2.9973  0.1714
14311TIP3    H264425   0.637   1.685  16.174 -0.2732 -0.0353  0.1510
14312TIP3   OH264426   1.931   2.847   5.242  0.2648 -0.2105  0.5475
14312TIP3    H164427   2.005   2.794   5.273 -0.6414 -1.4704  0.6624
14312TIP3    H264428   1.889   2.878   5.323  0.9633  0.9532  0.4758
14313TIP3   OH264429   1.552   5.301   0.775 -0.9589  0.4799  0.2389
14313TIP3    H164430   1.533   5.212   0.806  0.6097 -0.5104 -1.4169
14313TIP3    H264431   1.545   5.294   0.680 -0.2516  1.9950  0.0555
14314TIP3   OH264432   3.111   5.121  12.991 -0.1516 -0.7516 -0.0202
14314TIP3    H164433   3.138   5.197  12.938  1.1284 -0.4216  1.0280
14314TIP3    H264434   3.177   5.117  13.061 -0.8701 -2.1406  0.6116
14315TIP3   OH264435   4.402   4.700   3.198  0.4731  0.5313 -0.2345
14315TIP3    H164436   4.315   4.720   3.234 -0.0249 -0.7447 -0.6783
14315TIP3    H264437   4.384   4.662   3.112  1.5428  1.3595 -0.8438
14316TIP3   OH264438   6.750   4.530  16.450 -0.0208  0.3212  0.2315
14316TIP3    H164439   6.842   4.552  16.433 -0.0314  1.8970  1.9015
14316TIP3    H264440   6.741   4.440  16.417  1.6930  0.6567 -1.3426
14317TIP3   OH264441   1.140   5.097  13.899 -0.3063  0.2229 -0.1893
14317TIP3    H164442   1.070   5.147  13.857  0.5183  0.4610 -1.3065
14317TIP3    H264443   1.199   5.072  13.828  0.7413  0.0127  0.7179
14318TIP3   OH264444   1.501   5.483  11.873  0.1425 -0.7779 -0.6385
14318TIP3    H164445   1.563   5.437  11.929  3.5141  2.6013 -1.1813
14318TIP3    H264446   1.551   5.507  11.795 -2.4563  0.4123 -2.1078
14319TIP3   OH264447   1.271   0.589   1.454  0.1294  0.2744 -0.3646
14319TIP3    H164448   1.320   0.512   1.426 -0.9184 -0.3987 -0.4221
14319TIP3    H264449   1.337   0.655   1.471  1.1548 -0.9679  0.7630
14320TIP3   OH264450   6.056   0.378   1.325 -0.2725 -0.3935 -0.4526
14320TIP3    H164451   6.078   0.296   1.280 -2.5158 -0.9142 -0.6826
14320TIP3    H264452   6.029   0.351   1.413 -0.0570  0.2235 -0.1876
14321TIP3   OH264453   6.806   1.153   0.163  0.4213 -0.7239  0.5898
14321TIP3    H164454   6.826   1.172   0.255  0.5896  1.2183  0.1771
14321TIP3    H264455   6.732   1.210   0.142  2.1288  0.9522 -1.2376
14322TIP3   OH264456   2.272   3.767   3.845  0.1206  0.3000 -0.4675
14322TIP3    H164457   2.177   3.757   3.854  0.3196 -0.1272  1.6394
14322TIP3    H264458   2.308   3.722   3.922  2.0610  0.1012 -1.4363
14323TIP3   OH264459   0.776   6.415  14.902  0.1239 -0.6516  0.2870
14323TIP3    H164460   0.727   6.359  14.842 -1.2706  0.1599  0.6316
14323TIP3    H264461   0.794   6.494  14.852  2.0464 -1.3209 -0.1790
14324TIP3   OH264462   6.619   3.171  13.617 -0.3241 -0.4862  0.1532
14324TIP3    H164463   6.635   3.216  13.533 -0.2437  0.2212  0.5410
14324TIP3    H264464   6.528   3.192  13.638 -0.2112 -0.2914  0.4574
14325TIP3   OH264465   5.415   1.126   0.287  0.5417  0.0738  0.3528
14325TIP3    H164466   5.393   1.195   0.225 -1.8419  0.2640  1.3215
14325TIP3    H264467   5.391   1.161   0.373  0.9469 -1.3072  1.0704
14326TIP3   OH264468   3.588   4.668   1.649 -0.5825  0.4947 -0.7844
14326TIP3    H164469   3.527   4.696   1.717  0.3316  1.7197 -0.4347
14326TIP3    H264470   3.582   4.736   1.582  0.7241  0.8958 -0.5214
14327TIP3   OH264471   2.707   4.453   6.039 -0.0801 -0.7920 -0.0876
14327TIP3    H164472   2.766   4.522   6.011 -0.7060 -1.0309 -2.1556
14327TIP3    H264473   2.682   4.478   6.128  0.8489  0.8427 -0.2406
14328TIP3   OH264474   6.277   1.163  15.719 -0.4518 -0.2119  0.6547
14328TIP3    H164475   6.362   1.208  15.715  0.2042 -1.4862 -0.9205
14328TIP3    H264476   6.213   1.234  15.728  0.6197  0.9616 -0.5263
14329TIP3   OH264477   1.316   2.026  15.425  0.2151 -0.2177  0.0381
14329TIP3    H164478   1.397   2.055  15.385 -1.6866  1.4709 -3.0170
14329TIP3    H264479   1.328   1.933  15.442  2.8774  0.0796  0.1162
14330TIP3   OH264480   4.213   4.293  12.365 -0.2913  0.2513 -0.1056
14330TIP3    H164481   4.275   4.247  12.309  1.4426  1.2209  0.9105
14330TIP3    H264482   4.268   4.341  12.428 -1.9835  2.6746 -0.3048
14331TIP3   OH264483   3.788   3.246   2.801  0.4013  1.0784 -0.0861
14331TIP3    H164484   3.850   3.318   2.813 -1.0148  2.3241  0.1514
14331TIP3    H264485   3.829   3.172   2.845  1.7675  1.8188 -0.0514
14332TIP3   OH264486   4.861   2.966  13.827  0.3767  0.2809  0.4831
14332TIP3    H164487   4.950   2.968  13.792  0.4654  0.3204  0.7101
14332TIP3    H264488   4.850   2.877  13.861 -0.1185 -0.1284 -0.6895
14333TIP3   OH264489   2.874   0.561  15.755 -0.0857 -0.5032  0.3801
14333TIP3    H164490   2.894   0.511  15.676  1.6047  0.5664  0.0827
14333TIP3    H264491   2.953   0.554  15.808 -0.4824  0.3859  1.1097
14334TIP3   OH264492   6.695   5.115   0.602  0.1528  0.2456 -0.1727
14334TIP3    H164493   6.610   5.087   0.567  0.7597  0.5798 -2.0543
14334TIP3    H264494   6.759   5.076   0.543  1.2223  1.5506  0.0699
14335TIP3   OH264495   2.386   6.261  13.406 -0.1795  0.5909  0.0489
14335TIP3    H164496   2.479   6.239  13.409 -0.3206  0.1278  1.4044
14335TIP3    H264497   2.345   6.204  13.471 -1.5218  0.3328 -0.9785
14336TIP3   OH264498   1.288   4.446   4.981  0.0380  0.2700 -0.7931
14336TIP3    H164499   1.332   4.397   4.912  3.2251  0.3924  0.9875
14336TIP3    H264500   1.281   4.385   5.054 -1.1530  0.8316 -0.4098
14337TIP3   OH264501   4.711   3.058  11.643 -0.6423 -0.4715 -0.5208
14337TIP3    H164502   4.743   3.147  11.626 -0.7121 -0.5122 -0.8675
14337TIP3    H264503   4.685   3.059  11.735 -1.3080  0.0723 -0.7130
14338TIP3   OH264504   4.550   2.526  14.164  0.1545 -0.0117  0.4007
14338TIP3    H164505   4.492   2.551  14.236 -1.5327 -0.6430 -0.6602
14338TIP3    H264506   4.493   2.479  14.103  1.2974  1.2885 -1.7860
14339TIP3   OH264507   6.033   2.504   5.480 -0.0568  0.2116  0.2837
14339TIP3    H164508   5.951   2.459   5.460 -0.2881  0.4192  0.7533
14339TIP3    H264509   6.089   2.486   5.404  0.6443 -2.6284  1.3484
14340TIP3   OH264510   6.387   2.918   0.267 -0.8302  0.1049  0.9980
14340TIP3    H164511   6.366   2.986   0.203 -1.7711  0.6963  1.8935
14340TIP3    H264512   6.440   2.963   0.333  3.5300 -1.3267 -1.1547
14341TIP3   OH264513   3.718   6.652   4.723  0.1522  0.1557  0.4824
14341TIP3    H164514   3.659   6.712   4.768 -0.1312  0.1382  0.1405
14341TIP3    H264515   3.714   6.678   4.631  1.1287  0.5219  0.5363
14342TIP3   OH264516   5.798   4.841  14.222 -0.3030 -0.2490  0.1861
14342TIP3    H164517   5.853   4.801  14.155 -0.5831 -1.4797  0.6571
14342TIP3    H264518   5.853   4.845  14.300 -0.3635  0.0574  0.2178
14343TIP3   OH264519   4.412   2.057   3.122  0.3394 -0.1744 -0.0836
14343TIP3    H164520   4.331   2.053   3.173  0.0936  1.0037 -0.3507
14343TIP3    H264521   4.465   1.984   3.155 -0.5073 -0.4758  0.6462
14344TIP3   OH264522   0.705   5.818   0.731  0.0184  0.2056  0.1373
14344TIP3    H164523   0.670   5.877   0.798  1.3607  0.8659  0.2840
14344TIP3    H264524   0.703   5.732   0.772 -1.3589  0.2266  0.1554
14345TIP3   OH264525   1.831   6.369  14.198  0.2649 -0.0710 -0.6678
14345TIP3    H164526   1.855   6.361  14.106  0.3596  0.5437 -0.6974
14345TIP3    H264527   1.912   6.393  14.243 -0.1970  1.7495 -0.7322
14346TIP3   OH264528   5.412   1.340   0.121  0.1943 -0.0492  0.1201
14346TIP3    H164529   5.356   1.417   0.123 -3.1301 -2.1441 -1.9998
14346TIP3    H264530   5.419   1.317   0.028  2.0553 -1.6920  0.5828
14347TIP3   OH264531   3.432   3.636   1.328 -0.3222 -0.1962 -0.0999
14347TIP3    H164532   3.469   3.660   1.244  0.2334 -0.9507 -0.0737
14347TIP3    H264533   3.461   3.546   1.343 -0.4443 -0.0864  0.8733
14348TIP3   OH264534   2.387   1.590   4.577  0.4360 -0.0614  0.0048
14348TIP3    H164535   2.300   1.609   4.611  0.6185  1.0223 -0.1170
14348TIP3    H264536   2.414   1.510   4.623 -1.3560 -1.5123 -1.2821
14349TIP3   OH264537   0.457   5.736  13.068  0.0906  0.8128  0.0030
14349TIP3    H164538   0.498   5.740  12.982 -1.1327  1.1190 -0.5958
14349TIP3    H264539   0.363   5.747  13.050 -0.4319 -1.2759  1.1609
14350TIP3   OH264540   0.533   2.157  12.983 -0.3750  0.4429  0.3665
14350TIP3    H164541   0.564   2.089  13.042  0.2173  0.6103  0.2558
14350TIP3    H264542   0.600   2.225  12.987 -0.7743  0.8528  0.1910
14351TIP3   OH264543   5.251   1.628   2.581  0.0463 -0.7294  0.0640
14351TIP3    H164544   5.155   1.619   2.582 -0.3881  2.1510 -2.4689
14351TIP3    H264545   5.280   1.571   2.510 -0.0842  0.1635 -0.7177
14352TIP3   OH264546   3.309   5.743  12.706 -0.3255  0.3237 -0.0384
14352TIP3    H164547   3.289   5.653  12.682 -2.6703  0.2180  1.8729
14352TIP3    H264548   3.297   5.793  12.625  0.4006 -0.9700 -0.9795
14353TIP3   OH264549   5.942   4.153   3.702 -0.1284  0.0067 -0.0071
14353TIP3    H164550   5.956   4.236   3.656 -0.6951  0.0550 -0.1017
14353TIP3    H264551   5.925   4.179   3.793 -0.3687  0.0010 -0.0494
14354TIP3   OH264552   3.845   0.862  13.593 -0.1290  1.0068  0.3473
14354TIP3    H164553   3.925   0.810  13.581 -0.9619 -0.6991  1.6767
14354TIP3    H264554   3.774   0.805  13.564 -0.9141  2.4440 -0.6928
14355TIP3   OH264555   2.826   6.676   0.769 -0.5219 -0.1589 -0.2600
14355TIP3    H164556   2.900   6.629   0.731  0.2608  0.3911  0.5586
14355TIP3    H264557   2.750   6.642   0.722  0.2223 -0.8605 -0.9920
14356TIP3   OH264558   4.236   2.884  12.081  0.5330  0.2873 -0.3805
14356TIP3    H164559   4.290   2.930  12.017  0.8834  1.3604  0.6490
14356TIP3    H264560   4.297   2.857  12.149  0.0177  0.0000 -0.0251
14357TIP3   OH264561   4.061   6.134   3.704  0.2906  0.1626 -0.4154
14357TIP3    H164562   3.971   6.166   3.710 -0.4031 -1.7913  0.6057
14357TIP3    H264563   4.056   6.059   3.645  1.5568  0.8825 -1.4956
14358TIP3   OH264564   5.697   3.521  15.437  0.0841 -0.1286 -0.1725
14358TIP3    H164565   5.735   3.586  15.497 -0.5793 -0.4253  0.5874
14358TIP3    H264566   5.726   3.437  15.471  1.3742 -0.2421 -1.4607
14359TIP3   OH264567   3.320   3.459   0.100  0.5375  0.4695 -0.1035
14359TIP3    H164568   3.232   3.448   0.063  1.1976 -0.3098 -1.5542
14359TIP3    H264569   3.326   3.552   0.121 -0.9026  0.3932  0.7739
14360TIP3   OH264570   4.563   0.094  13.512  0.2679 -0.3417  0.3980
14360TIP3    H164571   4.622   0.166  13.537 -1.7796  0.9070  1.9653
14360TIP3    H264572   4.489   0.138  13.470 -0.1071 -1.7553 -0.4620
14361TIP3   OH264573   4.082   2.537   6.536 -0.6691  0.3678 -0.2544
14361TIP3    H164574   4.105   2.448   6.562  0.7788  1.0525  0.9887
14361TIP3    H264575   4.001   2.556   6.582  1.0446  1.0050  2.7866
14362TIP3   OH264576   2.441   5.134  16.394 -0.0079  0.0353  0.4592
14362TIP3    H164577   2.521   5.082  16.395 -0.6361 -0.9638  1.1929
14362TIP3    H264578   2.455   5.202  16.459  1.1819  1.4068 -1.1543
14363TIP3   OH264579   4.105   4.527  16.349  0.3586 -0.0870  0.7127
14363TIP3    H164580   4.087   4.579  16.271  0.0598  2.9057  2.6264
14363TIP3    H264581   4.018   4.507  16.384  0.4689 -1.9760  0.0313
14364TIP3   OH264582   4.880   3.152  12.527 -0.1779 -0.7791 -0.1733
14364TIP3    H164583   4.869   3.228  12.584  0.0450 -0.2449 -0.8294
14364TIP3    H264584   4.928   3.186  12.451 -0.5830 -1.4496 -0.7345
14365TIP3   OH264585   5.602   2.901  11.782 -0.6281 -0.1782 -0.3932
14365TIP3    H164586   5.695   2.923  11.779 -0.4620 -0.4326  1.5235
14365TIP3    H264587   5.585   2.854  11.700  0.7472  0.4697 -1.0750
14366TIP3   OH264588   6.781   3.937   5.007  0.1080 -0.3372  0.3602
14366TIP3    H164589   6.838   3.927   4.930  0.3000 -0.6930  0.5508
14366TIP3    H264590   6.737   4.021   4.992 -1.9754 -1.6239 -1.5539
14367TIP3   OH264591   3.731   6.278   5.609 -0.7564  1.5288 -0.6171
14367TIP3    H164592   3.786   6.345   5.569  1.6427 -0.1928 -0.4123
14367TIP3    H264593   3.753   6.282   5.702 -2.0678  1.7048 -0.2884
14368TIP3   OH264594   0.574   1.668  15.896 -0.4585 -0.0962  0.5542
14368TIP3    H164595   0.651   1.613  15.913 -0.0529  0.0224 -0.7792
14368TIP3    H264596   0.507   1.607  15.868 -0.3697 -0.0305  0.2016
14369TIP3   OH264597   4.188   1.101  17.003 -0.6026 -0.4809 -0.3351
14369TIP3    H164598   4.161   1.018  17.042 -0.8963  0.3724  1.3433
14369TIP3    H264599   4.110   1.156  17.006  0.2568  0.7282  1.0159
14370TIP3   OH264600   5.690   2.898   2.322 -0.5913 -0.5706 -0.2283
14370TIP3    H164601   5.711   2.939   2.406 -1.4006  0.7805 -0.6588
14370TIP3    H264602   5.598   2.873   2.329 -1.2956  1.4674 -1.4176
14371TIP3   OH264603   4.711   1.823   4.181 -0.1604 -0.2605 -0.2615
14371TIP3    H164604   4.665   1.874   4.248  0.0335 -0.6104  0.1461
14371TIP3    H264605   4.687   1.732   4.199 -0.2205 -0.3461 -0.7591
14372TIP3   OH264606   0.070   3.993  15.319 -0.5146  0.5444 -0.1618
14372TIP3    H164607   0.008   4.026  15.253  0.6011  0.8010 -1.1195
14372TIP3    H264608   0.092   4.069  15.372 -1.1243  0.4217  0.2695
14373TIP3   OH264609   0.003   2.364  11.735 -0.3450  0.1397 -0.0342
14373TIP3    H164610   0.096   2.373  11.758 -0.1561  1.1494 -1.0643
14373TIP3    H264611  -0.036   2.447  11.762 -1.1520 -0.6083  1.1761
14374TIP3   OH264612   3.613   2.701  12.498 -0.0387 -0.5370  0.1434
14374TIP3    H164613   3.655   2.731  12.417 -0.7477  3.0000  0.9332
14374TIP3    H264614   3.679   2.715  12.566 -0.8780  0.6282  0.7402
14375TIP3   OH264615   3.159   2.188  14.653  0.0099  0.1577  0.4524
14375TIP3    H164616   3.224   2.247  14.613 -1.5412  0.1860 -2.2514
14375TIP3    H264617   3.126   2.237  14.728 -1.4730  3.0610 -1.8870
14376TIP3   OH264618   1.486   4.282   5.950 -0.7128 -0.1432  0.0112
14376TIP3    H164619   1.577   4.256   5.938 -0.6655 -0.3137  0.7053
14376TIP3    H264620   1.484   4.375   5.928 -0.4655 -0.2461 -0.4555
14377TIP3   OH264621   2.511   5.394   1.973 -0.5019 -0.5795  0.1420
14377TIP3    H164622   2.499   5.425   1.883 -0.0779  3.8578  1.3432
14377TIP3    H264623   2.426   5.407   2.014  0.2305  1.2937  1.2176
14378TIP3   OH264624   3.687   6.319   1.292  0.4504  0.3941 -0.0941
14378TIP3    H164625   3.775   6.356   1.290  0.3719  0.5841 -0.0393
14378TIP3    H264626   3.680   6.270   1.211  0.2304  1.2487 -0.6048
14379TIP3   OH264627   4.541   6.165   3.427  0.1993 -0.2268 -0.0668
14379TIP3    H164628   4.601   6.197   3.359  1.2862 -1.5409  0.2297
14379TIP3    H264629   4.456   6.199   3.402  0.7889  0.3168 -1.4273
14380TIP3   OH264630   1.367   2.519   1.022  0.1846  0.3980  0.1991
14380TIP3    H164631   1.294   2.463   1.051  0.2034 -0.1038 -0.6656
14380TIP3    H264632   1.437   2.501   1.084  0.6258 -1.5538 -0.7549
14381TIP3   OH264633   4.333   0.187  13.384 -0.0124  0.0917 -0.1460
14381TIP3    H164634   4.292   0.270  13.359 -0.6934 -0.5695 -1.3157
14381TIP3    H264635   4.259   0.130  13.408  0.3546 -0.5001 -0.3857
14382TIP3   OH264636   3.255   6.093   5.153  0.8454  0.1053  0.4762
14382TIP3    H164637   3.329   6.084   5.212 -0.1601 -0.3369  1.7093
14382TIP3    H264638   3.180   6.059   5.202 -0.3936  1.5711 -0.2932
14383TIP3   OH264639   0.825   3.951   4.667  0.2910  0.7148  0.0211
14383TIP3    H164640   0.817   3.902   4.585  1.6251  0.4388  0.0328
14383TIP3    H264641   0.746   3.929   4.716 -0.0250  0.0659 -0.7568
14384TIP3   OH264642   0.633   0.802  16.501 -0.2046 -0.0912  0.1465
14384TIP3    H164643   0.696   0.835  16.566 -0.9806  1.9233 -0.0374
14384TIP3    H264644   0.548   0.835  16.531 -0.5103  1.4986 -2.1568
14385TIP3   OH264645   4.588   4.809   3.499  0.6391 -0.1127 -0.0555
14385TIP3    H164646   4.610   4.716   3.505  0.6200 -0.1001  0.2715
14385TIP3    H264647   4.615   4.835   3.411  1.1971 -0.2862  0.0595
14386TIP3   OH264648   5.752   6.394   6.418  0.4909  0.1624  0.1220
14386TIP3    H164649   5.827   6.451   6.437  0.7665 -0.0471 -0.3249
14386TIP3    H264650   5.725   6.362   6.504 -0.5901  2.0983  0.5616
14387TIP3   OH264651   6.639   0.419  16.815  0.2279 -0.3172 -0.0819
14387TIP3    H164652   6.707   0.397  16.751  1.6564 -0.0382  1.2704
14387TIP3    H264653   6.593   0.493  16.776  0.7713 -0.4357 -0.9900
14388TIP3   OH264654   2.920   2.689   0.267  0.4209  0.0253  0.9418
14388TIP3    H164655   3.002   2.730   0.237  0.4413 -0.1003  0.8274
14388TIP3    H264656   2.863   2.763   0.288  0.6117  0.1141  1.1565
14389TIP3   OH264657   6.198   6.620   2.501 -0.0748 -0.4008  0.3273
14389TIP3    H164658   6.163   6.547   2.450 -1.0368  0.2785 -0.0219
14389TIP3    H264659   6.135   6.691   2.487  1.1477  0.6856  0.1718
14390TIP3   OH264660   4.607   6.550  17.197 -0.3909 -0.4882  0.6065
14390TIP3    H164661   4.555   6.626  17.223  0.0807 -0.2338  0.8232
14390TIP3    H264662   4.565   6.518  17.118 -1.5199 -0.9381  1.3713
14391TIP3   OH264663   0.108   1.747  15.293 -0.2572  0.5938 -0.3511
14391TIP3    H164664   0.103   1.808  15.219 -2.4728 -0.2075 -0.9322
14391TIP3    H264665   0.082   1.799  15.369  2.7042  1.6106  0.0892
14392TIP3   OH264666   3.050   5.331   3.137 -0.5445 -0.3045 -0.5286
14392TIP3    H164667   3.103   5.286   3.202  0.8041  1.5606 -0.2422
14392TIP3    H264668   3.061   5.280   3.057 -2.2989 -2.6801  0.6303
14393TIP3   OH264669   2.289   6.325  11.003 -0.5368  0.0316  0.7805
14393TIP3    H164670   2.358   6.259  11.000  0.3327  0.9372 -0.0262
14393TIP3    H264671   2.322   6.392  11.063 -1.5518 -0.3799  1.8491
14394TIP3   OH264672   0.372   6.270   4.526  0.1534 -0.5319  0.2703
14394TIP3    H164673   0.374   6.221   4.443  0.6400  0.1618 -0.1365
14394TIP3    H264674   0.292   6.322   4.520 -0.1355 -0.9392  0.5139
14395TIP3   OH264675   5.959   4.725   4.417 -0.2202 -0.6550 -0.2662
14395TIP3    H164676   5.890   4.752   4.478  1.0684 -1.7176  1.8022
14395TIP3    H264677   6.022   4.678   4.472  1.7905 -0.3808 -2.1962
14396TIP3   OH264678   4.142   0.063   1.119 -0.5509 -0.3934  0.2856
14396TIP3    H164679   4.065   0.103   1.078 -1.3973  1.2172  3.0858
14396TIP3    H264680   4.215   0.117   1.091 -1.0400  0.4125  0.5191
14397TIP3   OH264681   1.502   0.617  12.618 -1.0658 -0.0113 -0.0492
14397TIP3    H164682   1.525   0.626  12.710 -0.0751 -0.1374 -0.2743
14397TIP3    H264683   1.549   0.688  12.574 -0.9306 -0.4118 -0.5559
14398TIP3   OH264684   0.415   1.564  11.949 -0.3092  0.8358  0.4190
14398TIP3    H164685   0.495   1.523  11.916  0.6405  0.2518  3.1525
14398TIP3    H264686   0.446   1.640  11.999 -1.5063  0.8954  1.1086
14399TIP3   OH264687   2.034   5.801   4.665  0.2570 -0.5369 -0.2686
14399TIP3    H164688   2.036   5.709   4.693 -0.2115 -0.7325 -0.8578
14399TIP3    H264689   1.941   5.820   4.655  0.4129 -0.5808 -2.0368
14400TIP3   OH264690   5.566   1.232  15.945  0.0141  0.3025  0.3024
14400TIP3    H164691   5.560   1.165  15.876 -0.2955  0.1667  0.4582
14400TIP3    H264692   5.608   1.306  15.902 -0.7797  0.4581 -0.2303
14401TIP3   OH264693   3.357   5.299  15.099  0.1816 -0.5312 -0.2482
14401TIP3    H164694   3.355   5.394  15.109  0.7799 -0.6713  1.6962
14401TIP3    H264695   3.298   5.266  15.167 -0.0376 -1.5594 -0.9141
14402TIP3   OH264696   6.699   2.892  11.480 -0.2085  0.7031 -0.2178
14402TIP3    H164697   6.738   2.907  11.394 -0.4883 -0.8489 -0.6461
14402TIP3    H264698   6.623   2.836  11.463  1.2296 -1.9157  1.2470
14403TIP3   OH264699   5.460   6.818   0.830  0.1360  0.1639  0.3624
14403TIP3    H164700   5.422   6.772   0.905 -1.0258  0.4756 -0.0187
14403TIP3    H264701   5.535   6.764   0.804 -0.9472 -1.3130  0.1699
14404TIP3   OH264702   6.676   0.925   4.839 -0.0594 -0.1596 -0.0371
14404TIP3    H164703   6.764   0.909   4.805 -0.1123 -1.1026  0.2272
14404TIP3    H264704   6.678   1.014   4.873  0.8935 -0.2877  0.2581
14405TIP3   OH264705   3.526   3.848   6.083 -0.8740  0.0577 -0.3435
14405TIP3    H164706   3.490   3.816   6.166 -0.5341 -0.1378 -0.2719
14405TIP3    H264707   3.603   3.794   6.068 -1.2422 -0.2746 -1.0582
14406TIP3   OH264708   5.879   4.040   1.820 -0.2169 -0.2095 -0.6988
14406TIP3    H164709   5.849   4.093   1.893 -2.0337 -1.0786 -0.7529
14406TIP3    H264710   5.817   3.967   1.816  0.6619 -0.9334 -2.2408
14407TIP3   OH264711   3.566   4.603  12.587 -0.5472 -0.3070  0.0185
14407TIP3    H164712   3.615   4.545  12.529 -1.4523 -2.2717  1.0979
14407TIP3    H264713   3.627   4.674  12.608  0.6076 -0.8371 -1.3587
14408TIP3   OH264714   3.827   0.825   3.701  0.0381 -0.5967 -0.2247
14408TIP3    H164715   3.832   0.781   3.616 -1.5302 -1.0743 -0.1092
14408TIP3    H264716   3.835   0.753   3.765  2.7214 -0.0930  0.1234
14409TIP3   OH264717   5.437   5.031   5.016  0.1720 -0.3900 -0.2744
14409TIP3    H164718   5.392   5.031   4.931 -0.9527  2.2499  0.2377
14409TIP3    H264719   5.367   5.048   5.080  1.0005 -2.2915  1.2297
14410TIP3   OH264720   2.362   2.048  13.288 -0.1792 -0.0340  0.0024
14410TIP3    H164721   2.395   2.135  13.308 -0.8691 -0.1972  2.0078
14410TIP3    H264722   2.416   2.018  13.214 -0.5352  2.4105 -1.3408
14411TIP3   OH264723   1.208   3.451   0.612  0.4196 -0.7096  0.5703
14411TIP3    H164724   1.214   3.478   0.703  0.2290 -1.2543  0.7461
14411TIP3    H264725   1.146   3.512   0.573  0.2171 -0.7039  0.8949
14412TIP3   OH264726   1.656   1.378  11.191 -0.5831  0.5060  0.2499
14412TIP3    H164727   1.747   1.364  11.165 -0.9903  1.1400 -1.6798
14412TIP3    H264728   1.659   1.386  11.287  1.3681  0.5169  0.2206
14413TIP3   OH264729   0.730   0.377  14.216  0.0949  0.3162 -0.2661
14413TIP3    H164730   0.672   0.435  14.167  2.3336  1.9956 -1.1436
14413TIP3    H264731   0.675   0.305  14.244 -2.5669  2.2074 -0.2697
14414TIP3   OH264732   0.612   0.781  12.150  0.3145 -0.4938 -0.0461
14414TIP3    H164733   0.570   0.708  12.195 -2.0426  0.5824 -0.3574
14414TIP3    H264734   0.689   0.743  12.108 -0.4371 -2.6310  0.4241
14415TIP3   OH264735   5.492   1.273  13.907  0.3269 -0.0473  0.3305
14415TIP3    H164736   5.546   1.335  13.957 -0.0692  0.2936  0.3429
14415TIP3    H264737   5.536   1.266  13.823  0.4569  0.1415  0.3812
14416TIP3   OH264738   0.792   2.639  11.685  0.0901 -0.2048 -0.3321
14416TIP3    H164739   0.875   2.686  11.679 -0.1681  0.0559 -3.0527
14416TIP3    H264740   0.764   2.629  11.595 -1.8586 -2.0981  0.4108
14417TIP3   OH264741   4.332   0.110  16.724 -0.4947 -0.0631 -0.1152
14417TIP3    H164742   4.412   0.098  16.775  0.2384 -1.2542 -1.4723
14417TIP3    H264743   4.263   0.120  16.790  0.4983 -0.9196  1.1095
14418TIP3   OH264744   2.710   2.462  13.170  0.1703  0.1801  0.0154
14418TIP3    H164745   2.657   2.541  13.158 -0.6557 -0.4293 -0.5475
14418TIP3    H264746   2.739   2.439  13.082 -1.5876 -1.4411 -0.2156
14419TIP3   OH264747   3.091   3.106  15.291 -0.0922  0.1374 -0.1160
14419TIP3    H164748   3.169   3.065  15.327  0.8338  2.4529  0.6815
14419TIP3    H264749   3.022   3.041  15.304  1.1037 -0.8400  1.8730
14420TIP3   OH264750   6.121   1.559   2.892  0.7230 -0.7735  0.6564
14420TIP3    H164751   6.126   1.510   2.810  0.8558  1.3039 -0.6363
14420TIP3    H264752   6.055   1.626   2.876 -0.9475 -1.7072  3.0691
14421TIP3   OH264753   1.795   2.887   5.904 -0.0976 -0.1433  0.4629
14421TIP3    H164754   1.878   2.897   5.856  0.1760  3.5557  1.4354
14421TIP3    H264755   1.728   2.890   5.836  0.4607 -1.2984 -0.1713
14422TIP3   OH264756   1.135   1.337  13.939 -0.1963 -0.5928  0.4351
14422TIP3    H164757   1.227   1.331  13.968  0.0685  0.9296  0.0120
14422TIP3    H264758   1.096   1.401  13.998 -0.7369 -0.5250  0.0050
14423TIP3   OH264759   5.402   3.191  16.655 -0.1443 -0.0348  0.0431
14423TIP3    H164760   5.421   3.240  16.575  0.4973 -0.4326 -0.0547
14423TIP3    H264761   5.307   3.198  16.665 -0.1723  0.4544 -0.4660
14424TIP3   OH264762   2.227   0.588  13.922  0.0627  0.4793 -0.2902
14424TIP3    H164763   2.247   0.546  14.006 -1.3451  1.0185  0.3402
14424TIP3    H264764   2.206   0.678  13.945  0.3809  0.8296 -1.3234
14425TIP3   OH264765   1.063   4.647  17.247 -0.4099  0.2718 -0.8463
14425TIP3    H164766   1.049   4.741  17.263  1.0702  0.4926 -0.7368
14425TIP3    H264767   1.015   4.604  17.317  1.0280  1.0545  0.7020
14426TIP3   OH264768   5.050   3.736  13.077  0.1021  0.6127 -0.3167
14426TIP3    H164769   5.011   3.716  12.992 -2.3194 -1.7773  1.2007
14426TIP3    H264770   4.978   3.770  13.129  1.2999  1.0879  1.1148
14427TIP3   OH264771   0.867   3.568   0.314 -0.2753 -0.3749  0.6902
14427TIP3    H164772   0.892   3.482   0.350 -2.1847 -1.4071 -0.2984
14427TIP3    H264773   0.859   3.625   0.391  3.6518 -0.2226  1.2122
14428TIP3   OH264774   6.413   5.521  16.674  0.6344 -0.9413 -0.3367
14428TIP3    H164775   6.440   5.454  16.737  0.0565 -1.3740 -0.5355
14428TIP3    H264776   6.439   5.604  16.714 -1.6386 -1.0164  1.5152
14429TIP3   OH264777   6.399   4.805   3.618  0.5557  0.1310 -0.0765
14429TIP3    H164778   6.454   4.730   3.593  1.9524 -0.5573  4.1330
14429TIP3    H264779   6.310   4.778   3.595  1.1747 -2.2437 -0.0013
14430TIP3   OH264780   6.499   1.431   1.769  0.6330 -0.3913  0.0809
14430TIP3    H164781   6.495   1.452   1.676 -0.5911 -0.7501  0.0319
14430TIP3    H264782   6.589   1.452   1.795  1.0601 -0.5197 -1.2303
14431TIP3   OH264783   3.507   1.258   5.338 -0.0098 -0.3868 -0.0037
14431TIP3    H164784   3.574   1.319   5.368 -0.9595  0.3152  0.7333
14431TIP3    H264785   3.441   1.259   5.407 -1.5962  0.1997 -1.4691
14432TIP3   OH264786   3.142   0.168   5.697 -0.2950  0.2928  0.3131
14432TIP3    H164787   3.145   0.079   5.731 -2.0465  0.3018  0.5917
14432TIP3    H264788   3.232   0.198   5.701  0.3900 -1.5568 -0.0455
14433TIP3   OH264789   4.704   0.882   3.922  0.3766  0.2852  0.6091
14433TIP3    H164790   4.743   0.801   3.956  2.3182  0.6006 -0.6895
14433TIP3    H264791   4.678   0.931   3.999  0.0107 -1.1724  1.4435
14434TIP3   OH264792   3.386   2.858  12.685  0.5027 -0.4557 -0.2573
14434TIP3    H164793   3.301   2.825  12.713 -0.1170  0.3988 -1.0552
14434TIP3    H264794   3.371   2.890  12.596  1.5850 -0.0214 -0.2995
14435TIP3   OH264795   1.573   2.487   4.329  0.2889  0.1706  0.2520
14435TIP3    H164796   1.545   2.395   4.336 -0.0971  0.1266 -1.3372
14435TIP3    H264797   1.491   2.537   4.337  0.4588  0.3721  0.7969
14436TIP3   OH264798   2.929   0.425  15.520  0.7396  0.2319 -0.2996
14436TIP3    H164799   2.904   0.367  15.448  2.8909  0.7399 -1.5477
14436TIP3    H264800   2.963   0.503  15.476 -1.1375  2.0745  1.3300
14437TIP3   OH264801   0.817   3.854   2.679  0.3452 -0.4958  0.3220
14437TIP3    H164802   0.811   3.761   2.700 -0.5308 -0.2794  1.1202
14437TIP3    H264803   0.727   3.886   2.688  1.0815  1.0571  3.1645
14438TIP3   OH264804   5.684   3.766   4.127 -0.1704 -0.0761  0.1378
14438TIP3    H164805   5.606   3.720   4.096  0.7916 -1.5328 -0.2697
14438TIP3    H264806   5.669   3.858   4.105 -2.0778 -0.2004  0.7592
14439TIP3   OH264807   0.830   3.273   3.900 -0.0506 -0.1160 -0.7255
14439TIP3    H164808   0.797   3.346   3.952 -1.6010  0.1555 -2.0177
14439TIP3    H264809   0.922   3.293   3.886 -0.2320  1.1031 -0.2606
14440TIP3   OH264810   5.115   1.836   0.350 -0.2292 -0.7749  0.0779
14440TIP3    H164811   5.153   1.924   0.360 -0.2899 -0.5539 -1.3828
14440TIP3    H264812   5.125   1.816   0.257 -1.0613 -1.9354  0.2158
14441TIP3   OH264813   6.463   6.800  14.135  0.4239  0.6724 -0.1767
14441TIP3    H164814   6.438   6.871  14.076 -1.9862  0.0257 -0.0058
14441TIP3    H264815   6.485   6.727  14.077  2.0974  1.2389 -0.3240
14442TIP3   OH264816   4.619   4.928  16.352  0.1315  0.0397  0.1042
14442TIP3    H164817   4.588   4.896  16.437 -0.6798  0.5951  0.0238
14442TIP3    H264818   4.544   4.975  16.315 -0.9874 -3.4748 -2.6815
14443TIP3   OH264819   5.964   2.069   4.306  0.6775  0.9768  0.9996
14443TIP3    H164820   6.011   2.044   4.226 -0.1110 -2.2690  1.3776
14443TIP3    H264821   5.873   2.082   4.277  0.2672 -0.7885  1.3567
14444TIP3   OH264822   2.531   1.842   2.410  0.6482  0.5014 -0.2229
14444TIP3    H164823   2.620   1.812   2.389  0.8297  1.5327 -1.0362
14444TIP3    H264824   2.496   1.872   2.326  0.0911  1.5281  0.3625
14445TIP3   OH264825   2.459   4.319  11.118  0.7156 -0.7038 -0.1409
14445TIP3    H164826   2.512   4.267  11.057  2.2293  0.4261  0.1422
14445TIP3    H264827   2.373   4.325  11.077  1.0174 -1.9463 -1.0037
14446TIP3   OH264828   3.393   2.550   5.184 -0.1760 -0.0502 -0.2453
14446TIP3    H164829   3.361   2.461   5.175 -0.6299  0.0983 -0.0937
14446TIP3    H264830   3.314   2.605   5.186  0.0919  0.3420 -0.1849
14447TIP3   OH264831   3.238   4.431   2.779 -0.1181  0.4489  0.1196
14447TIP3    H164832   3.291   4.481   2.717 -1.1542  0.6728 -0.6075
14447TIP3    H264833   3.249   4.478   2.862  0.0871  1.0367 -0.2303
14448TIP3   OH264834   5.175   3.486   1.519 -0.0573 -0.2479 -0.1276
14448TIP3    H164835   5.216   3.406   1.549  0.7852  0.1650 -0.1491
14448TIP3    H264836   5.095   3.494   1.571  0.6600 -0.2809  0.9924
14449TIP3   OH264837   1.542   3.792  12.805 -0.3200  0.1056  0.5422
14449TIP3    H164838   1.616   3.802  12.866  1.9935 -1.2192 -1.8287
14449TIP3    H264839   1.512   3.702  12.818  0.5140 -0.3522 -0.5296
14450TIP3   OH264840   5.330   2.103   1.501 -0.7195  0.2347  0.2104
14450TIP3    H164841   5.344   2.144   1.587 -1.6279 -0.1586  0.5567
14450TIP3    H264842   5.251   2.146   1.467 -1.0990 -0.5105  0.1392
14451TIP3   OH264843   2.246   6.061  15.438 -0.2434  0.8826  0.4517
14451TIP3    H164844   2.307   6.019  15.499 -1.5338  0.2440  1.3560
14451TIP3    H264845   2.159   6.033  15.468 -0.9171 -1.1966 -2.9117
14452TIP3   OH264846   1.031   4.871  16.000  0.4565 -0.2568 -0.2411
14452TIP3    H164847   0.998   4.830  16.079  0.9126 -1.9775 -0.9109
14452TIP3    H264848   1.122   4.892  16.020  1.3284 -2.9063 -1.0368
14453TIP3   OH264849   4.921   4.219  13.341  0.1097  0.2186 -0.3163
14453TIP3    H164850   4.846   4.161  13.346  0.3356 -0.1057 -0.5994
14453TIP3    H264851   4.890   4.296  13.294  0.0484 -0.0677 -0.7446
14454TIP3   OH264852   0.033   0.476   5.474 -0.6595 -0.7587 -0.0926
14454TIP3    H164853   0.069   0.559   5.442  1.0427 -1.6022 -0.4709
14454TIP3    H264854   0.072   0.410   5.418 -2.6746 -1.7937 -0.3754
14455TIP3   OH264855   5.782   1.461  16.221 -0.3185  0.4088 -0.0879
14455TIP3    H164856   5.720   1.398  16.260 -0.1306  2.1744  3.4799
14455TIP3    H264857   5.866   1.415  16.221 -0.7283 -0.3648 -0.4537
14456TIP3   OH264858   1.987   4.035   0.523 -0.2314  0.1804  0.2273
14456TIP3    H164859   2.069   4.068   0.487 -0.2826 -1.3887 -1.4284
14456TIP3    H264860   1.926   4.109   0.515  1.0503  1.4983  1.8410
14457TIP3   OH264861   3.019   0.485   1.895  0.3692 -0.7208  0.8567
14457TIP3    H164862   2.979   0.401   1.873  0.2322 -0.5515  0.4442
14457TIP3    H264863   3.007   0.495   1.989 -1.1618 -0.3583  0.6387
14458TIP3   OH264864   1.447   1.359  15.177 -0.0222  0.4564 -0.2088
14458TIP3    H164865   1.467   1.374  15.085  0.3340  2.2271  0.1236
14458TIP3    H264866   1.528   1.378  15.223  0.1635 -1.6173  0.4080
14459TIP3   OH264867   5.617   3.384   3.721 -0.1956 -0.1189 -0.3992
14459TIP3    H164868   5.694   3.414   3.768 -0.0858  1.2781 -1.4215
14459TIP3    H264869   5.602   3.295   3.753  1.0644  0.0636  0.7499
14460TIP3   OH264870   0.910   0.699   3.893 -0.3200 -0.2781 -0.4036
14460TIP3    H164871   0.969   0.686   3.967  0.8693 -0.5637 -1.3664
14460TIP3    H264872   0.828   0.656   3.919 -0.1877  0.2668  1.0218
14461TIP3   OH264873   0.886   6.431   2.635 -0.2082 -0.7025  0.1132
14461TIP3    H164874   0.805   6.454   2.589 -0.5355  2.1456  1.8237
14461TIP3    H264875   0.951   6.423   2.565 -1.3663 -0.0025 -1.1081
14462TIP3   OH264876   5.712   6.374  13.208 -0.3939 -0.0520 -0.1774
14462TIP3    H164877   5.774   6.421  13.263  0.3733  2.7354 -3.0750
14462TIP3    H264878   5.745   6.284  13.205 -0.6769 -0.4485  3.9166
14463TIP3   OH264879   0.767   2.939   5.716  0.2956 -0.1223  0.5860
14463TIP3    H164880   0.705   2.994   5.763  0.1213  0.2323 -0.0471
14463TIP3    H264881   0.713   2.879   5.665  0.4823 -0.5627  0.9013
14464TIP3   OH264882   1.243   6.489   5.084 -0.5268 -0.4274 -0.0865
14464TIP3    H164883   1.159   6.444   5.071 -0.3982 -0.8174  0.3852
14464TIP3    H264884   1.275   6.506   4.996 -2.0550  1.5748 -0.3227
14465TIP3   OH264885   6.144   3.532   0.379  0.8043 -0.1786 -0.2207
14465TIP3    H164886   6.074   3.555   0.319 -2.6652 -1.6312  2.8736
14465TIP3    H264887   6.198   3.611   0.386 -2.0814  1.9761 -0.8108
14466TIP3   OH264888   0.053   3.765   5.220 -0.4466  0.1123 -0.3910
14466TIP3    H164889   0.032   3.809   5.138  0.3739  0.7008 -0.2993
14466TIP3    H264890   0.145   3.739   5.211 -0.5634 -0.4897  0.0496
14467TIP3   OH264891   5.571   5.579   6.201  0.1437 -0.1142 -0.2093
14467TIP3    H164892   5.625   5.658   6.195  0.5885 -0.3761  0.2813
14467TIP3    H264893   5.516   5.581   6.122  1.2595 -0.1364 -0.9980
14468TIP3   OH264894   0.939   6.391   0.270  0.3835  0.0172  0.1821
14468TIP3    H164895   1.013   6.410   0.328 -0.1941  0.5665  0.7443
14468TIP3    H264896   0.961   6.435   0.188  0.9836 -0.3784  0.1193
14469TIP3   OH264897   5.516   6.416  12.217 -0.3394  0.7948 -0.2056
14469TIP3    H164898   5.557   6.465  12.288 -1.0989  0.3333  0.5754
14469TIP3    H264899   5.500   6.329  12.253  0.4380  0.1358 -1.3775
14470TIP3   OH264900   3.934   2.845   1.472 -0.3279  0.0000  0.5651
14470TIP3    H164901   4.003   2.879   1.414  0.4591  0.3658  1.6770
14470TIP3    H264902   3.937   2.750   1.458  0.4692  0.0017  0.6554
14471TIP3   OH264903   6.335   3.230  15.176 -0.2789  0.1763 -0.8061
14471TIP3    H164904   6.305   3.139  15.183 -0.1930  0.2132  0.0903
14471TIP3    H264905   6.419   3.224  15.132  0.1447 -0.2649  0.0443
14472TIP3   OH264906   4.240   2.197  16.753  0.0805 -0.3041  0.4128
14472TIP3    H164907   4.313   2.249  16.718 -0.8900  0.9896  0.2344
14472TIP3    H264908   4.246   2.113  16.708  1.7104 -0.4042  0.7213
14473TIP3   OH264909   1.414   0.399  16.987 -0.9884 -0.2169  0.0920
14473TIP3    H164910   1.341   0.453  16.955 -0.7631  1.1488  1.7583
14473TIP3    H264911   1.386   0.371  17.074 -0.0644 -0.8001  0.2119
14474TIP3   OH264912   1.759   3.198  15.705  1.0934 -0.2185 -0.5662
14474TIP3    H164913   1.687   3.136  15.700  0.3639  0.6748 -2.2850
14474TIP3    H264914   1.802   3.191  15.620  1.7329  0.7579 -0.3438
14475TIP3   OH264915   4.852   3.304   5.518  0.1248 -0.2603 -0.6274
14475TIP3    H164916   4.939   3.266   5.529 -0.3674 -0.7729  2.3269
14475TIP3    H264917   4.793   3.229   5.514 -0.5614  0.0420  2.1392
14476TIP3   OH264918   1.057   3.237   5.894  0.1942 -0.0722 -0.0389
14476TIP3    H164919   0.985   3.299   5.879 -0.2843 -0.6509 -0.1472
14476TIP3    H264920   1.051   3.215   5.987 -0.8359 -1.4254 -0.4055
14477TIP3   OH264921   2.634   3.268   1.305 -0.0197 -0.4380  0.3755
14477TIP3    H164922   2.576   3.194   1.323  0.8655 -1.4810 -0.9480
14477TIP3    H264923   2.582   3.325   1.248 -0.2898 -0.6086  0.4480
14478TIP3   OH264924   2.034   1.076  12.439 -0.0480  0.6709 -0.2003
14478TIP3    H164925   2.113   1.070  12.386 -0.5646 -2.2122 -0.8468
14478TIP3    H264926   2.066   1.081  12.529  0.9187 -0.6931 -0.4384
14479TIP3   OH264927   3.975   4.972   5.687 -0.1819 -0.2053 -0.4807
14479TIP3    H164928   3.955   5.045   5.746 -0.1911  0.7543 -1.6319
14479TIP3    H264929   3.891   4.926   5.678 -0.2295 -0.2380  0.0832
14480TIP3   OH264930   2.018   2.232  11.624  0.0002  0.1303 -0.2256
14480TIP3    H164931   2.105   2.248  11.588  0.4797  1.1312  1.2834
14480TIP3    H264932   1.958   2.272  11.562  0.6561  0.0692 -0.9135
14481TIP3   OH264933   2.080   3.192   1.706 -0.4042  0.1720 -0.2252
14481TIP3    H164934   2.118   3.124   1.761  0.1716 -0.0645 -0.8948
14481TIP3    H264935   1.988   3.167   1.696 -1.2211  1.5863  2.7044
14482TIP3   OH264936   4.693   4.930  15.873  0.3925 -0.5108 -0.5268
14482TIP3    H164937   4.622   4.880  15.832 -1.0441  0.1359  1.0524
14482TIP3    H264938   4.693   4.903  15.964  1.7471  0.0052 -0.3548
14483TIP3   OH264939   4.523   6.790   3.270 -0.1088  0.2078  0.0665
14483TIP3    H164940   4.562   6.858   3.215  0.4536 -0.6967 -0.6824
14483TIP3    H264941   4.474   6.736   3.208  1.0092 -1.1652  0.3289
14484TIP3   OH264942   4.954   5.146  14.513  0.4610  0.2958  0.2545
14484TIP3    H164943   4.928   5.110  14.428  0.8512 -0.8897  0.6142
14484TIP3    H264944   5.038   5.189  14.496 -0.3060  1.6399 -0.3095
14485TIP3   OH264945   5.121   5.812   1.426 -0.3654  0.0728  0.0602
14485TIP3    H164946   5.061   5.793   1.354  0.5461  2.1743 -1.3566
14485TIP3    H264947   5.189   5.745   1.419 -0.5273 -0.0142 -0.7683
14486TIP3   OH264948   1.015   1.376  15.855 -0.2501 -0.0507 -0.0139
14486TIP3    H164949   1.068   1.415  15.785 -0.3399  1.3340  0.6726
14486TIP3    H264950   0.990   1.290  15.820  0.3005  0.3199 -1.3962
14487TIP3   OH264951   4.107   0.886   3.630  0.1382  0.3225 -0.1245
14487TIP3    H164952   4.115   0.965   3.577  0.4239  0.2796 -0.1482
14487TIP3    H264953   4.015   0.884   3.657  0.2771  1.0232  0.4378
14488TIP3   OH264954   0.216   3.642  17.098 -0.2103 -0.4623  0.1300
14488TIP3    H164955   0.159   3.707  17.056 -1.2113 -1.5249 -0.1925
14488TIP3    H264956   0.289   3.694  17.133 -0.8196  0.7952 -0.3931
14489TIP3   OH264957   4.259   3.878   2.193  0.3524 -0.2347  0.6749
14489TIP3    H164958   4.303   3.798   2.166 -2.9453 -1.9818  0.0712
14489TIP3    H264959   4.251   3.870   2.288  0.5580 -0.3303  0.6846
14490TIP3   OH264960   0.400   1.351  14.503 -0.1381 -0.2000  0.0802
14490TIP3    H164961   0.395   1.434  14.455  1.9129  1.1795  2.0286
14490TIP3    H264962   0.354   1.368  14.585 -1.0347 -1.5222 -0.1322
14491TIP3   OH264963   0.207   3.816   1.576  0.0532  0.0419  0.0928
14491TIP3    H164964   0.190   3.781   1.663  1.3995  1.2479  0.8983
14491TIP3    H264965   0.186   3.909   1.584  2.4592  0.6578 -0.1342
14492TIP3   OH264966   4.858   4.312   3.403  0.2225 -0.2731 -0.5190
14492TIP3    H164967   4.848   4.272   3.316 -1.4524 -2.3772  0.5503
14492TIP3    H264968   4.921   4.255   3.448  1.6183  1.2013 -0.5100
14493TIP3   OH264969   0.057   3.896  13.177  0.0075  0.4053  1.1945
14493TIP3    H164970   0.137   3.868  13.132 -1.3849  0.0033 -1.2247
14493TIP3    H264971   0.053   3.840  13.255  0.3954 -2.0430 -0.4042
14494TIP3   OH264972   0.514   3.657   1.595 -0.9192 -0.7137 -0.1554
14494TIP3    H164973   0.572   3.637   1.668  0.9845 -1.1114 -1.6892
14494TIP3    H264974   0.473   3.573   1.573 -0.1126 -0.9873 -0.6553
14495TIP3   OH264975   3.799   0.510  11.400 -0.5536  0.0356  0.2023
14495TIP3    H164976   3.872   0.572  11.410 -0.4797 -0.0284  0.0714
14495TIP3    H264977   3.727   0.564  11.368 -0.6053  0.1243  0.4667
14496TIP3   OH264978   5.606   5.663  14.965 -0.1098 -0.2253  0.2329
14496TIP3    H164979   5.657   5.584  14.977  2.1891  1.0230 -0.6922
14496TIP3    H264980   5.518   5.632  14.943 -0.2105 -2.4655  3.1240
14497TIP3   OH264981   5.455   3.615   4.073  0.4356 -0.3503  0.0253
14497TIP3    H164982   5.444   3.520   4.060 -4.1421 -0.0386  0.0143
14497TIP3    H264983   5.443   3.627   4.167  0.0085  0.3128 -0.1161
14498TIP3   OH264984   4.436   6.540  11.838  0.3688 -0.5290 -0.5466
14498TIP3    H164985   4.509   6.505  11.890  0.7702  1.0335 -0.0165
14498TIP3    H264986   4.443   6.635  11.848 -1.2164 -0.3229 -1.2200
14499TIP3   OH264987   4.134   1.933   0.528  0.0540  0.6609  0.1236
14499TIP3    H164988   4.043   1.960   0.539 -0.5918 -0.5309 -1.9380
14499TIP3    H264989   4.131   1.838   0.519  1.6300  0.4937  0.9399
14500TIP3   OH264990   4.400   0.791  13.630 -0.5277  0.0660  0.8222
14500TIP3    H164991   4.465   0.765  13.565 -1.1301  0.1888  0.1574
14500TIP3    H264992   4.361   0.871  13.594 -1.3976 -0.2873  0.9536
14501TIP3   OH264993   4.891   0.149   5.504  0.2341  0.3164 -0.3256
14501TIP3    H164994   4.839   0.073   5.477 -1.0781  1.7187 -1.9944
14501TIP3    H264995   4.982   0.119   5.498 -0.2108 -0.8857 -1.6948
14502TIP3   OH264996   0.193   6.426   3.908 -0.1551  0.0523 -0.2363
14502TIP3    H164997   0.099   6.409   3.913 -0.3231  1.1754  1.2021
14502TIP3    H264998   0.201   6.519   3.929  1.2613  0.0440 -0.6577
14503TIP3   OH264999   4.226   5.695  11.293  0.5704 -0.6200 -0.7820
14503TIP3    H165000   4.239   5.617  11.348  1.8288 -0.5649 -0.9864
14503TIP3    H265001   4.232   5.768  11.355  3.3223 -0.4766 -1.1316
14504TIP3   OH265002   5.756   5.041  15.342 -0.4407  0.2413  0.1165
14504TIP3    H165003   5.834   5.027  15.396  0.2740  0.4948 -0.8336
14504TIP3    H265004   5.683   5.032  15.403  0.3036 -0.5836  0.9054
14505TIP3   OH265005   4.848   6.676  15.676 -0.4908  0.5899  0.6661
14505TIP3    H165006   4.919   6.732  15.646 -1.1542  1.2255  0.2348
14505TIP3    H265007   4.889   6.615  15.737  0.5446  0.4849 -0.1203
14506TIP3   OH265008   5.558   0.531   1.260 -0.6418 -0.4661 -0.0810
14506TIP3    H165009   5.650   0.535   1.285 -0.8376  0.5856  0.5544
14506TIP3    H265010   5.514   0.493   1.337 -0.6532 -1.6753 -0.6688
14507TIP3   OH265011   0.030   4.547   0.148  0.3351  0.1496  0.4428
14507TIP3    H165012  -0.007   4.634   0.164  0.4478 -0.1647  2.7114
14507TIP3    H265013   0.044   4.511   0.235 -3.4617 -3.7327 -0.2335
14508TIP3   OH265014   2.582   3.501  13.852 -0.0897 -0.3847  0.4289
14508TIP3    H165015   2.597   3.545  13.936 -0.4189 -1.3395  0.9979
14508TIP3    H265016   2.583   3.572  13.788  0.5272  0.3191  1.1887
14509TIP3   OH265017   1.935   4.176   2.547  0.0483  0.8953 -0.6555
14509TIP3    H165018   1.986   4.256   2.557  0.7333  0.4014 -0.0505
14509TIP3    H265019   1.974   4.132   2.472  0.5357  0.5207 -0.1964
14510TIP3   OH265020   0.331   4.132   3.208 -0.4572  0.3109 -0.0825
14510TIP3    H165021   0.361   4.114   3.296 -0.9265 -0.4836 -0.0793
14510TIP3    H265022   0.347   4.051   3.159  0.1716  0.8703 -0.8329
14511TIP3   OH265023   1.882   1.978  12.951  0.1863 -0.0220  0.6112
14511TIP3    H165024   1.822   2.045  12.983 -1.1904 -1.1098  0.4126
14511TIP3    H265025   1.958   2.027  12.918  0.4540  1.2786  2.9324
14512TIP3   OH265026   1.684   6.673  16.157  0.0649 -0.5245 -0.4861
14512TIP3    H165027   1.764   6.630  16.186  0.0330 -1.2976 -1.4770
14512TIP3    H265028   1.676   6.649  16.065 -0.9163  0.1523 -0.5959
14513TIP3   OH265029   2.785   0.291  10.931 -1.3496  0.0078  0.3196
14513TIP3    H165030   2.701   0.264  10.892 -1.0707  1.4663 -1.3825
14513TIP3    H265031   2.761   0.358  10.995 -1.5765 -0.4934  0.7707
14514TIP3   OH265032   1.374   6.752  12.069  0.0346  0.0448  0.8258
14514TIP3    H165033   1.454   6.706  12.043  1.0948  2.1608  0.1286
14514TIP3    H265034   1.356   6.812  11.997 -2.7341 -0.9661  0.5440
14515TIP3   OH265035   4.591   4.364  14.987 -0.3732 -0.4036  0.8730
14515TIP3    H165036   4.625   4.305  15.054  1.4729 -0.2697  0.1019
14515TIP3    H265037   4.608   4.452  15.022  1.9690 -0.2940 -0.3058
14516TIP3   OH265038   2.214   2.340   1.830  0.0131 -0.5052 -0.1215
14516TIP3    H165039   2.254   2.409   1.777  0.5311 -0.7001  0.0175
14516TIP3    H265040   2.134   2.316   1.782  0.1841 -0.2848 -0.5173
14517TIP3   OH265041   1.772   1.504  15.670 -0.0027  0.7652  0.3390
14517TIP3    H165042   1.813   1.538  15.750 -0.7167  2.7502 -0.0685
14517TIP3    H265043   1.798   1.566  15.602 -1.6893  0.7186 -0.3937
14518TIP3   OH265044   5.023   0.233  12.503 -0.6277 -0.2718 -0.2043
14518TIP3    H165045   4.949   0.181  12.533 -0.5826 -1.5048 -2.0583
14518TIP3    H265046   4.990   0.278  12.425 -0.4809  2.1018  1.0078
14519TIP3   OH265047   0.912   4.625   1.531  0.3792  0.2879  0.2425
14519TIP3    H165048   1.006   4.636   1.544  0.6667 -0.9234 -0.6170
14519TIP3    H265049   0.898   4.530   1.540 -0.3355  0.1187 -2.1404
14520TIP3   OH265050   3.462   3.514   5.752  0.0529 -0.2379  0.0121
14520TIP3    H165051   3.523   3.584   5.774  3.2861 -3.2703  1.8685
14520TIP3    H265052   3.439   3.475   5.836 -0.7775 -2.0145 -0.9871
14521TIP3   OH265053   2.292   2.271   5.085 -0.0759  0.4500  0.2716
14521TIP3    H165054   2.268   2.248   5.175 -0.1506 -0.6652 -0.0194
14521TIP3    H265055   2.216   2.317   5.050 -0.9747 -1.1439  0.0503
14522TIP3   OH265056   3.001   3.801  16.268  0.1517  0.1802 -0.4438
14522TIP3    H165057   2.956   3.848  16.338 -1.7568 -1.8721 -0.1979
14522TIP3    H265058   3.088   3.784  16.303 -0.2382  0.5870  0.7785
14523TIP3   OH265059   4.425   1.899   0.633 -0.3759  0.1600  1.2730
14523TIP3    H165060   4.495   1.834   0.630 -0.5077  0.0610 -0.2990
14523TIP3    H265061   4.345   1.847   0.643 -0.6574 -0.1356 -1.6476
14524TIP3   OH265062   4.136   1.139   4.644 -0.3104  0.1464  0.1926
14524TIP3    H165063   4.121   1.099   4.730  2.5595  1.3478  1.3856
14524TIP3    H265064   4.179   1.070   4.593  1.2348  0.4793  0.9863
14525TIP3   OH265065   3.381   5.232  13.896 -0.1762  0.3101  0.4274
14525TIP3    H165066   3.415   5.314  13.860 -1.9672  0.3939 -1.2300
14525TIP3    H265067   3.303   5.258  13.946  1.3223 -0.0094  3.0793
14526TIP3   OH265068   1.942   2.350  15.238 -0.0585 -0.3836  0.5496
14526TIP3    H165069   1.963   2.441  15.260  0.3198 -0.5570  0.9325
14526TIP3    H265070   1.847   2.349  15.225  0.0216  0.1974 -0.1164
14527TIP3   OH265071   2.857   4.875  12.758  0.2323 -0.1602 -0.4373
14527TIP3    H165072   2.879   4.794  12.803  0.6905 -0.3894 -1.0623
14527TIP3    H265073   2.891   4.863  12.669  0.6458  0.8639 -0.4269
14528TIP3   OH265074   4.398   4.692   2.360 -0.4118  0.3491  0.4268
14528TIP3    H165075   4.488   4.691   2.328 -0.3634  1.2486  0.5316
14528TIP3    H265076   4.406   4.693   2.455 -0.5122  1.3340  0.4355
14529TIP3   OH265077   2.757   1.593  17.109  0.3303  0.1291  0.3603
14529TIP3    H165078   2.675   1.582  17.157  0.3436  0.0095  0.3562
14529TIP3    H265079   2.763   1.687  17.092  0.8079  0.2993  1.4264
14530TIP3   OH265080   1.312   3.515  14.614  0.2270 -0.1104  0.0139
14530TIP3    H165081   1.278   3.536  14.527 -0.9422  1.1079  0.7255
14530TIP3    H265082   1.400   3.483  14.598  0.0913  0.2381 -1.6109
14531TIP3   OH265083   5.702   2.296  16.335 -0.0294 -0.4657 -0.2370
14531TIP3    H165084   5.732   2.209  16.310  1.6651  0.1173 -0.3458
14531TIP3    H265085   5.730   2.305  16.427 -0.6343 -0.2183 -0.0732
14532TIP3   OH265086   0.871   6.069   0.104  0.2576 -0.4183  0.0473
14532TIP3    H165087   0.800   6.047   0.044  0.0114 -2.0204  0.8677
14532TIP3    H265088   0.919   6.139   0.060  0.4810 -1.9670 -2.3469
14533TIP3   OH265089   5.071   4.591  12.780 -0.1860 -0.4811 -0.1025
14533TIP3    H165090   5.150   4.640  12.757 -1.0771  1.7322  1.2155
14533TIP3    H265091   5.103   4.504  12.805  1.7895  0.2590  0.1205
14534TIP3   OH265092   6.386   2.956   6.450 -0.5263  0.7935  0.7130
14534TIP3    H165093   6.317   2.948   6.383 -0.1447 -0.6000  0.4567
14534TIP3    H265094   6.426   2.869   6.454  2.1368  1.8751 -0.1102
14535TIP3   OH265095   1.118   2.622  12.753 -0.4354  0.2284 -0.9280
14535TIP3    H165096   1.195   2.660  12.796  0.3254 -0.0368 -2.0046
14535TIP3    H265097   1.056   2.607  12.824  0.5307  0.3895 -0.0175
14536TIP3   OH265098   1.197   4.994   4.844 -0.0131 -0.8175  0.4878
14536TIP3    H165099   1.286   4.961   4.858  1.2699  2.4085  0.8424
14536TIP3    H265100   1.141   4.933   4.892  2.2060 -1.9066  1.8452
14537TIP3   OH265101   0.619   4.086   0.474  0.2502  0.1483  0.1633
14537TIP3    H165102   0.688   4.148   0.453  0.6389 -0.5922 -0.7828
14537TIP3    H265103   0.574   4.071   0.391 -1.7812  1.4490  0.9492
14538TIP3   OH265104   3.394   3.886   0.513 -0.5344 -0.4916 -0.5189
14538TIP3    H165105   3.373   3.865   0.604 -1.8036  0.5961 -0.5265
14538TIP3    H265106   3.314   3.864   0.465  0.0439 -0.8343 -1.3476
14539TIP3   OH265107   6.210   6.214   3.306  0.0215 -0.4420 -0.4256
14539TIP3    H165108   6.152   6.289   3.307  1.5749  0.8311  1.7374
14539TIP3    H265109   6.198   6.173   3.392  1.7065 -0.5883 -0.2266
14540TIP3   OH265110   4.159   5.836  15.614 -0.6432 -0.2785  0.2967
14540TIP3    H165111   4.232   5.778  15.591 -0.4638 -0.6124  1.6249
14540TIP3    H265112   4.081   5.785  15.596 -0.6364  0.4575 -2.1597
14541TIP3   OH265113   5.518   6.591   6.615  0.5721  0.2965 -0.6829
14541TIP3    H165114   5.476   6.507   6.595  1.7229  0.2222 -3.0812
14541TIP3    H265115   5.606   6.566   6.646  0.1951  0.5891  0.7101
14542TIP3   OH265116   4.888   6.434   0.970 -0.3950 -0.2702  0.3803
14542TIP3    H165117   4.889   6.473   1.057  0.7580 -0.0194  0.2789
14542TIP3    H265118   4.908   6.507   0.911 -0.4117 -0.5826 -0.0160
14543TIP3   OH265119   0.955   1.915  16.566 -0.3919  0.3338 -0.4606
14543TIP3    H165120   0.923   1.831  16.599 -1.5097  1.2121  0.8123
14543TIP3    H265121   1.048   1.916  16.591 -0.1581 -0.8323 -1.1927
14544TIP3   OH265122   4.265   5.824  12.150 -0.0699  0.0573 -0.0378
14544TIP3    H165123   4.196   5.841  12.213 -0.0324 -1.1191  0.3468
14544TIP3    H265124   4.336   5.785  12.201  0.6604  0.7259 -0.5205
14545TIP3   OH265125   5.918   1.465  12.726 -0.5613  0.1958 -0.2899
14545TIP3    H165126   6.000   1.491  12.685  0.7146 -2.7310  0.1693
14545TIP3    H265127   5.923   1.501  12.815  0.5530 -0.4835 -0.0609
14546TIP3   OH265128   4.484   6.585  16.066 -0.4447 -1.0779  0.2132
14546TIP3    H165129   4.534   6.609  15.987 -1.3924 -3.2058 -1.1178
14546TIP3    H265130   4.528   6.507  16.099 -0.2717 -0.4086  1.6505
14547TIP3   OH265131   0.405   6.225  14.950  0.0108  0.4228  0.5358
14547TIP3    H165132   0.429   6.298  15.007 -0.2843  0.2123  0.9404
14547TIP3    H265133   0.314   6.243  14.925  0.6430  1.3538 -1.2071
14548TIP3   OH265134   0.492   3.694   0.830  0.4041  0.3371  0.3553
14548TIP3    H165135   0.541   3.744   0.765 -1.3205 -1.6003 -2.6991
14548TIP3    H265136   0.521   3.603   0.817 -1.2084 -0.3304  1.0669
14549TIP3   OH265137   4.243   6.802  16.053  0.1852 -0.0980 -0.2931
14549TIP3    H165138   4.226   6.829  15.963  0.9213 -0.8947 -0.6866
14549TIP3    H265139   4.277   6.713  16.045 -0.7809 -0.5998  0.8468
14550TIP3   OH265140   0.866   6.787   0.724 -0.6087 -0.3212  0.5363
14550TIP3    H165141   0.906   6.756   0.642 -1.6365  0.6094 -0.3528
14550TIP3    H265142   0.886   6.881   0.725 -0.6977 -0.3118  1.3066
14551TIP3   OH265143   1.366   0.159  11.403  0.6130  0.3724  0.2706
14551TIP3    H165144   1.282   0.118  11.423  1.0557 -1.5640 -1.5356
14551TIP3    H265145   1.410   0.165  11.488 -1.8828  2.9914  1.5644
14552TIP3   OH265146   5.803   6.424   3.676  0.3154  0.1998 -0.4298
14552TIP3    H165147   5.814   6.369   3.599  0.7889 -1.2201  0.6059
14552TIP3    H265148   5.745   6.373   3.734  0.6384  0.8517  0.4965
14553TIP3   OH265149   4.709   4.785   1.904 -0.2010  0.1032 -0.1970
14553TIP3    H165150   4.615   4.772   1.893  0.0821 -1.0394 -1.4646
14553TIP3    H265151   4.745   4.697   1.917  0.9420  0.2681 -1.9672
14554TIP3   OH265152   5.480   0.324   0.961  0.2909 -0.4415 -0.5947
14554TIP3    H165153   5.479   0.229   0.955 -0.2467 -0.9293  4.1605
14554TIP3    H265154   5.572   0.347   0.973  0.0909 -0.9080  2.4213
14555TIP3   OH265155   0.110   2.754   1.437 -0.6690  0.2619 -0.4952
14555TIP3    H165156   0.038   2.718   1.385 -0.8765  1.1955 -0.8701
14555TIP3    H265157   0.108   2.848   1.420  0.1937  0.3957  0.0538
14556TIP3   OH265158   3.496   4.581  11.738  0.2269 -0.1461  0.0445
14556TIP3    H165159   3.481   4.662  11.689 -3.5218 -0.7661 -0.1444
14556TIP3    H265160   3.568   4.538  11.692  0.5606  1.8631 -1.4476
14557TIP3   OH265161   0.825   2.376  16.807  0.0895  0.2678 -0.3754
14557TIP3    H165162   0.786   2.447  16.755 -0.8309  1.7913  2.2069
14557TIP3    H265163   0.816   2.299  16.752  2.3413  2.2711 -3.9118
14558TIP3   OH265164   5.844   0.835   0.817 -0.3712  0.0523 -0.4828
14558TIP3    H165165   5.759   0.793   0.806 -0.6025  0.2770  0.3294
14558TIP3    H265166   5.889   0.822   0.734 -1.1877 -0.0989 -0.9075
14559TIP3   OH265167   2.232   5.411  14.087 -0.1115  0.2648 -0.5169
14559TIP3    H165168   2.235   5.453  14.173  0.6540  1.7168 -1.2296
14559TIP3    H265169   2.323   5.408  14.058 -0.1015 -1.9978 -0.4881
14560TIP3   OH265170   2.505   4.494   0.374 -0.4860 -0.0161  0.3637
14560TIP3    H165171   2.453   4.415   0.389 -0.7051 -0.0050 -0.3066
14560TIP3    H265172   2.492   4.546   0.453 -0.7834 -0.4023  0.5771
14561TIP3   OH265173   5.373   2.329  13.150 -1.2885 -0.3354 -0.1501
14561TIP3    H165174   5.440   2.393  13.126 -1.6671 -0.7809 -2.6421
14561TIP3    H265175   5.329   2.368  13.226 -0.3387  1.4777 -0.4623
14562TIP3   OH265176   5.921   2.422  13.120  0.1342 -1.1338 -0.2889
14562TIP3    H165177   5.981   2.385  13.055  0.7108 -1.9712  0.6891
14562TIP3    H265178   5.927   2.516  13.107  0.8358 -1.2519 -0.9320
14563TIP3   OH265179   5.716   5.522   0.746  0.3871 -0.0886  0.0387
14563TIP3    H165180   5.741   5.556   0.660  2.3968  2.5473  1.5507
14563TIP3    H265181   5.798   5.513   0.794 -0.8375  0.7969  2.4621
14564TIP3   OH265182   5.686   3.451   0.337 -0.1129 -0.3636  1.3061
14564TIP3    H165183   5.764   3.432   0.285  0.1083 -0.1401  1.5537
14564TIP3    H265184   5.716   3.512   0.404 -0.8907  1.2179  0.2639
14565TIP3   OH265185   1.329   0.365   3.952 -0.5427  0.5118 -0.1170
14565TIP3    H165186   1.412   0.404   3.926 -0.7077  1.4062  0.6634
14565TIP3    H265187   1.293   0.425   4.016 -1.1747 -0.5409  0.5464
14566TIP3   OH265188   6.075   3.853   0.471  0.5701 -0.1234  0.3058
14566TIP3    H165189   6.094   3.946   0.484  2.4850 -0.1541 -1.6817
14566TIP3    H265190   6.021   3.851   0.391 -0.5552 -0.6680  1.0516
14567TIP3   OH265191   6.811   2.480  12.003 -0.2959  0.5137  0.1967
14567TIP3    H165192   6.845   2.407  12.055 -3.9390 -1.5758 -0.0176
14567TIP3    H265193   6.873   2.551  12.018  0.8835 -1.1029  4.3513
14568TIP3   OH265194   3.842   1.954   3.957 -0.1135 -0.4911 -0.1717
14568TIP3    H165195   3.893   1.914   4.028 -0.9837 -2.0344 -0.3447
14568TIP3    H265196   3.757   1.972   3.997 -0.1735 -0.0929 -0.4763
14569TIP3   OH265197   2.095   4.904   2.451 -0.5694 -0.0990  0.5890
14569TIP3    H165198   2.162   4.897   2.519 -0.7523  1.2445  0.9281
14569TIP3    H265199   2.022   4.852   2.484 -0.2736 -0.2889  0.9480
14570TIP3   OH265200   5.487   3.299  12.053 -0.3109 -0.3635 -0.5085
14570TIP3    H165201   5.499   3.230  11.987 -1.0090  1.4413 -2.6518
14570TIP3    H265202   5.436   3.366  12.008  1.5025  2.1944  0.9751
14571TIP3   OH265203   4.836   5.364   4.831 -0.1060  0.5395 -0.0825
14571TIP3    H165204   4.867   5.318   4.909  0.7664 -0.3146 -0.9049
14571TIP3    H265205   4.743   5.343   4.826 -0.4165  1.4608  1.2923
14572TIP3   OH265206   3.403   4.625   4.857 -0.1990 -0.2821  0.2359
14572TIP3    H165207   3.438   4.648   4.771  0.8006 -0.8899  0.4626
14572TIP3    H265208   3.409   4.705   4.908  0.7549 -0.3387  0.2276
14573TIP3   OH265209   1.105   5.044   1.407  0.1656  0.0479  0.2576
14573TIP3    H165210   1.158   4.965   1.393 -1.0809 -0.6734 -0.5571
14573TIP3    H265211   1.045   5.046   1.333 -2.4058 -0.3515  2.2071
14574TIP3   OH265212   3.023   0.072  11.507 -0.4586  0.1840 -0.3320
14574TIP3    H165213   2.961   0.084  11.580 -0.0036 -2.4715  0.5914
14574TIP3    H265214   3.031  -0.023  11.498  1.4412  0.4645 -2.2236
14575TIP3   OH265215   3.628   3.553   0.635  0.5995  0.0017 -0.1114
14575TIP3    H165216   3.590   3.585   0.553  0.8650 -1.4222 -0.8230
14575TIP3    H265217   3.555   3.510   0.679  0.5351  0.4852  0.2638
14576TIP3   OH265218   3.667   1.125  12.563  0.0076  0.2152  0.7426
14576TIP3    H165219   3.674   1.042  12.515  0.4203  1.0394 -0.6933
14576TIP3    H265220   3.755   1.139  12.599  0.5260  0.9822 -0.7291
14577TIP3   OH265221   5.682   4.225  13.145 -0.0006  0.3714  0.5116
14577TIP3    H165222   5.723   4.181  13.071 -0.8762  0.2174  0.1062
14577TIP3    H265223   5.676   4.317  13.118 -1.2365  0.1498 -0.0526
14578TIP3   OH265224   5.519   2.572   4.534  0.5061 -0.1024 -0.1661
14578TIP3    H165225   5.445   2.598   4.478  1.2069 -1.8285 -2.0350
14578TIP3    H265226   5.480   2.560   4.620 -0.6260  2.7191 -0.1458
14579TIP3   OH265227   6.195   0.352  14.134  0.7392 -0.0465  0.3697
14579TIP3    H165228   6.178   0.439  14.099  0.2623  0.2592  1.3113
14579TIP3    H265229   6.245   0.307  14.066 -0.5405  0.3558 -0.8748
14580TIP3   OH265230   6.498   6.199   4.137  0.2393  0.2465 -0.0709
14580TIP3    H165231   6.503   6.149   4.055 -1.6226  0.9423 -0.6761
14580TIP3    H265232   6.404   6.215   4.149  0.5449  0.9467  1.7394
14581TIP3   OH265233   1.533   2.439   1.205  0.5356  0.4598 -0.1372
14581TIP3    H165234   1.531   2.460   1.298  2.3785  1.5776 -0.2968
14581TIP3    H265235   1.621   2.404   1.190 -0.3603 -1.5562 -1.1282
14582TIP3   OH265236   6.446   5.856  13.038 -0.2233  0.2312 -0.5098
14582TIP3    H165237   6.445   5.760  13.029 -0.0327  0.1853 -0.0773
14582TIP3    H265238   6.355   5.882  13.028 -0.1920  0.0662 -1.2696
14583TIP3   OH265239   0.987   5.181  12.243 -0.6300  0.2749  0.2189
14583TIP3    H165240   0.978   5.119  12.170 -0.7104 -0.0925  0.5364
14583TIP3    H265241   1.068   5.228  12.225  0.2762 -0.9998  0.7592
14584TIP3   OH265242   2.442   6.479  11.193  0.1112 -0.2369 -0.7189
14584TIP3    H165243   2.405   6.566  11.176 -1.9949 -0.9990 -0.2770
14584TIP3    H265244   2.537   6.495  11.199 -0.1348  1.8913 -1.4025
14585TIP3   OH265245   5.211   3.011  12.491  0.2099 -0.1579 -0.2346
14585TIP3    H165246   5.222   2.922  12.524 -3.8780 -0.8000 -0.0264
14585TIP3    H265247   5.217   3.067  12.568 -0.6692 -0.7044  0.2516
14586TIP3   OH265248   4.968   5.204  14.222 -0.4553 -0.2051 -0.4279
14586TIP3    H165249   5.063   5.198  14.211 -0.2038  2.0795 -0.1482
14586TIP3    H265250   4.933   5.134  14.168  1.2924  0.7069 -2.9242
14587TIP3   OH265251   3.905   5.461  13.927 -0.1149 -0.0167 -0.4339
14587TIP3    H165252   3.984   5.512  13.906 -0.3672  0.9679  0.8997
14587TIP3    H265253   3.861   5.512  13.995 -1.4544 -1.0030 -0.5322
14588TIP3   OH265254   2.159   2.404   4.798  0.0681  0.4641 -0.7191
14588TIP3    H165255   2.176   2.426   4.706  1.3129 -1.2766 -0.9649
14588TIP3    H265256   2.108   2.323   4.794  0.9091 -0.1266  0.1067
14589TIP3   OH265257   2.831   2.742  15.967 -0.0394 -0.0620 -0.2080
14589TIP3    H165258   2.774   2.707  16.035 -1.0565 -0.7198 -1.3572
14589TIP3    H265259   2.819   2.683  15.893  0.4997  1.0254 -1.1952
14590TIP3   OH265260   1.831   0.702   1.147  0.5102  0.0475  0.5935
14590TIP3    H165261   1.876   0.783   1.171 -1.2047  1.3092 -0.2237
14590TIP3    H265262   1.895   0.633   1.164  2.0706  1.5707  1.2090
14591TIP3   OH265263   3.137   6.197  13.065  0.5732 -0.1811  0.3875
14591TIP3    H165264   3.124   6.278  13.115 -0.5758  1.8315 -2.8359
14591TIP3    H265265   3.230   6.198  13.042  1.3373 -1.5906  2.9446
14592TIP3   OH265266   3.809   5.894  14.280 -0.5327  0.3442 -0.3651
14592TIP3    H165267   3.746   5.958  14.314 -0.8488  0.5476 -1.3064
14592TIP3    H265268   3.756   5.818  14.256 -0.1746 -0.2365  0.6328
14593TIP3   OH265269   4.464   3.331  14.679  0.1815 -0.3477  0.1913
14593TIP3    H165270   4.389   3.277  14.656 -0.0854  0.3402 -0.6228
14593TIP3    H265271   4.463   3.333  14.775 -2.5962  1.9383  0.2665
14594TIP3   OH265272   0.223   1.725  12.121 -0.2919 -0.5935  0.1310
14594TIP3    H165273   0.173   1.802  12.096 -1.0072 -1.4738 -1.3060
14594TIP3    H265274   0.314   1.756  12.128 -0.9789  1.0654  3.0094
14595TIP3   OH265275   3.142   3.336   0.959  0.6102  0.5879 -0.1551
14595TIP3    H165276   3.191   3.394   0.900  0.1333 -0.7058 -1.8806
14595TIP3    H265277   3.178   3.249   0.943 -1.3162 -0.1846 -0.4603
14596TIP3   OH265278   5.747   0.904  13.043  0.1014  0.2061  0.0282
14596TIP3    H165279   5.803   0.926  12.969 -1.7002  1.6689 -0.9670
14596TIP3    H265280   5.711   0.818  13.021  0.2875  0.2241 -0.3436
14597TIP3   OH265281   6.626   6.275  12.244 -0.0311  0.3552 -0.4917
14597TIP3    H165282   6.663   6.260  12.331 -0.4993  0.0870 -0.3350
14597TIP3    H265283   6.688   6.234  12.184  0.4810  0.8547 -0.3183
14598TIP3   OH265284   3.909   3.580  11.979  0.1731 -0.7144  0.0127
14598TIP3    H165285   3.846   3.650  11.962 -1.1538 -2.2493 -1.7354
14598TIP3    H265286   3.859   3.499  11.971  2.0183 -1.9449  0.2454
14599TIP3   OH265287   5.923   3.647  12.158 -0.0341 -0.0014  0.7454
14599TIP3    H165288   5.865   3.608  12.093 -1.0771  0.7837  1.1658
14599TIP3    H265289   5.868   3.713  12.202  1.4099  1.4017  0.5559
14600TIP3   OH265290   5.697   2.761  14.210 -0.1352 -0.5423  0.4748
14600TIP3    H165291   5.622   2.772  14.150  1.0705 -0.9157 -1.1707
14600TIP3    H265292   5.754   2.835  14.191  0.4214 -0.8455  0.9356
14601TIP3   OH265293   5.091   1.760  11.166  0.0400 -0.1777  0.0800
14601TIP3    H165294   5.006   1.801  11.178 -1.1570 -2.7127  0.8712
14601TIP3    H265295   5.136   1.772  11.249  0.8751  1.9137 -0.6131
14602TIP3   OH265296   1.210   5.466  12.658  0.5903  0.3041 -0.2853
14602TIP3    H165297   1.206   5.558  12.683 -1.5177  0.4111 -0.7878
14602TIP3    H265298   1.244   5.467  12.569 -0.8168  0.7713 -0.8500
14603TIP3   OH265299   5.768   3.390   6.247  0.0743  0.5045 -0.3247
14603TIP3    H165300   5.699   3.446   6.213 -0.0568  0.5799  0.0581
14603TIP3    H265301   5.784   3.423   6.336 -1.6831 -1.5504  0.8440
14604TIP3   OH265302   3.810   0.645  15.271 -0.3989  0.4226  0.0591
14604TIP3    H165303   3.862   0.571  15.302 -0.5419  0.0886 -0.4906
14604TIP3    H265304   3.860   0.722  15.297  1.8913  0.1149 -2.8750
14605TIP3   OH265305   2.431   1.989   4.527 -0.4481 -0.2578 -0.0493
14605TIP3    H165306   2.351   2.042   4.530 -0.8580 -0.7894 -1.0682
14605TIP3    H265307   2.444   1.959   4.617 -0.2968  1.4171  0.5312
14606TIP3   OH265308   3.162   5.984  14.124  0.2055 -0.8327  0.3592
14606TIP3    H165309   3.119   6.018  14.045 -0.2488 -1.2938  0.4008
14606TIP3    H265310   3.117   6.027  14.196  0.2864 -0.7905  0.3852
14607TIP3   OH265311   2.712   3.558   4.318  0.0569  0.0294  0.4394
14607TIP3    H165312   2.695   3.568   4.411  2.0626 -0.5838  0.9162
14607TIP3    H265313   2.627   3.531   4.281 -0.9162  0.8866  1.9572
14608TIP3   OH265314   1.191   4.435  13.839 -0.5747  0.6063  0.6365
14608TIP3    H165315   1.219   4.456  13.750 -1.9878 -0.0647  0.0105
14608TIP3    H265316   1.226   4.347  13.855 -0.5652  0.6112  0.6429
14609TIP3   OH265317   2.744   6.369  13.441 -0.7032 -0.8623  0.4940
14609TIP3    H165318   2.839   6.375  13.429 -0.8892  1.1400 -0.4100
14609TIP3    H265319   2.727   6.275  13.450  1.4949 -1.1843  2.0612
14610TIP3   OH265320   5.735   1.852   0.611 -0.4944  0.2574  0.1337
14610TIP3    H165321   5.688   1.777   0.574  1.0756 -1.1207  0.8313
14610TIP3    H265322   5.736   1.835   0.705  0.8003  0.6016  0.1937
14611TIP3   OH265323   3.050   3.141  16.775  0.4930 -0.0032 -0.5948
14611TIP3    H165324   3.139   3.159  16.743  0.2928  1.1719 -0.5313
14611TIP3    H265325   3.044   3.045  16.777  1.6097 -0.0943 -1.0070
14612TIP3   OH265326   4.005   2.691   0.989  0.0740  0.4601 -0.4088
14612TIP3    H165327   4.066   2.717   0.920  0.7826  2.8325  1.0166
14612TIP3    H265328   3.938   2.758   0.989 -0.2746  0.1333  0.7712
14613TIP3   OH265329   4.191   1.846  14.953  0.5142 -0.0580 -0.4740
14613TIP3    H165330   4.124   1.827  14.887  1.3487 -0.5529 -1.2075
14613TIP3    H265331   4.274   1.842  14.905  1.1464 -0.4173  0.6074
14614TIP3   OH265332   5.799   2.894   4.808 -0.0718  0.7256  0.1834
14614TIP3    H165333   5.868   2.869   4.869  0.0330  1.4927  0.3858
14614TIP3    H265334   5.791   2.819   4.749 -0.0505  0.0511  1.0184
14615TIP3   OH265335   2.033   1.735   5.566 -0.0561  0.5812  0.5225
14615TIP3    H165336   2.021   1.643   5.543  0.3607  0.5786  0.2999
14615TIP3    H265337   2.044   1.735   5.661 -0.1656  0.4115  0.5350
14616TIP3   OH265338   2.896   1.040   2.760  0.7185 -0.0655 -0.6469
14616TIP3    H165339   2.860   1.082   2.682 -0.3880  2.7172  1.2173
14616TIP3    H265340   2.835   1.063   2.831  1.3334 -2.9558  1.0173
14617TIP3   OH265341   5.798   4.978  16.090  0.5251 -0.3886  0.3630
14617TIP3    H165342   5.791   4.911  16.158 -1.3053 -0.8155 -0.1992
14617TIP3    H265343   5.753   5.054  16.127 -3.2109 -1.5282 -1.3447
14618TIP3   OH265344   3.010   2.985  14.958  0.4243 -0.1365  0.6516
14618TIP3    H165345   3.087   2.954  15.005  1.0902  1.5310  0.7157
14618TIP3    H265346   3.006   3.079  14.977 -1.3619 -0.0989  0.2813
14619TIP3   OH265347   5.743   2.414   0.297 -0.2131 -0.6408 -0.5656
14619TIP3    H165348   5.762   2.382   0.209  0.6078  2.1436 -1.5216
14619TIP3    H265349   5.814   2.475   0.317 -1.0024 -0.3006  1.5593
14620TIP3   OH265350   2.410   4.190  14.207 -0.1370 -0.2922  0.1899
14620TIP3    H165351   2.324   4.192  14.250 -0.3538 -0.2862 -0.2352
14620TIP3    H265352   2.473   4.182  14.279 -0.4321  0.7716  0.5832
14621TIP3   OH265353   5.892   6.393  12.191  0.3716  0.2576  0.0688
14621TIP3    H165354   5.963   6.335  12.219 -0.5069 -0.8496  0.0727
14621TIP3    H265355   5.842   6.341  12.129  0.1041  1.3670 -0.6704
14622TIP3   OH265356   5.439   0.272  10.889  0.4798  0.3468 -0.5369
14622TIP3    H165357   5.509   0.248  10.828  1.7173 -0.6621  1.1818
14622TIP3    H265358   5.485   0.293  10.971 -1.1974 -0.0430  0.5533
14623TIP3   OH265359   4.287   4.651  14.246 -0.3378  0.5126  0.2938
14623TIP3    H165360   4.294   4.694  14.331 -0.7057  0.2363  0.4675
14623TIP3    H265361   4.248   4.565  14.266  0.2911  0.1396 -0.0555
14624TIP3   OH265362   5.779   6.788   1.508 -0.2837 -0.1511 -0.1120
14624TIP3    H165363   5.726   6.839   1.571  0.0890  0.4016 -0.2383
14624TIP3    H265364   5.858   6.766   1.556  0.1724  0.6005 -0.4926
14625TIP3   OH265365   1.014   5.018  15.336  0.7970 -0.3662  0.3943
14625TIP3    H165366   0.928   5.012  15.377  0.9952  0.5131  0.9736
14625TIP3    H265367   1.012   4.954  15.265 -0.6879  0.3571 -0.2391
14626TIP3   OH265368   0.585   3.200   5.123 -0.1146  0.9405  0.4494
14626TIP3    H165369   0.585   3.158   5.036  1.5768 -0.1699  0.9326
14626TIP3    H265370   0.503   3.171   5.163 -1.5632  2.4970 -1.1824
14627TIP3   OH265371   1.016   5.937  10.789 -0.1282  0.3763 -0.2656
14627TIP3    H165372   1.057   5.902  10.867  2.2749  1.3603 -0.9914
14627TIP3    H265373   0.970   6.016  10.819  0.2032  0.3691  0.2654
14628TIP3   OH265374   1.558   3.929  14.531 -0.2926 -0.5276 -0.6425
14628TIP3    H165375   1.594   3.845  14.503 -0.3559 -1.2348  1.2511
14628TIP3    H265376   1.634   3.986  14.541  0.0817 -1.2337  0.7980
14629TIP3   OH265377   4.873   3.382  15.623  0.3434  0.4949  0.0463
14629TIP3    H165378   4.903   3.293  15.644  1.4757  0.7202 -0.5188
14629TIP3    H265379   4.784   3.371  15.590  0.4629 -0.4256  0.0197
14630TIP3   OH265380   2.198   5.218  14.653 -0.1467  1.0317 -0.1746
14630TIP3    H165381   2.271   5.276  14.674  0.4391  0.2565 -0.0250
14630TIP3    H265382   2.223   5.133  14.689 -1.2461  0.8075  0.1134
14631TIP3   OH265383   1.264   2.184   0.322 -0.2661  0.0185 -0.1602
14631TIP3    H165384   1.183   2.149   0.285 -0.9434 -0.2266  1.4763
14631TIP3    H265385   1.308   2.224   0.247 -2.0702  0.4987 -1.0428
14632TIP3   OH265386   6.111   2.801   4.758  0.3110 -0.0580 -0.0341
14632TIP3    H165387   6.042   2.736   4.769  0.7079 -0.6125 -0.7007
14632TIP3    H265388   6.113   2.817   4.663  0.3637  0.7679  0.1026
14633TIP3   OH265389   4.248   3.036  12.683  0.0719 -0.0991 -0.5679
14633TIP3    H165390   4.334   3.055  12.646  1.1517 -0.1806  1.7297
14633TIP3    H265391   4.244   3.090  12.762 -1.8920 -0.2994 -0.4897
14634TIP3   OH265392   3.411   6.240  16.085  0.4035 -0.0147 -0.1760
14634TIP3    H165393   3.488   6.291  16.109 -0.1935  1.2453 -0.8321
14634TIP3    H265394   3.340   6.280  16.136  0.1159 -0.9514  0.1711
14635TIP3   OH265395   1.416   4.512   3.792  0.1169 -0.3939 -0.0505
14635TIP3    H165396   1.337   4.531   3.741 -1.2383  0.1526  2.1261
14635TIP3    H265397   1.385   4.504   3.882  2.8534  2.6220  1.3900
14636TIP3   OH265398   2.736   1.961   0.012  0.5208 -0.2835 -0.1742
14636TIP3    H165399   2.803   1.933   0.075  0.7476 -1.0290 -0.7319
14636TIP3    H265400   2.723   2.054   0.031  1.4455 -0.2112  0.1833
14637TIP3   OH265401   3.476   3.747  11.354  0.1455  0.3695 -0.5146
14637TIP3    H165402   3.432   3.673  11.312  0.2081  0.0028  0.0431
14637TIP3    H265403   3.411   3.780  11.416  0.1849  0.6658 -0.6333
14638TIP3   OH265404   1.306   6.334   5.646 -0.4744  0.4523 -0.3027
14638TIP3    H165405   1.294   6.405   5.709 -1.2065 -1.4562  1.8206
14638TIP3    H265406   1.349   6.264   5.696 -1.1526 -1.1675 -1.8846
14639TIP3   OH265407   5.139   6.029  12.896 -0.4702  0.0032 -1.5311
14639TIP3    H165408   5.107   6.002  12.982 -1.4750 -1.4584 -2.3126
14639TIP3    H265409   5.167   6.120  12.908 -2.8928  0.6808 -0.2173
14640TIP3   OH265410   5.318   2.332  11.143  0.3925 -0.2260 -0.2542
14640TIP3    H165411   5.288   2.251  11.102  0.6679 -0.9302  0.8935
14640TIP3    H265412   5.405   2.346  11.107  1.5223 -1.9960  1.5947
14641TIP3   OH265413   0.398   6.670   1.299  0.1479 -0.8908 -0.4510
14641TIP3    H165414   0.465   6.623   1.251  1.3259  0.9510 -0.7038
14641TIP3    H265415   0.436   6.685   1.386  0.2309  0.4041 -0.6837
14642TIP3   OH265416   2.075   4.989  15.453 -0.0492 -0.7177  0.0883
14642TIP3    H165417   2.112   4.901  15.449  0.4366 -0.6221  1.6159
14642TIP3    H265418   2.076   5.021  15.363  0.1479 -2.1155 -0.4170
14643TIP3   OH265419   1.056   1.172   4.101  0.1927  0.6543  0.2953
14643TIP3    H165420   1.027   1.198   4.189 -0.5487 -0.1771  0.3083
14643TIP3    H265421   1.064   1.077   4.105 -0.0565  0.5873 -0.6081
14644TIP3   OH265422   6.309   5.062  16.440  0.4827  0.5081  0.3956
14644TIP3    H165423   6.342   5.032  16.525  1.0672 -1.1884 -0.3903
14644TIP3    H265424   6.325   5.156  16.441  3.7532  0.0825  0.8251
14645TIP3   OH265425   3.264   3.641   1.932 -0.1849  0.1560 -0.0266
14645TIP3    H165426   3.253   3.570   1.869  1.7625  0.6036 -0.9600
14645TIP3    H265427   3.294   3.715   1.879  0.2193  0.9395  1.2541
14646TIP3   OH265428   1.399   0.812   1.784 -0.0315 -0.0561 -0.2150
14646TIP3    H165429   1.484   0.790   1.745 -0.8627 -2.4103 -0.9280
14646TIP3    H265430   1.399   0.766   1.868  0.0522  1.4000  0.6042
14647TIP3   OH265431   1.122   0.394  14.998 -0.2648  0.0608  0.5684
14647TIP3    H165432   1.132   0.322  15.060  0.9579  1.3372  1.9424
14647TIP3    H265433   1.206   0.397  14.952  0.1127  1.2353  1.2837
14648TIP3   OH265434   6.706   1.738  12.301 -0.2549  0.0974  0.3104
14648TIP3    H165435   6.636   1.678  12.326  0.8356 -0.4648  2.2523
14648TIP3    H265436   6.697   1.747  12.207 -1.3970 -1.9396  0.1607
14649TIP3   OH265437   1.991   3.065   1.393  0.0949  0.0669 -0.8157
14649TIP3    H165438   1.983   2.975   1.423 -2.7089 -0.3704 -2.5369
14649TIP3    H265439   2.064   3.063   1.331  1.1710 -0.5903  0.4285
14650TIP3   OH265440   1.584   0.464   2.499 -0.0928 -0.0932 -0.2689
14650TIP3    H165441   1.615   0.553   2.479 -0.9377  0.5100  0.9187
14650TIP3    H265442   1.664   0.413   2.511  0.4728  0.9906  0.9160
14651TIP3   OH265443   0.106   4.962  16.674 -0.3237 -0.0619  0.0858
14651TIP3    H165444   0.148   4.974  16.589 -1.7119  0.9629 -0.5079
14651TIP3    H265445   0.079   4.870  16.674  2.2915 -0.9159  0.7245
14652TIP3   OH265446   0.708   6.135   2.615  0.1736 -0.2730  0.9799
14652TIP3    H165447   0.622   6.157   2.579  0.0166  0.8192  1.9455
14652TIP3    H265448   0.709   6.176   2.702  0.3991 -3.0347  2.3951
14653TIP3   OH265449   5.001   0.319  13.858 -0.2662  0.1691 -0.1175
14653TIP3    H165450   5.072   0.278  13.810 -0.6775 -0.8672  0.1458
14653TIP3    H265451   5.003   0.411  13.829 -0.2843 -0.3402 -1.8513
14654TIP3   OH265452   0.613   5.180  13.005  0.3833  0.0659  0.2034
14654TIP3    H165453   0.598   5.196  13.098  0.8447  0.4281  0.2205
14654TIP3    H265454   0.700   5.140  13.001 -0.0026 -0.7731 -0.0028
14655TIP3   OH265455   4.210   4.711  13.509 -0.1414 -0.5271 -0.2218
14655TIP3    H165456   4.251   4.684  13.426  0.6654  0.7236 -0.2565
14655TIP3    H265457   4.136   4.766  13.483 -0.3380 -0.7446 -0.1229
14656TIP3   OH265458   4.702   5.201   1.793  0.2255 -0.1006 -0.4938
14656TIP3    H165459   4.722   5.119   1.747 -1.2355  0.7181 -2.7267
14656TIP3    H265460   4.783   5.224   1.838  0.7557 -2.6119 -0.0115
14657TIP3   OH265461   6.580   3.854  17.002 -0.0157  0.2186 -0.1568
14657TIP3    H165462   6.613   3.807  17.078  0.6707 -2.1854 -1.7953
14657TIP3    H265463   6.533   3.929  17.038  2.0534  0.3719  2.4943
14658TIP3   OH265464   3.875   4.743  13.922  0.0332  0.0262 -0.1116
14658TIP3    H165465   3.863   4.822  13.974 -0.8001 -0.4055  0.3735
14658TIP3    H265466   3.920   4.682  13.980 -0.5601 -0.3239 -0.0044
14659TIP3   OH265467   2.571   5.075  15.025 -0.1736 -0.0626  0.3146
14659TIP3    H165468   2.531   4.988  15.029  1.3331 -0.7492  1.8928
14659TIP3    H265469   2.665   5.058  15.034  0.3151  1.6354 -1.1301
14660TIP3   OH265470   6.608   6.330  16.025  0.4779 -0.0374 -0.2068
14660TIP3    H165471   6.523   6.290  16.007  0.2536  0.2963  0.0900
14660TIP3    H265472   6.672   6.260  16.010  0.0569 -0.6619  0.8228
14661TIP3   OH265473   4.964   4.397   6.190 -0.5982  0.3386 -0.1505
14661TIP3    H165474   4.885   4.448   6.172 -0.9526  0.1889  0.8991
14661TIP3    H265475   5.023   4.459   6.232 -0.8526  0.0130  0.7041
14662TIP3   OH265476   2.942   6.403   4.478  0.3124 -0.1569 -0.1055
14662TIP3    H165477   2.917   6.377   4.389  0.8987  1.2837 -0.7121
14662TIP3    H265478   2.869   6.456   4.509  0.5020  0.0711 -0.0513
14663TIP3   OH265479   3.686   2.251  13.484 -0.0976 -0.6472  0.3055
14663TIP3    H165480   3.771   2.208  13.476  0.3411 -0.1373  1.7926
14663TIP3    H265481   3.648   2.247  13.397  1.9142  0.0408 -0.6658
14664TIP3   OH265482   3.635   0.425  15.039 -0.3682 -0.8012  0.2792
14664TIP3    H165483   3.729   0.433  15.059 -0.1814  0.2460 -0.9197
14664TIP3    H265484   3.591   0.444  15.121  0.4750 -1.9969  1.0416
14665TIP3   OH265485   1.742   5.400   5.425  0.5175  0.1015  0.2191
14665TIP3    H165486   1.816   5.391   5.485  1.3444 -0.9038 -0.8934
14665TIP3    H265487   1.668   5.361   5.471  1.3466 -1.5108  0.2574
14666TIP3   OH265488   3.635   5.581  12.105  0.0651  0.2189  0.3279
14666TIP3    H165489   3.669   5.496  12.133  0.5880  0.5501  0.7162
14666TIP3    H265490   3.614   5.568  12.012 -1.0055 -0.6762  0.6726
14667TIP3   OH265491   2.869   2.925  15.634  0.1705 -0.0880  0.0093
14667TIP3    H165492   2.860   2.829  15.638  3.0367 -0.3827  2.1681
14667TIP3    H265493   2.821   2.957  15.710  0.2659  0.1039 -0.0109
14668TIP3   OH265494   4.977   6.250  10.981  0.1644  0.1647  0.0085
14668TIP3    H165495   5.009   6.285  10.897 -0.0322  0.2674 -0.0247
14668TIP3    H265496   5.051   6.200  11.016  0.1538 -0.1201 -0.3633
14669TIP3   OH265497   1.032   4.050   3.873  0.3257  0.6101 -0.2791
14669TIP3    H165498   1.065   4.081   3.789  3.8920 -0.5975  0.4965
14669TIP3    H265499   1.094   4.085   3.937  1.0039 -2.8771  1.2049
14670TIP3   OH265500   0.425   1.163  15.690 -0.1010  0.0596 -0.1554
14670TIP3    H165501   0.434   1.255  15.665 -3.0063  1.0614  1.9451
14670TIP3    H265502   0.347   1.133  15.643 -0.3011 -0.7379  0.6598
14671TIP3   OH265503   0.652   2.328  13.921 -0.2802 -0.0854  0.3714
14671TIP3    H165504   0.605   2.245  13.932 -1.2972  0.5611  1.0218
14671TIP3    H265505   0.597   2.379  13.863  0.0480  0.3611  0.4508
14672TIP3   OH265506   1.261   0.939  16.443  0.4619 -0.7069  0.1328
14672TIP3    H165507   1.286   0.876  16.511 -0.2892 -0.8625  0.2680
14672TIP3    H265508   1.167   0.948  16.452  0.5963  0.7036  0.3439
14673TIP3   OH265509   0.859   3.918  11.999  0.1051 -0.4854  0.6308
14673TIP3    H165510   0.771   3.894  11.970 -0.2647  1.0747  0.3779
14673TIP3    H265511   0.844   3.977  12.073  0.9856 -1.3584  1.5368
14674TIP3   OH265512   1.162   5.029   1.097  0.2651  0.4025 -0.3859
14674TIP3    H165513   1.255   5.016   1.080  0.0916  1.3403 -2.3316
14674TIP3    H265514   1.127   4.942   1.112  1.1160 -0.1861 -1.6634
14675TIP3   OH265515   3.443   3.854   1.764  0.4463  0.0319 -0.1474
14675TIP3    H165516   3.511   3.921   1.766 -0.4630  1.0809 -2.0699
14675TIP3    H265517   3.423   3.842   1.672 -2.3507  0.1778  0.3563
14676TIP3   OH265518   0.892   0.058   3.832  0.0146  0.5580 -0.1592
14676TIP3    H165519   0.901  -0.026   3.878 -1.4647 -0.3401 -1.4159
14676TIP3    H265520   0.801   0.060   3.803 -0.3595  3.1813  0.8632
14677TIP3   OH265521   2.879   5.789   5.599 -0.0896  0.0091 -0.0767
14677TIP3    H165522   2.901   5.882   5.589 -0.8315  0.4393  1.9186
14677TIP3    H265523   2.829   5.768   5.520 -0.1652  1.3786 -0.4220
14678TIP3   OH265524   3.544   4.582   2.983  0.3273 -0.0285  0.1376
14678TIP3    H165525   3.593   4.506   2.951  0.3914 -0.0014  0.1707
14678TIP3    H265526   3.552   4.577   3.079  2.2367  1.2668  0.0937
14679TIP3   OH265527   1.229   6.056  14.982 -0.2302  0.5298  0.0236
14679TIP3    H165528   1.303   6.106  14.949  0.1704  0.1122  0.2800
14679TIP3    H265529   1.250   6.039  15.074 -0.0564 -0.6416 -0.2154
14680TIP3   OH265530   3.150   1.627   3.299 -0.4284 -0.0055 -0.5142
14680TIP3    H165531   3.241   1.652   3.315 -0.3089  0.3723 -1.7095
14680TIP3    H265532   3.154   1.536   3.269 -0.3722  0.2269 -1.2270
14681TIP3   OH265533   3.403   3.313   2.432 -0.1909 -0.3854 -0.1025
14681TIP3    H165534   3.440   3.390   2.389 -1.8350  0.7782  0.4495
14681TIP3    H265535   3.470   3.287   2.496 -0.7137  2.4711  1.8290
14682TIP3   OH265536   3.659   4.477   3.572  0.0612 -0.2486  0.6151
14682TIP3    H165537   3.627   4.396   3.533 -1.2718 -0.4031  1.9563
14682TIP3    H265538   3.742   4.452   3.614  0.9657 -0.3078 -1.1046
14683TIP3   OH265539   5.120   4.122   4.264  0.4933 -0.2621  0.3288
14683TIP3    H165540   5.146   4.148   4.175  2.0179 -0.5893  0.6566
14683TIP3    H265541   5.071   4.197   4.297  0.2627  0.0273 -0.6455
14684TIP3   OH265542   2.148   3.968   4.040 -0.0454  0.6392 -0.2814
14684TIP3    H165543   2.139   3.890   4.095  1.5142  0.7786  0.2240
14684TIP3    H265544   2.242   3.979   4.029 -0.2372  2.2460 -0.6417
14685TIP3   OH265545   4.949   0.006  14.263  0.2762 -0.2050 -0.2944
14685TIP3    H165546   4.939   0.099  14.243 -1.1221  0.1259  1.6462
14685TIP3    H265547   4.985   0.004  14.352 -2.1210 -1.4225  0.7664
14686TIP3   OH265548   4.361   0.308  15.818 -0.5010 -0.2392  0.0155
14686TIP3    H165549   4.432   0.341  15.764 -1.3074  1.7616  0.0809
14686TIP3    H265550   4.315   0.245  15.763 -0.2637  0.4643 -1.0085
14687TIP3   OH265551   0.532   2.316  11.738  0.5520 -0.2618 -0.3814
14687TIP3    H165552   0.588   2.392  11.720 -0.0258 -0.0743 -1.5151
14687TIP3    H265553   0.534   2.265  11.657 -0.8265 -0.2893 -0.4287
14688TIP3   OH265554   5.133   2.518  11.077 -0.2310  0.1381  0.5098
14688TIP3    H165555   5.060   2.463  11.106  0.4630 -0.4665  1.1652
14688TIP3    H265556   5.211   2.464  11.093  0.4350  1.1665  0.8185
14689TIP3   OH265557   1.538   1.255   3.387  0.0360  0.5642  0.1089
14689TIP3    H165558   1.620   1.240   3.434 -0.5153  2.2591  1.7592
14689TIP3    H265559   1.490   1.173   3.397  1.3153 -0.3054 -0.5247
14690TIP3   OH265560   6.514   2.922   0.645 -0.3255  0.3849 -0.0621
14690TIP3    H165561   6.523   2.863   0.570  0.0276  0.9805 -0.4927
14690TIP3    H265562   6.448   2.880   0.700 -0.3887 -0.1987 -0.5652
14691TIP3   OH265563   2.258   4.698   1.117 -0.6848 -0.4380  0.2481
14691TIP3    H165564   2.300   4.734   1.195 -0.3980  2.3431 -1.0550
14691TIP3    H265565   2.331   4.677   1.059 -0.9091  1.4228 -0.7943
14692TIP3   OH265566   3.276   6.456   5.280 -0.2643 -0.2711 -0.5905
14692TIP3    H165567   3.250   6.536   5.235  0.0884  0.4138  0.3856
14692TIP3    H265568   3.365   6.473   5.311  0.8422 -2.0004 -2.5445
14693TIP3   OH265569   6.618   4.973  12.566  0.2603 -0.5183 -0.1116
14693TIP3    H165570   6.617   5.058  12.522 -1.8050  0.1601  1.0904
14693TIP3    H265571   6.676   4.985  12.641 -1.6701  0.6074  1.2965
14694TIP3   OH265572   4.340   2.495  15.758 -0.6964 -0.1674  0.3234
14694TIP3    H165573   4.379   2.458  15.837  0.0120 -0.5318 -0.1884
14694TIP3    H265574   4.292   2.571  15.789  1.3850  1.0104  0.8606
14695TIP3   OH265575   6.590   5.461  13.402 -0.1151  0.0401 -0.0894
14695TIP3    H165576   6.589   5.557  13.408  0.2818 -0.0101  1.0880
14695TIP3    H265577   6.527   5.433  13.468  1.3808 -0.5367  1.1721
14696TIP3   OH265578   5.563   3.782  14.481 -0.1827  0.0330 -0.3021
14696TIP3    H165579   5.620   3.728  14.534  0.8040  0.9481 -0.4081
14696TIP3    H265580   5.620   3.848  14.442 -0.6965 -1.0521 -3.1443
14697TIP3   OH265581   0.737   1.935   6.223 -0.3217 -0.3121 -0.2218
14697TIP3    H165582   0.733   1.897   6.135 -0.8853 -0.6675 -0.0467
14697TIP3    H265583   0.770   2.024   6.209  1.8450 -1.0953 -0.5694
14698TIP3   OH265584   3.257   0.577   1.798 -0.6456  0.3435 -0.0734
14698TIP3    H165585   3.296   0.496   1.764 -0.0564  0.0571  1.2168
14698TIP3    H265586   3.184   0.548   1.853  0.4531  0.5497  1.5758
14699TIP3   OH265587   0.802   3.486  15.927 -0.1902  0.1568 -0.0965
14699TIP3    H165588   0.869   3.504  15.992  1.3060  1.4806 -1.9133
14699TIP3    H265589   0.846   3.497  15.843 -2.3858 -0.1438 -1.3609
14700TIP3   OH265590   4.324   2.308   0.149 -0.2755  0.5559 -0.0369
14700TIP3    H165591   4.318   2.217   0.179 -0.8631  0.1591 -1.2570
14700TIP3    H265592   4.368   2.301   0.064  0.0292  1.4616  0.0385
14701TIP3   OH265593   2.482   4.170   2.318  0.5805 -0.6695 -0.1896
14701TIP3    H165594   2.457   4.246   2.265  1.0366  0.5808  1.2987
14701TIP3    H265595   2.450   4.191   2.406 -0.1322 -2.6685  0.0747
14702TIP3   OH265596   1.592   2.060   4.550 -0.2237 -0.2999 -0.2463
14702TIP3    H165597   1.601   1.965   4.562 -0.4322 -0.5410 -1.7643
14702TIP3    H265598   1.499   2.073   4.532 -0.2930  0.2689  0.4966
14703TIP3   OH265599   4.349   5.420  15.379 -0.3406  0.1226  0.6018
14703TIP3    H165600   4.323   5.346  15.434 -0.5557 -1.7524 -1.8629
14703TIP3    H265601   4.297   5.411  15.300  1.7208  1.1890 -0.9851
14704TIP3   OH265602   1.039   2.061   1.797 -0.1784 -0.1656 -0.6960
14704TIP3    H165603   1.089   2.120   1.742  0.3984  0.8921  0.8934
14704TIP3    H265604   1.018   2.112   1.875 -2.1914 -1.1560 -0.5064
14705TIP3   OH265605   0.159   0.897  10.574 -0.2882 -0.1850 -0.0060
14705TIP3    H165606   0.171   0.845  10.653  1.1980  1.4052  0.8819
14705TIP3    H265607   0.209   0.852  10.507 -0.2829 -0.7103  0.3436
14706TIP3   OH265608   4.279   0.073  11.726  0.0709  0.3584  0.8103
14706TIP3    H165609   4.245  -0.003  11.679 -0.2100 -0.2986  2.0314
14706TIP3    H265610   4.226   0.146  11.695 -0.4175 -0.1370  0.4579
14707TIP3   OH265611   1.290   2.745  16.315  0.1240 -0.1189  0.0914
14707TIP3    H165612   1.286   2.838  16.339 -2.9053 -0.1487  0.0630
14707TIP3    H265613   1.270   2.698  16.396  0.6445 -0.7107 -0.1139
14708TIP3   OH265614   4.417   6.534   4.520 -0.2218  0.0047 -0.0023
14708TIP3    H165615   4.464   6.595   4.577 -0.3406  0.5347 -0.4617
14708TIP3    H265616   4.486   6.483   4.477 -0.1450 -0.7310  0.9598
14709TIP3   OH265617   0.189   5.861  14.020 -0.5217  0.1466 -0.4971
14709TIP3    H165618   0.237   5.936  14.054 -0.0132 -0.9082  1.2257
14709TIP3    H265619   0.254   5.792  14.013 -1.5991 -1.1294  1.2879
14710TIP3   OH265620   0.210   3.220  14.250  0.1175 -0.2343 -0.4058
14710TIP3    H165621   0.119   3.240  14.230  0.2685 -0.4152 -1.3395
14710TIP3    H265622   0.209   3.127  14.276  0.1419 -0.4931 -1.2823
14711TIP3   OH265623   4.705   1.115  10.971 -0.1794  0.1568 -0.3343
14711TIP3    H165624   4.727   1.177  11.041 -1.5136 -0.0369  0.2728
14711TIP3    H265625   4.722   1.164  10.890 -0.6091  1.0996  0.1290
14712TIP3   OH265626   2.426   5.175   5.307  0.2185  0.2497 -0.9223
14712TIP3    H165627   2.443   5.150   5.398 -1.1031 -0.5374 -0.8598
14712TIP3    H265628   2.332   5.194   5.304 -0.2568 -1.9295 -2.5809
14713TIP3   OH265629   5.919   1.910  14.293 -0.8252  0.0728  0.4569
14713TIP3    H165630   5.875   1.987  14.329 -0.1244 -0.0445  1.6026
14713TIP3    H265631   6.012   1.930  14.300 -0.6490 -0.5706  0.0413
14714TIP3   OH265632   6.742   6.362   3.924 -0.1762 -0.5287  0.0104
14714TIP3    H165633   6.726   6.277   3.964 -0.4723 -0.9597 -0.9962
14714TIP3    H265634   6.660   6.384   3.880  0.5698 -0.7296 -1.5287
14715TIP3   OH265635   0.465   6.528   4.684 -0.1353  0.2039  0.1658
14715TIP3    H165636   0.463   6.469   4.759 -0.7621 -0.6256 -0.4957
14715TIP3    H265637   0.557   6.529   4.657  0.1380  0.7011  1.0843
14716TIP3   OH265638   4.664   1.088  13.947  0.4807 -0.1806 -0.1535
14716TIP3    H165639   4.668   1.176  13.909 -2.1029 -0.0491 -0.2992
14716TIP3    H265640   4.595   1.094  14.013  1.5684 -1.6604  1.1934
14717TIP3   OH265641   3.685   5.268  13.634  0.5853  0.4462  1.0050
14717TIP3    H165642   3.618   5.325  13.672  0.5647 -0.2294  2.0015
14717TIP3    H265643   3.711   5.210  13.706  0.6779 -0.7430  0.0357
14718TIP3   OH265644   0.089   6.115   5.165  0.0648  0.0426 -0.3691
14718TIP3    H165645   0.069   6.173   5.091 -1.9046 -1.8331 -1.4081
14718TIP3    H265646   0.022   6.136   5.230  1.2216  1.0170  0.5615
14719TIP3   OH265647   5.589   2.805  17.233 -0.0252  0.2544  0.4091
14719TIP3    H165648   5.551   2.741  17.172 -1.8202 -0.1392  1.8373
14719TIP3    H265649   5.513   2.847  17.274  1.1243  2.2884  0.5773
14720TIP3   OH265650   3.829   3.370  14.349  0.0875  0.2123  0.1324
14720TIP3    H165651   3.839   3.297  14.411  0.2092  0.8875  0.9187
14720TIP3    H265652   3.828   3.448  14.404  1.6879  0.9527 -0.8052
14721TIP3   OH265653   0.374   6.174   5.091 -0.3761  0.2068 -0.1435
14721TIP3    H165654   0.432   6.224   5.148  0.3722  1.6514 -2.0659
14721TIP3    H265655   0.286   6.200   5.118 -0.0997 -0.1515  1.1819
14722TIP3   OH265656   5.005   5.683   0.422  0.2436 -0.3053 -0.1377
14722TIP3    H165657   4.986   5.764   0.470 -0.0413  0.7201 -1.9168
14722TIP3    H265658   5.089   5.699   0.379 -2.2306  1.4596 -5.1238
14723TIP3   OH265659   1.956   6.030   6.156 -0.0227 -0.3007 -0.2054
14723TIP3    H165660   1.957   6.110   6.209  0.2111 -1.1440  1.1350
14723TIP3    H265661   1.943   6.060   6.066 -0.4918  1.1960  0.3319
14724TIP3   OH265662   3.417   5.050   4.164  0.2320 -0.0887 -0.2796
14724TIP3    H165663   3.366   4.969   4.169  0.1860 -0.2492 -2.3024
14724TIP3    H265664   3.421   5.069   4.070  2.2170  0.9996 -0.0227
14725TIP3   OH265665   5.287   6.120  13.428 -0.5507  0.0841  0.1641
14725TIP3    H165666   5.310   6.212  13.415  0.4972  0.1445  2.0162
14725TIP3    H265667   5.249   6.118  13.516 -0.7241 -1.2286  0.0701
14726TIP3   OH265668   6.541   4.713   6.197 -0.5602 -0.2971 -0.5086
14726TIP3    H165669   6.491   4.746   6.272 -0.4338 -2.3912  0.5753
14726TIP3    H265670   6.478   4.661   6.147 -0.0418 -1.0200 -0.4250
14727TIP3   OH265671   3.828   1.676  17.191  0.1926  0.1972 -0.6151
14727TIP3    H165672   3.828   1.640  17.280  0.1799  1.8372  0.0895
14727TIP3    H265673   3.735   1.683  17.169  0.1967 -2.0060 -1.5753
14728TIP3   OH265674   1.126   6.256   2.554  0.0033  0.2229 -0.0727
14728TIP3    H165675   1.185   6.186   2.582  1.1618  0.6390 -1.3586
14728TIP3    H265676   1.050   6.209   2.517  0.3990 -0.3576 -0.1666
14729TIP3   OH265677   2.169   3.097   4.663 -0.0309 -0.4542 -0.2820
14729TIP3    H165678   2.096   3.139   4.620 -0.2661  2.8056  2.8048
14729TIP3    H265679   2.244   3.115   4.607 -0.5508  2.2487 -0.2304
14730TIP3   OH265680   1.804   3.555  13.384 -0.2359 -0.5448 -0.2254
14730TIP3    H165681   1.865   3.519  13.319  2.8750  1.0108  1.6089
14730TIP3    H265682   1.797   3.648  13.362  2.0742  0.3667  2.3079
14731TIP3   OH265683   4.591   6.628  13.046  0.0821  0.3518  0.9954
14731TIP3    H165684   4.512   6.610  12.996 -0.7952 -1.7473  2.9615
14731TIP3    H265685   4.570   6.706  13.098  0.0558  0.9775  0.0645
14732TIP3   OH265686   4.384   2.025   4.737  0.1028 -0.8993 -0.7351
14732TIP3    H165687   4.400   1.954   4.675  1.4520  0.6438 -2.2580
14732TIP3    H265688   4.423   1.995   4.819 -0.7694 -2.5353 -0.8836
14733TIP3   OH265689   0.461   0.036   5.290 -0.2973  0.0212 -0.1337
14733TIP3    H165690   0.520   0.111   5.278  0.4547 -0.0611  2.3464
14733TIP3    H265691   0.383   0.073   5.332 -0.4261 -0.4085  0.0162
14734TIP3   OH265692   0.187   3.894  16.591 -0.4549  0.0770  0.0635
14734TIP3    H165693   0.154   3.946  16.664  0.1672  0.0920  0.3432
14734TIP3    H265694   0.260   3.945  16.556  0.0900 -0.5476  0.2721
14735TIP3   OH265695   5.223   5.573  17.102 -0.1666 -0.0374  0.1029
14735TIP3    H165696   5.280   5.535  17.169  1.4706 -2.1363 -2.2931
14735TIP3    H265697   5.284   5.606  17.036 -1.7005  2.9864  0.0478
14736TIP3   OH265698   4.794   0.296   4.258  0.2197 -0.2334 -0.7030
14736TIP3    H165699   4.824   0.234   4.324 -0.1036 -0.5861 -0.8852
14736TIP3    H265700   4.734   0.246   4.203 -0.8394  0.5058 -0.2431
14737TIP3   OH265701   3.808   3.460  12.335  0.7200  0.1410 -0.1364
14737TIP3    H165702   3.737   3.525  12.330  0.6089  0.1040  0.7302
14737TIP3    H265703   3.765   3.377  12.314  0.9042  0.3519 -1.4518
14738TIP3   OH265704   4.172   1.602  16.373  0.0449  0.1788  0.5133
14738TIP3    H165705   4.116   1.634  16.302 -0.4105 -3.1779 -0.8333
14738TIP3    H265706   4.111   1.557  16.433  0.7381  0.8232  1.7442
14739TIP3   OH265707   6.761   3.759  15.396  0.6238 -0.0921 -0.3903
14739TIP3    H165708   6.708   3.834  15.420 -0.3129 -0.9925  0.4614
14739TIP3    H265709   6.842   3.796  15.361  0.3959  1.2975  0.4956
14740TIP3   OH265710   4.824   1.696  15.625  0.8425 -0.0448  0.3411
14740TIP3    H165711   4.818   1.619  15.681  3.4340 -0.2275  0.4709
14740TIP3    H265712   4.917   1.713  15.617  0.4220  1.8489 -1.4058
14741TIP3   OH265713   5.143   3.276   5.507  0.3059 -0.4965  0.1411
14741TIP3    H165714   5.234   3.280   5.537  0.3370 -0.2405  0.0083
14741TIP3    H265715   5.103   3.356   5.540  0.1185 -0.6246  0.2272
14742TIP3   OH265716   5.233   3.214   4.501  0.2922 -0.2855  0.0407
14742TIP3    H165717   5.280   3.292   4.531  0.2961  0.0970 -0.9206
14742TIP3    H265718   5.226   3.158   4.578  1.9434 -0.1598  0.3068
14743TIP3   OH265719   4.467   0.806   3.761  0.2032  0.2693  0.2938
14743TIP3    H165720   4.540   0.790   3.822  0.8711  1.5656 -0.1475
14743TIP3    H265721   4.486   0.749   3.686  1.3819  1.4228 -0.3089
14744TIP3   OH265722   4.222   0.423  13.257 -0.2071 -0.4816 -0.2761
14744TIP3    H165723   4.239   0.424  13.163  0.6824  2.3057 -0.1800
14744TIP3    H265724   4.242   0.513  13.286 -1.2387 -1.0317  2.4324
14745TIP3   OH265725   6.074   4.094  15.878  0.1684  0.0283  0.1229
14745TIP3    H165726   6.034   4.176  15.849 -3.2850 -1.1246  1.1605
14745TIP3    H265727   6.081   4.102  15.973  1.8380 -0.1201  0.0494
14746TIP3   OH265728   4.517   2.797   5.464 -0.3692 -0.0772  0.1592
14746TIP3    H165729   4.529   2.780   5.557 -0.1952  0.6788  0.2795
14746TIP3    H265730   4.422   2.807   5.453 -0.3769 -0.0308  0.2781
14747TIP3   OH265731   5.683   0.913   1.047  0.6977  0.3498 -0.1672
14747TIP3    H165732   5.708   0.994   1.002  1.2119  0.3752  0.1478
14747TIP3    H265733   5.746   0.848   1.016  0.8280  0.2833  0.2240
14748TIP3   OH265734   1.174   5.567   5.000 -0.7259 -0.2271 -0.0879
14748TIP3    H165735   1.154   5.513   5.077  0.5231 -0.0188  0.4052
14748TIP3    H265736   1.265   5.546   4.979 -1.5589 -1.6165 -2.6407
14749TIP3   OH265737   3.933   0.201  13.112 -0.2205  0.7214  0.0324
14749TIP3    H165738   3.946   0.185  13.205 -0.1230  0.2847 -0.0501
14749TIP3    H265739   3.879   0.280  13.107 -1.1435  0.1312  0.4762
14750TIP3   OH265740   5.794   6.716  16.563 -0.6686 -0.3352 -0.0252
14750TIP3    H165741   5.725   6.709  16.628 -0.5088  1.2815  0.3536
14750TIP3    H265742   5.873   6.683  16.607 -0.8357 -0.5570  0.1102
14751TIP3   OH265743   2.527   0.693  14.362 -0.3171 -0.3510 -0.1915
14751TIP3    H165744   2.471   0.636  14.309 -0.3715 -0.5956  0.1280
14751TIP3    H265745   2.589   0.730  14.300 -0.0677 -1.0149 -0.3424
14752TIP3   OH265746   5.442   0.469  15.847  0.3224  0.2632 -0.5797
14752TIP3    H165747   5.483   0.464  15.761  1.7652 -0.0143  0.1000
14752TIP3    H265748   5.448   0.380  15.882 -1.7000 -0.0080 -0.8080
14753TIP3   OH265749   2.361   6.542  10.594 -0.2877  0.4095 -0.4722
14753TIP3    H165750   2.420   6.528  10.520  0.4503  2.2139 -0.2557
14753TIP3    H265751   2.331   6.454  10.617  2.8017 -0.6814 -0.1831
14754TIP3   OH265752   4.918   0.479  15.673  0.1402 -0.0860  0.5290
14754TIP3    H165753   4.919   0.392  15.633  0.0114  0.0649  0.1841
14754TIP3    H265754   4.835   0.517  15.643  0.4553  0.3624  0.2130
14755TIP3   OH265755   1.152   4.540   0.538  0.5276 -0.1708  0.0926
14755TIP3    H165756   1.139   4.445   0.537  0.3800 -0.1585  0.4893
14755TIP3    H265757   1.245   4.552   0.523  0.5365 -0.3788 -0.0201
14756TIP3   OH265758   1.294   1.309   6.391 -0.2708  0.2565  0.3168
14756TIP3    H165759   1.301   1.244   6.320  0.7551  0.0047  0.6222
14756TIP3    H265760   1.385   1.321   6.420 -0.4521  1.7788  0.3246
14757TIP3   OH265761   2.215   1.959   4.879  0.0855  0.8180 -0.1560
14757TIP3    H165762   2.281   2.028   4.890 -0.7203  1.7922 -1.2770
14757TIP3    H265763   2.265   1.878   4.884  1.1139  1.4769  0.7761
14758TIP3   OH265764   0.769   5.727   5.567 -0.2753  0.0263 -0.2363
14758TIP3    H165765   0.747   5.652   5.622 -0.2909  0.6003  0.5624
14758TIP3    H265766   0.789   5.689   5.482  0.2711 -0.9378  0.3001
14759TIP3   OH265767   0.275   5.329  13.055  0.1010  0.1017  0.3774
14759TIP3    H165768   0.227   5.355  12.976 -2.4155 -0.7895  1.5107
14759TIP3    H265769   0.309   5.242  13.034 -0.1235  0.0746  0.1130
14760TIP3   OH265770   1.195   1.046   0.029 -0.4577  0.2772 -0.4367
14760TIP3    H165771   1.123   1.056  -0.033 -0.5399 -0.3210 -0.4461
14760TIP3    H265772   1.205   0.951   0.038 -0.2680  0.3596  0.2581
14761TIP3   OH265773   0.882   4.830  12.298 -0.6450  0.4832  0.3988
14761TIP3    H165774   0.926   4.874  12.370  1.5090 -1.2393  0.2576
14761TIP3    H265775   0.800   4.799  12.335  0.4393 -0.4096  2.1735
14762TIP3   OH265776   3.776   0.355  16.978  0.1859 -0.7754 -0.5188
14762TIP3    H165777   3.822   0.383  16.899  0.9277  0.4834  0.3277
14762TIP3    H265778   3.720   0.429  17.001  0.4064 -0.8889  0.4413
14763TIP3   OH265779   5.075   1.339   6.247  0.4224 -0.5314 -0.3070
14763TIP3    H165780   5.147   1.331   6.310 -1.1004  0.7109  1.7180
14763TIP3    H265781   5.053   1.248   6.223  2.1897 -0.9470 -0.4688
14764TIP3   OH265782   1.954   6.618   3.452  0.1430  0.4244  0.3115
14764TIP3    H165783   2.002   6.651   3.376 -2.0501  0.3612 -1.2039
14764TIP3    H265784   2.000   6.655   3.527  1.8942  1.2007 -1.0545
14765TIP3   OH265785   6.755   0.050   6.223 -0.4134 -0.1251  0.0724
14765TIP3    H165786   6.678   0.070   6.276 -0.9414 -0.2810 -0.6223
14765TIP3    H265787   6.764  -0.045   6.228 -0.7880 -0.2016 -0.5381
14766TIP3   OH265788   5.022   2.318   4.071  0.7354  0.1009  0.1962
14766TIP3    H165789   4.982   2.302   4.156  0.2063 -1.1161 -0.2562
14766TIP3    H265790   5.001   2.410   4.051  0.3502  0.2161  1.1071
14767TIP3   OH265791   2.609   4.217   3.015 -0.5862 -0.8407 -0.1081
14767TIP3    H165792   2.671   4.279   2.976  1.2688 -2.1425  0.6592
14767TIP3    H265793   2.634   4.213   3.107 -2.1014 -1.1110  0.3181
14768TIP3   OH265794   0.556   1.703   4.018  0.0676 -0.5163  0.2257
14768TIP3    H165795   0.541   1.795   3.995 -0.9136 -0.2924  1.6370
14768TIP3    H265796   0.650   1.698   4.037  0.2091  0.0927 -0.2947
14769TIP3   OH265797   3.832   1.877  12.466 -0.3049  0.6083  0.1135
14769TIP3    H165798   3.763   1.826  12.508  0.4543 -0.9021 -0.3840
14769TIP3    H265799   3.819   1.863  12.372  1.6426 -1.1234  0.0327
14770TIP3   OH265800   4.789   5.850  14.582  0.2495  0.0597 -0.4612
14770TIP3    H165801   4.858   5.908  14.548  0.2900  0.8520  0.9104
14770TIP3    H265802   4.715   5.864  14.524  0.5927  0.7159 -0.7496
14771TIP3   OH265803   3.186   3.604  17.184  0.6244  0.5080 -0.1246
14771TIP3    H165804   3.094   3.624  17.163  0.7642 -1.6677 -3.6388
14771TIP3    H265805   3.235   3.638  17.109  2.4457 -0.2084  0.6926
14772TIP3   OH265806   3.785   6.708  13.919 -0.1528 -0.0290 -0.0830
14772TIP3    H165807   3.857   6.771  13.922  1.5745 -1.6505 -3.0872
14772TIP3    H265808   3.719   6.750  13.864  0.8718 -0.6384 -1.8400
14773TIP3   OH265809   1.861   4.524   3.454  0.6728  0.5245  0.6256
14773TIP3    H165810   1.891   4.529   3.364  1.6749 -2.7994  0.6548
14773TIP3    H265811   1.766   4.514   3.448  0.8247 -0.5660 -0.1446
14774TIP3   OH265812   5.066   4.694  13.516  0.5375 -0.3029 -0.3251
14774TIP3    H165813   5.050   4.788  13.507  0.8837 -0.2089  0.0495
14774TIP3    H265814   5.160   4.684  13.505  0.6016 -0.5171  0.3710
14775TIP3   OH265815   2.271   1.550  16.295 -0.0216 -0.2730  0.1756
14775TIP3    H165816   2.199   1.561  16.357  1.7738  1.9053  2.0745
14775TIP3    H265817   2.322   1.477  16.331 -1.5849 -2.3437 -1.6020
14776TIP3   OH265818   0.540   1.443   1.403 -0.0033  0.0276  0.0007
14776TIP3    H165819   0.566   1.527   1.442 -0.2226 -0.1801  0.6046
14776TIP3    H265820   0.494   1.397   1.473 -0.1237 -0.4894 -0.4097
14777TIP3   OH265821   0.062   5.551   6.046 -0.1540 -0.4718  0.0736
14777TIP3    H165822   0.051   5.498   6.124 -0.5433 -0.6925 -0.1258
14777TIP3    H265823  -0.023   5.595   6.035 -0.1226 -0.4907 -0.2569
14778TIP3   OH265824   5.664   2.807  16.767  0.3058  0.4033 -0.5322
14778TIP3    H165825   5.668   2.712  16.779  0.6000  0.4345 -0.3588
14778TIP3    H265826   5.755   2.835  16.772  0.2101  0.7074 -0.4911
14779TIP3   OH265827   5.985   3.770   2.033  0.1354 -0.0826  0.3109
14779TIP3    H165828   5.916   3.795   2.094 -1.3358 -1.1212 -0.8678
14779TIP3    H265829   5.943   3.770   1.947  2.0657  1.0279 -0.7220
14780TIP3   OH265830   3.995   3.864  14.719 -0.7275 -0.4696 -0.3355
14780TIP3    H165831   4.060   3.933  14.733 -0.2435 -0.9109 -0.4006
14780TIP3    H265832   4.040   3.798  14.668 -0.9629 -1.1693  0.3434
14781TIP3   OH265833   4.142   3.683   5.389 -0.1247 -0.6704 -0.0728
14781TIP3    H165834   4.196   3.609   5.361  2.5834  1.1878 -0.0746
14781TIP3    H265835   4.119   3.728   5.308  0.0114 -0.3483  0.0654
14782TIP3   OH265836   1.637   1.276  14.305 -0.0755 -0.0607 -0.2606
14782TIP3    H165837   1.711   1.219  14.323 -0.9854 -1.9878 -2.1704
14782TIP3    H265838   1.668   1.334  14.235  0.5000  1.1306  0.9369
14783TIP3   OH265839   4.290   0.331   5.491  0.4203 -0.2559 -0.3382
14783TIP3    H165840   4.337   0.342   5.408  0.2262  0.2256 -0.3878
14783TIP3    H265841   4.198   0.340   5.467  0.3676 -0.0398 -0.0617
14784TIP3   OH265842   0.500   2.676  14.382  0.1060  0.1108  0.4764
14784TIP3    H165843   0.562   2.693  14.453  1.1226  2.6462 -0.8737
14784TIP3    H265844   0.525   2.738  14.313 -2.5669 -0.3079 -1.0156
14785TIP3   OH265845   5.894   6.775   3.906  0.0678  0.4631 -0.5960
14785TIP3    H165846   5.862   6.841   3.846  0.8234  0.8010 -0.6399
14785TIP3    H265847   5.869   6.807   3.993 -0.5997  0.2141 -0.6928
14786TIP3   OH265848   1.482   5.607  17.216  0.2583 -0.2010 -0.2596
14786TIP3    H165849   1.424   5.636  17.146 -0.4821 -0.1088  0.3818
14786TIP3    H265850   1.569   5.634  17.187 -0.2703  1.8246 -0.1593
14787TIP3   OH265851   1.617   4.300  13.280  0.3932 -0.0370  0.0045
14787TIP3    H165852   1.623   4.215  13.236 -0.0542 -0.0324 -0.0702
14787TIP3    H265853   1.683   4.295  13.349  2.3251  0.5943 -1.6854
14788TIP3   OH265854   3.770   0.395  12.573  0.0089  0.8009  0.3577
14788TIP3    H165855   3.717   0.475  12.576  1.8694  2.1298 -0.0746
14788TIP3    H265856   3.839   0.415  12.509  1.1356 -0.7501  1.0301
14789TIP3   OH265857   5.160   2.479   3.298 -0.5484 -0.1125 -0.2500
14789TIP3    H165858   5.251   2.459   3.276  0.0139  1.1662  0.7886
14789TIP3    H265859   5.133   2.410   3.358 -0.2219 -0.4213 -0.4602
14790TIP3   OH265860   5.562   3.147   2.246 -0.2102 -0.3724 -0.1578
14790TIP3    H165861   5.503   3.106   2.309 -0.0586 -1.0553 -0.4560
14790TIP3    H265862   5.600   3.074   2.197  2.1778 -0.1212  1.1536
14791TIP3   OH265863   2.880   2.522  14.455  0.3790 -0.2898  0.3235
14791TIP3    H165864   2.802   2.577  14.449  0.2404 -0.4073  0.9649
14791TIP3    H265865   2.931   2.544  14.378 -0.0202  0.2096  0.1985
14792TIP3   OH265866   4.892   2.404   1.925 -0.2443 -0.7718  0.1494
14792TIP3    H165867   4.867   2.314   1.947 -0.1544 -0.4966  1.4524
14792TIP3    H265868   4.904   2.403   1.830  1.3281 -2.5132  0.3252
14793TIP3   OH265869   0.356   0.794  15.781  0.5393 -0.2890 -0.3867
14793TIP3    H165870   0.400   0.851  15.718  1.0604  1.7785  1.7012
14793TIP3    H265871   0.426   0.743  15.821  0.9219  1.5394  1.4852
14794TIP3   OH265872   4.970   5.590  12.149 -0.0203  0.0381  0.2404
14794TIP3    H165873   4.881   5.623  12.165 -0.2265 -0.1447 -0.4655
14794TIP3    H265874   5.005   5.650  12.083  0.1901 -0.1931  0.1423
14795TIP3   OH265875   2.709   3.610  10.614  0.6940 -0.4238 -0.7006
14795TIP3    H165876   2.757   3.692  10.601  0.8284 -0.7227 -2.4533
14795TIP3    H265877   2.644   3.630  10.681  0.4471  1.2516 -1.3849
14796TIP3   OH265878   4.981   1.231   2.440  0.6065 -0.4991  0.6297
14796TIP3    H165879   4.947   1.237   2.530  0.3013 -0.0949  0.4884
14796TIP3    H265880   5.005   1.138   2.430 -0.2145 -0.7414  0.8170
14797TIP3   OH265881   4.595   2.746   6.039 -0.2171 -0.1324 -0.3344
14797TIP3    H165882   4.579   2.840   6.046  0.3389  0.2685 -3.2387
14797TIP3    H265883   4.519   2.705   6.082 -1.4382  1.6581 -0.6948
14798TIP3   OH265884   1.329   5.671   4.180  0.1964 -0.3649 -0.1912
14798TIP3    H165885   1.262   5.702   4.120  0.7031 -0.6762 -0.9224
14798TIP3    H265886   1.299   5.701   4.266  0.2577  1.4469 -0.7629
14799TIP3   OH265887   0.239   5.081  11.266 -0.0649  0.6045  0.0313
14799TIP3    H165888   0.151   5.077  11.305 -0.8921 -0.6838 -1.7765
14799TIP3    H265889   0.229   5.035  11.182  3.0376 -2.4265  1.0906
14800TIP3   OH265890   5.265   1.536  14.083 -0.0522 -0.2215 -0.1000
14800TIP3    H165891   5.205   1.580  14.143 -0.0490 -0.5433  0.1457
14800TIP3    H265892   5.264   1.589  14.004  0.8828  0.9031  0.6104
14801TIP3   OH265893   1.164   2.942   5.165 -0.3436  0.0546 -0.2394
14801TIP3    H165894   1.215   3.023   5.169 -2.0801  1.1967  0.5321
14801TIP3    H265895   1.095   2.955   5.231 -1.8545 -1.1878 -1.4951
14802TIP3   OH265896   2.611   4.172  10.930 -0.5540 -0.6405 -0.3725
14802TIP3    H165897   2.701   4.177  10.961 -0.2372  0.2783 -1.3832
14802TIP3    H265898   2.607   4.089  10.883  0.1708 -0.0721 -1.4837
14803TIP3   OH265899   2.160   0.864  13.884 -0.1680  0.0496 -0.2814
14803TIP3    H165900   2.100   0.810  13.832 -0.9573 -0.4149  1.0768
14803TIP3    H265901   2.206   0.917  13.819 -2.2228  0.6161 -1.3652
14804TIP3   OH265902   5.588   6.613   3.455 -0.0442 -0.2306  0.2000
14804TIP3    H165903   5.567   6.670   3.381 -0.3819 -1.2889 -0.5472
14804TIP3    H265904   5.565   6.664   3.532 -1.3475  0.2469 -0.4802
14805TIP3   OH265905   6.730   5.482  13.155  0.1257 -0.1004 -0.4050
14805TIP3    H165906   6.713   5.393  13.123  1.5971 -0.9105  0.9764
14805TIP3    H265907   6.686   5.486  13.240  1.4733 -0.1017  0.3091
14806TIP3   OH265908   3.313   4.849  14.101 -0.2639 -0.5638 -0.1239
14806TIP3    H165909   3.383   4.816  14.044 -1.3212 -1.5224 -0.9342
14806TIP3    H265910   3.234   4.845  14.046 -0.7876  1.6047  0.3688
14807TIP3   OH265911   0.534   3.752  13.887  0.4781  0.0099 -0.0395
14807TIP3    H165912   0.544   3.792  13.973 -2.4791  0.5942  0.1463
14807TIP3    H265913   0.622   3.752  13.850  1.9431 -0.6608  3.1045
14808TIP3   OH265914   6.379   4.253  15.266 -0.2822 -0.3198  0.1846
14808TIP3    H165915   6.293   4.276  15.303 -0.2915 -0.3053  0.1547
14808TIP3    H265916   6.380   4.297  15.180 -0.9707 -1.7479 -0.6000
14809TIP3   OH265917   1.534   5.141   3.451 -0.0882 -0.7338 -0.4129
14809TIP3    H165918   1.488   5.214   3.410 -1.4357 -1.3956 -0.1365
14809TIP3    H265919   1.533   5.072   3.385  0.8670 -0.6438 -0.5410
14810TIP3   OH265920   5.234   0.126  12.095 -0.0306  0.4502  0.1392
14810TIP3    H165921   5.228   0.117  12.000 -1.8205  0.2216  0.2520
14810TIP3    H265922   5.291   0.054  12.122 -0.1549  0.0360 -0.6707
14811TIP3   OH265923   1.671   1.756   5.999 -0.0547  0.3095 -0.4359
14811TIP3    H165924   1.611   1.806   5.943  2.6336  2.8011 -1.3475
14811TIP3    H265925   1.669   1.802   6.083 -0.2711 -0.3031 -0.1012
14812TIP3   OH265926   5.173   2.136  14.578  0.4689 -0.3399 -0.2620
14812TIP3    H165927   5.212   2.064  14.628  1.3788 -0.5137 -1.1950
14812TIP3    H265928   5.080   2.115  14.575 -0.2819  1.2636  4.0112
14813TIP3   OH265929   6.297   6.653  17.216  0.5000  0.2094  0.4178
14813TIP3    H165930   6.324   6.672  17.306 -0.0773  0.3098  0.5734
14813TIP3    H265931   6.203   6.636  17.222 -0.1719  2.9623 -0.5370
14814TIP3   OH265932   3.385   5.041   3.063  0.1970 -0.1144  0.6250
14814TIP3    H165933   3.306   5.091   3.084 -0.4427 -1.0999  0.6059
14814TIP3    H265934   3.362   4.991   2.985  0.3598 -1.4780  1.4227
14815TIP3   OH265935   4.657   2.441  15.206  0.0157  0.3292 -0.1857
14815TIP3    H165936   4.743   2.471  15.236  0.9460 -1.8257 -0.5523
14815TIP3    H265937   4.596   2.475  15.271  1.2492  1.0359  0.6510
14816TIP3   OH265938   3.391   0.628  12.028 -0.2842 -0.2476  0.2167
14816TIP3    H165939   3.328   0.700  12.039  1.3224  1.3493 -0.4841
14816TIP3    H265940   3.337   0.549  12.029 -2.0585  0.8838  1.7431
14817TIP3   OH265941   0.457   0.305  16.804  0.1377  0.1287  0.4383
14817TIP3    H165942   0.453   0.388  16.757  0.1731  0.2407  0.6333
14817TIP3    H265943   0.550   0.281  16.804  0.2998  0.7017  1.4448
14818TIP3   OH265944   3.692   5.404   0.510  0.4161 -0.8847  0.0101
14818TIP3    H165945   3.663   5.315   0.487  2.2657 -1.6835  0.5519
14818TIP3    H265946   3.788   5.399   0.508  0.5546  1.1973 -0.2127
14819TIP3   OH265947   0.941   2.547  13.643 -0.1036 -0.5541 -0.0442
14819TIP3    H165948   0.964   2.631  13.682  0.0171  1.0166 -3.2210
14819TIP3    H265949   0.935   2.487  13.718  1.4362  1.8554  2.1898
14820TIP3   OH265950   3.764   5.736   3.645  0.7503 -0.5061  0.3578
14820TIP3    H165951   3.683   5.711   3.690 -0.4192  0.4498 -1.1411
14820TIP3    H265952   3.813   5.654   3.638 -0.9566 -1.5290 -0.4261
14821TIP3   OH265953   1.424   1.465  12.994 -0.5891 -0.1639  0.0053
14821TIP3    H165954   1.485   1.538  13.005  2.0798 -2.4174  1.2364
14821TIP3    H265955   1.396   1.470  12.902  1.8283  0.7358 -0.7481
14822TIP3   OH265956   5.046   6.078  11.378  0.4426  0.1287 -0.1196
14822TIP3    H165957   5.044   6.167  11.343 -0.4864 -0.5297 -1.8795
14822TIP3    H265958   5.136   6.048  11.364  0.2143  0.0494 -1.6249
14823TIP3   OH265959   6.011   1.802   5.514  0.2438  0.5257  0.3757
14823TIP3    H165960   6.067   1.800   5.592  0.6677  2.1949  0.1429
14823TIP3    H265961   5.996   1.895   5.497 -0.0177  0.1921 -1.4104
14824TIP3   OH265962   2.314   6.293   5.339  0.4092  0.0180 -0.0971
14824TIP3    H165963   2.226   6.322   5.359  0.9758  1.0195  1.0169
14824TIP3    H265964   2.353   6.272   5.424  1.7013  0.9433 -0.4394
14825TIP3   OH265965   4.133   6.209   4.677  0.5818 -0.4974 -0.0059
14825TIP3    H165966   4.089   6.288   4.646  1.2735  0.4893  1.3780
14825TIP3    H265967   4.218   6.210   4.633 -0.0586 -1.4474 -1.3239
14826TIP3   OH265968   5.766   4.390   1.163  0.4121 -0.2175  0.1934
14826TIP3    H165969   5.692   4.449   1.176 -0.5638 -1.0686 -1.1744
14826TIP3    H265970   5.750   4.318   1.224  0.0258 -0.4760 -0.2119
14827TIP3   OH265971   0.995   1.282   0.551  0.0837  0.1419 -0.0032
14827TIP3    H165972   1.087   1.288   0.575  0.5679  1.5548 -1.9957
14827TIP3    H265973   0.948   1.315   0.628  1.1976 -0.5094  1.0020
14828TIP3   OH265974   1.463   6.461   0.215  0.0103  0.0459 -0.2273
14828TIP3    H165975   1.532   6.433   0.154  0.0348  1.1135 -0.7065
14828TIP3    H265976   1.509   6.478   0.297  0.2099  0.0986 -0.3498
14829TIP3   OH265977   6.712   3.304  11.832  0.3370  0.0447  0.1765
14829TIP3    H165978   6.673   3.242  11.771  0.5984  1.1615 -1.1794
14829TIP3    H265979   6.800   3.320  11.798 -0.5906  3.1436 -1.1471
14830TIP3   OH265980   0.691   2.080  14.826  0.3969 -0.1851 -0.5413
14830TIP3    H165981   0.640   1.999  14.823 -0.2729  0.1083  1.4252
14830TIP3    H265982   0.635   2.141  14.874  1.6827  0.8407 -0.3064
14831TIP3   OH265983   1.452   0.220   2.761  0.2304 -0.3429  0.6219
14831TIP3    H165984   1.438   0.232   2.855 -2.2060 -2.0495  0.5827
14831TIP3    H265985   1.455   0.125   2.749 -1.6428 -0.2688 -1.1987
14832TIP3   OH265986   3.359   6.765   2.809  0.0351 -0.7380 -0.2956
14832TIP3    H165987   3.376   6.730   2.722 -0.8155 -0.2462 -0.6670
14832TIP3    H265988   3.331   6.856   2.794 -0.3899 -0.7341  0.4585
14833TIP3   OH265989   4.500   1.594   3.976 -0.1616 -0.3725 -0.4321
14833TIP3    H165990   4.549   1.539   4.037  1.0075 -0.7609 -1.6498
14833TIP3    H265991   4.555   1.597   3.897 -1.3320  0.5775 -1.2587
14834TIP3   OH265992   2.438   0.234   3.497  0.1398 -0.4505  0.4164
14834TIP3    H165993   2.396   0.262   3.579  1.2016 -0.3265  0.9235
14834TIP3    H265994   2.375   0.259   3.429  1.0576  3.4293  0.7765
14835TIP3   OH265995   0.806   3.429  12.815  0.4512  0.0566  0.0933
14835TIP3    H165996   0.789   3.480  12.736 -0.1001 -1.8677 -1.0800
14835TIP3    H265997   0.720   3.418  12.855  0.7283  1.0330  1.0230
14836TIP3   OH265998   6.503   5.838  16.697 -0.2729  0.0823 -0.5020
14836TIP3    H165999   6.578   5.795  16.655  1.2876 -1.2152  3.1686
14836TIP3    H266000   6.541   5.887  16.770 -2.9058 -1.1737  1.9433
14837TIP3   OH266001   0.636   1.309   3.554 -0.7199 -0.0906  0.3531
14837TIP3    H166002   0.719   1.276   3.520  0.0693  1.2794  0.8617
14837TIP3    H266003   0.589   1.341   3.478 -0.2950  0.1411  0.1854
14838TIP3   OH266004   2.908   6.584  14.985 -0.0868  0.0698 -0.1241
14838TIP3    H166005   2.995   6.544  14.993 -0.1784 -0.0618  0.2389
14838TIP3    H266006   2.903   6.646  15.058  0.0907  0.8253 -0.7451
14839TIP3   OH266007   5.800   5.866   4.462 -0.6766 -0.4740 -0.0784
14839TIP3    H166008   5.867   5.934   4.475 -0.1185 -1.1153  0.4617
14839TIP3    H266009   5.824   5.825   4.378  1.0910 -2.3116  1.2353
14840TIP3   OH266010   6.202   2.464   3.220 -0.2324  0.1651  0.1980
14840TIP3    H166011   6.194   2.438   3.129 -1.5790 -1.0194  0.6183
14840TIP3    H266012   6.121   2.512   3.238 -0.1046  0.1435  0.8500
14841TIP3   OH266013   5.915   2.253   4.553  0.2278  0.1933 -0.5469
14841TIP3    H166014   5.832   2.212   4.574  1.7943 -1.5796  2.9909
14841TIP3    H266015   5.954   2.196   4.486  0.7064 -2.0469  1.5154
14842TIP3   OH266016   0.182   4.581  16.402  0.3375  0.1034 -0.4139
14842TIP3    H166017   0.220   4.518  16.462  1.4753  0.4336 -0.7711
14842TIP3    H266018   0.211   4.552  16.315  0.3816  0.7814 -0.6294
14843TIP3   OH266019   2.328   0.475  15.491  0.6208  0.3879  0.2366
14843TIP3    H166020   2.239   0.457  15.519  0.2885 -2.2452 -2.0473
14843TIP3    H266021   2.323   0.559  15.445 -0.8502 -0.0856 -0.4998
14844TIP3   OH266022   0.283   6.326  13.794  0.3313  0.1508  0.1732
14844TIP3    H166023   0.297   6.257  13.858  0.9346  0.8626  0.8185
14844TIP3    H266024   0.195   6.358  13.812 -0.0270 -0.5502 -0.2485
14845TIP3   OH266025   5.730   2.031   6.264  0.6344  0.6001  0.2554
14845TIP3    H166026   5.672   1.956   6.256  1.1492  0.3146 -1.0166
14845TIP3    H266027   5.735   2.048   6.358 -1.6547  0.7746  0.3941
14846TIP3   OH266028   5.158   6.659   3.474  0.2497  0.1662  0.4449
14846TIP3    H166029   5.144   6.714   3.551  0.2262  0.5578  0.1624
14846TIP3    H266030   5.204   6.582   3.508  0.7425  0.5913  0.7674
14847TIP3   OH266031   3.618   1.628  15.117 -0.3075 -0.3455 -0.0792
14847TIP3    H166032   3.712   1.625  15.137 -0.4223 -0.6399  0.4178
14847TIP3    H266033   3.607   1.710  15.069 -0.1833  0.8263  1.8357
14848TIP3   OH266034   3.066   1.060   0.484 -0.1291  0.7447  0.2183
14848TIP3    H166035   3.114   1.125   0.536  0.9565  0.6225 -0.6099
14848TIP3    H266036   3.056   1.100   0.398  1.6442 -0.6299 -0.6909
14849TIP3   OH266037   4.818   4.571  15.841  0.3195  0.0838  0.1189
14849TIP3    H166038   4.787   4.541  15.926  0.9239  1.0210  0.6998
14849TIP3    H266039   4.747   4.625  15.806  1.2639  2.4425  1.5607
14850TIP3   OH266040   1.757   5.715  16.491  0.2528  0.8025 -0.0446
14850TIP3    H166041   1.727   5.698  16.402  0.4169 -1.2763  0.2472
14850TIP3    H266042   1.703   5.658  16.545 -0.3077  2.5190  1.2938
14851TIP3   OH266043   0.555   3.194  11.329  0.2990 -0.5375  0.0995
14851TIP3    H166044   0.619   3.228  11.267  0.1836  2.8290  1.6216
14851TIP3    H266045   0.471   3.201  11.283  0.5531 -1.1052 -0.4650
14852TIP3   OH266046   5.557   1.182   0.708 -0.2113 -0.8044  0.0194
14852TIP3    H166047   5.609   1.201   0.786 -0.3566  0.6168 -0.2007
14852TIP3    H266048   5.621   1.157   0.641 -0.0119 -1.1539  0.3363
14853TIP3   OH266049   6.417   0.973   3.098 -0.2374  0.1944 -0.1915
14853TIP3    H166050   6.479   1.021   3.153 -0.7798 -0.5111  1.0734
14853TIP3    H266051   6.341   1.031   3.093 -0.9556 -0.5242  1.4698
14854TIP3   OH266052   6.307   2.915  14.385  0.1634  0.1414 -0.0186
14854TIP3    H166053   6.265   2.894  14.302  0.7493 -2.6654  0.2882
14854TIP3    H266054   6.253   2.872  14.451  1.7270 -0.9022  0.6520
14855TIP3   OH266055   3.491   1.936  15.865  0.3332  0.3359 -0.5404
14855TIP3    H166056   3.487   1.846  15.897 -0.4319  1.3122  2.3605
14855TIP3    H266057   3.557   1.978  15.920 -0.6530  2.0023 -0.5603
14856TIP3   OH266058   2.940   3.432  15.834 -0.1366  0.4774 -0.0008
14856TIP3    H166059   2.958   3.446  15.741  0.1475  0.0706 -0.0079
14856TIP3    H266060   3.019   3.391  15.869 -1.4505 -2.5826 -0.3234
14857TIP3   OH266061   4.370   6.046  15.060 -0.2048 -0.0887  0.8532
14857TIP3    H166062   4.285   6.049  15.017 -0.3810 -1.2156  1.0791
14857TIP3    H266063   4.387   6.136  15.087 -1.5881  0.0544  1.3084
14858TIP3   OH266064   5.313   5.960  15.531  0.2139  0.0524 -0.1383
14858TIP3    H166065   5.300   5.865  15.531 -0.5349  0.0677 -2.8844
14858TIP3    H266066   5.381   5.975  15.465  0.4415  1.4470  0.3756
14859TIP3   OH266067   6.732   0.125  12.393 -1.1382  0.0062  0.1449
14859TIP3    H166068   6.817   0.123  12.347 -0.8666 -2.4767  0.6344
14859TIP3    H266069   6.751   0.092  12.480 -2.7101 -1.1390  0.0883
14860TIP3   OH266070   5.455   0.385  12.194  0.1448  0.2291  0.9304
14860TIP3    H166071   5.463   0.376  12.289 -0.9327 -0.4954  0.9728
14860TIP3    H266072   5.447   0.295  12.162 -0.2654  0.5057  0.2350
14861TIP3   OH266073   2.694   2.563   3.326  0.1153  0.5180  0.3393
14861TIP3    H166074   2.720   2.483   3.371  2.1179  0.5548 -0.6610
14861TIP3    H266075   2.626   2.535   3.264 -0.7904  0.0223  1.5139
14862TIP3   OH266076   6.188   3.994  10.594  0.2171  0.0016 -0.8416
14862TIP3    H166077   6.138   3.972  10.672 -0.1415 -0.9139 -1.3084
14862TIP3    H266078   6.190   4.090  10.592  1.2768  0.0681  0.9343
14863TIP3   OH266079   2.776   0.051   0.389  0.3385 -0.5157 -0.1282
14863TIP3    H166080   2.809   0.018   0.305  2.3851 -1.3174  0.9289
14863TIP3    H266081   2.747  -0.027   0.436 -2.3803  0.0727 -0.6393
14864TIP3   OH266082   0.763   3.346   3.461 -0.2394 -0.1439  0.3902
14864TIP3    H166083   0.689   3.327   3.518 -0.6179 -0.4969 -0.2165
14864TIP3    H266084   0.820   3.269   3.468 -1.4142 -1.2553 -1.4910
14865TIP3   OH266085   2.266   0.040  16.331 -0.7641  0.6568 -0.2141
14865TIP3    H166086   2.314  -0.027  16.283 -0.6223  2.0718 -2.1381
14865TIP3    H266087   2.185   0.051  16.282 -0.1632  2.8849 -0.7849
14866TIP3   OH266088   2.147   5.300  15.220 -0.1009  0.7560 -0.1690
14866TIP3    H166089   2.145   5.298  15.315 -2.1854  0.1815 -0.1626
14866TIP3    H266090   2.144   5.208  15.194 -1.3032  0.9313 -0.7417
14867TIP3   OH266091   4.346   2.283  15.578  0.4263  0.3523  0.1494
14867TIP3    H166092   4.271   2.230  15.551  1.0253  0.2864 -1.4910
14867TIP3    H266093   4.307   2.354  15.629 -0.3344 -1.8906  2.9147
14868TIP3   OH266094   1.550   0.899  14.368 -0.2385  0.0701  0.0962
14868TIP3    H166095   1.596   0.862  14.443  4.0075  2.9167 -0.7654
14868TIP3    H266096   1.513   0.982  14.400  0.6763  0.7843 -0.6425
14869TIP3   OH266097   4.190   2.323  17.154  0.1574  0.1596  0.0016
14869TIP3    H166098   4.110   2.300  17.107  0.1429  0.9236 -0.3554
14869TIP3    H266099   4.238   2.379  17.093 -1.0392  3.3534  1.7664
14870TIP3   OH266100   2.040   3.450   1.675  0.8238  0.2405 -0.0763
14870TIP3    H166101   2.011   3.427   1.587 -0.0499 -0.0145  0.2616
14870TIP3    H266102   2.074   3.368   1.711 -0.0900  0.0036  0.2904
14871TIP3   OH266103   6.162   0.069   1.083  0.3383 -0.7230 -0.3160
14871TIP3    H166104   6.126   0.036   1.001 -2.0100 -0.2175  0.4375
14871TIP3    H266105   6.122   0.014   1.150 -0.4637  1.0265  0.6998
14872TIP3   OH266106   0.745   2.297   6.549 -0.2425  0.3762 -0.0349
14872TIP3    H166107   0.688   2.230   6.513 -0.7885  1.0900 -0.5394
14872TIP3    H266108   0.826   2.289   6.499 -0.2008 -0.0838  0.1010
14873TIP3   OH266109   6.578   1.136  13.812 -0.6020 -0.1543  0.0004
14873TIP3    H166110   6.565   1.069  13.880 -1.0207  0.0726  0.1479
14873TIP3    H266111   6.580   1.219  13.860  1.3727 -0.1494 -0.0207
14874TIP3   OH266112   1.235   5.772   5.637 -0.3606  0.0200 -0.4569
14874TIP3    H166113   1.253   5.812   5.552  0.9211  1.4610  0.4242
14874TIP3    H266114   1.157   5.818   5.669  0.7380  1.4853  0.2734
14875TIP3   OH266115   3.050   6.585  16.172 -0.2703  0.3423 -0.0608
14875TIP3    H166116   2.995   6.601  16.096  0.5354  0.1236 -0.7007
14875TIP3    H266117   2.989   6.576  16.245 -1.1509 -1.1726 -0.9583
14876TIP3   OH266118   1.369   3.591   4.956 -0.2765  0.4812  0.3490
14876TIP3    H166119   1.313   3.599   4.879  0.0239 -1.5171 -0.1342
14876TIP3    H266120   1.312   3.615   5.030 -1.5679 -0.7536 -0.1966
14877TIP3   OH266121   0.040   1.356   2.258 -0.1672  1.1165  0.0941
14877TIP3    H166122   0.131   1.334   2.236 -0.4561  0.4387 -0.4758
14877TIP3    H266123   0.046   1.399   2.344  0.5122 -0.8766  1.1194
14878TIP3   OH266124   2.960   1.526  16.539 -0.3013  0.1865  0.3966
14878TIP3    H166125   3.009   1.506  16.619 -1.1042 -1.1049  0.5884
14878TIP3    H266126   3.026   1.556  16.477  0.5625 -0.3714  1.0276
14879TIP3   OH266127   3.502   0.218  14.488  0.6221 -0.4178  0.5445
14879TIP3    H166128   3.589   0.226  14.526 -0.3109 -0.0748  2.8012
14879TIP3    H266129   3.505   0.273  14.409  1.9224  1.1089  1.5853
14880TIP3   OH266130   1.278   6.578  12.550  0.5860 -0.4568  0.0735
14880TIP3    H166131   1.203   6.615  12.504  1.5708 -0.8491 -1.9745
14880TIP3    H266132   1.242   6.546  12.633 -1.0345  1.4287  0.1649
14881TIP3   OH266133   0.084   1.376   3.850 -0.4389 -0.3788 -0.4727
14881TIP3    H166134   0.070   1.464   3.815 -0.5748 -0.1508  0.1315
14881TIP3    H266135   0.115   1.391   3.940 -1.9913 -0.9509  0.1947
14882TIP3   OH266136   2.501   5.153  14.197  0.4693 -0.8425 -0.1856
14882TIP3    H166137   2.529   5.085  14.135 -0.3831  0.3922 -2.0127
14882TIP3    H266138   2.407   5.136  14.209  0.5393 -0.8006  0.4088
14883TIP3   OH266139   3.676   1.599  12.445 -0.0618 -0.2155 -0.5165
14883TIP3    H166140   3.624   1.616  12.523 -2.0879 -0.1639 -1.7874
14883TIP3    H266141   3.763   1.577  12.478 -0.4490  1.1785  1.6626
14884TIP3   OH266142   0.945   3.785  11.553 -0.1146 -0.3247 -0.1300
14884TIP3    H166143   0.857   3.784  11.516 -0.5627 -0.5039  0.8891
14884TIP3    H266144   0.986   3.863  11.517 -0.6411 -0.3135 -0.7254
14885TIP3   OH266145   6.113   1.838   3.853 -0.7345  0.0926  0.0864
14885TIP3    H166146   6.035   1.784   3.847 -0.6302 -0.1761  1.0977
14885TIP3    H266147   6.161   1.820   3.772 -0.6357 -1.4172  0.4679
14886TIP3   OH266148   5.244   2.559   1.039  0.0217  0.0119  0.5459
14886TIP3    H166149   5.299   2.605   1.103 -0.3268  0.0411  0.8315
14886TIP3    H266150   5.306   2.520   0.977  0.3392  0.4696  0.5717
14887TIP3   OH266151   4.654   0.685  12.846  0.4517  0.1382 -0.3677
14887TIP3    H166152   4.685   0.604  12.885 -2.5937 -1.0034 -0.0280
14887TIP3    H266153   4.561   0.688  12.867 -0.2617  2.0686 -3.1623
14888TIP3   OH266154   2.683   6.090  13.424  0.5173 -0.4493  0.0231
14888TIP3    H166155   2.761   6.042  13.452  0.6886 -0.7146 -0.8845
14888TIP3    H266156   2.652   6.043  13.347 -1.6580 -1.5304  1.4156
14889TIP3   OH266157   1.160   3.775  12.566 -0.5461 -0.1794 -0.6243
14889TIP3    H166158   1.085   3.749  12.620 -0.7351  1.6927  0.0746
14889TIP3    H266159   1.133   3.858  12.526  1.6503  1.3462  0.8362
14890TIP3   OH266160   0.325   3.343   4.873 -0.3776  0.0330  0.5333
14890TIP3    H166161   0.275   3.388   4.941 -0.0511  0.1682  0.6884
14890TIP3    H266162   0.304   3.251   4.884 -0.0256  0.0099  1.0794
14891TIP3   OH266163   2.983   6.744   2.668 -0.0586  0.1224  0.2511
14891TIP3    H166164   3.015   6.822   2.622  2.6240 -1.3878 -0.6761
14891TIP3    H266165   3.002   6.760   2.760  0.5997  0.5086  0.0514
14892TIP3   OH266166   4.435   4.169  14.485  0.4147  0.4900 -0.0064
14892TIP3    H166167   4.410   4.227  14.556  1.5251  1.4747 -0.3817
14892TIP3    H266168   4.446   4.083  14.526  0.4781  0.9224  0.8972
14893TIP3   OH266169   2.655   6.701   2.901  0.2527  0.3159 -0.3711
14893TIP3    H166170   2.575   6.658   2.934  1.6282 -1.6828  0.6014
14893TIP3    H266171   2.660   6.675   2.809 -0.5724  1.0746 -0.6475
14894TIP3   OH266172   0.493   6.461  15.050  0.1528 -0.0803  0.0806
14894TIP3    H166173   0.584   6.478  15.027  0.2927 -1.2799 -0.3537
14894TIP3    H266174   0.481   6.502  15.136  1.1579 -0.0860  0.2305
14895TIP3   OH266175   4.962   1.289   2.943  0.5164 -0.1021  0.3818
14895TIP3    H166176   5.033   1.235   2.977  1.1628  0.1818 -0.4979
14895TIP3    H266177   4.984   1.378   2.970 -1.0272 -0.3273  2.6457
14896TIP3   OH266178   5.806   2.135  14.739  0.1428 -0.1349  0.0705
14896TIP3    H166179   5.875   2.085  14.782 -0.0025 -1.1541 -0.8480
14896TIP3    H266180   5.811   2.222  14.779  1.3413 -0.4627  0.6724
14897TIP3   OH266181   4.693   2.246   1.683 -0.1943  0.1131  0.3548
14897TIP3    H166182   4.626   2.274   1.621 -0.0605  0.5329  0.3996
14897TIP3    H266183   4.768   2.303   1.665 -0.5487  1.0532  1.7008
14898TIP3   OH266184   3.827   3.539  15.229  0.1336  0.3328 -0.1422
14898TIP3    H166185   3.867   3.452  15.220 -1.2331 -0.2398 -1.0931
14898TIP3    H266186   3.897   3.600  15.209  0.8288 -0.5925 -0.6204
14899TIP3   OH266187   2.446   3.484  12.613  0.1824  0.5966  0.9166
14899TIP3    H166188   2.438   3.578  12.627  1.3650  1.0966 -1.2669
14899TIP3    H266189   2.403   3.468  12.529  0.3040 -0.7421  1.0769
14900TIP3   OH266190   1.245   4.812  11.636  0.4233 -0.5631 -0.4868
14900TIP3    H166191   1.224   4.749  11.705 -0.0020  0.6559  0.5251
14900TIP3    H266192   1.201   4.893  11.662  0.1998 -0.0674 -2.2231
14901TIP3   OH266193   1.371   3.934   5.759  0.0734 -0.0201  0.5618
14901TIP3    H166194   1.460   3.900   5.767  0.1807  0.1131 -0.0351
14901TIP3    H266195   1.374   3.991   5.682 -1.3648 -2.8001 -1.7405
14902TIP3   OH266196   4.497   0.274   2.848  0.0856 -0.6043 -0.0743
14902TIP3    H166197   4.403   0.286   2.864  0.1981 -2.1909  2.3431
14902TIP3    H266198   4.507   0.285   2.754 -2.3060  0.8842 -0.2289
14903TIP3   OH266199   1.275   6.790   2.165  0.0797 -0.3862  0.4502
14903TIP3    H166200   1.344   6.811   2.227  1.1218  0.6140 -0.9717
14903TIP3    H266201   1.260   6.872   2.118 -0.5142 -1.1548 -0.7451
14904TIP3   OH266202   2.055   1.940  11.105  0.0875 -0.2169 -0.0628
14904TIP3    H166203   2.075   1.895  11.023 -0.9661  0.3771 -0.6579
14904TIP3    H266204   2.140   1.975  11.134  0.5937 -1.0285 -0.5232
14905TIP3   OH266205   2.470   4.035  13.681  0.0458  0.3609 -0.8710
14905TIP3    H166206   2.414   4.110  13.664 -0.5146  0.6792  1.9290
14905TIP3    H266207   2.559   4.071  13.683 -0.3135  1.2457  1.5916
14906TIP3   OH266208   3.503   5.408   1.667  0.1386 -0.3548 -0.0746
14906TIP3    H166209   3.437   5.464   1.626  0.9536  0.1533 -0.7485
14906TIP3    H266210   3.572   5.469   1.694  0.6928 -0.9475 -0.1216
14907TIP3   OH266211   3.336   4.672  12.748  0.5340  0.0682  0.1803
14907TIP3    H166212   3.405   4.661  12.683  1.3003  1.3488  0.7493
14907TIP3    H266213   3.255   4.669  12.697  1.1240  1.2155 -0.8744
14908TIP3   OH266214   2.545   6.098   5.009  0.2891  0.0684  0.0576
14908TIP3    H166215   2.520   6.170   4.951  2.6909  1.4271  0.5675
14908TIP3    H266216   2.564   6.025   4.951  0.2365  0.6279 -0.6769
14909TIP3   OH266217   1.459   4.757  12.162  0.5059 -0.2039  0.0410
14909TIP3    H166218   1.402   4.684  12.188  1.4089 -0.8568  0.2673
14909TIP3    H266219   1.524   4.716  12.105  1.3679  0.3138  0.6442
14910TIP3   OH266220   6.535   4.993   0.113  0.7678  0.6491 -0.7695
14910TIP3    H166221   6.497   5.060   0.056  0.5853  0.7117 -0.5768
14910TIP3    H266222   6.468   4.924   0.116  0.2865  1.1430  0.2686
14911TIP3   OH266223   5.748   1.617  12.334 -0.0211 -0.1811 -0.2082
14911TIP3    H166224   5.672   1.664  12.299  0.3892  0.0159 -0.8759
14911TIP3    H266225   5.715   1.569  12.409 -0.5007  1.0541  0.3965
14912TIP3   OH266226   4.231   3.526  12.458  0.1621  0.4176  0.0180
14912TIP3    H166227   4.179   3.447  12.470  0.1076  0.5334  0.5327
14912TIP3    H266228   4.172   3.587  12.414  0.6694 -0.3479 -1.8442
14913TIP3   OH266229   5.290   5.965   4.690  0.0212 -0.3920 -0.1083
14913TIP3    H166230   5.349   5.895   4.664  1.1194  0.9870 -1.4597
14913TIP3    H266231   5.345   6.043   4.698 -1.5511  0.9167 -1.2704
14914TIP3   OH266232   6.701   1.466  12.558 -0.7411  0.4869 -0.1210
14914TIP3    H166233   6.755   1.399  12.601  0.1188  0.9876 -0.4119
14914TIP3    H266234   6.671   1.522  12.630  0.5714  1.2325 -0.1180
14915TIP3   OH266235   6.301   6.455   1.151  0.4657 -0.6327  0.7440
14915TIP3    H166236   6.250   6.375   1.143  1.0026 -0.8544 -0.8096
14915TIP3    H266237   6.392   6.427   1.139  0.6477  0.2151  0.0043
14916TIP3   OH266238   3.316   5.619   6.700  0.3108  0.2861  0.4917
14916TIP3    H166239   3.336   5.526   6.692  0.4723  0.2817  0.9144
14916TIP3    H266240   3.224   5.621   6.728 -0.9763  0.3351 -3.1690
14917TIP3   OH266241   5.751   3.158   4.553 -0.2876 -0.1904  0.1297
14917TIP3    H166242   5.842   3.131   4.541  0.7572  2.8784  0.3067
14917TIP3    H266243   5.743   3.177   4.646 -0.5239  1.3535 -0.1794
14918TIP3   OH266244   0.271   0.750  14.856 -0.3846 -0.1178 -0.0272
14918TIP3    H166245   0.191   0.785  14.896 -0.2608  1.5074 -1.1092
14918TIP3    H266246   0.324   0.827  14.836  1.3114 -1.1443  0.3213
14919TIP3   OH266247   2.689   0.866  16.323 -0.1389 -0.0582  0.2257
14919TIP3    H166248   2.700   0.801  16.253 -0.6033  0.2356 -0.1301
14919TIP3    H266249   2.720   0.822  16.402  2.1137  0.2365 -0.4496
14920TIP3   OH266250   1.820   0.433  15.100  0.3670  0.1454 -0.3294
14920TIP3    H166251   1.844   0.369  15.033 -1.1718  1.0440 -1.8158
14920TIP3    H266252   1.861   0.515  15.072  0.3327  0.3635  0.2325
14921TIP3   OH266253   0.160   4.193   0.545 -0.0235  0.3045 -0.3506
14921TIP3    H166254   0.182   4.117   0.599 -0.0505 -0.0086 -0.7754
14921TIP3    H266255   0.100   4.160   0.479 -0.8593  0.9175  0.0772
14922TIP3   OH266256   1.970   3.019  16.750  0.4539  0.7117 -0.5440
14922TIP3    H166257   2.036   2.964  16.793 -1.6118 -2.8112 -1.4686
14922TIP3    H266258   1.954   2.975  16.666 -2.9329  1.4369 -0.3923
14923TIP3   OH266259   0.647   6.284  16.270  0.0071  0.1794 -0.3105
14923TIP3    H166260   0.714   6.350  16.252  1.1371 -0.8956 -0.1751
14923TIP3    H266261   0.571   6.311  16.218  1.3867  0.0508 -2.4905
14924TIP3   OH266262   0.027   5.439  17.065 -0.2263  0.6597  0.7928
14924TIP3    H166263  -0.000   5.530  17.052 -2.4776 -0.2200 -1.2990
14924TIP3    H266264  -0.053   5.393  17.091 -0.1445 -1.4088 -2.0887
14925TIP3   OH266265   1.898   5.521   4.014  0.3608 -0.6903 -0.1651
14925TIP3    H166266   1.862   5.591   3.959  0.0736 -2.0087 -1.7228
14925TIP3    H266267   1.822   5.467   4.036  0.9298 -1.9581 -1.1923
14926TIP3   OH266268   0.013   1.848   5.244  0.0785 -0.3499 -0.4528
14926TIP3    H166269   0.080   1.780   5.241  0.3979 -0.1608  1.4075
14926TIP3    H266270  -0.043   1.830   5.168  1.6666 -1.0800 -1.4962
14927TIP3   OH266271   1.492   5.818  14.966 -0.4450 -0.5760  0.6626
14927TIP3    H166272   1.458   5.861  14.888 -0.1631 -1.0236  0.2908
14927TIP3    H266273   1.522   5.890  15.022  0.1377 -0.2890 -0.0048
14928TIP3   OH266274   4.245   6.780  10.894 -0.2190  0.1247  0.2715
14928TIP3    H166275   4.331   6.775  10.936 -0.7481 -2.2671  1.2276
14928TIP3    H266276   4.261   6.754  10.803  0.0417 -0.6423  0.5279
14929TIP3   OH266277   3.072   5.329   0.595  0.5512 -0.1649 -0.2716
14929TIP3    H166278   3.068   5.329   0.691  0.8548 -0.3748 -0.2576
14929TIP3    H266279   3.076   5.237   0.571 -1.1322 -0.1920 -0.5695
14930TIP3   OH266280   4.817   3.977  15.317  0.0843 -0.0338 -0.6625
14930TIP3    H166281   4.868   4.047  15.357 -2.5534  0.9221  1.2815
14930TIP3    H266282   4.834   3.901  15.373 -0.6989  0.3369  0.1094
14931TIP3   OH266283   1.765   1.060   1.849  0.0092  0.5328 -0.4605
14931TIP3    H166284   1.798   1.042   1.937  1.0453  0.8138 -0.7832
14931TIP3    H266285   1.812   1.139   1.821 -0.3519  0.4806 -1.2499
14932TIP3   OH266286   2.653   0.618   4.169 -0.5156 -0.1025  0.1201
14932TIP3    H166287   2.677   0.535   4.211 -0.5741 -0.2356 -0.1057
14932TIP3    H266288   2.737   0.659   4.147 -0.4852 -0.4460 -0.4331
14933TIP3   OH266289   1.057   3.605  15.223  0.1246  0.1479 -0.0264
14933TIP3    H166290   1.025   3.520  15.253 -0.0575  0.3335  0.3210
14933TIP3    H266291   1.035   3.608  15.130  2.0916 -1.0899 -0.5962
14934TIP3   OH266292   1.333   2.823  11.809  0.1733 -0.5406 -0.3199
14934TIP3    H166293   1.392   2.854  11.741 -0.8889  1.9898 -0.1761
14934TIP3    H266294   1.390   2.777  11.871  2.0311  1.6839 -0.2568
14935TIP3   OH266295   5.407   1.842   2.442  0.3417 -0.0494  0.0009
14935TIP3    H166296   5.498   1.819   2.425 -0.8325 -4.6285 -1.4657
14935TIP3    H266297   5.376   1.774   2.502 -2.2970  0.9737 -0.0929
14936TIP3   OH266298   4.953   2.980   6.782  0.5889  0.1298  0.2828
14936TIP3    H166299   5.044   3.007   6.800  0.8712  0.4910 -1.4962
14936TIP3    H266300   4.931   2.921   6.853  3.0928 -1.9413 -0.5264
14937TIP3   OH266301   5.712   6.193  12.673 -0.0763  0.1707 -0.4111
14937TIP3    H166302   5.798   6.170  12.639 -0.5296 -2.1579 -0.1846
14937TIP3    H266303   5.727   6.216  12.764  0.2462 -0.8601 -0.1930
14938TIP3   OH266304   0.262   4.383   0.734 -0.0757 -0.4919  0.0675
14938TIP3    H166305   0.243   4.337   0.652 -0.6661 -2.2590  1.1248
14938TIP3    H266306   0.180   4.427   0.756  0.1571  0.1852 -0.3996
14939TIP3   OH266307   0.761   5.649  17.151 -0.4815  0.5903 -0.1757
14939TIP3    H166308   0.759   5.653  17.056 -2.3963 -0.0459 -0.2041
14939TIP3    H266309   0.674   5.619  17.176  0.0575  0.4818  1.7739
14940TIP3   OH266310   5.899   2.737  11.250  0.3369 -0.1489 -0.6380
14940TIP3    H166311   5.968   2.802  11.263 -0.4323  0.7829 -1.0666
14940TIP3    H266312   5.940   2.653  11.272  1.4119  0.4527 -0.2779
14941TIP3   OH266313   5.411   2.402   3.904  0.3008 -0.1352 -0.6359
14941TIP3    H166314   5.469   2.437   3.971  0.7521 -1.1030 -0.5001
14941TIP3    H266315   5.445   2.314   3.887 -0.7857 -0.5003 -0.9705
14942TIP3   OH266316   2.174   4.083   0.226  0.1597 -0.6674  0.3176
14942TIP3    H166317   2.085   4.050   0.214 -0.6341  1.3492  0.2945
14942TIP3    H266318   2.209   4.031   0.298 -0.5826 -2.3119 -0.4468
14943TIP3   OH266319   3.554   5.824  13.081 -0.0084  0.4795 -0.2990
14943TIP3    H166320   3.555   5.758  13.151  0.9228  0.6112 -0.1669
14943TIP3    H266321   3.557   5.908  13.127  3.0606  0.5764 -0.4126
14944TIP3   OH266322   0.078   2.151  11.861 -0.4402  0.5497 -0.0455
14944TIP3    H166323   0.037   2.219  11.807  1.2898  2.5126  0.9640
14944TIP3    H266324   0.119   2.092  11.798  1.3694  2.6668 -1.0022
14945TIP3   OH266325   3.161   0.435  13.611  0.3318  0.4139  0.3066
14945TIP3    H166326   3.146   0.462  13.520 -0.5644  0.0515  0.3432
14945TIP3    H266327   3.081   0.460  13.657  0.3643 -0.3523  0.7850
14946TIP3   OH266328   2.844   4.934  15.115  0.2186 -0.2066  0.2813
14946TIP3    H166329   2.796   4.912  15.195 -0.5927  1.8915  0.4229
14946TIP3    H266330   2.928   4.967  15.145  0.0591  0.2191  0.2753
14947TIP3   OH266331   2.238   2.464   4.236 -0.0845  0.3558 -0.3577
14947TIP3    H166332   2.170   2.455   4.169 -0.0368 -0.9899 -0.2422
14947TIP3    H266333   2.289   2.383   4.230  0.7682  0.8145  0.3878
14948TIP3   OH266334   2.481   2.482   5.600  0.2913  0.2814  0.1035
14948TIP3    H166335   2.550   2.476   5.667 -1.8909  0.3504  2.5308
14948TIP3    H266336   2.479   2.395   5.560  1.1179 -0.0378  0.7129
14949TIP3   OH266337   5.043   4.644   5.555  0.4474 -0.3492 -0.2486
14949TIP3    H166338   5.058   4.638   5.649  0.5216  2.0322 -0.0535
14949TIP3    H266339   4.967   4.702   5.546  2.7100  2.6707 -1.6580
14950TIP3   OH266340   6.219   0.924   4.563 -0.8752  0.2640 -0.4265
14950TIP3    H166341   6.228   0.863   4.489  1.4482 -1.6033  1.2623
14950TIP3    H266342   6.280   0.995   4.542 -0.9590  0.2426 -0.7566
14951TIP3   OH266343   2.956   0.915   0.685  0.0232 -1.1056  0.1906
14951TIP3    H166344   2.982   0.968   0.609 -3.3085  0.3983 -0.0561
14951TIP3    H266345   2.927   0.979   0.750 -4.1439 -2.4503 -0.0923
14952TIP3   OH266346   2.051   2.878   4.801  0.0898  0.0583  0.1502
14952TIP3    H166347   2.092   2.891   4.887  1.7053  0.0573 -0.5961
14952TIP3    H266348   2.089   2.946   4.746 -0.5647 -0.2568 -0.7086
14953TIP3   OH266349   4.459   1.631  15.176  0.0805 -0.3332  0.6841
14953TIP3    H166350   4.379   1.626  15.123  0.1367 -1.6246  0.7007
14953TIP3    H266351   4.430   1.610  15.264  0.3868 -0.5300  0.7391
14954TIP3   OH266352   3.289   5.019  12.619 -0.0437 -0.1536 -0.1661
14954TIP3    H166353   3.232   5.094  12.638  0.6857  0.1818  0.7285
14954TIP3    H266354   3.228   4.947  12.605 -0.6914 -0.1557  2.2904
14955TIP3   OH266355   2.277   2.539   2.874 -0.0712 -0.5304  0.7717
14955TIP3    H166356   2.356   2.565   2.827 -0.1329 -0.0078  0.9458
14955TIP3    H266357   2.228   2.485   2.812  0.5232 -1.0444  0.7378
14956TIP3   OH266358   2.209   5.118   4.682  0.1609  0.1654 -0.2920
14956TIP3    H166359   2.127   5.070   4.672  0.2600  0.2262 -1.6322
14956TIP3    H266360   2.256   5.071   4.751 -0.0798 -1.2010 -1.0286
14957TIP3   OH266361   5.207   4.143  12.098 -0.4662 -0.2241 -0.1584
14957TIP3    H166362   5.194   4.220  12.152 -0.2781 -0.5763  0.3982
14957TIP3    H266363   5.192   4.069  12.157  1.7973 -0.6438  0.0002
14958TIP3   OH266364   3.621   4.372  14.939  0.4085 -0.5169 -0.2801
14958TIP3    H166365   3.672   4.452  14.927  0.8823 -1.0702 -2.1864
14958TIP3    H266366   3.615   4.333  14.852 -1.5811 -1.5068  0.2272
14959TIP3   OH266367   3.058   1.284   5.729 -0.3540  0.0219 -0.5591
14959TIP3    H166368   3.149   1.287   5.700 -0.2140  2.5159 -0.0491
14959TIP3    H266369   3.039   1.190   5.738  2.1916 -0.5618 -0.5284
14960TIP3   OH266370   3.133   2.796  12.782  0.2160  0.0796 -0.6076
14960TIP3    H166371   3.133   2.868  12.846 -2.4007 -2.2388  2.3557
14960TIP3    H266372   3.089   2.833  12.705 -0.3732  1.8850  0.5112
14961TIP3   OH266373   0.948   3.443   4.234  0.1180 -0.6402  0.1780
14961TIP3    H166374   1.039   3.465   4.216  0.4305 -1.2240  1.0161
14961TIP3    H266375   0.927   3.487   4.316 -0.0097 -1.4164  0.5711
14962TIP3   OH266376   3.416   5.766  16.087  0.0890  0.8502 -0.2263
14962TIP3    H166377   3.463   5.801  16.164 -0.1873 -0.4249  0.5551
14962TIP3    H266378   3.405   5.673  16.107 -1.2145  0.7800 -1.2074
14963TIP3   OH266379   1.234   3.535   4.719  0.2280 -0.4959  0.3632
14963TIP3    H166380   1.239   3.440   4.726 -2.5515 -0.8589 -1.1377
14963TIP3    H266381   1.150   3.552   4.676  1.5871  2.5359 -1.4599
14964TIP3   OH266382   4.337   1.229   3.540  0.2937  0.0092  0.6075
14964TIP3    H166383   4.405   1.292   3.514  0.6332 -0.9100 -0.8946
14964TIP3    H266384   4.379   1.176   3.608  1.2506 -0.7323 -0.5003
14965TIP3   OH266385   0.178   5.855   5.538  0.3259  0.9977  0.0757
14965TIP3    H166386   0.216   5.925   5.485 -0.0059  0.7490 -0.4944
14965TIP3    H266387   0.110   5.898   5.590  1.0051  1.3416  0.6990
14966TIP3   OH266388   2.981   1.547  11.478  0.1730 -0.0077 -0.0698
14966TIP3    H166389   3.034   1.576  11.404 -1.0275 -0.4933 -1.1661
14966TIP3    H266390   3.035   1.481  11.522  1.4074  1.1742  0.2718
14967TIP3   OH266391   6.770   4.125  13.944 -0.5641  0.5229  0.1556
14967TIP3    H166392   6.851   4.172  13.921 -0.3836  0.2645  0.2539
14967TIP3    H266393   6.724   4.185  14.003  0.6079 -0.2233  1.9088
14968TIP3   OH266394   2.778   6.493  15.916  0.0540  0.9087 -0.2133
14968TIP3    H166395   2.830   6.481  15.836 -1.6055 -0.0066 -1.2285
14968TIP3    H266396   2.794   6.583  15.942  0.4789  1.2980 -1.7122
14969TIP3   OH266397   0.841   6.343   1.739  0.7754  0.0394 -0.1273
14969TIP3    H166398   0.776   6.412   1.749 -0.1607 -0.7547 -0.6639
14969TIP3    H266399   0.881   6.335   1.826  0.6326  0.9926  0.0307
14970TIP3   OH266400   0.365   1.138  12.061  0.3232 -0.2874  0.7302
14970TIP3    H166401   0.349   1.220  12.108 -1.8994 -0.4840  0.4102
14970TIP3    H266402   0.287   1.126  12.007  1.5524 -1.5498 -0.8468
14971TIP3   OH266403   0.492   4.707  11.207 -0.0973 -0.0623 -0.0011
14971TIP3    H166404   0.474   4.763  11.283 -1.2352  1.7067 -1.4857
14971TIP3    H266405   0.410   4.707  11.158 -0.2838 -3.3633  0.0340
14972TIP3   OH266406   5.286   4.100  10.725  0.3700 -0.2073 -0.1558
14972TIP3    H166407   5.303   4.181  10.678 -0.5432  0.7485  1.0893
14972TIP3    H266408   5.358   4.092  10.787  0.1101  0.0155  0.1776
14973TIP3   OH266409   6.628   3.334  13.058  0.0318 -0.1567  0.5248
14973TIP3    H166410   6.633   3.288  12.974 -0.6692 -2.0475  1.4475
14973TIP3    H266411   6.536   3.359  13.066 -0.1211 -0.9012  1.1753
14974TIP3   OH266412   4.146   2.327  14.983 -0.1786  0.5512  0.3898
14974TIP3    H166413   4.228   2.376  14.978 -0.2572  0.5894 -0.7112
14974TIP3    H266414   4.117   2.320  14.893 -1.0168 -0.1046  0.7013
14975TIP3   OH266415   1.833   5.962   5.373 -0.3900 -0.0824 -0.1356
14975TIP3    H166416   1.893   5.899   5.333  0.5736  0.8548 -0.1808
14975TIP3    H266417   1.872   6.047   5.356 -1.7617  0.5607 -0.2093
14976TIP3   OH266418   0.861   4.680  14.814  0.4181  0.3490  0.1314
14976TIP3    H166419   0.794   4.612  14.809  0.9778 -0.1648 -0.6198
14976TIP3    H266420   0.940   4.633  14.841  0.7577  0.7400 -0.1765
14977TIP3   OH266421   1.038   4.697  15.402 -0.0389 -0.2091 -0.3138
14977TIP3    H166422   1.026   4.767  15.338 -2.9862 -1.9279 -1.8838
14977TIP3    H266423   1.108   4.643  15.366 -0.7151 -0.3804 -1.4369
14978TIP3   OH266424   0.675   5.584   5.792  0.1921  0.0765 -0.2482
14978TIP3    H166425   0.585   5.566   5.764 -0.1557  0.9034  0.2872
14978TIP3    H266426   0.699   5.508   5.845 -1.2820  1.0936  2.0671
14979TIP3   OH266427   3.593   4.557   1.929 -0.2399  0.1963 -0.1037
14979TIP3    H166428   3.616   4.649   1.936  1.1851 -0.2058  0.8861
14979TIP3    H266429   3.516   4.547   1.984  0.0659  0.6519  0.4152
14980TIP3   OH266430   2.991   4.191  11.599 -0.2398 -0.4760 -0.5110
14980TIP3    H166431   3.012   4.140  11.677  1.2706  0.0564 -0.5530
14980TIP3    H266432   3.010   4.282  11.624  2.3626 -0.4946 -2.1328
14981TIP3   OH266433   2.503   4.008  15.947  0.6638  0.3255 -0.2021
14981TIP3    H166434   2.487   3.918  15.919  0.1652  0.8395 -1.6557
14981TIP3    H266435   2.544   4.050  15.871 -3.1195  2.4752 -1.2841
14982TIP3   OH266436   1.296   4.017   3.264  0.5834 -0.0555  0.3499
14982TIP3    H166437   1.315   3.926   3.287 -0.2827 -0.2328  0.4077
14982TIP3    H266438   1.203   4.017   3.241  1.1854  0.2879 -2.3652
14983TIP3   OH266439   6.610   0.112  14.355  0.2324  0.3024 -0.2893
14983TIP3    H166440   6.561   0.169  14.414  0.7872  0.9590 -0.4538
14983TIP3    H266441   6.543   0.065  14.306 -0.2317  0.1843  0.4392
14984TIP3   OH266442   5.792   3.562   2.323 -0.5956  0.3652  0.1623
14984TIP3    H166443   5.885   3.573   2.343 -0.7175  1.1474  0.3206
14984TIP3    H266444   5.789   3.488   2.263  0.2271  0.9741 -0.6461
14985TIP3   OH266445   1.413   3.764  17.163 -0.2212 -0.6991  0.2664
14985TIP3    H166446   1.477   3.789  17.230 -0.6101 -0.9338  0.7303
14985TIP3    H266447   1.329   3.760  17.210 -0.1969 -2.8420  0.2372
14986TIP3   OH266448   4.664   5.995   0.063 -0.2123  0.4570  0.3789
14986TIP3    H166449   4.681   6.071   0.007  0.3624 -0.0814 -0.2054
14986TIP3    H266450   4.569   5.982   0.057 -0.0939  0.0268 -1.0192
14987TIP3   OH266451   3.500   3.901  12.457  0.2319 -0.2918  0.1349
14987TIP3    H166452   3.419   3.930  12.499 -0.0522  1.2411 -1.3357
14987TIP3    H266453   3.499   3.945  12.372  2.2301 -0.8862 -0.2385
14988TIP3   OH266454   3.503   1.294  14.100  0.0747  0.5540 -1.2387
14988TIP3    H166455   3.565   1.349  14.051  0.3440  1.7913  0.4063
14988TIP3    H266456   3.500   1.212  14.051  0.5142  1.6200 -3.1687
14989TIP3   OH266457   5.267   5.592  15.106  0.0867 -0.2922  0.1662
14989TIP3    H166458   5.317   5.510  15.099  0.1953 -0.1709 -0.5957
14989TIP3    H266459   5.285   5.637  15.023 -0.4482  0.2340  0.3357
14990TIP3   OH266460   1.788   6.174  16.373 -0.0414 -0.4081  0.0298
14990TIP3    H166461   1.872   6.221  16.365 -1.3929  1.8960 -1.9654
14990TIP3    H266462   1.739   6.225  16.438 -0.5077 -0.7785 -0.0339
14991TIP3   OH266463   2.207   5.177   5.779  0.2961  0.0694 -0.3703
14991TIP3    H166464   2.228   5.170   5.873  0.2654  2.7578 -0.0588
14991TIP3    H266465   2.159   5.260   5.772  0.3065 -0.0647 -2.7695
14992TIP3   OH266466   0.228   2.774   0.079  0.0711 -0.3205  0.1162
14992TIP3    H166467   0.259   2.764  -0.010  1.4586 -3.9939  0.8177
14992TIP3    H266468   0.307   2.783   0.132 -0.6359  0.2926  1.1093
14993TIP3   OH266469   5.052   3.751   1.474  0.0386  0.4825  0.3927
14993TIP3    H166470   5.080   3.721   1.561 -1.5789  0.2428  0.8641
14993TIP3    H266471   5.090   3.688   1.413 -0.2396 -0.3548  1.0752
14994TIP3   OH266472   5.823   4.326   1.454 -0.1043 -0.0540 -0.2311
14994TIP3    H166473   5.915   4.329   1.426  0.1446 -0.0995  0.5506
14994TIP3    H266474   5.827   4.329   1.549 -0.8260 -1.9962 -0.0956
14995TIP3   OH266475   4.698   1.575  15.052 -0.1249  0.1691 -0.1232
14995TIP3    H166476   4.603   1.578  15.052 -0.1375 -0.1053 -0.5392
14995TIP3    H266477   4.725   1.645  14.994 -0.1077 -0.4233 -0.8440
14996TIP3   OH266478   4.874   0.297  11.385  0.0325  0.1236 -0.0008
14996TIP3    H166479   4.932   0.297  11.308 -2.3804  0.6109 -1.9657
14996TIP3    H266480   4.855   0.205  11.401  0.0568  0.0400 -0.4320
14997TIP3   OH266481   3.947   0.276   5.741 -0.1015 -0.4849 -0.5079
14997TIP3    H166482   3.984   0.343   5.799  2.4017 -1.6368 -0.6286
14997TIP3    H266483   3.965   0.193   5.785  2.0012 -1.4066 -2.8434
14998TIP3   OH266484   0.746   5.697  14.933 -0.3407  0.1707  0.4882
14998TIP3    H166485   0.707   5.633  14.991 -0.0179 -1.5471 -1.0978
14998TIP3    H266486   0.692   5.694  14.854 -1.0918  2.8094  0.8036
14999TIP3   OH266487   0.189   0.600  11.237  0.0823 -0.2190  0.2702
14999TIP3    H166488   0.261   0.659  11.261  0.9268 -1.5420  1.1289
14999TIP3    H266489   0.226   0.544  11.169 -0.9623  0.7170 -1.1203
15000TIP3   OH266490   3.214   2.715   2.735  0.3938  0.3909  0.0128
15000TIP3    H166491   3.122   2.696   2.754  0.2367 -1.7579 -2.3775
15000TIP3    H266492   3.253   2.733   2.821 -1.5831 -1.8726  1.5020
15001TIP3   OH266493   1.014   2.907  16.013  0.3341 -0.3004 -0.0945
15001TIP3    H166494   0.958   2.836  16.047 -0.7687 -0.3322 -1.8628
15001TIP3    H266495   1.064   2.867  15.942  0.0045  0.5638 -0.8410
15002TIP3   OH266496   3.081   1.193  13.408  0.7649  0.0043 -0.1573
15002TIP3    H166497   3.136   1.179  13.484  2.1605 -0.7582 -1.2597
15002TIP3    H266498   3.084   1.110  13.360  1.8995  1.1641 -2.2455
15003TIP3   OH266499   6.499   0.548  11.918  0.1653 -0.0188  0.3332
15003TIP3    H166500   6.431   0.493  11.879  0.1882  0.2429 -0.0780
15003TIP3    H266501   6.454   0.595  11.988 -0.3328  0.9176 -0.5911
15004TIP3   OH266502   5.456   0.459  12.785  0.4371  0.2207 -0.5096
15004TIP3    H166503   5.403   0.422  12.855 -2.0852  1.5135 -1.5862
15004TIP3    H266504   5.465   0.551  12.808  1.1164  0.2837 -1.0000
15005TIP3   OH266505   5.222   5.384   0.212  0.6082 -0.4167 -0.0786
15005TIP3    H166506   5.146   5.327   0.226  0.3484  0.1703  1.0242
15005TIP3    H266507   5.265   5.389   0.297  1.7863 -0.5754 -0.6397
15006TIP3   OH266508   5.848   5.156   5.510 -0.3188 -0.5003  0.7489
15006TIP3    H166509   5.764   5.203   5.508 -0.1065 -0.1232  0.4817
15006TIP3    H266510   5.866   5.137   5.418 -1.5920 -3.2816  0.9850
15007TIP3   OH266511   5.166   2.465   1.398  0.5781  0.2310  0.2233
15007TIP3    H166512   5.164   2.400   1.328 -0.9955 -0.9711  1.2937
15007TIP3    H266513   5.187   2.415   1.477 -0.8708  0.9392  1.1063
15008TIP3   OH266514   3.034   5.314   5.681 -0.6730 -0.4485 -0.0937
15008TIP3    H166515   2.991   5.332   5.765 -0.2462 -1.8909  0.4615
15008TIP3    H266516   2.991   5.234   5.648 -1.6287  0.7120 -1.8405
15009TIP3   OH266517   0.910   6.123   3.009  0.2472 -0.2364 -0.6500
15009TIP3    H166518   0.949   6.153   2.927  0.5095  2.4025  0.3200
15009TIP3    H266519   0.868   6.040   2.988  2.0305 -0.6412 -2.9465
15010TIP3   OH266520   6.499   4.375  13.627 -0.0090 -0.2093 -0.8005
15010TIP3    H166521   6.514   4.390  13.720  0.4600  0.8556 -1.0288
15010TIP3    H266522   6.587   4.363  13.590 -0.1651 -0.2452 -1.1649
15011TIP3   OH266523   1.660   6.158  10.738 -0.2224  0.1546 -0.1804
15011TIP3    H166524   1.607   6.175  10.660  0.5780  0.1444 -0.7394
15011TIP3    H266525   1.750   6.175  10.710  0.1464 -0.5427  0.5478
15012TIP3   OH266526   3.594   1.827  12.595  0.3126  0.4304  0.0842
15012TIP3    H166527   3.593   1.878  12.677  1.6275  0.4875  0.0775
15012TIP3    H266528   3.524   1.867  12.542 -0.1756  0.7592  0.9484
15013TIP3   OH266529   2.358   0.385  12.739 -0.1081 -0.3408  0.0060
15013TIP3    H166530   2.398   0.431  12.813 -1.0221  1.7833 -0.7364
15013TIP3    H266531   2.416   0.404  12.665  0.1065 -1.3617 -0.1003
15014TIP3   OH266532   0.473   4.601   4.764 -0.0606 -0.2075 -0.1210
15014TIP3    H166533   0.413   4.530   4.786 -1.0621 -0.0183 -1.9955
15014TIP3    H266534   0.476   4.656   4.843 -3.1247  0.2651 -0.2056
15015TIP3   OH266535   2.915   4.641   6.050  0.2294 -0.1778 -0.2884
15015TIP3    H166536   2.969   4.563   6.058 -1.5636 -1.4721 -0.2493
15015TIP3    H266537   2.916   4.662   5.956 -0.2273 -0.9815 -0.4821
15016TIP3   OH266538   1.471   5.264  15.372 -0.2797  0.8526  0.0332
15016TIP3    H166539   1.510   5.217  15.446 -1.5667 -1.5945 -0.7436
15016TIP3    H266540   1.546   5.293  15.320  0.5730 -0.8564  0.2555
15017TIP3   OH266541   3.994   1.066  13.759 -0.0833 -0.0388  0.2319
15017TIP3    H166542   3.973   1.059  13.852  4.0669 -1.8113  1.2883
15017TIP3    H266543   3.939   1.000  13.717  0.3461 -1.6415  2.0375
15018TIP3   OH266544   1.934   1.937  13.472 -0.3547  0.3963  0.2520
15018TIP3    H166545   2.009   1.916  13.528 -1.1275 -0.7405  0.9180
15018TIP3    H266546   1.858   1.925  13.530 -1.1512 -0.3020 -0.8997
15019TIP3   OH266547   5.115   0.939   0.620 -0.3112 -0.0538  0.2776
15019TIP3    H166548   5.197   0.988   0.609  0.1692 -0.8391  0.2839
15019TIP3    H266549   5.139   0.848   0.602 -1.1208 -0.3300  0.5649
15020TIP3   OH266550   6.044   3.575   5.513 -0.0431  0.5272  0.2541
15020TIP3    H166551   5.961   3.528   5.511  0.5008 -0.4897  0.9479
15020TIP3    H266552   6.022   3.661   5.550 -0.5694 -0.2080  1.7196
15021TIP3   OH266553   5.475   4.588   6.148  0.0608 -0.1476 -0.6106
15021TIP3    H166554   5.542   4.521   6.154 -0.4293 -0.7553 -1.7292
15021TIP3    H266555   5.474   4.614   6.056 -0.1227  1.0138 -0.2986
15022TIP3   OH266556   4.219   2.596   0.106  0.5408  0.2203 -0.3738
15022TIP3    H166557   4.241   2.504   0.125 -0.8520  0.2355  1.5510
15022TIP3    H266558   4.144   2.591   0.047 -0.4575  0.0695  0.8710
15023TIP3   OH266559   3.575   4.954   3.236 -0.3880 -0.3453 -0.7073
15023TIP3    H166560   3.581   5.019   3.306 -0.8726 -1.1204  0.0914
15023TIP3    H266561   3.492   4.974   3.192 -0.4711 -0.3331 -0.5477
15024TIP3   OH266562   0.434   3.873   0.242 -0.2394 -0.3874  0.6542
15024TIP3    H166563   0.405   3.897   0.330 -1.0651  1.3120 -0.0353
15024TIP3    H266564   0.513   3.925   0.227 -0.1489 -0.6044  0.3561
15025TIP3   OH266565   6.427   4.020   0.409 -0.2714 -0.5290 -0.1802
15025TIP3    H166566   6.480   4.100   0.409 -2.5176  1.0754 -1.3547
15025TIP3    H266567   6.418   3.997   0.501  0.1523  0.7797  0.2124
15026TIP3   OH266568   3.367   6.800  16.396  0.1413  0.4816 -0.4126
15026TIP3    H166569   3.360   6.794  16.301 -0.8181  2.1694 -0.4985
15026TIP3    H266570   3.294   6.747  16.429 -0.0485  0.5894 -0.6548
15027TIP3   OH266571   6.630   3.618   1.219 -0.1709  0.9954 -0.2923
15027TIP3    H166572   6.694   3.637   1.151  0.8844 -0.2191  0.3298
15027TIP3    H266573   6.677   3.633   1.301  0.3046 -2.6151  0.2530
15028TIP3   OH266574   1.613   0.906   0.665 -0.0703  0.7592 -0.0743
15028TIP3    H166575   1.556   0.971   0.624  0.9827  1.5182 -0.3872
15028TIP3    H266576   1.601   0.827   0.612  0.7183  1.5164 -1.4541
15029TIP3   OH266577   5.377   3.333   6.685 -1.0459  0.3242  0.0096
15029TIP3    H166578   5.366   3.428   6.675  0.9541  0.8069  1.7095
15029TIP3    H266579   5.452   3.311   6.630 -1.3708 -0.2495 -0.2127
15030TIP3   OH266580   5.738   2.034  16.230  0.4805 -0.3890  0.2652
15030TIP3    H166581   5.715   2.082  16.151  1.2538  0.6851  0.6517
15030TIP3    H266582   5.702   1.946  16.218 -1.0483  0.3053 -0.4442
15031TIP3   OH266583   5.089   4.027   1.072 -0.1269 -0.0693 -0.2190
15031TIP3    H166584   5.179   4.017   1.102 -0.0895 -0.2394 -0.3847
15031TIP3    H266585   5.052   3.939   1.075 -0.4283  0.0717  0.2824
15032TIP3   OH266586   2.414   2.455   0.710  0.5431 -0.0382 -0.6210
15032TIP3    H166587   2.405   2.363   0.685  1.9633 -0.4894  0.4386
15032TIP3    H266588   2.373   2.503   0.638 -1.8545 -1.5189 -0.3507
15033TIP3   OH266589   3.956   0.861  15.357  0.3383  0.2109  0.7675
15033TIP3    H166590   4.051   0.856  15.345  0.5029 -1.1133  2.2518
15033TIP3    H266591   3.926   0.921  15.289  2.3452  1.3562  0.8031
15034TIP3   OH266592   5.645   1.289  15.458 -0.5142 -0.5020  0.2240
15034TIP3    H166593   5.570   1.271  15.401 -0.8915  0.3178  0.4453
15034TIP3    H266594   5.715   1.233  15.424 -1.2998 -1.5055  0.1969
15035TIP3   OH266595   4.643   3.755   4.113 -0.7404 -0.2656 -0.1325
15035TIP3    H166596   4.691   3.833   4.142 -2.3305  0.3735  0.9582
15035TIP3    H266597   4.561   3.758   4.163 -1.3678 -1.9860 -0.9820
15036TIP3   OH266598   2.218   2.356  14.428  0.0965  0.8346  0.7635
15036TIP3    H166599   2.229   2.288  14.362  2.4762  0.3440  1.5269
15036TIP3    H266600   2.278   2.426  14.400 -1.2457  2.0186  0.7546
15037TIP3   OH266601   2.600   4.888   3.249  0.6488  0.5244 -0.2494
15037TIP3    H166602   2.510   4.863   3.228  0.2435  0.0927  1.7652
15037TIP3    H266603   2.632   4.816   3.304  1.6891  1.3913  0.3126
15038TIP3   OH266604   4.499   2.597  15.541  0.5907 -0.1133  0.3502
15038TIP3    H166605   4.449   2.556  15.612 -0.5039  0.1590 -0.2591
15038TIP3    H266606   4.434   2.637  15.484  1.4415 -0.4154 -0.8827
15039TIP3   OH266607   4.627   4.342   2.782  0.3264  0.0196  0.0898
15039TIP3    H166608   4.689   4.303   2.843  0.5554  0.2053 -0.0213
15039TIP3    H266609   4.659   4.318   2.695  0.0515 -0.1699  0.0390
15040TIP3   OH266610   4.612   5.984  15.765 -0.0203  0.0003  0.2688
15040TIP3    H166611   4.696   6.023  15.789  0.0941 -0.4778  0.6791
15040TIP3    H266612   4.588   5.931  15.841 -0.3124 -0.4901 -0.1564
15041TIP3   OH266613   6.098   3.207  12.625 -0.0372 -0.2502 -0.6834
15041TIP3    H166614   6.160   3.201  12.698 -0.0242  2.8921 -0.3102
15041TIP3    H266615   6.078   3.300  12.618 -0.7585 -0.5261 -4.1279
15042TIP3   OH266616   2.714   4.015   2.397 -0.3205  0.0275 -0.2854
15042TIP3    H166617   2.639   4.067   2.367 -0.7775 -1.3619 -1.6975
15042TIP3    H266618   2.687   3.982   2.483 -0.4014  1.3216  0.2077
15043TIP3   OH266619   3.264   3.292  10.643  0.7098 -0.0788 -0.7121
15043TIP3    H166620   3.215   3.334  10.571 -1.5303 -0.8544  0.2545
15043TIP3    H266621   3.352   3.280  10.608  0.1306  1.0335 -2.7394
15044TIP3   OH266622   5.316   4.830   5.651 -0.2963  0.2558  0.0833
15044TIP3    H166623   5.373   4.891   5.696 -1.2101  1.0689  0.1682
15044TIP3    H266624   5.242   4.883   5.621 -1.3493 -0.8791  0.5626
15045TIP3   OH266625   6.488   2.968  15.477  0.0047  0.0200 -0.1388
15045TIP3    H166626   6.419   2.956  15.411  0.0071  1.0069 -0.3370
15045TIP3    H266627   6.451   2.933  15.557 -0.4821 -0.0460 -0.3892
15046TIP3   OH266628   2.639   6.049   2.810 -0.5813 -0.0672 -1.1561
15046TIP3    H166629   2.696   6.052   2.886 -0.4001  0.4105 -1.3082
15046TIP3    H266630   2.560   6.004   2.841  0.1784 -1.4505 -1.1526
15047TIP3   OH266631   3.455   1.424   6.214  0.0589 -0.6963 -0.8831
15047TIP3    H166632   3.510   1.431   6.291  1.9953 -1.3734 -2.1369
15047TIP3    H266633   3.479   1.340   6.175  0.6440  0.5007 -3.2944
15048TIP3   OH266634   5.503   0.274   4.038  0.2200 -0.4088 -0.7140
15048TIP3    H166635   5.529   0.197   3.988  0.5978 -0.9742  0.3263
15048TIP3    H266636   5.555   0.269   4.118  0.2999  0.9696 -0.6615
15049TIP3   OH266637   0.113   1.559   1.149  0.1107  0.6505 -0.2017
15049TIP3    H166638   0.066   1.640   1.127 -1.9305  0.4396  2.8672
15049TIP3    H266639   0.045   1.495   1.166  1.6549 -1.0925 -0.2270
15050TIP3   OH266640   0.390   3.011  15.557 -0.3934  0.0546 -0.7837
15050TIP3    H166641   0.450   3.086  15.549  0.1066  0.2166  2.8964
15050TIP3    H266642   0.438   2.938  15.518  1.7500  0.4652  0.8767
15051TIP3   OH266643   1.284   0.285   0.767  1.2002 -0.6665  0.3254
15051TIP3    H166644   1.213   0.345   0.742  1.3510  0.2307  1.9018
15051TIP3    H266645   1.244   0.227   0.832  1.6919 -0.6866  0.6112
15052TIP3   OH266646   1.333   1.749  16.807  0.3082  0.4008  0.0672
15052TIP3    H166647   1.419   1.764  16.767 -0.2122 -1.0681 -1.6768
15052TIP3    H266648   1.347   1.768  16.900  2.4712  0.3797 -0.2066
15053TIP3   OH266649   1.151   1.535  14.950  0.0638 -0.0017 -0.2684
15053TIP3    H166650   1.155   1.440  14.947  0.3058 -0.0534  1.1210
15053TIP3    H266651   1.242   1.564  14.944  0.0409  0.1054 -0.1274
15054TIP3   OH266652   2.404   1.696   2.721  0.0279 -0.2557  0.2987
15054TIP3    H166653   2.487   1.740   2.704 -0.1634  0.3543  0.8979
15054TIP3    H266654   2.350   1.716   2.644 -0.1023  0.6931  0.6142
15055TIP3   OH266655   2.045   0.747  10.366  1.1340  0.8795  0.0034
15055TIP3    H166656   1.950   0.738  10.369  0.8879 -0.6961 -4.5514
15055TIP3    H266657   2.077   0.678  10.424 -0.5856 -0.4877 -0.5802
15056TIP3   OH266658   3.846   2.005   6.233 -0.4752  0.1950 -0.1395
15056TIP3    H166659   3.888   1.987   6.317 -0.7349  2.2830  0.4816
15056TIP3    H266660   3.753   2.012   6.253 -0.6370 -0.0851 -0.7573
15057TIP3   OH266661   0.539   3.330   5.427 -0.4196  0.2170  0.5285
15057TIP3    H166662   0.580   3.296   5.348 -0.1867  1.3069  0.1694
15057TIP3    H266663   0.457   3.370   5.397 -1.1812 -0.8614  1.0772
15058TIP3   OH266664   6.101   4.168   1.779 -0.4429  0.1943 -0.0595
15058TIP3    H166665   6.171   4.119   1.737 -0.8761  0.8705 -1.6805
15058TIP3    H266666   6.030   4.105   1.788 -0.5826  0.1899 -1.0333
15059TIP3   OH266667   0.801   3.415   1.370 -0.0034  0.5054  0.3890
15059TIP3    H166668   0.778   3.508   1.370  0.0611  0.5216  0.4159
15059TIP3    H266669   0.719   3.370   1.351  0.1583  0.6163 -0.6137
15060TIP3   OH266670   6.388   0.989  13.672 -0.1239  0.1251  0.6455
15060TIP3    H166671   6.427   1.021  13.590 -2.0833  1.1801  0.0249
15060TIP3    H266672   6.437   1.033  13.741  1.4940 -0.6954  0.0617
15061TIP3   OH266673   5.984   5.692   5.621 -0.1083  0.4785  0.6414
15061TIP3    H166674   6.058   5.662   5.568 -0.0306  1.1036  0.3886
15061TIP3    H266675   5.915   5.711   5.557  0.8977  3.9822  0.4120
15062TIP3   OH266676   0.447   1.288  12.386 -0.2294 -0.3556  0.1308
15062TIP3    H166677   0.406   1.343  12.319 -1.1240 -1.0790  0.0748
15062TIP3    H266678   0.377   1.230  12.415  0.2391 -0.2780  1.4564
15063TIP3   OH266679   2.059   3.987  16.930 -0.4363  0.1391 -0.0710
15063TIP3    H166680   2.108   4.048  16.875 -0.8407  0.7048  0.1779
15063TIP3    H266681   2.030   4.041  17.004  1.2390 -0.9073  1.4135
15064TIP3   OH266682   5.275   6.499  14.214 -0.2116  0.4848  0.1067
15064TIP3    H166683   5.241   6.417  14.252  0.4979  0.6825  1.2120
15064TIP3    H266684   5.196   6.547  14.187 -0.7336  0.1970  1.0684
15065TIP3   OH266685   3.345   4.602   2.579 -0.0411 -0.0214 -0.0400
15065TIP3    H166686   3.392   4.672   2.625  0.2493 -1.1459  1.4667
15065TIP3    H266687   3.414   4.546   2.545 -0.2778  0.0311 -0.6082
15066TIP3   OH266688   1.802   0.333   2.356 -0.5314  0.2486  0.2688
15066TIP3    H166689   1.764   0.375   2.278 -0.4176  0.5802  0.3905
15066TIP3    H266690   1.897   0.335   2.340 -0.5448 -0.2480  0.1310
15067TIP3   OH266691   6.693   2.262   2.757 -0.0508 -0.0694 -0.0501
15067TIP3    H166692   6.617   2.292   2.806  0.8861  1.4913  0.4885
15067TIP3    H266693   6.668   2.274   2.665 -0.4060  0.5676  0.1233
15068TIP3   OH266694   6.667   2.282   4.570  0.1843 -0.1480 -0.7553
15068TIP3    H166695   6.658   2.358   4.512  0.1365  1.0605  0.7779
15068TIP3    H266696   6.613   2.303   4.646 -0.1382 -1.9068 -0.4513
15069TIP3   OH266697   3.177   5.303  15.337 -0.7303  0.2627  0.0698
15069TIP3    H166698   3.170   5.279  15.429  0.5002  0.5101  0.2420
15069TIP3    H266699   3.093   5.346  15.317 -0.8313  0.6178  1.1922
15070TIP3   OH266700   1.386   5.933   6.509 -0.1399  0.1713 -0.1064
15070TIP3    H166701   1.434   5.913   6.590 -1.0353 -2.1372 -0.0630
15070TIP3    H266702   1.326   6.003   6.534 -0.6236 -0.7068  1.3478
15071TIP3   OH266703   2.115   0.353  12.612  0.3634  0.0761 -0.1574
15071TIP3    H166704   2.070   0.296  12.674 -0.7795  1.3771  0.2428
15071TIP3    H266705   2.199   0.372  12.654  0.2364 -0.2960  0.2759
15072TIP3   OH266706   2.548   6.772  13.902  0.2998  0.3724 -0.1292
15072TIP3    H166707   2.494   6.790  13.979 -0.3282 -1.6958 -0.0211
15072TIP3    H266708   2.510   6.826  13.833 -0.1249  1.0609  0.6260
15073TIP3   OH266709   4.478   5.723   1.186  0.5596  0.0014  0.7578
15073TIP3    H166710   4.439   5.810   1.177 -0.7203 -0.4885  1.3364
15073TIP3    H266711   4.563   5.739   1.227  0.4367  0.9945  0.6568
15074TIP3   OH266712   2.877   1.010  13.075 -0.1094 -0.3635 -0.1302
15074TIP3    H166713   2.806   1.063  13.039 -0.9544 -0.3740  1.4248
15074TIP3    H266714   2.852   0.920  13.057 -0.3069 -0.3491  0.0637
15075TIP3   OH266715   4.518   4.368   2.360  0.5341 -0.1078  0.1793
15075TIP3    H166716   4.519   4.324   2.275 -0.0246 -0.9858  0.6069
15075TIP3    H266717   4.432   4.408   2.365  0.7022  0.2563  0.1835
15076TIP3   OH266718   0.832   2.823  16.574 -0.5497  0.2179 -0.1715
15076TIP3    H166719   0.890   2.759  16.533  0.0263  1.9533 -2.2447
15076TIP3    H266720   0.870   2.839  16.660  0.9553 -0.1154 -0.7494
15077TIP3   OH266721   5.741   6.147   5.290 -0.1095  0.2413 -0.2048
15077TIP3    H166722   5.702   6.228   5.323 -0.4332 -0.2755  0.7329
15077TIP3    H266723   5.779   6.105   5.367  1.5832  0.3145 -0.9655
15078TIP3   OH266724   5.755   4.497   1.928  0.5066 -0.4076  0.5921
15078TIP3    H166725   5.773   4.458   1.843 -2.7859 -0.8657 -0.0222
15078TIP3    H266726   5.691   4.438   1.969 -0.5298  1.5199  1.9383
15079TIP3   OH266727   3.273   3.439  13.620  0.2638 -0.2665 -0.1871
15079TIP3    H166728   3.334   3.413  13.551  0.9098  2.1135 -0.6108
15079TIP3    H266729   3.196   3.383  13.607 -0.0936  0.8261 -3.5947
15080TIP3   OH266730   5.153   3.150   1.910  0.4858  0.1386  0.4925
15080TIP3    H166731   5.124   3.227   1.958 -1.6949  0.6212 -1.4515
15080TIP3    H266732   5.078   3.124   1.858  1.6649 -2.4038 -0.0962
15081TIP3   OH266733   2.939   4.402   2.902  0.5872 -0.3403 -0.2056
15081TIP3    H166734   3.026   4.441   2.911  0.4604 -0.3296  1.3028
15081TIP3    H266735   2.950   4.333   2.836  1.5664  0.1159 -0.5368
15082TIP3   OH266736   3.131   0.228   0.238  0.3948  0.1039  0.3054
15082TIP3    H166737   3.142   0.149   0.291 -1.1892  1.0666  2.1807
15082TIP3    H266738   3.125   0.299   0.301 -1.4344  1.3248 -1.1214
15083TIP3   OH266739   2.587   4.172   3.924 -0.3033  0.0132  0.2236
15083TIP3    H166740   2.627   4.259   3.926  0.2337 -0.1949 -0.8125
15083TIP3    H266741   2.623   4.131   3.845 -2.5644 -0.1592 -0.8167
15084TIP3   OH266742   3.129   6.684  16.467  0.4272  0.3275 -0.3130
15084TIP3    H166743   3.135   6.597  16.428 -2.0834 -0.8146  1.5751
15084TIP3    H266744   3.035   6.705  16.465  0.5346  1.4783  2.2336
15085TIP3   OH266745   1.662   4.909  16.165  0.3546 -0.1358 -0.1909
15085TIP3    H166746   1.608   4.964  16.223 -0.1474  0.3108 -1.0634
15085TIP3    H266747   1.610   4.829  16.154  0.1812  0.0144 -0.4788
15086TIP3   OH266748   3.063   0.817   1.806  0.0861 -0.6433 -0.3203
15086TIP3    H166749   3.096   0.761   1.735 -0.4853 -0.9523 -0.3475
15086TIP3    H266750   3.142   0.851   1.848  0.4870 -2.0817  0.1764
15087TIP3   OH266751   3.098   1.197   2.866  0.0662 -0.2768  0.2176
15087TIP3    H166752   3.028   1.234   2.812 -0.4548 -0.9866  0.3860
15087TIP3    H266753   3.092   1.103   2.852  1.2865 -0.3178 -0.1010
15088TIP3   OH266754   4.411   4.765   0.799 -0.5407  0.1291 -0.2670
15088TIP3    H166755   4.388   4.768   0.707 -1.6119 -0.1418 -0.0235
15088TIP3    H266756   4.414   4.671   0.820 -1.8254  0.1944  0.3172
15089TIP3   OH266757   2.177   6.395  13.755 -0.1837 -0.2071 -0.6216
15089TIP3    H166758   2.086   6.387  13.783 -0.2540 -0.0825 -0.8168
15089TIP3    H266759   2.201   6.485  13.779 -0.0387 -0.3146 -0.3531
15090TIP3   OH266760   4.509   6.427   3.267  0.1678 -0.5353 -0.1450
15090TIP3    H166761   4.446   6.380   3.213 -0.0018 -2.1154  1.3531
15090TIP3    H266762   4.495   6.519   3.244 -1.5214 -0.9656 -1.0548
15091TIP3   OH266763   4.226   2.329   0.724  0.3730 -0.0272  0.2283
15091TIP3    H166764   4.315   2.356   0.747  0.8775 -1.2638 -0.2277
15091TIP3    H266765   4.230   2.313   0.629 -0.3413 -0.0933  0.2076
15092TIP3   OH266766   3.543   6.143  15.499  0.2373 -0.2011  0.0485
15092TIP3    H166767   3.461   6.099  15.521 -0.4135  0.8294 -0.2362
15092TIP3    H266768   3.556   6.125  15.405  0.2072 -0.1638  0.0373
15093TIP3   OH266769   2.534   3.719  14.101 -0.1200 -0.1199  0.6023
15093TIP3    H166770   2.500   3.761  14.179  0.1733  2.0280 -0.3486
15093TIP3    H266771   2.527   3.786  14.033  1.1751 -1.3532 -0.8180
15094TIP3   OH266772   1.726   5.525   0.945  0.2827 -0.3230 -0.4219
15094TIP3    H166773   1.710   5.471   0.867 -0.7303  0.5070 -0.8137
15094TIP3    H266774   1.693   5.612   0.921 -0.3301 -0.1242  1.0300
15095TIP3   OH266775   1.083   4.150  13.768 -0.5716 -0.2908  0.2874
15095TIP3    H166776   1.011   4.090  13.752 -0.3065 -0.4974 -0.1474
15095TIP3    H266777   1.082   4.163  13.863 -1.0633 -0.4316  0.3057
15096TIP3   OH266778   2.560   5.466  11.517 -0.4894  0.7488  0.6310
15096TIP3    H166779   2.574   5.441  11.609  0.6660  1.0248  0.5441
15096TIP3    H266780   2.465   5.472  11.509 -0.8232 -2.4837  0.9483
15097TIP3   OH266781   3.064   5.193  17.114 -0.0466 -0.4806 -0.0747
15097TIP3    H166782   3.035   5.109  17.151  0.3423 -0.1004  1.1572
15097TIP3    H266783   3.026   5.259  17.172  1.1230  0.1153  0.0514
15098TIP3   OH266784   4.057   4.152  14.313 -0.3350  0.5927  0.0563
15098TIP3    H166785   4.010   4.145  14.396  1.2392  0.0494  0.9421
15098TIP3    H266786   3.988   4.147  14.247 -1.4134 -2.2280  1.2130
15099TIP3   OH266787   3.724   1.519   2.915  0.1359 -0.5139 -0.5389
15099TIP3    H166788   3.645   1.502   2.966  0.9491  0.8076  1.2882
15099TIP3    H266789   3.757   1.432   2.891 -0.2200 -1.2302  1.3527
15100TIP3   OH266790   2.418   4.907   1.221 -0.2668  0.2645  0.3707
15100TIP3    H166791   2.407   5.002   1.230 -1.2342  0.0760  1.4932
15100TIP3    H266792   2.449   4.879   1.307  0.6859 -0.3664 -0.1613
15101TIP3   OH266793   0.612   0.715  14.236 -0.2978  1.0125 -0.3305
15101TIP3    H166794   0.568   0.631  14.241  1.1767  0.1859 -0.6682
15101TIP3    H266795   0.681   0.711  14.303 -0.3528  2.0470 -0.1810
15102TIP3   OH266796   3.096   0.391  15.227  0.5778 -0.1599  0.3027
15102TIP3    H166797   3.108   0.399  15.132 -3.6652 -0.3596 -0.4329
15102TIP3    H266798   3.071   0.479  15.256  1.4253 -0.1981  1.2158
15103TIP3   OH266799   1.479   4.290  16.634 -0.3384  0.1233 -0.3109
15103TIP3    H166800   1.483   4.242  16.551  1.3097 -0.2481 -0.0365
15103TIP3    H266801   1.551   4.255  16.686  0.3945  2.2976  0.2231
15104TIP3   OH266802   6.198   0.556  13.637 -0.6842 -0.2267 -0.1679
15104TIP3    H166803   6.256   0.494  13.681  0.5465  0.3988 -0.8883
15104TIP3    H266804   6.243   0.579  13.556 -1.6359  0.7775 -0.4430
15105TIP3   OH266805   4.694   2.094   2.367  0.8790 -0.0174 -0.1509
15105TIP3    H166806   4.785   2.088   2.396  0.7891 -1.4797 -0.1015
15105TIP3    H266807   4.676   2.008   2.328 -0.1352  0.6441 -1.2050
15106TIP3   OH266808   5.765   2.089   4.925  0.1211 -0.4146  0.6144
15106TIP3    H166809   5.749   2.056   4.836 -0.1843 -0.8905  0.8466
15106TIP3    H266810   5.855   2.064   4.944  0.5992  0.7153 -0.0058
15107TIP3   OH266811   6.025   0.691   5.188  0.2819  0.8167  0.0936
15107TIP3    H166812   6.119   0.695   5.206 -0.0424  0.4395  2.1551
15107TIP3    H266813   5.989   0.767   5.232 -0.1998  2.2163 -2.5108
15108TIP3   OH266814   4.198   1.047  15.159 -0.2964  0.7204  0.5884
15108TIP3    H166815   4.264   1.055  15.090 -1.3240 -1.3628 -0.7370
15108TIP3    H266816   4.221   0.965  15.203 -2.6267 -0.7499 -0.7337
15109TIP3   OH266817   1.493   2.110  16.038 -0.2788  0.3059 -0.0782
15109TIP3    H166818   1.414   2.056  16.034 -1.5578  2.1035 -0.8206
15109TIP3    H266819   1.556   2.066  15.981 -0.4113 -1.6252  1.2036
15110TIP3   OH266820   6.106   5.081  12.469 -0.2931 -0.2779 -0.0470
15110TIP3    H166821   6.150   5.139  12.531 -2.4472 -0.0325  1.3795
15110TIP3    H266822   6.159   5.001  12.468  0.5144  0.2267  1.0791
15111TIP3   OH266823   5.320   5.876   2.631 -0.1757  0.7085  0.2050
15111TIP3    H166824   5.235   5.913   2.607 -0.5945 -0.4060 -0.0828
15111TIP3    H266825   5.366   5.948   2.675 -1.5274  1.1399  0.9660
15112TIP3   OH266826   3.139   0.978  11.136 -0.5468  0.2737  0.0168
15112TIP3    H166827   3.215   1.005  11.186  0.3952 -0.7138 -0.8276
15112TIP3    H266828   3.150   0.884  11.123 -1.7006  0.1804 -0.4713
15113TIP3   OH266829   1.781   0.294  14.382 -0.4337 -0.0825  0.0915
15113TIP3    H166830   1.717   0.227  14.406 -1.5215  0.6493 -0.6575
15113TIP3    H266831   1.755   0.321  14.294  0.9422  0.2199 -0.2464
15114TIP3   OH266832   3.885   5.768   2.181  0.2463  0.0143  0.0999
15114TIP3    H166833   3.930   5.743   2.262  1.2006  1.8393  0.1926
15114TIP3    H266834   3.811   5.708   2.175  0.9319 -1.0520  1.5975
15115TIP3   OH266835   3.365   3.475   5.313  0.1274 -0.0845 -0.0541
15115TIP3    H166836   3.286   3.445   5.358  0.1745  1.3350  1.0562
15115TIP3    H266837   3.370   3.568   5.335  0.8203  0.3945 -2.0443
15116TIP3   OH266838   2.283   2.033  12.636  0.3734  0.0056  0.1808
15116TIP3    H166839   2.251   2.034  12.726  0.3499  0.1050  0.1701
15116TIP3    H266840   2.366   1.985  12.641  0.2721 -0.1693  0.2218
15117TIP3   OH266841   3.572   2.251   1.291 -0.5374 -0.2510 -0.1887
15117TIP3    H166842   3.482   2.219   1.291 -0.6252 -0.0355  0.6988
15117TIP3    H266843   3.619   2.189   1.235 -1.1403 -0.6400 -0.2793
15118TIP3   OH266844   1.901   1.281  15.879 -0.4058 -0.5559 -0.1070
15118TIP3    H166845   1.898   1.372  15.849  3.2960 -0.3856 -0.3533
15118TIP3    H266846   1.888   1.287  15.974  1.5617  0.4922  0.1377
15119TIP3   OH266847   3.169   3.294   4.168 -0.1936 -0.1677 -0.1842
15119TIP3    H166848   3.088   3.343   4.182  0.0279 -0.0249  0.6966
15119TIP3    H266849   3.143   3.217   4.117 -0.6682  0.4868 -0.9458
15120TIP3   OH266850   4.823   4.841   5.207  0.2200  0.2577 -0.4352
15120TIP3    H166851   4.770   4.917   5.231  0.4769  0.1286  0.5489
15120TIP3    H266852   4.913   4.869   5.219  0.3099 -0.8268  2.0080
15121TIP3   OH266853   5.208   4.472   4.962  0.2969 -0.1172  0.1786
15121TIP3    H166854   5.123   4.512   4.945 -0.1049 -0.9610  0.1645
15121TIP3    H266855   5.198   4.427   5.046  0.1568 -1.7102 -0.6486
15122TIP3   OH266856   4.218   1.829   4.847 -0.3502  0.0729 -0.2284
15122TIP3    H166857   4.222   1.744   4.891 -1.0049 -0.8260 -1.8317
15122TIP3    H266858   4.141   1.872   4.885 -0.7722 -0.5904 -0.3170
15123TIP3   OH266859   3.115   2.372   5.122 -0.4729 -0.5710  0.1577
15123TIP3    H166860   3.198   2.333   5.147 -0.5645 -0.2183  1.0608
15123TIP3    H266861   3.055   2.351   5.194 -0.9320 -0.0934 -0.0690
15124TIP3   OH266862   3.453   2.296   3.217  0.1746 -0.4547  0.0552
15124TIP3    H166863   3.523   2.339   3.168 -1.8811  2.6527 -0.4782
15124TIP3    H266864   3.417   2.365   3.273 -2.1793 -1.9858  0.5936
15125TIP3   OH266865   4.116   4.186  15.065  0.2351  0.2681 -0.1061
15125TIP3    H166866   4.167   4.245  15.009 -0.0842 -0.9186 -1.7497
15125TIP3    H266867   4.025   4.212  15.050  0.0648 -0.8557 -1.1632
15126TIP3   OH266868   0.442   6.104  16.376 -0.3506  0.3263 -0.2125
15126TIP3    H166869   0.365   6.129  16.427 -0.8128 -1.8049  0.2232
15126TIP3    H266870   0.480   6.187  16.347 -1.6583  1.4956  1.2660
15127TIP3   OH266871   0.286   3.173   6.018 -0.2054 -0.7243  0.6200
15127TIP3    H166872   0.254   3.193   6.106  0.2898  2.3036  0.2223
15127TIP3    H266873   0.373   3.212   6.015 -0.8798  0.8115 -1.7118
15128TIP3   OH266874   2.687   4.964   1.575 -0.5517  0.0358  0.5352
15128TIP3    H166875   2.770   4.919   1.592 -0.2868  0.1042 -0.4964
15128TIP3    H266876   2.704   5.055   1.602  0.1068  0.3147 -0.7085
15129TIP3   OH266877   0.670   4.154  14.395  0.0778 -0.4506 -0.0334
15129TIP3    H166878   0.704   4.154  14.306  0.3284 -2.3739  0.0058
15129TIP3    H266879   0.687   4.065  14.427 -0.9514 -0.1217  1.5679
15130TIP3   OH266880   5.840   3.777  17.055  0.3092 -0.2307  0.2235
15130TIP3    H166881   5.774   3.755  16.989 -1.0587 -0.8046  1.6921
15130TIP3    H266882   5.836   3.705  17.118  2.0119 -0.0199  0.6305
15131TIP3   OH266883   5.784   4.478   0.252 -0.3774  0.2953  0.1664
15131TIP3    H166884   5.810   4.386   0.263  0.1694  0.4995  0.6902
15131TIP3    H266885   5.760   4.486   0.160  1.3288  0.0389 -0.3357
15132TIP3   OH266886   1.643   1.010   5.299  0.3757  0.4044 -0.4893
15132TIP3    H166887   1.561   1.043   5.261  0.3401  0.6952 -0.1681
15132TIP3    H266888   1.697   1.088   5.310  1.1171  0.0839 -1.6890
15133TIP3   OH266889   0.814   4.454   5.862 -0.4943  0.6890  0.0536
15133TIP3    H166890   0.848   4.543   5.877 -0.1193  0.9006 -1.7506
15133TIP3    H266891   0.889   4.407   5.824 -0.7034 -0.4096  0.9531
15134TIP3   OH266892   2.882   3.640   1.771 -0.2895  0.0633 -0.3144
15134TIP3    H166893   2.963   3.683   1.745 -0.9025  0.7566 -1.1355
15134TIP3    H266894   2.907   3.583   1.843  0.7795  0.8800 -0.0146
15135TIP3   OH266895   2.147   3.456   0.430  0.0659 -0.4530  0.3618
15135TIP3    H166896   2.065   3.505   0.435  1.1587  1.4311  0.5697
15135TIP3    H266897   2.120   3.364   0.430 -2.0403  0.1227  0.2336
15136TIP3   OH266898   1.738   4.525  11.363  0.1612 -0.2873 -0.0126
15136TIP3    H166899   1.706   4.435  11.356 -0.5226 -0.1245  0.8274
15136TIP3    H266900   1.758   4.550  11.273 -1.4467 -0.6318 -0.5081
15137TIP3   OH266901   4.845   0.067   5.818  0.1548  0.3807  0.1779
15137TIP3    H166902   4.759   0.040   5.850  0.0591  0.7594  0.2486
15137TIP3    H266903   4.825   0.120   5.740  0.3931 -0.7309 -0.6604
15138TIP3   OH266904   5.061   6.167  14.557  0.0780 -0.6995  0.0204
15138TIP3    H166905   4.974   6.169  14.517  0.0142 -0.0805  0.1717
15138TIP3    H266906   5.076   6.075  14.578 -0.2522 -0.9130 -0.6337
15139TIP3   OH266907   4.553   3.356  16.699 -0.5999  0.2335  0.0613
15139TIP3    H166908   4.500   3.345  16.621 -1.1346 -0.6338  0.5342
15139TIP3    H266909   4.522   3.289  16.759  0.5181  0.1994  0.6323
15140TIP3   OH266910   5.151   4.706  11.333 -0.5127 -0.2032 -0.2392
15140TIP3    H166911   5.201   4.661  11.265  0.0083 -0.4453  0.2947
15140TIP3    H266912   5.217   4.748  11.388 -0.8233 -1.3466  1.0489
15141TIP3   OH266913   5.322   4.653  16.290 -0.2673  0.0868 -0.8636
15141TIP3    H166914   5.309   4.747  16.283 -0.0327  0.0221 -2.6267
15141TIP3    H266915   5.409   4.637  16.252 -0.7792 -0.9374 -1.6760
15142TIP3   OH266916   6.761   1.839   2.052 -0.5350 -0.6711 -0.5513
15142TIP3    H166917   6.743   1.931   2.033  2.2364 -0.1696 -1.0772
15142TIP3    H266918   6.776   1.799   1.967  0.8021 -1.0147 -0.1662
15143TIP3   OH266919   0.666   4.306   1.265  0.8504  0.9351  0.7529
15143TIP3    H166920   0.685   4.343   1.178  1.3693 -1.2445 -0.1399
15143TIP3    H266921   0.583   4.346   1.291  1.0142  2.1201 -0.4569
15144TIP3   OH266922   1.515   4.798   5.949 -0.2626  0.3033  0.4755
15144TIP3    H166923   1.493   4.880   5.907  1.7404  1.1848  1.0212
15144TIP3    H266924   1.609   4.787   5.934 -0.3782 -1.6542  0.8294
15145TIP3   OH266925   5.520   0.543   3.286  0.4118 -0.0845 -0.5872
15145TIP3    H166926   5.568   0.460   3.291  0.4340 -0.0680 -0.5184
15145TIP3    H266927   5.588   0.609   3.271  0.3697 -0.1057 -0.8684
15146TIP3   OH266928   1.658   5.963   3.073 -0.1902  0.0631 -0.0503
15146TIP3    H166929   1.664   5.951   3.168  0.8315 -3.2927 -0.4406
15146TIP3    H266930   1.604   5.890   3.043 -0.8339  1.2983 -2.0626
15147TIP3   OH266931   3.719   3.044  15.331  0.0575  0.0520  0.0358
15147TIP3    H166932   3.688   3.011  15.246  0.4296  0.8673 -0.4316
15147TIP3    H266933   3.648   3.025  15.391 -0.0572 -0.8944 -0.3730
15148TIP3   OH266934   5.025   2.684  16.219 -0.1656 -0.2343  0.0259
15148TIP3    H166935   4.977   2.685  16.301  0.8382  0.5381  0.6352
15148TIP3    H266936   5.113   2.656  16.244 -0.0005 -0.5340 -0.8769
15149TIP3   OH266937   3.546   1.653  15.882  0.3752  0.4014  0.1089
15149TIP3    H166938   3.520   1.593  15.952 -0.4502  1.5659  0.8430
15149TIP3    H266939   3.634   1.683  15.908  0.4280  0.1803  0.1900
15150TIP3   OH266940   5.843   2.577   2.637  0.5028 -0.1923 -0.3545
15150TIP3    H166941   5.877   2.497   2.599  0.2712  0.5986 -2.3492
15150TIP3    H266942   5.886   2.647   2.588 -1.2538  0.8557 -0.4979
15151TIP3   OH266943   5.739   3.116   5.301 -0.2659 -0.5057  0.0971
15151TIP3    H166944   5.732   3.021   5.307  0.0136 -0.8992 -3.5289
15151TIP3    H266945   5.833   3.133   5.294 -0.3946 -0.3002 -1.7543
15152TIP3   OH266946   5.913   2.577   3.637  0.1491 -0.6339 -0.1456
15152TIP3    H166947   5.853   2.540   3.572 -0.3141 -2.4515  1.2188
15152TIP3    H266948   5.967   2.503   3.665  1.2391  0.3905  0.5794
15153TIP3   OH266949   1.718   5.333   3.794  1.1044  0.7253  0.1158
15153TIP3    H166950   1.686   5.249   3.762  1.8423  0.7989 -0.8682
15153TIP3    H266951   1.679   5.342   3.881  0.6313 -0.4045  0.0402
15154TIP3   OH266952   0.213   4.702  10.743 -0.5528  0.2566 -0.0530
15154TIP3    H166953   0.260   4.785  10.753 -0.6185  0.1624  1.3087
15154TIP3    H266954   0.121   4.727  10.737 -0.5880  0.2883  0.5319
15155TIP3   OH266955   3.881   6.533  10.955 -0.1477  0.0985 -1.0220
15155TIP3    H166956   3.789   6.543  10.932 -0.2969 -0.1196 -0.5169
15155TIP3    H266957   3.884   6.456  11.011 -0.0018  1.3758  0.8240
15156TIP3   OH266958   6.475   1.432   1.478 -0.0690  0.5466 -0.3530
15156TIP3    H166959   6.517   1.362   1.429 -1.0154 -0.3093  0.0297
15156TIP3    H266960   6.382   1.411   1.477 -0.2482  1.1588  0.7700
15157TIP3   OH266961   2.683   1.468  11.445 -0.1591 -0.5461  0.2147
15157TIP3    H166962   2.743   1.539  11.467 -0.6308 -0.4242  1.2010
15157TIP3    H266963   2.680   1.414  11.524  0.2290 -1.7046 -0.5444
15158TIP3   OH266964   0.543   6.719   1.007  0.7761  0.3738  0.3159
15158TIP3    H166965   0.548   6.756   0.919 -2.2412  0.0773 -0.0755
15158TIP3    H266966   0.613   6.653   1.009 -0.6075 -1.4354 -2.8313
15159TIP3   OH266967   1.548   0.361  13.067  0.0081  0.3135 -0.0091
15159TIP3    H166968   1.456   0.341  13.051  0.9248 -4.1037 -0.8176
15159TIP3    H266969   1.583   0.383  12.981 -0.0278  0.9063  0.1218
15160TIP3   OH266970   5.423   3.128  11.842  0.6548  0.0189  0.4046
15160TIP3    H166971   5.424   3.198  11.776  1.0948 -1.9862 -1.8550
15160TIP3    H266972   5.481   3.061  11.806 -0.2205 -1.7738  2.1784
15161TIP3   OH266973   6.412   3.708   3.011 -0.2329 -0.3417  0.2528
15161TIP3    H166974   6.476   3.778   3.022  1.8402 -2.3446  2.0608
15161TIP3    H266975   6.374   3.696   3.098 -1.0508 -1.0347 -0.1765
15162TIP3   OH266976   3.690   6.655   0.878 -0.3311  0.3196  0.1809
15162TIP3    H166977   3.599   6.681   0.885  0.0600  1.7846  0.0777
15162TIP3    H266978   3.723   6.700   0.800  1.1061  1.8159  1.5766
15163TIP3   OH266979   2.391   4.058  16.203 -0.0239  0.5316 -0.0474
15163TIP3    H166980   2.351   4.139  16.171 -0.6115 -0.1513 -1.1306
15163TIP3    H266981   2.434   4.021  16.126 -0.7029 -0.7277  0.1424
15164TIP3   OH266982   5.713   2.970  12.316 -0.6603  0.0957 -0.0630
15164TIP3    H166983   5.618   2.965  12.299 -0.5323 -3.9621 -0.7059
15164TIP3    H266984   5.749   3.006  12.235 -1.5390 -0.3466 -0.6793
15165TIP3   OH266985   6.267   2.164  15.854  0.3103 -0.1739  0.2186
15165TIP3    H166986   6.254   2.070  15.837  0.8219 -0.1729 -0.2073
15165TIP3    H266987   6.254   2.174  15.948  0.8513 -0.7777  0.3617
15166TIP3   OH266988   4.750   4.063  12.792  0.2132  0.3356  0.1081
15166TIP3    H166989   4.797   4.070  12.875 -0.9813  0.1494  0.8229
15166TIP3    H266990   4.791   3.989  12.746  2.3943  1.8601 -0.5059
15167TIP3   OH266991   3.909   2.116   0.188  0.1278  0.2709 -1.1858
15167TIP3    H166992   4.000   2.098   0.164  0.2890 -0.3563 -0.1501
15167TIP3    H266993   3.913   2.196   0.240  0.1501  0.0058 -0.7733
15168TIP3   OH266994   3.150   3.607  12.477  0.0023  0.2755  0.4113
15168TIP3    H166995   3.205   3.642  12.548 -0.5523  1.0926  0.4459
15168TIP3    H266996   3.112   3.528  12.513  1.5838 -0.6319  0.2021
15169TIP3   OH266997   4.203   5.201   3.225  0.3436 -0.0104  0.1232
15169TIP3    H166998   4.293   5.172   3.206  0.1991 -1.1610  1.1290
15169TIP3    H266999   4.207   5.296   3.215  1.1687 -0.1852 -1.8884
15170TIP3   OH267000   0.351   4.499  16.167  0.3734  0.3463 -0.1089
15170TIP3    H167001   0.329   4.544  16.086 -0.7399  0.0181 -0.0078
15170TIP3    H267002   0.394   4.418  16.139  0.6902  0.5982 -0.3468
15171TIP3   OH267003   0.646   5.452   2.243 -0.6008  0.2958  0.0430
15171TIP3    H167004   0.616   5.528   2.292 -0.6196  0.0850  0.3620
15171TIP3    H267005   0.577   5.387   2.255 -0.0511 -0.1716  0.7358
15172TIP3   OH267006   4.940   6.603   1.191 -0.3602  0.0611 -0.3860
15172TIP3    H167007   4.971   6.679   1.143  2.3349 -0.8604 -0.2697
15172TIP3    H267008   4.974   6.615   1.280 -1.1969 -0.5552  0.0299
15173TIP3   OH267009   4.183   6.295  17.025 -0.2697  0.1064  0.0055
15173TIP3    H167010   4.170   6.350  16.948  1.9900 -0.1276 -0.6077
15173TIP3    H267011   4.270   6.257  17.013 -0.1015 -0.4141  2.3901
15174TIP3   OH267012   0.754   4.937   2.539 -0.0551 -0.1488  0.3031
15174TIP3    H167013   0.782   4.986   2.617 -3.2397  2.5380 -0.0115
15174TIP3    H267014   0.693   4.873   2.573 -1.4804  1.0543  0.1030
15175TIP3   OH267015   4.084   2.778  13.205 -0.1805 -0.0256 -0.2520
15175TIP3    H167016   4.097   2.873  13.197 -0.4448 -0.0598 -1.1370
15175TIP3    H267017   4.145   2.752  13.274  0.7560  0.6083 -0.8208
15176TIP3   OH267018   3.023   5.764  13.748  0.4501 -0.7218  0.0937
15176TIP3    H167019   2.969   5.836  13.783 -0.5511 -1.2620 -0.2985
15176TIP3    H267020   3.066   5.727  13.825  2.5722  1.5228  0.1126
15177TIP3   OH267021   1.087   4.699  13.697  0.9236  0.6626 -0.1355
15177TIP3    H167022   1.087   4.724  13.789  0.3240 -0.9947  0.3398
15177TIP3    H267023   1.050   4.611  13.695  5.3462 -1.4813 -1.3351
15178TIP3   OH267024   6.322   6.768  14.638  0.4149  0.2690  0.1326
15178TIP3    H167025   6.352   6.829  14.705 -0.6106  0.3616  0.5325
15178TIP3    H267026   6.304   6.822  14.561  1.7938  0.1362 -0.3118
15179TIP3   OH267027   2.324   5.256   0.253  0.0415 -0.1105 -0.0543
15179TIP3    H167028   2.315   5.163   0.236 -1.9259 -0.3012  1.6260
15179TIP3    H267029   2.267   5.298   0.189 -1.7028 -0.3403  1.2799
15180TIP3   OH267030   3.042   4.026   5.598  0.2127  0.3177 -0.3253
15180TIP3    H167031   2.996   3.954   5.554 -0.0646  1.0050 -1.1944
15180TIP3    H267032   3.135   4.005   5.587  0.1334 -0.2483  0.0232
15181TIP3   OH267033   2.696   1.524   2.755 -0.5099  0.0121  0.4490
15181TIP3    H167034   2.652   1.501   2.837  0.8813 -0.0324  1.2156
15181TIP3    H267035   2.656   1.606   2.729 -0.2815  0.5583  1.7359
15182TIP3   OH267036   2.931   6.467   3.875 -0.3018  0.1384 -0.3695
15182TIP3    H167037   2.949   6.425   3.959  0.3886 -2.0467 -1.5292
15182TIP3    H267038   2.993   6.427   3.814 -1.1725  1.2118 -2.0426
15183TIP3   OH267039   4.361   1.107  13.400  0.4067  0.1144 -0.7100
15183TIP3    H167040   4.456   1.106  13.394  0.4048  1.0338 -1.0877
15183TIP3    H267041   4.330   1.053  13.328  0.6474 -1.0578  0.0386
15184TIP3   OH267042   6.173   1.504   1.323  0.0447  0.4307  0.1758
15184TIP3    H167043   6.159   1.506   1.228 -0.7310  0.0816  0.2793
15184TIP3    H267044   6.177   1.596   1.349 -0.9594  0.5381 -0.0240
15185TIP3   OH267045   3.189   0.354   4.156  0.4092  0.1109  0.2131
15185TIP3    H167046   3.220   0.311   4.235  0.6387 -0.6778 -0.2999
15185TIP3    H267047   3.161   0.283   4.098 -2.7372  0.7488  0.7624
15186TIP3   OH267048   3.536   5.048   5.373 -0.3552  0.2573  0.7844
15186TIP3    H167049   3.588   4.968   5.372 -1.1263 -0.4679 -3.4594
15186TIP3    H267050   3.593   5.114   5.410  1.4006 -1.6473  1.6698
15187TIP3   OH267051   2.347   2.549   1.638 -0.0877  0.0995 -0.0055
15187TIP3    H167052   2.387   2.499   1.567  0.1900  1.1700 -0.6242
15187TIP3    H267053   2.407   2.622   1.652 -0.8546  0.6710  0.3634
15188TIP3   OH267054   4.453   5.817  13.797  0.1286  0.7197  0.2880
15188TIP3    H167055   4.369   5.843  13.835  0.2290  0.7198  0.5067
15188TIP3    H267056   4.507   5.896  13.804 -0.0084  0.8759 -0.3026
15189TIP3   OH267057   1.534   4.541  13.084 -0.3323 -0.4056 -0.2323
15189TIP3    H167058   1.559   4.473  13.022 -1.6332 -0.7211 -0.4434
15189TIP3    H267059   1.541   4.499  13.170  2.6070  0.3685  0.0239
15190TIP3   OH267060   3.935   5.514  11.760 -0.3999  0.2339 -0.0958
15190TIP3    H167061   3.929   5.501  11.855  0.7674  0.8203  0.0741
15190TIP3    H267062   3.844   5.516  11.731 -0.8018  0.7690  1.1273
15191TIP3   OH267063   5.972   3.792  16.732 -0.3964  0.0153 -0.7106
15191TIP3    H167064   5.877   3.802  16.737 -0.6517 -1.7607 -1.0507
15191TIP3    H267065   5.989   3.710  16.779  0.8623 -0.1082 -1.3436
15192TIP3   OH267066   2.391   4.737   0.566 -0.4344  0.3101 -0.2502
15192TIP3    H167067   2.456   4.721   0.634  0.0241 -1.0300 -0.9682
15192TIP3    H267068   2.407   4.828   0.538 -0.2269  0.6659  0.9699
15193TIP3   OH267069   5.859   5.954   3.540 -0.0844 -0.6332 -0.1342
15193TIP3    H167070   5.923   5.931   3.473 -0.2253  1.0860 -0.9131
15193TIP3    H267071   5.778   5.912   3.511 -0.3465  0.7310 -1.5352
15194TIP3   OH267072   1.539   4.451   1.485 -0.4533 -0.1323 -0.2882
15194TIP3    H167073   1.555   4.421   1.396  0.1959 -0.3051 -0.1179
15194TIP3    H267074   1.622   4.436   1.531 -0.6009  0.4775  0.1976
15195TIP3   OH267075   0.147   1.221   5.252  0.5483 -0.0037 -0.3789
15195TIP3    H167076   0.211   1.172   5.199 -0.2895  0.0985 -1.5292
15195TIP3    H267077   0.133   1.167   5.329  2.9043  0.5292  0.5111
15196TIP3   OH267078   0.512   2.762   5.931 -0.0499 -0.6006  0.1737
15196TIP3    H167079   0.433   2.816   5.934 -0.5340 -1.3060  0.4077
15196TIP3    H267080   0.501   2.699   6.002  1.0062 -0.3366  0.5861
15197TIP3   OH267081   2.272   4.725  16.925  0.1341 -1.1452  0.3532
15197TIP3    H167082   2.190   4.771  16.913  1.3751  1.1324 -0.0078
15197TIP3    H267083   2.306   4.758  17.008  2.6766  1.4765 -1.5154
15198TIP3   OH267084   5.674   4.938   4.178 -0.2426 -0.4689 -0.0837
15198TIP3    H167085   5.665   4.890   4.261  1.8371 -0.7869  0.0185
15198TIP3    H267086   5.683   4.870   4.112 -1.8161 -0.2139 -0.6176
15199TIP3   OH267087   6.769   4.148  11.163  0.1305  0.5286 -0.4291
15199TIP3    H167088   6.798   4.068  11.119  0.4259  0.0769  0.5534
15199TIP3    H267089   6.700   4.182  11.107 -0.6364 -0.9037 -0.4184
15200TIP3   OH267090   2.852   5.413   5.865 -0.0894  0.4999 -0.3909
15200TIP3    H167091   2.893   5.354   5.928  0.5877 -0.4803 -1.7024
15200TIP3    H267092   2.760   5.414   5.890  0.0400 -0.4401  0.1704
15201TIP3   OH267093   3.834   4.353  11.821  0.0368  0.2212  0.6250
15201TIP3    H167094   3.795   4.389  11.741  1.2157 -0.7680 -0.4292
15201TIP3    H267095   3.763   4.302  11.861 -0.6625  1.0012  0.3924
15202TIP3   OH267096   6.223   1.662   2.554  0.8317 -0.0535 -0.8461
15202TIP3    H167097   6.282   1.731   2.527  1.5291  0.2022  1.1301
15202TIP3    H267098   6.276   1.606   2.611 -1.1778  1.4363  2.9064
15203TIP3   OH267099   2.003   2.799   1.465  0.1660  0.3119 -0.1370
15203TIP3    H167100   1.968   2.741   1.397  1.5903 -0.1588 -0.5076
15203TIP3    H267101   1.942   2.790   1.538 -0.2558 -0.7815 -0.6007
15204TIP3   OH267102   4.505   4.045  12.981 -0.1661 -0.5347 -0.3526
15204TIP3    H167103   4.418   4.032  12.942 -0.1843  0.2087 -0.5760
15204TIP3    H267104   4.561   4.069  12.908  0.4631 -1.9376 -0.3644
15205TIP3   OH267105   3.844   4.152  12.991  0.0497 -0.6203 -0.2579
15205TIP3    H167106   3.780   4.147  13.062  0.5477  3.7291  0.7533
15205TIP3    H267107   3.928   4.137  13.034  0.5433  3.7997  0.7058
15206TIP3   OH267108   3.150   3.775   0.374  0.3021  0.0206 -0.4067
15206TIP3    H167109   3.062   3.765   0.411 -0.5912  1.1746 -2.0592
15206TIP3    H267110   3.135   3.782   0.280  2.2315 -0.2485 -0.7717
15207TIP3   OH267111   0.408   3.286  16.272 -0.7312  0.3900 -0.5954
15207TIP3    H167112   0.441   3.371  16.301  1.5041 -0.9558  1.2116
15207TIP3    H267113   0.469   3.260  16.202  0.3215 -0.8191  0.7044
15208TIP3   OH267114   1.304   1.377   5.662  0.6514 -0.0616  0.0572
15208TIP3    H167115   1.260   1.408   5.583 -0.2774 -1.5534 -0.0515
15208TIP3    H267116   1.359   1.450   5.689  1.3289  0.3257 -2.2023
15209TIP3   OH267117   0.610   4.802   2.155 -0.4354  0.1659 -0.9557
15209TIP3    H167118   0.675   4.870   2.140 -0.5588  0.6841  0.6147
15209TIP3    H267119   0.528   4.849   2.165 -0.4124 -0.0871  0.8376
15210TIP3   OH267120   5.733   5.163   1.577 -0.0373  0.4943  0.0080
15210TIP3    H167121   5.646   5.154   1.615 -0.9778 -1.7752 -2.3748
15210TIP3    H267122   5.723   5.229   1.509 -0.2831 -0.6345 -1.0937
15211TIP3   OH267123   5.123   2.633   0.201 -0.0316 -0.0349  0.2228
15211TIP3    H167124   5.090   2.664   0.117 -1.6449 -1.5914  0.2167
15211TIP3    H267125   5.100   2.540   0.202  1.0288 -0.3153  1.8961
15212TIP3   OH267126   6.447   4.062  14.854 -0.6180  0.0690  0.5108
15212TIP3    H167127   6.456   4.049  14.948  1.5454 -0.1296  0.3254
15212TIP3    H267128   6.370   4.011  14.830 -1.9952  1.1510  2.3323
15213TIP3   OH267129   3.532   1.149  15.034  0.0840  0.2321  0.2102
15213TIP3    H167130   3.608   1.198  15.003  1.0447 -0.4455  1.4061
15213TIP3    H267131   3.457   1.203  15.009  0.8912  0.5988 -1.5800
15214TIP3   OH267132   2.257   5.061  12.140 -0.1367  0.2824 -0.3692
15214TIP3    H167133   2.164   5.043  12.155 -0.3620  0.9983 -0.8667
15214TIP3    H267134   2.265   5.067  12.044  0.3922  0.3481 -0.3223
15215TIP3   OH267135   0.923   4.152   6.057 -0.1029 -0.1224 -0.2897
15215TIP3    H167136   0.908   4.158   5.963 -0.2605 -0.3057 -0.2770
15215TIP3    H267137   0.973   4.070   6.068 -0.0830 -0.1007 -0.2150
15216TIP3   OH267138   2.384   0.701   4.207  0.1301 -0.1188 -0.4456
15216TIP3    H167139   2.476   0.679   4.196  0.0381 -0.6402 -0.2209
15216TIP3    H267140   2.369   0.775   4.148  0.3332 -0.9872 -1.6470
15217TIP3   OH267141   1.451   5.399  14.959  0.3791  0.5946  0.0385
15217TIP3    H167142   1.457   5.309  14.990  0.7027 -0.0222 -1.6851
15217TIP3    H267143   1.371   5.433  14.998  1.1201  0.1468  2.0754
15218TIP3   OH267144   6.257   0.904  14.249 -0.2817  0.0986 -1.1171
15218TIP3    H167145   6.292   0.816  14.262 -0.6838  0.3630  2.8860
15218TIP3    H267146   6.164   0.890  14.230 -0.5559 -0.3757  0.4546
15219TIP3   OH267147   0.999   6.035  14.738 -0.1908  0.0976 -0.3092
15219TIP3    H167148   1.036   6.058  14.654  3.5975  0.3647  1.2431
15219TIP3    H267149   0.999   6.117  14.788  0.3258 -0.5655  0.8202
15220TIP3   OH267150   6.650   2.976   0.365 -0.2142 -0.6523  0.7105
15220TIP3    H167151   6.607   2.967   0.280  0.5044  1.3849  0.0734
15220TIP3    H267152   6.740   2.947   0.350  0.0126  0.0660  0.6722
15221TIP3   OH267153   0.250   3.352  16.673 -0.0363  0.6210  0.1690
15221TIP3    H167154   0.272   3.357  16.766  0.7282  0.7396 -0.0084
15221TIP3    H267155   0.287   3.269  16.644  1.0508  1.2695 -0.3517
15222TIP3   OH267156   1.534   1.443   0.993 -0.3760  0.2716  0.9786
15222TIP3    H167157   1.529   1.353   1.025  2.0786 -0.0840  0.5388
15222TIP3    H267158   1.501   1.439   0.903  0.7034 -0.4233  0.5983
15223TIP3   OH267159   2.714   5.168  16.636  0.2599 -0.1574  0.5588
15223TIP3    H167160   2.643   5.227  16.611  0.0838 -0.2316  0.8755
15223TIP3    H267161   2.784   5.186  16.573  0.0354  0.0600  0.3714
15224TIP3   OH267162   5.336   2.710   0.369  0.3428 -0.2894  0.1434
15224TIP3    H167163   5.340   2.652   0.444  2.3926 -1.4979 -0.8067
15224TIP3    H267164   5.260   2.680   0.319  0.0118 -0.6177  0.8388
15225TIP3   OH267165   1.051   4.039   1.067  0.0588 -0.1744 -0.4907
15225TIP3    H167166   1.073   4.116   1.014 -1.9096  0.1628 -0.8851
15225TIP3    H267167   0.966   4.059   1.105  0.7174 -1.0733  1.5905
15226TIP3   OH267168   1.417   1.407  13.610  0.4599 -0.3582 -0.6796
15226TIP3    H167169   1.481   1.375  13.546 -0.7538 -1.3854 -1.4273
15226TIP3    H267170   1.359   1.464  13.561 -1.4430 -2.3970 -0.9437
15227TIP3   OH267171   1.879   1.386   4.009  0.2788 -0.7082  0.9925
15227TIP3    H167172   1.886   1.465   3.956  1.0275 -2.3932 -1.5684
15227TIP3    H267173   1.789   1.385   4.040 -0.3565  0.0743 -0.7441
15228TIP3   OH267174   0.635   0.200  15.272 -0.1309 -0.6258  0.0775
15228TIP3    H167175   0.635   0.153  15.189  1.5951 -2.7163  1.1537
15228TIP3    H267176   0.727   0.205  15.297 -0.6404 -0.5519  2.1291
15229TIP3   OH267177   4.558   4.682  15.784  0.0298  0.4018 -0.2201
15229TIP3    H167178   4.513   4.759  15.750  0.4031  0.4320 -0.6679
15229TIP3    H267179   4.496   4.642  15.844 -0.6487  0.3555 -0.9384
15230TIP3   OH267180   3.234   2.150   4.262 -0.0648 -0.1955 -0.0775
15230TIP3    H167181   3.194   2.214   4.203  0.3529  0.4867  0.3648
15230TIP3    H267182   3.261   2.078   4.205  0.7396  0.6451 -0.7839
15231TIP3   OH267183   3.360   1.068  13.273  0.1878  0.7362 -0.5488
15231TIP3    H167184   3.267   1.048  13.281  0.3986  0.1850  0.7648
15231TIP3    H267185   3.373   1.143  13.332  0.8483 -0.1805  0.5195
15232TIP3   OH267186   2.285   5.870  11.926  0.2154  0.0325  0.5908
15232TIP3    H167187   2.311   5.805  11.861  0.9278 -1.7002  2.5259
15232TIP3    H267188   2.218   5.922  11.882 -0.8720 -2.4228 -0.8396
15233TIP3   OH267189   1.310   5.910  14.747 -0.3498  0.3038  0.1666
15233TIP3    H167190   1.277   5.980  14.803 -1.2393 -0.9552  1.3087
15233TIP3    H267191   1.237   5.889  14.689  0.8210  2.1492 -2.1715
15234TIP3   OH267192   3.703   5.605  16.714 -0.5380 -0.3679  0.2510
15234TIP3    H167193   3.792   5.578  16.689 -1.0601 -1.1641 -0.7812
15234TIP3    H267194   3.698   5.584  16.808  0.1184 -0.9937  0.1562
15235TIP3   OH267195   1.549   2.305  15.035  0.0077 -0.7214  0.1923
15235TIP3    H167196   1.615   2.268  14.976 -0.1270 -0.8345  0.1116
15235TIP3    H267197   1.477   2.242  15.033 -0.4915 -0.1419 -0.4443
15236TIP3   OH267198   2.625   4.546   3.198 -0.4590 -0.3739  0.1990
15236TIP3    H167199   2.531   4.529   3.204 -0.2600 -1.9155 -0.6158
15236TIP3    H267200   2.648   4.584   3.283 -1.4535 -1.8480  1.1638
15237TIP3   OH267201   5.226   5.234   1.630  0.0622  0.1230 -0.6613
15237TIP3    H167202   5.184   5.269   1.551  0.5622  0.7091 -0.6745
15237TIP3    H267203   5.226   5.139   1.617  1.2135  0.2602 -1.9327
15238TIP3   OH267204   1.843   1.989   1.022 -0.3270 -0.0895 -0.0189
15238TIP3    H167205   1.902   2.046   0.973 -0.3315 -1.5854 -1.9053
15238TIP3    H267206   1.841   2.026   1.110 -0.5226  2.9458 -1.1691
15239TIP3   OH267207   2.577   4.520  10.601 -0.6196  0.3344 -0.0377
15239TIP3    H167208   2.670   4.498  10.603 -0.6913  0.0806  0.8809
15239TIP3    H267209   2.533   4.443  10.638 -1.1303  0.7674  0.2721
15240TIP3   OH267210   4.660   6.339   0.712 -0.3171  0.3594 -0.2227
15240TIP3    H167211   4.613   6.395   0.773 -0.1538  0.4597 -0.1903
15240TIP3    H267212   4.705   6.400   0.653  0.4467  0.2733  0.2529
15241TIP3   OH267213   2.535   5.167  13.207 -0.6456 -0.0246 -0.6986
15241TIP3    H167214   2.473   5.093  13.204  0.1526 -0.7609  0.3662
15241TIP3    H267215   2.569   5.166  13.296  1.8803 -0.4707 -1.5851
15242TIP3   OH267216   5.043   5.658   3.167  0.0091 -0.5173  0.4025
15242TIP3    H167217   5.070   5.727   3.106 -2.2309  0.2021  0.1380
15242TIP3    H267218   5.074   5.577   3.126  1.2607  0.1732 -0.0928
15243TIP3   OH267219   1.498   2.263   3.001  0.0032  0.5844 -0.0987
15243TIP3    H167220   1.430   2.217   2.952 -0.2090  0.6474  0.1399
15243TIP3    H267221   1.575   2.257   2.945 -0.5079  1.5718 -0.9453
15244TIP3   OH267222   0.098   0.119  12.921  0.4278  0.1710  0.4706
15244TIP3    H167223   0.128   0.195  12.969  0.2831  0.6707 -0.2139
15244TIP3    H267224   0.150   0.046  12.955 -0.1053  0.3909  1.8172
15245TIP3   OH267225   6.090   2.833  14.526 -0.2918  0.1332 -0.1327
15245TIP3    H167226   6.010   2.885  14.538 -1.0851 -0.8359 -0.9873
15245TIP3    H267227   6.094   2.818  14.431  0.1256 -1.0137  0.0509
15246TIP3   OH267228   5.879   6.642  12.327  0.4648 -0.0009  0.2968
15246TIP3    H167229   5.870   6.551  12.299 -1.5614  0.7376 -1.6881
15246TIP3    H267230   5.889   6.637  12.422 -1.3642 -2.2255  0.4496
15247TIP3   OH267231   0.957   1.203   4.353  0.0604  0.1610  0.2288
15247TIP3    H167232   0.936   1.283   4.402 -0.4103 -0.8603  1.7748
15247TIP3    H267233   1.029   1.163   4.402 -0.3703 -0.8541  0.0633
15248TIP3   OH267234   6.567   2.131  15.780 -0.3738 -0.1571 -0.1409
15248TIP3    H167235   6.641   2.070  15.774 -0.2738 -0.2443  1.5995
15248TIP3    H267236   6.600   2.212  15.739 -0.3236 -1.0381 -1.9529
15249TIP3   OH267237   6.133   3.127  15.430  0.3600 -0.4195 -0.1142
15249TIP3    H167238   6.112   3.107  15.521 -2.6953 -0.0906 -0.6284
15249TIP3    H267239   6.048   3.145  15.389  1.7039  0.3752 -2.8230
15250TIP3   OH267240   3.180   5.018  14.786  0.5413  0.4489 -0.4051
15250TIP3    H167241   3.241   5.066  14.730  0.8108  0.7070  0.1124
15250TIP3    H267242   3.235   4.980  14.854  0.1627  0.4367 -0.1071
15251TIP3   OH267243   1.360   6.006   2.869  0.0198 -0.9776 -0.2736
15251TIP3    H167244   1.294   6.006   2.939  1.0190  0.5310  0.7106
15251TIP3    H267245   1.353   5.919   2.830 -0.0298 -2.1769  2.2238
15252TIP3   OH267246   4.794   3.374   0.588  0.6424  0.4595 -0.3995
15252TIP3    H167247   4.866   3.351   0.529 -0.0663  1.2234 -1.5933
15252TIP3    H267248   4.718   3.383   0.531 -0.4260 -0.3036  0.8270
15253TIP3   OH267249   2.015   3.810  15.887 -0.3057  0.0454 -0.6795
15253TIP3    H167250   2.099   3.804  15.843 -1.2427 -1.4861 -2.3883
15253TIP3    H267251   2.035   3.845  15.973  1.7374  2.3783 -1.9817
15254TIP3   OH267252   4.267   1.946  11.599  0.1669 -0.1520  0.4802
15254TIP3    H167253   4.260   1.855  11.572 -1.4585  0.4305 -1.3517
15254TIP3    H267254   4.176   1.974  11.613  0.2418  2.0324 -2.3963
15255TIP3   OH267255   0.235   5.084  12.685  0.1047 -1.0549 -0.1165
15255TIP3    H167256   0.242   4.988  12.688  2.6522 -0.9249 -0.3946
15255TIP3    H267257   0.312   5.115  12.731 -0.8484  0.9019  0.2345
15256TIP3   OH267258   0.914   6.539  13.798  0.6993  0.1830  0.0274
15256TIP3    H167259   0.964   6.621  13.792 -1.8639  2.1425  2.6886
15256TIP3    H267260   0.971   6.479  13.846  1.8065  1.1055 -0.0928
15257TIP3   OH267261   3.531   3.325   5.576 -0.0261  0.1374 -0.4575
15257TIP3    H167262   3.519   3.411   5.616  2.4641  0.1458  0.4696
15257TIP3    H267263   3.622   3.324   5.548  0.0258 -2.1871 -0.4386
15258TIP3   OH267264   6.130   4.871  11.937  0.3395  0.7763 -0.3781
15258TIP3    H167265   6.069   4.841  11.869 -0.3723  1.0773  0.1087
15258TIP3    H267266   6.136   4.797  11.998  0.9168  0.5352 -0.7198
15259TIP3   OH267267   0.976   0.312   3.804  0.3203  0.5204  0.0732
15259TIP3    H167268   0.893   0.353   3.780  0.2023  1.1946  1.5351
15259TIP3    H267269   0.955   0.220   3.818  0.2435  0.2600 -1.5339
15260TIP3   OH267270   2.676   4.401   4.397  0.1240 -0.1883 -0.2793
15260TIP3    H167271   2.649   4.365   4.482  1.1555  0.6269  0.4155
15260TIP3    H267272   2.664   4.329   4.336  0.9652 -1.3412  0.8627
15261TIP3   OH267273   5.431   2.456   0.838  0.5850  0.2470 -0.4346
15261TIP3    H167274   5.403   2.477   0.749  0.5479 -1.9391 -0.9928
15261TIP3    H267275   5.509   2.509   0.852  0.4664  0.7869 -1.6680
15262TIP3   OH267276   6.688   2.932  16.472  0.4115  0.8908  0.0049
15262TIP3    H167277   6.599   2.929  16.437 -0.0578  0.5382  1.1855
15262TIP3    H267278   6.744   2.904  16.399 -0.6343 -1.0713 -0.0961
15263TIP3   OH267279   3.740   4.834  10.828 -0.1551 -0.7292  0.5637
15263TIP3    H167280   3.829   4.854  10.797 -0.5210  1.0454  0.5532
15263TIP3    H267281   3.686   4.837  10.749 -0.3821 -0.8676  0.7112
15264TIP3   OH267282   2.151   1.181  12.996  0.6705 -0.2189 -0.7032
15264TIP3    H167283   2.104   1.261  13.022 -0.5078 -0.8597 -0.7735
15264TIP3    H267284   2.154   1.185  12.901  1.4102  0.1716 -0.6672
15265TIP3   OH267285   5.446   5.396  15.185  0.2186  0.2675  0.0440
15265TIP3    H167286   5.444   5.303  15.162 -0.8708  0.1973  0.3703
15265TIP3    H267287   5.396   5.401  15.266 -3.2143  1.6507 -1.9627
15266TIP3   OH267288   4.294   5.666  12.714  0.2456  0.3879  0.1198
15266TIP3    H167289   4.214   5.628  12.751  0.2604  1.0096  0.8161
15266TIP3    H267290   4.349   5.686  12.791  1.1984 -0.3061 -0.3615
15267TIP3   OH267291   5.609   2.279   6.378 -0.4982  0.6008 -0.7811
15267TIP3    H167292   5.660   2.249   6.453 -3.1262 -1.2636  0.4001
15267TIP3    H267293   5.585   2.199   6.331 -0.4230  1.5931 -2.6346
15268TIP3   OH267294   0.902   1.879   1.596 -0.5848  0.0678  0.0534
15268TIP3    H167295   0.883   1.880   1.690  2.2209 -0.9645  0.7412
15268TIP3    H267296   0.988   1.837   1.590 -0.8589 -0.2442 -3.0348
15269TIP3   OH267297   2.134   1.534   1.169 -0.8058 -0.1900 -0.0159
15269TIP3    H167298   2.110   1.490   1.088 -0.6708 -3.3377  1.5249
15269TIP3    H267299   2.087   1.486   1.238  1.9855 -0.1221  2.1253
15270TIP3   OH267300   3.693   1.122   0.541 -0.1943 -0.2893 -0.1029
15270TIP3    H167301   3.683   1.215   0.520  1.1944  0.5783  2.6574
15270TIP3    H267302   3.787   1.108   0.549 -0.2156 -2.4762 -2.2926
15271TIP3   OH267303   0.890   3.479  14.627 -0.3613  0.3903  0.4326
15271TIP3    H167304   0.950   3.449  14.559  0.3914  0.3629  1.0953
15271TIP3    H267305   0.803   3.456  14.593  0.0785 -1.0079  0.1528
15272TIP3   OH267306   5.577   5.488   5.033  0.4569 -0.0733 -0.0985
15272TIP3    H167307   5.606   5.532   4.953  2.2596 -0.2821  0.4016
15272TIP3    H267308   5.567   5.396   5.007 -0.2565  0.0766 -0.3842
15273TIP3   OH267309   1.645   1.680   2.679 -0.2886  0.7621 -0.3962
15273TIP3    H167310   1.617   1.638   2.597  1.7780 -0.8384 -0.3746
15273TIP3    H267311   1.568   1.678   2.735 -0.9041 -1.0100 -1.2293
15274TIP3   OH267312   0.378   1.687   5.027  0.0464 -0.0549  0.2493
15274TIP3    H167313   0.366   1.774   4.991 -0.2812 -0.0196  0.4404
15274TIP3    H267314   0.418   1.637   4.956  1.5892  0.6209  0.5999
15275TIP3   OH267315   1.556   1.721  17.144  0.4620 -0.0057  0.1631
15275TIP3    H167316   1.631   1.742  17.087  0.6243 -0.2393  0.2895
15275TIP3    H267317   1.497   1.795  17.133  0.9448  0.4299  0.4560
15276TIP3   OH267318   1.188   6.361  16.620 -0.3909  0.5082  0.0468
15276TIP3    H167319   1.274   6.394  16.595 -0.3981  0.7830  0.3795
15276TIP3    H267320   1.140   6.351  16.538 -0.6583  2.0572 -0.0025
15277TIP3   OH267321   5.464   2.917   4.522 -0.5055  0.1353 -0.0744
15277TIP3    H167322   5.374   2.948   4.524 -0.6336  0.2329 -2.9890
15277TIP3    H267323   5.480   2.883   4.610 -2.5766  2.2234  1.2175
15278TIP3   OH267324   3.547   0.670   3.565  0.2621 -0.0428 -0.2645
15278TIP3    H167325   3.571   0.749   3.517  0.6346  1.2415  1.9308
15278TIP3    H267326   3.454   0.659   3.548  0.1122  1.1235 -0.2750
15279TIP3   OH267327   0.382   2.510  14.887 -0.7017 -0.3267 -0.1112
15279TIP3    H167328   0.438   2.448  14.841 -0.1934 -0.0412  0.1209
15279TIP3    H267329   0.340   2.561  14.817 -2.2508 -1.8663 -0.3770
15280TIP3   OH267330   3.149   5.135   0.129  0.1010  0.0247 -0.2812
15280TIP3    H167331   3.073   5.098   0.174 -0.5009  0.1523 -1.1639
15280TIP3    H267332   3.213   5.064   0.129 -0.6199 -0.6624 -0.9337
15281TIP3   OH267333   3.365   1.393  17.123 -0.0372 -0.0132  0.0910
15281TIP3    H167334   3.319   1.311  17.104  1.2879 -0.9966  0.9615
15281TIP3    H267335   3.370   1.397  17.219 -1.4597  1.9027  0.1343
15282TIP3   OH267336   4.489   1.364  13.028 -0.7994 -0.2830 -0.1787
15282TIP3    H167337   4.495   1.378  12.934  0.0978 -1.0067 -0.2374
15282TIP3    H267338   4.418   1.300  13.038 -2.3470  1.3554 -0.1795
15283TIP3   OH267339   1.672   0.890   4.346  0.5100 -0.5910 -0.0111
15283TIP3    H167340   1.616   0.849   4.281  0.7749  0.2310 -0.7688
15283TIP3    H267341   1.612   0.935   4.406  0.3441  0.8590 -1.2041
15284TIP3   OH267342   1.489   3.739   1.534  0.1955  0.6935  0.3580
15284TIP3    H167343   1.453   3.674   1.473  1.3729  0.9574 -0.6666
15284TIP3    H267344   1.421   3.751   1.600 -0.6208 -0.5171 -0.2349
15285TIP3   OH267345   0.079   1.512   4.118 -0.1109 -0.0997  0.0645
15285TIP3    H167346   0.138   1.583   4.144  0.5050  0.0239 -1.5669
15285TIP3    H267347   0.013   1.554   4.063 -1.4986 -0.3222  1.4882
15286TIP3   OH267348   4.451   4.101  12.268  0.0245 -0.7217 -0.0593
15286TIP3    H167349   4.519   4.151  12.312 -1.3401 -0.5893  2.0558
15286TIP3    H267350   4.451   4.135  12.178  2.5028 -0.5535 -0.0650
15287TIP3   OH267351   1.774   5.186  16.312  0.3608  0.1384 -0.1416
15287TIP3    H167352   1.712   5.128  16.357  0.2766  1.3555  1.3956
15287TIP3    H267353   1.719   5.236  16.251 -0.0407  0.6240  0.6103
15288TIP3   OH267354   2.372   3.675  16.815  0.0636 -0.1606 -0.2985
15288TIP3    H167355   2.385   3.593  16.767 -0.1941  0.2693 -1.1269
15288TIP3    H267356   2.279   3.675  16.839  0.5843 -1.2704  1.9267
15289TIP3   OH267357   1.462   6.060   4.139  0.3269  0.5340  0.4451
15289TIP3    H167358   1.404   6.117   4.190 -0.0850  1.7944 -1.3606
15289TIP3    H267359   1.524   6.120   4.097  2.3106 -0.6862  1.4241
15290TIP3   OH267360   3.161   4.577   5.461 -0.0812  0.2665  0.7714
15290TIP3    H167361   3.190   4.629   5.536 -0.8643  0.2303  1.1045
15290TIP3    H267362   3.213   4.496   5.467  1.8484  1.3677 -0.2986
15291TIP3   OH267363   4.676   2.185  12.059  0.1146  0.7118 -0.0403
15291TIP3    H167364   4.599   2.217  12.012 -0.2716 -0.0669  0.0349
15291TIP3    H267365   4.641   2.145  12.139  0.5632  0.0839 -0.1474
15292TIP3   OH267366   0.739   5.288   1.487  0.1603  0.1500 -0.2734
15292TIP3    H167367   0.744   5.262   1.394  1.8736  0.5167 -0.3153
15292TIP3    H267368   0.743   5.205   1.534  0.6360  0.0407 -0.5013
15293TIP3   OH267369   3.220   3.647  15.098  0.0190 -0.3045 -0.1128
15293TIP3    H167370   3.137   3.661  15.145 -0.8790  0.0885 -1.7423
15293TIP3    H267371   3.273   3.723  15.121  2.0381 -2.7361  4.8947
15294TIP3   OH267372   6.256   1.234   3.789 -0.2155  0.6694  0.3316
15294TIP3    H167373   6.322   1.165   3.782  0.6951  1.4817  0.6913
15294TIP3    H267374   6.200   1.207   3.861  0.3824  0.5012  0.7410
15295TIP3   OH267375   4.831   0.137   1.294  0.1746 -0.1294 -0.1291
15295TIP3    H167376   4.918   0.109   1.268  0.6331 -0.9395  2.0968
15295TIP3    H267377   4.779   0.056   1.295 -0.2942  0.1655 -0.2851
15296TIP3   OH267378   6.204   5.254   1.578 -0.0861  0.2887 -0.2237
15296TIP3    H167379   6.148   5.195   1.629  0.0302  1.4134  1.2938
15296TIP3    H267380   6.199   5.222   1.488 -0.3107 -1.7852  0.4920
15297TIP3   OH267381   0.557   6.804  14.540  0.0526 -0.2666  0.2456
15297TIP3    H167382   0.464   6.823  14.534  0.7113  3.8505  0.0927
15297TIP3    H267383   0.580   6.824  14.631  0.6437 -2.5921  0.6755
15298TIP3   OH267384   4.942   3.542  14.157 -0.7742  0.4560  0.1856
15298TIP3    H167385   4.998   3.525  14.233 -1.9080 -0.8520  0.7821
15298TIP3    H267386   5.003   3.560  14.085  0.4898 -1.8532  0.5761
15299TIP3   OH267387   2.724   4.785   3.917  0.1041 -0.0780 -0.4989
15299TIP3    H167388   2.753   4.877   3.918 -0.8775  0.2735  1.3804
15299TIP3    H267389   2.631   4.790   3.895 -0.1965 -0.5067  0.6239
15300TIP3   OH267390   4.414   3.162   3.587 -0.1715  0.1116  0.2310
15300TIP3    H167391   4.325   3.128   3.596  0.5467 -2.0476 -0.4198
15300TIP3    H267392   4.433   3.155   3.494  0.8220  0.1864  0.4208
15301TIP3   OH267393   4.594   3.299   6.031  0.0434  0.6778 -0.1916
15301TIP3    H167394   4.592   3.342   5.946  2.6129  1.2709 -0.0204
15301TIP3    H267395   4.686   3.278   6.046 -0.6724 -2.0500  1.1764
15302TIP3   OH267396   5.507   4.856  12.909 -0.0668 -0.2063  0.4293
15302TIP3    H167397   5.584   4.865  12.964  0.6523  1.5287 -0.7707
15302TIP3    H267398   5.467   4.943  12.910 -1.8472 -0.9832  0.7629
15303TIP3   OH267399   6.313   2.367  11.719 -0.8117 -0.4401 -0.1641
15303TIP3    H167400   6.270   2.397  11.798 -0.2941  0.8898 -0.3522
15303TIP3    H267401   6.407   2.381  11.735 -0.7527  0.7596 -1.3315
15304TIP3   OH267402   0.085   4.312  16.528  0.3071 -0.6405 -0.2438
15304TIP3    H167403   0.002   4.278  16.563 -0.1438  0.4212 -0.2561
15304TIP3    H267404   0.152   4.270  16.581 -0.2654 -0.9199  0.2743
15305TIP3   OH267405   1.741   2.215   0.049 -0.7441 -0.0481 -0.3434
15305TIP3    H167406   1.736   2.120   0.041 -4.0273  0.1566 -2.9536
15305TIP3    H267407   1.716   2.234   0.139  0.5811 -1.5971  0.4040
15306TIP3   OH267408   5.244   2.572   4.421 -0.5127  0.3366  0.0983
15306TIP3    H167409   5.235   2.597   4.329  1.9674  0.4650 -0.1790
15306TIP3    H267410   5.178   2.623   4.467 -0.4210  1.8621 -1.3752
15307TIP3   OH267411   1.919   3.520  16.930 -0.2505  0.0333  0.5853
15307TIP3    H167412   1.994   3.577  16.946 -0.8398  0.8649  0.4520
15307TIP3    H267413   1.951   3.457  16.865  0.0999  0.8916 -0.0987
15308TIP3   OH267414   4.936   3.696  10.990 -0.3223  0.1531 -0.1584
15308TIP3    H167415   5.014   3.742  10.960  1.4006 -2.3546  0.0799
15308TIP3    H267416   4.948   3.606  10.958 -2.6976 -0.5243  0.6519
15309TIP3   OH267417   0.386   3.600   3.285 -0.4657  0.4229 -0.2807
15309TIP3    H167418   0.290   3.601   3.286 -0.4871 -0.5356  0.0381
15309TIP3    H267419   0.408   3.525   3.230  0.1137  0.9088 -0.7281
15310TIP3   OH267420   6.720   1.718  16.747  0.1880  0.2540 -0.6155
15310TIP3    H167421   6.725   1.813  16.735  0.0159  0.5074  1.0727
15310TIP3    H267422   6.771   1.701  16.826 -0.8533 -0.8826 -0.1602
15311TIP3   OH267423   6.258   5.379   1.822 -0.2884  0.4795  0.3843
15311TIP3    H167424   6.280   5.292   1.854 -1.2231  0.7404  1.7894
15311TIP3    H267425   6.188   5.364   1.759 -2.2489  0.3605  2.4695
15312TIP3   OH267426   6.013   2.764   3.053 -0.4298  0.1732  0.8974
15312TIP3    H167427   6.106   2.787   3.050 -0.7130  1.3119  0.6434
15312TIP3    H267428   5.984   2.791   3.140 -0.4572 -0.4699  1.0929
15313TIP3   OH267429   2.159   0.836  16.853  0.4789  0.0822 -0.0413
15313TIP3    H167430   2.140   0.846  16.947  1.0058 -2.2782  0.3839
15313TIP3    H267431   2.076   0.851  16.810  0.2126  1.1387  0.8042
15314TIP3   OH267432   3.953   6.661  13.281  0.0428 -0.0581 -0.0803
15314TIP3    H167433   3.858   6.660  13.274 -0.0088  0.0784  0.5291
15314TIP3    H267434   3.984   6.615  13.204 -0.4950  0.7600 -0.8009
15315TIP3   OH267435   0.766   6.578   0.955  0.0099 -0.3063 -0.3110
15315TIP3    H167436   0.773   6.500   1.010 -1.1403 -1.2730 -1.4743
15315TIP3    H267437   0.757   6.544   0.866  0.3334  1.1836 -0.9385
15316TIP3   OH267438   6.371   5.552   0.581  0.5261 -0.0824  0.3970
15316TIP3    H167439   6.400   5.525   0.668 -1.1028  0.0869  1.0114
15316TIP3    H267440   6.446   5.600   0.546  1.3709 -0.5280  1.5216
15317TIP3   OH267441   0.998   6.686  12.539 -0.6848 -0.6722  0.4004
15317TIP3    H167442   0.909   6.714  12.559 -0.3767 -0.3712  1.3814
15317TIP3    H267443   1.016   6.723  12.453 -1.2935 -0.2327  0.4577
15318TIP3   OH267444   0.640   5.914   5.041  0.2501 -0.3369  0.1735
15318TIP3    H167445   0.588   5.958   4.974  0.4828 -0.3557 -0.0228
15318TIP3    H267446   0.731   5.934   5.017  0.4002 -1.4781 -0.3200
15319TIP3   OH267447   3.617   1.015  12.028 -0.0037  0.6712  0.7683
15319TIP3    H167448   3.641   1.108  12.026  0.9656  0.4285  0.5957
15319TIP3    H267449   3.655   0.979  11.948 -0.7622  0.2092  0.6059
15320TIP3   OH267450   3.826   3.701   1.159 -0.6269  0.0403  0.1071
15320TIP3    H167451   3.917   3.698   1.188 -0.4003 -0.4693 -0.6342
15320TIP3    H267452   3.793   3.785   1.193 -1.0395 -1.3958  3.6793
15321TIP3   OH267453   2.509   4.142   1.251  0.2730  0.2945  0.6903
15321TIP3    H167454   2.544   4.054   1.262 -1.7942 -0.9072 -1.3930
15321TIP3    H267455   2.438   4.131   1.188 -1.3556  3.1477  1.8596
15322TIP3   OH267456   5.082   6.329   3.746 -0.1870 -0.2374 -0.4505
15322TIP3    H167457   5.156   6.344   3.687 -1.6796  0.0987 -2.3378
15322TIP3    H267458   5.122   6.317   3.832  1.8717  4.7013 -0.3873
15323TIP3   OH267459   2.327   4.748   4.366 -0.1316  0.4693  0.2299
15323TIP3    H167460   2.359   4.764   4.455  0.0428  0.1979  0.2163
15323TIP3    H267461   2.404   4.758   4.310  0.1508 -1.1324  0.2968
15324TIP3   OH267462   5.391   6.163   6.392 -0.0737  0.5448 -0.0947
15324TIP3    H167463   5.343   6.086   6.422  0.8591 -0.2867 -0.6770
15324TIP3    H267464   5.468   6.128   6.347  0.4537  1.8190 -0.2437
15325TIP3   OH267465   1.738   0.294  10.915 -0.1956  0.0133 -0.7341
15325TIP3    H167466   1.726   0.387  10.894  0.8679  0.2742 -0.2291
15325TIP3    H267467   1.744   0.251  10.829  0.7503  0.6177 -0.9917
15326TIP3   OH267468   3.628   2.139   4.722  0.0817 -0.1020  0.7127
15326TIP3    H167469   3.673   2.167   4.803 -1.0887 -0.4384  1.5016
15326TIP3    H267470   3.699   2.114   4.663  0.9529 -2.5647  2.6124
15327TIP3   OH267471   3.487   2.842   3.759 -0.0345 -0.0620 -0.2903
15327TIP3    H167472   3.443   2.810   3.680  0.0641 -2.4176  0.5171
15327TIP3    H267473   3.580   2.847   3.734  0.5037 -3.7623  0.3557
15328TIP3   OH267474   1.594   4.677   2.386 -0.1125  0.0919 -0.3849
15328TIP3    H167475   1.529   4.721   2.442 -1.0560  0.1230 -1.4557
15328TIP3    H267476   1.577   4.712   2.299  1.5513  0.2971 -0.6613
15329TIP3   OH267477   0.876   1.090  10.681  0.2295 -0.4543 -0.4774
15329TIP3    H167478   0.802   1.122  10.733  0.4132 -2.2011  0.9491
15329TIP3    H267479   0.935   1.165  10.676 -0.3096  0.1102  0.9133
15330TIP3   OH267480   2.937   4.717   4.072 -0.3359  0.2382  0.0542
15330TIP3    H167481   2.861   4.735   4.016 -0.5823 -0.7313  0.0599
15330TIP3    H267482   2.900   4.676   4.150  0.0857  0.8772  0.6036
15331TIP3   OH267483   0.950   6.517  14.570  0.6338  0.6927 -0.5733
15331TIP3    H167484   1.007   6.492  14.498 -0.5905  0.1670 -1.4031
15331TIP3    H267485   0.865   6.533  14.529 -0.2597 -0.2171  0.8062
15332TIP3   OH267486   2.788   0.478   4.809 -0.0784  0.1356 -0.4075
15332TIP3    H167487   2.743   0.555   4.773  2.0225  1.1430 -0.9970
15332TIP3    H267488   2.826   0.508   4.891  1.0047 -0.1709 -0.7818
15333TIP3   OH267489   4.346   4.721   0.519  0.5403  0.0690 -0.3462
15333TIP3    H167490   4.331   4.627   0.505 -0.7815 -0.4700  3.4885
15333TIP3    H267491   4.301   4.763   0.445 -0.1022 -2.2457 -1.3887
15334TIP3   OH267492   1.404   3.704  12.169 -0.0873 -0.0917  0.4130
15334TIP3    H167493   1.474   3.681  12.108  0.6259  3.2579 -0.2119
15334TIP3    H267494   1.325   3.706  12.115 -0.8035 -3.6140  1.0690
15335TIP3   OH267495   4.568   2.819  15.212 -0.3495 -0.2682  0.7035
15335TIP3    H167496   4.621   2.898  15.200 -0.6028 -0.2868 -0.7219
15335TIP3    H267497   4.631   2.747  15.205 -0.7808 -0.5132 -4.4972
15336TIP3   OH267498   2.782   3.642   1.486 -0.0969  0.4052 -0.6046
15336TIP3    H167499   2.810   3.652   1.577 -0.0977 -1.2467 -0.3884
15336TIP3    H267500   2.688   3.659   1.488  0.1473  1.9385 -0.6108
15337TIP3   OH267501   5.320   3.851  12.494 -0.7300 -0.5519 -0.0264
15337TIP3    H167502   5.277   3.770  12.470 -0.2574 -1.2229  1.3010
15337TIP3    H267503   5.357   3.835  12.581 -0.8181  1.1521  0.3770
15338TIP3   OH267504   4.726   5.652   3.080 -0.3724  0.3329  0.0513
15338TIP3    H167505   4.795   5.591   3.105 -0.3739  0.6842  0.9530
15338TIP3    H267506   4.767   5.712   3.018 -0.3152 -0.4477 -0.6807
15339TIP3   OH267507   4.648   4.677  12.710  0.8364 -0.0438 -0.2731
15339TIP3    H167508   4.701   4.598  12.718 -0.0546 -0.6634 -0.3666
15339TIP3    H267509   4.709   4.743  12.675  2.3278  0.1126  2.3192
15340TIP3   OH267510   6.714   4.957  14.804  0.4599 -0.4109 -0.1720
15340TIP3    H167511   6.652   5.026  14.781  0.3547  0.0626  1.4632
15340TIP3    H267512   6.779   4.960  14.733 -1.2116 -0.7961 -1.8162
15341TIP3   OH267513   0.205   3.406  12.827  0.2407  0.5057  0.0072
15341TIP3    H167514   0.118   3.402  12.787  0.6678  0.3639 -0.9407
15341TIP3    H267515   0.189   3.436  12.916 -0.7091  1.2351 -0.3893
15342TIP3   OH267516   0.089   3.784   1.198  0.2095 -0.8699  0.0256
15342TIP3    H167517   0.061   3.766   1.108 -0.7636  0.4641  0.0172
15342TIP3    H267518   0.044   3.866   1.221  2.2874  0.1214  0.8888
15343TIP3   OH267519   1.232   3.017  16.395  0.0706  0.1999 -0.3731
15343TIP3    H167520   1.140   3.015  16.421  0.3504  1.6867  0.9047
15343TIP3    H267521   1.233   3.069  16.314 -0.1490  0.7717 -0.0138
15344TIP3   OH267522   4.767   4.198   4.224 -0.3010 -0.2766 -0.2430
15344TIP3    H167523   4.686   4.248   4.238  0.5834  1.2542 -0.3828
15344TIP3    H267524   4.836   4.255   4.257  0.7785 -1.3679 -0.5444
15345TIP3   OH267525   2.498   3.151   6.422 -0.4313 -0.3624 -0.6872
15345TIP3    H167526   2.521   3.075   6.476 -1.3908 -0.1380  0.0588
15345TIP3    H267527   2.547   3.138   6.341  1.7176 -0.2620  0.5445
15346TIP3   OH267528   5.398   3.566   2.373  0.2611  0.4513  0.3148
15346TIP3    H167529   5.412   3.632   2.306  2.7467 -0.5374 -0.2481
15346TIP3    H267530   5.371   3.487   2.325  0.4507  0.1798  0.6450
15347TIP3   OH267531   2.853   3.110   1.250 -0.1492 -0.0520  0.3328
15347TIP3    H167532   2.797   3.180   1.283  1.5216  1.8658 -0.6858
15347TIP3    H267533   2.882   3.062   1.328 -0.0583  1.3875  1.2026
15348TIP3   OH267534   5.325   2.087  14.106  0.2526 -0.4367  0.5111
15348TIP3    H167535   5.321   2.157  14.172  1.2725  1.0156 -0.8681
15348TIP3    H267536   5.235   2.076  14.077  0.0747  0.3176  0.7507
15349TIP3   OH267537   2.767   3.581   5.707  0.2518  0.3025  0.1044
15349TIP3    H167538   2.780   3.531   5.788 -0.9868 -0.4457 -0.1363
15349TIP3    H267539   2.770   3.515   5.637  1.5761  0.9691 -0.5059
15350TIP3   OH267540   6.245   1.902  11.794 -0.1393  0.1304  0.3514
15350TIP3    H167541   6.267   1.968  11.729  0.8061 -2.1950 -1.8331
15350TIP3    H267542   6.269   1.819  11.754 -2.0051 -1.6652  2.6409
15351TIP3   OH267543   2.775   5.641   2.701  0.0680  0.1349  0.2980
15351TIP3    H167544   2.733   5.714   2.655 -0.7281 -0.8416 -0.5796
15351TIP3    H267545   2.704   5.582   2.724  0.9267 -2.1127 -2.2042
15352TIP3   OH267546   5.828   0.033   4.392  0.0632 -0.0452 -0.4600
15352TIP3    H167547   5.775   0.073   4.461  1.2525 -1.5449  1.4636
15352TIP3    H267548   5.768  -0.025   4.345 -0.2824 -1.0550  1.1204
15353TIP3   OH267549   6.601   2.919  16.962 -0.1624 -0.0081  0.1583
15353TIP3    H167550   6.682   2.869  16.951  0.5156  0.8341  1.1094
15353TIP3    H267551   6.568   2.929  16.873  1.2116  0.3156 -0.3523
15354TIP3   OH267552   1.327   2.644   1.699  0.3573 -0.4280  0.5114
15354TIP3    H167553   1.324   2.707   1.772 -0.7085 -1.0505  1.0208
15354TIP3    H267554   1.348   2.561   1.741 -1.7133 -1.0895  0.3546
15355TIP3   OH267555   6.460   6.018   3.928 -0.8300 -0.4963  0.0385
15355TIP3    H167556   6.468   5.954   3.858  0.7374 -0.8112  0.4733
15355TIP3    H267557   6.441   6.101   3.883 -0.9809 -0.8995 -0.6562
15356TIP3   OH267558   3.355   5.508  17.226 -0.5173  0.3917 -0.0972
15356TIP3    H167559   3.411   5.452  17.280 -1.3779 -0.3921  0.0069
15356TIP3    H267560   3.331   5.453  17.152  0.3427  1.3347 -1.1100
15357TIP3   OH267561   4.437   1.457   5.596  0.5590  0.2086  0.0152
15357TIP3    H167562   4.524   1.422   5.615  0.3272 -0.9847 -1.0171
15357TIP3    H267563   4.447   1.552   5.602  1.9443  0.0844 -0.1438
15358TIP3   OH267564   0.432   1.471  13.927 -0.2851 -0.9917 -0.0508
15358TIP3    H167565   0.347   1.435  13.899 -0.4968 -1.5271  1.2399
15358TIP3    H267566   0.495   1.401  13.907 -0.2013 -0.7728 -0.5802
15359TIP3   OH267567   4.842   5.601   0.677  0.1354  0.3473 -0.1764
15359TIP3    H167568   4.766   5.652   0.648  0.1983  0.1397 -0.7312
15359TIP3    H267569   4.903   5.606   0.603 -0.1150 -1.0417 -0.5045
15360TIP3   OH267570   0.373   6.721  13.667  0.2013  0.2768 -0.6165
15360TIP3    H167571   0.337   6.804  13.699 -0.0860  0.0398 -0.3310
15360TIP3    H267572   0.442   6.748  13.606 -0.6593  0.7342 -1.4175
15361TIP3   OH267573   3.797   6.454  13.793 -0.1359  0.3448 -0.2567
15361TIP3    H167574   3.826   6.508  13.719 -1.6196 -0.3200 -1.3637
15361TIP3    H267575   3.767   6.517  13.858  1.5385  0.9526 -0.0320
15362TIP3   OH267576   5.070   4.634  11.719 -0.8972  0.1064  0.1030
15362TIP3    H167577   4.974   4.632  11.719 -0.9627  1.7214 -0.8787
15362TIP3    H267578   5.095   4.549  11.754 -2.6910 -0.5732 -0.1380
15363TIP3   OH267579   3.657   3.144  11.761  0.3878  0.6169 -0.6548
15363TIP3    H167580   3.659   3.050  11.778 -1.9659  0.6697  0.2788
15363TIP3    H267581   3.686   3.153  11.670  1.1190 -0.9489 -0.6073
15364TIP3   OH267582   0.724   5.354   4.930 -0.2964 -0.2866  0.3828
15364TIP3    H167583   0.657   5.344   4.862  1.4576 -0.9949 -1.3244
15364TIP3    H267584   0.778   5.275   4.922  0.4750  0.0215  2.0671
15365TIP3   OH267585   2.440   3.819  14.323 -0.0655  0.0772  0.1365
15365TIP3    H167586   2.474   3.861  14.402  1.0669 -1.1306  0.3061
15365TIP3    H267587   2.345   3.828  14.331 -0.0825 -1.3636  2.4123
15366TIP3   OH267588   5.613   6.578   0.438  0.6348  0.3745  0.0772
15366TIP3    H167589   5.658   6.529   0.507  0.0882 -0.6263 -0.2624
15366TIP3    H267590   5.570   6.511   0.385  1.6181  1.0521 -1.6729
15367TIP3   OH267591   1.118   3.570   0.886  0.1229  0.0822 -0.1443
15367TIP3    H167592   1.132   3.665   0.886  0.1294  0.0975  1.1094
15367TIP3    H267593   1.023   3.559   0.891  0.1669  0.0411  0.7565
15368TIP3   OH267594   5.319   2.762   5.392 -0.0301 -0.1814  0.5769
15368TIP3    H167595   5.225   2.755   5.407  0.3138 -0.1436  3.2312
15368TIP3    H267596   5.336   2.856   5.383 -0.3080 -0.2367 -0.8816
15369TIP3   OH267597   5.189   1.560   4.256  0.0911 -0.0204  0.2077
15369TIP3    H167598   5.229   1.534   4.173  0.9704  1.7232  0.0221
15369TIP3    H267599   5.262   1.599   4.305 -1.0977  2.1284  0.3759
15370TIP3   OH267600   2.251   6.269  10.661 -0.0218 -0.0622  0.1163
15370TIP3    H167601   2.174   6.309  10.621 -0.5479  0.1137  1.2707
15370TIP3    H267602   2.216   6.214  10.731  0.9304  0.3476  0.9353
15371TIP3   OH267603   3.484   1.883  14.441  0.0898 -0.1858  0.1502
15371TIP3    H167604   3.410   1.941  14.426  1.2894  1.2617 -0.3655
15371TIP3    H267605   3.469   1.847  14.529  0.2975  2.4981  1.3789
15372TIP3   OH267606   2.990   3.369   2.276  0.0461  0.0838 -0.2308
15372TIP3    H167607   3.028   3.337   2.195 -0.0138 -0.4104 -0.0656
15372TIP3    H267608   3.043   3.329   2.345  0.9839  1.5920 -0.0291
15373TIP3   OH267609   3.649   0.368  12.835  0.4365  0.2737 -0.1877
15373TIP3    H167610   3.660   0.363  12.740 -2.9606  1.5286 -0.7887
15373TIP3    H267611   3.607   0.286  12.860  2.7220 -0.7430  0.5879
15374TIP3   OH267612   3.483   5.529  13.466 -0.1353 -0.0376 -0.2573
15374TIP3    H167613   3.480   5.524  13.561  4.0354  0.7627  0.1247
15374TIP3    H267614   3.429   5.455  13.436 -2.4282  0.3089  2.5869
15375TIP3   OH267615   3.223   4.514  14.059  0.5093  0.3264 -0.3051
15375TIP3    H167616   3.190   4.602  14.039 -2.0488 -0.5366 -0.2618
15375TIP3    H267617   3.180   4.490  14.141 -0.3664 -1.6670 -1.2682
15376TIP3   OH267618   4.308   1.686  14.647  0.6784 -0.1006 -0.2965
15376TIP3    H167619   4.350   1.745  14.710  2.3238  0.3077 -1.6979
15376TIP3    H267620   4.215   1.689  14.670  1.2707 -0.6009  2.6087
15377TIP3   OH267621   1.391   2.744   6.209  0.0578 -0.3382 -0.0703
15377TIP3    H167622   1.338   2.666   6.192  0.0221 -0.1383 -0.9576
15377TIP3    H267623   1.380   2.797   6.130  0.5310  0.3085  0.2924
15378TIP3   OH267624   6.481   0.154   4.933  0.1984  0.4554  0.4941
15378TIP3    H167625   6.387   0.167   4.946 -0.1413 -1.2687 -0.0152
15378TIP3    H267626   6.491   0.059   4.922  1.9818  0.6246  0.4044
15379TIP3   OH267627   4.736   6.410  13.150  0.1061  0.2685 -0.0357
15379TIP3    H167628   4.825   6.441  13.168  0.0189  0.0116  0.8874
15379TIP3    H267629   4.694   6.483  13.105  0.6617  0.5452 -0.1102
15380TIP3   OH267630   5.985   0.193   3.213 -0.1383 -0.1392 -0.0829
15380TIP3    H167631   6.065   0.181   3.264 -0.1532  0.1615  0.0155
15380TIP3    H267632   5.986   0.122   3.149  0.6956  0.4191 -0.7215
15381TIP3   OH267633   5.087   1.398  13.165  0.4014  0.0629 -0.2856
15381TIP3    H167634   5.033   1.331  13.209 -1.5176  2.5197  1.3734
15381TIP3    H267635   5.023   1.451  13.117  1.7074  1.4289 -0.5664
15382TIP3   OH267636   4.349   1.427   3.349  0.0364 -0.2184  0.0623
15382TIP3    H167637   4.299   1.364   3.297 -1.0328  1.3217 -0.8308
15382TIP3    H267638   4.385   1.488   3.285  1.1203  0.0495  0.9015
15383TIP3   OH267639   5.037   2.546  10.843 -0.2196 -0.9986 -0.1844
15383TIP3    H167640   5.099   2.535  10.914  1.0970  0.2967 -1.0854
15383TIP3    H267641   5.051   2.635  10.812 -2.6170 -0.6061 -0.3591
15384TIP3   OH267642   2.981   6.567  16.782  0.0895 -0.5458  0.3438
15384TIP3    H167643   3.065   6.582  16.825 -0.1936  0.1978  0.6674
15384TIP3    H267644   2.927   6.641  16.810 -1.3306 -2.0694  1.7684
15385TIP3   OH267645   6.199   0.834   1.459  0.2435 -0.3242  0.0036
15385TIP3    H167646   6.230   0.836   1.549  1.3433 -0.9004 -0.3326
15385TIP3    H267647   6.125   0.774   1.460  0.8029 -1.0337  0.3907
15386TIP3   OH267648   4.006   0.882   3.085 -0.0574  0.0598  0.5395
15386TIP3    H167649   3.936   0.820   3.067  1.4400 -1.6538  0.4336
15386TIP3    H267650   4.068   0.872   3.013  2.0237 -1.0540  2.3463
15387TIP3   OH267651   6.487   1.121   3.767  0.5229 -0.0651 -0.2988
15387TIP3    H167652   6.574   1.080   3.761  1.2452  1.1288  1.1145
15387TIP3    H267653   6.505   1.206   3.808 -1.3416  0.1852  0.0463
15388TIP3   OH267654   1.410   4.076   2.995  0.2162  0.2569 -0.3799
15388TIP3    H167655   1.365   4.005   2.948 -1.7057  1.3843 -0.3583
15388TIP3    H267656   1.377   4.069   3.085  1.0147  0.4030 -0.0673
15389TIP3   OH267657   2.434   0.010   2.207  0.3077 -0.7170  0.1660
15389TIP3    H167658   2.339   0.016   2.216  0.1675 -0.0806 -1.4047
15389TIP3    H267659   2.457  -0.074   2.246 -0.6122 -0.0147  2.4154
15390TIP3   OH267660   1.080   5.990  12.889  0.4539  0.6904 -0.2453
15390TIP3    H167661   1.006   5.993  12.829  0.2574  2.0029  0.0347
15390TIP3    H267662   1.050   5.935  12.962  0.5908 -0.6695 -1.1727
15391TIP3   OH267663   2.422   4.529   1.614  0.5725 -0.4491  0.1297
15391TIP3    H167664   2.385   4.453   1.568 -1.0606  0.6861 -0.5671
15391TIP3    H267665   2.515   4.526   1.596  0.2531 -1.2143 -1.5476
15392TIP3   OH267666   6.255   4.636  12.241  0.0403  0.3905  0.4184
15392TIP3    H167667   6.161   4.641  12.261  0.5569  0.7044  3.2615
15392TIP3    H267668   6.279   4.546  12.265  0.7426  0.8234  1.4292
15393TIP3   OH267669   6.573   1.496   0.197  0.2967  0.2030  0.1836
15393TIP3    H167670   6.490   1.537   0.172  0.0867 -0.2770  0.0994
15393TIP3    H267671   6.628   1.570   0.225  0.0785  0.5975 -0.4060
15394TIP3   OH267672   5.012   0.757  13.994  0.2031  0.2349 -0.3090
15394TIP3    H167673   4.983   0.686  13.936  1.7740  0.5377 -1.5478
15394TIP3    H267674   4.951   0.755  14.067 -0.0214 -2.1724 -0.4750
15395TIP3   OH267675   3.506   1.078   4.816 -0.0159  0.1765 -0.6263
15395TIP3    H167676   3.430   1.028   4.848 -0.7885  0.3935 -2.0356
15395TIP3    H267677   3.581   1.032   4.852 -0.7956  0.6545  1.8337
15396TIP3   OH267678   0.178   3.676   2.401 -0.2612 -0.3212  0.0184
15396TIP3    H167679   0.198   3.764   2.431  0.0661 -0.8729  1.5087
15396TIP3    H267680   0.237   3.661   2.328 -0.7768  0.9111 -0.6755
15397TIP3   OH267681   5.877   6.523   3.283  0.0507  0.1548 -0.5183
15397TIP3    H167682   5.905   6.561   3.366 -1.8600 -1.5317  0.9861
15397TIP3    H267683   5.812   6.584   3.248 -0.7939 -0.2135  0.3762
15398TIP3   OH267684   2.241   1.233  15.371 -0.1647 -0.1808  0.5922
15398TIP3    H167685   2.336   1.230  15.372 -0.1621 -1.2402 -0.3374
15398TIP3    H267686   2.218   1.215  15.280 -1.2361  1.2539  0.5428
15399TIP3   OH267687   6.060   3.042   0.725  0.5169 -0.1847 -0.1027
15399TIP3    H167688   6.105   3.114   0.770  1.7532 -0.8565 -0.2126
15399TIP3    H267689   6.103   3.037   0.639 -1.3384  0.6218 -1.1204
15400TIP3   OH267690   3.110   1.828  12.467  0.4406 -0.9264 -0.6495
15400TIP3    H167691   3.176   1.769  12.504  1.5824  1.8816  2.2675
15400TIP3    H267692   3.066   1.865  12.544 -0.3470  1.8157 -2.3113
15401TIP3   OH267693   1.058   6.434   0.585  0.5151 -0.4958  1.0163
15401TIP3    H167694   1.122   6.456   0.652 -0.7495  1.0433  1.8048
15401TIP3    H267695   1.000   6.370   0.627  1.6971 -2.2230  0.1620
15402TIP3   OH267696   0.179   1.910   5.663  0.3935  0.1487  0.4719
15402TIP3    H167697   0.095   1.864   5.672  0.5477 -0.3319 -0.4735
15402TIP3    H267698   0.173   1.982   5.726 -0.7240  0.1123  0.4313
15403TIP3   OH267699   0.544   4.759   2.574  0.5370 -0.3730 -0.3220
15403TIP3    H167700   0.495   4.692   2.622 -0.7204  0.4470 -0.4107
15403TIP3    H267701   0.484   4.787   2.505  0.3175  2.0714  0.7810
15404TIP3   OH267702   0.846   6.571  14.133  0.2656  0.3694 -0.7148
15404TIP3    H167703   0.798   6.653  14.137 -1.4195 -0.6051  1.6606
15404TIP3    H267704   0.813   6.527  14.055  0.8296  1.6901 -1.7342
15405TIP3   OH267705   6.687   5.933  13.372 -0.2392  0.5661 -0.0056
15405TIP3    H167706   6.594   5.944  13.395 -0.1701 -1.0660  1.3219
15405TIP3    H267707   6.687   5.861  13.310  0.2164 -0.4929  1.1720
15406TIP3   OH267708   5.950   3.302  13.552 -0.0189 -0.2048  0.2696
15406TIP3    H167709   6.000   3.228  13.516 -1.5741 -0.3491 -1.7505
15406TIP3    H267710   5.896   3.332  13.479  0.3554  2.7959  1.1003
15407TIP3   OH267711   4.288   3.607  10.517  0.2751  0.0740 -0.0682
15407TIP3    H167712   4.295   3.659  10.597  0.8676  1.0477 -0.7394
15407TIP3    H267713   4.252   3.666  10.452 -1.4740 -1.0761 -0.2211
15408TIP3   OH267714   3.849   4.705   3.031  0.0264 -0.6815  0.1308
15408TIP3    H167715   3.890   4.633   2.983  1.4782  0.7737 -0.8973
15408TIP3    H267716   3.880   4.784   2.988 -1.4214  0.6025  1.3062
15409TIP3   OH267717   1.003   3.489   2.624  0.2232 -0.7917 -0.1528
15409TIP3    H167718   0.912   3.475   2.600  0.3139 -0.3762 -0.7588
15409TIP3    H267719   1.053   3.457   2.549  0.4857  1.1741 -0.8809
15410TIP3   OH267720   5.975   4.826  13.543  0.1015  0.0168 -0.1859
15410TIP3    H167721   5.998   4.902  13.490  1.3838  0.1411  0.5076
15410TIP3    H267722   5.954   4.862  13.629  0.8868 -0.4002  0.1961
15411TIP3   OH267723   2.162   5.568   1.518  0.2932  0.0000 -0.2810
15411TIP3    H167724   2.251   5.556   1.550  0.2113 -1.5732 -0.5520
15411TIP3    H267725   2.163   5.534   1.429 -0.7900 -1.0315  0.0611
15412TIP3   OH267726   5.444   4.188  11.393  0.5533  0.1953  0.3273
15412TIP3    H167727   5.485   4.274  11.385  0.6903  0.0759 -0.2889
15412TIP3    H267728   5.361   4.205  11.437 -0.2914  0.9192 -1.4271
15413TIP3   OH267729   3.562   0.007  14.679 -0.1500  0.4466 -0.0670
15413TIP3    H167730   3.523  -0.024  14.597  0.9215 -0.9884 -0.0578
15413TIP3    H267731   3.579   0.100  14.663 -0.9286  0.4368 -1.0867
15414TIP3   OH267732   3.179   1.248   4.855  0.0599 -0.0349  0.4975
15414TIP3    H167733   3.177   1.196   4.775  1.2671  1.4154 -0.5205
15414TIP3    H267734   3.228   1.195   4.918  0.7909 -0.3849 -0.3498
15415TIP3   OH267735   5.272   5.302  16.390  0.8481 -0.2613  0.4234
15415TIP3    H167736   5.195   5.246  16.386  2.0830 -1.9838 -0.9200
15415TIP3    H267737   5.313   5.293  16.304  0.9595  3.0215  0.0322
15416TIP3   OH267738   6.145   1.859   6.685  0.1547 -0.1658 -0.1927
15416TIP3    H167739   6.053   1.867   6.661 -1.1810 -3.8418  2.7312
15416TIP3    H267740   6.184   1.812   6.611 -0.8105 -0.3903 -0.5805
15417TIP3   OH267741   3.053   1.685  14.815  0.1326  0.4543 -0.4515
15417TIP3    H167742   3.012   1.768  14.838  0.2515  0.5343 -0.5282
15417TIP3    H267743   2.982   1.621  14.821  0.2887  0.3630  0.7455
15418TIP3   OH267744   0.596   2.523   2.171 -0.1984 -0.5718  0.3854
15418TIP3    H167745   0.587   2.616   2.192  0.1921 -0.4737  0.1322
15418TIP3    H267746   0.580   2.518   2.077 -1.7136 -0.9780  0.6418
15419TIP3   OH267747   6.353   0.599   1.564  0.3769  0.3995  0.0327
15419TIP3    H167748   6.402   0.674   1.530  0.9777  0.0923  0.2024
15419TIP3    H267749   6.400   0.574   1.643  0.1015 -0.0753  0.0485
15420TIP3   OH267750   3.718   4.968   6.154  0.0431  0.3580 -0.1377
15420TIP3    H167751   3.765   5.011   6.226 -0.8595  0.3380  0.4794
15420TIP3    H267752   3.758   4.880   6.149 -0.6486 -0.0562  1.1195
15421TIP3   OH267753   4.681   1.415  16.350  0.3319 -0.2978 -0.0590
15421TIP3    H167754   4.588   1.405  16.332 -0.3469  1.4806  2.0662
15421TIP3    H267755   4.704   1.339  16.404 -0.1369 -0.2040  0.2705
15422TIP3   OH267756   4.701   0.912   5.485 -0.5590 -0.3570  0.2050
15422TIP3    H167757   4.613   0.935   5.457 -1.1512 -1.2390  1.2376
15422TIP3    H267758   4.738   0.994   5.518 -1.2647 -0.1262  0.4386
15423TIP3   OH267759   1.935   5.820  13.328 -0.1359  0.2927  0.2630
15423TIP3    H167760   1.950   5.738  13.280 -0.5495 -0.3315  1.1661
15423TIP3    H267761   1.902   5.881  13.262  0.9518 -0.0059 -0.5933
15424TIP3   OH267762   1.108   2.356   5.053  0.5677 -0.3599  0.6445
15424TIP3    H167763   1.185   2.371   4.997 -0.8062 -2.2777 -1.9785
15424TIP3    H267764   1.049   2.428   5.033  0.0243 -1.1124 -0.5813
15425TIP3   OH267765   5.427   3.294   1.902  0.4156 -0.3627 -0.2003
15425TIP3    H167766   5.386   3.208   1.907  0.0579 -0.2767 -1.3300
15425TIP3    H267767   5.484   3.289   1.825  0.6524  0.3005 -0.0757
15426TIP3   OH267768   1.188   1.265  14.911 -0.2237 -0.2359 -0.4810
15426TIP3    H167769   1.171   1.181  14.955 -2.5311 -0.6189 -1.9289
15426TIP3    H267770   1.266   1.248  14.858  1.0028 -0.5600  1.3100
15427TIP3   OH267771   6.439   1.292   5.431  0.4791  1.1245 -0.3794
15427TIP3    H167772   6.454   1.308   5.524  0.9226 -2.1352  0.2250
15427TIP3    H267773   6.514   1.332   5.387  0.2670  2.6958  0.6078
15428TIP3   OH267774   6.696   2.126  16.039 -0.3233  0.1478 -0.5282
15428TIP3    H167775   6.634   2.099  15.971 -1.4403  1.2543 -0.0051
15428TIP3    H267776   6.642   2.174  16.102  0.6031 -1.1111  1.3281
15429TIP3   OH267777   2.992   3.156  11.739 -0.3500 -0.3052  0.0340
15429TIP3    H167778   2.935   3.143  11.663  0.8438 -0.3975 -0.8692
15429TIP3    H267779   3.077   3.178  11.702  0.0205  0.6445  1.3795
15430TIP3   OH267780   4.923   0.432   4.535  0.6813 -0.2143 -0.6564
15430TIP3    H167781   4.982   0.407   4.606  1.3643  2.1899 -0.2923
15430TIP3    H267782   4.962   0.392   4.457  0.5494 -1.9415  0.1119
15431TIP3   OH267783   1.325   3.315  14.225 -0.0248 -0.3997  0.4504
15431TIP3    H167784   1.415   3.292  14.249  0.2041  0.4667  0.4695
15431TIP3    H267785   1.324   3.410  14.228 -0.6344 -0.3558 -0.6941
15432TIP3   OH267786   6.782   2.863   5.997  0.0959 -0.0390  0.0726
15432TIP3    H167787   6.768   2.952   5.966  0.0921 -0.1571 -0.2659
15432TIP3    H267788   6.733   2.858   6.080  0.8195  0.5377  0.5449
15433TIP3   OH267789   5.791   2.836   5.369  1.0533  0.8112 -0.4187
15433TIP3    H167790   5.797   2.746   5.336 -0.2079  0.9899 -1.1983
15433TIP3    H267791   5.761   2.827   5.459 -1.4952  0.4619 -1.2059
15434TIP3   OH267792   3.248   4.973   4.434  0.1031 -0.1624  0.4873
15434TIP3    H167793   3.280   4.916   4.364  0.9091  2.1548 -1.1621
15434TIP3    H267794   3.153   4.964   4.431 -0.0665  1.2797 -2.3479
15435TIP3   OH267795   4.035   4.971   3.163 -0.5028 -0.1788 -0.2056
15435TIP3    H167796   3.949   5.004   3.135 -0.9919 -1.2644 -0.0216
15435TIP3    H267797   4.082   5.050   3.192 -1.8525  0.3099  0.7760
15436TIP3   OH267798   2.746   0.505   3.789  0.0062  0.0434 -0.0858
15436TIP3    H167799   2.756   0.426   3.736 -3.3582 -1.7404  1.5986
15436TIP3    H267800   2.665   0.545   3.757 -0.4849  0.5392  1.6757
15437TIP3   OH267801   0.666   2.896  13.154  0.5127  0.2187  0.8726
15437TIP3    H167802   0.716   2.922  13.231  0.1673  1.8050  0.6084
15437TIP3    H267803   0.689   2.804  13.139  3.2515  0.8206  0.8406
15438TIP3   OH267804   5.622   4.198   5.832  0.0952  0.1265 -0.1731
15438TIP3    H167805   5.651   4.212   5.923 -0.9156  0.3014  0.1396
15438TIP3    H267806   5.528   4.212   5.835  0.0856  0.3842 -1.3158
15439TIP3   OH267807   5.546   1.223  12.318 -0.1674  0.5111  0.2358
15439TIP3    H167808   5.624   1.179  12.350 -0.1690 -1.0177 -1.6677
15439TIP3    H267809   5.536   1.300  12.374  2.6275  0.6773  0.6131
15440TIP3   OH267810   5.248   1.330   4.398 -0.5443 -0.9468 -0.0146
15440TIP3    H167811   5.210   1.397   4.340  0.0337 -1.5546 -1.1414
15440TIP3    H267812   5.184   1.321   4.469 -0.1529  1.5650  0.7831
15441TIP3   OH267813   6.813   2.001   2.687 -0.5627  0.3860  0.0560
15441TIP3    H167814   6.760   1.934   2.645 -1.4760  1.0039  0.1936
15441TIP3    H267815   6.756   2.078   2.692 -0.1746  0.6037  1.6277
15442TIP3   OH267816   1.769   2.553   3.368 -0.3794 -0.1427  0.5776
15442TIP3    H167817   1.848   2.522   3.413 -0.9938 -1.4542  0.8005
15442TIP3    H267818   1.725   2.473   3.339 -0.8774  0.6194 -0.8604
15443TIP3   OH267819   4.690   5.740   1.916  0.0110 -0.7827  0.8502
15443TIP3    H167820   4.698   5.648   1.938 -1.4280 -0.5425  2.5471
15443TIP3    H267821   4.745   5.750   1.837  2.7000 -2.4062  2.3400
15444TIP3   OH267822   1.509   2.385   5.479  0.0827 -0.5722 -0.3462
15444TIP3    H167823   1.513   2.479   5.494  1.3373 -0.8813  1.6488
15444TIP3    H267824   1.576   2.368   5.413 -0.1818 -0.0790 -0.7487
15445TIP3   OH267825   4.326   4.643  13.014  0.7512  0.0366 -0.0942
15445TIP3    H167826   4.336   4.634  13.109 -0.2727  1.0149  0.1206
15445TIP3    H267827   4.309   4.553  12.984 -1.9611  0.0668  1.0563
15446TIP3   OH267828   5.842   2.763  15.061  0.2356  0.7101  0.5150
15446TIP3    H167829   5.804   2.679  15.036  1.2089  0.8227 -1.5826
15446TIP3    H267830   5.776   2.827  15.037 -0.0522  0.6308  1.0790
15447TIP3   OH267831   3.423   0.598   1.582  0.0463 -0.3259  0.5758
15447TIP3    H167832   3.414   0.513   1.538 -1.8389 -0.5925  1.3583
15447TIP3    H267833   3.342   0.607   1.632  1.9000  0.1030  3.7374
15448TIP3   OH267834   0.263   2.034  16.952  0.3288 -0.2147 -0.5914
15448TIP3    H167835   0.195   2.099  16.934  0.5314  0.1295 -0.1473
15448TIP3    H267836   0.229   1.986  17.028  1.1076  0.7517  0.3983
15449TIP3   OH267837   0.382   5.432   0.452  0.0529  0.2028  0.3181
15449TIP3    H167838   0.326   5.496   0.408 -0.2523 -0.9293 -1.0304
15449TIP3    H267839   0.380   5.457   0.544 -3.4989 -0.3194  0.5121
15450TIP3   OH267840   5.266   6.378   4.761 -0.0642 -0.1226 -0.8478
15450TIP3    H167841   5.227   6.320   4.695  2.9621 -1.6281 -1.4858
15450TIP3    H267842   5.329   6.323   4.807 -0.7260  1.3993  2.1269
15451TIP3   OH267843   2.920   5.844  12.415 -0.8617  0.1080 -0.4136
15451TIP3    H167844   2.864   5.771  12.443  0.2992 -0.8850 -0.5935
15451TIP3    H267845   2.877   5.922  12.451 -0.8183 -0.8573  1.9461
15452TIP3   OH267846   1.416   1.546  13.282 -0.5984 -0.7191 -0.1985
15452TIP3    H167847   1.331   1.546  13.237 -0.5763  0.5535 -0.2870
15452TIP3    H267848   1.424   1.458  13.319 -0.8108 -1.6951 -2.3137
15453TIP3   OH267849   3.109   3.192  13.360 -0.8048  0.4451  0.2919
15453TIP3    H167850   3.145   3.246  13.290  1.7754 -0.8198  0.5161
15453TIP3    H267851   3.044   3.137  13.317  0.2905  0.1154 -1.0084
15454TIP3   OH267852   3.280   3.343   2.153  0.6665  0.4022 -0.2827
15454TIP3    H167853   3.369   3.313   2.176  0.8083  1.8968  1.3283
15454TIP3    H267854   3.275   3.432   2.189 -1.6860  0.1376  0.1827
15455TIP3   OH267855   6.014   2.517   4.466 -0.7719  0.6967 -0.3776
15455TIP3    H167856   6.045   2.513   4.376  4.4444 -0.5575  1.1308
15455TIP3    H267857   5.977   2.430   4.483  1.1537 -0.2158 -0.5764
15456TIP3   OH267858   0.963   5.764   4.735  0.2126  0.0794 -0.3366
15456TIP3    H167859   0.871   5.791   4.734  0.3884  0.8054  0.9548
15456TIP3    H267860   0.961   5.673   4.764  0.0080  0.9816  2.9746
15457TIP3   OH267861   6.453   0.473   5.786  0.0289 -0.1025  0.0395
15457TIP3    H167862   6.396   0.451   5.860  0.7747 -1.2848  0.2978
15457TIP3    H267863   6.404   0.445   5.709 -0.1845 -0.1160  0.1772
15458TIP3   OH267864   6.560   4.762   3.273 -0.0037 -0.1809  0.6878
15458TIP3    H167865   6.582   4.710   3.350 -0.0120  0.4736  1.1384
15458TIP3    H267866   6.532   4.847   3.308  0.2477  0.2126 -0.0454
15459TIP3   OH267867   1.400   0.369  15.951 -0.7886 -0.1972 -0.4264
15459TIP3    H167868   1.325   0.399  15.901  0.8644  1.1041 -2.2945
15459TIP3    H267869   1.467   0.352  15.885  1.2281  0.7245  1.2760
15460TIP3   OH267870   4.588   1.888  13.774  0.2405  0.2570  0.1605
15460TIP3    H167871   4.527   1.927  13.711  0.9578 -0.7861 -1.2378
15460TIP3    H267872   4.594   1.796  13.747  3.2241  0.5338 -0.4708
15461TIP3   OH267873   3.566   2.664  14.495  0.3748  0.2758  0.2399
15461TIP3    H167874   3.485   2.631  14.456  0.8408 -0.7387  0.1146
15461TIP3    H267875   3.562   2.759  14.482  0.9028 -0.0333 -3.1271
15462TIP3   OH267876   2.356   3.920   5.846  0.1815 -0.2796 -0.2266
15462TIP3    H167877   2.372   4.014   5.839 -1.1448  0.0784  0.9879
15462TIP3    H267878   2.271   3.907   5.803 -1.0857 -0.3746  2.1364
15463TIP3   OH267879   2.972   4.742   3.656  0.0691  0.0180 -0.4742
15463TIP3    H167880   2.891   4.793   3.656 -0.0183 -0.1072 -0.0090
15463TIP3    H267881   3.016   4.766   3.738 -0.0998 -0.8260 -0.1156
15464TIP3   OH267882   5.760   1.738  16.272 -0.1348  0.3573  0.1578
15464TIP3    H167883   5.761   1.653  16.228 -1.6905  0.7279 -0.6674
15464TIP3    H267884   5.819   1.727  16.347 -2.5801 -2.4620  1.9050
15465TIP3   OH267885   3.829   3.220   1.611  0.0457 -0.1896 -0.1650
15465TIP3    H167886   3.909   3.170   1.592 -0.1301 -0.8650  0.8205
15465TIP3    H267887   3.836   3.297   1.555  1.7503  0.1353  0.4164
15466TIP3   OH267888   3.894   4.220  11.226  0.0955  0.4229  0.0461
15466TIP3    H167889   3.952   4.264  11.164 -0.3007  1.0266  0.0964
15466TIP3    H267890   3.930   4.239  11.312 -0.0058  0.5516  0.0608
15467TIP3   OH267891   3.971   0.514  10.820  0.2399  0.1642 -0.2574
15467TIP3    H167892   3.920   0.503  10.901  1.0997  1.6984  0.5286
15467TIP3    H267893   4.058   0.539  10.849  0.5213  0.9510 -1.6749
15468TIP3   OH267894   0.802   5.044   4.325  0.3328  0.4252  0.0393
15468TIP3    H167895   0.858   4.967   4.318 -1.2220 -0.8474  1.0594
15468TIP3    H267896   0.828   5.084   4.409 -0.3188 -0.2002  0.5433
15469TIP3   OH267897   5.462   4.290   5.470 -0.5910 -0.1247 -0.0331
15469TIP3    H167898   5.441   4.197   5.478 -0.8563  0.0007  0.8317
15469TIP3    H267899   5.456   4.308   5.376  1.4487 -1.4251 -0.4664
15470TIP3   OH267900   4.810   5.957  15.383  0.1548 -0.4015 -1.0880
15470TIP3    H167901   4.860   6.003  15.451 -1.7965  0.1634  0.0460
15470TIP3    H267902   4.720   5.984  15.398 -0.8241 -3.1348 -1.6176
15471TIP3   OH267903   2.046   6.220   0.989 -0.2093  0.5032 -0.1067
15471TIP3    H167904   1.981   6.242   0.922 -0.4298  0.9203  0.2328
15471TIP3    H267905   2.076   6.132   0.966 -4.1021 -1.6929  2.0985
15472TIP3   OH267906   3.247   1.472   1.297  0.2287 -0.1346 -0.5634
15472TIP3    H167907   3.267   1.432   1.213 -0.6382  1.9455 -1.8164
15472TIP3    H267908   3.158   1.443   1.317 -0.0237  0.3510 -0.9735
15473TIP3   OH267909   5.626   4.749  16.683 -0.4808 -0.3159  0.0351
15473TIP3    H167910   5.558   4.682  16.679 -1.0359 -0.4152  4.9554
15473TIP3    H267911   5.579   4.832  16.687 -0.2273 -0.2161  1.1889
15474TIP3   OH267912   4.270   0.993   1.225  0.8346  0.1031 -0.1550
15474TIP3    H167913   4.198   0.943   1.263  1.0056 -0.4088 -0.5015
15474TIP3    H267914   4.234   1.028   1.143  0.6262  0.7876  0.2233
15475TIP3   OH267915   0.766   6.482   5.521 -0.0482 -0.1588 -0.1736
15475TIP3    H167916   0.703   6.554   5.515 -0.8786 -0.5639  2.2970
15475TIP3    H267917   0.818   6.502   5.600 -0.1021 -2.0703  0.4069
15476TIP3   OH267918   2.183   5.490   2.373  0.3648  0.0814  0.0220
15476TIP3    H167919   2.221   5.528   2.294 -0.3262  0.1008 -0.3021
15476TIP3    H267920   2.144   5.565   2.419 -2.6202 -0.3865 -1.5041
15477TIP3   OH267921   5.268   3.553   5.379 -0.2771  0.2764  0.2997
15477TIP3    H167922   5.222   3.545   5.463  0.0101  0.5662  0.4899
15477TIP3    H267923   5.199   3.558   5.314 -0.4984 -0.7872  0.4340
15478TIP3   OH267924   2.111   3.515   5.385  0.2404  0.0347 -0.4662
15478TIP3    H167925   2.024   3.549   5.365 -0.2196 -0.0980  1.1743
15478TIP3    H267926   2.150   3.580   5.444  0.8252 -0.4292 -0.3271
15479TIP3   OH267927   1.329   0.100   2.482 -0.4475 -0.3874  0.1482
15479TIP3    H167928   1.391   0.033   2.454 -2.0040 -1.5081 -0.7419
15479TIP3    H267929   1.315   0.082   2.575 -0.1316 -0.6828  0.1397
15480TIP3   OH267930   6.433   6.297  15.430  0.4834 -0.3667 -0.0054
15480TIP3    H167931   6.510   6.255  15.391 -0.4487 -1.0921 -1.1543
15480TIP3    H267932   6.382   6.224  15.466 -0.0108  0.0236  0.0865
15481TIP3   OH267933   4.493   0.403   3.286  0.6258 -0.7107 -0.2871
15481TIP3    H167934   4.478   0.478   3.229  0.5969  1.3484  2.2319
15481TIP3    H267935   4.553   0.435   3.353 -0.6775 -2.3999  1.8415
15482TIP3   OH267936   0.466   4.119   5.866  0.4986 -0.1861  0.4875
15482TIP3    H167937   0.537   4.097   5.926  0.3237  0.8780  1.1140
15482TIP3    H267938   0.403   4.166   5.921 -0.0926 -0.0056 -0.3404
15483TIP3   OH267939   1.858   3.083  13.865  0.4004  0.1916 -0.2501
15483TIP3    H167940   1.915   3.159  13.853  1.3247 -0.0176  2.3255
15483TIP3    H267941   1.873   3.030  13.787  1.7429  1.3883 -0.8637
15484TIP3   OH267942   1.159   2.736   2.886  0.0667  0.3002 -0.0032
15484TIP3    H167943   1.189   2.766   2.800  0.5746  0.3860  0.1990
15484TIP3    H267944   1.070   2.769   2.893  0.0637  0.3961 -0.4484
15485TIP3   OH267945   2.549   0.531   1.105  0.2421 -0.1702  0.2169
15485TIP3    H167946   2.567   0.474   1.030  1.6887 -0.9674  1.1310
15485TIP3    H267947   2.628   0.584   1.114 -0.2741  0.5319  0.6529
15486TIP3   OH267948   2.446   2.774  16.271 -0.0672  0.0279  0.7412
15486TIP3    H167949   2.530   2.763  16.315 -0.7199 -0.4831  1.9035
15486TIP3    H267950   2.467   2.823  16.192  1.0522  1.6616  1.9753
15487TIP3   OH267951   3.401   3.344  13.383  0.2321  0.1939  0.9104
15487TIP3    H167952   3.484   3.381  13.353 -0.4152  1.2467  0.3209
15487TIP3    H267953   3.365   3.301  13.306  0.0351  0.1247  1.0421
15488TIP3   OH267954   3.685   0.892  11.784 -0.1134  0.0660 -0.2966
15488TIP3    H167955   3.717   0.955  11.719 -0.3102  0.6372  0.1518
15488TIP3    H267956   3.702   0.806  11.745  2.7702  0.2803  0.2289
15489TIP3   OH267957   5.099   2.476   2.544 -0.6200  0.1106 -0.3632
15489TIP3    H167958   5.088   2.490   2.638 -1.5436 -2.3632 -0.0342
15489TIP3    H267959   5.017   2.434   2.516  0.7001 -1.7272 -1.7036
15490TIP3   OH267960   3.805   2.926  13.413  0.0718 -0.4824 -0.0063
15490TIP3    H167961   3.787   2.921  13.508 -1.6754  0.0344 -0.2629
15490TIP3    H267962   3.751   2.856  13.376 -0.4387  0.2855 -0.7438
15491TIP3   OH267963   0.801   2.012  11.797 -1.0119 -0.3587  0.5018
15491TIP3    H167964   0.861   2.051  11.861 -2.6435  3.1743  0.0993
15491TIP3    H267965   0.778   1.927  11.836  1.0779 -0.0845  2.6085
15492TIP3   OH267966   1.235   1.667  11.107 -0.1847  0.0963 -0.0929
15492TIP3    H167967   1.317   1.619  11.095  1.1249  1.5362  2.2456
15492TIP3    H267968   1.221   1.668  11.202 -2.2195  1.0228 -0.3482
15493TIP3   OH267969   3.829   3.534  16.877  0.1158  0.6344 -0.4043
15493TIP3    H167970   3.798   3.569  16.794  2.7823 -0.1877 -1.8640
15493TIP3    H267971   3.806   3.441  16.874 -1.3123  0.9112  0.6272
15494TIP3   OH267972   0.420   3.055  15.952 -0.4718 -0.0262 -0.0859
15494TIP3    H167973   0.468   3.136  15.968 -0.8634  0.2851 -0.4743
15494TIP3    H267974   0.482   3.000  15.904  0.4198 -0.6466  1.6596
15495TIP3   OH267975   2.263   1.768   0.924  0.4228 -0.0135 -0.2603
15495TIP3    H167976   2.290   1.720   1.003  2.0614 -0.4816 -1.0614
15495TIP3    H267977   2.335   1.754   0.862  0.2541  2.2489 -1.0520
15496TIP3   OH267978   0.297   3.150   5.171 -0.0387 -0.0452  0.0047
15496TIP3    H167979   0.255   3.102   5.099  0.1526  1.2667 -1.0135
15496TIP3    H267980   0.227   3.166   5.234 -0.2399 -1.0815  0.0611
15497TIP3   OH267981   6.020   2.496  11.316 -0.2344  0.2582 -0.3556
15497TIP3    H167982   6.104   2.487  11.271  0.2861  0.1742  0.6072
15497TIP3    H267983   6.035   2.458  11.403 -0.8207  1.5937  0.3678
15498TIP3   OH267984   1.936   2.800  15.429 -0.6698  0.1149  0.3281
15498TIP3    H167985   1.842   2.783  15.435 -0.9348  1.7856  1.8791
15498TIP3    H267986   1.960   2.831  15.516  1.3082 -0.1354 -0.0851
15499TIP3   OH267987   3.386   5.736  11.399  0.4591 -0.1650  0.1600
15499TIP3    H167988   3.430   5.815  11.367  2.7422 -1.3979  0.0026
15499TIP3    H267989   3.418   5.666  11.341 -0.7783 -1.3499  0.8566
15500TIP3   OH267990   5.423   0.627  13.247 -0.1817  0.2303  0.6547
15500TIP3    H167991   5.427   0.723  13.243 -0.6048  0.2800  1.2657
15500TIP3    H267992   5.416   0.608  13.341  0.6398 -0.4323  0.5902
15501TIP3   OH267993   0.916   3.985  16.729 -0.6049 -0.2053  0.0892
15501TIP3    H167994   0.979   3.968  16.658 -0.8834  1.8174 -0.7173
15501TIP3    H267995   0.969   3.993  16.808 -0.3694 -3.4257  0.3687
15502TIP3   OH267996   6.228   5.955   4.470 -0.1073 -0.2227 -0.3725
15502TIP3    H167997   6.179   5.976   4.549 -0.8797 -0.6762 -0.7194
15502TIP3    H267998   6.204   5.864   4.451  0.6893 -0.3714 -0.6827
15503TIP3   OH267999   3.541   3.154  13.757 -0.2836 -0.1941  0.1433
15503TIP3    H168000   3.486   3.076  13.752 -0.5313  0.0688 -1.9434
15503TIP3    H268001   3.482   3.223  13.786 -0.0341 -0.7494  2.1398
15504TIP3   OH268002   6.561   0.506  15.195  0.4885 -0.3207  0.0035
15504TIP3    H168003   6.592   0.478  15.109  0.6020 -0.1623 -0.0094
15504TIP3    H268004   6.466   0.508  15.187  0.4867 -0.5608 -0.0380
15505TIP3   OH268005   5.435   6.317  17.027 -0.0654 -0.0066 -0.0467
15505TIP3    H168006   5.386   6.391  16.992  1.1989  1.2772  0.7826
15505TIP3    H268007   5.454   6.263  16.951  0.9137  1.6908 -1.0595
15506TIP3   OH268008   5.843   3.031  12.071  0.1342  0.3492  0.4607
15506TIP3    H168009   5.880   3.088  12.003  1.7027 -0.3178  0.6941
15506TIP3    H268010   5.839   2.944  12.030 -0.2912  0.2244  0.7591
15507TIP3   OH268011   2.529   1.869  11.418 -0.5001  0.4344  0.0784
15507TIP3    H168012   2.605   1.818  11.388 -1.4385 -1.2933  0.4655
15507TIP3    H268013   2.556   1.960  11.410  1.5060 -0.1303 -0.0536
15508TIP3   OH268014   0.153   0.709  16.593 -0.2460 -0.0224 -0.4214
15508TIP3    H168015   0.080   0.772  16.593 -0.8107 -0.6494  0.3355
15508TIP3    H268016   0.120   0.635  16.542 -0.1125 -0.2717 -0.1469
15509TIP3   OH268017   3.630   3.490   4.334 -0.2065 -0.5540  0.3954
15509TIP3    H168018   3.722   3.470   4.316 -0.1826 -2.4157  2.1921
15509TIP3    H268019   3.582   3.420   4.291 -0.8485  0.5420 -0.7304
15510TIP3   OH268020   0.590   2.512  11.269  0.1571  0.4989 -0.4550
15510TIP3    H168021   0.624   2.582  11.213  1.2911  1.2121  1.0221
15510TIP3    H268022   0.667   2.483  11.319 -0.4643 -1.2623 -0.4733
15511TIP3   OH268023   1.341   5.943   0.697 -0.5158 -0.2876 -0.0048
15511TIP3    H168024   1.276   5.940   0.627  0.4422 -1.5425 -0.8920
15511TIP3    H268025   1.384   5.858   0.693  1.3521  0.5913  0.3654
15512TIP3   OH268026   3.576   4.745  15.039  0.1222  0.1027  0.2505
15512TIP3    H168027   3.633   4.805  14.991 -1.3824  0.2562 -1.4670
15512TIP3    H268028   3.503   4.799  15.068 -1.4375 -0.8627 -1.6316
15513TIP3   OH268029   0.923   3.174   1.446  0.8080 -0.3534 -0.4637
15513TIP3    H168030   0.969   3.184   1.529  0.9408 -2.2731 -0.2695
15513TIP3    H268031   0.888   3.262   1.428  1.1030  0.2008  1.4064
15514TIP3   OH268032   4.184   1.674  15.145  0.3617 -0.1399 -0.1748
15514TIP3    H168033   4.200   1.722  15.227 -0.9487 -1.1063  0.6763
15514TIP3    H268034   4.180   1.742  15.078  1.8964  0.6349  0.4679
15515TIP3   OH268035   3.638   0.748   4.710  0.9380 -0.2946 -0.4465
15515TIP3    H168036   3.689   0.719   4.635  0.4027  0.5152 -1.1410
15515TIP3    H268037   3.703   0.781   4.772  1.3716 -0.8794 -0.5820
15516TIP3   OH268038   1.607   3.505  15.215 -0.3717 -0.4037  0.1604
15516TIP3    H168039   1.589   3.464  15.131  1.3134 -2.1713  0.5839
15516TIP3    H268040   1.521   3.527  15.250 -1.1101  1.3700 -2.4174
15517TIP3   OH268041   1.033   2.419   3.153 -0.2627  0.7068  0.5322
15517TIP3    H168042   1.071   2.439   3.068 -0.0872 -1.7605 -0.0555
15517TIP3    H268043   0.955   2.366   3.132 -0.3985  0.3427  1.8782
15518TIP3   OH268044   1.109   1.630  12.895 -0.2142  0.0638 -0.3475
15518TIP3    H168045   1.140   1.614  12.806  0.6125  2.9871 -0.6734
15518TIP3    H268046   1.080   1.721  12.895  3.4439  1.5340  3.2779
15519TIP3   OH268047   1.375   3.733  15.716 -0.2338  0.2719  0.3532
15519TIP3    H168048   1.361   3.762  15.806 -0.5905 -1.7221  1.0055
15519TIP3    H268049   1.286   3.725  15.680 -0.0794  1.4328 -0.3326
15520TIP3   OH268050   0.085   4.297  16.876  0.1852  0.1755  1.0558
15520TIP3    H168051   0.001   4.317  16.834  0.9646  2.0867  0.3349
15520TIP3    H268052   0.120   4.382  16.904  2.0716 -0.5246  0.9839
15521TIP3   OH268053   4.409   4.184   5.522 -0.2638  0.6013  0.2067
15521TIP3    H168054   4.463   4.107   5.538 -0.9370 -0.5279 -2.5015
15521TIP3    H268055   4.467   4.244   5.474 -0.6678  0.3990 -0.5501
15522TIP3   OH268056   3.530   1.035   2.552 -0.1807 -0.2936  0.1322
15522TIP3    H168057   3.467   1.063   2.618 -0.9077 -1.1754 -0.1654
15522TIP3    H268058   3.498   1.072   2.470 -0.8603 -1.5002 -0.1769
15523TIP3   OH268059   0.702   2.120   1.144 -0.7896  0.4204  0.5477
15523TIP3    H168060   0.610   2.130   1.120 -0.9422 -0.0314  0.9272
15523TIP3    H268061   0.735   2.051   1.086 -0.9178 -0.0143  0.9761
15524TIP3   OH268062   1.777   4.878  11.475  0.3173  0.3116  0.3784
15524TIP3    H168063   1.755   4.820  11.547  2.0356 -1.4072 -0.3813
15524TIP3    H268064   1.705   4.941  11.471 -2.3625 -2.5153  0.4311
15525TIP3   OH268065   5.615   5.721   0.194  0.4194 -0.0960  0.2667
15525TIP3    H168066   5.591   5.638   0.235 -1.5757  1.5367  2.6397
15525TIP3    H268067   5.642   5.696   0.105  2.0181 -3.4795  1.4996
15526TIP3   OH268068   5.990   6.754  12.093 -0.1695  0.7411 -0.4120
15526TIP3    H168069   5.954   6.725  12.177 -0.0834  0.6284 -0.4134
15526TIP3    H268070   6.037   6.678  12.060  1.5179  1.3804  0.3863
15527TIP3   OH268071   6.701   4.868  12.932  0.6393  0.0812 -0.4704
15527TIP3    H168072   6.729   4.907  12.849 -0.4740  0.2433 -0.7770
15527TIP3    H268073   6.725   4.933  12.999  0.1459  0.6334 -0.8259
15528TIP3   OH268074   1.928   6.184  15.128 -0.5022 -0.1602  0.0138
15528TIP3    H168075   1.944   6.147  15.041 -0.5712 -0.2573  0.0416
15528TIP3    H268076   1.944   6.278  15.118 -0.3707 -0.1914 -0.0685
15529TIP3   OH268077   2.389   4.069   4.092  0.6172  0.4997  0.2755
15529TIP3    H168078   2.438   4.020   4.159  0.2563  0.4120  0.4822
15529TIP3    H268079   2.456   4.107   4.036  0.8934 -1.0352 -0.4748
15530TIP3   OH268080   5.536   1.294   1.131 -0.3097 -0.1965 -0.6035
15530TIP3    H168081   5.458   1.258   1.174 -0.0272 -0.7912 -0.5721
15530TIP3    H268082   5.576   1.351   1.196 -0.6936  0.0791 -0.6061
15531TIP3   OH268083   5.563   1.631   0.574  0.0588  0.4609  0.5440
15531TIP3    H168084   5.492   1.640   0.510  0.2447 -0.0829  0.2599
15531TIP3    H268085   5.542   1.551   0.621  0.6529  0.1267  0.2455
15532TIP3   OH268086   5.842   2.164  12.207 -0.3867  0.2604 -0.3173
15532TIP3    H168087   5.901   2.231  12.174  0.7014 -0.5381 -0.0361
15532TIP3    H268088   5.888   2.081  12.192 -1.2088 -0.3446  0.3842
15533TIP3   OH268089   0.383   5.469   0.720  0.7836 -0.0760  0.6683
15533TIP3    H168090   0.316   5.432   0.777  1.7691 -0.5667  1.5443
15533TIP3    H268091   0.460   5.477   0.775  1.0190  2.0045  0.1158
15534TIP3   OH268092   6.039   0.457   5.586  0.7372 -0.6363  0.0789
15534TIP3    H168093   6.133   0.470   5.577  0.5215  0.1598 -1.3669
15534TIP3    H268094   6.017   0.393   5.519 -0.3956  2.6987 -3.0778
15535TIP3   OH268095   3.261   5.741  13.461 -0.6946 -0.3069 -0.2113
15535TIP3    H168096   3.326   5.675  13.486 -0.0692  0.4244  0.1221
15535TIP3    H268097   3.177   5.698  13.476 -0.3468 -0.2722  2.2084
15536TIP3   OH268098   0.031   2.147  15.379  0.0453  0.1809  0.0248
15536TIP3    H168099  -0.029   2.080  15.413  0.5349 -0.5806 -0.5638
15536TIP3    H268100   0.116   2.102  15.376 -0.0283  0.1171 -2.4428
15537TIP3   OH268101   4.230   2.014   0.853 -0.0473  0.1266 -0.1360
15537TIP3    H168102   4.246   2.032   0.760 -0.2981 -1.6059 -0.5628
15537TIP3    H268103   4.138   1.987   0.857  0.0035  0.0417  0.5779
15538TIP3   OH268104   5.076   6.134  13.664  0.6772  0.2300  0.0246
15538TIP3    H168105   5.137   6.205  13.685  1.0987  0.1006 -0.7417
15538TIP3    H268106   4.997   6.179  13.631  0.6685  0.3668  0.2303
15539TIP3   OH268107   2.402   4.067   0.020  0.3712 -0.5415  0.1817
15539TIP3    H168108   2.416   3.976  -0.008 -0.3128 -0.5399 -0.1890
15539TIP3    H268109   2.320   4.063   0.071 -0.4309  0.0932 -1.0190
15540TIP3   OH268110   1.689   0.444   6.273 -0.6347  0.4069  0.2514
15540TIP3    H168111   1.656   0.409   6.356  1.8985 -3.0766  0.0183
15540TIP3    H268112   1.617   0.433   6.211 -1.4634 -0.0962  1.2821
15541TIP3   OH268113   1.147   0.139  16.214  0.1637 -0.1844 -0.0164
15541TIP3    H168114   1.119   0.216  16.164 -0.6556 -0.5379 -0.1300
15541TIP3    H268115   1.213   0.097  16.159 -0.2555 -0.2117 -0.5100
15542TIP3   OH268116   6.271   5.842   2.554 -0.1617 -0.1121  0.5615
15542TIP3    H168117   6.270   5.935   2.574 -0.2827  0.3246 -1.3058
15542TIP3    H268118   6.297   5.800   2.636  2.4518  1.7340  0.7894
15543TIP3   OH268119   3.489   1.830   1.885 -0.1081  0.0287 -0.0197
15543TIP3    H168120   3.495   1.916   1.844 -3.7141  0.4334 -0.0769
15543TIP3    H268121   3.416   1.838   1.947  0.6620 -2.5032  1.3847
15544TIP3   OH268122   0.637   1.384  15.653 -0.1573  0.3242 -0.5194
15544TIP3    H168123   0.610   1.422  15.570 -0.4313  0.3814 -0.4059
15544TIP3    H268124   0.662   1.294  15.632 -0.6683  0.1982 -0.5865
15545TIP3   OH268125   4.629   4.160  13.318  0.0981  0.0274 -0.4263
15545TIP3    H168126   4.606   4.207  13.398  3.3374  0.1979  0.5623
15545TIP3    H268127   4.595   4.071  13.332  1.0303 -0.0906  1.4464
15546TIP3   OH268128   6.095   0.226  13.018  0.3462  0.4570  0.1293
15546TIP3    H168129   6.123   0.179  12.939 -0.1689  1.0489 -0.4146
15546TIP3    H268130   6.002   0.244  13.004  0.0078 -0.2776  1.3056
15547TIP3   OH268131   6.131   1.656  14.843  0.3977 -0.3577 -0.5329
15547TIP3    H168132   6.149   1.689  14.755  0.9847 -0.2036 -0.3614
15547TIP3    H268133   6.187   1.579  14.851 -0.7676 -1.2695 -0.8362
15548TIP3   OH268134   4.272   1.586   2.176 -0.2916 -0.4572  0.0772
15548TIP3    H168135   4.251   1.633   2.096  1.3151  1.4847  0.7239
15548TIP3    H268136   4.215   1.626   2.242  1.6873  1.3318  0.8084
15549TIP3   OH268137   4.622   5.002   3.288  0.0875 -0.4419 -0.1939
15549TIP3    H168138   4.579   5.037   3.366  0.5312  1.9604 -0.9377
15549TIP3    H268139   4.714   5.028   3.298  0.1267  0.0095 -1.5622
15550TIP3   OH268140   5.572   3.016  15.839  0.3380 -0.4718  0.5955
15550TIP3    H168141   5.637   3.025  15.770  0.3990  1.1896  0.8308
15550TIP3    H268142   5.488   3.016  15.794  0.4431 -1.4883  0.3792
15551TIP3   OH268143   6.135   3.096   5.527  0.2796 -0.0997  0.3021
15551TIP3    H168144   6.087   3.174   5.553 -0.2957 -0.7610  1.2867
15551TIP3    H268145   6.123   3.034   5.599  1.3457 -0.8373 -0.1169
15552TIP3   OH268146   1.152   5.944  13.718  0.7313 -0.5222  0.0458
15552TIP3    H168147   1.211   5.897  13.778 -1.4038 -2.8678  0.5011
15552TIP3    H268148   1.118   5.876  13.660  0.0444  1.1008 -1.5398
15553TIP3   OH268149   4.194   1.504  15.630  0.5072 -0.9786  0.2642
15553TIP3    H168150   4.131   1.516  15.558  0.0936  1.1680  0.9266
15553TIP3    H268151   4.277   1.536  15.595  0.4871 -0.6852  0.4874
15554TIP3   OH268152   3.626   5.414   1.011  0.2917 -0.2422  0.2809
15554TIP3    H168153   3.556   5.440   1.070 -0.2851  1.3348 -1.0255
15554TIP3    H268154   3.626   5.318   1.014 -1.1822 -0.2418  1.1528
15555TIP3   OH268155   0.083   3.693   6.503  0.0621  0.7467  0.0342
15555TIP3    H168156   0.068   3.685   6.597  0.7280  2.9694  0.3841
15555TIP3    H268157  -0.004   3.705   6.465 -0.2519 -0.5962  0.2725
15556TIP3   OH268158   2.500   1.245  15.370 -0.3393  0.3533  0.4582
15556TIP3    H168159   2.562   1.315  15.388 -1.1789  1.3078 -0.2900
15556TIP3    H268160   2.555   1.172  15.342  0.5761  0.5445  1.6383
15557TIP3   OH268161   0.220   4.745  13.296  0.5799  0.5287 -0.2851
15557TIP3    H168162   0.284   4.816  13.298 -1.6388  2.6256  0.7425
15557TIP3    H268163   0.203   4.725  13.388 -1.3987  1.1860 -0.4626
15558TIP3   OH268164   4.491   0.928  16.168 -0.3960  0.1479  0.2376
15558TIP3    H168165   4.425   0.875  16.213 -0.0927 -0.1441  0.3419
15558TIP3    H268166   4.572   0.878  16.176 -0.3350  0.0873 -0.6271
15559TIP3   OH268167   6.774   0.398   3.071 -0.4924 -0.0627  0.0785
15559TIP3    H168168   6.782   0.303   3.081 -0.2064 -0.1782 -1.0973
15559TIP3    H268169   6.823   0.434   3.145 -0.7159 -0.8269  0.6125
15560TIP3   OH268170   4.628   6.773  15.542 -0.1217 -0.3004 -0.1880
15560TIP3    H168171   4.711   6.778  15.590  0.0419 -2.5985 -0.1336
15560TIP3    H268172   4.646   6.816  15.458  1.1778 -0.8942 -0.2313
15561TIP3   OH268173   1.330   0.955   5.098  0.0536  0.3489  0.6127
15561TIP3    H168174   1.323   1.033   5.153 -0.8366  1.3368 -0.8125
15561TIP3    H268175   1.243   0.946   5.059  0.1263 -1.4183  0.8028
15562TIP3   OH268176   1.405   0.920   0.929  0.3880  0.9050 -0.6337
15562TIP3    H168177   1.329   0.961   0.887  1.0936  0.7771 -2.0969
15562TIP3    H268178   1.442   0.864   0.861 -0.0564 -1.5834  1.0357
15563TIP3   OH268179   5.049   2.778   5.446 -0.6234 -0.0716  0.2156
15563TIP3    H168180   5.005   2.778   5.361  1.3578  0.1498 -0.8781
15563TIP3    H268181   5.043   2.869   5.476 -0.0604  0.1900 -0.4218
15564TIP3   OH268182   3.191   4.062   2.717  0.0655 -0.7065  0.7140
15564TIP3    H168183   3.159   4.023   2.636 -2.1799  2.1859  0.0263
15564TIP3    H268184   3.266   4.115   2.690 -0.9090  0.5498  0.4082
15565TIP3   OH268185   4.541   3.280   1.958 -0.2879 -0.1589  0.0098
15565TIP3    H168186   4.630   3.243   1.953 -0.4984 -0.6702 -0.0605
15565TIP3    H268187   4.517   3.296   1.867  0.3130  1.4264  0.1080
15566TIP3   OH268188   0.169   2.174   6.399  0.1710 -0.0507  0.0908
15566TIP3    H168189   0.079   2.142   6.392  0.2248  0.0155 -1.0279
15566TIP3    H268190   0.171   2.221   6.482 -0.9697  0.3934 -0.1210
15567TIP3   OH268191   6.263   2.503  13.876  0.9051 -0.3452  0.2398
15567TIP3    H168192   6.296   2.558  13.947 -0.0593 -1.3051  1.5032
15567TIP3    H268193   6.260   2.560  13.800  3.6914  0.2579  0.4825
15568TIP3   OH268194   4.229   6.516   1.371 -0.7027 -0.4543 -0.2448
15568TIP3    H168195   4.225   6.430   1.413  1.3989 -0.1995  0.5852
15568TIP3    H268196   4.269   6.573   1.436  0.4175  0.5227 -1.7294
15569TIP3   OH268197   2.560   6.563  10.396  0.4749 -0.3118  0.5732
15569TIP3    H168198   2.615   6.534  10.323 -2.5036 -3.1882 -0.8012
15569TIP3    H268199   2.568   6.658  10.396  3.8925 -0.4611 -0.6506
15570TIP3   OH268200   0.231   3.109  12.816  0.5190 -0.2770 -0.2216
15570TIP3    H168201   0.229   3.204  12.807 -1.7716  0.1114  2.8064
15570TIP3    H268202   0.313   3.091  12.862 -0.7840  0.7798  2.7057
15571TIP3   OH268203   4.387   1.105  15.664 -0.3553 -0.5964 -0.3592
15571TIP3    H168204   4.333   1.119  15.742 -1.4956 -0.9189 -1.0671
15571TIP3    H268205   4.424   1.192  15.645  0.1119 -0.5564  0.6433
15572TIP3   OH268206   2.418   2.044   3.181  0.1743 -0.7670  0.1147
15572TIP3    H168207   2.361   2.117   3.159  3.1869  2.2976  1.5730
15572TIP3    H268208   2.496   2.058   3.127  2.3737 -0.5583  3.1017
15573TIP3   OH268209   4.833   6.675   4.338 -0.0424 -0.0691  0.0731
15573TIP3    H168210   4.844   6.701   4.247  1.0190 -0.8215 -0.0326
15573TIP3    H268211   4.827   6.580   4.335  0.8603 -0.1638  0.8572
15574TIP3   OH268212   5.291   0.894   3.307 -0.1374 -0.2704  0.1597
15574TIP3    H168213   5.303   0.817   3.251  2.5190  0.6753 -0.7557
15574TIP3    H268214   5.213   0.937   3.272  0.8475 -0.2670 -2.2370
15575TIP3   OH268215   0.384   6.519  17.086 -0.1865  0.0370 -0.4158
15575TIP3    H168216   0.387   6.601  17.134 -0.4626 -0.1079 -0.1409
15575TIP3    H268217   0.311   6.529  17.025  0.0640  0.1620 -0.6970
15576TIP3   OH268218   1.809   4.756   5.479 -0.5134 -0.0519  0.6378
15576TIP3    H168219   1.731   4.807   5.455 -0.1918 -0.0732 -0.5246
15576TIP3    H268220   1.814   4.688   5.411  0.2244 -0.3635  1.0026
15577TIP3   OH268221   5.865   1.621  15.041  0.0426 -0.4342 -0.0042
15577TIP3    H168222   5.929   1.692  15.056 -0.1722 -0.5861  2.0035
15577TIP3    H268223   5.788   1.648  15.090 -0.5398 -1.4247 -0.3517
15578TIP3   OH268224   2.126   4.473   4.811  0.1787 -0.4166  0.3308
15578TIP3    H168225   2.170   4.420   4.877 -0.3990 -1.7464 -0.3081
15578TIP3    H268226   2.165   4.445   4.728  0.5099  0.8341  0.0492
15579TIP3   OH268227   0.352   3.090   3.988  0.1929  0.2978  0.5501
15579TIP3    H168228   0.285   3.137   4.038 -2.0500 -2.7106  0.6488
15579TIP3    H268229   0.303   3.036   3.926  2.7039  0.0036 -1.3604
15580TIP3   OH268230   3.133   1.058   2.499 -0.1370 -0.8862  0.2993
15580TIP3    H168231   3.055   1.113   2.491 -1.4360 -2.4741  1.4123
15580TIP3    H268232   3.130   1.001   2.422  0.1324 -0.7200  0.1632
15581TIP3   OH268233   3.010   5.888   1.949 -0.1725 -0.0290  0.1983
15581TIP3    H168234   2.956   5.871   2.026 -0.2298 -0.3088  0.0955
15581TIP3    H268235   3.073   5.816   1.947 -1.8232 -1.5247 -1.5060
15582TIP3   OH268236   3.558   5.313  15.705  0.2781  0.5097 -0.3023
15582TIP3    H168237   3.621   5.249  15.737  0.4644  0.1333 -1.3892
15582TIP3    H268238   3.483   5.261  15.676  0.5845  0.7381 -1.5426
15583TIP3   OH268239   2.459   0.158  13.719  0.8039  0.3932 -0.0838
15583TIP3    H168240   2.434   0.250  13.731 -0.9277  0.0302 -0.6615
15583TIP3    H268241   2.523   0.160  13.648  0.9525  1.1681  0.0621
15584TIP3   OH268242   0.448   3.537  13.463 -0.3033 -0.0681  0.0033
15584TIP3    H168243   0.526   3.480  13.461  0.5762  0.9018  2.4703
15584TIP3    H268244   0.388   3.497  13.401  1.5024 -1.8674 -0.7130
15585TIP3   OH268245   4.597   5.709   4.411  0.2882  0.0935  0.3223
15585TIP3    H168246   4.508   5.681   4.431  0.1199  0.5465  0.2072
15585TIP3    H268247   4.638   5.722   4.496  0.0545  0.4895  0.3729
15586TIP3   OH268248   0.013   3.769  13.425  0.0379  0.1807 -0.1625
15586TIP3    H168249   0.026   3.801  13.514 -2.1551  0.9226 -0.0239
15586TIP3    H268250   0.016   3.674  13.432 -0.1788  0.2280  0.7444
15587TIP3   OH268251   6.568   1.371  13.962 -0.3627  0.0566 -0.1591
15587TIP3    H168252   6.478   1.390  13.935 -0.9493 -0.4696  1.3189
15587TIP3    H268253   6.574   1.403  14.052  1.1210  0.5857 -0.4109
15588TIP3   OH268254   2.939   2.935   4.297  0.1699 -0.2078  0.4857
15588TIP3    H168255   2.934   2.843   4.323  0.2674 -0.9124 -1.8220
15588TIP3    H268256   2.862   2.948   4.241  1.3670  0.4569 -1.0676
15589TIP3   OH268257   5.250   2.276   1.975 -0.3201  0.5064 -0.3403
15589TIP3    H168258   5.301   2.199   1.951 -0.5724  1.0198 -2.8344
15589TIP3    H268259   5.224   2.261   2.065 -1.1879 -2.8105 -1.0277
15590TIP3   OH268260   0.962   4.489  16.172 -0.0981  0.2698  0.0021
15590TIP3    H168261   0.973   4.426  16.101  0.1822 -0.8684  1.0186
15590TIP3    H268262   0.915   4.441  16.240  3.8626 -0.3909  2.6249
15591TIP3   OH268263   0.026   2.568  13.838  0.0291  0.3569 -0.5927
15591TIP3    H168264   0.103   2.522  13.804 -0.9522  0.0602 -2.5386
15591TIP3    H268265   0.059   2.655  13.862  0.8328  0.5219 -2.1695
15592TIP3   OH268266   2.846   6.708  16.405  0.4753 -0.2999  0.0214
15592TIP3    H168267   2.770   6.766  16.418  1.2593  0.8133 -0.2234
15592TIP3    H268268   2.808   6.626  16.374 -0.6677  0.0912  0.3196
15593TIP3   OH268269   1.867   5.165   3.399 -0.2835 -0.2997  0.3189
15593TIP3    H168270   1.867   5.240   3.459 -0.4247  0.6004 -0.7862
15593TIP3    H268271   1.775   5.150   3.380 -0.1853  0.1463 -0.5483
15594TIP3   OH268272   5.129   4.522   6.420 -0.3392  0.1827  0.6318
15594TIP3    H168273   5.146   4.437   6.462 -2.0210 -0.4537  0.0663
15594TIP3    H268274   5.205   4.575   6.444  1.3679 -1.8345 -0.0001
15595TIP3   OH268275   6.574   3.142   4.118  0.3892  0.1917 -0.1618
15595TIP3    H168276   6.541   3.056   4.093 -1.8052  1.2565 -1.1459
15595TIP3    H268277   6.589   3.135   4.213  3.1545 -2.1018 -0.6179
15596TIP3   OH268278   5.906   4.573  13.808  0.3974 -0.3372 -0.2417
15596TIP3    H168279   5.833   4.547  13.752 -0.4168  0.4912  0.3866
15596TIP3    H268280   5.905   4.669  13.805  1.3314 -0.3123 -0.0564
15597TIP3   OH268281   1.337   3.488  15.243 -0.1580 -0.6970 -0.1180
15597TIP3    H168282   1.325   3.531  15.328  0.6228 -1.4285  0.3832
15597TIP3    H268283   1.259   3.510  15.193 -0.5254 -0.0665  0.7134
15598TIP3   OH268284   5.317   3.063   6.020  0.6498  0.1418 -0.0934
15598TIP3    H168285   5.405   3.053   6.056  0.9106  1.0508 -0.4382
15598TIP3    H268286   5.318   3.011   5.940  0.1175 -1.7539  1.0734
15599TIP3   OH268287   3.142   1.914  15.041 -0.0432 -0.0880  0.0109
15599TIP3    H168288   3.053   1.939  15.018  0.2516  1.6245  0.5919
15599TIP3    H268289   3.193   1.930  14.962  0.3315  2.3546  0.6617
15600TIP3   OH268290   3.450   5.710   0.245  0.0836  0.0481  0.5780
15600TIP3    H168291   3.422   5.620   0.260 -0.1418  0.0414  0.1475
15600TIP3    H268292   3.370   5.762   0.256  0.5206  0.3945  2.4393
15601TIP3   OH268293   2.127   6.407   0.688  0.2224 -0.1474  0.5315
15601TIP3    H168294   2.124   6.498   0.718  0.3935 -0.0643  0.2973
15601TIP3    H268295   2.096   6.410   0.598  0.8125 -0.2345  0.3228
15602TIP3   OH268296   4.231   5.900  16.938  0.2082  0.5475  0.0097
15602TIP3    H168297   4.202   5.927  16.851 -1.0178  2.5378  0.9688
15602TIP3    H268298   4.158   5.848  16.972  1.4093 -1.7775 -0.7521
15603TIP3   OH268299   4.579   6.499   5.860  0.6584  0.3713 -1.1453
15603TIP3    H168300   4.513   6.521   5.794  0.3809 -0.9521 -1.3380
15603TIP3    H268301   4.558   6.555   5.934  0.0436  0.7984 -1.6303
15604TIP3   OH268302   0.294   4.711  15.947  0.4896 -0.0470  0.0675
15604TIP3    H168303   0.318   4.766  16.021  0.1973 -2.1471  1.8048
15604TIP3    H268304   0.331   4.756  15.871  0.2177  2.5362  1.3473
15605TIP3   OH268305   6.730   2.519  14.664  0.2751  0.0628  0.8195
15605TIP3    H168306   6.787   2.444  14.645 -1.0463 -0.4502 -1.5042
15605TIP3    H268307   6.772   2.592  14.619  0.8419  0.4722  1.9608
15606TIP3   OH268308   2.479   5.201   0.672 -0.1616  0.0293 -0.1015
15606TIP3    H168309   2.416   5.240   0.732  2.4523  1.4800  1.9622
15606TIP3    H268310   2.485   5.264   0.599 -0.6002  0.2285  0.0342
15607TIP3   OH268311   5.353   4.602  12.952  0.0833 -0.0507 -0.6706
15607TIP3    H168312   5.336   4.696  12.942  2.9961  0.5195 -0.9937
15607TIP3    H268313   5.347   4.568  12.862 -1.8977 -0.4304 -0.4492
15608TIP3   OH268314   6.302   0.060   5.207 -0.1514  0.0987 -0.0952
15608TIP3    H168315   6.316   0.009   5.127 -1.1982  0.2480 -0.3836
15608TIP3    H268316   6.289  -0.005   5.276 -0.5747 -0.0220 -0.2923
15609TIP3   OH268317   2.032   6.711  15.537  0.4651  0.2825  0.4535
15609TIP3    H168318   1.986   6.628  15.553  1.6298 -0.1140  2.0429
15609TIP3    H268319   2.093   6.691  15.466 -0.4317  0.2672 -0.3292
15610TIP3   OH268320   6.723   6.086  13.638  0.5369  0.0278 -0.0242
15610TIP3    H168321   6.752   6.058  13.725 -0.1464 -0.7598 -0.0312
15610TIP3    H268322   6.782   6.040  13.578  0.0771 -0.6115 -0.0046
15611TIP3   OH268323   1.787   2.728   0.968  0.2801 -0.3232  0.2379
15611TIP3    H168324   1.719   2.738   0.902 -0.8691 -0.8053  1.2973
15611TIP3    H268325   1.834   2.811   0.968 -0.4641  0.1088 -0.3539
15612TIP3   OH268326   4.509   5.338   6.111  0.6421 -0.6923 -0.5371
15612TIP3    H168327   4.427   5.336   6.160  1.5136  0.2248  1.0404
15612TIP3    H268328   4.483   5.362   6.022 -0.7646 -0.0048  0.0251
15613TIP3   OH268329   3.864   3.928  11.173  0.4366 -0.0147 -0.5150
15613TIP3    H168330   3.771   3.911  11.161  0.5691 -0.7162 -0.6026
15613TIP3    H268331   3.868   4.016  11.210 -0.4210 -0.8927  1.8421
15614TIP3   OH268332   0.805   3.849   1.474  0.2424  0.2385  0.0619
15614TIP3    H168333   0.768   3.786   1.412  0.8494  1.9011 -2.0989
15614TIP3    H268334   0.732   3.906   1.497  0.2058  0.1329  0.2069
15615TIP3   OH268335   3.770   2.097  15.006 -0.0235 -0.5609 -0.2545
15615TIP3    H168336   3.797   2.080  14.916 -0.8988 -0.5711 -0.5300
15615TIP3    H268337   3.810   2.027  15.058 -0.2076 -1.0470 -0.7602
15616TIP3   OH268338   3.974   5.815  10.833 -0.2048 -0.2002 -0.6673
15616TIP3    H168339   3.988   5.865  10.753 -2.5771 -0.5481 -1.3894
15616TIP3    H268340   4.009   5.728  10.813  0.4280  0.0819 -0.8126
15617TIP3   OH268341   3.770   4.862   4.121  0.1477  0.0798 -0.4402
15617TIP3    H168342   3.758   4.953   4.093 -1.7194  0.0600  0.1032
15617TIP3    H268343   3.862   4.855   4.146  0.1949  1.9794  0.0312
15618TIP3   OH268344   4.331   1.244   0.585  0.3289 -0.3091  0.3764
15618TIP3    H168345   4.321   1.339   0.589  0.0571 -0.3330  0.2853
15618TIP3    H268346   4.293   1.220   0.501 -0.7201 -0.6313  0.9182
15619TIP3   OH268347   6.350   0.051  11.108 -0.3906 -0.4482 -1.1195
15619TIP3    H168348   6.375   0.135  11.071 -0.0885 -0.2631 -0.5122
15619TIP3    H268349   6.269   0.027  11.063 -0.5128  0.1937 -1.2444
15620TIP3   OH268350   2.395   1.971   2.595  0.0061  0.8279  0.5518
15620TIP3    H168351   2.452   1.915   2.542  0.1713  1.4522  0.0666
15620TIP3    H268352   2.453   2.039   2.629 -0.6306  2.1262 -0.8654
15621TIP3   OH268353   5.819   2.142   5.807 -0.1233  0.0461  0.1417
15621TIP3    H168354   5.741   2.086   5.801  0.2591 -0.4010 -0.7220
15621TIP3    H268355   5.816   2.177   5.897 -0.2825 -1.4847  0.7644
15622TIP3   OH268356   4.057   0.629   2.636 -0.3575  0.3234 -0.6706
15622TIP3    H168357   3.966   0.606   2.652 -0.3698  0.2667 -0.8231
15622TIP3    H268358   4.101   0.615   2.721 -0.9477  2.6462  0.0910
15623TIP3   OH268359   4.884   5.205  15.281 -0.0419  0.7907 -0.3535
15623TIP3    H168360   4.936   5.137  15.238 -0.4071 -0.2034  0.7340
15623TIP3    H268361   4.795   5.171  15.280 -0.0397  0.6870  1.2676
15624TIP3   OH268362   5.984   5.296  12.022 -0.0167  0.1355  0.3044
15624TIP3    H168363   5.914   5.277  12.085 -1.1800  1.0547 -0.6679
15624TIP3    H268364   5.982   5.392  12.013  0.0941  0.0156 -1.1562
15625TIP3   OH268365   5.613   6.216  13.862 -0.0603  0.2098 -0.5969
15625TIP3    H168366   5.686   6.155  13.870 -0.8902 -0.5995  1.3032
15625TIP3    H268367   5.598   6.249  13.950 -2.0912  0.2292 -0.8855
15626TIP3   OH268368   1.911   5.077  16.020  0.2307 -0.0332  0.3637
15626TIP3    H168369   1.880   5.068  16.110 -0.7751  0.2039  0.0573
15626TIP3    H268370   1.831   5.079  15.967  0.8346 -1.3328 -0.6607
15627TIP3   OH268371   4.043   1.097   2.103 -0.1395 -0.4139  0.3442
15627TIP3    H168372   4.084   1.036   2.042 -0.7998  1.6369 -2.3128
15627TIP3    H268373   4.011   1.042   2.174  0.8082 -2.9165 -1.0520
15628TIP3   OH268374   1.455   4.905  15.917 -0.2413  0.4872  0.0812
15628TIP3    H168375   1.536   4.916  15.969 -0.7817 -1.6903  1.4976
15628TIP3    H268376   1.391   4.874  15.980 -2.3633  2.4812 -0.9510
15629TIP3   OH268377   4.696   1.948   5.283  0.2869  0.4594 -0.1251
15629TIP3    H168378   4.746   1.872   5.313  2.3137  1.3586 -1.0276
15629TIP3    H268379   4.630   1.961   5.350  1.3796 -0.7035  1.2446
15630TIP3   OH268380   1.349   2.800  15.329  0.3171 -0.3177 -0.2221
15630TIP3    H168381   1.386   2.827  15.245 -0.9068 -0.0794 -0.7136
15630TIP3    H268382   1.392   2.855  15.394  0.3525  0.4013 -0.8440
15631TIP3   OH268383   2.497   1.907   4.806 -0.0791 -0.0547 -0.0756
15631TIP3    H168384   2.477   1.866   4.890  1.0303 -1.1675 -0.3221
15631TIP3    H268385   2.587   1.938   4.815  0.0347 -0.1408 -0.8235
15632TIP3   OH268386   4.783   4.204   5.708  0.2818  0.0076 -0.2585
15632TIP3    H168387   4.820   4.167   5.628  1.8092  0.8776  0.0072
15632TIP3    H268388   4.854   4.257   5.745 -1.3045  1.9508  0.1806
15633TIP3   OH268389   2.721   5.851  11.991  0.7536  0.0374 -0.5005
15633TIP3    H168390   2.649   5.883  11.937  0.8372 -0.8497 -1.1532
15633TIP3    H268391   2.760   5.930  12.029 -0.2144  0.5592 -0.5761
15634TIP3   OH268392   5.945   1.206  12.842  0.3752  0.4281 -0.3840
15634TIP3    H168393   5.908   1.287  12.807  1.1289  0.5730 -0.8533
15634TIP3    H268394   6.026   1.193  12.793  1.5417  0.6958  1.4139
15635TIP3   OH268395   0.639   5.390   4.202 -0.1306 -0.3337  0.2255
15635TIP3    H168396   0.591   5.357   4.127  0.0745 -0.0130 -0.0500
15635TIP3    H268397   0.731   5.376   4.180 -0.0786 -0.4778  0.5291
15636TIP3   OH268398   2.738   6.589  11.015  0.0483 -0.1587  0.2722
15636TIP3    H168399   2.771   6.623  10.931  1.2509  0.2555  0.8849
15636TIP3    H268400   2.686   6.513  10.990  2.2463 -1.4509 -0.7694
15637TIP3   OH268401   5.698   0.790  16.637  0.3949  0.0820 -0.1039
15637TIP3    H168402   5.750   0.748  16.706 -1.4475 -2.1788  0.0495
15637TIP3    H268403   5.679   0.720  16.575 -1.2992  1.1183 -0.8489
15638TIP3   OH268404   6.174   6.012   5.067 -0.3576  0.7737 -0.1408
15638TIP3    H168405   6.102   5.981   5.011 -0.0712 -0.0050 -0.0887
15638TIP3    H268406   6.133   6.080   5.122 -1.0580  0.3582 -0.1255
15639TIP3   OH268407   5.298   3.126  14.437 -0.6537  0.1645  0.0779
15639TIP3    H168408   5.362   3.083  14.494 -1.1249  1.9503  2.1112
15639TIP3    H268409   5.348   3.154  14.360  0.6498  0.0669  0.8699
15640TIP3   OH268410   2.940   5.024   0.811 -0.1878  0.0708 -0.0546
15640TIP3    H168411   2.879   5.085   0.853 -0.6986  0.1635 -0.9059
15640TIP3    H268412   2.939   5.050   0.719 -1.2101 -1.8621 -0.6353
15641TIP3   OH268413   0.877   0.310  13.398  0.2998  0.1867  0.1909
15641TIP3    H168414   0.964   0.278  13.419  0.3589  0.3032  0.1224
15641TIP3    H268415   0.869   0.392  13.447  0.5469  0.6082 -0.4651
15642TIP3   OH268416   4.071   1.256  15.637 -0.0513  0.1800 -0.0402
15642TIP3    H168417   4.076   1.233  15.544  0.8326 -1.3418  0.3499
15642TIP3    H268418   4.123   1.337  15.644 -2.3855  1.9163 -1.2721
15643TIP3   OH268419   2.268   3.038   1.538 -0.3648  0.2052 -0.1466
15643TIP3    H168420   2.242   2.948   1.560  1.8986 -0.0222  2.1659
15643TIP3    H268421   2.187   3.089   1.549 -2.2283 -1.6694 -3.4946
15644TIP3   OH268422   5.550   5.730   2.801  0.5442 -0.2257 -0.3518
15644TIP3    H168423   5.602   5.802   2.765  0.3599  1.1028  1.8752
15644TIP3    H268424   5.460   5.751   2.775  0.5650  0.0052 -0.2404
15645TIP3   OH268425   4.818   2.759  11.579  0.3430 -0.1109  0.1419
15645TIP3    H168426   4.731   2.720  11.586 -0.0809  0.2487 -2.2701
15645TIP3    H268427   4.814   2.836  11.635 -2.2173  1.9730 -2.5646
15646TIP3   OH268428   4.830   0.999   2.709 -0.0129  0.6692 -0.1954
15646TIP3    H168429   4.850   1.089   2.685 -1.8548  0.9465 -0.8848
15646TIP3    H268430   4.734   0.995   2.710 -0.0009 -0.8161  1.6315
15647TIP3   OH268431   2.743   3.763  12.547 -0.0715 -0.3123 -1.1632
15647TIP3    H168432   2.694   3.795  12.472 -0.7291 -1.0081 -1.0406
15647TIP3    H268433   2.760   3.841  12.601  0.1807  0.1457 -1.8955
15648TIP3   OH268434   6.328   3.713   3.247  0.4424  0.4434 -0.2961
15648TIP3    H168435   6.301   3.625   3.271 -0.8520  0.6337 -0.9653
15648TIP3    H268436   6.349   3.756   3.330 -0.2332 -0.0800  0.1428
15649TIP3   OH268437   5.279   0.659   2.600  0.0462  0.1225 -0.6345
15649TIP3    H168438   5.185   0.676   2.591  0.1534  1.4850  0.5262
15649TIP3    H268439   5.321   0.726   2.545  0.3538 -0.9622 -1.7730
15650TIP3   OH268440   6.437   5.736   4.551  0.0673 -0.1737 -0.0087
15650TIP3    H168441   6.370   5.770   4.492  0.5014  1.0947  0.1856
15650TIP3    H268442   6.507   5.705   4.493 -0.0390 -0.0907 -0.1806
15651TIP3   OH268443   0.439   6.384   0.034 -0.1741 -0.0576  0.2341
15651TIP3    H168444   0.529   6.384   0.067 -0.9816  0.3406  2.6294
15651TIP3    H268445   0.444   6.430  -0.050  2.0595 -1.3585 -0.4276
15652TIP3   OH268446   0.606   6.253  12.324  0.2364  0.0618  0.2294
15652TIP3    H168447   0.640   6.195  12.256 -3.3924 -1.9122 -0.1308
15652TIP3    H268448   0.542   6.308  12.279 -0.3181  0.5733  1.5894
15653TIP3   OH268449   6.096   6.140   0.709  0.0284  0.0491 -0.4818
15653TIP3    H168450   6.110   6.048   0.731  0.6617  0.3310  0.3207
15653TIP3    H268451   6.111   6.188   0.791  1.1837  1.0018 -1.2114
15654TIP3   OH268452   3.549   6.669   4.369  0.8720  0.4572 -0.2465
15654TIP3    H168453   3.504   6.728   4.429  1.0086  0.5480 -0.2335
15654TIP3    H268454   3.497   6.672   4.289  0.2834 -0.2023  0.0952
15655TIP3   OH268455   4.161   5.134  12.277 -0.6074 -0.4631 -0.3356
15655TIP3    H168456   4.135   5.099  12.192  0.2433  0.1328 -0.8428
15655TIP3    H268457   4.181   5.226  12.261  0.7270 -0.6328  0.2629
15656TIP3   OH268458   0.475   6.408   4.327  0.5318  0.5273  0.5958
15656TIP3    H168459   0.460   6.354   4.249  1.1115 -1.4738  1.7943
15656TIP3    H268460   0.431   6.361   4.397  2.3557  0.7754  1.9878
15657TIP3   OH268461   0.299   6.806   0.521  0.1252 -0.7830  0.6749
15657TIP3    H168462   0.218   6.769   0.484  0.5014 -1.5576  0.6028
15657TIP3    H268463   0.268   6.868   0.587 -0.6488  2.3432 -2.3040
15658TIP3   OH268464   2.139   4.997  13.710  0.1193 -0.2922  0.1269
15658TIP3    H168465   2.172   5.069  13.764 -0.0930 -1.0133  1.2473
15658TIP3    H268466   2.046   5.014  13.702  0.5021  1.1088 -2.0595
15659TIP3   OH268467   1.202   1.444   3.290  0.3737  0.1899 -0.0411
15659TIP3    H168468   1.107   1.448   3.279  0.5299  1.8676 -1.1723
15659TIP3    H268469   1.217   1.469   3.382 -0.1897  2.8800 -0.5914
15660TIP3   OH268470   0.902   5.134   4.087 -0.0690  0.5074 -0.0172
15660TIP3    H168471   0.860   5.095   4.164  0.7238  0.9630  0.6607
15660TIP3    H268472   0.954   5.207   4.122  1.3508 -0.0843 -0.7940
15661TIP3   OH268473   1.600   5.893  11.042 -0.2594 -0.3637  0.0655
15661TIP3    H168474   1.650   5.881  11.122 -1.2461 -2.1456  0.4807
15661TIP3    H268475   1.581   5.987  11.039  2.8611  0.3888 -0.0440
15662TIP3   OH268476   2.061   0.073  12.217  0.0698 -0.5990  0.6300
15662TIP3    H168477   1.977   0.109  12.188  0.2348 -1.5567 -1.1097
15662TIP3    H268478   2.124   0.145  12.203 -0.1003 -0.5835 -0.0634
15663TIP3   OH268479   2.005   2.972   3.343  0.2983 -0.5488 -0.0075
15663TIP3    H168480   2.096   2.971   3.372  0.5470 -0.2738 -0.7550
15663TIP3    H268481   1.990   2.884   3.308  0.1446 -0.7261  0.4913
15664TIP3   OH268482   1.225   1.832   2.598 -0.4280 -0.2023  0.2340
15664TIP3    H168483   1.245   1.740   2.618 -0.8442 -0.4891 -0.6230
15664TIP3    H268484   1.288   1.882   2.650  0.0812 -0.9823  0.3823
15665TIP3   OH268485   2.884   3.711   2.935 -0.5917 -0.0056 -0.3581
15665TIP3    H168486   2.819   3.739   2.869 -1.8462 -0.8885  0.4530
15665TIP3    H268487   2.964   3.697   2.885 -0.9707  1.2320 -1.3850
15666TIP3   OH268488   1.518   5.038   4.865  0.7907  0.1660 -0.2946
15666TIP3    H168489   1.496   4.981   4.938 -0.3108  0.2619 -0.5349
15666TIP3    H268490   1.604   5.008   4.835 -0.4418 -2.4685 -1.4717
15667TIP3   OH268491   3.376   3.578  14.883 -0.0236 -0.3033 -0.2551
15667TIP3    H168492   3.307   3.600  14.946  0.5518  0.0373  0.2617
15667TIP3    H268493   3.449   3.546  14.937  0.6076  0.3299 -0.7129
15668TIP3   OH268494   3.757   1.215   1.975 -0.0798  0.2088  0.5841
15668TIP3    H168495   3.694   1.143   1.975 -0.8290  0.8612  0.4239
15668TIP3    H268496   3.826   1.185   1.915 -1.3591  0.4426 -1.0671
15669TIP3   OH268497   2.529   6.346  11.639 -0.2874  0.2852 -0.4780
15669TIP3    H168498   2.511   6.325  11.730 -0.4189 -0.4123 -0.6540
15669TIP3    H268499   2.465   6.295  11.590  1.5270 -1.5620 -1.0877
15670TIP3   OH268500   2.000   4.626   4.100 -0.1121  0.2213  0.2042
15670TIP3    H168501   1.979   4.719   4.100  0.9399  0.4878  0.9208
15670TIP3    H268502   1.969   4.593   4.016  0.2761  1.4111 -0.4201
15671TIP3   OH268503   5.135   5.063   4.185 -0.2342  0.2135  0.3390
15671TIP3    H168504   5.209   5.115   4.217 -0.1255  0.0732  0.3170
15671TIP3    H268505   5.100   5.113   4.111  0.7384 -0.4253 -0.5710
15672TIP3   OH268506   0.889   1.678  12.327 -0.4734 -0.5923 -0.0989
15672TIP3    H168507   0.890   1.699  12.420  1.6822  1.9199 -0.5555
15672TIP3    H268508   0.953   1.608  12.317  0.3930  0.1461  0.1609
15673TIP3   OH268509   1.935   4.866  16.242  0.3870 -0.2817 -0.7861
15673TIP3    H168510   1.905   4.777  16.258  0.9545 -0.5159 -0.9929
15673TIP3    H268511   1.861   4.910  16.200  0.4514 -0.9522 -1.6236
15674TIP3   OH268512   0.011   1.359   3.240 -0.2853  0.5666 -0.1534
15674TIP3    H168513   0.096   1.341   3.280 -0.1349  1.7309  0.0834
15674TIP3    H268514  -0.050   1.363   3.314 -0.2311  1.4573 -0.1474
15675TIP3   OH268515   2.893   4.943   5.911 -0.0204 -0.0717  0.5221
15675TIP3    H168516   2.857   4.897   5.835  1.1038 -0.7318  0.3679
15675TIP3    H268517   2.831   5.015   5.927 -1.8387 -1.5942  0.7638
15676TIP3   OH268518   5.009   0.829  16.345  0.5472 -0.2172 -0.0912
15676TIP3    H168519   4.941   0.774  16.384 -1.1797  1.6460 -0.3419
15676TIP3    H268520   4.996   0.821  16.251  0.3792  0.5128 -0.1294
15677TIP3   OH268521   0.153   1.263   1.909  0.1912  0.2888 -0.9147
15677TIP3    H168522   0.101   1.343   1.911 -0.9268 -0.3916  1.5187
15677TIP3    H268523   0.199   1.263   1.993 -0.2430 -1.8587 -0.6388
15678TIP3   OH268524   5.734   0.621  13.414 -0.2923  0.1337  0.1623
15678TIP3    H168525   5.803   0.665  13.364 -0.1545 -1.2291 -0.8993
15678TIP3    H268526   5.666   0.603  13.350 -1.4253  0.9590  1.0882
15679TIP3   OH268527   5.685   3.765  13.023  0.3010  0.3338 -0.1918
15679TIP3    H168528   5.626   3.784  13.096 -0.1553  0.6010 -0.6274
15679TIP3    H268529   5.654   3.681  12.988  2.2233 -1.2619  1.6385
15680TIP3   OH268530   5.207   2.792  12.790 -0.1635  0.0738  0.3328
15680TIP3    H168531   5.282   2.799  12.850  0.3756  1.7630 -0.5040
15680TIP3    H268532   5.246   2.778  12.704 -0.7917  1.2134 -0.1481
15681TIP3   OH268533   3.487   2.039   2.253  0.2289 -0.5660  0.4347
15681TIP3    H168534   3.466   2.100   2.182  1.7762 -1.2564 -0.6623
15681TIP3    H268535   3.538   2.092   2.315  0.6227 -0.4644  0.0266
15682TIP3   OH268536   5.074   0.982   4.231  0.0754 -0.6173  0.6726
15682TIP3    H168537   5.101   0.940   4.313 -2.0236  0.6415  2.1159
15682TIP3    H268538   5.034   0.912   4.180  0.1295 -1.1674  1.3690
15683TIP3   OH268539   6.123   0.857  11.419  0.3293  0.9284  0.2595
15683TIP3    H168540   6.132   0.910  11.340 -1.1221  0.0795 -0.5067
15683TIP3    H268541   6.048   0.895  11.465  0.5600  0.8072  0.7425
15684TIP3   OH268542   6.606   4.191   0.649 -1.0034 -0.3717 -0.6956
15684TIP3    H168543   6.592   4.277   0.610 -2.5417 -0.6266 -0.7576
15684TIP3    H268544   6.563   4.196   0.735 -0.8960 -0.9986 -0.6006
15685TIP3   OH268545   3.163   3.407   2.525 -0.1438 -0.2528  0.8408
15685TIP3    H168546   3.240   3.368   2.484  0.6796 -0.1672  2.2458
15685TIP3    H268547   3.130   3.339   2.584 -0.5887  0.0481  0.9429
15686TIP3   OH268548   0.304   4.181   6.260 -0.1176 -0.4791 -0.1323
15686TIP3    H168549   0.366   4.252   6.272  0.8758 -1.6639  2.9840
15686TIP3    H268550   0.224   4.223   6.228  1.1394  1.6288 -0.6618
15687TIP3   OH268551   2.031   3.312  15.314  0.2446  0.2218 -0.1613
15687TIP3    H168552   2.035   3.226  15.272  1.2960  0.3935 -0.4423
15687TIP3    H268553   2.066   3.373  15.248  0.2347  0.7510  0.3139
15688TIP3   OH268554   1.530   5.159  15.625  0.1118 -0.5580 -0.6128
15688TIP3    H168555   1.518   5.240  15.676  0.3222 -0.5221 -0.6167
15688TIP3    H268556   1.587   5.105  15.680 -0.8303 -1.1139 -0.1625
15689TIP3   OH268557   0.817   0.045  14.179 -0.0576 -0.1827 -0.4295
15689TIP3    H168558   0.912   0.039  14.186  0.3281  3.8297  0.0510
15689TIP3    H268559   0.788   0.074  14.265 -1.7747 -1.2620 -0.5832
15690TIP3   OH268560   4.481   3.392   5.053  0.3260 -0.1277  0.2381
15690TIP3    H168561   4.437   3.309   5.034  1.5278 -0.8934  0.6672
15690TIP3    H268562   4.526   3.414   4.972 -2.1381  1.5671 -0.7937
15691TIP3   OH268563   1.727   6.386   6.082 -0.1382 -0.5604  0.3437
15691TIP3    H168564   1.763   6.409   5.997  1.5515 -1.3712  0.8041
15691TIP3    H268565   1.657   6.323   6.061 -0.7399  0.3637 -0.5079
15692TIP3   OH268566   3.542   0.799   1.229 -0.0902 -0.1952  0.0527
15692TIP3    H168567   3.531   0.704   1.226 -1.4775 -0.1950  2.6566
15692TIP3    H268568   3.636   0.812   1.216  0.5500 -2.1537  2.1180
15693TIP3   OH268569   1.980   4.592   3.178 -0.2651 -0.1864  0.4086
15693TIP3    H168570   2.025   4.642   3.247 -0.7796 -0.3168  0.8415
15693TIP3    H268571   2.034   4.606   3.100 -0.2718  0.8781  0.5698
15694TIP3   OH268572   1.890   5.576  12.396  0.7226  0.1830  0.3029
15694TIP3    H168573   1.946   5.612  12.464 -1.2794  3.5732  0.3777
15694TIP3    H268574   1.822   5.528  12.444  0.7751  0.3568  0.5528
15695TIP3   OH268575   3.495   6.638   2.590  0.0229  0.0505 -0.2041
15695TIP3    H168576   3.516   6.708   2.528  0.1090 -1.0459 -1.4438
15695TIP3    H268577   3.522   6.558   2.546 -0.0831 -0.7837  1.1895
15696TIP3   OH268578   1.812   1.129  15.467 -0.1311  0.0267  0.5577
15696TIP3    H168579   1.876   1.197  15.489 -0.8257  0.9882 -0.2650
15696TIP3    H268580   1.837   1.099  15.380  0.7569 -1.5235  1.3037
15697TIP3   OH268581   0.327   2.493   5.849 -0.2626 -0.3090 -0.0526
15697TIP3    H168582   0.322   2.557   5.919  0.5468  2.4045 -2.3092
15697TIP3    H268583   0.386   2.425   5.883  1.1615  1.5676  1.4615
15698TIP3   OH268584   1.126   3.671   3.489 -0.2360  0.6977  0.2589
15698TIP3    H168585   1.173   3.753   3.501  0.8879 -0.0870  1.5994
15698TIP3    H268586   1.033   3.696   3.490 -0.0849  1.7271  3.6017
15699TIP3   OH268587   1.922   4.432  13.153  0.0061 -0.5650 -0.3119
15699TIP3    H168588   1.871   4.365  13.107  0.1558 -1.6346  1.0135
15699TIP3    H268589   1.983   4.383  13.208 -0.1479  0.6342  1.0097
15700TIP3   OH268590   2.921   4.873  12.499 -0.0514  0.3060 -0.2067
15700TIP3    H168591   2.880   4.815  12.436  2.3420 -0.4473 -1.1771
15700TIP3    H268592   2.951   4.948  12.448  0.0977  0.6723  0.4008
15701TIP3   OH268593   0.312   4.600   5.230  0.6675 -0.3008  0.8224
15701TIP3    H168594   0.277   4.511   5.236  0.0326 -0.0325  1.3347
15701TIP3    H268595   0.234   4.656   5.239  0.8182  0.3056 -1.1782
15702TIP3   OH268596   0.608   5.057   4.617  0.7203 -0.9107  0.2767
15702TIP3    H168597   0.701   5.038   4.623  1.1832  0.5258 -1.4612
15702TIP3    H268598   0.574   5.039   4.705  2.3019 -2.9586  0.5403
15703TIP3   OH268599   0.914   5.506   1.800 -0.1825 -0.1215 -0.6554
15703TIP3    H168600   0.935   5.585   1.750  0.4154  0.3197  0.2598
15703TIP3    H268601   0.929   5.531   1.892 -0.1141 -1.2575 -0.3426
15704TIP3   OH268602   1.280   0.298  13.020  0.0878 -0.0944 -0.6253
15704TIP3    H168603   1.205   0.326  13.073 -1.3545 -2.1894 -1.4489
15704TIP3    H268604   1.257   0.326  12.931  0.5863 -0.1891 -0.7832
15705TIP3   OH268605   4.530   5.401  13.258 -0.1247  0.1468 -0.0142
15705TIP3    H168606   4.458   5.463  13.260  0.1372  0.7013 -2.8651
15705TIP3    H268607   4.533   5.372  13.167  3.3064  0.2483 -0.0484
15706TIP3   OH268608   1.736   2.367  11.738  0.3432  0.7412  0.5783
15706TIP3    H168609   1.813   2.404  11.782 -0.2746  1.3829  1.1416
15706TIP3    H268610   1.680   2.337  11.809  0.6212 -0.8800  0.1345
15707TIP3   OH268611   3.873   5.213   0.235 -0.5643 -0.3093 -0.1907
15707TIP3    H168612   3.865   5.192   0.329 -0.3056  0.5826  0.0356
15707TIP3    H268613   3.801   5.164   0.195 -1.5181  0.3492  0.6536
15708TIP3   OH268614   2.536   2.977   3.590  0.0194 -0.5385 -0.0797
15708TIP3    H168615   2.454   3.009   3.627  0.0218 -0.5141 -0.0951
15708TIP3    H268616   2.546   3.027   3.508  0.1600 -0.3824  0.0306
15709TIP3   OH268617   4.460   5.491   1.339 -0.4296  0.2226  0.1091
15709TIP3    H168618   4.428   5.427   1.275 -1.2596  0.3044  0.4304
15709TIP3    H268619   4.469   5.572   1.290  0.8432 -0.1671 -0.3562
15710TIP3   OH268620   2.872   3.264  15.235  0.3497 -0.0504 -0.1395
15710TIP3    H168621   2.891   3.293  15.146 -0.9493 -0.4550 -0.5778
15710TIP3    H268622   2.942   3.203  15.256 -0.6716 -1.9697 -1.9007
15711TIP3   OH268623   2.733   2.261  12.629  0.3431 -0.3132 -0.6569
15711TIP3    H168624   2.811   2.285  12.579  0.7240 -1.4733 -0.6541
15711TIP3    H268625   2.755   2.283  12.720 -0.5051  2.1876 -0.9786
15712TIP3   OH268626   2.218   0.110  11.871  0.5311  0.3757 -0.0660
15712TIP3    H168627   2.165   0.035  11.895 -0.1728  0.4152 -1.3818
15712TIP3    H268628   2.301   0.072  11.842  2.1162  0.4026  3.8394
15713TIP3   OH268629   0.456   4.069   4.242 -0.3084  0.3520  0.1686
15713TIP3    H168630   0.365   4.094   4.259 -0.0489  0.1641  1.9533
15713TIP3    H268631   0.491   4.043   4.327  1.2711 -0.1085 -0.5764
15714TIP3   OH268632   2.506   2.834  15.407 -0.1137  0.1199  0.4028
15714TIP3    H168633   2.462   2.772  15.348  0.7271 -0.6881  0.6107
15714TIP3    H268634   2.548   2.897  15.348  0.6948 -0.6621  0.1132
15715TIP3   OH268635   0.028   3.019   1.442  0.1247 -0.1391 -0.1671
15715TIP3    H168636   0.076   3.079   1.499  0.6236  0.2217 -0.9456
15715TIP3    H268637  -0.051   3.066   1.419  0.8491  0.5419 -1.3563
15716TIP3   OH268638   6.677   4.580  16.143 -0.1535  0.9394  0.7636
15716TIP3    H168639   6.598   4.535  16.172 -0.0125  0.8570  1.0172
15716TIP3    H268640   6.722   4.515  16.087 -0.9286  1.4393 -0.4906
15717TIP3   OH268641   4.836   3.577   5.644 -0.2746  0.3197 -0.3371
15717TIP3    H168642   4.841   3.483   5.625 -1.6623  0.4256 -1.4479
15717TIP3    H268643   4.848   3.583   5.738  0.7295 -0.8797 -0.3580
15718TIP3   OH268644   2.774   5.250   0.952 -0.0581 -0.1349  0.1347
15718TIP3    H168645   2.711   5.227   1.021 -1.3501  0.7189 -0.7201
15718TIP3    H268646   2.721   5.285   0.881  1.2751 -0.6625 -1.1838
15719TIP3   OH268647   1.576   1.597   4.796  0.1950  0.3696 -0.2584
15719TIP3    H168648   1.526   1.666   4.751  0.8307  2.7566  2.4263
15719TIP3    H268649   1.665   1.632   4.802  0.0165  0.5503  3.3237
15720TIP3   OH268650   6.052   3.291  15.108  0.0760  0.8384 -0.3602
15720TIP3    H168651   5.998   3.250  15.175  1.6087  1.4516  1.3494
15720TIP3    H268652   6.138   3.302  15.150  1.2583  0.8132 -2.5966
15721TIP3   OH268653   3.908   5.544   1.167  0.2378 -0.3325  0.1882
15721TIP3    H168654   3.960   5.575   1.241  1.2433 -3.0983  0.7252
15721TIP3    H268655   3.826   5.513   1.206  0.0209 -0.1311 -0.0993
15722TIP3   OH268656   0.825   6.712   4.949 -0.2132 -0.4801 -0.5072
15722TIP3    H168657   0.755   6.765   4.987  0.2733 -1.1631  1.4748
15722TIP3    H268658   0.796   6.622   4.961  1.2424 -0.7966  0.9329
15723TIP3   OH268659   2.965   1.627   3.729  0.0822 -0.0163  0.1941
15723TIP3    H168660   2.953   1.537   3.701 -0.9795  0.2959 -0.4101
15723TIP3    H268661   3.057   1.647   3.709  0.1481 -0.7560 -0.2548
15724TIP3   OH268662   6.477   2.581   4.739  0.5749  0.0451  0.1089
15724TIP3    H168663   6.456   2.647   4.673 -1.3158  0.6484  1.2386
15724TIP3    H268664   6.468   2.497   4.693 -0.0645  0.4720 -0.5622
15725TIP3   OH268665   6.567   5.083   2.877 -0.2035 -0.1187  0.2162
15725TIP3    H168666   6.598   5.042   2.957 -1.2075 -0.0790  0.6401
15725TIP3    H268667   6.545   5.173   2.903 -2.6195 -0.7157  0.4518
15726TIP3   OH268668   0.463   5.923  13.469 -0.2514  0.4656 -0.0431
15726TIP3    H168669   0.504   5.893  13.550 -2.1465 -1.0862  0.4242
15726TIP3    H268670   0.410   5.998  13.496 -1.5636 -0.5822  0.3679
15727TIP3   OH268671   6.306   5.109  11.364  0.2821 -0.1069 -0.2184
15727TIP3    H168672   6.245   5.117  11.437 -1.7339 -2.3094 -1.5002
15727TIP3    H268673   6.374   5.050  11.396 -0.6156 -1.0998 -0.0699
15728TIP3   OH268674   3.939   2.534  17.274 -0.4751 -0.2697 -0.2571
15728TIP3    H168675   3.864   2.520  17.332  1.1958 -0.1691  2.0613
15728TIP3    H268676   3.954   2.449  17.234 -0.2683 -0.9896  1.2695
15729TIP3   OH268677   4.165   2.100   0.044  0.3784  0.4751 -0.3274
15729TIP3    H168678   4.181   2.190   0.015 -0.2319  0.3463 -1.1100
15729TIP3    H268679   4.165   2.048  -0.037  2.0396 -0.4593  0.2105
15730TIP3   OH268680   0.686   2.711  14.574  0.2266  0.4756 -0.0310
15730TIP3    H168681   0.780   2.695  14.587  0.7119  0.6242 -2.7385
15730TIP3    H268682   0.643   2.650  14.634  2.0825 -2.1026 -1.0834
15731TIP3   OH268683   5.529   2.034   2.990  0.0961 -0.6021 -0.0140
15731TIP3    H168684   5.623   2.026   3.007  0.7096  3.2531 -0.6919
15731TIP3    H268685   5.492   2.065   3.072 -0.8128 -2.7676  0.4628
15732TIP3   OH268686   6.257   6.688   5.655 -0.1079  0.0807  0.3713
15732TIP3    H168687   6.194   6.719   5.591 -0.8286 -1.5516  0.2491
15732TIP3    H268688   6.209   6.687   5.738  0.2611  0.4162  0.5928
15733TIP3   OH268689   6.371   3.199  13.718 -0.0955  0.1477 -0.2050
15733TIP3    H168690   6.319   3.243  13.651 -0.4684  0.6606  0.4080
15733TIP3    H268691   6.311   3.189  13.792  1.1404  2.4781  1.2409
15734TIP3   OH268692   4.479   0.754   0.815  0.0667 -0.2055  0.7052
15734TIP3    H168693   4.566   0.739   0.853 -0.1163 -2.4489  0.4116
15734TIP3    H268694   4.495   0.806   0.737  1.1916 -0.7857  0.5264
15735TIP3   OH268695   4.417   0.650   1.651 -0.2420 -0.4182  0.3908
15735TIP3    H168696   4.360   0.724   1.669 -0.6878 -0.9488  1.2500
15735TIP3    H268697   4.463   0.634   1.733 -0.4205 -1.3113  0.3312
15736TIP3   OH268698   1.260   0.612  11.862 -0.8849 -0.4434 -0.4098
15736TIP3    H168699   1.207   0.546  11.818 -1.0729 -0.3182 -0.3720
15736TIP3    H268700   1.200   0.686  11.875 -0.7154 -0.3217 -0.3222
15737TIP3   OH268701   0.366   2.534  13.525  0.1539  0.0077  0.7310
15737TIP3    H168702   0.323   2.619  13.531  1.3518  0.7403 -0.5438
15737TIP3    H268703   0.315   2.477  13.582 -1.0788  1.4089  1.0730
15738TIP3   OH268704   5.981   2.657  16.714 -0.4736 -0.1189  0.6639
15738TIP3    H168705   6.024   2.730  16.758 -0.8278 -0.6637  1.9490
15738TIP3    H268706   6.026   2.579  16.745 -0.3911 -0.4977 -0.3580
15739TIP3   OH268707   5.412   0.618  11.000  0.3213 -0.0153  0.0082
15739TIP3    H168708   5.349   0.677  10.957  0.3947  0.0217 -0.0472
15739TIP3    H268709   5.477   0.677  11.039  0.8190 -0.0911 -0.7029
15740TIP3   OH268710   0.247   4.022  13.554 -0.0542  0.1766  0.2433
15740TIP3    H168711   0.308   3.961  13.512 -1.0332  1.0302 -2.6536
15740TIP3    H268712   0.178   3.966  13.589 -0.8883 -0.5125 -2.2839
15741TIP3   OH268713   5.479   0.387   5.174  0.0564  0.5475 -0.4246
15741TIP3    H168714   5.403   0.395   5.232  0.5253 -0.9704  0.4635
15741TIP3    H268715   5.448   0.416   5.089 -0.7289  2.6331  0.5091
15742TIP3   OH268716   3.293   1.138   1.680  0.3031 -0.1020  0.2537
15742TIP3    H168717   3.343   1.202   1.730 -0.0712 -0.5005  1.1855
15742TIP3    H268718   3.211   1.182   1.660 -1.0366 -1.0171  3.1005
15743TIP3   OH268719   3.929   3.963   5.781 -0.3594 -0.1373  0.0365
15743TIP3    H168720   3.981   3.928   5.853 -0.0193 -0.3484 -0.3109
15743TIP3    H268721   3.855   4.007   5.824 -1.3077 -2.0674  0.4578
15744TIP3   OH268722   0.790   4.952  13.965  0.0739  0.0709  0.4253
15744TIP3    H168723   0.775   5.035  13.920 -1.2807 -0.1727  0.3803
15744TIP3    H268724   0.734   4.890  13.919  0.3544 -0.6610  1.0552
15745TIP3   OH268725   2.412   5.511  13.701  0.4273 -0.1935 -0.5263
15745TIP3    H168726   2.366   5.556  13.771 -2.2301  0.9277 -2.8025
15745TIP3    H268727   2.502   5.545  13.705  0.5584 -0.5997  2.5481
15746TIP3   OH268728   0.587   6.527  16.525  0.5441 -0.2360  0.2519
15746TIP3    H168729   0.623   6.545  16.438  1.8847 -2.9365  0.1149
15746TIP3    H268730   0.505   6.576  16.528  1.0450  0.9034 -2.0540
15747TIP3   OH268731   3.746   6.215  12.975 -1.1806  0.3795 -0.2051
15747TIP3    H168732   3.745   6.250  12.886  0.7299  3.0124  0.6577
15747TIP3    H268733   3.834   6.178  12.985 -0.6652  1.8316  1.0948
15748TIP3   OH268734   6.615   5.838   6.799 -0.0423  0.2298 -0.4912
15748TIP3    H168735   6.680   5.881   6.854  0.8580 -0.0675 -1.3100
15748TIP3    H268736   6.650   5.845   6.710  0.9564 -3.5440 -0.5541
15749TIP3   OH268737   0.710   1.256   1.943  0.5915  0.1402 -0.0228
15749TIP3    H168738   0.746   1.334   1.902  1.0133 -1.0515 -2.0516
15749TIP3    H268739   0.768   1.185   1.916 -0.1201 -0.9978  1.2579
15750TIP3   OH268740   4.565   5.399  10.748  0.0155 -0.4082 -0.9926
15750TIP3    H168741   4.495   5.463  10.737  0.4131  0.3092  0.3124
15750TIP3    H268742   4.596   5.413  10.838  1.3331 -1.2017 -1.2881
15751TIP3   OH268743   4.964   2.702  14.243 -0.0295 -0.1791 -0.5357
15751TIP3    H168744   5.007   2.755  14.310 -0.9675  1.4363 -1.1703
15751TIP3    H268745   4.990   2.612  14.264  1.4906  0.4892  0.6548
15752TIP3   OH268746   2.695   2.980  16.368  0.0269 -0.2044 -0.4869
15752TIP3    H168747   2.714   2.894  16.330  0.2897  0.3271 -1.6291
15752TIP3    H268748   2.778   3.008  16.407 -0.0762 -0.4889 -0.0571
15753TIP3   OH268749   4.921   5.154  10.929 -0.1390 -0.0331 -0.3668
15753TIP3    H168750   4.928   5.199  10.845  1.3773  0.0177 -0.2496
15753TIP3    H268751   5.012   5.136  10.954 -0.4933  0.6332  1.6202
15754TIP3   OH268752   1.023   6.712  15.709 -0.5171 -0.2099  0.1875
15754TIP3    H168753   0.967   6.637  15.725  1.9333 -2.4273 -0.9461
15754TIP3    H268754   1.056   6.736  15.796 -0.7793 -0.9055  0.4807
15755TIP3   OH268755   5.311   5.366   0.464  0.1892  0.5746  0.4212
15755TIP3    H168756   5.379   5.378   0.530 -0.6333  0.6661  1.2693
15755TIP3    H268757   5.236   5.330   0.513  0.4136 -1.8855 -0.8899
15756TIP3   OH268758   4.895   4.876   5.573 -0.3412  0.1369 -0.1469
15756TIP3    H168759   4.901   4.898   5.666 -1.6407 -0.8644  0.1970
15756TIP3    H268760   4.837   4.943   5.537 -0.4222  0.1014 -0.0836
15757TIP3   OH268761   4.343   1.695  13.182  0.2579 -0.1562 -0.2388
15757TIP3    H168762   4.269   1.637  13.163 -0.3343  0.0876  1.1934
15757TIP3    H268763   4.305   1.782  13.186  0.0499 -0.2865  3.0844
15758TIP3   OH268764   4.827   5.878   4.341 -0.0396  0.2854  0.1536
15758TIP3    H168765   4.794   5.962   4.375 -0.2812  0.7009 -1.0605
15758TIP3    H268766   4.750   5.823   4.334 -0.0319  0.2876  0.0455
15759TIP3   OH268767   1.551   0.671  16.740 -0.6794 -0.0272 -0.1499
15759TIP3    H168768   1.456   0.674  16.727 -1.0459 -0.0798  2.1193
15759TIP3    H268769   1.587   0.718  16.665 -2.5810  1.1506 -0.3836
15760TIP3   OH268770   3.440   3.039  16.206 -0.4544 -0.0980  0.8225
15760TIP3    H168771   3.359   3.015  16.251 -0.6083 -0.0994  0.5481
15760TIP3    H268772   3.433   2.995  16.121 -1.8274  2.7217 -0.6832
15761TIP3   OH268773   0.092   4.788   4.526 -0.1547 -0.9086  0.4279
15761TIP3    H168774   0.129   4.871   4.557 -0.6486 -0.2278 -0.7302
15761TIP3    H268775   0.036   4.813   4.452 -0.7729 -2.2177  0.4262
15762TIP3   OH268776   1.995   3.186  15.849 -0.6497  0.2912  0.0744
15762TIP3    H168777   1.972   3.115  15.908  0.7321  0.6283  1.0579
15762TIP3    H268778   1.934   3.176  15.775 -2.2212 -0.3083  1.3811
15763TIP3   OH268779   1.726   5.947   0.934 -0.5725 -0.1193 -0.0988
15763TIP3    H168780   1.763   5.895   1.005 -0.0368 -1.5759 -1.3749
15763TIP3    H268781   1.643   5.903   0.912 -0.7436  0.3239 -0.3620
15764TIP3   OH268782   1.345   5.601  11.192  0.3768 -0.1146 -0.8140
15764TIP3    H168783   1.338   5.557  11.107 -1.8057 -1.8001  0.1375
15764TIP3    H268784   1.255   5.629  11.212  0.5819 -0.8729  1.4740
15765TIP3   OH268785   2.391   6.098   2.271 -0.1671 -0.2427 -0.5368
15765TIP3    H168786   2.320   6.161   2.261  0.2578  0.1585 -1.0572
15765TIP3    H268787   2.457   6.144   2.323 -0.3990 -0.7170  0.2045
15766TIP3   OH268788   0.867   6.523  12.913 -0.2563  0.0818 -0.2065
15766TIP3    H168789   0.863   6.440  12.866  1.9342 -0.0875 -0.2133
15766TIP3    H268790   0.778   6.557  12.910 -0.5748 -0.7752 -2.9180
15767TIP3   OH268791   1.864   4.262   5.410 -0.1636 -0.2629  0.6366
15767TIP3    H168792   1.949   4.289   5.444  0.3932 -1.4827  0.2596
15767TIP3    H268793   1.821   4.220   5.485 -1.1081  1.7008  1.2790
15768TIP3   OH268794   5.654   0.739   2.373  1.1227 -0.4441 -0.4674
15768TIP3    H168795   5.731   0.786   2.406 -0.1377 -0.3273  2.6081
15768TIP3    H268796   5.632   0.678   2.442 -0.9628 -1.2302 -1.7331
15769TIP3   OH268797   1.103   5.912   3.736 -0.5907  0.7099  0.1884
15769TIP3    H168798   1.095   5.997   3.778  0.3977  1.5923 -1.2874
15769TIP3    H268799   1.023   5.903   3.684 -1.1996  0.2262  1.2002
15770TIP3   OH268800   1.581   3.285  15.416  0.1408 -0.0274  0.5461
15770TIP3    H168801   1.593   3.380  15.420  0.4701 -0.1021  3.5930
15770TIP3    H268802   1.651   3.254  15.358  0.8239  1.4727  0.5301
15771TIP3   OH268803   5.368   1.046  14.832 -0.4858  0.2809  0.1571
15771TIP3    H168804   5.454   1.074  14.799 -0.8948  0.9441 -0.3480
15771TIP3    H268805   5.306   1.076  14.767 -0.8842 -2.9951 -1.1808
15772TIP3   OH268806   4.489   6.729   4.081  0.1440 -0.5421  0.0872
15772TIP3    H168807   4.578   6.697   4.066  0.1591 -0.2958 -0.3780
15772TIP3    H268808   4.437   6.685   4.014 -0.2653 -1.4402  0.9767
15773TIP3   OH268809   1.558   5.346  13.004 -0.2185  0.2721  0.5895
15773TIP3    H168810   1.553   5.438  13.031 -2.5068 -0.3522  2.5514
15773TIP3    H268811   1.468   5.323  12.980  0.4927 -1.2140 -0.8633
15774TIP3   OH268812   6.307   4.186  10.782 -0.5166  0.2311 -0.1420
15774TIP3    H168813   6.307   4.223  10.870 -1.6032 -2.1134  0.9203
15774TIP3    H268814   6.399   4.183  10.757 -0.1615  0.4623  1.1002
15775TIP3   OH268815   5.651   3.216  16.773  1.0204 -0.3661  0.1954
15775TIP3    H168816   5.624   3.149  16.836  0.3754  0.8523  1.2497
15775TIP3    H268817   5.572   3.235  16.723  1.3536 -0.8006 -0.5223
15776TIP3   OH268818   0.389   3.579   3.002  0.3256 -0.1519 -0.0892
15776TIP3    H168819   0.442   3.655   2.979 -0.3966 -0.0121 -1.3786
15776TIP3    H268820   0.317   3.614   3.055  0.1739  0.0210 -0.4081
15777TIP3   OH268821   5.290   2.771  16.266 -0.3221 -0.6334 -0.8471
15777TIP3    H168822   5.354   2.797  16.333 -0.8011  0.6723 -0.8723
15777TIP3    H268823   5.324   2.809  16.185 -2.0473  1.7132 -0.5545
15778TIP3   OH268824   2.717   2.342   2.956 -0.0759  0.0277 -0.0692
15778TIP3    H168825   2.659   2.405   3.001 -0.6661 -1.0988  0.7998
15778TIP3    H268826   2.710   2.262   3.008  1.2781 -0.5273 -0.7068
15779TIP3   OH268827   3.115   0.543  15.940  0.2970 -0.4968  0.1497
15779TIP3    H168828   3.142   0.478  16.005  0.3787 -1.5951 -0.9301
15779TIP3    H268829   3.181   0.534  15.870  0.8048  1.3678  0.3486
15780TIP3   OH268830   4.602   1.242  15.097  0.4486 -0.4423 -0.4721
15780TIP3    H168831   4.622   1.238  15.190 -1.0218 -1.0119 -0.1587
15780TIP3    H268832   4.631   1.329  15.070  1.2947 -0.4342  0.4049
15781TIP3   OH268833   2.513   5.366   4.088 -0.1196 -0.0786  0.0592
15781TIP3    H168834   2.548   5.307   4.021 -2.2667 -1.5665  0.1310
15781TIP3    H268835   2.448   5.418   4.041 -0.1254  0.3619  0.5562
15782TIP3   OH268836   1.890   3.063   1.103 -0.5075  0.3093  0.2004
15782TIP3    H168837   1.811   3.046   1.155  1.0006  0.8029  2.8486
15782TIP3    H268838   1.963   3.044   1.162  1.3874  0.6463 -1.8740
15783TIP3   OH268839   1.522   2.436  12.989 -0.2643  0.3283 -0.2502
15783TIP3    H168840   1.617   2.442  12.981 -0.3580  1.6495 -0.4876
15783TIP3    H268841   1.488   2.499  12.926 -1.3444 -1.0671 -1.1442
15784TIP3   OH268842   6.008   2.778   1.817  0.0966  0.2796  0.5097
15784TIP3    H168843   5.946   2.705   1.817  0.7126 -0.2566  0.3246
15784TIP3    H268844   5.960   2.851   1.856  0.2274 -0.8686  2.9884
15785TIP3   OH268845   5.288   6.790  16.987 -0.7030  0.4616  0.0314
15785TIP3    H168846   5.303   6.798  17.081 -1.6206  0.9876  0.1439
15785TIP3    H268847   5.260   6.700  16.975 -1.9891  0.7750  0.4844
15786TIP3   OH268848   2.090   6.636   1.935  0.1182 -0.3821  0.6705
15786TIP3    H168849   2.009   6.658   1.981 -0.1272 -1.1806  0.6332
15786TIP3    H268850   2.149   6.710   1.953 -0.5806  0.1600  0.7754
15787TIP3   OH268851   5.129   1.640  17.134  0.2499 -1.3423 -0.0361
15787TIP3    H168852   5.219   1.660  17.108 -0.0179 -1.3287 -0.9865
15787TIP3    H268853   5.106   1.563  17.083 -1.5908  0.9036 -2.8746
15788TIP3   OH268854   1.570   5.432   0.287  0.1528 -0.3080 -0.2145
15788TIP3    H168855   1.480   5.454   0.261 -0.5632 -0.1870  2.1510
15788TIP3    H268856   1.612   5.403   0.206 -1.4429  1.4307 -1.7564
15789TIP3   OH268857   2.352   3.729   4.383 -0.5086  0.2344  0.1552
15789TIP3    H168858   2.313   3.817   4.384  1.0165  0.9489  0.0086
15789TIP3    H268859   2.369   3.710   4.476 -1.1045 -0.0396  0.2115
15790TIP3   OH268860   0.350   2.358   4.304 -0.3143  0.0584  0.6427
15790TIP3    H168861   0.360   2.403   4.388 -0.4305 -2.3188  2.0022
15790TIP3    H268862   0.414   2.287   4.307 -0.1556  0.0457 -1.4187
15791TIP3   OH268863   1.786   5.740   5.981  0.2507 -0.4176 -0.0892
15791TIP3    H168864   1.877   5.761   5.963  0.2718 -0.6867 -0.3005
15791TIP3    H268865   1.755   5.697   5.901 -1.0167  2.6197 -1.3826
15792TIP3   OH268866   5.488   4.943  15.519 -0.0803 -0.2813  0.2774
15792TIP3    H168867   5.497   5.030  15.559  0.8748  0.6886 -1.8320
15792TIP3    H268868   5.535   4.884  15.577  0.1556  0.8052  1.2191
15793TIP3   OH268869   4.952   1.125   5.604  0.4093  0.3728 -0.2249
15793TIP3    H168870   4.880   1.130   5.667 -0.3375 -4.0554 -0.4524
15793TIP3    H268871   5.028   1.101   5.657  1.2182  2.3285 -0.3833
15794TIP3   OH268872   0.620   2.404  13.237 -0.0844  0.8893 -0.6049
15794TIP3    H168873   0.582   2.360  13.313  0.6896  0.1323 -0.6436
15794TIP3    H268874   0.546   2.415  13.177 -0.1708 -1.1865 -0.9777
15795TIP3   OH268875   0.134   3.518  11.819 -0.9108 -0.4675 -1.0901
15795TIP3    H168876   0.061   3.565  11.859 -0.6965 -0.9913 -0.0653
15795TIP3    H268877   0.192   3.587  11.787 -1.0177 -0.0438 -0.3690
15796TIP3   OH268878   4.479   1.596  14.440  0.1287 -0.0816 -0.8741
15796TIP3    H168879   4.430   1.611  14.521  0.7433  0.9767 -0.6795
15796TIP3    H268880   4.427   1.532  14.392 -0.0244 -1.0635  0.5446
15797TIP3   OH268881   5.858   1.643   5.359 -0.0877  0.2076 -0.0767
15797TIP3    H168882   5.903   1.697   5.424 -2.3353  1.8218  0.2764
15797TIP3    H268883   5.848   1.557   5.401 -0.1188  0.7636  1.0866
15798TIP3   OH268884   5.027   5.335  13.641  0.2663  0.5588  0.5111
15798TIP3    H168885   4.933   5.338  13.659  0.3828  0.9968  1.0950
15798TIP3    H268886   5.061   5.269  13.701  0.5282  1.3877  1.2919
15799TIP3   OH268887   3.739   0.517   6.022 -0.2919 -0.7405 -0.1970
15799TIP3    H168888   3.670   0.451   6.030 -1.8824  0.9737  1.2374
15799TIP3    H268889   3.735   0.566   6.104  1.4559  0.5412 -0.8279
15800TIP3   OH268890   4.111   0.309  12.020  0.6923 -0.0049  0.0600
15800TIP3    H168891   4.124   0.393  12.064  1.6726 -0.2554  0.2602
15800TIP3    H268892   4.192   0.261  12.034 -0.2208 -1.3972  0.8088
15801TIP3   OH268893   6.039   2.910  13.547 -0.5180 -0.1140 -0.1391
15801TIP3    H168894   6.106   2.918  13.615 -0.2349 -2.0905 -0.1513
15801TIP3    H268895   5.957   2.935  13.591  0.1758  2.7149 -0.2253
15802TIP3   OH268896   5.488   5.816   1.519  0.3905 -0.2970  0.3580
15802TIP3    H168897   5.553   5.749   1.538  1.0930  0.3110  0.1279
15802TIP3    H268898   5.508   5.888   1.579 -0.0236 -0.0732  0.2344
15803TIP3   OH268899   6.679   3.857  14.662  0.5250  0.4440 -0.3506
15803TIP3    H168900   6.659   3.894  14.576  1.6416  0.8433 -0.4581
15803TIP3    H268901   6.595   3.827  14.696  0.1920 -0.5087 -1.9472
15804TIP3   OH268902   5.993   2.594   5.203 -0.2491  0.3382  0.3084
15804TIP3    H168903   6.012   2.565   5.114 -0.1596 -0.6783  0.6467
15804TIP3    H268904   5.922   2.537   5.232 -0.4851  0.8644  0.7822
15805TIP3   OH268905   5.131   4.785  17.251 -0.0703 -0.0506 -0.0376
15805TIP3    H168906   5.192   4.821  17.186 -0.7272  0.3896 -0.4244
15805TIP3    H268907   5.089   4.862  17.289 -0.7054 -0.3662 -0.0951
15806TIP3   OH268908   2.395   3.610   2.746  0.0850  0.2056  0.3036
15806TIP3    H168909   2.365   3.619   2.836 -2.2626 -2.2003 -0.1109
15806TIP3    H268910   2.406   3.700   2.715 -2.6633  1.2065  1.9005
15807TIP3   OH268911   2.079   3.691   6.258 -0.0078  0.3116 -0.0173
15807TIP3    H168912   2.009   3.646   6.211 -0.3655 -1.3031  1.9530
15807TIP3    H268913   2.127   3.737   6.190 -1.9578  0.0893 -1.6383
15808TIP3   OH268914   0.858   4.290  14.596  0.0934 -0.1901 -0.0361
15808TIP3    H168915   0.827   4.207  14.633 -0.7092  0.7228  1.4331
15808TIP3    H268916   0.954   4.285  14.602  0.0055  0.1396  2.7999
15809TIP3   OH268917   6.560   4.829  16.910  0.0083  0.1683 -0.6605
15809TIP3    H168918   6.652   4.808  16.925  0.1214  0.5070 -0.8557
15809TIP3    H268919   6.530   4.764  16.846  0.2776  0.4291 -1.0545
15810TIP3   OH268920   3.000   6.340   1.228  0.3686  0.2928 -0.8583
15810TIP3    H168921   3.014   6.431   1.254  0.4907 -0.0538  0.3244
15810TIP3    H268922   3.079   6.295   1.255 -0.1602 -0.3783 -0.3985
15811TIP3   OH268923   2.171   5.269  11.096 -0.6968 -0.2973 -0.3521
15811TIP3    H168924   2.104   5.314  11.044 -0.8224 -0.9816 -0.8082
15811TIP3    H268925   2.160   5.176  11.073  0.9200 -0.3517 -1.0287
15812TIP3   OH268926   3.410   5.271  12.476 -0.0437 -0.4946 -0.1502
15812TIP3    H168927   3.361   5.327  12.536  1.0785 -1.1917  1.4850
15812TIP3    H268928   3.417   5.323  12.396 -0.1550  1.1659  0.8606
15813TIP3   OH268929   3.344   2.125  13.355 -0.5952  0.0115  0.9278
15813TIP3    H168930   3.260   2.171  13.363 -0.3102  0.7534 -0.0713
15813TIP3    H268931   3.409   2.194  13.367 -0.1464 -0.3205  0.4027
15814TIP3   OH268932   3.539   5.240   1.447  0.0891 -0.1301 -0.0588
15814TIP3    H168933   3.533   5.295   1.525  0.3448 -0.4650  0.2041
15814TIP3    H268934   3.539   5.301   1.374  2.0541  0.3444  0.2786
15815TIP3   OH268935   3.372   5.932   6.456  0.1286 -0.2996 -0.0277
15815TIP3    H168936   3.428   5.900   6.527  1.4518 -0.9191 -1.3006
15815TIP3    H268937   3.391   6.025   6.450  0.0351 -0.2513  0.4008
15816TIP3   OH268938   4.429   6.174  13.058  0.2795  0.1881  0.1239
15816TIP3    H168939   4.480   6.209  12.986 -0.6947  2.1105  0.3078
15816TIP3    H268940   4.473   6.208  13.137 -0.4018  0.6081  0.3264
15817TIP3   OH268941   1.867   2.071  16.653 -0.0337 -0.5174  0.1382
15817TIP3    H168942   1.906   2.153  16.682  0.3358 -1.0468  1.1635
15817TIP3    H268943   1.938   2.024  16.610  0.2361 -1.0740  1.1689
15818TIP3   OH268944   1.848   2.090   4.479  0.1488 -0.5084  0.0188
15818TIP3    H168945   1.754   2.074   4.481 -0.0082  0.3811  1.6651
15818TIP3    H268946   1.882   2.041   4.554  0.6284  1.0365  0.8591
15819TIP3   OH268947   3.777   2.596  16.120  0.0043 -0.1809 -0.0448
15819TIP3    H168948   3.842   2.526  16.113  0.6366  0.0945  2.3153
15819TIP3    H268949   3.817   2.671  16.077  2.1159  0.4948  2.8450
15820TIP3   OH268950   0.006   6.778  16.276 -0.5008 -0.5422 -0.1047
15820TIP3    H168951   0.044   6.704  16.229  0.5746  0.1795 -0.4052
15820TIP3    H268952  -0.026   6.740  16.358  0.6441 -1.2309  0.0462
15821TIP3   OH268953   3.111   2.836  12.497  0.7027 -0.1178  0.0023
15821TIP3    H168954   3.184   2.788  12.459 -0.3845 -1.1571 -0.8682
15821TIP3    H268955   3.034   2.804  12.449 -0.7167 -1.1919  2.7682
15822TIP3   OH268956   5.303   3.777   2.971  0.8856 -0.3473  0.4405
15822TIP3    H168957   5.386   3.733   2.951  0.2368 -1.0989 -0.7564
15822TIP3    H268958   5.248   3.759   2.895  0.0874  1.3344  0.5774
15823TIP3   OH268959   2.981   5.702   0.817  0.3278  0.3472  0.5942
15823TIP3    H168960   3.033   5.728   0.892 -0.1240 -2.3437  1.9526
15823TIP3    H268961   2.894   5.739   0.834  0.5935  0.9824  0.6149
15824TIP3   OH268962   6.691   1.667   0.570  0.4697  0.5518 -0.1270
15824TIP3    H168963   6.630   1.598   0.596  1.5786 -1.2404 -1.9988
15824TIP3    H268964   6.776   1.639   0.605  0.6538  1.9605  0.6690
15825TIP3   OH268965   5.718   2.778   0.493  0.2100  0.2387  0.1057
15825TIP3    H168966   5.639   2.825   0.465 -0.6598 -1.6405 -0.8290
15825TIP3    H268967   5.774   2.777   0.415  0.5952  0.4480  0.3771
15826TIP3   OH268968   3.787   5.051   4.910  0.0312  0.0283 -0.2132
15826TIP3    H168969   3.872   5.081   4.881  0.3985 -0.9437 -0.1678
15826TIP3    H268970   3.727   5.122   4.888  0.8943  0.8473  0.0376
15827TIP3   OH268971   4.015   4.130  11.784 -0.3593  0.0443 -0.6507
15827TIP3    H168972   3.951   4.202  11.785 -0.4459 -0.0307 -0.6735
15827TIP3    H268973   4.043   4.122  11.874 -0.5187 -0.0409 -0.6074
15828TIP3   OH268974   1.949   0.457   0.113  0.4806 -0.0905 -0.2636
15828TIP3    H168975   1.900   0.444   0.195 -1.0304  1.9706 -0.7579
15828TIP3    H268976   1.946   0.372   0.070 -0.0786 -0.8025  1.0947
15829TIP3   OH268977   3.752   4.261  16.920  0.1509 -0.1347 -0.0518
15829TIP3    H168978   3.715   4.346  16.897 -2.0753 -0.3861  2.1611
15829TIP3    H268979   3.779   4.271  17.011  2.1741 -1.1338 -0.4843
15830TIP3   OH268980   0.486   6.538  14.767  0.1671 -0.4488  0.3562
15830TIP3    H168981   0.572   6.580  14.775  1.4371 -2.4824 -1.5196
15830TIP3    H268982   0.461   6.515  14.856  1.8516 -0.3320  0.8863
15831TIP3   OH268983   6.766   1.333  16.617  0.0515  0.0227  0.1103
15831TIP3    H168984   6.785   1.371  16.703 -0.4633  1.1635 -0.2575
15831TIP3    H268985   6.716   1.253  16.636 -1.0295  0.8444  0.8601
15832TIP3   OH268986   4.605   0.428   3.798 -0.4112  0.1695  0.6660
15832TIP3    H168987   4.685   0.409   3.749 -0.3143  5.3678 -1.8519
15832TIP3    H268988   4.541   0.366   3.764  1.6015 -1.7249  0.0661
15833TIP3   OH268989   5.680   4.862   5.079 -0.4813  0.4735  0.1041
15833TIP3    H168990   5.594   4.892   5.049  0.0455 -0.4163 -2.5844
15833TIP3    H268991   5.733   4.942   5.084 -0.6567  0.6977 -1.2702
15834TIP3   OH268992   1.454   1.141  14.456 -0.2013 -0.5607  0.5288
15834TIP3    H168993   1.520   1.195  14.413  0.8607 -1.6020  0.8141
15834TIP3    H268994   1.404   1.203  14.510  0.7810  0.1845  0.6061
15835TIP3   OH268995   5.962   1.062  12.515  0.0233 -0.0084 -0.3484
15835TIP3    H168996   5.963   1.027  12.426  0.0080  0.1540 -0.4115
15835TIP3    H268997   5.996   1.151  12.507 -1.9462  0.7904 -0.5222
15836TIP3   OH268998   6.574   5.356  16.249 -0.0719 -0.2231 -0.2233
15836TIP3    H168999   6.575   5.452  16.248  2.2628 -0.1755  0.2180
15836TIP3    H269000   6.605   5.331  16.162 -0.2021 -0.5729 -0.1696
15837TIP3   OH269001   5.724   4.431  13.612 -0.1860 -0.4363  0.3060
15837TIP3    H169002   5.791   4.461  13.550  0.4017  2.6361  2.2143
15837TIP3    H269003   5.642   4.432  13.561  0.7704 -1.9027 -1.3978
15838TIP3   OH269004   3.244   3.977  12.568 -0.7036  0.9688 -0.3527
15838TIP3    H169005   3.223   3.910  12.632 -0.7749 -1.0436 -2.3443
15838TIP3    H269006   3.163   4.028  12.559 -1.8987 -0.9892 -1.3755
15839TIP3   OH269007   0.634   2.145  15.355  0.2021 -0.3771 -0.3070
15839TIP3    H169008   0.685   2.118  15.431 -0.2363  0.9200  0.4822
15839TIP3    H269009   0.696   2.141  15.282  0.9519 -0.4980  0.3190
15840TIP3   OH269010   0.331   6.313   2.731  0.0635 -0.4649 -0.0934
15840TIP3    H169011   0.400   6.328   2.666 -0.4021 -2.1713 -1.0547
15840TIP3    H269012   0.250   6.333   2.684 -0.1705  0.5096  0.7039
15841TIP3   OH269013   2.472   1.577  13.567 -0.1591 -0.2332 -0.4393
15841TIP3    H169014   2.423   1.559  13.648  1.7685 -1.4961  0.5334
15841TIP3    H269015   2.440   1.662  13.539 -2.1576 -0.5358  0.6676
15842TIP3   OH269016   6.255   5.485   5.577  0.0866  0.2549 -0.2824
15842TIP3    H169017   6.327   5.448   5.629 -0.2095  1.0503  0.7304
15842TIP3    H269018   6.266   5.580   5.585 -2.0753  0.4473  1.4307
15843TIP3   OH269019   2.135   6.462   2.456  0.6049  0.0234 -0.1310
15843TIP3    H169020   2.197   6.454   2.528  1.3861 -1.2169 -0.9003
15843TIP3    H269021   2.113   6.555   2.453  0.5212  0.0936  1.7077
15844TIP3   OH269022   6.604   2.718  12.235 -0.5601  0.1425 -0.6353
15844TIP3    H169023   6.657   2.790  12.202  0.2883 -0.0679  0.2225
15844TIP3    H269024   6.593   2.737  12.328  1.8031 -2.0429  0.2256
15845TIP3   OH269025   1.821   2.610   5.404 -0.4673  0.5085  0.7105
15845TIP3    H169026   1.834   2.602   5.309  1.2116 -0.2390  0.9576
15845TIP3    H269027   1.809   2.520   5.434 -1.3143  0.7731  1.1799
15846TIP3   OH269028   2.406   6.143   4.238  0.3701  0.0909  0.4368
15846TIP3    H169029   2.344   6.207   4.205 -2.5331 -2.0288  1.2921
15846TIP3    H269030   2.442   6.100   4.160 -1.1107 -0.2256 -0.0916
15847TIP3   OH269031   6.452   1.448   6.181 -0.7415  0.6838 -0.3669
15847TIP3    H169032   6.404   1.429   6.261  0.7471  0.3951  0.4867
15847TIP3    H269033   6.436   1.372   6.125 -0.7760  0.3121  0.1401
15848TIP3   OH269034   1.259   2.077   2.152  0.0021  0.7491  0.4275
15848TIP3    H169035   1.171   2.043   2.139 -0.2833  2.1345 -1.8171
15848TIP3    H269036   1.269   2.144   2.085  2.5460  1.0946  1.0411
15849TIP3   OH269037   2.577   2.683   2.116 -0.6291 -0.3065  0.4968
15849TIP3    H169038   2.632   2.680   2.194 -1.9915  1.0763  1.5720
15849TIP3    H269039   2.497   2.728   2.144 -0.6142  1.5109 -2.0561
15850TIP3   OH269040   2.283   1.688   4.879 -0.0579  0.1896 -0.4893
15850TIP3    H169041   2.245   1.600   4.883  0.5076 -0.0250  0.3854
15850TIP3    H269042   2.376   1.675   4.897  0.1568  0.8958 -1.0214
15851TIP3   OH269043   2.974   2.748  12.996  0.4628  0.0355 -0.3081
15851TIP3    H169044   3.066   2.747  12.968  0.2556 -0.0010 -1.0076
15851TIP3    H269045   2.950   2.841  12.994  0.1539 -0.0523 -1.2716
15852TIP3   OH269046   0.665   0.628   1.405  0.3619 -0.3525  0.4915
15852TIP3    H169047   0.642   0.684   1.330 -0.0556  0.5375  1.2686
15852TIP3    H269048   0.676   0.541   1.367  1.1369  0.2671 -0.7643
15853TIP3   OH269049   4.736   3.004   5.533  0.2069  0.9241 -0.0889
15853TIP3    H169050   4.699   3.004   5.445 -0.6800  1.6556  0.2744
15853TIP3    H269051   4.686   2.937   5.580  0.3534  0.8712 -0.0076
15854TIP3   OH269052   1.163   3.624   1.495  0.3336 -0.0400  0.2700
15854TIP3    H169053   1.110   3.602   1.418 -0.1477 -1.5492  0.9991
15854TIP3    H269054   1.208   3.705   1.471 -0.2797 -0.1532 -1.3600
15855TIP3   OH269055   3.405   1.863   5.394  0.4582 -0.3634 -0.5407
15855TIP3    H169056   3.333   1.838   5.337 -0.3599  2.2185 -0.7418
15855TIP3    H269057   3.385   1.822   5.478 -1.1990  0.2048 -0.6313
15856TIP3   OH269058   3.958   6.057  17.115 -0.4361 -0.2306  0.1547
15856TIP3    H169059   3.988   6.022  17.031 -0.8495  1.6093 -0.8057
15856TIP3    H269060   3.958   5.981  17.174  2.4643 -1.0664 -0.7459
15857TIP3   OH269061   0.978   4.082   1.376  0.1578 -0.3065  0.3651
15857TIP3    H169062   0.944   3.998   1.408  1.2574 -0.8530  0.1639
15857TIP3    H269063   0.950   4.085   1.284  0.8631 -0.8755  0.1255
15858TIP3   OH269064   4.704   2.281  14.966 -0.6925  0.1601 -0.0111
15858TIP3    H169065   4.693   2.351  15.031  1.1913  1.2061 -0.7278
15858TIP3    H269066   4.747   2.210  15.014  2.5936  1.6830 -0.3823
15859TIP3   OH269067   1.550   5.969  14.417 -0.1802  0.1172  0.2573
15859TIP3    H169068   1.544   6.061  14.440 -1.7180  0.0811  0.0837
15859TIP3    H269069   1.542   5.923  14.501  1.7032  0.1280  0.4911
15860TIP3   OH269070   2.788   3.830   4.283  0.3300  0.3630  0.3170
15860TIP3    H169071   2.813   3.841   4.191  0.4783  0.6352  0.3895
15860TIP3    H269072   2.749   3.742   4.287  0.0557  0.4641 -0.0626
15861TIP3   OH269073   1.479   1.638   1.977 -0.1486  0.0383  0.1156
15861TIP3    H169074   1.518   1.725   1.980  1.9624 -0.8606  2.3110
15861TIP3    H269075   1.424   1.634   2.055 -0.0844 -0.6388  0.1350
15862TIP3   OH269076   6.017   4.897   5.386 -0.3370  0.2311 -0.4702
15862TIP3    H169077   6.049   4.986   5.367 -0.2708  0.1807 -0.5968
15862TIP3    H269078   6.019   4.853   5.301 -0.8949  0.2739 -0.5084
15863TIP3   OH269079   3.795   4.674  15.661 -0.4836  0.1539 -0.1709
15863TIP3    H169080   3.864   4.643  15.602 -1.0538 -0.2029 -0.6558
15863TIP3    H269081   3.738   4.598  15.673 -0.8973  0.4997  0.0802
15864TIP3   OH269082   5.992   3.813  12.820  0.0504 -0.3076  0.1265
15864TIP3    H169083   6.074   3.828  12.774  0.9373  0.3938  1.8655
15864TIP3    H269084   6.002   3.727  12.860 -0.4112 -0.5695 -0.2897
15865TIP3   OH269085   0.210   3.888   4.114  0.2737 -0.3747 -0.1310
15865TIP3    H169086   0.128   3.844   4.137  0.9685 -1.8701 -0.4181
15865TIP3    H269087   0.206   3.971   4.162 -1.2393 -0.5591  0.1338
15866TIP3   OH269088   6.307   3.291  16.823  0.4735 -0.6522  0.1544
15866TIP3    H169089   6.246   3.322  16.756 -0.2575  1.1208  1.5312
15866TIP3    H269090   6.391   3.331  16.800  0.2488 -0.1320  0.2187
15867TIP3   OH269091   0.556   3.108   5.893 -0.4844 -0.0400  0.0367
15867TIP3    H169092   0.501   3.127   5.817  0.1414  1.3884 -0.0932
15867TIP3    H269093   0.564   3.192   5.939  3.8373  0.6145 -1.4686
15868TIP3   OH269094   6.167   2.992   2.023 -0.4054  0.2590 -0.4669
15868TIP3    H169095   6.108   3.065   2.007  0.4489  0.9201 -0.6612
15868TIP3    H269096   6.231   2.996   1.952 -1.1579 -1.5546 -1.3197
15869TIP3   OH269097   3.236   1.099  11.823 -0.3646  0.2155  1.0749
15869TIP3    H169098   3.270   1.050  11.898 -0.1954  2.0083  2.2121
15869TIP3    H269099   3.175   1.162  11.861  0.2651  1.6479 -0.1945
15870TIP3   OH269100   2.559   1.172   4.575  0.7756  0.0159  0.3219
15870TIP3    H169101   2.573   1.260   4.611 -1.1076  0.8162 -0.7001
15870TIP3    H269102   2.519   1.123   4.647  0.5173  0.4528  0.4844
15871TIP3   OH269103   1.558   3.320   3.019 -0.2506  0.4469  0.3289
15871TIP3    H169104   1.532   3.323   2.927 -1.0460  1.5982  0.5697
15871TIP3    H269105   1.643   3.364   3.022  0.6146 -1.1017 -0.0795
15872TIP3   OH269106   4.138   6.195  12.644  0.2654 -0.2578 -0.1874
15872TIP3    H169107   4.109   6.239  12.563  1.7986  0.0849 -0.5842
15872TIP3    H269108   4.202   6.255  12.682 -1.8419  0.5499  2.3995
15873TIP3   OH269109   5.644   3.668   6.134  0.1087  0.2055 -0.0473
15873TIP3    H169110   5.596   3.742   6.098  0.5850  0.4856 -0.1116
15873TIP3    H269111   5.578   3.617   6.181 -0.1412  0.8887  0.3516
15874TIP3   OH269112   3.357   2.099   4.743  0.4750 -0.5823 -0.3439
15874TIP3    H169113   3.449   2.109   4.719 -0.1157  1.8514 -1.9537
15874TIP3    H269114   3.318   2.056   4.667  0.0086 -0.1410 -0.3543
15875TIP3   OH269115   1.584   5.023  14.718 -0.1336  0.4204 -0.8658
15875TIP3    H169116   1.549   4.948  14.767 -2.0333  2.0606  0.4657
15875TIP3    H269117   1.530   5.097  14.746  2.0718  2.4446 -1.6292
15876TIP3   OH269118   4.611   4.897   2.996  0.1116 -0.1430  0.4945
15876TIP3    H169119   4.591   4.902   3.089  1.2190  2.7953  0.6757
15876TIP3    H269120   4.538   4.943   2.953 -0.3133 -1.3416 -0.1189
15877TIP3   OH269121   5.582   0.076   5.654  0.2437  0.9910 -0.8355
15877TIP3    H169122   5.658   0.078   5.596  1.5012 -3.3901  0.3052
15877TIP3    H269123   5.532   0.001   5.625 -0.7204  0.5217  1.8012
15878TIP3   OH269124   5.615   0.082   3.819  0.2744 -0.0342 -0.1784
15878TIP3    H169125   5.653   0.169   3.805  1.0746 -0.1246  1.2361
15878TIP3    H269126   5.564   0.065   3.740 -0.9158  2.2367  0.0066
15879TIP3   OH269127   0.418   0.130  13.964 -0.3395  0.0535  0.3051
15879TIP3    H169128   0.380   0.147  13.878  0.7336  1.9462  0.1465
15879TIP3    H269129   0.511   0.146  13.953  0.0088 -0.9189  1.5478
15880TIP3   OH269130   2.854   1.786  15.838 -0.5753 -0.1802  0.0171
15880TIP3    H169131   2.781   1.781  15.776 -0.7221  0.3020  0.1425
15880TIP3    H269132   2.852   1.702  15.884  0.7700 -1.3745 -1.9603
15881TIP3   OH269133   5.628   0.721   2.084  0.5703 -0.1117  0.2302
15881TIP3    H169134   5.667   0.723   2.172  0.2083 -0.1364  0.3923
15881TIP3    H269135   5.701   0.698   2.026  1.4409  2.4500  0.1835
15882TIP3   OH269136   5.293   5.983  11.367  0.2012 -0.2519  0.2671
15882TIP3    H169137   5.322   6.047  11.432 -1.8892  0.0079  1.0346
15882TIP3    H269138   5.357   5.988  11.297  0.8513  1.6688  0.9556
15883TIP3   OH269139   4.498   6.673  14.985  0.4921 -0.6565  0.3246
15883TIP3    H169140   4.498   6.631  15.071 -0.7258  0.7934  1.0850
15883TIP3    H269141   4.416   6.723  14.982  0.2723 -1.0314 -1.8717
15884TIP3   OH269142   0.268   0.436  17.058 -0.5450 -0.1642  0.0104
15884TIP3    H169143   0.205   0.366  17.073  0.7108 -1.5433 -0.8303
15884TIP3    H269144   0.257   0.458  16.965  0.1190 -0.3615 -0.1222
15885TIP3   OH269145   4.628   2.261   1.100  0.4393  0.0262  0.3080
15885TIP3    H169146   4.553   2.249   1.041  1.7098 -0.2707 -1.3148
15885TIP3    H269147   4.589   2.291   1.182 -1.5772 -1.5559 -0.0057
15886TIP3   OH269148   3.277   5.397   5.797  0.2908  0.0642 -0.4722
15886TIP3    H169149   3.189   5.394   5.758 -0.1359  1.4547  0.3321
15886TIP3    H269150   3.310   5.307   5.788 -1.1533 -0.4474 -0.9151
15887TIP3   OH269151   3.583   1.770   2.799 -0.1448 -0.5957 -0.0661
15887TIP3    H169152   3.494   1.776   2.834  0.1110 -0.6288  0.6046
15887TIP3    H269153   3.613   1.683   2.827 -0.0930 -0.8100 -0.7622
15888TIP3   OH269154   3.192   2.761  15.482  0.2818 -0.1837 -0.2834
15888TIP3    H169155   3.167   2.671  15.503  0.8446 -0.3139 -0.1663
15888TIP3    H269156   3.229   2.755  15.394 -0.7168  0.1240 -0.7484
15889TIP3   OH269157   2.722   6.096   2.390  0.6060 -0.2448  0.8220
15889TIP3    H169158   2.757   6.183   2.411  0.6268 -0.0885  0.1500
15889TIP3    H269159   2.677   6.108   2.306 -0.0524 -0.7094  1.0992
15890TIP3   OH269160   0.264   5.611   1.349 -0.0768  0.4885 -0.1700
15890TIP3    H169161   0.346   5.563   1.353 -0.1013  0.5622  2.4128
15890TIP3    H269162   0.282   5.695   1.392 -1.4289  0.6000  0.2493
15891TIP3   OH269163   2.989   1.583  13.022  0.3015  0.3000 -0.6181
15891TIP3    H169164   3.040   1.544  13.093 -1.9181  0.8739  1.4334
15891TIP3    H269165   2.961   1.508  12.969 -0.2606 -0.5100  0.7432
15892TIP3   OH269166   6.368   1.601   2.247 -0.2092 -0.1881  0.0686
15892TIP3    H169167   6.395   1.688   2.275  0.5138 -0.6520  0.8719
15892TIP3    H269168   6.451   1.558   2.223 -0.2268 -1.4825  2.0916
15893TIP3   OH269169   1.718   5.410  12.549  0.3211  0.0978 -0.0007
15893TIP3    H169170   1.711   5.404  12.644 -0.5379 -0.9197 -0.1138
15893TIP3    H269171   1.770   5.334  12.523 -0.9307 -0.6191 -0.4850
15894TIP3   OH269172   5.479   1.202   1.598 -0.6416 -0.0595  0.1548
15894TIP3    H169173   5.419   1.231   1.530  0.0966  1.2473  0.0198
15894TIP3    H269174   5.516   1.120   1.565  0.6843  1.2080 -1.6768
15895TIP3   OH269175   3.834   5.199  13.914  0.2096 -0.2017 -0.3098
15895TIP3    H169176   3.753   5.196  13.965  1.1521 -0.7067  1.2314
15895TIP3    H269177   3.871   5.285  13.932  0.8628 -0.6169  0.4096
15896TIP3   OH269178   1.984   4.760  14.357 -0.1173 -0.4144 -0.2129
15896TIP3    H169179   2.008   4.777  14.266  1.3458  2.4494  0.5717
15896TIP3    H269180   1.960   4.846  14.392 -1.0694 -1.4973  2.0074
15897TIP3   OH269181   5.534   0.753   0.315  0.3073  0.4510  0.1863
15897TIP3    H169182   5.486   0.761   0.233 -0.9796 -1.4233  0.6764
15897TIP3    H269183   5.553   0.660   0.323 -0.8834  0.3266  2.6464
15898TIP3   OH269184   6.485   1.587  11.194  0.6211  0.3539  0.0316
15898TIP3    H169185   6.512   1.539  11.115  0.9098  0.7688 -0.1213
15898TIP3    H269186   6.485   1.679  11.168  1.0061  0.5213  0.5983
15899TIP3   OH269187   6.504   0.279  12.943 -0.2947 -0.3284 -0.6963
15899TIP3    H169188   6.575   0.217  12.928  0.1219 -0.5883  1.8798
15899TIP3    H269189   6.546   0.364  12.948 -0.1614 -0.4473  0.5291
15900TIP3   OH269190   2.531   6.187  10.663 -0.2919 -0.7352  0.2606
15900TIP3    H169191   2.446   6.219  10.635  0.6707 -0.9955 -3.4647
15900TIP3    H269192   2.518   6.093  10.679 -0.4344 -1.1889 -2.1369
15901TIP3   OH269193   4.664   4.415  10.755 -0.3663  0.4263  0.0658
15901TIP3    H169194   4.632   4.346  10.698 -0.4485 -0.5572  1.2619
15901TIP3    H269195   4.756   4.392  10.772  0.1225  1.5772 -0.9248
15902TIP3   OH269196   4.162   2.107   1.329 -0.0452  0.0628 -0.0835
15902TIP3    H169197   4.192   2.117   1.238  0.9307  1.1686  0.3402
15902TIP3    H269198   4.234   2.062   1.373 -0.0077  0.6090  0.4149
15903TIP3   OH269199   1.860   3.463   1.903 -0.4325  0.4655 -0.0704
15903TIP3    H169200   1.941   3.453   1.853 -0.4339 -0.1331  0.0414
15903TIP3    H269201   1.861   3.554   1.933  0.3809  0.3511  0.2490
15904TIP3   OH269202   4.771   2.457   0.798 -0.0274  0.0314  0.1163
15904TIP3    H169203   4.770   2.395   0.871  0.3175 -0.5077 -0.3290
15904TIP3    H269204   4.862   2.488   0.794 -0.1814  0.5051  0.2870
15905TIP3   OH269205   6.171   6.819   2.030 -0.8726  0.1387 -0.0736
15905TIP3    H169206   6.193   6.898   2.080 -1.9697  0.1332  0.4577
15905TIP3    H269207   6.179   6.845   1.938 -0.4629  0.6412  0.1012
15906TIP3   OH269208   5.668   4.834   5.686 -0.1860  1.0899  0.0076
15906TIP3    H169209   5.753   4.875   5.670  0.0735  1.4711  2.1135
15906TIP3    H269210   5.643   4.798   5.601  2.4819  0.1824 -0.5102
15907TIP3   OH269211   6.725   6.031   4.033 -0.4452 -0.0727 -0.6354
15907TIP3    H169212   6.690   5.994   4.114 -0.4733  1.7684  0.2480
15907TIP3    H269213   6.653   6.021   3.970 -1.1242  0.1521  0.0828
15908TIP3   OH269214   3.117   5.789   2.661 -0.0653 -0.9504  0.0663
15908TIP3    H169215   3.126   5.790   2.756 -1.8848  0.5232  0.2733
15908TIP3    H269216   3.176   5.859   2.631 -0.7323 -0.2905  0.2705
15909TIP3   OH269217   4.594   0.919  15.537  0.0024  0.7510 -0.4831
15909TIP3    H169218   4.545   1.001  15.546  0.2232  0.7459  1.0185
15909TIP3    H269219   4.543   0.856  15.588  0.5512  0.2735 -0.5240
15910TIP3   OH269220   0.526   3.296   6.061  0.3794  0.2317 -0.7177
15910TIP3    H169221   0.538   3.387   6.033  0.1349  0.4367 -0.1814
15910TIP3    H269222   0.526   3.301   6.157 -0.0010 -0.2824 -0.6899
15911TIP3   OH269223   1.940   1.521   1.406 -0.5351  0.5694 -0.1041
15911TIP3    H169224   1.905   1.490   1.323  0.1717 -0.8541  0.0995
15911TIP3    H269225   1.869   1.508   1.469 -0.5645  0.2429 -0.2055
15912TIP3   OH269226   0.981   3.447  16.939 -0.3706  0.3819  0.2340
15912TIP3    H169227   1.066   3.443  16.896  0.2986 -1.4770  1.6296
15912TIP3    H269228   0.965   3.358  16.970 -2.4155  0.8949  0.8092
15913TIP3   OH269229   0.161   1.893   2.309  0.3197  0.5623 -0.1743
15913TIP3    H169230   0.213   1.934   2.378 -0.3341 -0.0453  0.6912
15913TIP3    H269231   0.166   1.955   2.236  0.0558  1.7954  0.8182
15914TIP3   OH269232   1.915   2.017   2.703 -0.4878  0.1056 -0.1775
15914TIP3    H169233   1.954   1.967   2.631 -1.5082  0.2981 -0.8860
15914TIP3    H269234   1.861   2.083   2.660 -3.0283 -1.2605  0.7140
15915TIP3   OH269235   1.490   5.575  14.722 -0.0719 -0.4372 -0.7262
15915TIP3    H169236   1.531   5.530  14.796  0.4162  0.1212 -0.6443
15915TIP3    H269237   1.396   5.571  14.739  0.0664  0.3094  0.3066
15916TIP3   OH269238   3.866   5.303  16.866  0.6337 -0.3653  0.3648
15916TIP3    H169239   3.840   5.256  16.946  0.3367 -1.7308 -0.5059
15916TIP3    H269240   3.878   5.234  16.801  0.3770  0.7681 -0.9136
15917TIP3   OH269241   4.777   4.216   2.976 -0.0633 -0.1117  0.4304
15917TIP3    H169242   4.798   4.184   3.064 -0.3582 -0.7127  0.2879
15917TIP3    H269243   4.689   4.182   2.960  0.1564 -0.3582 -0.2667
15918TIP3   OH269244   0.343   1.358  11.619  0.3733 -0.5910 -0.8308
15918TIP3    H169245   0.362   1.281  11.564  1.8361 -0.3712 -0.6730
15918TIP3    H269246   0.419   1.366  11.675 -0.8124 -0.4190  0.8250
15919TIP3   OH269247   5.959   6.757  16.052 -0.4668  0.3167 -0.5985
15919TIP3    H169248   6.038   6.743  16.104 -0.4185 -0.3190 -0.8363
15919TIP3    H269249   5.893   6.785  16.116 -0.2107  0.2643 -0.3083
15920TIP3   OH269250   5.888   3.762  16.153 -0.1680  0.7400 -0.0785
15920TIP3    H169251   5.981   3.783  16.167  0.1797 -1.4512  1.4390
15920TIP3    H269252   5.870   3.693  16.217 -2.3389 -0.2435 -1.6523
15921TIP3   OH269253   1.087   6.521  12.733 -0.1154  0.2245 -0.2620
15921TIP3    H169254   1.047   6.574  12.664  0.6333  0.9427 -0.1587
15921TIP3    H269255   1.021   6.516  12.801 -1.1470 -1.1001 -1.3105
15922TIP3   OH269256   5.902   1.640   1.935  0.2748 -0.1818  0.2105
15922TIP3    H169257   5.994   1.627   1.911  0.8378  1.3750  1.3694
15922TIP3    H269258   5.887   1.734   1.924 -0.3425  0.0691  2.6938
15923TIP3   OH269259   1.727   4.577  15.895  0.0477  0.1906  0.1388
15923TIP3    H169260   1.794   4.562  15.962 -0.6988  1.3604  1.1909
15923TIP3    H269261   1.774   4.620  15.824  0.6389 -0.0453  0.3809
15924TIP3   OH269262   1.330   3.166  14.741  0.0018  0.6018 -0.3262
15924TIP3    H169263   1.259   3.202  14.793 -1.0190 -2.0671  0.3239
15924TIP3    H269264   1.304   3.179  14.650 -1.0862  0.1708 -0.0917
15925TIP3   OH269265   5.397   5.187  17.024 -0.1323 -0.0544 -0.2277
15925TIP3    H169266   5.433   5.275  17.024 -1.9107  0.7119  0.2304
15925TIP3    H269267   5.311   5.196  16.983  0.0256 -1.7529 -1.0150
15926TIP3   OH269268   2.771   1.767  11.310 -0.2026  0.1319  0.1694
15926TIP3    H169269   2.765   1.842  11.252 -0.1628  0.8617  1.0902
15926TIP3    H269270   2.819   1.701  11.260 -1.0951  0.3470 -1.0114
15927TIP3   OH269271   1.517   6.457  16.793 -0.0670 -0.1995  0.1516
15927TIP3    H169272   1.452   6.520  16.822  0.9470  0.7965  0.3459
15927TIP3    H269273   1.557   6.425  16.874  0.1798 -0.2654  0.0045
15928TIP3   OH269274   6.322   5.506  16.982  0.0602  0.0888  0.3664
15928TIP3    H169275   6.312   5.509  17.077 -0.0162 -1.3774  0.4306
15928TIP3    H269276   6.305   5.596  16.953 -0.0423  0.5279  1.7152
15929TIP3   OH269277   3.314   2.595  13.189  0.0960 -0.6059  0.0609
15929TIP3    H169278   3.338   2.526  13.128 -1.0741 -0.5836 -0.4433
15929TIP3    H269279   3.294   2.549  13.271 -0.2410 -0.8185 -0.1420
15930TIP3   OH269280   0.432   2.287   1.507 -0.3621 -0.0956 -0.4503
15930TIP3    H169281   0.469   2.305   1.420  1.1444 -0.8058  0.0079
15930TIP3    H269282   0.358   2.229   1.489 -1.7588  1.8642 -1.4453
15931TIP3   OH269283   5.677   4.877   3.671  0.0526 -0.4971 -0.3390
15931TIP3    H169284   5.714   4.906   3.754  0.9538  1.4419 -1.3460
15931TIP3    H269285   5.752   4.870   3.613 -0.7165 -0.3419 -1.3784
15932TIP3   OH269286   2.664   5.282  11.200 -0.7061  0.0843 -0.0195
15932TIP3    H169287   2.573   5.278  11.229 -0.0151 -2.2783  2.2378
15932TIP3    H269288   2.664   5.239  11.115 -1.6432 -0.4099  0.2211
15933TIP3   OH269289   2.279   0.553  15.831 -0.1942  0.2841 -0.0667
15933TIP3    H169290   2.208   0.528  15.889 -1.1730 -0.0705 -1.3682
15933TIP3    H269291   2.249   0.527  15.744  0.7152  1.8607 -0.8927
15934TIP3   OH269292   1.459   5.382  12.458  0.8660  0.0102 -0.0360
15934TIP3    H169293   1.554   5.391  12.455  0.7355  2.9118  1.3614
15934TIP3    H269294   1.444   5.314  12.523  1.9583 -0.7090 -0.5042
15935TIP3   OH269295   2.485   6.611  13.582 -0.0091  0.1074  0.3702
15935TIP3    H169296   2.391   6.627  13.579 -0.0333  0.3099  1.6580
15935TIP3    H269297   2.498   6.560  13.662  0.8835 -0.5972 -0.2033
15936TIP3   OH269298   6.167   6.445  12.836  0.0525 -1.0999  0.1166
15936TIP3    H169299   6.245   6.392  12.817  1.0704  0.1164  0.7316
15936TIP3    H269300   6.145   6.423  12.927 -1.4807 -2.8151 -0.6174
15937TIP3   OH269301   2.896   1.790  11.051 -0.2043  0.4091  0.0603
15937TIP3    H169302   2.961   1.855  11.022  0.1354  0.1257  0.1811
15937TIP3    H269303   2.847   1.769  10.971 -1.5862  2.2007  0.3624
15938TIP3   OH269304   3.478   6.237   2.747  0.5165  0.1541 -0.2258
15938TIP3    H169305   3.484   6.274   2.835  0.2058 -0.6001  0.1130
15938TIP3    H269306   3.467   6.143   2.760 -1.1492  0.2019 -1.0129
15939TIP3   OH269307   5.891   6.628   0.601 -0.0567  0.0546 -0.2471
15939TIP3    H169308   5.810   6.643   0.650  0.7604  0.3461  1.0639
15939TIP3    H269309   5.896   6.533   0.592  0.0350 -0.0410  0.7104
15940TIP3   OH269310   2.828   2.634  11.854 -0.1725 -0.0076 -0.0663
15940TIP3    H169311   2.832   2.682  11.937  3.5028  3.1853 -1.7927
15940TIP3    H269312   2.736   2.639  11.829 -0.7782  2.2012  2.1028
15941TIP3   OH269313   6.493   0.466   2.616  0.4634  0.3942  0.5038
15941TIP3    H169314   6.513   0.551   2.576  0.2731  0.0304 -0.3955
15941TIP3    H269315   6.398   0.462   2.617  0.4589  0.5433  1.3326
15942TIP3   OH269316   6.124   3.640  15.371 -0.4130 -0.7365  0.1252
15942TIP3    H169317   6.055   3.678  15.317 -0.5729 -1.6530 -0.3525
15942TIP3    H269318   6.203   3.647  15.317 -0.6725 -2.1269 -0.4854
15943TIP3   OH269319   6.575   5.927   1.442 -0.8265 -0.4384  0.5239
15943TIP3    H169320   6.631   5.850   1.436 -0.2237 -0.0055  0.5137
15943TIP3    H269321   6.499   5.898   1.493 -1.3320 -1.4530 -0.7236
15944TIP3   OH269322   2.528   0.706   6.273  0.2981 -0.0967  0.4359
15944TIP3    H169323   2.572   0.641   6.216 -2.5884 -1.6624 -0.1940
15944TIP3    H269324   2.492   0.654   6.345 -0.6599  1.0643  0.8193
15945TIP3   OH269325   4.941   3.492  16.953  0.1485  0.1087  0.1524
15945TIP3    H169326   4.965   3.552  17.024 -1.3372  1.2331 -0.2479
15945TIP3    H269327   4.900   3.418  16.997  0.0127  0.4051  0.5334
15946TIP3   OH269328   5.006   5.642   6.495 -0.0146  0.2397 -0.0462
15946TIP3    H169329   4.973   5.677   6.412 -1.6058 -0.9093  0.0510
15946TIP3    H269330   5.099   5.626   6.479 -0.1593  0.6188 -1.4118
15947TIP3   OH269331   0.020   0.602   1.899  1.2157 -0.1557  0.1811
15947TIP3    H169332  -0.061   0.594   1.950  1.0513 -0.2277 -0.0884
15947TIP3    H269333   0.041   0.513   1.872  2.3626 -0.3960  1.7270
15948TIP3   OH269334   3.395   4.523   3.703 -0.2471 -0.2524 -0.1433
15948TIP3    H169335   3.331   4.548   3.637 -2.6981 -2.1631  1.3586
15948TIP3    H269336   3.463   4.476   3.654 -1.4056 -0.6023 -1.4711
15949TIP3   OH269337   2.896   0.222  12.494 -0.3675 -0.1215 -0.2302
15949TIP3    H169338   2.826   0.247  12.554  0.7396 -0.0736  1.0827
15949TIP3    H269339   2.970   0.201  12.551  1.2457  1.4712 -1.6236
15950TIP3   OH269340   4.774   6.672   1.622 -0.0576  0.5636 -0.1051
15950TIP3    H169341   4.754   6.758   1.659 -0.9083  0.0209  0.7478
15950TIP3    H269342   4.869   6.664   1.629 -0.1099  0.8586  1.1462
15951TIP3   OH269343   5.371   0.361   2.656  0.5139 -0.0346 -0.1215
15951TIP3    H169344   5.313   0.436   2.670 -1.0331 -1.2974  0.5520
15951TIP3    H269345   5.354   0.333   2.566 -1.0738 -1.2841  0.5226
15952TIP3   OH269346   4.280   4.155   3.723  0.2590  0.1851  0.4573
15952TIP3    H169347   4.347   4.223   3.720 -0.0906  0.5787  1.3161
15952TIP3    H269348   4.312   4.087   3.663  0.0135  1.6171 -1.3969
15953TIP3   OH269349   1.790   4.256  13.507 -0.1979 -0.4484  0.0921
15953TIP3    H169350   1.722   4.211  13.558 -0.9326 -0.5234 -0.9133
15953TIP3    H269351   1.789   4.346  13.542 -0.6184 -0.5197  0.2757
15954TIP3   OH269352   0.080   4.878   1.474 -0.2290 -0.1371 -0.0196
15954TIP3    H169353  -0.010   4.845   1.485  0.4195 -1.5826  1.3065
15954TIP3    H269354   0.076   4.931   1.394 -2.1026 -0.7592 -0.3994
15955TIP3   OH269355   1.639   3.291  16.734  0.0833 -0.4591  0.1385
15955TIP3    H169356   1.732   3.308  16.751 -0.1740 -0.1132  1.3367
15955TIP3    H269357   1.638   3.247  16.649  1.3009 -0.0509 -0.1148
15956TIP3   OH269358   1.939   0.064   2.050  0.3945 -0.1170 -0.1506
15956TIP3    H169359   1.975   0.153   2.044  0.7750 -0.2264  0.4503
15956TIP3    H269360   1.863   0.066   1.992  0.2222  0.6920  0.0821
15957TIP3   OH269361   2.662   0.486   0.349  0.3263  0.1903 -0.0827
15957TIP3    H169362   2.614   0.405   0.335  0.4946 -0.0666  0.7626
15957TIP3    H269363   2.727   0.489   0.279  0.8758 -0.8225  0.3765
15958TIP3   OH269364   1.132   3.173   2.194  0.1267  0.9434 -0.4675
15958TIP3    H169365   1.118   3.258   2.237  0.4857  0.2414  1.1034
15958TIP3    H269366   1.173   3.119   2.261 -2.9382 -1.4930 -0.3160
15959TIP3   OH269367   6.285   6.693   4.964 -0.0979  0.4742  0.5428
15959TIP3    H169368   6.221   6.638   4.920 -0.2104 -0.2254  1.5543
15959TIP3    H269369   6.350   6.632   4.999 -0.5479  0.8912  2.2257
15960TIP3   OH269370   5.982   0.156   2.916  0.5529  0.5679 -0.1382
15960TIP3    H169371   5.994   0.224   2.849  0.9682  0.7913  0.1634
15960TIP3    H269372   6.051   0.092   2.899  0.1541  0.2042 -0.4307
15961TIP3   OH269373   1.515   0.246  11.103  0.2068 -0.4231  0.1725
15961TIP3    H169374   1.564   0.188  11.160 -0.5807  0.3586  1.6978
15961TIP3    H269375   1.582   0.294  11.054  0.8746 -1.6023 -0.1087
15962TIP3   OH269376   0.775   6.344   1.082 -0.8246 -0.5782  0.3041
15962TIP3    H169377   0.863   6.357   1.117 -0.5440  0.0184 -0.6006
15962TIP3    H269378   0.760   6.250   1.089 -0.8730 -0.4736  2.2000
15963TIP3   OH269379   0.194   1.501   3.572  0.0567  0.0158 -0.0213
15963TIP3    H169380   0.261   1.438   3.597  2.3720  1.4798 -2.0890
15963TIP3    H269381   0.124   1.448   3.534  0.7577 -1.4672  0.6860
15964TIP3   OH269382   5.124   5.293   3.273  0.1921 -0.7266  0.2799
15964TIP3    H169383   5.126   5.336   3.359 -0.2230 -2.9992  1.5327
15964TIP3    H269384   5.069   5.216   3.287 -0.1700 -0.9630 -2.1594
15965TIP3   OH269385   5.169   3.301  12.001  0.0947 -0.1536 -0.1446
15965TIP3    H169386   5.240   3.339  11.950  1.0276 -1.9361 -0.2580
15965TIP3    H269387   5.090   3.324  11.952  0.9175 -1.4550 -2.2350
15966TIP3   OH269388   3.195   1.088   1.369  0.4817 -0.3401  0.1038
15966TIP3    H169389   3.124   1.050   1.420 -1.4102 -0.6828 -2.5657
15966TIP3    H269390   3.163   1.175   1.345  0.9531 -0.4814 -1.1094
15967TIP3   OH269391   5.864   1.749   4.816  0.0943 -0.3183  0.3186
15967TIP3    H169392   5.792   1.726   4.874 -1.4221 -0.4460 -1.5354
15967TIP3    H269393   5.909   1.821   4.861  0.4155 -1.8774  2.6876
15968TIP3   OH269394   2.370   5.665   3.106  0.3396 -0.2749 -0.1432
15968TIP3    H169395   2.411   5.721   3.172  2.3727 -0.6613 -1.0147
15968TIP3    H269396   2.443   5.628   3.056 -1.1088  0.4475 -3.0119
15969TIP3   OH269397   0.442   1.908  15.066  0.6423 -0.3396 -0.6085
15969TIP3    H169398   0.480   1.995  15.074 -0.0687  0.1065 -1.7773
15969TIP3    H269399   0.428   1.897  14.972 -1.6693 -0.6387 -0.2810
15970TIP3   OH269400   3.888   4.653  12.968  0.7279  0.0918 -0.6650
15970TIP3    H169401   3.911   4.631  13.058  0.0873 -0.8361 -0.7153
15970TIP3    H269402   3.792   4.661  12.969  0.6380 -0.6822 -1.4006
15971TIP3   OH269403   2.396   5.275   1.616  0.8236 -0.3296 -0.5400
15971TIP3    H169404   2.427   5.216   1.685  1.4931  0.3130 -0.2775
15971TIP3    H269405   2.426   5.362   1.643 -0.7472  0.2475 -0.5745
15972TIP3   OH269406   2.287   1.398  15.693 -0.6144 -0.3369 -0.1813
15972TIP3    H169407   2.269   1.461  15.623 -0.1466 -0.4994 -0.4514
15972TIP3    H269408   2.352   1.442  15.748 -1.0078 -0.1947  0.1763
15973TIP3   OH269409   4.222   2.000  12.835 -0.5504  0.3039  0.1342
15973TIP3    H169410   4.222   1.945  12.757 -0.5534  1.6873 -0.8667
15973TIP3    H269411   4.257   2.084  12.806 -1.2238  1.0786  1.4552
15974TIP3   OH269412   6.684   2.913  14.766 -0.2443 -0.3746 -0.2430
15974TIP3    H169413   6.718   2.909  14.856 -0.0015 -1.4570 -0.3614
15974TIP3    H269414   6.744   2.970  14.720 -0.4645  0.3243  0.3231
15975TIP3   OH269415   6.526   1.319   5.033  0.3476 -0.1837  0.0297
15975TIP3    H169416   6.544   1.381   4.963  0.6886 -0.2606  0.0483
15975TIP3    H269417   6.532   1.371   5.113 -1.8755  0.3216 -0.0853
15976TIP3   OH269418   0.926   1.383  12.755 -0.3824 -0.0118 -0.1964
15976TIP3    H169419   0.902   1.474  12.772 -0.5787 -0.1989  0.5752
15976TIP3    H269420   0.919   1.374  12.660  0.0420  0.8862 -0.3225
15977TIP3   OH269421   3.339   6.061   3.613 -0.7614  0.1104  0.3766
15977TIP3    H169422   3.392   6.140   3.608  2.3885 -1.8082  0.3442
15977TIP3    H269423   3.327   6.034   3.521  0.5054 -0.7986  0.4534
15978TIP3   OH269424   3.902   4.431   5.293 -0.0368 -0.2662 -0.3382
15978TIP3    H169425   3.957   4.501   5.330 -1.7194  0.5232  0.8003
15978TIP3    H269426   3.843   4.476   5.233 -0.4205 -0.8666 -0.4157
15979TIP3   OH269427   5.657   2.799   1.752 -0.5708  0.2805 -0.4261
15979TIP3    H169428   5.575   2.787   1.704  0.1335  0.5842 -1.7683
15979TIP3    H269429   5.644   2.754   1.835 -1.1573 -2.0337 -1.6991
15980TIP3   OH269430   0.561   1.196  16.585 -0.1455 -0.4467  0.0385
15980TIP3    H169431   0.499   1.144  16.534  0.0360  0.1926 -0.8604
15980TIP3    H269432   0.631   1.218  16.523  1.2881 -1.6210  1.1676
15981TIP3   OH269433   2.956   2.838  16.943 -0.2474 -0.7042  0.0358
15981TIP3    H169434   3.044   2.870  16.923  0.7618 -3.0572  0.4736
15981TIP3    H269435   2.967   2.788  17.024 -2.0339 -0.9484  0.1573
15982TIP3   OH269436   4.411   1.222   5.430 -0.1159  0.2311 -0.5212
15982TIP3    H169437   4.379   1.298   5.381  0.5774  1.6042  1.0672
15982TIP3    H269438   4.370   1.229   5.516  1.4468 -0.0998  0.2919
15983TIP3   OH269439   1.290   5.688  17.007 -0.2146 -0.5392 -0.3882
15983TIP3    H169440   1.203   5.679  17.046  0.4724 -1.0094  1.1145
15983TIP3    H269441   1.286   5.636  16.927 -1.5433  0.0841 -0.7361
15984TIP3   OH269442   2.843   2.959   0.076  0.0870 -0.1064 -0.6436
15984TIP3    H169443   2.835   2.985   0.168  0.9529 -0.4461 -0.4597
15984TIP3    H269444   2.772   2.897   0.062 -0.0954  0.0029 -0.2260
15985TIP3   OH269445   3.978   3.586   1.392 -0.0586  0.5357  0.3590
15985TIP3    H169446   3.883   3.585   1.392 -0.0946  0.8355 -1.5140
15985TIP3    H269447   4.001   3.650   1.459 -1.0923 -0.7288  2.0176
15986TIP3   OH269448   3.726   4.346  13.938 -1.1804  0.5011 -0.3730
15986TIP3    H169449   3.638   4.376  13.962 -1.8960 -1.5777 -0.2066
15986TIP3    H269450   3.771   4.335  14.022 -1.1382  0.4617 -0.4010
15987TIP3   OH269451   1.073   1.627   5.883  0.0536 -0.7770 -0.5194
15987TIP3    H169452   1.164   1.599   5.890  0.4013  0.2774 -0.7029
15987TIP3    H269453   1.077   1.714   5.843 -0.9346 -0.0986  0.7464
15988TIP3   OH269454   5.317   3.491  12.811 -0.0800  0.2699 -0.0415
15988TIP3    H169455   5.224   3.482  12.791 -0.5834  0.5710  1.9615
15988TIP3    H269456   5.327   3.581  12.842  1.2952  0.8774 -2.0454
15989TIP3   OH269457   1.868   0.913   0.478 -0.9872  0.4718 -0.0100
15989TIP3    H169458   1.853   0.968   0.555 -0.1819  0.9553 -0.1902
15989TIP3    H269459   1.807   0.840   0.489 -1.2243  0.7844  0.8382
15990TIP3   OH269460   3.883   2.388   5.831 -0.6467 -0.2155  0.5968
15990TIP3    H169461   3.871   2.303   5.788  1.3017 -0.1121 -0.2386
15990TIP3    H269462   3.945   2.371   5.902 -0.1808  0.5080  0.3768
15991TIP3   OH269463   6.141   0.708   5.918 -0.9005  0.1073 -0.4509
15991TIP3    H169464   6.179   0.714   6.006 -0.6490  1.2741 -0.6237
15991TIP3    H269465   6.148   0.616   5.895  1.4875  0.2130 -0.3224
15992TIP3   OH269466   5.448   1.559  11.984  0.2285 -0.1266 -0.3119
15992TIP3    H169467   5.385   1.606  11.930 -0.5907 -0.8927 -0.0484
15992TIP3    H269468   5.431   1.466  11.966  1.7043 -0.3463 -0.7043
15993TIP3   OH269469   0.627   1.434   5.426  0.0478  0.0731  0.0732
15993TIP3    H169470   0.573   1.477   5.492 -0.1733  0.9679 -0.6821
15993TIP3    H269471   0.643   1.501   5.360  1.2523 -0.4676 -0.2132
15994TIP3   OH269472   5.687   2.596   1.445  0.4894  0.6802 -0.6230
15994TIP3    H169473   5.761   2.547   1.478  0.1208  1.5690  1.7103
15994TIP3    H269474   5.724   2.656   1.380  1.8181  1.1226  0.5213
15995TIP3   OH269475   5.983   4.630  14.380 -0.2466  0.1922  0.1216
15995TIP3    H169476   5.961   4.579  14.302  1.2487 -1.0631  0.4632
15995TIP3    H269477   5.899   4.656  14.417 -1.0090  1.3925 -2.2258
15996TIP3   OH269478   4.226   6.349  15.457  0.6150  0.1656 -0.7981
15996TIP3    H169479   4.270   6.434  15.461 -0.2881  0.6095 -0.0757
15996TIP3    H269480   4.297   6.287  15.441  1.3527  0.9904 -0.8278
15997TIP3   OH269481   2.312   6.206   4.506  0.3395  0.3666  0.4299
15997TIP3    H169482   2.218   6.192   4.496  0.0385  2.1322  0.4319
15997TIP3    H269483   2.348   6.193   4.419  0.4136 -2.1316  0.7600
15998TIP3   OH269484   4.902   5.475   3.940  0.0468  0.4035 -0.2862
15998TIP3    H169485   4.846   5.546   3.908 -0.5003 -0.0718 -0.4171
15998TIP3    H269486   4.856   5.441   4.017  0.4219  0.3404 -0.0862
15999TIP3   OH269487   3.069   0.810  15.949 -0.0132 -0.3768  0.3342
15999TIP3    H169488   3.116   0.731  15.922 -0.2201  0.1032 -1.5677
15999TIP3    H269489   2.983   0.803  15.908 -0.2593  0.5458  0.6613
16000TIP3   OH269490   4.249   5.947  16.186 -0.0638  0.4135  0.6054
16000TIP3    H169491   4.304   5.904  16.120  0.0905  0.5176  0.6659
16000TIP3    H269492   4.198   6.012  16.136 -1.1305 -0.6032  0.3223
16001TIP3   OH269493   3.374   4.619   5.223  0.3011  0.8503 -0.1433
16001TIP3    H169494   3.324   4.662   5.155 -1.4268 -1.8160 -0.7313
16001TIP3    H269495   3.311   4.604   5.294 -0.5241 -4.0013 -1.5181
16002TIP3   OH269496   5.932   2.687  13.078  0.7968 -0.5270  0.7340
16002TIP3    H169497   5.885   2.739  13.013 -1.5373 -0.2830  2.4864
16002TIP3    H269498   6.006   2.742  13.103  1.6886 -0.5810 -1.5445
16003TIP3   OH269499   0.910   1.807  11.045 -0.1183  0.1784 -0.2224
16003TIP3    H169500   0.846   1.867  11.084  0.6607  2.3019 -2.0229
16003TIP3    H269501   0.961   1.861  10.986  1.2768 -2.1180 -1.2641
16004TIP3   OH269502   1.300   5.136  16.319 -0.3921 -0.2114  0.2959
16004TIP3    H169503   1.312   5.221  16.275  0.8484 -0.9393 -0.8407
16004TIP3    H269504   1.247   5.157  16.396  1.9566  2.0410  1.4635
16005TIP3   OH269505   5.845   2.880  13.328 -0.2052 -0.3467 -0.0019
16005TIP3    H169506   5.897   2.960  13.332 -0.4006 -0.1409 -1.1835
16005TIP3    H269507   5.887   2.821  13.390  0.1186  0.5655  0.6719
16006TIP3   OH269508   3.396   6.341   3.392  0.0670  0.5850  0.7611
16006TIP3    H169509   3.455   6.280   3.435 -1.1169  0.0263  1.6560
16006TIP3    H269510   3.377   6.299   3.307 -1.5002 -0.8433  1.7522
16007TIP3   OH269511   0.551   2.055  13.915  0.8924  0.4831 -0.0412
16007TIP3    H169512   0.506   2.043  13.998 -0.9608 -0.1679 -1.0804
16007TIP3    H269513   0.529   1.976  13.865  1.9894  0.8471 -1.1440
16008TIP3   OH269514   6.398   4.309  11.418 -0.0310  0.5481 -0.3004
16008TIP3    H169515   6.386   4.240  11.484 -0.2328  1.3459  0.5246
16008TIP3    H269516   6.315   4.357  11.419  0.2115  0.9787 -0.6637
16009TIP3   OH269517   4.649   0.218  12.680  0.7348 -0.1757 -0.2126
16009TIP3    H169518   4.587   0.149  12.702 -0.5071  0.1169 -2.4300
16009TIP3    H269519   4.602   0.300  12.698  1.4240  0.0778  0.4630
16010TIP3   OH269520   0.331   3.678  12.306 -0.4644  0.2608 -0.3681
16010TIP3    H169521   0.286   3.746  12.356 -0.6827 -0.4647  0.4415
16010TIP3    H269522   0.272   3.659  12.233 -0.0594  1.4563 -1.0267
16011TIP3   OH269523   4.956   2.144  15.496  0.2976 -0.7927 -0.0845
16011TIP3    H169524   4.912   2.188  15.568  0.5821  0.7084 -0.7847
16011TIP3    H269525   5.048   2.140  15.522  0.1722 -1.6150  0.2676
16012TIP3   OH269526   0.036   3.465  13.349  0.0074  0.2609  0.0924
16012TIP3    H169527   0.106   3.430  13.404  2.4668  2.2061 -1.5335
16012TIP3    H269528  -0.031   3.397  13.348  1.8888 -1.7577  1.7195
16013TIP3   OH269529   5.787   4.634   3.776 -0.5707  0.4483  0.6603
16013TIP3    H169530   5.775   4.546   3.810 -0.6467  0.5482  0.8946
16013TIP3    H269531   5.807   4.622   3.683  0.8202  0.1131  0.9792
16014TIP3   OH269532   2.100   5.462   0.711 -0.1242 -0.2790 -0.3456
16014TIP3    H169533   2.124   5.551   0.735 -0.1388 -0.9479  2.4188
16014TIP3    H269534   2.136   5.450   0.623 -1.8853  3.0799 -1.6731
16015TIP3   OH269535   0.309   0.039   2.621  0.3481  0.5448 -0.0005
16015TIP3    H169536   0.238   0.029   2.684  1.6664 -0.9350  1.3306
16015TIP3    H269537   0.270   0.014   2.537 -0.5798 -0.7893  0.7837
16016TIP3   OH269538   0.856   2.601   2.985 -0.1335 -0.7759 -0.7293
16016TIP3    H169539   0.875   2.629   2.895  2.3484 -0.8236 -0.2812
16016TIP3    H269540   0.903   2.519   2.994  1.9061  0.5105  1.3788
16017TIP3   OH269541   6.082   2.540  14.728 -0.1648 -0.1659 -0.3508
16017TIP3    H169542   6.042   2.536  14.815 -1.1893 -1.1697 -0.8313
16017TIP3    H269543   6.019   2.495  14.672  0.8110 -0.1489 -1.4873
16018TIP3   OH269544   1.832   1.901  14.033  0.1457 -0.2724  0.0077
16018TIP3    H169545   1.812   1.850  14.111  0.3461  0.2142  0.3838
16018TIP3    H269546   1.869   1.838  13.971  0.3449 -0.5880  0.4463
16019TIP3   OH269547   2.350   4.306   1.449  0.4378  0.3894 -0.3187
16019TIP3    H169548   2.266   4.296   1.494  1.2524 -1.2492  0.9077
16019TIP3    H269549   2.390   4.220   1.452  2.5314  1.3110 -0.1795
16020TIP3   OH269550   4.014   1.461   2.980  0.2770  0.2434 -0.0016
16020TIP3    H169551   3.971   1.540   2.949 -0.5527 -0.1455  0.1438
16020TIP3    H269552   4.106   1.472   2.956 -0.0356  0.7421 -0.9831
16021TIP3   OH269553   4.373   5.074  11.802 -0.4539  0.1083 -0.0974
16021TIP3    H169554   4.374   5.156  11.852 -0.1759 -0.2139  0.4400
16021TIP3    H269555   4.298   5.082  11.743 -0.4759  0.7133  0.0034
16022TIP3   OH269556   3.806   6.199   1.911  0.5022 -0.3335  0.0092
16022TIP3    H169557   3.773   6.133   1.972  0.6131 -0.1700  0.2449
16022TIP3    H269558   3.729   6.227   1.862  0.3571 -0.2243  0.3012
16023TIP3   OH269559   5.699   5.727  11.716 -0.1143  0.6444 -0.1029
16023TIP3    H169560   5.646   5.803  11.691 -0.0779  0.7273  0.0719
16023TIP3    H269561   5.636   5.666  11.755  0.0781  1.1892  1.1114
16024TIP3   OH269562   2.521   5.775  13.934  0.2218  0.0758  0.3084
16024TIP3    H169563   2.438   5.752  13.892  0.9687  3.5399 -3.8315
16024TIP3    H269564   2.496   5.817  14.016 -1.9268 -0.7748  0.1590
16025TIP3   OH269565   6.645   3.609   5.269 -0.6745 -0.0390  0.3911
16025TIP3    H169566   6.733   3.647   5.262 -0.9097  0.4760  0.2132
16025TIP3    H269567   6.594   3.676   5.315 -1.5811  0.7060 -1.6106
16026TIP3   OH269568   1.010   0.391  13.152  0.2997  0.3292  0.3810
16026TIP3    H169569   0.932   0.433  13.116 -0.8434 -1.0806  1.1270
16026TIP3    H269570   0.976   0.324  13.210  2.0860 -0.4220  0.6038
16027TIP3   OH269571   0.221   3.964  15.722  0.1577  0.5856  0.3830
16027TIP3    H169572   0.150   3.900  15.724  0.0891  0.6673  1.3755
16027TIP3    H269573   0.221   3.998  15.632 -0.5038 -0.0246  0.1431
16028TIP3   OH269574   5.579   4.100  14.506 -0.5675 -0.7359  0.4045
16028TIP3    H169575   5.503   4.145  14.470 -0.1390  0.2650  0.7241
16028TIP3    H269576   5.631   4.076  14.430 -0.7167 -0.5421  0.2406
16029TIP3   OH269577   0.447   6.674  13.149 -0.1270 -0.0861  0.2714
16029TIP3    H169578   0.506   6.674  13.224  0.4478  1.6224 -0.1333
16029TIP3    H269579   0.504   6.671  13.073 -0.7214 -2.6243 -0.1690
16030TIP3   OH269580   0.973   6.035   0.560 -0.3377 -0.0675 -0.4207
16030TIP3    H169581   0.929   5.989   0.488  1.8885 -1.6030 -0.9183
16030TIP3    H269582   0.915   6.024   0.635 -3.0207  2.1033 -2.0089
16031TIP3   OH269583   6.013   4.545   1.957 -0.0907  0.4725  0.2775
16031TIP3    H169584   5.926   4.509   1.939 -0.3513  0.5370  1.3449
16031TIP3    H269585   6.072   4.469   1.951 -0.3286  0.2843  0.3181
16032TIP3   OH269586   5.172   6.546  11.064 -0.0126  0.2353  0.6289
16032TIP3    H169587   5.205   6.617  11.119 -0.0184  1.3776 -0.7743
16032TIP3    H269588   5.230   6.545  10.988 -0.7337 -0.4706  0.0571
16033TIP3   OH269589   1.125   6.047   5.541  0.1877  0.2761  0.1779
16033TIP3    H169590   1.130   6.138   5.510 -0.2607 -0.5206 -2.4801
16033TIP3    H269591   1.195   6.002   5.495 -0.3151 -0.9612  0.5818
16034TIP3   OH269592   3.029   0.637  15.343 -0.5092  0.3052 -0.4087
16034TIP3    H169593   3.049   0.718  15.389 -0.6062  0.3404 -0.4285
16034TIP3    H269594   2.948   0.655  15.296  0.8684  1.1135 -2.6179
16035TIP3   OH269595   2.732   3.211   2.999  0.5685 -0.1117 -0.4875
16035TIP3    H169596   2.744   3.189   3.092  1.2407  0.2906 -0.4729
16035TIP3    H269597   2.688   3.296   3.000 -2.0097 -1.3548 -0.5451
16036TIP3   OH269598   6.448   2.022  13.694 -0.1983 -0.5241 -0.2879
16036TIP3    H169599   6.463   2.025  13.789 -0.8229 -1.6672 -0.1359
16036TIP3    H269600   6.426   2.112  13.671  0.2723 -0.1626  0.5975
16037TIP3   OH269601   6.113   2.790   1.109 -0.7321 -0.4030 -0.5766
16037TIP3    H169602   6.065   2.730   1.051 -0.1201  0.0845 -1.6240
16037TIP3    H269603   6.158   2.850   1.049 -0.5741  0.5131  0.4334
16038TIP3   OH269604   0.917   2.051   5.937  0.4029 -0.2317  0.2268
16038TIP3    H169605   0.912   2.093   6.023 -2.0457  2.2140 -0.9639
16038TIP3    H269606   0.997   2.087   5.899 -0.2435  1.3191  0.2639
16039TIP3   OH269607   6.050   3.639   2.374  0.0747  0.5834 -0.6467
16039TIP3    H169608   6.105   3.696   2.319 -1.0856  2.8202  0.3586
16039TIP3    H269609   6.018   3.697   2.443 -1.0592 -1.3925  0.5735
16040TIP3   OH269610   5.933   5.284  13.860  0.5002 -0.3730 -0.7195
16040TIP3    H169611   5.924   5.191  13.877 -1.2014 -0.3275 -1.1616
16040TIP3    H269612   5.920   5.326  13.945  1.2742 -0.5301 -0.5200
16041TIP3   OH269613   6.347   5.786   6.435 -0.4074 -0.1279 -0.2764
16041TIP3    H169614   6.424   5.819   6.480 -1.1469 -0.0837  1.0215
16041TIP3    H269615   6.329   5.702   6.477 -0.7523 -0.3912 -0.9390
16042TIP3   OH269616   2.684   4.806  15.301  0.6558  0.0806 -0.0293
16042TIP3    H169617   2.622   4.761  15.358  0.2665  0.8170  0.1437
16042TIP3    H269618   2.718   4.738  15.243 -0.5920 -0.2615 -0.3747
16043TIP3   OH269619   5.013   4.324  16.066  0.3245  0.1368  0.2690
16043TIP3    H169620   4.953   4.259  16.029  1.1065 -0.3161 -0.2449
16043TIP3    H269621   4.962   4.404  16.070 -0.0046  0.0197 -1.1436
16044TIP3   OH269622   5.737   5.230  14.407 -0.1098  0.1117 -0.1935
16044TIP3    H169623   5.766   5.306  14.458 -1.2682  0.7524 -0.4542
16044TIP3    H269624   5.642   5.229  14.419 -0.2932 -0.2798 -1.5901
16045TIP3   OH269625   3.922   0.466  15.012 -0.3016 -0.3258 -0.1019
16045TIP3    H169626   4.006   0.506  15.035 -0.1094 -0.5894 -0.3476
16045TIP3    H269627   3.898   0.507  14.929 -1.1979  0.9354  0.7400
16046TIP3   OH269628   4.009   2.277  15.661 -0.9308 -0.3474 -0.1644
16046TIP3    H169629   4.075   2.208  15.664  0.0880  0.5981 -0.1673
16046TIP3    H269630   3.959   2.259  15.582  0.4775 -0.0810 -1.1511
16047TIP3   OH269631   6.252   1.268   0.091 -0.3169 -0.1248 -0.3127
16047TIP3    H169632   6.227   1.205   0.024 -1.0150  1.1857 -1.3327
16047TIP3    H269633   6.171   1.283   0.141 -0.0381 -0.3575  0.2244
16048TIP3   OH269634   1.369   5.463   0.868 -0.6688 -0.7373 -0.3097
16048TIP3    H169635   1.306   5.416   0.922 -0.7290 -1.4757 -1.0082
16048TIP3    H269636   1.416   5.395   0.821  0.9632 -0.2154  0.5169
16049TIP3   OH269637   4.705   0.110  17.215  0.3366 -0.3616  0.2331
16049TIP3    H169638   4.723   0.203  17.227  1.3317 -0.5280  0.0501
16049TIP3    H269639   4.658   0.085  17.295  2.5877 -0.3362  1.6327
16050TIP3   OH269640   6.107   5.888   3.358  0.2380  0.1226  0.1462
16050TIP3    H169641   6.130   5.898   3.266 -4.1103  0.5159 -1.1642
16050TIP3    H269642   6.167   5.821   3.391  1.8248 -0.2204 -3.0337
16051TIP3   OH269643   5.061   0.761  12.983  0.3513 -0.1261 -0.5398
16051TIP3    H169644   4.968   0.773  12.999  0.6724  0.3401  1.1975
16051TIP3    H269645   5.066   0.720  12.897 -1.5125 -1.3141 -0.1381
16052TIP3   OH269646   6.582   5.642   4.350  0.4234  0.4057 -0.0472
16052TIP3    H169647   6.516   5.576   4.327  0.2333  0.0673  1.3526
16052TIP3    H269648   6.660   5.616   4.302  0.0628 -0.2780 -0.2794
16053TIP3   OH269649   5.052   4.163   0.314 -0.3651 -0.4687  0.2274
16053TIP3    H169650   5.038   4.161   0.409 -0.1120  0.5060  0.3025
16053TIP3    H269651   5.145   4.183   0.304 -0.3903 -0.5653 -0.2277
16054TIP3   OH269652   4.347   0.964   4.086  0.6361 -0.2585 -0.3442
16054TIP3    H169653   4.345   1.058   4.104 -1.3473 -0.1550 -0.9248
16054TIP3    H269654   4.377   0.924   4.168  0.6260  0.8213  0.1963
16055TIP3   OH269655   1.790   4.861   6.053  0.3830  0.0516  0.3779
16055TIP3    H169656   1.846   4.857   5.976  1.9908 -0.1881  1.5040
16055TIP3    H269657   1.781   4.770   6.081 -2.3590 -0.2001 -0.9338
16056TIP3   OH269658   4.312   4.576   2.970 -0.5525  0.5954 -0.5952
16056TIP3    H169659   4.277   4.493   3.003  0.0189  0.9155  0.8931
16056TIP3    H269660   4.325   4.561   2.876  1.2483 -1.6412 -0.0892
16057TIP3   OH269661   1.818   3.098   2.488 -0.1006 -0.7551 -0.3771
16057TIP3    H169662   1.835   3.075   2.397 -1.6480  0.0944 -0.9055
16057TIP3    H269663   1.776   3.184   2.484 -1.0562 -1.1210  1.0746
16058TIP3   OH269664   0.689   5.358  15.579  0.3289  0.1850 -0.3658
16058TIP3    H169665   0.612   5.331  15.530 -0.6883  0.7092  0.8767
16058TIP3    H269666   0.718   5.279  15.624 -2.8197  0.8846  3.5020
16059TIP3   OH269667   3.117   5.518  13.247 -0.3020  0.1699 -0.1960
16059TIP3    H169668   3.078   5.530  13.333 -0.7075  0.0711 -0.3655
16059TIP3    H269669   3.169   5.597  13.233 -2.1231  1.3199 -0.8594
16060TIP3   OH269670   5.108   6.326   2.871 -0.0924  0.2275  0.0162
16060TIP3    H169671   5.068   6.409   2.846 -0.9418  0.7477  2.6941
16060TIP3    H269672   5.066   6.303   2.954  2.6055 -1.0690  1.1739
16061TIP3   OH269673   1.292   5.057  14.606  0.4271 -0.5761 -0.0539
16061TIP3    H169674   1.341   5.038  14.527 -2.0785  1.3121 -2.2359
16061TIP3    H269675   1.283   5.153  14.607  0.1414 -0.5604  2.3659
16062TIP3   OH269676   4.725   1.086   1.305  0.7014  1.0665  0.4399
16062TIP3    H169677   4.779   1.105   1.381  2.5171  0.8191 -0.7257
16062TIP3    H269678   4.754   1.000   1.275  0.2729  1.3075 -0.7361
16063TIP3   OH269679   5.720   1.114   3.271  0.0361 -0.0228 -0.4178
16063TIP3    H169680   5.730   1.151   3.183  0.8335 -1.8297 -1.1518
16063TIP3    H269681   5.809   1.114   3.307 -0.2966  0.7432  0.4188
16064TIP3   OH269682   3.637   5.603  11.751  0.2143 -0.2659 -0.3144
16064TIP3    H169683   3.567   5.619  11.688  0.8702 -1.8233 -1.4982
16064TIP3    H269684   3.609   5.525  11.799  0.1161  0.4183  0.7895
16065TIP3   OH269685   5.596   5.828   1.885  0.0657 -0.3947  0.0203
16065TIP3    H169686   5.524   5.872   1.929  1.0079 -0.2712  1.4863
16065TIP3    H269687   5.611   5.880   1.806 -0.2002  0.6990  0.6735
16066TIP3   OH269688   0.357   5.814   1.522 -0.0553 -0.6372  0.6251
16066TIP3    H169689   0.280   5.798   1.576  0.2195  2.5386  2.1892
16066TIP3    H269690   0.399   5.890   1.561  2.9644 -1.1606 -1.2032
16067TIP3   OH269691   3.524   0.598   3.091  0.4468  0.4461 -0.3210
16067TIP3    H169692   3.524   0.684   3.048  1.3894  0.9172  0.5685
16067TIP3    H269693   3.583   0.544   3.037 -1.6114 -0.2724 -1.9854
16068TIP3   OH269694   1.060   5.808  10.511  0.5293 -0.6546 -0.3639
16068TIP3    H169695   0.987   5.788  10.570 -0.5508  0.5352 -1.2381
16068TIP3    H269696   1.071   5.729  10.459  1.2072 -1.5648  1.0849
16069TIP3   OH269697   0.466   2.555   2.563 -0.2131 -0.1171 -0.0012
16069TIP3    H169698   0.382   2.526   2.600  0.0960  0.0934  0.8921
16069TIP3    H269699   0.496   2.480   2.511 -2.2619  0.7641 -2.7322
16070TIP3   OH269700   2.749   3.835   3.169  0.6977 -0.4433 -0.0013
16070TIP3    H169701   2.683   3.766   3.181  1.0617 -0.7331  0.3447
16070TIP3    H269702   2.809   3.799   3.104  0.9128 -0.4705  0.2113
16071TIP3   OH269703   1.323   2.519   5.725  0.1560  0.8261 -0.0728
16071TIP3    H169704   1.292   2.460   5.657  2.8113  0.5307 -1.1468
16071TIP3    H269705   1.299   2.476   5.807  0.7935 -1.0849 -0.8334
16072TIP3   OH269706   3.425   6.723  15.091  0.0167  0.3485 -0.3061
16072TIP3    H169707   3.372   6.791  15.133  0.0616  1.0282 -1.3112
16072TIP3    H269708   3.471   6.680  15.163 -1.5041  0.0756  0.5422
16073TIP3   OH269709   2.699   4.239  16.802  0.2981 -0.2296  0.3746
16073TIP3    H169710   2.707   4.275  16.891 -1.8457  0.9854  0.1364
16073TIP3    H269711   2.683   4.145  16.816 -1.0656  0.1245  1.3458
16074TIP3   OH269712   3.548   4.921  15.911 -0.3770 -0.1669 -0.0534
16074TIP3    H169713   3.499   4.848  15.872  2.0200 -1.6391 -0.4860
16074TIP3    H269714   3.489   4.956  15.978 -2.3418 -1.2446 -1.1338
16075TIP3   OH269715   1.254   6.582  14.178 -0.5126  0.1586  0.2023
16075TIP3    H169716   1.291   6.582  14.090 -0.3549  0.3846  0.2681
16075TIP3    H269717   1.326   6.609  14.235 -0.9940  1.4273  0.2362
16076TIP3   OH269718   4.872   5.352  12.401 -0.1113  0.0727  0.2596
16076TIP3    H169719   4.837   5.414  12.337 -1.1275 -1.3627 -0.6472
16076TIP3    H269720   4.955   5.391  12.429  1.5192 -0.1602 -3.5458
16077TIP3   OH269721   5.658   0.272   2.694  0.0406  0.2746 -0.1387
16077TIP3    H169722   5.693   0.222   2.768  0.2439  1.8946  0.8967
16077TIP3    H269723   5.564   0.276   2.710  0.0710  0.5358 -0.0293
16078TIP3   OH269724   6.725   0.407   0.025 -0.1945 -0.0139  0.1715
16078TIP3    H169725   6.647   0.418   0.078 -0.6894  0.1730 -0.5723
16078TIP3    H269726   6.738   0.312   0.022  0.4806  0.0181  1.5087
16079TIP3   OH269727   5.704   4.244   0.004  0.0985 -0.9215 -0.3731
16079TIP3    H169728   5.652   4.318  -0.027  2.2455  0.1163 -1.7316
16079TIP3    H269729   5.643   4.169  -0.000 -1.8062  0.5249  0.0177
16080TIP3   OH269730   5.401   1.672  14.950  0.2671 -0.4989  0.4600
16080TIP3    H169731   5.307   1.677  14.931  0.3381 -1.1463 -0.1139
16080TIP3    H269732   5.431   1.763  14.947  0.0683 -0.4605 -1.5756
16081TIP3   OH269733   3.584   3.134  14.595  0.3215 -0.0695  0.2138
16081TIP3    H169734   3.663   3.186  14.581 -0.3576  0.4150 -2.4625
16081TIP3    H269735   3.518   3.198  14.622  0.2045 -0.0296 -0.1643
16082TIP3   OH269736   3.659   0.494  12.074  0.1686 -0.0859  0.8104
16082TIP3    H169737   3.587   0.556  12.058  0.3725 -0.1825 -0.5996
16082TIP3    H269738   3.720   0.542  12.130  0.1741  0.8767  0.0010
16083TIP3   OH269739   0.367   3.987   5.645  0.1621 -0.4677 -0.4614
16083TIP3    H169740   0.297   3.925   5.670 -0.7326  0.1588 -1.3242
16083TIP3    H269741   0.388   4.033   5.726 -2.3061  1.1558 -0.6241
16084TIP3   OH269742   4.953   1.575   2.286 -0.5287  0.2844  0.5595
16084TIP3    H169743   4.938   1.482   2.269  4.5105 -0.9532  1.0993
16084TIP3    H269744   4.946   1.617   2.201  0.2241 -1.2568 -0.3151
16085TIP3   OH269745   4.439   6.038   2.153  0.2104  0.0963 -0.1945
16085TIP3    H169746   4.382   6.113   2.135  0.7375  0.2594 -1.2272
16085TIP3    H269747   4.409   6.006   2.239 -1.1797  0.4071 -0.5378
16086TIP3   OH269748   5.487   1.232   4.297  0.1338 -0.1162  0.2745
16086TIP3    H169749   5.463   1.139   4.294 -1.4141  0.1346  2.2681
16086TIP3    H269750   5.418   1.272   4.350  0.4212  2.3075 -1.0675
16087TIP3   OH269751   0.575   1.151  14.845 -0.7291 -0.5373  0.1352
16087TIP3    H169752   0.553   1.171  14.936 -0.7339  1.3507 -0.2435
16087TIP3    H269753   0.649   1.092  14.851  1.1680  1.7789  1.4243
16088TIP3   OH269754   2.086   3.820   0.644 -0.5637  0.2982 -0.3697
16088TIP3    H169755   2.082   3.836   0.738  0.5479  0.4283 -0.3326
16088TIP3    H269756   2.082   3.907   0.604 -1.2820  0.2273 -0.4550
16089TIP3   OH269757   6.242   4.165  11.090 -0.9982 -0.1624  0.1858
16089TIP3    H169758   6.162   4.113  11.088 -1.4334  0.5122 -0.4835
16089TIP3    H269759   6.216   4.250  11.056 -0.1450  0.2831  0.6181
16090TIP3   OH269760   4.576   0.917   0.627  0.0659  0.6437 -0.2350
16090TIP3    H169761   4.662   0.883   0.602 -0.4843 -1.2199  0.2504
16090TIP3    H269762   4.590   1.011   0.638  1.3683  0.8551 -2.9035
16091TIP3   OH269763   6.582   5.804   3.227 -0.7563  0.0340 -0.1518
16091TIP3    H169764   6.667   5.837   3.255 -1.6498  2.4598 -0.0350
16091TIP3    H269765   6.585   5.710   3.244  1.6095  0.1777  0.5209
16092TIP3   OH269766   0.516   2.389  15.404 -0.3736  0.1513 -0.3325
16092TIP3    H169767   0.533   2.443  15.326 -0.0163 -0.3279 -0.5944
16092TIP3    H269768   0.552   2.303  15.382 -1.2685 -0.3009 -0.0583
16093TIP3   OH269769   4.507   1.109  12.185 -0.3275 -0.5906 -0.5197
16093TIP3    H169770   4.569   1.046  12.221  0.5921  0.2128 -0.6881
16093TIP3    H269771   4.556   1.157  12.119 -0.6012  1.2823  0.5871
16094TIP3   OH269772   2.143   2.711   1.098  0.4544 -0.1092  0.0310
16094TIP3    H169773   2.180   2.626   1.119 -0.5799 -0.3168  1.1126
16094TIP3    H269774   2.049   2.701   1.112  0.2197  0.9968 -0.5626
16095TIP3   OH269775   3.990   6.430  14.236  0.4081  0.1442 -0.6324
16095TIP3    H169776   3.969   6.488  14.309 -1.1294 -0.4268 -0.5768
16095TIP3    H269777   4.061   6.375  14.268 -0.7075 -0.5682  0.7392
16096TIP3   OH269778   4.926   3.634  15.657 -0.3892  0.1577 -0.0451
16096TIP3    H169779   4.899   3.544  15.677 -0.8401  0.7339  2.3194
16096TIP3    H269780   4.901   3.684  15.735  1.0233  2.0994 -0.7538
16097TIP3   OH269781   5.251   3.181   1.543  0.0908 -0.1701 -0.7146
16097TIP3    H169782   5.259   3.087   1.558 -1.8915 -0.1783  0.7279
16097TIP3    H269783   5.228   3.189   1.451  3.1983 -0.8387 -1.6368
16098TIP3   OH269784   5.186   0.181  15.137 -0.6656  0.1830  0.1495
16098TIP3    H169785   5.270   0.139  15.155 -0.3681  0.9148  0.4805
16098TIP3    H269786   5.204   0.241  15.065 -1.0220 -0.0153 -0.1109
16099TIP3   OH269787   5.662   0.691  13.930 -0.1532 -0.4846 -0.1227
16099TIP3    H169788   5.575   0.656  13.950 -0.3855 -0.8616 -1.6332
16099TIP3    H269789   5.677   0.665  13.839  0.1777  2.3647 -0.9628
16100TIP3   OH269790   3.501   1.248  16.834 -0.0265  0.4861 -0.2961
16100TIP3    H169791   3.512   1.157  16.861 -0.4769  0.4055 -0.3692
16100TIP3    H269792   3.448   1.287  16.903 -2.5965 -0.1292 -1.7577
16101TIP3   OH269793   1.937   4.370   2.106  0.4499  0.0636  0.2464
16101TIP3    H169794   1.842   4.372   2.092  0.1875 -0.5473  1.6998
16101TIP3    H269795   1.971   4.441   2.052 -0.9986  1.2062  0.7748
16102TIP3   OH269796   1.701   5.593  11.476 -0.7279 -0.4398  0.0608
16102TIP3    H169797   1.669   5.597  11.386 -2.6645 -1.0563  0.6921
16102TIP3    H269798   1.785   5.546  11.469 -0.1407  0.7374 -1.5637
16103TIP3   OH269799   4.125   5.786  15.153 -0.2358 -0.4050 -0.0523
16103TIP3    H169800   4.159   5.774  15.065  1.7247  0.1317  0.5707
16103TIP3    H269801   4.085   5.873  15.152  0.4981 -0.0629 -0.2208
16104TIP3   OH269802   4.454   3.957   4.507 -0.9881 -0.1053 -0.3514
16104TIP3    H169803   4.434   4.024   4.572 -0.1531  0.2753 -0.4743
16104TIP3    H269804   4.411   3.878   4.540 -2.9105  0.7165 -0.7550
16105TIP3   OH269805   1.206   6.540  12.121  0.2362 -0.3776  0.4853
16105TIP3    H169806   1.247   6.480  12.183  1.2144  0.3840  0.5877
16105TIP3    H269807   1.239   6.626  12.145 -1.3398  0.2557  0.4935
16106TIP3   OH269808   5.461   6.322  12.805 -0.2026  0.5868 -0.3424
16106TIP3    H169809   5.509   6.306  12.724  0.0724 -1.8360  0.2028
16106TIP3    H269810   5.515   6.385  12.853  0.6879  0.4851 -1.1715
16107TIP3   OH269811   4.419   2.524   0.437 -0.2477 -0.5035  0.1235
16107TIP3    H169812   4.388   2.610   0.410  0.5583 -0.5328 -0.9533
16107TIP3    H269813   4.405   2.522   0.532 -0.9355  0.5272  0.0568
16108TIP3   OH269814   5.537   4.389   2.396  0.0626 -0.4487 -0.3022
16108TIP3    H169815   5.612   4.406   2.454  1.1229  2.2637 -2.2353
16108TIP3    H269816   5.485   4.469   2.401  0.1646 -0.1292 -2.9094
16109TIP3   OH269817   4.221   6.773  15.013 -0.3607  0.0531  0.3430
16109TIP3    H169818   4.206   6.727  14.931 -2.3308  1.2767 -0.0667
16109TIP3    H269819   4.135   6.772  15.057 -0.0132  1.6797  1.1433
16110TIP3   OH269820   4.328   2.427   5.171  0.2765 -0.2759 -0.6772
16110TIP3    H169821   4.416   2.462   5.184 -0.3063  0.9771  0.0653
16110TIP3    H269822   4.342   2.336   5.145  1.7853 -0.0738 -0.6566
16111TIP3   OH269823   5.533   1.620   5.341 -0.4120 -0.6144  0.0803
16111TIP3    H169824   5.491   1.559   5.401 -0.8849  1.4343  1.9344
16111TIP3    H269825   5.577   1.564   5.277 -1.8774 -2.8562  0.9265
16112TIP3   OH269826   6.760   2.795  15.494 -0.9151  0.2541 -0.0714
16112TIP3    H169827   6.679   2.847  15.495 -0.1225  1.5971 -1.4528
16112TIP3    H269828   6.820   2.845  15.439  0.2893 -1.5982 -0.5323
16113TIP3   OH269829   1.698   0.008   1.082 -0.7052 -0.2743 -0.1436
16113TIP3    H169830   1.680   0.053   1.164  0.4779  0.3320 -0.2065
16113TIP3    H269831   1.704  -0.084   1.106 -0.6611 -0.1344  0.3935
16114TIP3   OH269832   1.712   0.869   0.046 -0.3162  0.1049  0.5101
16114TIP3    H169833   1.777   0.803   0.026 -1.6871 -1.5728  1.3582
16114TIP3    H269834   1.628   0.830   0.021 -1.1488  1.6718  0.6761
16115TIP3   OH269835   0.047   6.271  15.945  0.2380 -1.0460 -0.3641
16115TIP3    H169836   0.047   6.306  15.856  0.2495 -1.7329 -0.6331
16115TIP3    H269837   0.093   6.188  15.939  1.4805 -0.4647  0.5412
16116TIP3   OH269838   1.462   5.345   3.004  0.1802  0.5535 -0.0268
16116TIP3    H169839   1.465   5.406   3.079  0.0201  2.5971 -1.5876
16116TIP3    H269840   1.548   5.355   2.962 -0.4552  1.0381 -1.2702
16117TIP3   OH269841   1.428   2.410   1.486 -0.5269 -0.4012 -0.4510
16117TIP3    H169842   1.416   2.505   1.481 -1.3593 -0.4252  0.7203
16117TIP3    H269843   1.368   2.375   1.420  0.5223 -0.0920 -1.6054
16118TIP3   OH269844   5.332   3.054   3.987  0.3562  0.0561 -0.1702
16118TIP3    H169845   5.259   3.065   3.925  0.3323 -0.1928 -0.1904
16118TIP3    H269846   5.402   3.109   3.952  0.8496 -1.1832 -1.2493
16119TIP3   OH269847   2.970   1.123  15.697 -0.1818 -0.4031  0.8900
16119TIP3    H169848   2.956   1.039  15.653  0.4782  1.3286 -3.0489
16119TIP3    H269849   2.900   1.180  15.664  2.0517  1.8096 -0.4107
16120TIP3   OH269850   3.802   3.215   5.739  0.4386  0.1437  0.3647
16120TIP3    H169851   3.714   3.176   5.732  0.5184 -0.2368  1.2734
16120TIP3    H269852   3.854   3.168   5.674 -0.0478  0.4333 -0.2461
16121TIP3   OH269853   2.600   3.182   5.778  0.5259  0.2238  0.3973
16121TIP3    H169854   2.597   3.115   5.847 -4.4264 -0.1255  0.1728
16121TIP3    H269855   2.582   3.264   5.824 -0.3136  0.3451 -0.1210
16122TIP3   OH269856   3.226   4.977   1.895  0.2083  0.2967 -0.1000
16122TIP3    H169857   3.236   4.972   1.800  1.4121 -3.1169  0.0675
16122TIP3    H269858   3.310   5.010   1.926  0.0887  0.6745 -0.1748
16123TIP3   OH269859   0.868   1.659   0.563 -0.1752  0.4262 -0.3399
16123TIP3    H169860   0.838   1.634   0.650 -0.2561 -0.7435 -0.6979
16123TIP3    H269861   0.956   1.622   0.557 -0.5305 -0.3254 -1.1026
16124TIP3   OH269862   3.325   4.999   4.707  0.4986  0.5064  0.0421
16124TIP3    H169863   3.299   4.967   4.620  0.0421  0.1364  0.3078
16124TIP3    H269864   3.411   5.038   4.694  1.3506 -1.3664 -0.1867
16125TIP3   OH269865   5.963   2.183  13.302  0.2150 -0.2758 -0.1026
16125TIP3    H169866   5.911   2.259  13.277 -0.7978 -0.2614  1.8596
16125TIP3    H269867   6.012   2.160  13.223 -1.8111  0.4986 -1.6587
16126TIP3   OH269868   0.214   3.681   0.786  0.0673  0.5516 -0.5053
16126TIP3    H169869   0.187   3.771   0.766 -1.6646  0.4469  1.0810
16126TIP3    H269870   0.301   3.691   0.824 -0.9947  1.8908  1.8092
16127TIP3   OH269871   1.154   0.088   2.940  0.2503  0.1045  0.0914
16127TIP3    H169872   1.153   0.025   2.869 -1.1153  1.4529 -1.1525
16127TIP3    H269873   1.219   0.053   3.002  2.8784 -0.2207 -2.5902
16128TIP3   OH269874   1.730   6.372   5.480  0.1250  0.1048 -0.2598
16128TIP3    H169875   1.644   6.332   5.463  1.1431 -1.6535 -1.5502
16128TIP3    H269876   1.725   6.457   5.437 -0.5564 -0.5220 -1.4820
16129TIP3   OH269877   2.833   2.456   5.455 -0.4560 -0.4077  0.2402
16129TIP3    H169878   2.760   2.395   5.465 -0.0536 -0.6084  2.4809
16129TIP3    H269879   2.796   2.531   5.408 -1.6967 -1.1505  0.0051
16130TIP3   OH269880   5.653   5.894   1.276 -0.3027  0.0221  0.1850
16130TIP3    H169881   5.638   5.803   1.302  0.9169 -0.0833  0.5584
16130TIP3    H269882   5.644   5.894   1.180 -1.9101 -0.1492  0.2975
16131TIP3   OH269883   3.870   2.422  11.057 -0.5278 -0.6608 -0.3489
16131TIP3    H169884   3.964   2.408  11.064 -0.1023  2.0803  0.6363
16131TIP3    H269885   3.857   2.453  10.967 -0.1734  0.7708  0.0780
16132TIP3   OH269886   4.500   3.685   1.200 -0.2883 -0.1293 -0.4027
16132TIP3    H169887   4.443   3.737   1.143 -3.7314 -1.4631  1.5223
16132TIP3    H269888   4.500   3.598   1.161  1.0247  0.0076 -0.7297
16133TIP3   OH269889   5.565   3.783   1.256  0.2689 -0.7266  0.1042
16133TIP3    H169890   5.550   3.877   1.266 -1.0312 -0.9553  0.4723
16133TIP3    H269891   5.631   3.777   1.187  0.4181  0.4600  0.1157
16134TIP3   OH269892   1.161   4.565   1.609  0.0205 -0.6216 -0.4728
16134TIP3    H169893   1.184   4.496   1.547  0.1742 -1.3050  0.3298
16134TIP3    H269894   1.124   4.519   1.685 -1.0368  0.2582 -0.4257
16135TIP3   OH269895   2.519   5.782   3.310 -0.1953  0.0377  0.7254
16135TIP3    H169896   2.610   5.781   3.281 -0.1998  0.6996  0.6740
16135TIP3    H269897   2.516   5.847   3.380 -0.7921  0.6728  0.1318
16136TIP3   OH269898   0.006   6.752   1.986  0.2984 -0.5712  0.7094
16136TIP3    H169899   0.092   6.786   1.961  0.0857  0.0053  0.7441
16136TIP3    H269900   0.006   6.755   2.082 -1.0741  2.9195  0.7422
16137TIP3   OH269901   5.676   2.981  14.981  0.5913  0.0032 -0.5007
16137TIP3    H169902   5.650   3.036  14.907 -0.4406 -0.5032 -0.5321
16137TIP3    H269903   5.594   2.957  15.024  1.2248  1.0917  1.4279
16138TIP3   OH269904   4.083   6.428  12.478 -0.2204  0.0580 -0.0620
16138TIP3    H169905   4.152   6.481  12.438  0.7419 -0.2258  1.1646
16138TIP3    H269906   4.054   6.370  12.408  2.4960 -1.4915 -0.0612
16139TIP3   OH269907   0.457   6.356   4.877 -0.4522 -0.1704 -0.2206
16139TIP3    H169908   0.476   6.337   4.969 -0.0323  0.1289 -0.2409
16139TIP3    H269909   0.464   6.271   4.834 -1.8775 -0.5271  0.2134
16140TIP3   OH269910   0.315   5.908  16.072  0.0148  0.2307 -0.0069
16140TIP3    H169911   0.348   5.825  16.037  1.8823  1.3831 -1.1015
16140TIP3    H269912   0.369   5.925  16.149  0.7191  1.1701 -0.6879
16141TIP3   OH269913   5.986   3.166  13.053 -0.6903  0.3497  0.0310
16141TIP3    H169914   5.901   3.171  13.009 -0.9822 -1.6780  0.2928
16141TIP3    H269915   5.970   3.113  13.131  0.4477  1.4678  1.0622
16142TIP3   OH269916   3.762   1.610  15.477  0.1366  0.1503  0.0311
16142TIP3    H169917   3.720   1.690  15.507  0.8085  1.6599 -2.7609
16142TIP3    H269918   3.689   1.551  15.455 -0.3627  0.2633  1.3160
16143TIP3   OH269919   1.064   5.686  11.283 -0.5750 -0.1667 -0.0107
16143TIP3    H169920   1.102   5.773  11.289 -0.4609 -0.2590  0.7132
16143TIP3    H269921   0.991   5.695  11.222 -0.0781  0.2596 -0.5412
16144TIP3   OH269922   6.203   0.121  12.799  0.0034  0.3118  0.0836
16144TIP3    H169923   6.210   0.045  12.856 -0.9988 -2.6856 -3.4146
16144TIP3    H269924   6.288   0.125  12.755 -0.4139  0.3204 -0.7389
16145TIP3   OH269925   2.483   3.352  16.448  0.3335  0.8041 -0.2957
16145TIP3    H169926   2.573   3.383  16.438  0.3399  0.4803 -1.4274
16145TIP3    H269927   2.431   3.413  16.397  0.1517 -0.0862 -1.2104
16146TIP3   OH269928   2.756   1.257  12.845 -0.3516 -0.2942  0.1251
16146TIP3    H169929   2.842   1.271  12.885  0.0891 -1.2018 -0.4548
16146TIP3    H269930   2.699   1.237  12.918  0.6430 -2.8543  0.3112
16147TIP3   OH269931   4.965   4.121   4.841  0.4751 -0.0140  0.0295
16147TIP3    H169932   4.917   4.042   4.817 -0.2718 -0.2245  1.9960
16147TIP3    H269933   5.053   4.089   4.861  0.4913 -0.1689 -0.2771
16148TIP3   OH269934   5.694   1.245  17.265  0.3349  0.2526 -0.7612
16148TIP3    H169935   5.668   1.174  17.324 -0.5329  2.3419  1.6061
16148TIP3    H269936   5.629   1.243  17.194 -1.0220 -0.0482  0.4266
16149TIP3   OH269937   4.640   5.217   0.891 -0.0463  0.3269  0.1731
16149TIP3    H169938   4.720   5.164   0.885 -0.8536 -0.8064 -1.1231
16149TIP3    H269939   4.672   5.307   0.891  1.2793 -0.0985  0.8079
16150TIP3   OH269940   5.661   6.553   1.371  0.0137  0.4387  0.3918
16150TIP3    H169941   5.660   6.596   1.285 -2.0771  0.4344  0.3670
16150TIP3    H269942   5.658   6.626   1.434 -4.1594  0.5515  0.3487
16151TIP3   OH269943   5.225   4.147  15.644 -0.7052 -0.0031  0.0731
16151TIP3    H169944   5.165   4.073  15.633 -0.5643 -0.0955 -0.0679
16151TIP3    H269945   5.206   4.180  15.732 -0.1085 -0.7961  0.5136
16152TIP3   OH269946   5.336   4.445  13.218 -0.6800  0.1532 -0.2997
16152TIP3    H169947   5.311   4.429  13.127  1.0098  1.5991 -1.1051
16152TIP3    H269948   5.265   4.498  13.254 -0.2223  1.7986 -1.6412
16153TIP3   OH269949   3.965   2.296   1.120  0.3920 -0.5648 -0.3366
16153TIP3    H169950   4.016   2.315   1.042 -1.8209  0.1336 -1.7033
16153TIP3    H269951   3.974   2.375   1.174  0.8735 -0.5208 -0.4763
16154TIP3   OH269952   6.387   1.969  15.668 -0.1451  0.3894 -0.0762
16154TIP3    H169953   6.448   2.017  15.723  0.4172 -0.7836  0.3442
16154TIP3    H269954   6.418   1.879  15.669 -1.7259 -0.1973 -0.0671
16155TIP3   OH269955   1.970   0.375   1.859  0.1811 -0.3138 -0.0533
16155TIP3    H169956   1.961   0.294   1.809  1.0405 -1.0229  0.8878
16155TIP3    H269957   2.045   0.359   1.916  0.0807  0.9860  0.4749
16156TIP3   OH269958   3.149   0.104   4.054 -0.0300 -0.8263 -0.1180
16156TIP3    H169959   3.079   0.049   4.018 -0.4805  0.0522 -0.5998
16156TIP3    H269960   3.201   0.043   4.107 -1.3965 -1.4173  0.5997
16157TIP3   OH269961   6.675   4.757   0.184  0.6005  0.5397 -0.0301
16157TIP3    H169962   6.618   4.687   0.151  0.3029  0.1546  1.2550
16157TIP3    H269963   6.632   4.838   0.157  0.4064  0.2433 -0.6329
16158TIP3   OH269964   2.928   5.352   3.817 -0.5724  0.4121  0.3248
16158TIP3    H169965   3.014   5.352   3.776 -0.8953  0.4842 -0.3618
16158TIP3    H269966   2.935   5.289   3.889 -0.4783 -0.9661 -0.8534
16159TIP3   OH269967   4.996   5.270   1.813  0.6355 -0.2186 -0.0072
16159TIP3    H169968   5.033   5.300   1.730 -1.6954 -0.3178 -1.1520
16159TIP3    H269969   5.061   5.208   1.847  2.1176  0.6053 -1.2038
16160TIP3   OH269970   0.046   4.509   4.595 -0.0320  0.1811  0.2270
16160TIP3    H169971   0.062   4.601   4.571 -0.1476 -0.2247 -1.5846
16160TIP3    H269972  -0.046   4.507   4.622 -0.0200  0.6041  0.3035
16161TIP3   OH269973   3.317   5.705   3.195 -0.0262  0.1445  0.2844
16161TIP3    H169974   3.260   5.734   3.124 -2.3219  0.3000  2.0585
16161TIP3    H269975   3.392   5.764   3.192 -0.1734  0.2942 -1.7996
16162TIP3   OH269976   6.352   1.177   1.100 -0.0083 -0.5285 -0.2807
16162TIP3    H169977   6.270   1.131   1.078 -0.2652 -1.4132  2.1998
16162TIP3    H269978   6.380   1.137   1.182  1.9548  1.0351 -0.1261
16163TIP3   OH269979   1.414   2.175   5.731  0.2368 -0.2841 -0.0903
16163TIP3    H169980   1.459   2.094   5.707  1.3152 -0.2746  1.7159
16163TIP3    H269981   1.365   2.199   5.653  0.1626 -2.4861 -0.7838
16164TIP3   OH269982   4.716   4.846   0.673  0.2025 -0.0227  0.5310
16164TIP3    H169983   4.685   4.854   0.763 -0.3200 -0.7194  0.4192
16164TIP3    H269984   4.644   4.881   0.620  0.1908 -0.3274  0.3456
16165TIP3   OH269985   4.932   5.735  13.296 -0.3078  0.0061  0.0753
16165TIP3    H169986   5.000   5.736  13.363  0.4400 -0.8463 -0.6505
16165TIP3    H269987   4.853   5.705  13.342 -0.1569  0.7824  0.8688
16166TIP3   OH269988   1.479   5.168  14.370 -0.5496 -0.5111  0.0526
16166TIP3    H169989   1.515   5.230  14.434  1.0427 -1.1050 -0.2296
16166TIP3    H269990   1.448   5.223  14.298  1.7449 -0.0565 -0.6414
16167TIP3   OH269991   4.166   6.374   0.131  0.1419  0.2574 -0.8553
16167TIP3    H169992   4.261   6.369   0.119  0.1328 -0.5578 -0.6432
16167TIP3    H269993   4.155   6.403   0.221  0.1966 -0.2527 -0.6786
16168TIP3   OH269994   5.425   5.100   0.433  0.3145 -0.4497  0.1898
16168TIP3    H169995   5.520   5.100   0.445  0.5830 -0.7049 -1.7007
16168TIP3    H269996   5.401   5.193   0.435  0.8278 -0.2902 -0.8500
16169TIP3   OH269997   3.547   5.428  13.807 -0.1653 -0.0096 -0.1193
16169TIP3    H169998   3.518   5.518  13.792  2.1059  0.7852 -0.0709
16169TIP3    H269999   3.574   5.426  13.899 -1.7644 -1.2499  0.3708
16170TIP3   OH270000   5.475   1.667   4.996 -0.4267 -0.5541 -0.4991
16170TIP3    H170001   5.486   1.610   4.920 -0.5645 -1.9577  0.4897
16170TIP3    H270002   5.563   1.674   5.033 -0.3268  0.2781 -0.8685
16171TIP3   OH270003   0.057   5.977   2.649  0.1680 -0.6815  0.3920
16171TIP3    H170004  -0.020   6.007   2.696 -0.1350 -0.2316 -0.3618
16171TIP3    H270005   0.034   5.890   2.616 -0.7259  0.1737 -1.3614
16172TIP3   OH270006   2.373   5.497  14.320 -0.0607  0.4830 -0.3727
16172TIP3    H170007   2.347   5.546  14.398  1.5943  2.0256 -0.7164
16172TIP3    H270008   2.454   5.453  14.346  0.6286  1.1895 -1.2432
16173TIP3   OH270009   2.588   5.634   0.393 -0.0869 -0.3010 -0.0568
16173TIP3    H170010   2.584   5.648   0.299 -0.8741  2.2664  0.2867
16173TIP3    H270011   2.666   5.682   0.421  0.4924 -1.5416  0.5718
16174TIP3   OH270012   2.800   0.641   5.229  0.2035  0.4049  0.0624
16174TIP3    H170013   2.855   0.572   5.266  0.7048  0.4032 -0.6625
16174TIP3    H270014   2.742   0.667   5.301 -0.6078 -1.3762  0.1019
16175TIP3   OH270015   0.369   1.777   1.375 -0.0108  0.5758 -0.0442
16175TIP3    H170016   0.391   1.721   1.300 -0.6162  1.0451 -0.5800
16175TIP3    H270017   0.453   1.790   1.419  0.1704 -0.6066 -0.0027
16176TIP3   OH270018   1.213   5.496   0.573  0.1898  0.6757 -0.3528
16176TIP3    H170019   1.235   5.479   0.482  1.5885 -1.0328  0.2358
16176TIP3    H270020   1.207   5.409   0.613  1.2700  1.3805  1.5169
16177TIP3   OH270021   3.961   6.510   3.785  0.2103  0.0789  0.1896
16177TIP3    H170022   3.874   6.545   3.767  0.2831  0.1742  0.0186
16177TIP3    H270023   4.014   6.537   3.709  0.7617  1.3136  0.9839
16178TIP3   OH270024   5.971   5.770   0.906  0.0445 -0.5419  0.4209
16178TIP3    H170025   6.043   5.820   0.869  0.2971  0.4147  2.1184
16178TIP3    H270026   5.973   5.789   1.000 -1.3744 -1.8241  0.7640
16179TIP3   OH270027   2.596   5.648  11.296  0.0895  0.2355 -0.1607
16179TIP3    H170028   2.588   5.590  11.372 -0.4561  0.1487 -0.2754
16179TIP3    H270029   2.540   5.723  11.317  2.0921  1.5547  0.7175
16180TIP3   OH270030   0.419   5.099  14.591  0.7294 -0.0151 -0.4763
16180TIP3    H170031   0.455   5.167  14.533  1.1522  0.5795  0.4565
16180TIP3    H270032   0.485   5.089  14.659  0.3992 -0.9690 -0.2924
16181TIP3   OH270033   4.459   1.606  15.965  0.2740 -0.3638 -0.2522
16181TIP3    H170034   4.467   1.699  15.984 -0.4481 -0.1501 -0.9529
16181TIP3    H270035   4.540   1.568  15.998 -0.5574  0.0770  2.5527
16182TIP3   OH270036   2.873   0.778   5.554  0.6477  0.1679 -0.0181
16182TIP3    H170037   2.889   0.699   5.605  0.6857 -0.5060 -1.0534
16182TIP3    H270038   2.785   0.767   5.518  1.5074 -0.4948 -2.0457
16183TIP3   OH270039   1.338   4.452   5.429 -0.2999 -0.2749  0.0266
16183TIP3    H170040   1.355   4.476   5.520 -0.7683 -0.1325  0.0832
16183TIP3    H270041   1.423   4.455   5.386 -0.2493  0.8475  0.1877
16184TIP3   OH270042   1.168   1.386  11.834 -0.0328 -0.5178  0.0866
16184TIP3    H170043   1.179   1.345  11.749 -1.3488 -0.7842  0.0155
16184TIP3    H270044   1.073   1.402  11.841  0.2326  0.9484  0.8284
16185TIP3   OH270045   1.466   1.931  15.103 -0.1979  0.4992  0.0544
16185TIP3    H170046   1.404   2.003  15.114 -0.9678  0.2333 -2.0864
16185TIP3    H270047   1.456   1.904  15.011  2.0757 -0.4947  0.0214
16186TIP3   OH270048   2.921   3.451   4.133  0.4400 -0.2024  0.0007
16186TIP3    H170049   2.856   3.462   4.202  2.0130 -1.7332  1.8598
16186TIP3    H270050   2.882   3.390   4.071 -0.3692 -0.1065  0.4120
16187TIP3   OH270051   0.280   4.250  10.761  0.0277 -0.2349  0.1482
16187TIP3    H170052   0.227   4.176  10.791 -1.6411  1.5228  1.8532
16187TIP3    H270053   0.360   4.245  10.814 -0.9647  0.2629  1.7813
16188TIP3   OH270054   4.178   3.996  16.516  0.7316 -0.4004 -0.1061
16188TIP3    H170055   4.128   4.073  16.544  0.0838 -1.5049  1.9652
16188TIP3    H270056   4.135   3.923  16.559  3.4202 -1.5587  0.8333
16189TIP3   OH270057   4.983   3.891   5.233  0.0845  0.1477 -0.5575
16189TIP3    H170058   4.999   3.806   5.191 -2.5131 -1.1748  0.8807
16189TIP3    H270059   5.049   3.896   5.302  0.2627 -0.6824 -0.6518
16190TIP3   OH270060   3.350   3.758   5.276 -0.3288  0.3853  0.1116
16190TIP3    H170061   3.302   3.698   5.220  1.2819  0.3819 -1.3445
16190TIP3    H270062   3.349   3.841   5.229  2.3635  0.0084 -0.8192
16191TIP3   OH270063   3.478   1.380  16.566 -0.3402  0.1468  0.0491
16191TIP3    H170064   3.487   1.332  16.649  1.6531 -0.6757 -0.5883
16191TIP3    H270065   3.442   1.316  16.505  0.4345  0.0356 -0.3006
16192TIP3   OH270066   5.216   5.362  11.993 -1.0199 -0.5759  0.7168
16192TIP3    H170067   5.173   5.306  12.058  1.8842 -3.1904  0.6423
16192TIP3    H270068   5.281   5.412  12.043  0.3094 -1.6148  0.1047
16193TIP3   OH270069   4.859   4.149   1.032 -0.0312  0.7052  0.5913
16193TIP3    H170070   4.950   4.118   1.034 -0.1193  0.4405  0.6386
16193TIP3    H270071   4.837   4.155   0.940 -0.1858  0.0905  0.5785
16194TIP3   OH270072   5.491   5.015  14.550  0.5160 -0.9783  0.1870
16194TIP3    H170073   5.511   4.964  14.472  0.4527  1.1055 -1.2751
16194TIP3    H270074   5.406   5.055  14.532  0.4167 -0.5933  1.4066
16195TIP3   OH270075   3.475   6.531   0.226 -0.3094  0.1312  0.3576
16195TIP3    H170076   3.546   6.468   0.217  2.9904  3.7068 -1.6303
16195TIP3    H270077   3.495   6.579   0.306 -0.4818  1.1334 -0.1823
16196TIP3   OH270078   4.681   4.518  14.296  0.3020  0.8443  0.3583
16196TIP3    H170079   4.768   4.530  14.334  0.9122  0.5680 -0.8810
16196TIP3    H270080   4.648   4.607  14.282  0.2814  0.9469  1.0441
16197TIP3   OH270081   4.888   5.780   0.046 -0.7450 -0.0148 -0.1365
16197TIP3    H170082   4.814   5.829   0.012 -0.5168  1.4195  1.3020
16197TIP3    H270083   4.865   5.762   0.138 -0.1031 -1.1873 -0.1719
16198TIP3   OH270084   1.034   0.599   5.591 -0.0009  0.0800 -0.1237
16198TIP3    H170085   0.988   0.647   5.523 -1.2075  0.6600  1.0587
16198TIP3    H270086   1.103   0.659   5.620 -0.8000  0.6879  0.5746
16199TIP3   OH270087   3.615   5.332   4.381  0.2527 -0.1681 -0.3175
16199TIP3    H170088   3.534   5.286   4.401  1.2072 -1.2651  1.2715
16199TIP3    H270089   3.611   5.349   4.286 -1.8838  0.0021 -0.2392
16200TIP3   OH270090   1.152   2.547  13.317  0.0467 -0.1007  0.1104
16200TIP3    H170091   1.093   2.613  13.354  0.9038  0.2725  0.8369
16200TIP3    H270092   1.105   2.464  13.330 -0.1290  0.1402  1.0888
16201TIP3   OH270093   6.076   1.735   1.708  0.5066  0.3874 -0.5921
16201TIP3    H170094   6.167   1.721   1.734  0.4580  2.3686  0.8852
16201TIP3    H270095   6.066   1.830   1.707 -1.1519  0.2513 -2.2925
16202TIP3   OH270096   2.383   6.638   2.409  0.3343 -0.0961  0.1870
16202TIP3    H170097   2.418   6.669   2.493 -1.6275 -0.3117  1.1461
16202TIP3    H270098   2.293   6.614   2.429  0.1245 -1.0988 -1.7951
16203TIP3   OH270099   1.886   6.508   0.228  0.0722 -0.0443  0.0242
16203TIP3    H170100   1.828   6.583   0.243  1.6408  1.2417 -0.0283
16203TIP3    H270101   1.935   6.532   0.150  1.3414 -0.6532  0.6162
16204TIP3   OH270102   4.805   5.848   5.364  0.0182 -0.0542  0.1864
16204TIP3    H170103   4.763   5.918   5.314 -0.0253  0.2142  0.5941
16204TIP3    H270104   4.733   5.790   5.389  0.1474 -0.6363 -0.7653
16205TIP3   OH270105   1.774   1.145   3.496  0.1181 -0.0191 -0.0915
16205TIP3    H170106   1.758   1.131   3.589  2.6744 -0.3740  0.3853
16205TIP3    H270107   1.821   1.228   3.492 -0.6373  0.3707 -1.1600
16206TIP3   OH270108   3.149   3.064   4.428 -0.1784  0.3502  0.0607
16206TIP3    H170109   3.147   3.011   4.507 -1.3531  1.1345  0.5826
16206TIP3    H270110   3.079   3.028   4.373  1.4320 -0.9960 -1.1925
16207TIP3   OH270111   3.328   4.171   3.752 -0.1827  0.2579  0.6351
16207TIP3    H170112   3.343   4.083   3.718  0.6857  0.9286 -0.8692
16207TIP3    H270113   3.239   4.169   3.787 -0.9098 -0.7186 -1.1108
16208TIP3   OH270114   3.412   3.113   3.866 -0.1760 -0.4425 -0.1234
16208TIP3    H170115   3.467   3.105   3.944 -1.9216 -0.6737  1.1434
16208TIP3    H270116   3.415   3.026   3.826 -1.4329 -1.1846  1.2676
16209TIP3   OH270117   1.144   5.380   5.202 -0.3017 -0.0292 -0.9787
16209TIP3    H170118   1.190   5.296   5.199 -0.2337 -0.0682  0.5002
16209TIP3    H270119   1.123   5.392   5.295  0.5291  2.0511 -1.0194
16210TIP3   OH270120   5.501   0.459  11.333  0.2140  0.6193 -0.0851
16210TIP3    H170121   5.431   0.405  11.371  1.0718 -0.2606  0.2919
16210TIP3    H270122   5.549   0.492  11.408  0.9038  0.2504 -0.3530
16211TIP3   OH270123   1.350   5.079   2.144  0.5908  0.0755 -0.5725
16211TIP3    H170124   1.422   5.107   2.200  0.3809  1.2172 -0.8467
16211TIP3    H270125   1.276   5.069   2.203  0.6271  0.2595 -0.4969
16212TIP3   OH270126   2.118   3.902  16.128 -0.2129  0.5066  0.0584
16212TIP3    H170127   2.192   3.936  16.177  1.7777 -1.0739 -1.6622
16212TIP3    H270128   2.067   3.852  16.192  1.7156 -0.6393  0.7685
16213TIP3   OH270129   3.563   2.052   5.047 -0.1031  0.2443 -0.4332
16213TIP3    H170130   3.550   2.076   5.138  0.0040  0.1613 -0.3950
16213TIP3    H270131   3.586   2.134   5.003 -1.3314  0.4969 -0.6203
16214TIP3   OH270132   5.276   6.194   1.903  0.0315  0.0255 -0.1787
16214TIP3    H170133   5.244   6.137   1.833  0.2793  1.6744 -1.6964
16214TIP3    H270134   5.365   6.217   1.877 -0.1366  1.2648  0.2887
16215TIP3   OH270135   5.890   2.023   3.391  0.0211  0.1726 -0.1292
16215TIP3    H170136   5.858   1.966   3.321  2.2600 -1.1121 -0.1979
16215TIP3    H270137   5.888   1.968   3.470  0.1080  0.7385  0.2793
16216TIP3   OH270138   1.716   2.203   2.596  0.1234  0.1403 -0.3193
16216TIP3    H170139   1.714   2.143   2.522  0.4657  2.0520 -1.9632
16216TIP3    H270140   1.630   2.245   2.595  0.3544  0.6368 -0.0292
16217TIP3   OH270141   3.435   3.342   4.163 -0.2746 -0.5004  0.2421
16217TIP3    H170142   3.341   3.332   4.146 -1.0116  0.1677  3.1821
16217TIP3    H270143   3.454   3.432   4.138 -0.8504 -0.1262  1.0795
16218TIP3   OH270144   6.667   3.601   5.679  0.4517  0.1496 -0.6173
16218TIP3    H170145   6.649   3.684   5.723  0.7353 -0.1506  0.0912
16218TIP3    H270146   6.580   3.566   5.658  0.0554 -1.1515  2.5187
16219TIP3   OH270147   4.791   5.372   5.142  0.1407 -0.2566  0.1540
16219TIP3    H170148   4.752   5.290   5.172 -0.0540 -0.2332 -0.0308
16219TIP3    H270149   4.884   5.353   5.134  0.1863 -0.2788  0.7148
16220TIP3   OH270150   0.746   0.752  13.517 -0.1142 -0.5658  0.0006
16220TIP3    H170151   0.790   0.817  13.572 -0.7311  0.5948 -0.8589
16220TIP3    H270152   0.719   0.800  13.439 -0.6779 -1.8321 -0.6117
16221TIP3   OH270153   5.208   1.090  12.986  0.2358  0.2129  0.6995
16221TIP3    H170154   5.276   1.129  13.041 -0.9700  0.0178  2.4112
16221TIP3    H270155   5.160   1.032  13.045 -1.2464  0.1361 -0.5230
16222TIP3   OH270156   2.941   2.104   3.459  0.0181 -0.0872  0.2479
16222TIP3    H170157   2.991   2.062   3.528  1.5739 -0.2205 -0.9180
16222TIP3    H270158   2.992   2.181   3.435 -0.1642 -0.3730 -1.1603
16223TIP3   OH270159   3.518   0.304  11.832 -0.1975 -0.3980  0.3295
16223TIP3    H170160   3.484   0.279  11.746 -0.0294 -0.0915  0.1760
16223TIP3    H270161   3.448   0.278  11.893 -1.3057  1.4007 -0.0990
16224TIP3   OH270162   1.078   5.707   1.018  0.6198  0.5624 -0.9729
16224TIP3    H170163   1.071   5.663   0.933  0.9934 -0.4059 -0.5247
16224TIP3    H270164   1.019   5.658   1.075  2.5971 -0.7719  0.0718
16225TIP3   OH270165   2.230   6.326  15.365  0.4002 -0.0498  0.6622
16225TIP3    H170166   2.226   6.246  15.416 -0.7081 -0.1767  0.4184
16225TIP3    H270167   2.261   6.299  15.279  2.4352  0.1913  1.2813
16226TIP3   OH270168   6.312   2.006   1.574  0.0594  0.2075  0.1386
16226TIP3    H170169   6.363   1.968   1.502 -0.6860 -1.4018  0.3943
16226TIP3    H270170   6.366   1.991   1.652  0.2171  0.6256  0.1131
16227TIP3   OH270171   3.533   1.321  15.250 -0.1854  0.1726 -0.2074
16227TIP3    H170172   3.612   1.346  15.201 -0.3810 -0.3629 -0.8128
16227TIP3    H270173   3.494   1.251  15.198  0.2238 -1.2327  1.3258
16228TIP3   OH270174   0.054   5.744   3.768  0.1676  0.3618 -1.2066
16228TIP3    H170175   0.010   5.757   3.684 -0.9973  0.8174 -0.5466
16228TIP3    H270176   0.108   5.822   3.779  1.0621 -0.1375 -1.9604
16229TIP3   OH270177   5.195   0.923  15.330  0.4493  0.9425  0.0626
16229TIP3    H170178   5.190   0.876  15.246 -0.6315  0.2606  0.4872
16229TIP3    H270179   5.137   0.999  15.318  0.3009  0.8493  0.1796
16230TIP3   OH270180   0.491   5.324  13.756 -0.0289 -0.0807  0.2017
16230TIP3    H170181   0.426   5.290  13.695 -0.9016  0.7301  0.6442
16230TIP3    H270182   0.446   5.396  13.801  1.0173  0.1780  0.8724
16231TIP3   OH270183   6.314   5.211  14.931 -0.0785  0.2752 -0.8082
16231TIP3    H170184   6.361   5.144  14.981 -0.1294  1.5125  0.9839
16231TIP3    H270185   6.232   5.169  14.905 -1.6222  0.4637  3.0518
16232TIP3   OH270186   4.135   1.282  16.621 -0.4184 -0.5427 -0.6345
16232TIP3    H170187   4.118   1.250  16.709 -0.7669 -1.6675 -1.0988
16232TIP3    H270188   4.214   1.236  16.593 -1.2941 -1.5354 -1.5522
16233TIP3   OH270189   1.849   5.152  14.692 -0.3202 -0.2385 -0.6680
16233TIP3    H170190   1.773   5.094  14.696 -1.4472  1.1512 -1.1751
16233TIP3    H270191   1.870   5.170  14.784 -0.8020 -0.4095 -0.5176
16234TIP3   OH270192   6.428   1.515  13.230  0.2009  0.5526 -0.3638
16234TIP3    H170193   6.522   1.496  13.224 -0.4146 -3.4886 -0.4837
16234TIP3    H270194   6.403   1.479  13.315 -1.5430 -0.4860 -1.2636
16235TIP3   OH270195   5.021   1.490  11.646  0.0548  0.1204  0.4684
16235TIP3    H170196   5.000   1.485  11.553  0.1494 -0.9016  0.4988
16235TIP3    H270197   5.098   1.547  11.650 -0.2169  0.5325 -0.0273
16236TIP3   OH270198   6.137   4.711  12.759 -0.1782 -0.1920 -0.4210
16236TIP3    H170199   6.207   4.775  12.773  0.3229 -0.8382  0.0617
16236TIP3    H270200   6.175   4.645  12.702  0.0533 -1.2195  0.8669
16237TIP3   OH270201   6.742   2.452   5.057  0.0343 -0.3717 -0.1452
16237TIP3    H170202   6.713   2.362   5.072  0.6171 -0.4721  0.4224
16237TIP3    H270203   6.699   2.502   5.127 -1.3187  0.0194 -1.2177
16238TIP3   OH270204   3.691   4.747   3.520  0.2431 -0.0572  0.0739
16238TIP3    H170205   3.710   4.719   3.430 -0.1381 -0.3404  0.0807
16238TIP3    H270206   3.685   4.666   3.570  1.4233  0.1323  0.5659
16239TIP3   OH270207   3.365   6.684   1.339  0.3052 -0.0295  0.0959
16239TIP3    H170208   3.456   6.657   1.328  0.5107  0.6126  0.1546
16239TIP3    H270209   3.340   6.652   1.425  0.9513  1.0350  0.7061
16240TIP3   OH270210   6.583   1.151   3.239 -0.3824 -0.0604 -0.1222
16240TIP3    H170211   6.557   1.201   3.317  1.8858  1.4200 -0.2206
16240TIP3    H270212   6.661   1.103   3.266 -0.9040 -1.3782 -0.8621
16241TIP3   OH270213   5.877   1.858  15.578  0.1855 -0.3372  0.1262
16241TIP3    H170214   5.846   1.816  15.658  1.4204 -0.5659  0.5042
16241TIP3    H270215   5.973   1.851  15.582  0.3141  0.4996 -0.9031
16242TIP3   OH270216   6.502   0.178   3.229 -0.0183  0.3461 -0.0809
16242TIP3    H170217   6.499   0.130   3.312  0.9607 -0.6208 -0.5811
16242TIP3    H270218   6.503   0.270   3.255  1.7440  0.0538  1.0798
16243TIP3   OH270219   5.191   0.481   4.612 -0.3770  0.8747  0.0919
16243TIP3    H170220   5.136   0.510   4.685 -1.3699  1.4577 -0.8550
16243TIP3    H270221   5.170   0.389   4.601  0.6275  0.4839  1.2505
16244TIP3   OH270222   0.207   3.895  12.387  0.1358  0.4998 -0.5768
16244TIP3    H170223   0.237   3.980  12.357  1.8646 -0.2730 -1.1801
16244TIP3    H270224   0.198   3.904  12.482 -0.7329  1.6284 -0.7524
16245TIP3   OH270225   3.253   5.583  14.951  0.6475 -0.4731  0.0828
16245TIP3    H170226   3.238   5.569  15.045  0.6459  0.4233  0.2261
16245TIP3    H270227   3.182   5.535  14.908 -0.3363  0.4448  0.6141
16246TIP3   OH270228   5.097   3.921  15.397 -0.3038  0.2247  0.1957
16246TIP3    H170229   5.057   4.005  15.420 -1.5556 -0.0224 -0.8941
16246TIP3    H270230   5.046   3.856  15.445  0.2371  0.0346  0.5232
16247TIP3   OH270231   4.576   4.901   5.001  0.5471  0.0565 -0.1062
16247TIP3    H170232   4.491   4.932   4.970  0.2898 -0.0398  0.4772
16247TIP3    H270233   4.559   4.812   5.032  0.5749  0.4647  1.1518
16248TIP3   OH270234   4.493   5.443  13.588 -0.1207  0.5318  0.1134
16248TIP3    H170235   4.543   5.467  13.510  1.0693 -0.6808  0.4599
16248TIP3    H270236   4.404   5.473  13.570 -0.8045 -2.7624 -3.3019
16249TIP3   OH270237   3.634   1.835   4.848  0.0791 -0.0159  0.0235
16249TIP3    H170238   3.629   1.892   4.771  0.0256  0.1655  0.1608
16249TIP3    H270239   3.624   1.894   4.922 -2.4487 -0.4560  0.1335
16250TIP3   OH270240   3.476   4.450  13.957 -0.2236  0.0785  0.3840
16250TIP3    H170241   3.479   4.544  13.939 -1.6077  0.2096  0.7048
16250TIP3    H270242   3.385   4.425  13.939  0.2705 -1.3335 -0.2831
16251TIP3   OH270243   0.200   2.908  14.819  0.4296 -0.2081 -0.0548
16251TIP3    H170244   0.234   2.998  14.819  1.3743 -0.5535 -0.3423
16251TIP3    H270245   0.278   2.853  14.830 -0.2529 -0.9586  1.2237
16252TIP3   OH270246   0.341   0.764  13.450  0.5266 -0.1713 -0.0403
16252TIP3    H170247   0.276   0.834  13.453  1.2528  0.4811  0.9226
16252TIP3    H270248   0.339   0.726  13.538  0.9259 -0.6446 -0.2289
16253TIP3   OH270249   0.552   2.862   6.323  0.3958 -0.0366 -0.2828
16253TIP3    H170250   0.477   2.912   6.356  1.0186 -0.3971  1.8020
16253TIP3    H270251   0.586   2.916   6.252 -0.0293  1.6499  0.7163
16254TIP3   OH270252   6.229   5.941   4.763  0.4032  0.4594 -0.2302
16254TIP3    H170253   6.308   5.901   4.801 -0.9457 -0.0121  2.3210
16254TIP3    H270254   6.164   5.871   4.763 -0.4837  1.2666 -0.7246
16255TIP3   OH270255   4.557   4.355   0.773 -1.0188 -0.1511 -0.9678
16255TIP3    H170256   4.602   4.433   0.740 -0.3449 -1.2308 -2.7283
16255TIP3    H270257   4.499   4.330   0.701 -1.6701 -0.9304 -0.1797
16256TIP3   OH270258   6.082   2.428   5.001  0.2822 -0.4278 -0.4858
16256TIP3    H170259   6.010   2.404   4.943 -0.7341 -0.1559  0.6241
16256TIP3    H270260   6.149   2.464   4.943 -0.9250  0.3692 -1.4204
16257TIP3   OH270261   4.782   3.661   1.935  0.6907 -0.1326  0.2231
16257TIP3    H170262   4.736   3.589   1.978  2.2485 -2.1514 -1.3043
16257TIP3    H270263   4.809   3.719   2.007  0.8405 -1.9409  1.6954
16258TIP3   OH270264   5.474   0.927   2.038 -0.0939 -0.2589  0.6065
16258TIP3    H170265   5.392   0.880   2.020 -0.0188 -0.4554  0.7699
16258TIP3    H270266   5.538   0.858   2.053 -0.0479 -0.0997  1.1429
16259TIP3   OH270267   5.395   2.346  13.946  0.5140 -0.0098 -0.0316
16259TIP3    H170268   5.302   2.325  13.953  0.0303  1.5901 -0.9803
16259TIP3    H270269   5.441   2.269  13.979 -1.1427 -0.9150  0.2236
16260TIP3   OH270270   2.556   3.714   0.950  0.4087 -0.5193  0.6642
16260TIP3    H170271   2.634   3.766   0.927  1.4615 -1.6479  1.5494
16260TIP3    H270272   2.484   3.777   0.947  1.4642  0.7307  0.5710
16261TIP3   OH270273   2.011   4.538  14.838 -0.6180  0.4879  0.1649
16261TIP3    H170274   2.002   4.451  14.875  0.3462  0.0105 -0.6522
16261TIP3    H270275   1.973   4.531  14.750 -0.8491  0.9829  0.2219
16262TIP3   OH270276   2.626   6.039  15.947  0.4239 -0.1435  0.0388
16262TIP3    H170277   2.574   6.096  15.890  0.6014 -0.6176 -0.6082
16262TIP3    H270278   2.701   6.092  15.972 -0.2565  0.4786  0.8119
16263TIP3   OH270279   1.142   2.079   2.867  0.4161 -0.1336 -0.2432
16263TIP3    H170280   1.174   2.064   2.956  1.1525  0.3844 -0.4134
16263TIP3    H270281   1.220   2.096   2.816 -0.0568  0.1729 -0.8744
16264TIP3   OH270282   5.906   1.114  13.199 -0.2049 -0.1199  0.2945
16264TIP3    H170283   5.999   1.122  13.177 -0.5591  1.6168 -0.7772
16264TIP3    H270284   5.868   1.065  13.127 -0.1102 -1.0014  0.8299
16265TIP3   OH270285   0.579   1.040   2.034  0.3387  0.7049 -0.5308
16265TIP3    H170286   0.643   0.999   1.977  3.6973 -0.5727  3.6122
16265TIP3    H270287   0.589   1.134   2.018  1.0215  0.3908 -2.0963
16266TIP3   OH270288   5.038   2.062   5.471 -0.1459  0.5380  0.0833
16266TIP3    H170289   5.091   2.112   5.534 -0.7328  1.3403 -0.0464
16266TIP3    H270290   5.045   1.972   5.501  1.3948  0.5976  0.0047
16267TIP3   OH270291   0.485   3.546   4.346 -0.3358  0.0693  0.3262
16267TIP3    H170292   0.392   3.528   4.330 -0.2677 -0.0074  0.0032
16267TIP3    H270293   0.485   3.603   4.423 -0.7758  1.5038 -0.6754
16268TIP3   OH270294   0.944   5.637  15.571  0.0431 -0.8940 -0.1002
16268TIP3    H170295   0.862   5.674  15.538  0.9182  0.0272 -1.3225
16268TIP3    H270296   1.004   5.641  15.497  1.8030  0.3509  1.3015
16269TIP3   OH270297   6.534   0.109   5.690  0.2019 -0.2619 -0.2398
16269TIP3    H170298   6.445   0.127   5.720  0.6524 -1.0118  1.7366
16269TIP3    H270299   6.577   0.071   5.767  1.9776 -0.7179 -1.4121
16270TIP3   OH270300   0.552   2.254   4.793 -0.2287 -0.1405 -0.0485
16270TIP3    H170301   0.581   2.187   4.855 -0.4277 -0.0876  0.1061
16270TIP3    H270302   0.601   2.333   4.819  1.2059 -0.6101 -1.2421
16271TIP3   OH270303   1.122   6.143   3.880 -0.0797  0.1733  0.0050
16271TIP3    H170304   1.099   6.192   3.801  0.7049 -0.6704 -0.7750
16271TIP3    H270305   1.164   6.207   3.937 -0.2763  0.7025 -0.4373
16272TIP3   OH270306   3.097   3.603   0.812  0.1140 -0.2645  0.2182
16272TIP3    H170307   3.129   3.612   0.901 -2.3786  1.2257  1.0671
16272TIP3    H270308   3.166   3.555   0.766  1.9016 -0.2156  2.6701
16273TIP3   OH270309   1.440   5.747   4.756 -0.3075 -0.1723 -0.0669
16273TIP3    H170310   1.442   5.675   4.819 -1.6351 -1.1869 -1.1313
16273TIP3    H270311   1.451   5.826   4.809 -1.4151 -0.9846  1.4477
16274TIP3   OH270312   1.060   5.325  14.164  0.3188  0.0046  0.2011
16274TIP3    H170313   1.050   5.231  14.152 -2.0246  0.4805 -2.6292
16274TIP3    H270314   0.997   5.347  14.233 -1.6896 -0.1250 -1.5150
16275TIP3   OH270315   0.569   3.222  15.221 -0.0490  0.1330 -0.2042
16275TIP3    H170316   0.590   3.151  15.160 -0.5658  1.1463 -1.6168
16275TIP3    H270317   0.622   3.204  15.299  1.8057 -0.3896 -1.5199
16276TIP3   OH270318   1.941   3.216   4.494  0.0073  0.2319  0.6710
16276TIP3    H170319   1.969   3.151   4.429  0.8321  0.4445  0.8031
16276TIP3    H270320   1.854   3.187   4.520 -0.5092  0.3544 -0.8033
16277TIP3   OH270321   2.794   0.694   3.232  0.7274  0.4907  0.0480
16277TIP3    H170322   2.771   0.630   3.165  2.1038 -0.0510  0.0494
16277TIP3    H270323   2.772   0.650   3.315  1.3107  0.1685  0.0346
16278TIP3   OH270324   3.640   5.032   4.353 -0.3002  0.0580  0.3499
16278TIP3    H170325   3.680   5.010   4.269  1.7379  3.2528  0.3081
16278TIP3    H270326   3.547   5.043   4.333 -0.9273 -4.4221 -0.2290
16279TIP3   OH270327   1.261   4.940  14.263 -0.1693  0.5085  0.0639
16279TIP3    H170328   1.287   4.894  14.183  0.8922 -1.5328  1.4917
16279TIP3    H270329   1.251   5.031  14.236 -1.1375 -0.2844 -2.6600
16280TIP3   OH270330   6.255   3.141  17.140 -0.2419 -0.3010 -0.2518
16280TIP3    H170331   6.306   3.166  17.063 -0.9357  0.0742 -0.6011
16280TIP3    H270332   6.248   3.046  17.134  0.5851 -0.3791 -0.0847
16281TIP3   OH270333   0.624   5.839  15.211 -0.0474  0.2914 -0.0832
16281TIP3    H170334   0.537   5.877  15.204  0.4203  1.4246  0.1310
16281TIP3    H270335   0.618   5.756  15.163 -1.0323  0.7130 -0.7050
16282TIP3   OH270336   0.861   1.357   5.317  0.5246 -0.2677  0.4516
16282TIP3    H170337   0.780   1.386   5.358  1.6051  0.8143  1.9510
16282TIP3    H270338   0.861   1.262   5.327 -0.8932 -0.3570 -0.2721
16283TIP3   OH270339   6.099   4.321   2.559  0.6397 -0.7002 -0.1418
16283TIP3    H170340   6.130   4.310   2.469 -0.0283 -0.0208 -0.4656
16283TIP3    H270341   6.167   4.281   2.613  1.4902 -0.3115 -0.9003
16284TIP3   OH270342   5.643   5.257   0.132 -0.7331  0.3523  0.5338
16284TIP3    H170343   5.653   5.226   0.222 -0.5238  0.7464  0.6485
16284TIP3    H270344   5.570   5.319   0.136 -1.5404 -0.5482  0.1938
16285TIP3   OH270345   3.439   5.603  14.600  0.1661  0.5240 -0.0991
16285TIP3    H170346   3.395   5.546  14.538 -0.4970  0.9729 -0.0534
16285TIP3    H270347   3.452   5.549  14.678  0.0630  0.2684 -0.2601
16286TIP3   OH270348   0.257   2.550   0.456  0.3468  0.0310  0.2608
16286TIP3    H170349   0.259   2.534   0.361  1.3025  0.1418  0.2473
16286TIP3    H270350   0.183   2.499   0.488 -0.6639  0.8567 -0.6946
16287TIP3   OH270351   2.800   1.892  16.747 -0.3161 -0.1386  0.1650
16287TIP3    H170352   2.739   1.906  16.819  0.2696 -0.7867  0.8112
16287TIP3    H270353   2.865   1.962  16.757 -0.1508 -0.3168  0.3755
16288TIP3   OH270354   3.674   6.557  13.347 -0.7107  0.0240 -0.1458
16288TIP3    H170355   3.610   6.521  13.409 -1.1738 -2.1724 -1.7359
16288TIP3    H270356   3.625   6.562  13.264  0.9178 -1.0008 -1.2305
16289TIP3   OH270357   4.396   0.499   2.018 -0.0604 -0.2811  0.5355
16289TIP3    H170358   4.362   0.523   2.104 -0.0101  1.8273  0.0178
16289TIP3    H270359   4.317   0.484   1.965 -0.0956 -2.0414  1.0082
16290TIP3   OH270360   3.914   4.524   0.531 -0.0084 -0.0325 -0.0927
16290TIP3    H170361   3.842   4.584   0.551 -0.1562 -0.4756  0.7699
16290TIP3    H270362   3.949   4.499   0.617  1.1281  0.1196 -0.4982
16291TIP3   OH270363   2.688   3.273  15.563  0.2727  0.2679  0.2119
16291TIP3    H170364   2.724   3.332  15.497  0.3198  0.3063  0.2717
16291TIP3    H270365   2.614   3.230  15.519  1.8593 -1.6411 -0.7643
16292TIP3   OH270366   2.866   4.956  13.672  0.1263  0.0546  0.4682
16292TIP3    H170367   2.938   4.905  13.634 -1.2446  0.1433 -2.5007
16292TIP3    H270368   2.808   4.889  13.710 -0.6576 -0.5414 -1.6251
16293TIP3   OH270369   2.978   6.166   5.019  0.3006  0.6238 -0.1992
16293TIP3    H170370   3.028   6.230   5.069  1.0977  0.6300 -0.9792
16293TIP3    H270371   3.044   6.115   4.971 -0.3680 -0.1987 -0.2730
16294TIP3   OH270372   1.326   4.559  10.546  0.3959 -0.3632 -0.6101
16294TIP3    H170373   1.240   4.586  10.516 -0.7076 -1.1573  1.5697
16294TIP3    H270374   1.333   4.595  10.635  2.2849 -0.3691 -0.7149
16295TIP3   OH270375   1.192   1.221  12.261 -0.0927  0.4584  0.1938
16295TIP3    H170376   1.166   1.180  12.178  0.3307  0.3897  0.0967
16295TIP3    H270377   1.285   1.239  12.251 -0.1173  0.7690  0.5248
16296TIP3   OH270378   2.024   3.635  12.889 -0.6177 -0.5142 -0.0329
16296TIP3    H170379   2.085   3.683  12.834 -0.0280  0.9228  1.7572
16296TIP3    H270380   2.076   3.565  12.928  0.3176  1.3719  2.3576
16297TIP3   OH270381   5.345   5.635  14.816 -0.2917 -0.5339 -0.4364
16297TIP3    H170382   5.366   5.724  14.788 -1.0733 -0.2093 -0.0469
16297TIP3    H270383   5.269   5.610  14.763 -2.4511  0.4712  1.9169
16298TIP3   OH270384   2.437   2.907   2.488 -0.7911 -0.5492 -0.8941
16298TIP3    H170385   2.345   2.894   2.465 -0.9200 -1.7879  0.1983
16298TIP3    H270386   2.436   2.927   2.581  0.0580 -0.7898 -0.8285
16299TIP3   OH270387   0.139   4.150   1.695 -0.0998  0.0100  0.1108
16299TIP3    H170388   0.169   4.133   1.606  1.0968 -0.4902  0.5880
16299TIP3    H270389   0.203   4.212   1.731  0.7442 -1.5048  1.3404
16300TIP3   OH270390   0.713   4.665   3.157 -0.2306 -0.2402  0.2404
16300TIP3    H170391   0.653   4.706   3.094  0.1280  0.0685  0.0976
16300TIP3    H270392   0.738   4.583   3.115 -0.1032 -0.1011  0.0421
16301TIP3   OH270393   3.208   3.616  11.404  0.5435  0.3092  0.1036
16301TIP3    H170394   3.268   3.575  11.467  0.2801 -1.3764 -0.6743
16301TIP3    H270395   3.123   3.575  11.423  0.3181  0.3084 -0.8692
16302TIP3   OH270396   1.733   3.027  10.442 -0.1273  0.4687  0.0146
16302TIP3    H170397   1.749   3.100  10.383 -0.3117  0.8591  0.4354
16302TIP3    H270398   1.818   3.009  10.482 -0.1149  0.5665  0.0329
16303TIP3   OH270399   1.998   5.489   1.883 -0.6616 -0.1440  0.5969
16303TIP3    H170400   1.994   5.497   1.787  2.2507  1.6711  0.4886
16303TIP3    H270401   1.943   5.559   1.916 -1.3909 -0.5489  0.2554
16304TIP3   OH270402   1.627   4.763   1.262  0.4007 -0.0211  0.1702
16304TIP3    H170403   1.537   4.760   1.231  0.4896  0.3502 -0.1214
16304TIP3    H270404   1.621   4.801   1.350  0.3897  1.0710 -0.2922
16305TIP3   OH270405   4.082   5.114   5.071  0.1369  0.1537 -0.0280
16305TIP3    H170406   4.061   5.114   4.977 -1.3984 -2.1783  0.2199
16305TIP3    H270407   4.035   5.189   5.105 -0.4773  0.2074 -0.9369
16306TIP3   OH270408   0.653   5.687   5.220  0.3999 -0.3022 -0.3642
16306TIP3    H170409   0.646   5.768   5.170 -0.6462 -0.2512 -0.1547
16306TIP3    H270410   0.571   5.680   5.267  2.2893  1.0432  3.5696
16307TIP3   OH270411   0.187   3.782  14.377 -0.0598  0.0546 -0.1784
16307TIP3    H170412   0.212   3.874  14.385  1.1173 -0.2284 -0.3655
16307TIP3    H270413   0.241   3.749  14.305  0.2202 -1.0012  0.4925
16308TIP3   OH270414   2.858   3.772   3.998 -0.3516 -0.3505 -0.3304
16308TIP3    H170415   2.936   3.718   4.005  0.4305  0.8620  0.9178
16308TIP3    H270416   2.785   3.710   4.002  0.5250 -1.4248 -0.5908
16309TIP3   OH270417   1.066   5.777   5.121 -0.3998 -0.4680 -0.7088
16309TIP3    H170418   1.139   5.833   5.145 -0.4171  0.0778 -1.8671
16309TIP3    H270419   1.103   5.712   5.062 -0.7057 -0.6353 -0.7204
16310TIP3   OH270420   5.240   4.875   5.987  0.3739  0.4288  0.0346
16310TIP3    H170421   5.235   4.786   6.022 -1.2747  0.1601 -0.8127
16310TIP3    H270422   5.150   4.907   5.988  0.9304  2.1067  0.3071
16311TIP3   OH270423   4.446   2.125  11.500 -0.4875  0.8726  0.3230
16311TIP3    H170424   4.410   2.057  11.558  1.1841  1.2622  1.8963
16311TIP3    H270425   4.495   2.077  11.434  1.1313  0.4911  1.7329
16312TIP3   OH270426   4.495   4.578   4.024 -0.4852 -0.0549 -0.4321
16312TIP3    H170427   4.417   4.541   4.064 -0.6359  0.2617 -0.4248
16312TIP3    H270428   4.477   4.578   3.930 -0.3858 -0.2272 -0.4516
16313TIP3   OH270429   1.596   5.293  16.766 -0.0439  0.5875 -0.2390
16313TIP3    H170430   1.565   5.360  16.705 -0.3605 -0.0766 -0.8210
16313TIP3    H270431   1.618   5.218  16.711 -1.3973 -0.4246  0.5403
16314TIP3   OH270432   5.913   3.953   4.477 -0.2422  0.2651  0.5907
16314TIP3    H170433   5.851   3.886   4.506  1.7163 -1.0798  1.8601
16314TIP3    H270434   5.925   3.936   4.384  1.2152 -2.0538  1.1470
16315TIP3   OH270435   1.517   4.353  17.105  0.1797 -0.4712  0.3309
16315TIP3    H170436   1.445   4.340  17.043  1.6119 -1.4869 -1.2237
16315TIP3    H270437   1.513   4.446  17.127  0.1849  0.1929 -2.1242
16316TIP3   OH270438   2.110   6.668   3.680  0.7214 -0.1563 -0.1710
16316TIP3    H170439   2.191   6.628   3.649  0.8919  0.0468  0.0001
16316TIP3    H270440   2.126   6.685   3.773  0.5644  0.0858 -0.1861
16317TIP3   OH270441   1.851   2.897   0.602  0.1926 -0.5974  0.2476
16317TIP3    H170442   1.778   2.960   0.599  1.5725  1.0853 -3.1446
16317TIP3    H270443   1.899   2.920   0.681 -1.5022 -0.0229  1.1582
16318TIP3   OH270444   3.732   0.671   2.263 -0.6689  0.1960  0.3041
16318TIP3    H170445   3.701   0.584   2.286 -1.0823 -0.5317 -2.6366
16318TIP3    H270446   3.668   0.731   2.301 -0.3980 -0.7108  2.3215
16319TIP3   OH270447   0.291   5.909  12.210  0.3729  0.0776 -0.1325
16319TIP3    H170448   0.383   5.932  12.224  0.1514  1.6498 -1.0366
16319TIP3    H270449   0.288   5.883  12.118 -0.4916  2.4511 -0.8421
16320TIP3   OH270450   3.525   2.800   3.351 -0.9297 -0.0745  0.6358
16320TIP3    H170451   3.478   2.858   3.410 -2.4522  1.0256 -1.5424
16320TIP3    H270452   3.613   2.837   3.347 -1.5152  1.3491  0.2948
16321TIP3   OH270453   4.214   6.550   4.327  0.0752  0.3626  0.1982
16321TIP3    H170454   4.246   6.575   4.414  0.8244  1.3315 -0.3405
16321TIP3    H270455   4.292   6.520   4.280 -0.6021 -1.9884  0.4313
16322TIP3   OH270456   6.480   4.028   2.021  0.0123 -0.0062 -0.0228
16322TIP3    H170457   6.562   4.075   2.039 -0.0118 -0.4319  1.3161
16322TIP3    H270458   6.420   4.057   2.089 -0.3280 -1.1959  0.2027
16323TIP3   OH270459   6.787   6.095   5.946 -0.0658 -0.3242 -0.1886
16323TIP3    H170460   6.818   6.169   5.998 -2.3659  0.2912  0.4321
16323TIP3    H270461   6.788   6.021   6.007  0.8450 -0.4966 -0.3952
16324TIP3   OH270462   6.746   1.418  10.474 -0.1777  0.3878  0.1209
16324TIP3    H170463   6.833   1.380  10.480 -0.0866  0.1279 -1.9334
16324TIP3    H270464   6.758   1.498  10.423 -0.9224  1.2508  1.2453
16325TIP3   OH270465   4.144   3.038  13.210  0.3483  0.0918 -0.1095
16325TIP3    H170466   4.133   3.119  13.161 -0.4199  0.3227  0.4273
16325TIP3    H270467   4.237   3.037  13.235  0.3211  0.8812  0.0233
16326TIP3   OH270468   3.995   4.155   3.330 -0.0607 -0.0020  0.0129
16326TIP3    H170469   3.988   4.101   3.408  1.5612  1.0198  0.9272
16326TIP3    H270470   4.087   4.148   3.304 -0.1419  1.1676 -0.6880
16327TIP3   OH270471   3.987   4.941   4.569 -0.0905 -0.2661  0.0203
16327TIP3    H170472   4.036   4.962   4.489  0.5017 -0.9696  0.1898
16327TIP3    H270473   3.907   4.994   4.563  0.5050  0.5957 -0.4524
16328TIP3   OH270474   2.705   2.060  16.252 -0.1089  0.4841 -0.3565
16328TIP3    H170475   2.698   2.072  16.157 -0.8629 -0.9059 -0.4972
16328TIP3    H270476   2.766   1.987  16.262 -2.9908 -2.0956 -0.0034
16329TIP3   OH270477   1.389   1.176   5.506  0.5551  0.2904 -0.7037
16329TIP3    H170478   1.340   1.238   5.560  0.2203 -0.2421 -0.3803
16329TIP3    H270479   1.464   1.225   5.474  0.8894  0.5474  0.4447
16330TIP3   OH270480   2.755   4.957   4.774 -0.3742  0.2299  0.4582
16330TIP3    H170481   2.765   4.966   4.679  2.1191 -0.6997  0.5569
16330TIP3    H270482   2.661   4.965   4.789 -0.5404  4.7308 -1.5625
16331TIP3   OH270483   5.923   3.011   2.860  0.3940  0.2234  0.3060
16331TIP3    H170484   5.872   3.092   2.856  1.0585  0.6054 -0.9107
16331TIP3    H270485   5.879   2.958   2.927 -2.5695 -0.0859 -1.6819
16332TIP3   OH270486   5.866   0.290  15.388 -0.1316  0.3574  0.4481
16332TIP3    H170487   5.877   0.365  15.445 -1.1112  0.6826  0.2368
16332TIP3    H270488   5.944   0.290  15.332  1.3088 -0.5263  2.3723
16333TIP3   OH270489   4.572   3.425   2.388  0.4578  0.2008  0.7788
16333TIP3    H170490   4.640   3.358   2.385  0.7569  0.4896  0.9627
16333TIP3    H270491   4.490   3.376   2.392  0.7476 -0.2078  3.2462
16334TIP3   OH270492   5.594   4.865   1.657 -0.0231  0.3127 -0.6440
16334TIP3    H170493   5.673   4.871   1.710 -1.2308 -2.9815  1.8554
16334TIP3    H270494   5.522   4.867   1.719 -1.7000 -0.6110 -2.4182
16335TIP3   OH270495   6.508   0.721  11.409  0.5089 -0.2165 -0.4404
16335TIP3    H170496   6.557   0.786  11.460  1.4173 -0.9514 -0.3434
16335TIP3    H270497   6.572   0.652  11.391 -0.3784 -0.9808 -0.7321
16336TIP3   OH270498   3.143   6.082   1.419  0.7611  0.8245  0.1875
16336TIP3    H170499   3.049   6.065   1.421  0.9005 -0.1461 -0.7856
16336TIP3    H270500   3.175   6.049   1.503  0.4072  0.0826  0.0352
16337TIP3   OH270501   5.119   6.335  16.801  0.4381  0.2208 -0.3688
16337TIP3    H170502   5.039   6.388  16.793  0.1914 -0.1842 -0.6381
16337TIP3    H270503   5.102   6.276  16.874 -0.0171 -0.7150 -1.2044
16338TIP3   OH270504   3.807   0.478   0.400 -0.4353 -0.1538 -0.1676
16338TIP3    H170505   3.840   0.420   0.331 -0.7262 -1.1604  0.5271
16338TIP3    H270506   3.770   0.552   0.353  0.6105 -0.1644 -1.0502
16339TIP3   OH270507   0.833   2.763   3.692 -0.5609  0.2496 -0.4349
16339TIP3    H170508   0.787   2.754   3.609  0.0429 -2.7861 -0.5642
16339TIP3    H270509   0.902   2.827   3.676 -0.3690 -0.3888 -2.3328
16340TIP3   OH270510   2.640   0.323   5.904  0.5954 -0.6930 -0.0335
16340TIP3    H170511   2.681   0.237   5.903  1.3380 -0.3441 -0.6105
16340TIP3    H270512   2.670   0.365   5.823 -1.1869 -0.5541 -0.6616
16341TIP3   OH270513   6.627   5.684   6.041 -0.3332 -0.2687  0.2797
16341TIP3    H170514   6.537   5.666   6.069 -0.2131 -0.9523  0.2480
16341TIP3    H270515   6.620   5.703   5.947 -0.8831  3.1033  0.8824
16342TIP3   OH270516   1.447   1.238  12.162  0.2259 -0.0293  0.0872
16342TIP3    H170517   1.530   1.235  12.209  0.1063 -2.8792  0.2848
16342TIP3    H270518   1.467   1.286  12.081  2.0486 -0.5718  0.1782
16343TIP3   OH270519   5.998   1.621   5.767  0.0663  0.5340 -0.3826
16343TIP3    H170520   6.070   1.671   5.729  1.1441 -1.4187 -1.0658
16343TIP3    H270521   6.029   1.595   5.854 -0.4024  0.8713 -0.1101
16344TIP3   OH270522   5.795   6.507   1.022  0.2080  0.1507  0.3804
16344TIP3    H170523   5.803   6.415   1.046  1.4630  0.3669  0.8623
16344TIP3    H270524   5.877   6.547   1.051 -0.6286  1.5839  0.9009
16345TIP3   OH270525   6.239   4.713  15.741  0.0054  0.1058 -0.1374
16345TIP3    H170526   6.276   4.681  15.823  1.7668  0.6488 -0.6932
16345TIP3    H270527   6.203   4.635  15.699  1.3176 -0.6097  0.0259
16346TIP3   OH270528   6.259   1.573   3.906 -0.3635 -0.2915 -0.4881
16346TIP3    H170529   6.185   1.632   3.900 -0.2972 -0.1626 -0.0913
16346TIP3    H270530   6.243   1.506   3.840  0.0363  0.6854 -1.6127
16347TIP3   OH270531   3.518   6.802   3.304 -0.1737 -0.5990 -1.0787
16347TIP3    H170532   3.564   6.719   3.310 -0.2199 -0.5341  0.9028
16347TIP3    H270533   3.437   6.788   3.353  1.0271  1.3166  1.7513
16348TIP3   OH270534   4.398   5.914  13.091  0.4650  0.0739  0.2240
16348TIP3    H170535   4.398   6.010  13.090  2.9441  0.1544  0.3155
16348TIP3    H270536   4.481   5.891  13.133 -0.9459 -2.1627  2.0287
16349TIP3   OH270537   3.577   3.924  11.136 -0.4085 -0.0511  0.0646
16349TIP3    H170538   3.545   3.864  11.203 -2.6129  0.8511 -0.0871
16349TIP3    H270539   3.571   3.874  11.054  0.4073 -0.5042  0.2724
16350TIP3   OH270540   3.530   0.975  14.405  0.2056  0.2749 -0.5705
16350TIP3    H170541   3.615   0.932  14.409  0.1118  0.0171 -1.2917
16350TIP3    H270542   3.494   0.951  14.320  0.1559  1.7899 -1.0034
16351TIP3   OH270543   5.713   4.607   5.924 -0.1642 -0.4328 -0.1395
16351TIP3    H170544   5.633   4.636   5.879 -0.2118 -0.7035 -0.2338
16351TIP3    H270545   5.684   4.533   5.978  0.3416 -1.6160 -1.4553
16352TIP3   OH270546   4.425   5.800  15.964  0.9855 -0.2201  0.5697
16352TIP3    H170547   4.442   5.722  16.015  1.3474 -0.2335  0.4321
16352TIP3    H270548   4.391   5.767  15.880  1.3116 -0.2413  0.4426
16353TIP3   OH270549   1.668   0.616  10.943 -0.2517  0.1453 -0.6628
16353TIP3    H170550   1.699   0.580  10.860 -0.8355  1.0574 -1.2882
16353TIP3    H270551   1.702   0.705  10.944  0.7758 -0.2220  0.6484
16354TIP3   OH270552   2.979   5.789  14.535 -0.1770  0.4376  0.2506
16354TIP3    H170553   2.912   5.857  14.541 -0.8389 -0.2778  1.3359
16354TIP3    H270554   3.019   5.788  14.622  0.0003 -0.3747  0.1631
16355TIP3   OH270555   5.843   4.961  17.082 -0.0934  0.2527  0.4791
16355TIP3    H170556   5.924   4.924  17.117  0.0462  1.0418  1.0321
16355TIP3    H270557   5.871   5.027  17.019 -0.3502 -1.5206 -1.5847
16356TIP3   OH270558   3.361   5.317   6.634  0.2139  0.0030 -0.3002
16356TIP3    H170559   3.300   5.267   6.580 -0.4523  1.7260 -1.2167
16356TIP3    H270560   3.440   5.262   6.639 -1.0699 -1.8931  0.2251
16357TIP3   OH270561   1.187   2.518  14.789  0.0806  0.1305 -0.0315
16357TIP3    H170562   1.259   2.539  14.730  1.0203 -1.4949  0.4700
16357TIP3    H270563   1.227   2.511  14.875 -1.2316  2.2054  0.8288
16358TIP3   OH270564   4.842   0.499   0.613  0.0861  0.3134  0.5655
16358TIP3    H170565   4.896   0.422   0.595  0.7243  0.9466 -0.3432
16358TIP3    H270566   4.769   0.466   0.665  1.1480 -0.6290  1.5033
16359TIP3   OH270567   4.254   4.050   3.299  0.0329  0.0303 -0.8047
16359TIP3    H170568   4.330   4.089   3.341 -0.5605 -0.2365  0.5632
16359TIP3    H270569   4.284   3.965   3.269  0.2952 -0.0554 -0.3139
16360TIP3   OH270570   5.908   3.525   4.017  0.7276  0.0630 -0.5218
16360TIP3    H170571   5.867   3.522   4.103  0.5322 -1.8943 -0.6249
16360TIP3    H270572   5.975   3.593   4.024 -0.3561  1.0457  0.6466
16361TIP3   OH270573   1.847   3.778   1.254 -0.1227 -0.5523  0.2568
16361TIP3    H170574   1.771   3.810   1.207 -2.3289 -0.1202  3.7744
16361TIP3    H270575   1.880   3.854   1.302  2.1983 -0.8823 -0.6798
16362TIP3   OH270576   4.425   1.388   2.076 -0.6428  0.2738 -0.1604
16362TIP3    H170577   4.402   1.301   2.107  1.6954  0.0929  1.2862
16362TIP3    H270578   4.356   1.445   2.109 -2.3552 -1.0233 -1.3662
16363TIP3   OH270579   1.206   0.469   4.714  0.6029  0.1249 -0.1653
16363TIP3    H170580   1.135   0.412   4.685  0.1084  1.0205 -0.7561
16363TIP3    H270581   1.252   0.418   4.781  0.1571 -0.9454 -0.6549
16364TIP3   OH270582   3.073   5.878   1.092 -0.1710  0.0727 -0.4859
16364TIP3    H170583   2.994   5.868   1.144 -0.7919 -0.8235 -1.5516
16364TIP3    H270584   3.073   5.970   1.065  1.1730  1.1103  2.5775
16365TIP3   OH270585   6.019   5.801  15.362 -0.1317  0.1849  0.5807
16365TIP3    H170586   6.044   5.869  15.299 -0.2353 -0.6535 -0.4006
16365TIP3    H270587   5.928   5.820  15.384 -0.1341  0.4094  0.3775
16366TIP3   OH270588   0.918   1.330  12.488 -0.0072  0.6459 -0.0860
16366TIP3    H170589   0.940   1.402  12.428  0.2636  1.1107  0.5585
16366TIP3    H270590   0.964   1.254  12.453  0.8817  1.1169  0.0252
16367TIP3   OH270591   6.199   0.691   6.728 -0.0169 -0.6074 -0.4694
16367TIP3    H170592   6.124   0.751   6.728  0.4303 -0.0403 -0.3116
16367TIP3    H270593   6.274   0.746   6.751  0.3349 -1.3105  0.0976
16368TIP3   OH270594   3.641   5.153   1.083  0.1752 -0.3220 -0.3950
16368TIP3    H170595   3.669   5.062   1.095  0.1615 -0.0317  2.2065
16368TIP3    H270596   3.545   5.149   1.085  0.0757 -0.4883 -2.7136
16369TIP3   OH270597   1.115   3.725   2.690  0.1269  0.2761  0.0349
16369TIP3    H170598   1.197   3.702   2.733 -1.0883  0.8611  2.8826
16369TIP3    H270599   1.066   3.643   2.687  1.1180 -0.3269 -2.6739
16370TIP3   OH270600   4.364   3.821   3.221  0.2116  0.4900  0.3341
16370TIP3    H170601   4.381   3.746   3.278  0.1345 -0.4012 -0.7855
16370TIP3    H270602   4.451   3.854   3.198  0.2751  2.1716  2.5635
16371TIP3   OH270603   3.959   0.203   2.253  0.9213 -0.6805 -0.0149
16371TIP3    H170604   3.992   0.155   2.329  1.6294 -1.4574 -0.7964
16371TIP3    H270605   4.037   0.244   2.215  0.8192 -1.4362 -1.1036
16372TIP3   OH270606   5.238   4.885   1.367  0.6752 -0.3400 -0.3701
16372TIP3    H170607   5.282   4.879   1.283 -1.5360  0.1598 -1.6364
16372TIP3    H270608   5.153   4.842   1.353 -0.0448  0.4125  1.3761
16373TIP3   OH270609   5.417   4.651   5.882 -0.9265  0.7607  0.9519
16373TIP3    H170610   5.398   4.618   5.794  0.0845  0.4938  0.8189
16373TIP3    H270611   5.395   4.744   5.879 -1.5741  0.6080  0.6403
16374TIP3   OH270612   1.392   2.253   0.099 -0.4358 -0.4630 -0.0904
16374TIP3    H170613   1.384   2.349   0.102 -2.7406 -0.5321 -1.5320
16374TIP3    H270614   1.435   2.236   0.016 -0.6361 -0.6978 -0.1452
16375TIP3   OH270615   3.026   2.465  13.009 -0.1233 -0.6310 -0.5590
16375TIP3    H170616   3.045   2.378  13.043 -0.2870  0.0071  1.3331
16375TIP3    H270617   2.933   2.465  12.989 -1.0079  0.0788  2.9106
16376TIP3   OH270618   3.137   6.366   3.742  0.5753  0.1947 -0.2782
16376TIP3    H170619   3.148   6.460   3.757 -1.4261  0.4197  0.0552
16376TIP3    H270620   3.224   6.335   3.715  1.7908  1.7363  1.6200
16377TIP3   OH270621   1.640   5.951   6.111 -0.4889 -0.3693  0.0376
16377TIP3    H170622   1.679   5.882   6.058  0.6729  0.2936 -0.0260
16377TIP3    H270623   1.702   5.963   6.183  1.3182  2.9504 -1.7767
16378TIP3   OH270624   5.598   0.589  12.034 -0.2133  0.3983  0.0796
16378TIP3    H170625   5.517   0.584  11.982  0.6001 -1.9878 -1.1312
16378TIP3    H270626   5.585   0.524  12.104  0.6242 -0.0239 -0.1382
16379TIP3   OH270627   0.185   2.477  15.771 -0.5638 -0.3187  0.3236
16379TIP3    H170628   0.151   2.564  15.753 -1.0811 -0.7096 -0.6532
16379TIP3    H270629   0.196   2.437  15.684  0.4156 -0.9440  0.7172
16380TIP3   OH270630   0.425   6.596   5.157 -0.2207 -0.0772 -0.6296
16380TIP3    H170631   0.434   6.629   5.068  0.8747 -0.9148 -0.8579
16380TIP3    H270632   0.423   6.674   5.212 -0.1371  0.4292 -1.3313
16381TIP3   OH270633   4.222   4.877   5.067  0.4935  0.1383  0.7353
16381TIP3    H170634   4.281   4.870   5.142  1.8640  1.9082 -0.1166
16381TIP3    H270635   4.177   4.960   5.080 -1.7640 -1.0905  1.2630
16382TIP3   OH270636   4.163   2.892   4.114  0.0885  0.5293  0.0705
16382TIP3    H170637   4.225   2.899   4.187  0.6989  0.0502 -0.3977
16382TIP3    H270638   4.194   2.956   4.050  0.4249 -0.0974 -0.3993
16383TIP3   OH270639   4.341   5.545  10.684 -0.1021  0.4961  0.3542
16383TIP3    H170640   4.327   5.594  10.603 -0.6338  1.2104  0.8727
16383TIP3    H270641   4.254   5.537  10.724 -0.6372 -3.4988 -1.1404
16384TIP3   OH270642   4.843   6.575   2.069 -0.3357 -0.0988 -0.3486
16384TIP3    H170643   4.933   6.602   2.050 -0.2325 -1.4639 -2.0072
16384TIP3    H270644   4.789   6.645   2.034  0.0542  0.7567  0.7070
16385TIP3   OH270645   5.147   4.501   0.995 -0.2046  0.8276  0.0590
16385TIP3    H170646   5.180   4.435   1.055 -0.0841  0.5561 -0.3049
16385TIP3    H270647   5.148   4.582   1.046  0.0871  0.6379  0.3573
16386TIP3   OH270648   0.780   5.407   2.585  0.3965 -0.0733  0.1322
16386TIP3    H170649   0.715   5.356   2.539  0.4611  0.2819 -0.3656
16386TIP3    H270650   0.864   5.370   2.557  0.4635  0.6757 -0.6935
16387TIP3   OH270651   1.098   5.173  16.565  0.1105  0.4940 -0.1852
16387TIP3    H170652   1.013   5.176  16.522  0.1179  0.5140 -0.1981
16387TIP3    H270653   1.081   5.129  16.649  0.3900 -1.0119 -0.8806
16388TIP3   OH270654   2.364   6.168  11.925 -0.2250  0.3666 -0.1678
16388TIP3    H170655   2.274   6.142  11.903 -0.9651  1.3563  1.4857
16388TIP3    H270656   2.417   6.094  11.898 -1.8147 -1.2555  0.9251
16389TIP3   OH270657   2.498   3.385  10.977 -0.5974  0.0934  0.1449
16389TIP3    H170658   2.538   3.365  10.893 -3.0535 -0.5325 -0.9563
16389TIP3    H270659   2.533   3.472  11.000  0.2019  0.2345 -1.4495
16390TIP3   OH270660   4.637   2.253  10.697  0.3699 -0.1523  0.0611
16390TIP3    H170661   4.728   2.264  10.723  0.7504  0.8557 -1.5630
16390TIP3    H270662   4.641   2.229  10.605 -1.0138  0.0805 -0.0767
16391TIP3   OH270663   6.350   6.468  15.874 -0.4702  0.8537 -0.0275
16391TIP3    H170664   6.433   6.501  15.838  0.0879 -1.2422 -0.8012
16391TIP3    H270665   6.340   6.381  15.836 -2.8878  0.9048  0.3240
16392TIP3   OH270666   0.079   4.491  17.145  0.3593  0.6571  0.2178
16392TIP3    H170667   0.022   4.415  17.147 -0.3164  1.1571  0.2612
16392TIP3    H270668   0.086   4.518  17.237  0.3362  0.8393  0.1659
16393TIP3   OH270669   2.169   6.023  11.032 -0.0460  0.6912 -0.0694
16393TIP3    H170670   2.258   6.053  11.012  0.4352 -0.8205 -0.2894
16393TIP3    H270671   2.114   6.071  10.971  0.7859  0.5175 -0.9809
16394TIP3   OH270672   1.371   5.044  15.202  1.0834 -0.4907 -0.0849
16394TIP3    H170673   1.421   5.110  15.251  0.5577  1.1580 -1.6393
16394TIP3    H270674   1.311   5.007  15.266 -1.1860  3.1846  0.2523
16395TIP3   OH270675   6.788   5.971  17.257 -0.5311  0.0165  0.3752
16395TIP3    H170676   6.806   6.022  17.336  2.8039 -1.4147  0.6736
16395TIP3    H270677   6.764   5.884  17.290  3.1274 -1.2805 -0.0303
16396TIP3   OH270678   0.244   5.747   6.135 -0.0471  0.4732  0.7850
16396TIP3    H170679   0.311   5.698   6.183  1.1230 -0.2944 -1.5133
16396TIP3    H270680   0.182   5.680   6.105 -0.0951  0.7812  0.1863
16397TIP3   OH270681   3.370   6.230  12.517 -0.3089 -0.2951 -0.0919
16397TIP3    H170682   3.342   6.172  12.446  0.6001 -0.2019 -0.5403
16397TIP3    H270683   3.302   6.220  12.584 -1.4609 -0.0152 -1.1655
16398TIP3   OH270684   4.286   2.813  13.391 -0.0399  0.1393 -0.3474
16398TIP3    H170685   4.328   2.883  13.342 -0.4377  0.7982  0.2385
16398TIP3    H270686   4.355   2.747  13.403  0.5461  0.7658 -0.2566
16399TIP3   OH270687   0.257   2.599  11.978  0.0105 -0.4212  0.2749
16399TIP3    H170688   0.196   2.666  12.009 -0.9915 -1.3470  0.3945
16399TIP3    H270689   0.315   2.583  12.052  0.8375  0.9332 -0.0576
16400TIP3   OH270690   5.172   3.970   1.967  0.4089  0.2396 -0.0073
16400TIP3    H170691   5.177   3.897   1.906  0.1812 -0.8765  1.2552
16400TIP3    H270692   5.098   4.022   1.935  1.3255  0.6284 -1.6222
16401TIP3   OH270693   5.733   5.417  15.032 -0.5061 -0.1902  0.2151
16401TIP3    H170694   5.820   5.446  15.059 -0.8512  0.1764  0.9632
16401TIP3    H270695   5.691   5.386  15.113 -0.8994 -0.8223 -0.2160
16402TIP3   OH270696   4.695   4.249   2.535 -0.3491  0.5031  0.1301
16402TIP3    H170697   4.647   4.303   2.472  0.8787  2.1862  0.5634
16402TIP3    H270698   4.766   4.210   2.485  0.3040  1.4042  0.3373
16403TIP3   OH270699   3.287   2.631  16.513  0.3988  0.7836 -0.2604
16403TIP3    H170700   3.336   2.549  16.512  0.9809  1.0623  1.4951
16403TIP3    H270701   3.337   2.689  16.455  1.0378  0.4412 -0.0639
16404TIP3   OH270702   0.833   3.390  11.975 -0.3258 -0.3340 -0.0005
16404TIP3    H170703   0.784   3.456  12.023  0.8159 -0.2820  1.1418
16404TIP3    H270704   0.804   3.399  11.884 -3.1185 -0.9651  0.7597
16405TIP3   OH270705   2.180   2.138   4.590  0.1172 -0.2419  0.3144
16405TIP3    H170706   2.114   2.107   4.651 -0.1192 -0.3183  0.0233
16405TIP3    H270707   2.156   2.229   4.574  0.9181  0.1663  1.3133
16406TIP3   OH270708   0.666   4.967  14.510 -0.6147 -0.0621  0.2895
16406TIP3    H170709   0.573   4.971  14.532 -0.7218 -3.9782  1.2743
16406TIP3    H270710   0.668   4.950  14.416 -0.9040 -0.2474  0.3169
16407TIP3   OH270711   1.454   2.498   3.150 -0.0367  0.1563 -0.1321
16407TIP3    H170712   1.386   2.466   3.208  1.0167  0.9810  1.6349
16407TIP3    H270713   1.482   2.421   3.101  1.1368 -1.3371  2.6528
16408TIP3   OH270714   2.499   4.236   0.741  0.1397  0.0456  0.3355
16408TIP3    H170715   2.530   4.323   0.717 -1.0569  0.4808  0.2970
16408TIP3    H270716   2.544   4.177   0.680 -1.7522  0.9823 -2.1401
16409TIP3   OH270717   2.893   0.740   3.806  0.0971  0.9213  0.5020
16409TIP3    H170718   2.980   0.728   3.768  0.2689  2.9010  0.1705
16409TIP3    H270719   2.846   0.660   3.784  0.9399  1.0059 -1.8396
16410TIP3   OH270720   2.928   3.410   6.363 -0.3838 -0.1338 -0.4486
16410TIP3    H170721   3.015   3.373   6.349  0.1210  0.8740 -0.0379
16410TIP3    H270722   2.935   3.501   6.335 -1.0420  0.2208  0.4591
16411TIP3   OH270723   0.776   3.833   1.964 -0.0160  0.5982  0.4053
16411TIP3    H170724   0.686   3.855   1.940  0.4680  0.5206 -1.7311
16411TIP3    H270725   0.791   3.878   2.047 -1.2456  2.6345 -0.4065
16412TIP3   OH270726   6.413   1.352  16.608  0.0532 -0.2438 -0.3465
16412TIP3    H170727   6.377   1.418  16.669 -0.3753 -0.8118  0.0304
16412TIP3    H270728   6.459   1.403  16.542  1.4201  0.3530  1.0170
16413TIP3   OH270729   0.412   4.956  12.875  0.1530  0.1429  0.5127
16413TIP3    H170730   0.381   4.865  12.870 -1.0032  0.4269  1.9551
16413TIP3    H270731   0.505   4.951  12.852  0.0812 -1.3932  0.4675
16414TIP3   OH270732   2.850   0.532   0.143  0.5268 -0.1157  0.3618
16414TIP3    H170733   2.801   0.605   0.104 -0.1854 -0.2689  0.9477
16414TIP3    H270734   2.929   0.572   0.179  0.4672  0.2568  0.0832
16415TIP3   OH270735   1.857   5.361   1.131 -0.7169  0.0029  0.6351
16415TIP3    H170736   1.792   5.292   1.141  0.7092 -1.6560 -0.9973
16415TIP3    H270737   1.831   5.408   1.052  0.9594 -1.8161 -1.0978
16416TIP3   OH270738   5.003   5.497   2.688 -0.4109 -0.0510  0.6606
16416TIP3    H170739   4.927   5.533   2.734  0.3185  0.0536  1.8230
16416TIP3    H270740   4.971   5.477   2.600 -1.8394 -0.2319  1.2040
16417TIP3   OH270741   3.819   5.088   2.207  0.3317  0.7897  0.3320
16417TIP3    H170742   3.911   5.116   2.211  0.5207  0.0476  1.6252
16417TIP3    H270743   3.811   5.022   2.276 -0.7888 -0.3146 -0.7927
16418TIP3   OH270744   4.627   2.868   3.384 -0.6378  0.1394 -0.2820
16418TIP3    H170745   4.645   2.793   3.328  1.1020  0.8898 -0.7715
16418TIP3    H270746   4.711   2.890   3.423 -0.9585  2.2341 -0.6458
16419TIP3   OH270747   5.419   6.211   3.511  0.2167  0.0064 -0.0479
16419TIP3    H170748   5.343   6.170   3.553  1.0198 -1.4366  0.0557
16419TIP3    H270749   5.403   6.200   3.417  0.1374  0.0072 -0.0346
16420TIP3   OH270750   5.531   4.898  15.861 -0.3738  0.2925 -0.1785
16420TIP3    H170751   5.576   4.942  15.933 -0.8121 -0.4277  0.5431
16420TIP3    H270752   5.486   4.969  15.814  0.2459  0.8162  0.0030
16421TIP3   OH270753   6.352   6.223  15.763  0.8141 -0.4319  0.1489
16421TIP3    H170754   6.299   6.185  15.693  0.0552 -0.5636  0.7798
16421TIP3    H270755   6.386   6.147  15.810  0.2188 -0.3461  0.7287
16422TIP3   OH270756   6.216   2.310  13.351 -0.6973  0.0177 -0.1179
16422TIP3    H170757   6.186   2.400  13.339  0.2718  0.6917  2.0165
16422TIP3    H270758   6.141   2.264  13.387 -0.7535  0.3442  0.1816
16423TIP3   OH270759   4.333   6.524  15.251  0.1926 -0.2461 -0.1273
16423TIP3    H170760   4.354   6.617  15.239 -1.8879  0.6428  2.2389
16423TIP3    H270761   4.417   6.483  15.270  0.8480  1.7669  1.7325
16424TIP3   OH270762   1.260   6.655  13.159 -0.3647  0.3460  0.4554
16424TIP3    H170763   1.179   6.701  13.181 -0.0509  1.2710 -0.2546
16424TIP3    H270764   1.328   6.722  13.169  0.0360  0.2192 -1.1780
16425TIP3   OH270765   0.008   6.534   5.144  0.2492 -0.3870 -0.5254
16425TIP3    H170766  -0.018   6.511   5.234  1.9031 -1.4120 -0.2603
16425TIP3    H270767  -0.006   6.453   5.094 -1.1364  0.3140 -1.3516
16426TIP3   OH270768   2.392   2.882   5.400  1.0306  0.0045 -0.3156
16426TIP3    H170769   2.451   2.813   5.429 -0.3225 -0.5745  1.2421
16426TIP3    H270770   2.316   2.835   5.364  1.2803  0.7207 -1.8520
16427TIP3   OH270771   6.665   2.301   2.483  0.4362 -0.2923  0.3715
16427TIP3    H170772   6.682   2.379   2.431  2.4937 -1.0769 -0.2709
16427TIP3    H270773   6.570   2.297   2.491  0.2046  1.3821 -0.9433
16428TIP3   OH270774   3.773   2.160  12.097 -0.0305 -0.2207  0.1356
16428TIP3    H170775   3.820   2.236  12.064  1.4181 -0.8932  0.5211
16428TIP3    H270776   3.705   2.143  12.033  0.7620  0.3412 -0.8798
16429TIP3   OH270777   6.317   3.128   0.110  0.5533  0.2405 -0.0569
16429TIP3    H170778   6.274   3.098   0.030  2.0210  1.1902 -1.2733
16429TIP3    H270779   6.263   3.202   0.140  0.1209  0.0275 -0.2984
16430TIP3   OH270780   4.162   3.324  11.366  0.5849 -0.3322 -0.1540
16430TIP3    H170781   4.067   3.330  11.372  0.6329  0.0428  0.2716
16430TIP3    H270782   4.188   3.398  11.311  0.9373  1.9081  2.8137
16431TIP3   OH270783   4.010   1.615   5.030 -0.1734 -0.1616  0.2334
16431TIP3    H170784   4.011   1.555   4.956  0.0556 -2.2739  1.8771
16431TIP3    H270785   3.922   1.605   5.068 -0.2424  0.7953  0.3720
16432TIP3   OH270786   0.046   2.341   6.608 -0.1782  0.5284  0.0168
16432TIP3    H170787   0.050   2.436   6.611  0.7536  0.5480 -1.2248
16432TIP3    H270788  -0.025   2.318   6.669  0.8374  1.8829  1.8176
16433TIP3   OH270789   4.801   4.535   0.582 -0.3262  0.0078  0.4533
16433TIP3    H170790   4.786   4.622   0.545  0.1506 -0.0611  0.0910
16433TIP3    H270791   4.832   4.552   0.671  2.2296  0.3329 -0.4117
16434TIP3   OH270792   4.602   4.098  15.581 -0.2918  0.2488 -0.2589
16434TIP3    H170793   4.662   4.156  15.535 -1.2921  2.1183  0.6763
16434TIP3    H270794   4.515   4.136  15.567 -0.6910  0.6738  2.6962
16435TIP3   OH270795   6.291   0.699   2.822  0.3397  0.1825  0.2742
16435TIP3    H170796   6.223   0.665   2.764 -0.9566  0.7441  1.4009
16435TIP3    H270797   6.315   0.624   2.877 -1.2673  0.5696  1.5913
16436TIP3   OH270798   5.254   2.797   2.555 -0.0645 -0.6436 -0.0650
16436TIP3    H170799   5.343   2.765   2.566  0.8446  0.9475 -2.0911
16436TIP3    H270800   5.220   2.806   2.644  3.0175  1.8687  1.0362
16437TIP3   OH270801   1.012   6.800  11.963  0.2004 -0.0666 -0.0648
16437TIP3    H170802   1.080   6.793  11.896  0.5873 -0.5549  0.3717
16437TIP3    H270803   1.018   6.889  11.995  2.0745 -0.6972  1.4728
16438TIP3   OH270804   3.715   2.702  16.638  0.1575  0.3483  0.6142
16438TIP3    H170805   3.667   2.651  16.705 -1.6485 -0.8017 -1.4268
16438TIP3    H270806   3.788   2.645  16.613 -0.7540 -0.4449 -0.3036
16439TIP3   OH270807   0.158   2.047  12.331 -0.3266  0.1005  0.2125
16439TIP3    H170808   0.242   2.093  12.320  0.0665 -0.7304 -0.3841
16439TIP3    H270809   0.147   1.998  12.250 -0.8650 -0.6477  0.7239
16440TIP3   OH270810   4.162   2.825  11.616  0.4156 -0.2773 -0.0690
16440TIP3    H170811   4.152   2.786  11.703  0.5813  0.7368  0.4114
16440TIP3    H270812   4.223   2.898  11.629 -0.6879  0.7979 -0.7504
16441TIP3   OH270813   6.099   1.518  17.058  0.0286  0.4232  0.2611
16441TIP3    H170814   6.188   1.527  17.091 -0.1941 -1.2632  1.4799
16441TIP3    H270815   6.106   1.459  16.983 -0.0503  0.3683  0.2976
16442TIP3   OH270816   0.141   5.692  11.192 -0.1619 -0.2769 -0.0226
16442TIP3    H170817   0.138   5.693  11.096 -0.8374 -3.5099 -0.1426
16442TIP3    H270818   0.229   5.725  11.213  0.2962 -0.2343 -1.7962
16443TIP3   OH270819   6.536   0.018  12.199  0.2532 -0.1843  0.3694
16443TIP3    H170820   6.483  -0.062  12.192 -0.3868  0.1340  1.3553
16443TIP3    H270821   6.572   0.015  12.288  3.0051 -1.0364 -0.6767
16444TIP3   OH270822   4.209   1.675  11.526  0.1140 -0.0602  0.4324
16444TIP3    H170823   4.122   1.641  11.547  0.6185 -1.9717 -0.3533
16444TIP3    H270824   4.254   1.601  11.485  1.5528  1.3724 -0.7066
16445TIP3   OH270825   0.529   5.754  16.750 -0.1276  0.0414 -0.1750
16445TIP3    H170826   0.495   5.795  16.671 -0.9232  0.7775  0.5280
16445TIP3    H270827   0.577   5.823  16.795 -1.4573  0.2387  1.0068
16446TIP3   OH270828   4.429   1.225   2.433 -0.1352 -0.2964  0.2057
16446TIP3    H170829   4.525   1.234   2.435 -0.3147  2.4211  2.0093
16446TIP3    H270830   4.403   1.271   2.354  0.0027 -0.7787 -0.1274
16447TIP3   OH270831   3.460   2.802  12.018  0.0896 -0.3758  1.0338
16447TIP3    H170832   3.434   2.717  12.054 -0.0097 -0.6699  0.2887
16447TIP3    H270833   3.386   2.860  12.038  0.4515 -0.2832  2.1512
16448TIP3   OH270834   5.234   6.243  12.585 -0.6007 -0.1403 -0.1469
16448TIP3    H170835   5.244   6.336  12.604 -1.2378 -0.1628  0.3168
16448TIP3    H270836   5.324   6.209  12.586 -0.4303  0.3156  0.4519
16449TIP3   OH270837   2.461   1.415  16.951  0.0070  0.1001  0.3436
16449TIP3    H170838   2.535   1.364  16.917 -0.5691  0.0987 -0.9662
16449TIP3    H270839   2.452   1.386  17.042  0.3211 -1.4191 -0.0865
16450TIP3   OH270840   4.663   1.048   5.049 -0.3355  0.0423  0.7069
16450TIP3    H170841   4.580   1.095   5.045  0.2152  0.9543 -0.6471
16450TIP3    H270842   4.727   1.116   5.071  0.2399 -0.4106  0.4425
16451TIP3   OH270843   5.258   2.281   1.169  0.4174 -0.2329 -0.8934
16451TIP3    H170844   5.300   2.261   1.085  0.4737 -0.0649 -0.9070
16451TIP3    H270845   5.253   2.197   1.214  1.5947 -0.1275 -0.5172
16452TIP3   OH270846   0.109   5.895  13.498 -0.5226 -0.0947  0.5951
16452TIP3    H170847   0.168   5.847  13.440 -0.1311  1.3385 -0.2348
16452TIP3    H270848   0.022   5.882  13.461 -0.4738 -0.5257  0.6326
16453TIP3   OH270849   1.744   6.044   2.211 -0.4618  0.6642  0.7508
16453TIP3    H170850   1.824   6.026   2.261 -0.9782  1.1756  1.7950
16453TIP3    H270851   1.682   5.978   2.240 -0.6664  0.7547  0.5208
16454TIP3   OH270852   0.003   0.368  12.031 -0.2132  0.3942 -0.4569
16454TIP3    H170853   0.052   0.287  12.047  0.0150  0.4376 -0.9181
16454TIP3    H270854  -0.088   0.340  12.023 -0.1817  0.2297 -0.2289
16455TIP3   OH270855   1.442   3.849  16.668  0.3272  0.2262  0.1725
16455TIP3    H170856   1.377   3.904  16.710 -1.4632 -2.1835  0.7886
16455TIP3    H270857   1.441   3.768  16.718  0.7816 -1.4145 -2.2755
16456TIP3   OH270858   5.363   0.364   3.107  0.8806  0.5325 -0.4891
16456TIP3    H170859   5.328   0.453   3.110  0.2640  0.3966 -2.4598
16456TIP3    H270860   5.307   0.314   3.167  1.4746  1.5078  0.9330
16457TIP3   OH270861   5.618   2.490   3.103 -0.2874  0.5101 -0.2818
16457TIP3    H170862   5.624   2.575   3.148 -0.1804  0.7227 -0.6901
16457TIP3    H270863   5.689   2.493   3.038  0.5771 -0.4351  0.5920
16458TIP3   OH270864   4.498   2.341  17.209  0.3379  0.0414 -0.6402
16458TIP3    H170865   4.481   2.289  17.130 -0.2426  1.8265 -1.7510
16458TIP3    H270866   4.458   2.426  17.191  0.9266  0.7706  1.2546
16459TIP3   OH270867   4.803   6.119  11.153  0.2811 -0.7625 -0.4496
16459TIP3    H170868   4.838   6.037  11.187  2.7246  1.1421  2.0952
16459TIP3    H270869   4.860   6.141  11.079  0.4459 -0.7260 -0.3115
16460TIP3   OH270870   5.116   0.795   4.860 -0.0969 -0.3503  0.0648
16460TIP3    H170871   5.028   0.757   4.863 -0.3827  0.1363 -1.4954
16460TIP3    H270872   5.114   0.863   4.927  0.4837 -3.0155  3.0550
16461TIP3   OH270873   0.888   0.382   0.001 -0.0988  0.2252  0.1516
16461TIP3    H170874   0.882   0.292   0.031 -0.5605 -0.5592 -2.0572
16461TIP3    H270875   0.874   0.435   0.079 -1.8397 -1.5983  1.1734
16462TIP3   OH270876   2.079   1.272  11.688 -0.0923 -0.0461  0.0052
16462TIP3    H170877   1.989   1.267  11.657 -0.8040  1.3232  1.6951
16462TIP3    H270878   2.126   1.209  11.634 -1.6057  0.7486 -2.3983
16463TIP3   OH270879   1.391   0.678   2.049 -0.3118 -0.1321  0.1246
16463TIP3    H170880   1.351   0.654   2.133  0.4730 -1.4385  0.1655
16463TIP3    H270881   1.485   0.680   2.068 -0.1409 -0.2673 -0.6804
16464TIP3   OH270882   3.148   3.574   3.172 -0.5668 -0.0638 -0.6338
16464TIP3    H170883   3.125   3.667   3.166  1.0317  0.6278  2.1773
16464TIP3    H270884   3.105   3.543   3.252  1.0468 -1.0042 -0.0862
16465TIP3   OH270885   3.087   0.951   4.691 -0.2372 -0.5868 -0.3093
16465TIP3    H170886   3.179   0.967   4.710 -0.2294 -0.1244 -0.7156
16465TIP3    H270887   3.056   0.898   4.765  0.5508 -1.4481 -0.5741
16466TIP3   OH270888   5.149   6.332   0.075  0.2604  0.1895  0.6472
16466TIP3    H170889   5.063   6.296   0.094 -0.0144  0.4830 -0.0149
16466TIP3    H270890   5.154   6.412   0.128  1.4043 -1.4332  3.1817
16467TIP3   OH270891   5.287   3.880  13.307  0.1170 -0.2291 -0.6537
16467TIP3    H170892   5.313   3.810  13.367 -0.8282 -0.1828 -0.1711
16467TIP3    H270893   5.240   3.943  13.362  2.1779  1.5394 -0.7981
16468TIP3   OH270894   0.947   1.531   2.892  0.1360  0.5202  0.3078
16468TIP3    H170895   0.878   1.495   2.837 -1.0207  1.1545  1.2809
16468TIP3    H270896   0.998   1.587   2.833 -0.4887  0.4427 -0.3202
16469TIP3   OH270897   1.840   4.528   5.314  0.3497 -0.3340 -1.2429
16469TIP3    H170898   1.843   4.435   5.339  0.9474  0.1745  0.7178
16469TIP3    H270899   1.886   4.532   5.231  3.7699 -1.2991  0.4183
16470TIP3   OH270900   3.603   1.401  14.383  0.1714  0.4544 -0.6850
16470TIP3    H170901   3.566   1.367  14.302 -2.8067  0.9325  0.3695
16470TIP3    H270902   3.547   1.475  14.406  0.9702  0.3890  1.7642
16471TIP3   OH270903   3.392   5.124  14.618 -0.0418 -0.3281  0.5548
16471TIP3    H170904   3.413   5.128  14.525 -0.9970 -0.4453  0.3246
16471TIP3    H270905   3.445   5.052  14.651  1.1380  0.4189  0.3378
16472TIP3   OH270906   5.900   4.757   1.023 -0.0070  0.1191 -0.3618
16472TIP3    H170907   5.903   4.767   1.118 -0.5671  0.3066 -0.3575
16472TIP3    H270908   5.808   4.774   1.000  0.2595  0.7525 -1.0076
16473TIP3   OH270909   2.860   2.168   5.636  0.3935  0.4886  0.4802
16473TIP3    H170910   2.822   2.082   5.653 -0.1313  0.4600 -0.7533
16473TIP3    H270911   2.927   2.178   5.704 -0.7550 -0.1103  1.7442
16474TIP3   OH270912   3.650   3.966  17.146  0.5303  0.6724 -0.1195
16474TIP3    H170913   3.621   3.883  17.106 -0.6748  0.6961  0.6626
16474TIP3    H270914   3.734   3.984  17.104  0.0200 -0.0809 -1.5373
16475TIP3   OH270915   5.652   3.590  16.927  0.3637 -0.2214  0.3218
16475TIP3    H170916   5.587   3.568  16.994 -0.7052  0.3359 -0.4943
16475TIP3    H270917   5.600   3.615  16.850  1.5097  1.7644  0.1173
16476TIP3   OH270918   4.259   5.743   4.893 -0.6449 -0.3315 -0.1048
16476TIP3    H170919   4.300   5.827   4.913 -1.3856  0.2140 -0.8612
16476TIP3    H270920   4.322   5.678   4.925 -0.4582  0.4969  1.2915
16477TIP3   OH270921   2.252   5.682   6.315 -0.6338  0.4717  0.5656
16477TIP3    H170922   2.251   5.774   6.289  2.3467  0.3266 -0.4136
16477TIP3    H270923   2.271   5.634   6.235 -0.8371 -0.8914  1.2992
16478TIP3   OH270924   5.214   0.736   5.466 -0.6627 -0.4489  0.6483
16478TIP3    H170925   5.260   0.819   5.459  0.2290 -0.7673  2.3365
16478TIP3    H270926   5.157   0.746   5.542  0.7031 -1.9347  1.9155
16479TIP3   OH270927   5.681   2.179   5.514 -0.3401  0.2499  0.2792
16479TIP3    H170928   5.693   2.181   5.609 -0.5608  0.6134  0.3035
16479TIP3    H270929   5.600   2.130   5.502  0.2992 -0.8007  0.2099
16480TIP3   OH270930   5.876   0.953  12.794  0.0620 -0.4836  0.4862
16480TIP3    H170931   5.859   0.955  12.699  0.9754 -0.3195  0.3169
16480TIP3    H270932   5.919   1.037  12.812  1.0864 -1.0565  0.8035
16481TIP3   OH270933   5.666   5.106  13.993  0.1740 -0.4420 -0.1452
16481TIP3    H170934   5.686   5.024  14.039 -1.7899 -0.8018  0.1194
16481TIP3    H270935   5.731   5.168  14.026  1.3587 -1.7208  0.0618
16482TIP3   OH270936   2.150   1.457  16.817  0.0998  0.1394 -0.2799
16482TIP3    H170937   2.125   1.459  16.909 -0.7742 -1.2494 -0.4650
16482TIP3    H270938   2.210   1.383  16.810  1.7233  1.4140 -0.4869
16483TIP3   OH270939   0.231   1.050   5.822  0.0755  0.2215  0.9711
16483TIP3    H170940   0.250   1.144   5.816  1.2041  0.2454  3.4556
16483TIP3    H270941   0.189   1.039   5.907 -1.5256 -1.3519  0.0345
16484TIP3   OH270942   2.788   3.364   4.727  0.4246  0.6387  0.0265
16484TIP3    H170943   2.780   3.268   4.728 -1.2773  0.7144 -1.0137
16484TIP3    H270944   2.742   3.392   4.806 -1.1399  0.6527 -0.8469
16485TIP3   OH270945   4.810   2.418  13.938  0.1369 -0.2293  0.6598
16485TIP3    H170946   4.844   2.365  13.865 -0.7071 -2.1413  1.5730
16485TIP3    H270947   4.810   2.507  13.904 -0.1742 -1.0308 -1.6960
16486TIP3   OH270948   2.187   6.546  12.116  0.3922  0.2903 -0.3118
16486TIP3    H170949   2.195   6.473  12.056 -0.4765 -1.3736  1.4680
16486TIP3    H270950   2.258   6.534  12.179 -0.3157  0.4196  0.5321
16487TIP3   OH270951   2.337   5.791   4.580  0.0495  0.2992 -0.4900
16487TIP3    H170952   2.255   5.743   4.572 -0.1284  0.4599  0.2712
16487TIP3    H270953   2.336   5.854   4.508  0.0879 -0.5413 -1.2321
16488TIP3   OH270954   6.721   6.254   5.539  0.3936  0.1591  0.4952
16488TIP3    H170955   6.664   6.226   5.612  0.3258 -0.3471  0.2521
16488TIP3    H270956   6.809   6.251   5.575  0.2674  1.0482  0.9074
16489TIP3   OH270957   0.492   6.039   3.783 -0.4834 -0.0287 -0.0905
16489TIP3    H170958   0.557   6.093   3.738 -0.7940 -0.0847 -0.6197
16489TIP3    H270959   0.429   6.017   3.715  0.4116 -2.3091 -0.2685
16490TIP3   OH270960   4.026   5.663  12.835  0.6182  0.1069 -0.2350
16490TIP3    H170961   4.056   5.656  12.926  2.9489  1.8783 -0.7790
16490TIP3    H270962   3.980   5.747  12.832  1.0014  0.3001 -0.7842
16491TIP3   OH270963   4.690   4.724  13.138  0.1482 -0.5210 -0.1596
16491TIP3    H170964   4.683   4.632  13.163 -0.1413 -0.4760 -0.0770
16491TIP3    H270965   4.731   4.722  13.051  1.2172 -0.6753  0.3281
16492TIP3   OH270966   2.679   5.456  13.422  0.3102  0.1972  0.2373
16492TIP3    H170967   2.677   5.540  13.468 -1.7176  0.8436 -0.9206
16492TIP3    H270968   2.718   5.476  13.337 -0.8072  0.1424 -0.3050
16493TIP3   OH270969   0.667   2.546  12.342 -0.3366 -1.0406  0.1639
16493TIP3    H170970   0.670   2.636  12.376 -0.9616 -1.8066  2.4484
16493TIP3    H270971   0.758   2.525  12.321 -0.1279 -0.0293  0.0229
16494TIP3   OH270972   4.182   4.863  11.699  0.0841 -0.4359  0.4135
16494TIP3    H170973   4.096   4.872  11.740 -0.5509 -0.1742 -0.9127
16494TIP3    H270974   4.234   4.814  11.763 -0.5680  0.7316  1.9100
16495TIP3   OH270975   5.521   4.348  13.419 -0.2765 -0.3965 -0.3384
16495TIP3    H170976   5.554   4.287  13.353 -1.8241 -1.2309 -0.3667
16495TIP3    H270977   5.445   4.389  13.378 -0.0668  0.5709  0.1989
16496TIP3   OH270978   6.008   4.457   2.783 -0.0772 -0.5589  0.0429
16496TIP3    H170979   6.038   4.427   2.698  0.4249  1.6070 -0.6059
16496TIP3    H270980   6.084   4.503   2.820 -1.3276  1.6797  0.0342
16497TIP3   OH270981   0.887   6.416   5.293 -0.1491 -0.0937 -0.9059
16497TIP3    H170982   0.959   6.465   5.335 -0.9199  2.4365 -2.3130
16497TIP3    H270983   0.819   6.413   5.360  0.9605 -2.0337  0.2502
16498TIP3   OH270984   4.332   5.348  16.727 -0.6078 -0.1716 -0.2352
16498TIP3    H170985   4.313   5.266  16.771  2.2597 -2.1454 -2.3051
16498TIP3    H270986   4.329   5.326  16.633  0.7971  1.9030 -0.8357
16499TIP3   OH270987   1.256   1.592  16.412  0.1534  0.4749 -0.3088
16499TIP3    H170988   1.230   1.567  16.501 -0.1892 -1.1446 -0.8356
16499TIP3    H270989   1.345   1.627  16.423  1.2882 -2.3433  0.3697
16500TIP3   OH270990   5.622   1.597  15.537  0.8870 -0.1276  0.2412
16500TIP3    H170991   5.576   1.584  15.620 -0.8282  1.0649 -0.4742
16500TIP3    H270992   5.623   1.511  15.496 -0.3929 -0.2621  0.4565
16501TIP3   OH270993   6.028   6.810   2.440  0.3374 -0.0811  0.5494
16501TIP3    H170994   6.029   6.836   2.348  0.3362 -1.4266  0.1417
16501TIP3    H270995   5.939   6.777   2.455  0.3301  0.1538  1.0453
16502TIP3   OH270996   1.452   0.462  13.663  0.1615  0.3379  0.4038
16502TIP3    H170997   1.473   0.555  13.652 -1.9010  0.6912 -1.1745
16502TIP3    H270998   1.493   0.419  13.588  0.5303  0.0739  0.7546
16503TIP3   OH270999   1.022   2.446   4.128 -0.5031  0.5837  0.0848
16503TIP3    H171000   0.978   2.530   4.144 -1.7108  0.2217 -1.1526
16503TIP3    H271001   1.020   2.402   4.213 -2.2934  0.7131  0.1392
16504TIP3   OH271002   1.375   6.709  13.688 -0.9079  0.3013 -0.7692
16504TIP3    H171003   1.386   6.614  13.681  2.1537  0.5132 -0.1282
16504TIP3    H271004   1.335   6.722  13.774 -1.2859 -0.3877 -0.8304
16505TIP3   OH271005   5.904   3.110   2.094  0.7301  0.5142  0.1313
16505TIP3    H171006   5.870   3.074   2.012 -0.4155  0.5575  0.5639
16505TIP3    H271007   5.930   3.033   2.145 -1.0175  0.3037  0.7564
16506TIP3   OH271008   3.613   6.007  12.124  0.1812 -0.7407 -0.1527
16506TIP3    H171009   3.673   5.943  12.162  1.1430 -0.5014 -1.2155
16506TIP3    H271010   3.642   6.092  12.160 -0.9676 -0.8384  1.0995
16507TIP3   OH271011   1.486   3.762   4.008  0.6815 -0.0629  0.2572
16507TIP3    H171012   1.528   3.676   3.995  1.1951  0.1511  0.4635
16507TIP3    H271013   1.408   3.743   4.060  1.3161 -0.2926  1.1429
16508TIP3   OH271014   5.390   2.664   1.685  0.0853  0.2277  0.1800
16508TIP3    H171015   5.418   2.654   1.776 -1.0752 -2.1829  0.3634
16508TIP3    H271016   5.445   2.602   1.637  0.9023  1.7032 -0.8556
16509TIP3   OH271017   2.686   0.002   1.983  0.1310 -0.2306 -0.0419
16509TIP3    H171018   2.778  -0.026   1.982  0.2343  0.0893  0.2830
16509TIP3    H271019   2.690   0.095   2.004 -0.3364 -0.4872  1.2676
16510TIP3   OH271020   1.517   2.616   3.950 -0.0123  0.0831 -0.2173
16510TIP3    H171021   1.445   2.620   3.887 -0.4930  0.1195  0.3335
16510TIP3    H271022   1.490   2.549   4.013  1.4920 -1.6531 -1.2994
16511TIP3   OH271023   4.432   0.991   5.293 -0.1214 -0.2624  0.0035
16511TIP3    H171024   4.503   1.016   5.234  0.1157 -1.3221 -0.1813
16511TIP3    H271025   4.428   1.061   5.357  1.9583 -0.7962  0.7772
16512TIP3   OH271026   1.869   5.991  13.124  0.9887  0.0228  0.3621
16512TIP3    H171027   1.831   5.967  13.039 -0.7043  1.4601  0.6627
16512TIP3    H271028   1.945   6.044  13.102  0.2822  0.8010 -0.3015
16513TIP3   OH271029   2.863   0.239   2.215  0.0187  0.3665 -0.4459
16513TIP3    H171030   2.909   0.322   2.223  0.2006  0.3115 -0.8828
16513TIP3    H271031   2.774   0.258   2.242 -0.3327  1.0676 -2.0038
16514TIP3   OH271032   6.370   3.051  15.783 -0.0018  0.2885  0.1892
16514TIP3    H171033   6.409   3.080  15.865 -0.7220  0.2577  0.5552
16514TIP3    H271034   6.358   3.131  15.732 -1.2262  0.5719  0.8641
16515TIP3   OH271035   2.055   6.261  12.907 -0.4668 -0.0155 -0.2265
16515TIP3    H171036   2.035   6.280  12.998 -0.7412 -0.7419 -0.1236
16515TIP3    H271037   2.037   6.343  12.860  1.5518  0.9656  0.6220
16516TIP3   OH271038   1.693   6.005  16.771  0.6037  0.2272  0.2902
16516TIP3    H171039   1.729   5.936  16.715  1.8727  0.2160  1.0748
16516TIP3    H271040   1.609   6.028  16.730  0.8645 -0.7168 -0.8332
16517TIP3   OH271041   0.461   0.370  14.730 -0.5441 -0.1186  0.4796
16517TIP3    H171042   0.543   0.371  14.681 -0.7309 -0.9717  0.1409
16517TIP3    H271043   0.432   0.279  14.728 -0.6325 -0.1649  2.0462
16518TIP3   OH271044   3.981   2.219   5.081  0.4243 -0.6245  0.0110
16518TIP3    H171045   4.022   2.194   4.998 -1.2087 -0.4864 -0.8885
16518TIP3    H271046   3.995   2.314   5.087 -0.2953 -0.4639 -0.6309
16519TIP3   OH271047   5.699   1.557  13.773 -0.0450 -0.5013  0.2633
16519TIP3    H171048   5.690   1.571  13.867  3.5811  1.4094  0.5115
16519TIP3    H271049   5.719   1.464  13.764  2.2867 -0.2239  1.7908
16520TIP3   OH271050   5.329   0.597   5.041  0.1901 -0.0628  0.1698
16520TIP3    H171051   5.400   0.658   5.022  1.2897 -1.0873  0.8250
16520TIP3    H271052   5.252   0.637   5.003  1.2593  0.7027 -1.2837
16521TIP3   OH271053   0.242   4.112   0.157 -0.2041  0.4724  0.7591
16521TIP3    H171054   0.327   4.147   0.182 -1.0101  0.5739  3.8722
16521TIP3    H271055   0.255   4.017   0.154  0.7676  0.6097 -2.4517
16522TIP3   OH271056   1.962   6.394   0.469  0.5034 -0.1690 -0.1294
16522TIP3    H171057   1.940   6.437   0.386  2.7213 -0.2631 -0.8297
16522TIP3    H271058   1.921   6.308   0.463 -0.8664  0.4799 -0.3259
16523TIP3   OH271059   3.932   4.485  12.578 -0.5664  0.0378 -0.8265
16523TIP3    H171060   3.957   4.564  12.626  0.2623 -0.3026 -0.6822
16523TIP3    H271061   3.986   4.415  12.615 -2.0494 -0.8316 -0.1977
16524TIP3   OH271062   6.164   6.554  12.436 -0.5381  0.1887 -0.2402
16524TIP3    H171063   6.105   6.550  12.510 -0.9740 -0.5488 -0.6271
16524TIP3    H271064   6.192   6.464  12.421 -0.1804  0.3763 -0.7583
16525TIP3   OH271065   0.327   3.136  16.501  0.2003 -0.4753  0.0620
16525TIP3    H171066   0.291   3.142  16.412  0.7850 -0.2932 -0.1701
16525TIP3    H271067   0.421   3.151  16.490  0.0059  1.7808  0.9660
16526TIP3   OH271068   4.441   1.435   1.249  0.1778  0.1125 -0.1743
16526TIP3    H171069   4.429   1.394   1.163 -0.3427  0.5847 -0.3329
16526TIP3    H271070   4.499   1.375   1.296  0.6718 -0.0207 -0.9407
16527TIP3   OH271071   4.060   0.345  15.649  0.5431 -0.3325 -0.1917
16527TIP3    H171072   4.137   0.306  15.608  1.6711  0.9854  0.5700
16527TIP3    H271073   4.094   0.424  15.692 -0.7287 -1.1264  2.4401
16528TIP3   OH271074   1.966   5.044   5.008  0.2667  0.2392 -0.1063
16528TIP3    H171075   2.020   5.120   4.987 -0.2250  0.7090  0.2935
16528TIP3    H271076   2.025   4.983   5.052  0.6994  0.3198 -0.5671
16529TIP3   OH271077   1.723   4.237  16.776  0.4599 -0.5167  0.1921
16529TIP3    H171078   1.747   4.154  16.817  1.4097 -0.7357 -0.7793
16529TIP3    H271079   1.789   4.299  16.807  0.8497 -0.5572 -0.5319
16530TIP3   OH271080   4.914   3.449  16.670  0.5225  0.2127 -0.1650
16530TIP3    H171081   4.921   3.474  16.762  0.6100  0.3902 -0.2187
16530TIP3    H271082   4.884   3.358  16.672  1.0598  0.0343  0.0492
16531TIP3   OH271083   1.292   2.467  12.011 -0.4001  0.1628  0.3018
16531TIP3    H171084   1.297   2.552  12.056  1.3453  0.6063 -0.6333
16531TIP3    H271085   1.334   2.483  11.926  0.0007 -1.6459  0.1246
16532TIP3   OH271086   5.318   4.785   1.113 -0.6032 -0.1623  0.0911
16532TIP3    H171087   5.269   4.798   1.032  1.4536 -2.0123 -1.5982
16532TIP3    H271088   5.406   4.815   1.093  0.0691 -1.0794  1.4961
16533TIP3   OH271089   1.919   0.700   0.817 -0.3007 -0.0394  0.1442
16533TIP3    H171090   2.009   0.711   0.786 -0.3756 -1.6460 -0.7228
16533TIP3    H271091   1.903   0.779   0.869  1.7117  0.1475  0.5970
16534TIP3   OH271092   5.335   4.062   4.547  0.4300  0.2234 -0.0274
16534TIP3    H171093   5.394   4.137   4.552  0.4248  0.3230 -1.2303
16534TIP3    H271094   5.270   4.087   4.482  0.5137 -0.8748 -0.5562
16535TIP3   OH271095   3.427   4.730  13.873 -0.3528 -0.3325  0.5130
16535TIP3    H171096   3.504   4.744  13.817  0.2846 -0.6063  1.3106
16535TIP3    H271097   3.355   4.722  13.811 -0.3544  3.3806 -0.2227
16536TIP3   OH271098   3.353   0.993  13.004  0.2677  0.2287  0.3143
16536TIP3    H171099   3.366   1.027  13.093 -0.8384 -0.5939  0.8086
16536TIP3    H271100   3.418   1.039  12.951  1.4791  0.1772  1.6884
16537TIP3   OH271101   4.808   3.972   4.087  0.3312  0.1783 -0.5058
16537TIP3    H171102   4.809   4.062   4.118 -0.6318 -0.7721  2.6945
16537TIP3    H271103   4.884   3.931   4.130 -1.3270 -1.3248  1.2103
16538TIP3   OH271104   6.142   6.486   4.835  0.1423  0.4498 -0.3082
16538TIP3    H171105   6.219   6.436   4.808  0.3347  0.8642 -0.5420
16538TIP3    H271106   6.074   6.420   4.845  0.4949  0.0914 -0.2193
16539TIP3   OH271107   3.817   1.343  13.508  0.7504 -0.0199 -0.4411
16539TIP3    H171108   3.778   1.271  13.557 -1.2005  1.3319  0.1594
16539TIP3    H271109   3.796   1.421  13.560  3.7355  0.9175 -0.4974
16540TIP3   OH271110   3.967   2.747  17.125  0.0716  0.0747  0.5643
16540TIP3    H171111   3.915   2.796  17.189 -1.1214  0.4230 -0.6390
16540TIP3    H271112   3.917   2.666  17.112 -0.5080  0.6478 -1.0064
16541TIP3   OH271113   6.351   4.542   2.325 -0.6225 -0.2118  0.3499
16541TIP3    H171114   6.420   4.476   2.336  0.6885  0.9156 -0.6728
16541TIP3    H271115   6.390   4.607   2.267 -2.4725  0.6285 -0.0223
16542TIP3   OH271116   6.129   3.080  14.924  0.4007 -0.1272  0.1771
16542TIP3    H171117   6.086   3.140  14.985  0.8286 -0.2193  0.5781
16542TIP3    H271118   6.097   3.105  14.838 -0.5664 -0.2866  0.4804
16543TIP3   OH271119   4.655   4.857  12.018  0.5527  0.4831 -0.0765
16543TIP3    H171120   4.743   4.820  12.026  0.6840  0.7105 -0.4426
16543TIP3    H271121   4.651   4.925  12.086  0.3010 -0.2138  0.6167
16544TIP3   OH271122   5.781   1.805   6.018  0.7275 -0.7273 -0.0069
16544TIP3    H171123   5.689   1.778   6.014  0.3719  0.3921  0.1554
16544TIP3    H271124   5.785   1.885   5.965  1.5431 -0.5908  0.2411
16545TIP3   OH271125   1.767   4.618  11.611 -0.3046  0.1225  0.0978
16545TIP3    H171126   1.772   4.591  11.519  0.3855 -0.5409  0.3172
16545TIP3    H271127   1.698   4.564  11.649  0.2145 -0.4595  0.2372
16546TIP3   OH271128   4.039   5.517   0.929  0.2539 -0.0762 -0.1729
16546TIP3    H171129   3.975   5.552   0.991 -0.7664  3.5152 -2.8899
16546TIP3    H271130   4.003   5.431   0.903 -0.0616 -0.9703  2.8764
16547TIP3   OH271131   1.075   3.189   1.681  0.0896  0.8812  0.1412
16547TIP3    H171132   1.130   3.266   1.668 -1.0704  2.0635  1.8290
16547TIP3    H271133   1.047   3.194   1.772  1.7638 -2.8144  1.0393
16548TIP3   OH271134   3.841   1.423   3.195 -0.1891  0.7054 -0.6765
16548TIP3    H171135   3.905   1.428   3.124 -0.1777  1.2523 -0.6330
16548TIP3    H271136   3.771   1.368   3.161 -0.0405  0.7136 -0.9982
16549TIP3   OH271137   5.273   4.466  14.411  0.1314  0.4261 -0.5491
16549TIP3    H171138   5.198   4.483  14.354 -1.0621 -1.6983  0.2534
16549TIP3    H271139   5.335   4.418  14.356 -1.5399 -2.7163  0.1000
16550TIP3   OH271140   2.207   6.498  15.832  0.1071  0.0283  0.0435
16550TIP3    H171141   2.151   6.575  15.833  0.3225  0.2498 -1.9493
16550TIP3    H271142   2.150   6.426  15.806  0.3319 -0.1046 -0.0884
16551TIP3   OH271143   1.008   0.334  14.222 -0.1277  0.0155  0.0207
16551TIP3    H171144   1.039   0.293  14.303 -0.8818 -0.6161  0.0084
16551TIP3    H271145   0.913   0.324  14.225 -0.0629 -2.4662 -2.1584
16552TIP3   OH271146   4.922   2.646  10.384  0.2703 -0.2266  0.2272
16552TIP3    H171147   4.832   2.621  10.366  0.3314 -0.6664  0.5232
16552TIP3    H271148   4.915   2.730  10.430  0.0041 -0.3269  0.3699
16553TIP3   OH271149   4.156   3.545   1.177 -0.6772  0.0449 -0.6256
16553TIP3    H171150   4.132   3.456   1.150  2.1363 -0.6818 -1.0650
16553TIP3    H271151   4.116   3.554   1.264  0.4686 -2.4469  0.2901
16554TIP3   OH271152   4.822   1.410   6.032 -0.1221  0.0242 -0.6946
16554TIP3    H171153   4.905   1.456   6.019  0.5467 -0.7547  0.5526
16554TIP3    H271154   4.821   1.342   5.965  0.3937 -0.1429 -0.5371
16555TIP3   OH271155   1.844   1.945  15.345 -0.1899  0.0342  0.3891
16555TIP3    H171156   1.915   1.972  15.403  0.6534  0.4940 -0.8173
16555TIP3    H271157   1.876   1.964  15.257 -0.9963 -1.6643 -0.3131
16556TIP3   OH271158   4.266   2.761   2.722  0.2249  0.1141 -0.0174
16556TIP3    H171159   4.315   2.821   2.777  3.2559 -3.2021  1.3401
16556TIP3    H271160   4.306   2.769   2.636  0.0902  0.5786 -0.0377
16557TIP3   OH271161   3.885   4.833   6.404 -0.4738  0.2507  0.3315
16557TIP3    H171162   3.931   4.903   6.357  0.1488  0.8680  1.7857
16557TIP3    H271163   3.857   4.874   6.486 -1.1586 -0.9013  0.6977
16558TIP3   OH271164   6.661   6.515   1.690  0.1011  0.8474 -1.0298
16558TIP3    H171165   6.616   6.582   1.741  0.3875  1.2121 -1.2454
16558TIP3    H271166   6.591   6.471   1.641 -0.7431 -2.0606  2.4073
16559TIP3   OH271167   0.900   0.539   2.345 -0.2739  0.1459 -0.2130
16559TIP3    H171168   0.923   0.480   2.417  1.4261 -0.6869 -1.3514
16559TIP3    H271169   0.826   0.497   2.301  0.6441 -0.9566 -0.7492
16560TIP3   OH271170   0.445   1.673   0.797 -0.2513  0.1522  0.5304
16560TIP3    H171171   0.380   1.624   0.848  0.4916 -0.3851  0.9916
16560TIP3    H271172   0.447   1.760   0.837  0.0483 -0.1478  1.1867
16561TIP3   OH271173   1.026   6.496  13.448  0.5514  0.0131 -0.0815
16561TIP3    H171174   1.022   6.571  13.508  0.3528 -0.8146  0.9740
16561TIP3    H271175   1.051   6.423  13.504 -1.6572 -1.2192 -0.5974
16562TIP3   OH271176   6.031   1.834   1.410 -0.1926 -0.3444  0.2742
16562TIP3    H171177   6.039   1.927   1.430  1.2130 -0.0412 -1.4222
16562TIP3    H271178   5.992   1.832   1.323 -0.5157 -1.3712  0.4303
16563TIP3   OH271179   5.584   5.904  15.991  0.4279 -0.8588 -0.6890
16563TIP3    H171180   5.581   5.909  15.896  1.6829  0.3599 -0.6963
16563TIP3    H271181   5.672   5.869  16.011  0.0114 -1.5486  0.0198
16564TIP3   OH271182   3.302   0.047   3.060  0.0377  0.0503  0.1514
16564TIP3    H171183   3.315   0.140   3.076 -0.5805  0.1777 -0.0603
16564TIP3    H271184   3.297   0.038   2.965  2.0007 -0.4759  0.0598
16565TIP3   OH271185   4.662   3.866  15.119  0.5710 -0.4186 -0.7120
16565TIP3    H171186   4.696   3.915  15.194 -0.1161  0.9295 -1.2455
16565TIP3    H271187   4.567   3.864  15.134  0.3147  0.7474 -2.0190
16566TIP3   OH271188   0.329   4.530  15.735 -0.8935  0.1363 -0.1875
16566TIP3    H171189   0.306   4.551  15.825  0.5870  1.2625 -0.0355
16566TIP3    H271190   0.382   4.604  15.706  4.0306 -2.7798  0.1008
16567TIP3   OH271191   5.871   2.980  13.745  0.8152  0.1851 -0.1278
16567TIP3    H171192   5.832   3.059  13.781  0.9169 -0.8601  2.5640
16567TIP3    H271193   5.801   2.940  13.692  0.2785  1.3134 -0.2913
16568TIP3   OH271194   0.161   6.728   0.821 -0.2330  0.4070 -0.1984
16568TIP3    H171195   0.240   6.674   0.822 -0.5296 -0.0492  1.5942
16568TIP3    H271196   0.192   6.815   0.844  0.2675  1.1638 -3.2262
16569TIP3   OH271197   6.424   3.156   0.496 -0.0530  0.5568  0.1294
16569TIP3    H171198   6.484   3.109   0.555  1.8256  1.3306 -1.0865
16569TIP3    H271199   6.479   3.220   0.452 -1.4429  0.2353 -2.2387
16570TIP3   OH271200   0.961   2.730  14.134 -0.0574 -0.3824 -0.2973
16570TIP3    H171201   1.040   2.678  14.145  0.3793  0.3363 -0.0011
16570TIP3    H271202   0.895   2.667  14.104 -0.0620 -1.4952  1.8559
16571TIP3   OH271203   2.981   1.343  13.716 -0.2226  0.2778 -0.2122
16571TIP3    H171204   2.907   1.340  13.656  0.2723  1.8916 -0.9578
16571TIP3    H271205   3.039   1.273  13.687 -1.9802 -1.9631  1.2251
16572TIP3   OH271206   1.685   5.240   2.175  0.3907  0.6318 -0.0976
16572TIP3    H171207   1.672   5.269   2.084  0.3793 -1.8298 -0.9429
16572TIP3    H271208   1.763   5.287   2.204  0.9767  0.7212 -1.7182
16573TIP3   OH271209   4.020   3.132  15.865  0.5779  0.2693 -0.2646
16573TIP3    H171210   3.993   3.120  15.774 -0.8212 -0.3305  0.2084
16573TIP3    H271211   3.938   3.132  15.915  1.0535  3.2338  0.7392
16574TIP3   OH271212   0.618   5.809   3.578 -0.2038  0.2135  0.5290
16574TIP3    H171213   0.596   5.789   3.487 -1.3358  1.9059  0.3727
16574TIP3    H271214   0.580   5.738   3.629  1.8777 -1.6643 -0.3695
16575TIP3   OH271215   4.796   5.150   2.748 -0.1604  0.1603  0.3384
16575TIP3    H171216   4.883   5.186   2.767  1.5716 -3.2558 -0.4520
16575TIP3    H271217   4.775   5.183   2.660  0.5925  0.5373  0.2932
16576TIP3   OH271218   4.616   4.235  11.186 -0.1162  0.2012 -0.0016
16576TIP3    H171219   4.612   4.143  11.213 -2.7892 -0.0804 -1.0767
16576TIP3    H271220   4.682   4.236  11.117  0.8041 -0.6522  0.8274
16577TIP3   OH271221   0.947   4.308   0.689 -0.3932 -0.1166 -0.4252
16577TIP3    H171222   0.889   4.235   0.666  0.4935 -0.5191 -1.4362
16577TIP3    H271223   0.890   4.370   0.734 -1.0359 -1.7533  1.1630
16578TIP3   OH271224   5.906   6.721   5.050 -0.2614 -0.0901  0.0428
16578TIP3    H171225   5.824   6.673   5.062 -1.6711  1.6257 -1.9144
16578TIP3    H271226   5.940   6.689   4.966  0.8489 -0.4118  0.5925
16579TIP3   OH271227   5.932   1.644  15.331  0.1946  0.3114 -0.5568
16579TIP3    H171228   5.924   1.556  15.294 -0.7377  0.4677 -0.7356
16579TIP3    H271229   6.022   1.670  15.309  0.0928 -0.1202 -1.5594
16580TIP3   OH271230   5.170   1.545  13.546  0.1261  0.0366  0.0086
16580TIP3    H171231   5.152   1.573  13.456  0.6673 -0.7798 -0.3610
16580TIP3    H271232   5.096   1.489  13.568  0.7536 -1.0033 -0.4855
16581TIP3   OH271233   3.435   2.263   0.276 -0.4676  0.1308 -0.0302
16581TIP3    H171234   3.440   2.253   0.181 -0.4305 -0.2665  0.0105
16581TIP3    H271235   3.521   2.295   0.302 -0.9904  1.8671 -0.3099
16582TIP3   OH271236   3.059   0.271  12.280  0.2942 -0.2837  0.0330
16582TIP3    H171237   3.016   0.266  12.194 -1.6019  0.8293  0.8468
16582TIP3    H271238   2.986   0.272  12.343  1.6307 -1.0098  1.6774
16583TIP3   OH271239   0.769   5.420  14.844  0.2783  0.4825  0.5675
16583TIP3    H171240   0.846   5.442  14.791  0.5763  1.8191  1.4873
16583TIP3    H271241   0.801   5.357  14.909 -0.1248 -1.2831 -0.8705
16584TIP3   OH271242   5.648   2.496   4.063  0.6668  0.2550 -0.0440
16584TIP3    H171243   5.673   2.588   4.071 -0.9427  0.6916  0.4639
16584TIP3    H271244   5.633   2.468   4.153 -1.1696  0.2405 -0.3001
16585TIP3   OH271245   3.019   3.820   4.501 -0.3040  0.2188  0.3615
16585TIP3    H171246   2.993   3.843   4.412 -0.7356  0.8826  0.6491
16585TIP3    H271247   2.982   3.732   4.515 -0.9002  0.4293  0.1513
16586TIP3   OH271248   0.047   2.681  14.891 -0.1255 -0.5943  0.3486
16586TIP3    H171249   0.030   2.630  14.812 -0.7991 -0.4294  0.3808
16586TIP3    H271250   0.092   2.759  14.860 -1.2818 -0.0494 -0.0088
16587TIP3   OH271251   4.845   4.026  13.055 -0.0660  0.4463  0.5449
16587TIP3    H171252   4.824   3.964  13.125 -0.0945 -2.0308 -1.5055
16587TIP3    H271253   4.935   4.053  13.073  0.1405 -0.6316  1.2020
16588TIP3   OH271254   1.550   4.402  14.684  0.3053 -0.4314  0.0061
16588TIP3    H171255   1.505   4.319  14.692 -0.2341 -0.0442  1.2444
16588TIP3    H271256   1.627   4.394  14.741 -1.2242  0.8434  2.3948
16589TIP3   OH271257   5.112   4.611  15.825 -0.2726  0.4545  0.3461
16589TIP3    H171258   5.159   4.554  15.885 -0.1821  1.3825  1.1783
16589TIP3    H271259   5.021   4.579  15.828  0.0436 -0.5554 -0.3244
16590TIP3   OH271260   3.180   6.441  11.625  0.2995  0.0021 -0.0435
16590TIP3    H171261   3.166   6.369  11.687  0.2079  0.9366  1.0534
16590TIP3    H271262   3.254   6.412  11.572 -1.1965 -1.9376 -1.2364
16591TIP3   OH271263   4.024   3.030   4.422 -0.1227 -0.6035 -0.1204
16591TIP3    H171264   4.090   3.071   4.477  0.7061 -1.2988 -0.5768
16591TIP3    H271265   4.033   3.075   4.337  0.1162 -1.0376 -0.3293
16592TIP3   OH271266   2.813   1.632  16.141  0.0347 -0.4021 -0.3839
16592TIP3    H171267   2.720   1.652  16.129  0.1542  0.6612  0.3500
16592TIP3    H271268   2.855   1.718  16.149  0.5930 -0.8551  2.8070
16593TIP3   OH271269   0.528   0.236   2.661  0.0870  0.2955  0.3847
16593TIP3    H171270   0.440   0.205   2.643  0.3194 -0.5589  0.6987
16593TIP3    H271271   0.515   0.313   2.717 -0.4168 -0.6674  1.6284
16594TIP3   OH271272   1.274   2.854   3.942 -0.1808 -0.4514  0.0633
16594TIP3    H171273   1.359   2.898   3.949  0.5640 -1.6810 -0.8481
16594TIP3    H271274   1.214   2.923   3.912  0.4164  0.4979  0.9776
16595TIP3   OH271275   2.432   0.922   6.130  0.1451  0.1067  0.5147
16595TIP3    H171276   2.439   0.846   6.187 -1.1236 -0.2308  0.2652
16595TIP3    H271277   2.513   0.971   6.143  1.1811 -1.5072  0.3414
16596TIP3   OH271278   4.704   3.954  11.279  0.4929  0.2399 -0.1013
16596TIP3    H171279   4.773   3.899  11.315  0.6685  1.0065  0.7707
16596TIP3    H271280   4.704   3.934  11.185  1.8079  0.1322 -0.0944
16597TIP3   OH271281   6.331   5.457  15.594 -0.2220  0.2970  0.1636
16597TIP3    H171282   6.342   5.363  15.579 -0.4722  0.0781  1.2484
16597TIP3    H271283   6.331   5.496  15.506 -0.5258 -0.7587 -0.3166
16598TIP3   OH271284   5.932   5.437   4.953 -0.1600  0.0247 -0.2082
16598TIP3    H171285   5.958   5.345   4.945 -0.2661  0.0725 -1.2497
16598TIP3    H271286   5.872   5.452   4.879  1.1258  1.3527 -1.0409
16599TIP3   OH271287   1.913   6.530  14.820  0.2119  0.1372 -0.2197
16599TIP3    H171288   1.961   6.448  14.827  0.9243  0.5974  0.5320
16599TIP3    H271289   1.981   6.597  14.813 -0.3359  0.7611  0.3145
16600TIP3   OH271290   3.353   5.271  16.723 -0.1313 -0.2732 -0.1478
16600TIP3    H171291   3.445   5.279  16.697  0.3196  0.3023  1.5331
16600TIP3    H271292   3.355   5.260  16.818 -1.7760 -1.0802 -0.1661
16601TIP3   OH271293   0.057   2.693   4.298  0.3016 -0.8199  0.2092
16601TIP3    H171294  -0.031   2.721   4.323  0.4585  0.5500 -0.6610
16601TIP3    H271295   0.045   2.610   4.253 -0.8023  0.2984 -1.6759
16602TIP3   OH271296   2.814   2.484   6.279  0.2442 -0.4252  0.7954
16602TIP3    H171297   2.876   2.425   6.236 -0.4994 -0.5301 -0.1454
16602TIP3    H271298   2.740   2.428   6.302 -0.8946  0.2885 -0.9723
16603TIP3   OH271299   6.446   0.757  11.743  0.5833 -0.7878 -0.2091
16603TIP3    H171300   6.488   0.733  11.825  0.4466 -2.6868 -0.6309
16603TIP3    H271301   6.465   0.850  11.732  1.0496 -0.6157  1.6862
16604TIP3   OH271302   0.890   0.689  12.032 -0.0864  0.3153  0.3274
16604TIP3    H171303   0.969   0.733  12.064  1.1790 -1.8599  0.3977
16604TIP3    H271304   0.863   0.632  12.104 -2.2959  1.6473  0.6322
16605TIP3   OH271305   0.476   5.737  14.006 -0.1004  0.2430  0.1921
16605TIP3    H171306   0.523   5.670  14.055 -0.0909  0.4542  0.4693
16605TIP3    H271307   0.544   5.796  13.973 -0.2740  2.1429  2.8789
16606TIP3   OH271308   1.716   3.131  15.228  0.2415  0.1643  0.0284
16606TIP3    H171309   1.720   3.134  15.132 -2.6012  0.9068 -0.1746
16606TIP3    H271310   1.638   3.079  15.247  1.2822 -0.7732  1.9936
16607TIP3   OH271311   5.335   2.763  12.553  0.1038 -0.0913  0.0339
16607TIP3    H171312   5.324   2.718  12.469 -0.8450  2.2631 -1.1763
16607TIP3    H271313   5.422   2.737  12.583  0.1612 -1.5671 -1.2907
16608TIP3   OH271314   0.083   4.978   1.215 -0.3471  0.3542  0.4765
16608TIP3    H171315   0.159   4.943   1.168 -1.0608  0.0624 -0.4951
16608TIP3    H271316   0.017   4.991   1.147 -0.3594  2.9349  0.9067
16609TIP3   OH271317   6.164   1.203   2.162 -0.2198  0.6787 -0.2257
16609TIP3    H171318   6.233   1.228   2.100  1.1832 -0.0574  0.9614
16609TIP3    H271319   6.134   1.286   2.199 -2.0414  1.2753 -2.7513
16610TIP3   OH271320   5.943   3.614   0.198 -0.1969 -0.0637  0.4468
16610TIP3    H171321   5.900   3.563   0.129 -0.2941  1.3405 -0.5767
16610TIP3    H271322   5.930   3.705   0.172  0.9565  0.4673  1.6165
16611TIP3   OH271323   2.888   0.081  11.220  0.1703 -0.1273  0.1451
16611TIP3    H171324   2.798   0.074  11.252  0.1668 -0.8626 -0.0134
16611TIP3    H271325   2.911   0.172  11.236 -0.3521 -0.1036  0.8660
16612TIP3   OH271326   6.218   3.277   4.213 -0.6945 -0.6710  0.0214
16612TIP3    H171327   6.130   3.247   4.237 -1.4944  1.9691  0.7880
16612TIP3    H271328   6.237   3.347   4.276  1.7030 -0.7335 -0.5458
16613TIP3   OH271329   0.274   4.299  14.663 -0.6530 -0.2144  0.0994
16613TIP3    H171330   0.181   4.295  14.686 -0.9357  0.8079 -0.7680
16613TIP3    H271331   0.310   4.366  14.722 -0.8406  0.5905 -0.6784
16614TIP3   OH271332   6.554   1.501  16.882 -0.5198 -0.5858 -0.1661
16614TIP3    H171333   6.571   1.437  16.951  1.4266  0.1124  0.0625
16614TIP3    H271334   6.620   1.568  16.895 -1.1091  0.3502 -1.7708
16615TIP3   OH271335   3.001   3.399  16.395 -0.1837  0.0602  0.2297
16615TIP3    H171336   3.022   3.428  16.483 -0.2873 -0.1826  0.3369
16615TIP3    H271337   3.077   3.424  16.342  0.3190 -0.6838  0.5822
16616TIP3   OH271338   4.153   1.370   3.693 -0.0017 -0.2529  0.0282
16616TIP3    H171339   4.093   1.316   3.745 -0.3814  0.5471  0.4412
16616TIP3    H271340   4.188   1.310   3.627  0.0040 -1.1306  0.8110
16617TIP3   OH271341   0.276   4.108  11.090  0.2014  0.0846  0.5269
16617TIP3    H171342   0.258   4.017  11.114  0.5512 -0.0104  0.4346
16617TIP3    H271343   0.221   4.124  11.014 -2.4255  0.9829  2.4707
16618TIP3   OH271344   2.723   4.996   1.290 -0.4873  0.1518  0.1231
16618TIP3    H171345   2.805   4.949   1.272  0.0183  1.6461 -1.8543
16618TIP3    H271346   2.705   4.978   1.382  2.0170 -0.3134  0.6094
16619TIP3   OH271347   4.717   4.502   6.171  0.2563 -0.3901 -0.2531
16619TIP3    H171348   4.628   4.486   6.202  0.7033 -0.9135  0.8191
16619TIP3    H271349   4.726   4.597   6.173 -0.2899 -0.3338 -0.3958
16620TIP3   OH271350   0.011   2.092   2.963  0.5708 -0.2112 -0.1345
16620TIP3    H171351  -0.017   2.146   2.889 -0.3060 -1.3664 -0.6814
16620TIP3    H271352  -0.068   2.044   2.988  0.5918  0.8201  2.1856
16621TIP3   OH271353   4.025   1.876   4.200 -0.8629 -0.0683 -0.0085
16621TIP3    H171354   4.093   1.912   4.142 -1.0337  2.3964  1.1951
16621TIP3    H271355   4.071   1.817   4.259 -0.4265 -1.3182 -1.5274
16622TIP3   OH271356   1.354   2.114  11.694  0.0336  0.5933  0.4680
16622TIP3    H171357   1.298   2.118  11.616 -1.8662  0.6733  1.7664
16622TIP3    H271358   1.442   2.126  11.660 -0.8196  1.7527 -1.5501
16623TIP3   OH271359   0.862   5.318  11.648  0.2246  0.1180  0.5966
16623TIP3    H171360   0.950   5.329  11.612 -0.0062 -0.2434 -0.1070
16623TIP3    H271361   0.840   5.405  11.682  0.1283  0.7299 -0.9376
16624TIP3   OH271362   2.046   1.872  14.322 -0.5071 -0.3427 -0.2340
16624TIP3    H171363   2.123   1.866  14.265 -0.7115 -0.4768 -0.4973
16624TIP3    H271364   2.078   1.846  14.408 -0.0011  0.6370 -0.1043
16625TIP3   OH271365   4.338   1.105   4.422 -0.0451 -0.2947  0.4539
16625TIP3    H171366   4.349   1.010   4.424  1.7428 -0.1437 -0.0057
16625TIP3    H271367   4.380   1.135   4.502 -0.8673  0.1109  0.7462
16626TIP3   OH271368   3.003   4.338   6.062 -0.0420 -0.0366  0.8750
16626TIP3    H171369   2.995   4.277   6.135 -0.0811 -2.3694 -0.9491
16626TIP3    H271370   3.006   4.282   5.984  1.6135  2.2325 -0.8271
16627TIP3   OH271371   6.457   4.700  11.765  0.6929 -0.0581  0.5222
16627TIP3    H171372   6.482   4.784  11.803 -0.1631 -0.4921  2.1138
16627TIP3    H271373   6.363   4.707  11.750  0.2570 -1.3558  2.4120
16628TIP3   OH271374   1.009   3.536  11.513 -0.2295  0.4696  0.6615
16628TIP3    H171375   0.985   3.627  11.528  0.7502  1.1147 -1.4165
16628TIP3    H271376   0.932   3.498  11.471  0.7026  1.4530 -2.1535
16629TIP3   OH271377   0.700   2.339   2.348  0.2844 -0.5947 -0.2118
16629TIP3    H171378   0.785   2.322   2.308  0.6384 -0.4063  0.4568
16629TIP3    H271379   0.651   2.386   2.280  0.8996 -0.2113 -0.3965
16630TIP3   OH271380   6.224   1.205  13.457 -0.0538 -0.6120  0.5091
16630TIP3    H171381   6.180   1.138  13.405 -0.8115  0.4613 -0.2748
16630TIP3    H271382   6.306   1.165  13.484 -0.8000 -2.1062  0.6635
16631TIP3   OH271383   4.015   0.378   5.478 -0.0813 -0.2372  0.3649
16631TIP3    H171384   3.980   0.464   5.455 -1.3142 -0.7594  0.1945
16631TIP3    H271385   4.005   0.372   5.573  0.1175 -0.1534  0.3927
16632TIP3   OH271386   5.546   4.053   5.277 -0.1127  0.5647  0.0523
16632TIP3    H171387   5.494   4.040   5.198 -1.3149  1.2429  0.6911
16632TIP3    H271388   5.624   4.000   5.264  0.6381  2.1086 -2.4027
16633TIP3   OH271389   5.899   3.717  14.403  0.5135  0.2354  0.5410
16633TIP3    H171390   5.953   3.738  14.327  0.2410 -0.3175  0.1795
16633TIP3    H271391   5.817   3.684  14.365  0.4251 -0.1715  1.0754
16634TIP3   OH271392   3.951   2.343   4.131 -0.3283 -0.1096  0.1722
16634TIP3    H171393   3.876   2.286   4.114 -0.4952  0.6123 -1.7842
16634TIP3    H271394   3.920   2.430   4.108  1.1820  0.1603 -1.0023
16635TIP3   OH271395   5.064   4.563  14.247 -0.1732 -0.0262 -0.1694
16635TIP3    H171396   5.041   4.494  14.185 -0.9246 -0.1596  0.2500
16635TIP3    H271397   5.022   4.642  14.212  1.2234  0.3842 -1.0029
16636TIP3   OH271398   3.614   1.183   0.079  0.0833  0.3301  0.3053
16636TIP3    H171399   3.527   1.223   0.074  1.0190  2.3627 -1.5759
16636TIP3    H271400   3.632   1.155  -0.011  1.4652  0.1907  0.6065
16637TIP3   OH271401   3.047   6.682   0.558 -0.6545 -0.2155  0.1335
16637TIP3    H171402   2.993   6.761   0.551  1.1133  0.8900 -2.4864
16637TIP3    H271403   3.026   6.632   0.480 -0.9667 -1.8959  1.2403
16638TIP3   OH271404   5.473   6.626   2.777  0.2449  0.4303 -0.1740
16638TIP3    H171405   5.448   6.699   2.834  0.4194  0.6338 -0.3546
16638TIP3    H271406   5.533   6.665   2.713  2.2548 -0.3140  1.1407
16639TIP3   OH271407   5.992   5.982  16.423 -0.1289 -0.2386  0.3154
16639TIP3    H171408   6.034   5.980  16.509  0.1162  0.3042  0.2156
16639TIP3    H271409   5.977   5.890  16.401  0.8493 -0.4360  0.4305
16640TIP3   OH271410   6.266   6.485   3.914 -0.1929 -0.8835 -0.4671
16640TIP3    H171411   6.256   6.518   4.003  0.3495 -0.0786 -0.6851
16640TIP3    H271412   6.176   6.476   3.881 -0.3723 -0.3703 -0.1261
16641TIP3   OH271413   6.778   2.927   2.696  0.0513  0.3650  0.3447
16641TIP3    H171414   6.683   2.913   2.699  0.1572 -0.2699  0.8605
16641TIP3    H271415   6.787   3.021   2.679 -0.6698  0.4460  0.3634
16642TIP3   OH271416   0.841   1.927  15.981  0.5812 -0.0532 -0.2294
16642TIP3    H171417   0.792   1.918  16.063 -0.2794 -0.7702 -0.8135
16642TIP3    H271418   0.825   2.017  15.954 -0.6287 -0.3441 -0.5319
16643TIP3   OH271419   4.519   4.487  11.225  0.1683 -0.3639  0.2406
16643TIP3    H171420   4.431   4.477  11.188  0.9670  1.7596 -2.6311
16643TIP3    H271421   4.571   4.419  11.183  0.3685 -0.1600  0.1571
16644TIP3   OH271422   2.934   1.692   2.797  0.1554  0.1646  0.5557
16644TIP3    H171423   2.902   1.615   2.845  0.2680  0.7428  1.5812
16644TIP3    H271424   3.003   1.657   2.741  0.8781 -0.3603  1.7114
16645TIP3   OH271425   4.386   4.608   4.400 -0.2535 -0.2768  0.0490
16645TIP3    H171426   4.316   4.659   4.359  0.2729  1.1284  0.8148
16645TIP3    H271427   4.467   4.644   4.363  0.1074 -2.5659 -1.6073
16646TIP3   OH271428   3.697   0.710   1.594 -0.1615 -0.2639 -0.2964
16646TIP3    H171429   3.735   0.673   1.515  0.4050  2.1839 -1.2592
16646TIP3    H271430   3.604   0.685   1.591  0.2063 -1.6452 -0.7885
16647TIP3   OH271431   3.027   5.343   4.503 -0.6350  0.7140  0.4668
16647TIP3    H171432   3.004   5.251   4.517 -0.7169  0.7651  0.6659
16647TIP3    H271433   3.113   5.352   4.545 -0.2529  0.5299 -0.2499
16648TIP3   OH271434   4.557   4.256   3.195  0.2391  0.4750 -0.0643
16648TIP3    H171435   4.477   4.281   3.241  0.6248  1.9549 -0.1279
16648TIP3    H271436   4.568   4.324   3.128  1.0292 -0.2481 -0.6964
16649TIP3   OH271437   6.243   0.159   5.777  0.7948 -0.3241 -0.0869
16649TIP3    H171438   6.215   0.168   5.685  0.2078 -1.5625 -0.0505
16649TIP3    H271439   6.214   0.071   5.802  0.6608  0.1203  1.3938
16650TIP3   OH271440   3.993   2.870   5.967 -0.1482  0.5069 -0.9312
16650TIP3    H171441   3.968   2.882   5.876 -0.7443 -0.7583 -0.9595
16650TIP3    H271442   4.044   2.789   5.968 -1.3541 -0.2837  0.0376
16651TIP3   OH271443   3.019   0.599  13.396  0.4159 -0.4864 -0.1936
16651TIP3    H171444   3.016   0.661  13.469  3.5632  0.5636 -0.8040
16651TIP3    H271445   2.928   0.570  13.386 -0.5340  1.0935  2.5814
16652TIP3   OH271446   1.057   1.589  16.030  0.5274  0.1018  0.0144
16652TIP3    H171447   1.015   1.652  15.971  0.2250  1.3198  1.4768
16652TIP3    H271448   1.049   1.505  15.984  0.9808  1.1023 -2.0117
16653TIP3   OH271449   0.812   4.134  15.043  0.5583  0.3559  1.0142
16653TIP3    H171450   0.727   4.091  15.051  1.0344 -0.5191  1.6424
16653TIP3    H271451   0.818   4.191  15.119  0.4647  0.5371  0.8846
16654TIP3   OH271452   3.245   1.267  12.952  0.3018  0.5731 -0.0522
16654TIP3    H171453   3.335   1.300  12.948 -0.2815  2.1623 -1.3989
16654TIP3    H271454   3.250   1.180  12.912  1.3342  0.3777  0.4692
16655TIP3   OH271455   3.683   3.863   3.012  0.6246  0.0353  0.3474
16655TIP3    H171456   3.680   3.952   2.977  0.3624 -0.0781  0.0727
16655TIP3    H271457   3.647   3.809   2.942  1.1368 -0.3349  0.3679
16656TIP3   OH271458   3.755   4.863  12.546  0.3763  0.0604  0.1762
16656TIP3    H171459   3.841   4.822  12.556 -0.5955 -1.8127  1.3749
16656TIP3    H271460   3.762   4.945  12.596  1.1418 -0.6028  1.1973
16657TIP3   OH271461   6.695   2.234   0.103  0.4696 -0.2978 -0.0120
16657TIP3    H171462   6.620   2.289   0.125 -0.8996 -1.5979 -1.2042
16657TIP3    H271463   6.701   2.171   0.175  1.2421  0.5893  0.7187
16658TIP3   OH271464   1.139   5.845   0.056  0.0550 -0.2918  0.2060
16658TIP3    H171465   1.151   5.912   0.123 -0.8839 -0.0999  0.1884
16658TIP3    H271466   1.222   5.796   0.057  1.2188  1.5521 -0.5766
16659TIP3   OH271467   4.576   5.455   4.278 -0.1366 -0.0869 -0.5756
16659TIP3    H171468   4.601   5.544   4.301  0.1652 -0.7150  1.8180
16659TIP3    H271469   4.542   5.418   4.359  0.7189 -2.4805 -1.2188
16660TIP3   OH271470   3.495   3.087  13.036  0.0376 -0.0996 -0.1304
16660TIP3    H171471   3.518   3.069  12.945 -0.5910 -0.9581 -0.1375
16660TIP3    H271472   3.578   3.092  13.082  0.3384 -0.2964 -0.6475
16661TIP3   OH271473   1.860   2.303  11.366  0.0272  0.7883 -0.2394
16661TIP3    H171474   1.866   2.331  11.275 -0.4695 -1.8904 -1.1901
16661TIP3    H271475   1.768   2.281  11.379  0.2943  0.0913  0.5531
16662TIP3   OH271476   4.994   1.592   3.007 -0.1705  0.5847  0.1990
16662TIP3    H171477   5.007   1.671   3.060  0.6409  0.3601  0.3547
16662TIP3    H271478   5.014   1.621   2.918  0.9399  0.3880  0.3583
16663TIP3   OH271479   1.315   4.227  14.270 -0.0752  0.1276  0.0747
16663TIP3    H171480   1.223   4.221  14.243 -0.1062 -0.4092  0.2942
16663TIP3    H271481   1.323   4.165  14.342  0.2374  0.8519  0.6857
16664TIP3   OH271482   6.035   5.480  15.510  0.6840 -0.1963  0.5785
16664TIP3    H171483   6.130   5.487  15.523  0.8924 -1.4486 -0.1569
16664TIP3    H271484   5.999   5.553  15.560  2.1635  1.4447 -0.6250
16665TIP3   OH271485   2.141   1.636  13.434 -0.0387  0.3859 -0.2413
16665TIP3    H171486   2.176   1.697  13.369  2.1187 -0.0863  0.4049
16665TIP3    H271487   2.148   1.682  13.517  0.1159 -0.1330  0.0424
16666TIP3   OH271488   2.575   2.173  11.314  0.3131 -0.4437  0.2145
16666TIP3    H171489   2.608   2.128  11.236  0.2821  0.1253 -0.1318
16666TIP3    H271490   2.493   2.214  11.285  0.4077 -0.0563  0.4875
16667TIP3   OH271491   1.474   2.757  13.058 -1.0960  0.2500  0.4362
16667TIP3    H171492   1.448   2.700  12.986 -1.8883  1.3024 -0.1400
16667TIP3    H271493   1.470   2.846  13.021 -0.7516  0.7494  1.5540
16668TIP3   OH271494   4.945   4.885   5.954  0.0485  0.1281 -0.6535
16668TIP3    H171495   4.945   4.802   5.907  2.1391  1.4240 -3.2255
16668TIP3    H271496   4.900   4.867   6.036 -2.2898 -2.7553 -2.4032
16669TIP3   OH271497   3.006   2.720   4.813 -0.2344 -0.1065 -0.1156
16669TIP3    H171498   3.001   2.772   4.893  1.6960  1.0592 -0.6808
16669TIP3    H271499   3.063   2.646   4.835 -1.7765 -1.2363  0.2625
16670TIP3   OH271500   2.387   0.750   5.920 -0.2091  0.0402  0.4970
16670TIP3    H171501   2.302   0.711   5.941 -0.7923  1.3625  0.6818
16670TIP3    H271502   2.401   0.815   5.989  0.7857  0.0823  0.2637
16671TIP3   OH271503   3.171   4.696   4.600  0.2051  0.6987  0.1033
16671TIP3    H171504   3.104   4.680   4.534  1.6037  1.2215 -1.5134
16671TIP3    H271505   3.123   4.737   4.672 -1.4665 -0.4331 -0.2968
16672TIP3   OH271506   6.048   6.580   1.102 -0.1843  0.3572  0.3604
16672TIP3    H171507   6.053   6.632   1.181 -3.6619 -1.3594  1.9066
16672TIP3    H271508   6.130   6.530   1.101  0.3335  1.0769  2.3663
16673TIP3   OH271509   4.020   3.446   2.889  0.3972  0.2390 -0.2876
16673TIP3    H171510   4.094   3.448   2.950 -0.5948  0.2171  0.9474
16673TIP3    H271511   4.060   3.460   2.803  2.0086 -1.1224  0.1808
16674TIP3   OH271512   1.924   2.775   4.313 -0.1224  0.0427  0.1278
16674TIP3    H171513   1.838   2.750   4.349 -0.8247  0.7234 -0.9950
16674TIP3    H271514   1.977   2.795   4.389 -0.5661 -1.6089  0.9047
16675TIP3   OH271515   1.882   6.151   3.421 -0.1158 -0.9759 -0.2400
16675TIP3    H171516   1.849   6.240   3.430  0.4113 -0.8613  0.7837
16675TIP3    H271517   1.823   6.110   3.358 -0.8111 -0.1192 -0.1740
16676TIP3   OH271518   6.116   2.537  15.276  0.1475  0.6230  0.0490
16676TIP3    H171519   6.160   2.482  15.341 -0.1958  0.1286 -0.1310
16676TIP3    H271520   6.111   2.482  15.198 -1.1173  0.5342  0.1805
16677TIP3   OH271521   3.341   6.558  13.927  0.1494 -0.2259 -0.2996
16677TIP3    H171522   3.389   6.499  13.868  1.7504  0.2172  0.5295
16677TIP3    H271523   3.270   6.592  13.873  0.3903 -1.3501 -1.3876
16678TIP3   OH271524   2.142   0.371  17.001  0.1289 -0.0066  0.5676
16678TIP3    H171525   2.165   0.426  16.926 -0.4851 -1.2772 -0.6012
16678TIP3    H271526   2.062   0.409  17.036  0.1881  0.3522  0.3098
16679TIP3   OH271527   2.720   5.686  16.977 -0.7298  0.3758 -0.0367
16679TIP3    H171528   2.721   5.767  17.028 -1.1969  0.2763  0.1353
16679TIP3    H271529   2.647   5.636  17.014 -1.9066  0.8375 -1.6438
16680TIP3   OH271530   4.168   0.437   2.456 -0.2190  0.4794 -0.3654
16680TIP3    H171531   4.114   0.516   2.458 -0.0477  0.5963 -0.3556
16680TIP3    H271532   4.250   0.465   2.416 -0.3963  0.1597 -0.9753
16681TIP3   OH271533   6.070   4.714   5.148 -0.3550  0.2098  0.2648
16681TIP3    H171534   5.989   4.671   5.121 -0.1766 -0.3242  0.5506
16681TIP3    H271535   6.122   4.720   5.068 -0.8001  0.8356  0.0199
16682TIP3   OH271536   2.128   2.442   2.667 -0.2298 -0.1869 -0.1454
16682TIP3    H171537   2.032   2.442   2.673 -0.2804  0.6416 -0.8172
16682TIP3    H271538   2.151   2.351   2.650 -0.9435 -0.2780 -0.6533
16683TIP3   OH271539   2.386   3.335   2.386 -0.6108  0.0290 -0.3497
16683TIP3    H171540   2.427   3.254   2.356  0.6988  1.1657 -1.8209
16683TIP3    H271541   2.433   3.405   2.339 -2.1781  1.6041  0.2891
16684TIP3   OH271542   0.942   3.084  15.727  0.3287  0.6371 -0.3488
16684TIP3    H171543   1.003   3.143  15.771  1.6470  0.0891 -1.3590
16684TIP3    H271544   0.987   3.060  15.646 -1.2577  0.2310 -1.1509
16685TIP3   OH271545   0.773   4.965  16.003  0.9419  0.1522  0.8023
16685TIP3    H171546   0.737   4.878  16.023  1.2900 -0.4313 -0.9362
16685TIP3    H271547   0.865   4.948  15.985  0.4549  0.3682 -2.3550
16686TIP3   OH271548   4.905   2.559   4.028  0.7084  0.5819  0.1429
16686TIP3    H171549   4.880   2.629   4.087  0.0733 -0.8343  1.6474
16686TIP3    H271550   4.833   2.552   3.966  0.3295  0.6491  0.5751
16687TIP3   OH271551   0.612   5.670   4.263 -0.0438 -0.1979  0.9049
16687TIP3    H171552   0.612   5.579   4.234 -2.4355  0.1003 -0.2093
16687TIP3    H271553   0.527   5.683   4.303 -0.4080  1.9461 -0.3920
16688TIP3   OH271554   2.900   1.108  14.311  0.3100 -0.4680 -0.5441
16688TIP3    H171555   2.861   1.175  14.255  1.6657 -0.7838 -1.9131
16688TIP3    H271556   2.983   1.086  14.269  0.8228 -1.5842  0.9568
16689TIP3   OH271557   4.356   0.164  11.984  0.4875 -0.2699 -0.2785
16689TIP3    H171558   4.329   0.105  11.914  0.8537  0.9180 -1.4689
16689TIP3    H271559   4.438   0.202  11.952 -0.1203  1.4302  0.1215
16690TIP3   OH271560   5.445   2.555  16.171 -0.2564  0.2072 -0.1353
16690TIP3    H171561   5.399   2.634  16.199 -0.5492 -0.0374  0.0786
16690TIP3    H271562   5.404   2.484  16.221  2.0584  0.2681  2.0770
16691TIP3   OH271563   0.196   2.137  15.878 -0.1622  0.3814  0.6039
16691TIP3    H171564   0.192   2.042  15.884 -1.0884  0.3040 -0.7300
16691TIP3    H271565   0.272   2.162  15.930  0.5754 -1.1592  0.2948
16692TIP3   OH271566   3.477   3.464  16.809 -0.3384 -0.0874 -0.1176
16692TIP3    H171567   3.489   3.381  16.762 -0.7051 -0.2905  0.1439
16692TIP3    H271568   3.435   3.439  16.891  1.6769  0.0813  1.0291
16693TIP3   OH271569   4.216   1.266  13.673 -0.3744  0.0219 -0.6349
16693TIP3    H171570   4.175   1.252  13.758 -0.6264 -1.0130 -0.9221
16693TIP3    H271571   4.187   1.354  13.647 -1.1087 -0.0548 -0.1116
16694TIP3   OH271572   0.966   0.441   5.905  0.0405 -0.6594  0.1251
16694TIP3    H171573   0.943   0.402   5.989  1.3577 -2.7489 -0.4017
16694TIP3    H271574   0.988   0.532   5.925  0.1018 -1.0615  1.9975
16695TIP3   OH271575   4.002   3.852  15.162  0.6197 -0.6053  0.1420
16695TIP3    H171576   4.053   3.931  15.143  0.2244 -0.3202  0.2604
16695TIP3    H271577   3.952   3.836  15.081 -1.0501  0.5967  0.8733
16696TIP3   OH271578   0.419   0.952  14.160 -0.0747 -0.1356 -0.7381
16696TIP3    H171579   0.400   1.045  14.146  2.7193  0.7615  0.5802
16696TIP3    H271580   0.507   0.951  14.197 -0.9438 -3.1817  1.6749
16697TIP3   OH271581   1.805   5.628  13.057  0.5178 -0.2758 -0.1097
16697TIP3    H171582   1.857   5.582  13.122 -0.0533  0.5739  0.9734
16697TIP3    H271583   1.863   5.697  13.024  0.9753 -1.0105 -0.8926
16698TIP3   OH271584   5.605   3.396   4.615 -0.9143 -0.0461  0.3142
16698TIP3    H171585   5.622   3.332   4.545 -2.1252 -2.7421  2.2976
16698TIP3    H271586   5.558   3.467   4.571 -1.6157 -1.6048 -1.6262
16699TIP3   OH271587   2.304   2.067   3.528 -0.1274 -0.4655  0.1201
16699TIP3    H171588   2.274   2.010   3.457  0.3980  0.5470 -0.9494
16699TIP3    H271589   2.233   2.129   3.542  0.6240  0.7380 -1.1047
16700TIP3   OH271590   0.755   3.480  15.480 -0.2750 -0.0358 -0.3211
16700TIP3    H171591   0.806   3.558  15.502  2.3909 -1.5914 -0.5831
16700TIP3    H271592   0.701   3.507  15.405 -0.6854  1.9811  0.6479
16701TIP3   OH271593   0.791   0.155   0.121  0.9525 -0.1767 -0.4660
16701TIP3    H171594   0.758   0.197   0.200  1.9886  1.0544 -0.6642
16701TIP3    H271595   0.808   0.064   0.148 -1.1216 -0.4707  0.0184
16702TIP3   OH271596   2.827   4.327   1.172 -0.5709  0.0889  0.6192
16702TIP3    H171597   2.813   4.302   1.081  0.6756  0.8728  0.1862
16702TIP3    H271598   2.754   4.386   1.192  0.3345  1.7160 -0.6260
16703TIP3   OH271599   4.066   4.430   4.815 -0.7573 -1.1848 -0.2216
16703TIP3    H171600   4.050   4.369   4.888 -1.9999  0.2486  0.7625
16703TIP3    H271601   3.979   4.451   4.782 -0.8064  2.9558  1.9501
16704TIP3   OH271602   5.659   2.160  15.951  0.1766  0.0658  0.4481
16704TIP3    H171603   5.698   2.094  15.894  2.0720  1.7551 -0.3639
16704TIP3    H271604   5.608   2.216  15.892  0.3718  0.5703  0.7466
16705TIP3   OH271605   6.345   6.409   3.077 -0.3470 -0.1342 -0.2292
16705TIP3    H171606   6.383   6.372   3.157  0.3637 -0.4559 -0.7034
16705TIP3    H271607   6.256   6.434   3.102 -0.9818 -2.4288  0.0701
16706TIP3   OH271608   3.651   4.356   2.246 -0.2419  0.7111  0.2168
16706TIP3    H171609   3.664   4.264   2.225 -1.2020  0.0358  2.3151
16706TIP3    H271610   3.739   4.394   2.245  0.1982 -0.3000 -0.3153
16707TIP3   OH271611   1.495   1.963  12.206  0.4522  0.1435  0.5368
16707TIP3    H171612   1.482   2.021  12.131  1.0613  0.6212  0.7910
16707TIP3    H271613   1.588   1.941  12.204  0.1814 -1.0619  0.2870
16708TIP3   OH271614   1.965   6.004   2.356 -0.0238 -0.3634 -0.2556
16708TIP3    H171615   2.035   6.066   2.335  0.1323 -0.7041 -0.7789
16708TIP3    H271616   1.959   6.005   2.451 -0.8224  1.3356 -0.2903
16709TIP3   OH271617   1.295   0.807   1.154  0.1624  0.1505 -0.2431
16709TIP3    H171618   1.322   0.871   1.089  1.3106  0.1090  0.1694
16709TIP3    H271619   1.377   0.768   1.185 -0.4731 -1.1264 -0.0865
16710TIP3   OH271620   1.015   3.485  14.351 -0.0583 -0.0622 -0.0969
16710TIP3    H171621   0.955   3.559  14.342  0.7133  0.6639  0.5217
16710TIP3    H271622   1.102   3.525  14.348  0.4581 -1.1881 -1.9696
16711TIP3   OH271623   0.190   0.478   4.951  0.3224 -0.5712  0.2305
16711TIP3    H171624   0.216   0.565   4.981 -0.3137 -0.2440 -0.1493
16711TIP3    H271625   0.210   0.478   4.857 -0.3905 -0.5565  0.0731
16712TIP3   OH271626   0.039   4.016   2.703 -0.1055  0.0031  0.4549
16712TIP3    H171627   0.034   4.092   2.761 -2.5419 -0.1732  0.5533
16712TIP3    H271628  -0.052   3.988   2.691  0.3093 -0.2790 -3.0485
16713TIP3   OH271629   0.381   3.466   1.245  0.0335  0.1769 -0.1170
16713TIP3    H171630   0.311   3.406   1.219  0.0477  0.6463 -1.3269
16713TIP3    H271631   0.335   3.539   1.287 -0.1810  0.2723 -0.5046
16714TIP3   OH271632   6.610   4.526   2.031 -0.2659  0.1711 -0.1207
16714TIP3    H171633   6.533   4.571   1.997 -0.0222  0.9408  0.3331
16714TIP3    H271634   6.600   4.435   2.001 -2.1196 -0.1156  1.1710
16715TIP3   OH271635   3.776   5.845  11.802 -0.8138  0.1235 -0.2653
16715TIP3    H171636   3.866   5.827  11.777 -1.1765  1.0238 -2.3611
16715TIP3    H271637   3.733   5.759  11.798 -0.5091  0.0138 -1.2635
16716TIP3   OH271638   2.036   5.754   5.913 -0.6095  0.6211 -0.0654
16716TIP3    H171639   2.117   5.736   5.960 -1.2242 -0.9132  0.4846
16716TIP3    H271640   2.062   5.761   5.821 -0.0581 -1.8459 -0.1614
16717TIP3   OH271641   6.366   5.393   6.140  0.4307  0.0980  0.4321
16717TIP3    H171642   6.445   5.340   6.153  0.1978 -0.1879  0.7168
16717TIP3    H271643   6.352   5.393   6.045  0.3058 -0.5558  0.4422
16718TIP3   OH271644   6.484   4.137   5.338 -0.3070  0.2088 -0.4601
16718TIP3    H171645   6.394   4.167   5.350 -0.5847 -0.6188 -0.4696
16718TIP3    H271646   6.524   4.204   5.282 -0.1186  2.0397  1.6998
16719TIP3   OH271647   3.507   3.294  16.411  0.5546  0.3012  0.2966
16719TIP3    H171648   3.590   3.248  16.427  1.3290  0.9872 -1.3997
16719TIP3    H271649   3.442   3.224  16.404  1.2887 -0.3786  0.1060
16720TIP3   OH271650   2.852   5.400   4.272  0.2893 -0.0315 -0.3631
16720TIP3    H171651   2.932   5.373   4.317 -0.4049 -0.0022  0.9389
16720TIP3    H271652   2.784   5.343   4.307 -0.6952  1.5349  0.3777
16721TIP3   OH271653   2.278   5.431   5.389  0.3254 -0.6019  0.4850
16721TIP3    H171654   2.329   5.377   5.449 -0.7652 -1.3583  0.7507
16721TIP3    H271655   2.312   5.520   5.401  2.2687 -1.2164 -0.0855
16722TIP3   OH271656   1.815   2.030  12.489 -0.1733  0.7696 -0.4822
16722TIP3    H171657   1.903   2.066  12.505 -0.3091  1.2237 -0.7345
16722TIP3    H271658   1.807   1.959  12.552  0.3699  0.7372 -0.4411
16723TIP3   OH271659   6.669   1.286   3.022 -0.0369  0.0390 -0.2135
16723TIP3    H171660   6.610   1.240   3.082  0.6988 -0.8969 -0.2008
16723TIP3    H271661   6.722   1.342   3.080  0.0413 -0.1699 -0.0816
16724TIP3   OH271662   5.451   2.296   0.450 -0.3452  0.0380 -0.5515
16724TIP3    H171663   5.501   2.361   0.498 -0.7600 -0.9093  1.2421
16724TIP3    H271664   5.513   2.224   0.435 -0.4446 -0.0124 -0.7332
16725TIP3   OH271665   2.909   0.572   1.641 -0.3841  0.7467  0.4931
16725TIP3    H171666   2.970   0.620   1.585  0.6834 -0.6095  0.4517
16725TIP3    H271667   2.963   0.540   1.713 -1.3788  0.8584  1.3042
16726TIP3   OH271668   6.186   0.171   4.051 -0.3105  0.4305  0.1718
16726TIP3    H171669   6.164   0.231   3.980  1.7573  0.1780 -0.7621
16726TIP3    H271670   6.276   0.143   4.032 -0.0584 -0.4533  2.3396
16727TIP3   OH271671   3.568   3.966  15.491  0.7042 -0.0122 -0.4233
16727TIP3    H171672   3.634   3.925  15.435  0.5334 -0.2776 -0.4308
16727TIP3    H271673   3.556   3.904  15.563  2.1241  1.0599  0.8038
16728TIP3   OH271674   1.202   3.294  12.706 -0.0271 -0.1245  0.2190
16728TIP3    H171675   1.181   3.307  12.614 -3.4803  2.0353  1.1409
16728TIP3    H271676   1.149   3.218  12.732  2.1306 -1.7462  0.2045
16729TIP3   OH271677   5.530   3.192   4.399 -0.0708  0.6515  0.2169
16729TIP3    H171678   5.459   3.135   4.372 -0.0569  0.4172  0.6633
16729TIP3    H271679   5.590   3.135   4.447  0.0613  0.9884  0.4608
16730TIP3   OH271680   1.679   4.686   5.741  0.4708 -0.1356 -0.0582
16730TIP3    H171681   1.739   4.632   5.792  2.9159  1.4085 -1.1372
16730TIP3    H271682   1.727   4.707   5.661 -1.7082  0.8006 -1.2112
16731TIP3   OH271683   4.397   2.183   5.091  0.0871  0.6722  0.0981
16731TIP3    H171684   4.466   2.120   5.069  1.1104  1.5604  0.6555
16731TIP3    H271685   4.323   2.129   5.120 -0.3255 -0.4050 -2.6938
16732TIP3   OH271686   2.726   6.311  12.164  0.5337 -0.0876 -0.1706
16732TIP3    H171687   2.747   6.377  12.230 -1.4058  0.4378 -0.0254
16732TIP3    H271688   2.643   6.273  12.192  0.8131 -1.4806 -1.1135
16733TIP3   OH271689   1.869   4.770   1.067 -0.4863  0.4565 -0.3234
16733TIP3    H171690   1.830   4.795   0.983 -1.3928 -0.0615 -0.0726
16733TIP3    H271691   1.796   4.737   1.118  0.3520 -1.0113 -0.0097
16734TIP3   OH271692   1.169   1.203   1.501 -0.2996  0.4889 -0.1736
16734TIP3    H171693   1.073   1.196   1.505 -0.2521 -0.9024 -0.7613
16734TIP3    H271694   1.196   1.221   1.591 -1.2177  3.0772 -0.3288
16735TIP3   OH271695   0.014   3.072  14.589 -0.4708  0.3893  0.0160
16735TIP3    H171696   0.082   3.055  14.524 -1.2795  0.0725 -0.7622
16735TIP3    H271697  -0.068   3.062  14.542 -1.1216 -1.0514  1.3304
16736TIP3   OH271698   1.322   6.275   3.732 -0.3598  0.8419  0.4498
16736TIP3    H171699   1.354   6.283   3.822  1.2717  0.1789 -0.0273
16736TIP3    H271700   1.400   6.290   3.678 -0.4533 -2.3926 -0.7574
16737TIP3   OH271701   6.679   2.103  12.014  0.0822  0.3875 -0.0656
16737TIP3    H171702   6.748   2.131  11.953 -0.2402  1.2428 -0.0491
16737TIP3    H271703   6.712   2.129  12.100 -0.2850  0.8584 -0.0639
16738TIP3   OH271704   3.551   5.339  17.075 -0.2092 -0.7028  0.2447
16738TIP3    H171705   3.568   5.421  17.029 -1.8127 -1.0774 -1.0845
16738TIP3    H271706   3.633   5.290  17.068  0.2045  0.0636 -0.4810
16739TIP3   OH271707   1.940   3.062   4.230 -0.1906 -0.1041 -0.0469
16739TIP3    H171708   2.029   3.092   4.250 -0.2460  0.3820 -0.4994
16739TIP3    H271709   1.939   2.971   4.257  1.1111 -0.7528 -1.9257
16740TIP3   OH271710   6.341   6.598   2.854 -0.3182 -0.0028 -0.5940
16740TIP3    H171711   6.360   6.536   2.924 -0.7557 -0.0102 -0.4771
16740TIP3    H271712   6.411   6.663   2.860 -1.1759  0.8389  0.8283
16741TIP3   OH271713   6.637   0.702   0.980  0.2013  0.7172 -0.1100
16741TIP3    H171714   6.676   0.771   0.928 -2.0835  0.6379 -2.1033
16741TIP3    H271715   6.553   0.738   1.010 -0.5101 -0.7540 -0.2160
16742TIP3   OH271716   0.941   6.456  15.812 -0.2451  0.0566 -0.9626
16742TIP3    H171717   1.036   6.468  15.813 -0.3229  0.8044  0.6293
16742TIP3    H271718   0.924   6.400  15.888 -1.0938 -0.0086 -1.1942
16743TIP3   OH271719   2.430   3.540  17.176  0.2702 -0.2170 -0.8158
16743TIP3    H171720   2.421   3.473  17.243  0.9063  1.8386  1.5202
16743TIP3    H271721   2.501   3.509  17.120 -0.0081 -1.8412 -0.3043
16744TIP3   OH271722   2.984   6.651   3.540 -0.3025 -0.5110  0.3836
16744TIP3    H171723   3.051   6.697   3.590  0.4297 -1.2429  0.0906
16744TIP3    H271724   3.033   6.597   3.477 -1.1700  1.1017 -1.8184
16745TIP3   OH271725   2.840   6.019   0.693 -0.0970 -0.2580 -0.1184
16745TIP3    H171726   2.876   6.003   0.780 -0.2379 -0.5702 -0.1159
16745TIP3    H271727   2.773   5.952   0.682  1.3987 -1.6466 -1.3094
16746TIP3   OH271728   1.689   0.712   5.277 -0.1748 -0.4525 -0.0460
16746TIP3    H171729   1.767   0.766   5.286 -0.4669  0.1148 -0.8620
16746TIP3    H271730   1.619   0.763   5.317 -0.4272 -0.2615 -0.7139
16747TIP3   OH271731   0.813   0.675  15.992  0.1453 -0.6205  0.5817
16747TIP3    H171732   0.853   0.647  16.075  0.4858  1.7324  1.3030
16747TIP3    H271733   0.886   0.678  15.930  0.0338 -1.6246  0.3881
16748TIP3   OH271734   5.841   3.459  12.569 -0.2074  0.2926  0.0884
16748TIP3    H171735   5.865   3.447  12.661 -0.8955  2.1860  0.5555
16748TIP3    H271736   5.917   3.501  12.530 -0.3330  0.5129  0.0757
16749TIP3   OH271737   1.141   2.324   3.668 -0.4937 -0.0487  0.0263
16749TIP3    H171738   1.079   2.396   3.681 -0.5951 -0.1550  0.1437
16749TIP3    H271739   1.227   2.366   3.666 -0.5447  0.0639  0.1908
16750TIP3   OH271740   2.317   2.734   3.424  0.3810  0.7096  0.3792
16750TIP3    H171741   2.281   2.664   3.370  1.6497  0.6930 -0.4805
16750TIP3    H271742   2.319   2.698   3.512  5.2546 -2.2375 -0.5725
16751TIP3   OH271743   0.537   2.170   4.478  0.7926  0.1841  0.1315
16751TIP3    H171744   0.580   2.207   4.554  0.0842 -0.5272  0.9005
16751TIP3    H271745   0.496   2.090   4.510  0.6287 -0.2200 -1.0374
16752TIP3   OH271746   3.383   1.644   4.130 -0.0397 -0.8628 -0.2931
16752TIP3    H171747   3.346   1.723   4.170  0.0421 -1.4297  0.9322
16752TIP3    H271748   3.313   1.610   4.074 -0.0379  0.1202 -0.9228
16753TIP3   OH271749   2.865   3.592   5.120  0.4960  0.2059  0.0540
16753TIP3    H171750   2.771   3.572   5.119  0.6427 -0.5371 -1.0729
16753TIP3    H271751   2.877   3.652   5.046  0.8147  0.7970  0.5807
16754TIP3   OH271752   1.987   6.589  16.262  0.2594 -0.3254 -0.0958
16754TIP3    H171753   2.004   6.681  16.244 -0.2312 -0.1373  0.3796
16754TIP3    H271754   2.026   6.574  16.348  0.6124 -0.6465 -0.3065
16755TIP3   OH271755   1.437   1.852  14.053  0.6084  0.1006 -0.0681
16755TIP3    H171756   1.454   1.918  13.986  2.0385  1.1397  1.2242
16755TIP3    H271757   1.475   1.772  14.018  3.0094  1.0288  0.1542
16756TIP3   OH271758   2.062   1.197   3.310  0.0459 -0.2976  0.0704
16756TIP3    H171759   2.143   1.247   3.303  0.8113 -1.4465  0.4116
16756TIP3    H271760   2.001   1.257   3.355  0.5588  0.7238 -0.5628
16757TIP3   OH271761   5.851   1.829   4.131 -0.0733 -0.2638  0.5522
16757TIP3    H171762   5.939   1.867   4.133 -0.7822  1.4649  1.1840
16757TIP3    H271763   5.856   1.754   4.190  1.3054 -1.0367 -0.4860
16758TIP3   OH271764   4.220   6.447   1.867 -0.2072  0.1466  0.1523
16758TIP3    H171765   4.273   6.506   1.920 -1.2051  1.3980 -0.2042
16758TIP3    H271766   4.247   6.465   1.777 -0.4495  0.0006  0.0487
16759TIP3   OH271767   3.752   3.472   1.004 -0.0050  0.2442  0.0822
16759TIP3    H171768   3.766   3.565   1.025 -0.0016 -0.0004  1.2532
16759TIP3    H271769   3.806   3.426   1.068  0.3256 -0.5698 -0.7679
16760TIP3   OH271770   0.425   2.089  13.594  0.4896 -0.0327  0.1758
16760TIP3    H171771   0.516   2.063  13.583 -0.5103 -4.0692  0.0303
16760TIP3    H271772   0.394   2.037  13.668 -1.8985  0.7311 -0.2139
16761TIP3   OH271773   2.650   4.596  16.145  0.3743  0.4601  0.6184
16761TIP3    H171774   2.642   4.539  16.069  0.4213  0.8160  0.3502
16761TIP3    H271775   2.739   4.581  16.177 -0.0949 -0.7466  1.4441
16762TIP3   OH271776   6.579   5.929  12.423  0.2436 -0.3407 -0.6531
16762TIP3    H171777   6.657   5.897  12.379  0.6050  1.1695 -1.1701
16762TIP3    H271778   6.511   5.928  12.356  0.3942  0.4449 -0.8303
16763TIP3   OH271779   6.186   0.142  14.508  0.0708 -0.1111 -0.4056
16763TIP3    H171780   6.137   0.143  14.590  0.7605  0.0706  0.0138
16763TIP3    H271781   6.123   0.170  14.441 -0.0481  1.4696  0.3236
16764TIP3   OH271782   5.428   6.154  16.811 -0.9748  0.0338  0.8598
16764TIP3    H171783   5.511   6.128  16.771 -0.8016 -1.3507  2.0264
16764TIP3    H271784   5.378   6.193  16.739  0.1703 -0.3330 -0.1723
16765TIP3   OH271785   0.869   2.020  14.200  0.8308  0.1316 -0.8564
16765TIP3    H171786   0.895   2.004  14.110 -1.3493  0.6814 -1.6515
16765TIP3    H271787   0.874   2.115  14.211  2.5696 -0.0329  0.1447
16766TIP3   OH271788   2.935   3.114  12.009 -0.6418 -0.6580  0.0135
16766TIP3    H171789   2.961   3.135  11.920  0.6620  0.2770  0.5809
16766TIP3    H271790   2.971   3.185  12.062  0.2448 -2.1610  1.5228
16767TIP3   OH271791   4.918   2.970  14.554 -0.5632 -0.5051  0.2747
16767TIP3    H171792   4.988   2.912  14.523 -1.3857 -1.3493 -0.0573
16767TIP3    H271793   4.868   2.990  14.475  0.4939  1.8218  0.1203
16768TIP3   OH271794   5.370   3.474  14.194 -0.4964  0.2371  0.5095
16768TIP3    H171795   5.408   3.505  14.276  0.1729 -1.0865  0.7321
16768TIP3    H271796   5.280   3.450  14.217 -0.4322  0.2384  0.7689
16769TIP3   OH271797   6.344   6.765  15.793  0.6153  0.6806  0.3533
16769TIP3    H171798   6.366   6.833  15.856  0.1715  1.2065 -0.0459
16769TIP3    H271799   6.318   6.689  15.846  1.2985  0.7583  0.7988
16770TIP3   OH271800   3.492   5.320  16.087 -0.0875 -0.5023 -0.2733
16770TIP3    H171801   3.571   5.274  16.115 -0.1300  0.7907  2.2710
16770TIP3    H271802   3.468   5.278  16.004  2.7923 -1.4312 -0.7525
16771TIP3   OH271803   5.395   6.668  15.693 -0.1495  0.3545  0.0657
16771TIP3    H171804   5.435   6.679  15.607 -1.3267 -0.5976 -0.6387
16771TIP3    H271805   5.465   6.636  15.749  0.7460  1.4279 -0.4126
16772TIP3   OH271806   2.550   4.420   1.279 -0.2496  0.4050 -0.8429
16772TIP3    H171807   2.499   4.428   1.359 -0.1139 -1.3448 -0.5261
16772TIP3    H271808   2.553   4.325   1.262  1.8775  0.5229 -1.4884
16773TIP3   OH271809   4.032   0.460   1.024 -0.2172 -0.0389 -0.3552
16773TIP3    H171810   4.037   0.455   0.928 -0.4371 -1.1939 -0.3181
16773TIP3    H271811   3.979   0.384   1.049 -1.0347  0.8306  0.6229
16774TIP3   OH271812   0.211   1.625  13.690  0.1949  0.2480 -0.2069
16774TIP3    H171813   0.135   1.681  13.672  1.3520  2.1064  0.4299
16774TIP3    H271814   0.192   1.544  13.643 -1.7670  0.9862 -0.8075
16775TIP3   OH271815   4.115   0.733   5.649 -0.3530  0.3802 -0.0347
16775TIP3    H171816   4.137   0.684   5.728 -2.6907 -0.1581  0.3361
16775TIP3    H271817   4.163   0.815   5.658  2.4274 -1.1163  0.0656
16776TIP3   OH271818   6.288   5.505  13.729  0.3084 -0.0369 -0.2221
16776TIP3    H171819   6.355   5.572  13.712  1.9603 -1.0039  1.9402
16776TIP3    H271820   6.288   5.451  13.650  0.6186  1.1356 -1.0577
16777TIP3   OH271821   1.197   4.224   6.498 -0.1073  0.1776  0.4141
16777TIP3    H171822   1.154   4.305   6.469  1.4125  2.0554  2.9638
16777TIP3    H271823   1.290   4.239   6.479  0.5793  0.3839  3.5396
16778TIP3   OH271824   3.326   2.285  13.709  0.0479  0.2258  0.3279
16778TIP3    H171825   3.311   2.291  13.615  1.9491 -0.5980 -0.0855
16778TIP3    H271826   3.272   2.354  13.747 -0.9228  0.4327 -1.3297
16779TIP3   OH271827   5.334   0.544   3.680  0.9294 -0.0250 -0.5866
16779TIP3    H171828   5.374   0.610   3.623 -1.4776  2.2394  0.1536
16779TIP3    H271829   5.374   0.559   3.766 -0.0862  0.9993 -0.2660
16780TIP3   OH271830   1.427   6.147   2.391 -0.3539  0.2323  0.3816
16780TIP3    H171831   1.508   6.099   2.376 -1.5031 -1.2546 -1.6555
16780TIP3    H271832   1.387   6.103   2.466  0.1511  0.1642  0.6143
16781TIP3   OH271833   1.633   2.316  12.014  0.1119  0.4088 -0.2174
16781TIP3    H171834   1.561   2.253  12.004  0.8445 -0.2158 -1.8259
16781TIP3    H271835   1.610   2.366  12.092 -0.4658 -1.8794  1.1512
16782TIP3   OH271836   5.141   6.069   3.559  0.3683  0.7667 -0.4643
16782TIP3    H171837   5.064   6.074   3.503 -0.0377 -0.9947 -0.1115
16782TIP3    H271838   5.125   6.136   3.627  0.6203  2.5308 -2.0574
16783TIP3   OH271839   2.222   6.297   2.952  0.3266  0.1773  0.3150
16783TIP3    H171840   2.236   6.390   2.966  1.6897 -0.0763  0.7435
16783TIP3    H271841   2.196   6.264   3.038 -0.7452  0.2448  0.0339
16784TIP3   OH271842   1.196   6.398   1.716 -0.1902  0.0174  0.2035
16784TIP3    H171843   1.168   6.488   1.732 -0.5489 -0.3186  1.5773
16784TIP3    H271844   1.291   6.404   1.705  0.3306  0.2098  3.7234
16785TIP3   OH271845   3.172   6.464  13.639 -0.2511 -0.1435  0.0321
16785TIP3    H171846   3.149   6.551  13.606 -2.1024 -1.5273 -2.6892
16785TIP3    H271847   3.089   6.429  13.673  0.4953 -0.8325  1.2289
16786TIP3   OH271848   0.690   4.778  15.125 -0.7467  0.0746  0.5386
16786TIP3    H171849   0.670   4.686  15.146 -0.9048 -0.5193 -1.9515
16786TIP3    H271850   0.607   4.815  15.097 -0.3779  0.5480  0.0638
16787TIP3   OH271851   4.724   0.543  14.084  0.3103  0.2565 -0.2645
16787TIP3    H171852   4.692   0.527  13.995  0.0834  0.4451 -0.2164
16787TIP3    H271853   4.646   0.570  14.133  0.3850 -0.0879  0.0535
16788TIP3   OH271854   5.187   0.860   2.818 -0.1468 -0.9004 -0.1977
16788TIP3    H171855   5.206   0.952   2.799 -1.8230 -0.3788  0.4781
16788TIP3    H271856   5.128   0.833   2.747 -1.7532 -0.6544  0.9908
16789TIP3   OH271857   1.212   0.476  13.331 -0.0295 -0.1924  0.0969
16789TIP3    H171858   1.201   0.566  13.363  3.5861  0.9304 -1.3903
16789TIP3    H271859   1.143   0.465  13.266 -0.0859  1.8017 -0.2368
16790TIP3   OH271860   5.235   4.375  16.280 -0.0123 -0.1116  0.1079
16790TIP3    H171861   5.281   4.455  16.255 -2.4199  1.3162  0.0362
16790TIP3    H271862   5.190   4.347  16.200 -0.3978 -0.7047  0.5224
16791TIP3   OH271863   1.818   2.643   2.951  0.3936 -0.1699 -0.3977
16791TIP3    H171864   1.728   2.674   2.952 -0.6773 -3.0407 -0.8688
16791TIP3    H271865   1.857   2.686   2.875 -0.4813  1.1975 -0.1113
16792TIP3   OH271866   3.026   1.534  15.683  0.2737 -0.1660  0.1088
16792TIP3    H171867   3.063   1.458  15.638 -0.8904 -1.0753  0.6285
16792TIP3    H271868   2.942   1.549  15.640  1.0646  1.7439 -0.9212
16793TIP3   OH271869   3.964   2.359  13.015 -0.1979  0.1025  0.5158
16793TIP3    H171870   4.022   2.435  13.009 -1.7739  1.6726  3.0529
16793TIP3    H271871   4.009   2.298  13.072  0.0393  0.1983  0.4293
16794TIP3   OH271872   4.903   2.648  16.967  0.3579  0.7355 -0.1352
16794TIP3    H171873   4.900   2.729  16.915  0.4810  1.2564  0.6379
16794TIP3    H271874   4.812   2.629  16.987  0.3245  0.6552 -0.3620
16795TIP3   OH271875   1.697   6.686  13.189  0.7136 -0.2115  0.4827
16795TIP3    H171876   1.770   6.737  13.223  0.3202  0.9123 -0.3241
16795TIP3    H271877   1.620   6.722  13.233 -0.1848  3.0217 -3.1559
16796TIP3   OH271878   6.361   2.463  11.442  0.2714  0.4769  0.3747
16796TIP3    H171879   6.295   2.467  11.512  0.3922  0.7223  0.4745
16796TIP3    H271880   6.444   2.478  11.487  0.8734 -3.2254  0.8826
16797TIP3   OH271881   4.243   3.888  13.223 -0.0517 -0.3975 -0.2178
16797TIP3    H171882   4.291   3.830  13.282  1.3671 -0.2191 -1.1218
16797TIP3    H271883   4.309   3.951  13.193 -1.6067  1.9312  0.9793
16798TIP3   OH271884   2.164   1.082   3.567  0.6692 -0.4627 -0.1542
16798TIP3    H171885   2.147   1.157   3.510  1.0742 -0.4646 -0.2836
16798TIP3    H271886   2.259   1.071   3.564  0.6553 -0.7095  0.2093
16799TIP3   OH271887   2.731   4.251  16.429  0.2167  1.0666 -0.1462
16799TIP3    H171888   2.660   4.209  16.478 -1.1110  1.4015 -1.6616
16799TIP3    H271889   2.793   4.281  16.496 -0.1346 -0.8754  1.1209
16800TIP3   OH271890   6.108   2.256  11.549 -0.1416  0.0675  0.0472
16800TIP3    H171891   6.089   2.322  11.615  0.2241 -0.7530  0.9903
16800TIP3    H271892   6.199   2.231  11.564  0.7762  1.5994 -2.3385
16801TIP3   OH271893   4.130   3.942  16.859  0.1747 -0.0867 -0.2333
16801TIP3    H171894   4.142   3.904  16.946 -0.2222  1.0783  0.3663
16801TIP3    H271895   4.035   3.957  16.853  0.2461  0.1824 -0.7104
16802TIP3   OH271896   1.874   1.540   6.376  0.2052  0.2973 -0.2489
16802TIP3    H171897   1.886   1.477   6.306 -0.5507 -1.4170  1.0828
16802TIP3    H271898   1.780   1.559   6.376  0.3544  1.1053 -0.3383
16803TIP3   OH271899   4.386   4.072   6.963  0.4856  0.4583  0.4667
16803TIP3    H171900   4.474   4.086   6.928  0.9925  0.3369  1.6479
16803TIP3    H271901   4.348   4.005   6.905  0.7690  1.2554 -0.6802
16804TIP3   OH271902   5.561   4.346   2.089 -0.1350  0.6236 -0.3432
16804TIP3    H171903   5.551   4.388   2.175  0.7919 -2.3743  1.3815
16804TIP3    H271904   5.473   4.312   2.070  0.3533 -1.8568  1.3285
16805TIP3   OH271905   0.061   2.820   5.493 -0.1462  0.4165  0.3185
16805TIP3    H171906   0.092   2.746   5.544 -0.0381  1.8906  2.4966
16805TIP3    H271907  -0.010   2.858   5.545 -0.7619  1.3691 -1.1318
16806TIP3   OH271908   5.313   6.372   6.203  0.1693  0.5584 -0.5821
16806TIP3    H171909   5.357   6.313   6.264  0.0205  0.4855 -0.5436
16806TIP3    H271910   5.376   6.387   6.133 -0.4721 -1.2090 -1.6146
16807TIP3   OH271911   5.799   2.441   2.901  0.1642 -0.3181 -0.0393
16807TIP3    H171912   5.827   2.474   2.816 -0.2106 -1.8263 -0.7894
16807TIP3    H271913   5.739   2.370   2.881 -0.0551 -0.6174  1.4994
16808TIP3   OH271914   4.879   5.489   1.960  0.3306  0.2533  0.5500
16808TIP3    H171915   4.866   5.533   1.876 -0.4457 -0.9894 -0.0120
16808TIP3    H271916   4.935   5.414   1.939  1.9701  1.1458  1.5613
16809TIP3   OH271917   2.438   2.720   4.722 -0.2934 -0.3458 -0.2379
16809TIP3    H171918   2.434   2.654   4.654 -0.5020  0.2566 -0.8238
16809TIP3    H271919   2.403   2.677   4.800 -0.4896 -0.8949 -0.6246
16810TIP3   OH271920   2.956   1.165  13.915 -0.8348  0.8815  0.4566
16810TIP3    H171921   3.042   1.128  13.936 -0.6741  1.5301  1.0065
16810TIP3    H271922   2.971   1.215  13.834 -0.9605  0.0917 -0.0626
16811TIP3   OH271923   3.339   5.859  14.870  0.4536 -0.4173 -0.0577
16811TIP3    H171924   3.421   5.895  14.904  0.7269 -0.4043 -0.7254
16811TIP3    H271925   3.325   5.779  14.921  1.6243 -1.1851 -0.9002
16812TIP3   OH271926   6.588   2.183  11.663  0.5799 -0.1575  0.0489
16812TIP3    H171927   6.621   2.112  11.608  1.5720 -0.1272  0.5781
16812TIP3    H271928   6.650   2.254  11.650  0.1330  0.2741  0.2694
16813TIP3   OH271929   6.424   2.164  14.306 -0.1417  0.1804 -0.3225
16813TIP3    H171930   6.393   2.149  14.395 -0.5998  1.0292 -0.3303
16813TIP3    H271931   6.520   2.158  14.314 -0.2059 -0.4930  0.0722
16814TIP3   OH271932   2.738   6.011   5.766  0.3096 -0.8678  0.3542
16814TIP3    H171933   2.673   6.000   5.696 -0.7128  2.7230  0.5647
16814TIP3    H271934   2.704   5.961   5.839 -1.3058 -0.5176 -0.1266
16815TIP3   OH271935   3.323   6.583  13.082  0.2829 -0.0698 -0.1601
16815TIP3    H171936   3.262   6.642  13.125  0.6576 -0.0695  0.3763
16815TIP3    H271937   3.404   6.634  13.073  0.4343 -0.3151 -0.1979
16816TIP3   OH271938   5.528   5.400  14.097  0.0727 -0.0375  0.4181
16816TIP3    H171939   5.545   5.493  14.114  0.7774 -0.0452 -0.1963
16816TIP3    H271940   5.612   5.365  14.067 -0.2688 -0.8028  0.3292
16817TIP3   OH271941   2.921   3.897   3.738  0.1755  0.2271 -0.1819
16817TIP3    H171942   2.921   3.855   3.825  0.4866 -1.2383 -0.8670
16817TIP3    H271943   2.967   3.980   3.752  0.1566  0.0534  1.0679
16818TIP3   OH271944   3.532   1.363   2.227 -0.0919 -0.4698  0.6586
16818TIP3    H171945   3.521   1.434   2.164  0.9432 -1.2673 -0.4637
16818TIP3    H271946   3.625   1.344   2.226 -0.3550 -1.8844  0.8960
16819TIP3   OH271947   3.986   6.367   4.330  0.4428 -0.0007  0.0840
16819TIP3    H171948   4.039   6.340   4.406 -0.7205  1.1528  1.3732
16819TIP3    H271949   4.043   6.427   4.282  1.6156 -1.6194 -0.6420
16820TIP3   OH271950   0.709   5.836   4.679  0.4751  0.0625 -0.4381
16820TIP3    H171951   0.620   5.813   4.705  0.1831 -0.3170 -1.6996
16820TIP3    H271952   0.715   5.930   4.695 -1.4998  0.9268 -3.8869
16821TIP3   OH271953   1.209   5.193   3.582 -0.2030 -0.2618 -0.1997
16821TIP3    H171954   1.282   5.182   3.643 -0.4919  0.9146  0.3955
16821TIP3    H271955   1.134   5.215   3.637 -0.7748 -0.4342 -0.8854
16822TIP3   OH271956   6.393   5.285  12.305  0.9866  0.1560 -0.1758
16822TIP3    H171957   6.474   5.255  12.345  0.7193  0.0357  0.2864
16822TIP3    H271958   6.332   5.294  12.378  0.7218  0.7057 -0.4541
16823TIP3   OH271959   6.624   2.964   3.746  0.3615  0.4454  0.5075
16823TIP3    H171960   6.702   2.932   3.791  2.0719 -0.3169 -2.7406
16823TIP3    H271961   6.590   2.889   3.698  0.0667  1.6797 -1.3431
16824TIP3   OH271962   0.273   5.368   3.106 -0.5498  0.2318 -0.5729
16824TIP3    H171963   0.188   5.329   3.121 -1.1677  1.6441 -0.2181
16824TIP3    H271964   0.262   5.422   3.028 -0.2233  1.0618 -0.0620
16825TIP3   OH271965   3.440   5.473   5.404  0.5809  0.1047  0.1533
16825TIP3    H171966   3.348   5.452   5.422  1.1132 -0.0022  3.5359
16825TIP3    H271967   3.453   5.560   5.441  2.1320 -0.5080  1.1851
16826TIP3   OH271968   4.220   2.275   2.958 -0.0936 -0.2874 -0.1726
16826TIP3    H171969   4.242   2.200   2.902 -0.1963 -0.5837  0.1828
16826TIP3    H271970   4.129   2.295   2.936 -0.5966 -1.3001  0.8902
16827TIP3   OH271971   6.780   3.345   1.343  0.5666 -0.1242 -0.1298
16827TIP3    H171972   6.702   3.315   1.389  1.4833  0.9153  2.2776
16827TIP3    H271973   6.750   3.368   1.256 -1.4661 -1.2979  0.1998
16828TIP3   OH271974   2.971   3.417   1.942  0.2627  0.5769 -0.4847
16828TIP3    H171975   2.921   3.342   1.912  0.9904 -0.2129  0.2196
16828TIP3    H271976   3.061   3.397   1.918  1.0873 -0.6334  2.9870
16829TIP3   OH271977   0.132   3.272   3.323 -0.3438  0.0727 -0.2203
16829TIP3    H171978   0.150   3.312   3.409  0.1491  1.9209 -1.1243
16829TIP3    H271979   0.142   3.178   3.338 -0.3265  0.3387  1.7587
16830TIP3   OH271980   0.620   1.206   2.449  0.0666  1.1521 -0.8519
16830TIP3    H171981   0.567   1.127   2.444  0.9826  0.3496  1.0421
16830TIP3    H271982   0.602   1.253   2.367 -1.6661 -0.2488 -1.3276
16831TIP3   OH271983   2.300   3.653  16.486  0.0044 -0.2092 -0.5573
16831TIP3    H171984   2.327   3.743  16.503 -2.7653  0.7961 -0.9181
16831TIP3    H271985   2.345   3.629  16.405 -0.4187  1.4729 -1.3334
16832TIP3   OH271986   3.853   4.080  12.573 -0.0115  0.3351 -0.1053
16832TIP3    H171987   3.916   4.145  12.603  1.8091 -0.7939 -1.3073
16832TIP3    H271988   3.905   4.018  12.521 -2.1140 -0.6757 -1.1130
16833TIP3   OH271989   4.337   2.057  11.856 -0.6986 -0.4726  0.7152
16833TIP3    H171990   4.279   2.068  11.782  1.0764 -0.7000 -0.7819
16833TIP3    H271991   4.367   2.145  11.877  0.4504 -0.5864 -0.2931
16834TIP3   OH271992   0.705   0.692   2.817  0.3677 -0.2012  0.5599
16834TIP3    H171993   0.658   0.753   2.761  1.4021 -0.1108 -0.2318
16834TIP3    H271994   0.649   0.683   2.895 -1.4187 -0.8498 -0.7382
16835TIP3   OH271995   0.400   0.414  13.532  0.3418  0.2245 -0.5288
16835TIP3    H171996   0.393   0.481  13.600 -1.6457  1.0090 -1.4159
16835TIP3    H271997   0.486   0.429  13.493  1.5195 -0.2305  1.7309
16836TIP3   OH271998   1.961   4.873  13.227  0.1191 -0.1922 -0.2069
16836TIP3    H171999   1.911   4.820  13.166  1.0010 -0.9839 -0.2605
16836TIP3    H272000   2.025   4.919  13.173  1.4255 -1.4981  0.1781
16837TIP3   OH272001   5.567   2.007   3.791 -0.7495 -1.0423 -0.4683
16837TIP3    H172002   5.541   2.087   3.745 -2.6358 -1.1921  0.2099
16837TIP3    H272003   5.484   1.963   3.809  0.0921 -2.0351  1.1774
16838TIP3   OH272004   6.270   5.345  13.128  0.3769  0.1952  0.4490
16838TIP3    H172005   6.328   5.314  13.058  1.3418 -0.6089  1.5527
16838TIP3    H272006   6.183   5.344  13.090  0.9554  0.4803 -0.9604
16839TIP3   OH272007   1.742   0.541  15.817  0.1561 -0.0885  0.4907
16839TIP3    H172008   1.805   0.545  15.745  0.2302  1.6209  0.6008
16839TIP3    H272009   1.795   0.526  15.895  0.1065 -1.6239  0.2516
16840TIP3   OH272010   2.034   4.494   1.020  0.1877 -0.5186 -0.3491
16840TIP3    H172011   2.129   4.489   1.009  0.7368  2.1600  2.1341
16840TIP3    H272012   2.008   4.572   0.970 -0.4877 -0.4496  0.0953
16841TIP3   OH272013   6.314   3.546   4.887  0.5335 -0.5736 -0.1260
16841TIP3    H172014   6.324   3.607   4.815 -4.2352  0.6964 -0.0408
16841TIP3    H272015   6.316   3.600   4.966  0.2014 -1.1434  0.2854
16842TIP3   OH272016   4.280   4.717  13.951 -0.0670 -0.7705  0.1953
16842TIP3    H172017   4.274   4.685  14.041  0.9718  0.0915  0.5773
16842TIP3    H272018   4.196   4.761  13.936 -0.2923 -1.0214  0.6898
16843TIP3   OH272019   2.919   2.629  16.657  0.3132 -0.3342 -0.3868
16843TIP3    H172020   2.879   2.568  16.595 -0.4185 -1.3255  1.0064
16843TIP3    H272021   2.934   2.576  16.736 -2.8985  1.8083  1.9258
16844TIP3   OH272022   3.341   0.012   5.454 -0.4052  0.4922  0.4057
16844TIP3    H172023   3.330   0.051   5.368 -1.6457  0.3925  0.5097
16844TIP3    H272024   3.380   0.082   5.507 -3.8411  2.1635  0.9528
16845TIP3   OH272025   3.640   5.603   4.428  0.6439  0.1292 -0.3563
16845TIP3    H172026   3.724   5.644   4.447  0.0992 -0.1112  3.2732
16845TIP3    H272027   3.656   5.509   4.436  0.0087  0.0941  0.7436
16846TIP3   OH272028   1.443   4.564  15.512 -0.3715 -0.5199 -0.0187
16846TIP3    H172029   1.455   4.472  15.489  1.6532 -0.3279  0.1097
16846TIP3    H272030   1.458   4.568  15.606 -1.6678 -0.2135  0.2019
16847TIP3   OH272031   4.374   1.948  12.378  0.5976  0.1292 -0.3173
16847TIP3    H172032   4.332   1.948  12.292  0.7034 -0.1459 -0.3718
16847TIP3    H272033   4.314   1.896  12.433  0.8671 -0.2781 -0.3990
16848TIP3   OH272034   4.613   4.463  11.506 -0.1928  0.0199  0.2733
16848TIP3    H172035   4.580   4.533  11.562 -0.6671  0.0193 -0.0020
16848TIP3    H272036   4.576   4.482  11.420 -1.2856 -1.2077  0.4387
16849TIP3   OH272037   4.238   0.750  11.546  0.1272 -0.2606 -0.4565
16849TIP3    H172038   4.190   0.798  11.613  0.5852 -0.8486  0.3040
16849TIP3    H272039   4.330   0.768  11.564  0.3350 -1.6866  0.0782
16850TIP3   OH272040   6.432   2.983  13.014  0.6844  0.0143 -0.5159
16850TIP3    H172041   6.401   2.892  13.015  0.7072  0.0072  0.7275
16850TIP3    H272042   6.522   2.977  12.981  0.7424 -0.4341 -0.2838
16851TIP3   OH272043   4.714   0.943  12.249  0.2346  0.3198  0.4797
16851TIP3    H172044   4.756   0.950  12.163  0.0335  2.1050  0.4894
16851TIP3    H272045   4.786   0.921  12.309  0.5220 -0.0788 -0.0053
16852TIP3   OH272046   2.592   5.968  14.899 -1.3837  0.1341 -0.2243
16852TIP3    H172047   2.641   6.038  14.944 -0.8188  1.6733 -2.9994
16852TIP3    H272048   2.660   5.913  14.859 -1.8594 -0.1602 -0.6386
16853TIP3   OH272049   3.138   4.790   3.896  0.3646  0.3592  0.5494
16853TIP3    H172050   3.214   4.751   3.940 -0.3595  0.4208  1.8937
16853TIP3    H272051   3.064   4.771   3.954 -0.5022  1.1066 -0.2799
16854TIP3   OH272052   6.251   6.364   5.918 -0.0112 -0.3230 -0.4632
16854TIP3    H172053   6.207   6.281   5.897  1.3901 -1.0984 -0.4297
16854TIP3    H272054   6.209   6.392   6.000 -0.6154 -0.9124 -0.5547
16855TIP3   OH272055   5.951   1.365   4.499  0.3538  0.9682  0.3787
16855TIP3    H172056   5.962   1.381   4.593  0.7058  0.3257  0.4514
16855TIP3    H272057   5.867   1.320   4.493  0.4727  0.7321  0.4283
16856TIP3   OH272058   3.161   4.373  11.114  0.5944 -0.3694 -0.8028
16856TIP3    H172059   3.114   4.294  11.088 -3.3346  1.6289 -0.4892
16856TIP3    H272060   3.173   4.422  11.032  0.0615  0.1103 -0.6029
16857TIP3   OH272061   1.765   0.351   0.696 -0.3811  0.0048  0.6753
16857TIP3    H172062   1.788   0.327   0.606  1.5933  3.7948 -0.0775
16857TIP3    H272063   1.849   0.353   0.743 -0.7446  2.0274  1.3796
16858TIP3   OH272064   3.247   1.234   2.040 -0.0179  0.3042  0.2962
16858TIP3    H172065   3.223   1.317   1.997  1.0584 -0.3960 -1.7822
16858TIP3    H272066   3.335   1.249   2.073  1.6659 -1.0243 -3.2228
16859TIP3   OH272067   2.091   3.237   2.029 -0.0653 -0.1033 -0.4124
16859TIP3    H172068   2.142   3.317   2.039  0.2181 -0.0809 -1.8230
16859TIP3    H272069   2.155   3.169   2.010 -0.4493 -0.2938 -1.0666
16860TIP3   OH272070   5.297   0.626   2.916  0.0425  0.4707 -0.0075
16860TIP3    H172071   5.282   0.693   2.850 -1.3287  0.9822  0.7908
16860TIP3    H272072   5.359   0.665   2.978  0.5105  0.3773 -0.4104
16861TIP3   OH272073   5.625   6.219   2.960  0.5658  0.3420  0.3576
16861TIP3    H172074   5.568   6.251   3.030  0.7073  0.3452  0.4712
16861TIP3    H272075   5.700   6.181   3.005 -0.6641 -2.2822  0.3522
16862TIP3   OH272076   3.185   4.688  12.150  0.1013 -0.3748  0.5058
16862TIP3    H172077   3.204   4.618  12.213  0.0047 -1.4920 -0.6695
16862TIP3    H272078   3.089   4.691  12.146  0.0791  0.6298  1.3999
16863TIP3   OH272079   0.657   2.231   4.236 -0.0090  0.0120 -0.4241
16863TIP3    H172080   0.627   2.202   4.322 -0.2070 -0.7252 -0.7325
16863TIP3    H272081   0.676   2.324   4.247  0.9671 -0.3071  0.6726
16864TIP3   OH272082   2.233   3.973   4.358  0.9372 -0.0170  0.1221
16864TIP3    H172083   2.254   4.041   4.294  1.3194 -0.4870 -0.2640
16864TIP3    H272084   2.148   3.940   4.330  1.9197 -1.5076 -1.3017
16865TIP3   OH272085   1.042   6.702  16.062  0.4524  0.6003  0.0218
16865TIP3    H172086   1.002   6.788  16.076 -0.0992  0.3504  0.0175
16865TIP3    H272087   0.971   6.640  16.081  0.8557  0.1470  0.0527
16866TIP3   OH272088   2.641   4.694  17.095  0.0511 -0.0501  0.2591
16866TIP3    H172089   2.581   4.768  17.089 -0.1424 -0.2639 -0.6694
16866TIP3    H272090   2.661   4.686  17.188 -0.9764  0.3253  0.5206
16867TIP3   OH272091   1.855   5.840  11.843 -0.1828 -0.1076 -0.4687
16867TIP3    H172092   1.816   5.916  11.887  1.1193  0.2632  0.1171
16867TIP3    H272093   1.886   5.784  11.915  0.4643 -0.3231 -0.9030
16868TIP3   OH272094   1.440   3.030   4.110 -0.1140 -0.4080 -0.4162
16868TIP3    H172095   1.496   3.090   4.159 -0.8499 -0.4866  0.5459
16868TIP3    H272096   1.357   3.031   4.157 -0.9416 -0.2822 -1.8313
16869TIP3   OH272097   2.547   1.703  16.093 -0.8158 -0.0882  0.1543
16869TIP3    H172098   2.557   1.710  16.188  1.3828 -0.8788  0.0543
16869TIP3    H272099   2.488   1.774  16.069 -0.5700  0.7946  1.9956
16870TIP3   OH272100   3.034   0.390  10.220  0.0591 -0.5717  0.1902
16870TIP3    H172101   2.946   0.424  10.206 -0.6026 -1.8903  1.0589
16870TIP3    H272102   3.089   0.469  10.228 -1.0434  0.2554 -0.1890
16871TIP3   OH272103   5.343   5.782   6.291 -0.1616  0.0700 -0.3634
16871TIP3    H172104   5.437   5.794   6.304 -0.3555  1.0663  0.2024
16871TIP3    H272105   5.302   5.840   6.355 -1.1916  2.3646 -2.9047
16872TIP3   OH272106   2.174   4.131  13.514 -0.2922  0.5291  0.4036
16872TIP3    H172107   2.258   4.176  13.513 -0.3894  1.0665  3.8133
16872TIP3    H272108   2.122   4.177  13.580 -2.1364 -1.6463  0.6230
16873TIP3   OH272109   6.318   2.650   2.751 -0.5428  0.1290 -0.4495
16873TIP3    H172110   6.287   2.672   2.663 -0.6172 -0.4187 -0.5631
16873TIP3    H272111   6.408   2.680   2.753 -0.1071 -1.0693 -1.1816
16874TIP3   OH272112   2.806   2.245  10.602 -0.1517 -0.0927  0.4233
16874TIP3    H172113   2.798   2.336  10.571 -1.9745 -0.1132  0.6949
16874TIP3    H272114   2.762   2.193  10.534 -2.4886 -0.3315  1.9989
16875TIP3   OH272115   2.739   4.414  13.688 -0.6060 -0.1406  0.6671
16875TIP3    H172116   2.695   4.434  13.770 -1.5277 -0.7853  0.3413
16875TIP3    H272117   2.813   4.358  13.713 -1.7162 -1.5200  0.9194
16876TIP3   OH272118   1.522   1.481   0.717  0.1964 -0.4238 -0.1270
16876TIP3    H172119   1.608   1.518   0.735 -0.3199  0.7881 -0.0418
16876TIP3    H272120   1.465   1.557   0.703 -0.3142 -1.1728 -2.8332
16877TIP3   OH272121   0.446   1.895   5.613 -0.4881  0.1652 -0.0581
16877TIP3    H172122   0.361   1.865   5.646  0.5821 -1.1107  1.6433
16877TIP3    H272123   0.435   1.989   5.603 -1.1268  0.5690  3.3786
16878TIP3   OH272124   1.482   0.571  15.077 -0.9089 -0.5724 -0.6011
16878TIP3    H172125   1.442   0.511  15.139  1.8048 -1.5876  0.3316
16878TIP3    H272126   1.573   0.542  15.071  0.8885  3.9887  0.6507
16879TIP3   OH272127   0.611   1.025  12.001  0.3829  0.4136  0.3809
16879TIP3    H172128   0.592   0.946  12.052  0.9546  0.1982  0.2653
16879TIP3    H272129   0.535   1.082  12.015 -0.7588 -0.7613 -0.7438
16880TIP3   OH272130   2.765   3.567   3.454  0.1177 -0.2293  0.3671
16880TIP3    H172131   2.828   3.612   3.510  1.4598  0.4328 -1.5447
16880TIP3    H272132   2.679   3.595   3.486  0.8556  0.8889  1.4574
16881TIP3   OH272133   4.755   5.878   0.607  0.7665  0.1012 -0.1109
16881TIP3    H172134   4.739   5.877   0.513  2.4563  0.2553 -0.4390
16881TIP3    H272135   4.849   5.893   0.615  0.5914  0.5484  1.6155
16882TIP3   OH272136   6.233   4.787   6.027 -0.2746  0.0939  0.7947
16882TIP3    H172137   6.241   4.828   6.113  0.5426  0.0371  0.7468
16882TIP3    H272138   6.187   4.853   5.974 -0.6271  0.1985  1.2237
16883TIP3   OH272139   1.240   1.942   5.590  0.1052 -0.2591  0.5369
16883TIP3    H172140   1.335   1.947   5.583  0.3761 -2.2485  1.9558
16883TIP3    H272141   1.210   1.934   5.499  1.2410  0.7996  0.0466
16884TIP3   OH272142   5.732   2.212   2.158  0.0480  0.1800  0.0097
16884TIP3    H172143   5.733   2.258   2.242  1.9382  0.0424  0.1066
16884TIP3    H272144   5.824   2.202   2.135 -0.4032 -0.8215 -1.5294
16885TIP3   OH272145   3.232   2.527  12.855 -0.3242 -0.2120 -0.0423
16885TIP3    H172146   3.151   2.501  12.898 -0.2928  0.5906  0.5078
16885TIP3    H272147   3.228   2.622  12.850  0.5241 -0.1718 -0.1186
16886TIP3   OH272148   5.485   5.896  16.935  0.0256  0.3356  0.3477
16886TIP3    H172149   5.428   5.971  16.921  0.3642  0.7314  1.0089
16886TIP3    H272150   5.459   5.861  17.020 -1.6622 -1.7027 -0.9168
16887TIP3   OH272151   0.028   6.223   1.111  0.1936  0.4643 -0.2603
16887TIP3    H172152   0.049   6.144   1.161  2.1987  1.1183  0.0197
16887TIP3    H272153   0.001   6.191   1.025 -1.9088 -0.6186  0.7217
16888TIP3   OH272154   1.669   4.495  16.366  0.0296  0.5996 -0.0165
16888TIP3    H172155   1.748   4.546  16.382 -0.9358  2.6369 -1.4083
16888TIP3    H272156   1.635   4.475  16.454  1.8554 -0.0484  0.5992
16889TIP3   OH272157   5.925   6.413   1.585  0.6692 -0.1718  0.2445
16889TIP3    H172158   5.976   6.490   1.612  2.4165 -0.7702 -1.1917
16889TIP3    H272159   5.930   6.413   1.490 -1.7397 -0.5039  0.0669
16890TIP3   OH272160   4.353   6.229  11.313  0.4420  0.2452 -0.1833
16890TIP3    H172161   4.445   6.202  11.319  0.2403 -0.3855  0.1522
16890TIP3    H272162   4.355   6.324  11.325  1.0798  0.2738 -0.4984
16891TIP3   OH272163   0.702   6.328   0.127 -0.0523 -0.2674 -0.1077
16891TIP3    H172164   0.762   6.254   0.113  0.5861  0.4596 -1.4685
16891TIP3    H272165   0.750   6.387   0.184 -0.2935 -0.5989  0.4403
16892TIP3   OH272166   0.695   4.669  15.407  0.2155  0.1417 -0.1932
16892TIP3    H172167   0.757   4.600  15.429 -1.1694 -0.7895  1.0207
16892TIP3    H272168   0.748   4.739  15.370  1.5107 -2.1293 -2.9558
16893TIP3   OH272169   0.919   5.207   3.588  0.0261 -0.0384  0.8152
16893TIP3    H172170   0.871   5.203   3.671  1.6138  0.3250  1.7771
16893TIP3    H272171   0.884   5.133   3.537 -2.4135  0.9081  0.9648
16894TIP3   OH272172   3.046   4.388  12.159 -0.5930 -0.1805 -0.3436
16894TIP3    H172173   3.051   4.293  12.170 -1.6983 -0.4626 -1.9933
16894TIP3    H272174   3.078   4.423  12.242 -0.8689 -1.9967  0.5824
16895TIP3   OH272175   2.891   4.700  14.286  0.3186  0.6807 -0.2545
16895TIP3    H172176   2.975   4.682  14.327  1.3456 -0.7819 -2.7602
16895TIP3    H272177   2.862   4.615  14.254 -1.2862  1.4496 -0.9388
16896TIP3   OH272178   6.658   6.076  11.059 -0.0184  0.5473 -0.2991
16896TIP3    H172179   6.733   6.091  11.000  0.4375  0.8022  0.3406
16896TIP3    H272180   6.683   6.000  11.111 -0.9821 -0.4987 -1.3238
16897TIP3   OH272181   5.106   0.265  15.397  0.5378  0.1253 -0.2194
16897TIP3    H172182   5.185   0.302  15.437  0.7938 -0.1586 -0.4586
16897TIP3    H272183   5.136   0.229  15.313  0.1747 -0.0824 -0.2633
16898TIP3   OH272184   5.440   0.332  17.218 -0.0148 -0.3094  0.2461
16898TIP3    H172185   5.401   0.302  17.300 -2.5309 -0.1767 -0.7889
16898TIP3    H272186   5.364   0.354  17.163  1.5084 -1.4724 -2.5185
16899TIP3   OH272187   2.004   0.655  13.211 -0.0838 -0.0227 -0.0191
16899TIP3    H172188   2.082   0.633  13.262  1.6674  1.2404 -1.9956
16899TIP3    H272189   2.035   0.718  13.146 -2.7558  0.4238 -0.9681
16900TIP3   OH272190   1.747   1.431  11.451  0.0317 -0.2024 -0.2739
16900TIP3    H172191   1.810   1.493  11.416 -0.0686  0.7225  1.0974
16900TIP3    H272192   1.686   1.484  11.502 -0.7413 -1.2986 -0.0086
16901TIP3   OH272193   5.483   4.283   1.060 -0.3209 -0.8986  0.0209
16901TIP3    H172194   5.505   4.376   1.060  2.7274 -1.5422  0.5349
16901TIP3    H272195   5.387   4.282   1.069 -0.4081  2.1473  0.6216
16902TIP3   OH272196   4.040   0.371   6.292 -0.2901  0.0569 -0.3398
16902TIP3    H172197   3.964   0.370   6.350  0.6603 -0.5904  0.9771
16902TIP3    H272198   4.077   0.283   6.301  1.4055  0.7751  0.2023
16903TIP3   OH272199   2.794   0.565  16.183  0.1785  0.4755  0.1230
16903TIP3    H172200   2.883   0.535  16.168 -0.7665 -1.5872 -1.9927
16903TIP3    H272201   2.770   0.530  16.269  1.8504  2.4230  1.4688
16904TIP3   OH272202   3.141   1.579  11.251  0.0481  0.4170  0.3007
16904TIP3    H172203   3.119   1.645  11.185 -1.1629  0.5189  0.7865
16904TIP3    H272204   3.147   1.497  11.203  0.4967  0.6961 -0.1335
16905TIP3   OH272205   1.533   6.738  13.451  0.2566 -0.0565  0.2165
16905TIP3    H172206   1.543   6.817  13.397 -2.5265  0.4594  0.3351
16905TIP3    H272207   1.489   6.768  13.530 -1.5822 -1.7976 -0.0634
16906TIP3   OH272208   5.546   4.041  16.325  0.3069 -0.4471  0.1537
16906TIP3    H172209   5.620   4.051  16.265  0.9081  2.3222  1.1970
16906TIP3    H272210   5.586   4.012  16.407  0.0905 -0.1598  0.3644
16907TIP3   OH272211   4.930   6.782  12.685 -0.1051 -0.3976  0.2532
16907TIP3    H172212   4.883   6.738  12.756 -0.3719  0.7405  0.8045
16907TIP3    H272213   5.022   6.778  12.710 -0.2765  0.8202  1.1593
16908TIP3   OH272214   3.632   2.159  14.280  0.1552  0.4383  0.1202
16908TIP3    H172215   3.688   2.119  14.213 -1.0318 -1.6592  0.2921
16908TIP3    H272216   3.601   2.240  14.239 -0.3775 -0.6823 -1.8515
16909TIP3   OH272217   5.984   6.330   2.844 -0.8903 -0.1047  0.3345
16909TIP3    H172218   5.953   6.285   2.923 -0.9438 -2.1818 -0.7964
16909TIP3    H272219   5.908   6.380   2.814 -0.6074  1.4320  2.0375
16910TIP3   OH272220   3.625   1.852   4.099 -0.4795  0.1005 -0.2946
16910TIP3    H172221   3.602   1.765   4.133  1.3616 -1.1678 -2.0858
16910TIP3    H272222   3.646   1.902   4.177  2.9540 -2.5013  0.6968
16911TIP3   OH272223   1.147   4.339   0.285 -0.4653 -0.2189 -0.3560
16911TIP3    H172224   1.108   4.300   0.208 -1.9467 -0.7810  0.6362
16911TIP3    H272225   1.241   4.344   0.265 -0.8893  0.2652 -2.4198
16912TIP3   OH272226   2.169   1.441   4.942 -0.4142  0.3067 -0.0078
16912TIP3    H172227   2.228   1.366   4.953 -0.5036  0.2889  0.3806
16912TIP3    H272228   2.114   1.439   5.020 -0.0410  1.1123  0.2843
16913TIP3   OH272229   4.982   2.762  14.843 -0.2019  0.3621 -0.1534
16913TIP3    H172230   5.075   2.745  14.829 -0.2422  1.3361 -1.7952
16913TIP3    H272231   4.940   2.678  14.825  0.2067  0.3925 -1.3630
16914TIP3   OH272232   6.150   0.864  12.026 -0.3248  0.6035  0.5938
16914TIP3    H172233   6.143   0.897  11.937 -2.2496 -1.9605 -0.3079
16914TIP3    H272234   6.195   0.934  12.074 -0.7399  2.7723 -1.9714
16915TIP3   OH272235   4.475   0.173  16.966  0.1581  0.1053 -0.0427
16915TIP3    H172236   4.561   0.132  16.982  1.1985  2.2023  0.0565
16915TIP3    H272237   4.427   0.160  17.047 -0.0298 -1.9563 -0.4313
16916TIP3   OH272238   3.019   6.186   1.879 -0.2717  0.2062  0.1753
16916TIP3    H172239   3.017   6.174   1.974  1.7521  1.0017  0.3709
16916TIP3    H272240   2.969   6.112   1.845 -0.3355 -0.5682  1.8379
16917TIP3   OH272241   6.310   2.329   1.537  0.0729  0.1036 -0.1522
16917TIP3    H172242   6.221   2.293   1.534  0.4903 -1.0620  0.8369
16917TIP3    H272243   6.362   2.262   1.581  1.6198  0.4419 -1.3755
16918TIP3   OH272244   5.431   0.685   0.069 -0.1594  0.1382  0.0985
16918TIP3    H172245   5.345   0.643   0.081 -0.9989  1.5992 -0.5929
16918TIP3    H272246   5.480   0.623   0.015 -1.5432  0.1974 -1.3095
16919TIP3   OH272247   3.922   2.379  12.297  0.3201 -0.2929  0.2175
16919TIP3    H172248   3.875   2.379  12.214  0.2538  1.4791  0.2206
16919TIP3    H272249   3.937   2.286  12.316 -0.6144 -0.7707 -1.2162
16920TIP3   OH272250   2.806   2.706  16.351 -0.0284  0.6287  0.1352
16920TIP3    H172251   2.804   2.639  16.419  3.4534  0.1795 -0.0074
16920TIP3    H272252   2.787   2.659  16.270 -1.4839  0.6373  0.4473
16921TIP3   OH272253   6.553   2.142   6.471 -0.0933  0.5256  0.1860
16921TIP3    H172254   6.506   2.177   6.546  0.4600  0.5375  0.5313
16921TIP3    H272255   6.580   2.055   6.498 -0.3051  0.3431 -0.1796
16922TIP3   OH272256   5.692   6.326   2.134 -0.1848  0.1639 -0.0215
16922TIP3    H172257   5.642   6.354   2.210  1.9771  0.9595  1.1845
16922TIP3    H272258   5.752   6.398   2.116  1.9067 -1.4911 -0.1350
16923TIP3   OH272259   6.423   3.649   4.636 -0.1609  0.1406  0.3587
16923TIP3    H172260   6.446   3.737   4.606 -0.7183  0.1247 -0.1313
16923TIP3    H272261   6.478   3.591   4.584  0.3476  0.2021  0.8184
16924TIP3   OH272262   1.534   0.000   3.404  0.6899  0.6744 -0.3959
16924TIP3    H172263   1.616   0.020   3.449  0.4833  0.2231  0.1874
16924TIP3    H272264   1.557   0.005   3.311  1.1204  1.5935 -0.2554
16925TIP3   OH272265   5.320   0.875  15.801  0.1425 -0.4325 -0.3813
16925TIP3    H172266   5.225   0.881  15.800 -0.0151 -2.3683 -1.7268
16925TIP3    H272267   5.339   0.785  15.828  1.6123  0.0335  0.2655
16926TIP3   OH272268   0.915   1.666  11.444  0.0408  1.0208 -0.0493
16926TIP3    H172269   0.869   1.748  11.462 -0.5471  1.0605 -1.5696
16926TIP3    H272270   0.856   1.618  11.385  0.3013 -0.5767  0.9151
16927TIP3   OH272271   5.633   3.946  15.536  0.0570  0.2494 -0.2439
16927TIP3    H172272   5.603   4.011  15.600  0.7885 -0.7479  1.1905
16927TIP3    H272273   5.554   3.900  15.510 -0.0933 -0.3223  1.1346
16928TIP3   OH272274   2.215   5.110   3.047  0.0171  0.3022 -0.0183
16928TIP3    H172275   2.201   5.053   3.122  0.2683 -1.0229 -0.9353
16928TIP3    H272276   2.289   5.166   3.073 -0.1312  0.1100  0.8415
16929TIP3   OH272277   0.185   5.316   5.046 -0.8425  0.2376  0.4579
16929TIP3    H172278   0.267   5.330   5.094  0.6816  0.4755 -2.0315
16929TIP3    H272279   0.163   5.225   5.064  1.7877 -0.8698 -1.2584
16930TIP3   OH272280   1.815   5.374  14.526 -0.1907 -0.5808  0.4677
16930TIP3    H172281   1.837   5.294  14.574  1.8227 -0.8370 -0.7912
16930TIP3    H272282   1.791   5.344  14.439  1.7937  0.1836 -0.4093
16931TIP3   OH272283   5.961   5.436   1.970 -0.2370 -0.3378  0.0328
16931TIP3    H172284   6.011   5.511   1.938 -1.9333  0.5746 -0.6119
16931TIP3    H272285   5.881   5.474   2.007 -0.9820 -1.8069  0.0116
16932TIP3   OH272286   3.916   3.325   0.078  0.5976 -0.1688  0.2905
16932TIP3    H172287   3.972   3.401   0.061 -1.9114  1.5184 -1.1148
16932TIP3    H272288   3.940   3.262   0.010 -1.0857  1.7381 -2.2574
16933TIP3   OH272289   5.587   4.003   4.043  0.1871  0.1964 -0.2227
16933TIP3    H172290   5.547   4.001   3.956  1.4707  2.7550 -0.9755
16933TIP3    H272291   5.546   4.077   4.087  2.2190  1.3299 -0.1148
16934TIP3   OH272292   0.403   6.793  16.126 -0.0299  0.4121  0.5742
16934TIP3    H172293   0.434   6.729  16.062 -2.5245 -0.8266  0.4786
16934TIP3    H272294   0.415   6.751  16.211  0.4354  0.7742  0.6899
16935TIP3   OH272295   5.721   2.066  11.795  0.2341  0.0759 -0.2083
16935TIP3    H172296   5.709   2.133  11.863  2.5825  1.5969 -1.1682
16935TIP3    H272297   5.814   2.044  11.799  0.0181 -1.2962 -1.6248
16936TIP3   OH272298   6.657   3.764  14.128 -0.2213 -0.1881  0.0373
16936TIP3    H172299   6.731   3.708  14.107  0.4620  0.9863 -0.7727
16936TIP3    H272300   6.584   3.703  14.140  0.4042 -1.2360 -1.2127
16937TIP3   OH272301   5.876   0.981  16.584  1.2974  0.0747 -0.4269
16937TIP3    H172302   5.885   0.979  16.489  1.5311 -0.0390 -0.4031
16937TIP3    H272303   5.804   0.921  16.603 -0.0843  1.5879 -0.6797
16938TIP3   OH272304   2.914   2.628  15.630 -0.0344  0.0907  0.4391
16938TIP3    H172305   2.838   2.578  15.657 -0.2318  0.4169  0.4900
16938TIP3    H272306   2.935   2.594  15.543  0.7756 -1.1545  1.0892
16939TIP3   OH272307   5.175   1.557   4.643 -0.2230  0.0316 -0.0745
16939TIP3    H172308   5.104   1.543   4.579 -1.4873 -0.1303  1.3165
16939TIP3    H272309   5.242   1.604   4.593  0.1289 -2.5563 -2.3347
16940TIP3   OH272310   5.134   0.838   1.173 -0.8952 -0.1588 -0.0052
16940TIP3    H172311   5.104   0.924   1.144  0.5386  0.0028 -1.0757
16940TIP3    H272312   5.226   0.850   1.195 -1.3698 -0.7723  2.6816
16941TIP3   OH272313   3.400   1.432   2.902  0.3341  0.3490 -0.0468
16941TIP3    H172314   3.398   1.356   2.960  1.0085  0.3271 -0.0460
16941TIP3    H272315   3.430   1.504   2.958 -1.8139  0.9946  0.3645
16942TIP3   OH272316   3.697   0.664  16.748  0.2295  0.1062 -0.3065
16942TIP3    H172317   3.664   0.651  16.837  1.7821 -1.0812  0.1396
16942TIP3    H272318   3.620   0.688  16.697 -0.4218  2.6957  1.6944
16943TIP3   OH272319   4.622   2.801  14.630 -0.2845 -0.4955 -0.2144
16943TIP3    H172320   4.527   2.797  14.628 -0.3156  0.2411 -0.9746
16943TIP3    H272321   4.643   2.888  14.594  0.6608 -0.5820  0.0997
16944TIP3   OH272322   0.687   4.496  14.711 -0.0050 -0.8134 -0.1299
16944TIP3    H172323   0.750   4.439  14.667 -1.5161 -2.6386 -0.0154
16944TIP3    H272324   0.606   4.445  14.715 -1.1103  0.9215  0.9933
16945TIP3   OH272325   5.553   5.289   1.319  0.3534  0.5844  0.2869
16945TIP3    H172326   5.568   5.195   1.310 -2.1260  0.2048 -0.8212
16945TIP3    H272327   5.632   5.329   1.283  0.8996 -1.1009 -0.5127
16946TIP3   OH272328   0.524   2.041  11.854  0.2393  0.2330 -0.6628
16946TIP3    H172329   0.462   2.037  11.782 -0.6114  0.0721  0.0682
16946TIP3    H272330   0.610   2.033  11.812 -0.0595  2.6032 -1.9289
16947TIP3   OH272331   3.956   1.650  13.536 -0.4347 -0.1170 -0.1353
16947TIP3    H172332   3.914   1.665  13.451 -1.3254  2.3634  0.6475
16947TIP3    H272333   3.883   1.633  13.596  0.1438 -1.3126  0.2534
16948TIP3   OH272334   3.303   5.108  11.921  0.5016 -0.0594 -0.3737
16948TIP3    H172335   3.344   5.108  11.835  1.2866  0.1300 -0.0092
16948TIP3    H272336   3.285   5.016  11.940 -0.2499 -0.0480 -1.0014
16949TIP3   OH272337   0.206   5.193   1.900 -0.5183 -0.2404  0.5174
16949TIP3    H172338   0.132   5.133   1.897  0.0241 -0.8968 -0.0410
16949TIP3    H272339   0.277   5.142   1.938 -0.4565  0.5167  1.4588
16950TIP3   OH272340   5.966   3.471  12.812  0.3635  0.4963 -0.2583
16950TIP3    H172341   6.058   3.482  12.834  0.3586  4.8115 -1.4643
16950TIP3    H272342   5.920   3.533  12.868 -1.4301  0.6099 -1.7528
16951TIP3   OH272343   2.078   0.822  10.722  0.4232 -0.0684 -0.6774
16951TIP3    H172344   2.112   0.885  10.659  0.5089  1.0586  0.4569
16951TIP3    H272345   1.993   0.796  10.687  0.5204  0.4478 -1.3102
16952TIP3   OH272346   1.727   2.837  12.615  0.2293  0.0239 -0.2590
16952TIP3    H172347   1.728   2.798  12.528 -2.4462 -1.2178  0.1611
16952TIP3    H272348   1.804   2.801  12.658  1.2463  0.1681 -1.8888
16953TIP3   OH272349   4.769   1.157   4.587 -0.3721 -0.1699  0.4612
16953TIP3    H172350   4.747   1.071   4.623 -3.4732  0.5714  0.6382
16953TIP3    H272351   4.799   1.207   4.663  1.7082 -1.1141  0.3105
16954TIP3   OH272352   2.564   1.670  14.350  0.4121 -0.1727 -0.7803
16954TIP3    H172353   2.475   1.653  14.379  0.7198  0.8049  0.8741
16954TIP3    H272354   2.573   1.621  14.268 -0.8817 -2.1789  0.2000
16955TIP3   OH272355   3.809   2.906  14.287  0.8027 -0.1988  0.3298
16955TIP3    H172356   3.772   2.841  14.227 -1.4277  1.4912 -0.2742
16955TIP3    H272357   3.863   2.962  14.230 -0.5545  0.8332 -0.0213
16956TIP3   OH272358   1.522   3.347  13.062  0.0145  0.4440  0.5676
16956TIP3    H172359   1.533   3.257  13.030  3.0569  0.3898  1.4277
16956TIP3    H272360   1.440   3.345  13.112 -0.5446 -1.5401 -0.3331
16957TIP3   OH272361   6.746   3.285  14.333  0.5550 -0.2140 -0.3085
16957TIP3    H172362   6.777   3.375  14.344 -0.3126  0.1984 -1.0924
16957TIP3    H272363   6.657   3.287  14.366 -0.2365 -0.2293 -2.3023
16958TIP3   OH272364   5.359   5.977   0.512  0.2764 -0.1399  0.4065
16958TIP3    H172365   5.326   6.061   0.480  1.2251  0.2846  0.5018
16958TIP3    H272366   5.433   5.957   0.455  1.3263  0.1040  1.6482
16959TIP3   OH272367   6.173   2.708  15.502 -0.3475  0.3305  0.2390
16959TIP3    H172368   6.146   2.669  15.419  0.5310 -0.9261  0.5079
16959TIP3    H272369   6.092   2.741  15.541 -1.8890 -4.1639  1.4862
16960TIP3   OH272370   4.763   3.293  17.058 -0.3128  0.3047 -0.1138
16960TIP3    H172371   4.720   3.208  17.066  0.0580  0.2340  1.5273
16960TIP3    H272372   4.692   3.355  17.042 -0.5836 -0.2976 -1.3690
16961TIP3   OH272373   2.575   3.781   4.764 -0.0592  0.3165 -0.7599
16961TIP3    H172374   2.612   3.869   4.766 -1.7156  1.0648  1.3156
16961TIP3    H272375   2.487   3.792   4.728 -0.8405 -0.1582  0.8689
16962TIP3   OH272376   3.264   4.829   1.215  0.2916  0.3590 -0.5636
16962TIP3    H172377   3.226   4.916   1.226  0.1338  0.1394  0.9094
16962TIP3    H272378   3.196   4.779   1.170  0.3878  0.9901 -1.4284
16963TIP3   OH272379   3.913   0.952   4.457  0.3970 -0.5597  0.4186
16963TIP3    H172380   3.943   1.013   4.389 -0.5075  2.9911  2.8820
16963TIP3    H272381   3.817   0.963   4.457  0.4334  0.3059  2.7695
16964TIP3   OH272382   0.838   0.720   1.135 -0.3130  0.2759 -0.1531
16964TIP3    H172383   0.907   0.726   1.201  1.5645 -2.1465 -1.7390
16964TIP3    H272384   0.833   0.808   1.097  0.3714  1.0309  1.4283
16965TIP3   OH272385   1.611   4.440   3.335 -0.2483 -0.0011  0.0010
16965TIP3    H172386   1.602   4.508   3.269  0.4756  0.6301  0.5313
16965TIP3    H272387   1.526   4.437   3.379 -0.6976 -0.3507 -0.8665
16966TIP3   OH272388   6.527   4.197  11.061 -0.5018  0.2193  0.1090
16966TIP3    H172389   6.442   4.156  11.078 -0.6976 -0.2084 -1.6576
16966TIP3    H272390   6.546   4.173  10.970  1.1646  0.9370  0.2488
16967TIP3   OH272391   0.666   6.502   2.404 -0.2183 -0.9112 -0.0138
16967TIP3    H172392   0.666   6.406   2.410  0.2655 -0.9578 -0.6899
16967TIP3    H272393   0.742   6.522   2.348  0.7556 -0.0480  1.5473
16968TIP3   OH272394   2.077   5.241  12.777  0.3436  0.2228  0.0377
16968TIP3    H172395   2.132   5.163  12.790  2.5318  1.8001  0.9608
16968TIP3    H272396   2.070   5.250  12.682  0.2827 -0.9392 -0.0854
16969TIP3   OH272397   5.800   0.062  16.890  0.5798 -0.0284  0.7963
16969TIP3    H172398   5.823   0.125  16.822 -0.3686 -0.7983 -0.2740
16969TIP3    H272399   5.720   0.098  16.930 -1.5443 -1.7156 -1.5810
16970TIP3   OH272400   4.437   1.522   0.637  0.3380  0.4012 -0.3232
16970TIP3    H172401   4.506   1.587   0.622  0.0214  0.7959 -0.0723
16970TIP3    H272402   4.361   1.573   0.664  0.0070 -0.0524 -0.3861
16971TIP3   OH272403   2.516   1.427   2.961  0.4453 -0.3782  0.4355
16971TIP3    H172404   2.478   1.375   3.032  1.2176  2.0082  2.7596
16971TIP3    H272405   2.443   1.477   2.925 -0.1767 -2.4544 -1.3750
16972TIP3   OH272406   1.087   1.296  17.169  0.0086  0.2777 -0.1993
16972TIP3    H172407   1.013   1.357  17.165  0.6137  0.9742 -0.9885
16972TIP3    H272408   1.164   1.351  17.183  0.4785 -0.3749 -0.1465
16973TIP3   OH272409   6.076   2.144   1.532 -0.4251 -0.2132  0.0621
16973TIP3    H172410   6.149   2.083   1.522  0.4959  1.1659 -2.3568
16973TIP3    H272411   6.016   2.099   1.592  1.9478 -1.7829  1.4351
16974TIP3   OH272412   2.713   3.904   0.806  0.3815 -0.2744 -0.0080
16974TIP3    H172413   2.721   3.987   0.853 -1.6974  0.3381 -0.6371
16974TIP3    H272414   2.791   3.900   0.751  0.5592  1.2113  0.1127
16975TIP3   OH272415   2.761   6.601   0.471  0.1721  0.0001  0.2464
16975TIP3    H172416   2.837   6.569   0.423 -1.0343 -1.4051 -0.8403
16975TIP3    H272417   2.702   6.525   0.475 -1.4984  1.2441  0.3287
16976TIP3   OH272418   1.512   4.730   1.556  0.0332  0.1313 -0.3757
16976TIP3    H172419   1.558   4.652   1.586 -1.4297  0.2920  2.6225
16976TIP3    H272420   1.425   4.699   1.531 -0.8086  0.8048  1.5326
16977TIP3   OH272421   1.917   0.868  16.648 -0.1855  0.6140 -0.4689
16977TIP3    H172422   1.832   0.901  16.619 -1.7382 -3.6077 -1.3510
16977TIP3    H272423   1.967   0.856  16.567 -0.0230 -0.0701 -0.2683
16978TIP3   OH272424   4.374   0.314   5.217  0.1887 -0.1652  0.2893
16978TIP3    H172425   4.296   0.366   5.200  0.9698  0.9394 -0.0198
16978TIP3    H272426   4.437   0.344   5.151  0.9813 -0.7983  0.7463
16979TIP3   OH272427   0.121   1.385  15.829  0.1518  0.3619 -0.6256
16979TIP3    H172428   0.122   1.375  15.924 -0.1499  0.7620 -0.5770
16979TIP3    H272429   0.052   1.450  15.812  0.5461  0.6750 -1.0764
16980TIP3   OH272430   5.249   5.881   5.265 -0.0312  0.0550 -0.3514
16980TIP3    H172431   5.181   5.824   5.303 -1.7687  1.6460 -0.9503
16980TIP3    H272432   5.273   5.839   5.183  0.0033 -0.7097  0.0380
16981TIP3   OH272433   2.304   2.605   5.969 -1.0662 -0.0129  0.5639
16981TIP3    H172434   2.368   2.671   5.995  0.8397 -0.9983 -1.3079
16981TIP3    H272435   2.282   2.627   5.879 -0.5484 -1.7500 -0.0317
16982TIP3   OH272436   5.752   6.176   5.019  0.1855 -0.2859 -0.0330
16982TIP3    H172437   5.691   6.156   4.948  1.1714  1.1397 -1.3679
16982TIP3    H272438   5.702   6.162   5.099 -2.0891  1.2825 -1.0747
16983TIP3   OH272439   1.434   1.234   2.418 -0.1344  0.5447 -0.4388
16983TIP3    H172440   1.452   1.171   2.347 -1.7445  0.9559 -1.2390
16983TIP3    H272441   1.344   1.216   2.444  0.1727  0.9485  0.9776
16984TIP3   OH272442   1.312   3.989   5.373 -0.3376  0.4573  0.8697
16984TIP3    H172443   1.268   3.908   5.398 -2.2900  0.6103 -1.6720
16984TIP3    H272444   1.263   4.058   5.417  0.1593  0.3768  1.5563
16985TIP3   OH272445   3.654   3.696   5.823  0.4128  0.1779 -0.1040
16985TIP3    H172446   3.712   3.702   5.898  0.5050  0.9443 -0.2344
16985TIP3    H272447   3.704   3.648   5.758  0.2686 -0.6428  0.3754
16986TIP3   OH272448   1.139   1.137  13.399 -0.3071  0.3313 -0.0632
16986TIP3    H172449   1.088   1.126  13.319 -3.0698 -0.1299  1.6419
16986TIP3    H272450   1.130   1.230  13.421 -0.5425  0.2152  0.3315
16987TIP3   OH272451   0.956   3.625  13.992  0.4019 -0.0780  0.0218
16987TIP3    H172452   1.018   3.553  13.990 -0.2885 -0.6957  0.4319
16987TIP3    H272453   0.911   3.616  14.076 -1.5792 -0.8049 -1.0729
16988TIP3   OH272454   6.488   0.241   5.342  0.5720 -0.1021  0.0924
16988TIP3    H172455   6.457   0.174   5.280  2.3208 -0.7830 -0.0868
16988TIP3    H272456   6.560   0.200   5.389 -0.4550  0.5371  2.3665
16989TIP3   OH272457   5.798   1.407  17.018  0.3842 -0.0367 -0.0986
16989TIP3    H172458   5.777   1.314  17.010  0.3796 -0.0795  0.4200
16989TIP3    H272459   5.828   1.418  17.108 -3.6184  1.2586  1.2661
16990TIP3   OH272460   0.309   0.134   0.840  0.0978 -0.0593  0.1072
16990TIP3    H172461   0.390   0.148   0.790 -0.1714  0.8092 -0.1024
16990TIP3    H272462   0.290   0.220   0.877 -0.9368 -0.1671 -0.1580
16991TIP3   OH272463   0.894   0.767   5.074 -0.1770 -0.2507 -0.0696
16991TIP3    H172464   0.843   0.847   5.078  0.7903  0.3624  0.5997
16991TIP3    H272465   0.905   0.749   4.980 -0.9049  0.0584 -0.2153
16992TIP3   OH272466   4.190   6.607   1.098  0.0489 -0.1521  0.3335
16992TIP3    H172467   4.200   6.701   1.117 -1.2015  0.2889 -0.9631
16992TIP3    H272468   4.205   6.564   1.182  1.8628  1.0944  0.7257
16993TIP3   OH272469   0.587   6.338  16.977 -0.0027  0.1208  0.2805
16993TIP3    H172470   0.553   6.417  17.020 -0.7319  1.6115 -2.7498
16993TIP3    H272471   0.514   6.306  16.925  0.8389 -1.5173  0.0550
16994TIP3   OH272472   4.983   6.548  11.447  0.0412 -0.2428 -0.1179
16994TIP3    H172473   4.891   6.522  11.449  0.2939 -1.1998 -0.1182
16994TIP3    H272474   5.022   6.492  11.380  0.7636 -0.3396  0.3665
16995TIP3   OH272475   0.835   4.798  12.712 -0.6160 -0.0450 -0.5969
16995TIP3    H172476   0.923   4.818  12.681 -0.6749  1.3409  0.0526
16995TIP3    H272477   0.848   4.757  12.797 -0.6055  0.1034 -0.5279
16996TIP3   OH272478   1.602   5.262   1.904  0.3136 -0.6235  0.5515
16996TIP3    H172479   1.515   5.233   1.880  1.1744 -2.7289 -0.2577
16996TIP3    H272480   1.617   5.340   1.850 -2.1713  1.7789  2.9953
16997TIP3   OH272481   3.004   2.747   0.699 -0.2169  0.3555 -0.3112
16997TIP3    H172482   3.018   2.671   0.755  0.8402  0.6093 -0.2151
16997TIP3    H272483   2.917   2.779   0.723 -0.3470 -0.3505  0.1954
16998TIP3   OH272484   6.353   1.659  12.428 -0.1661 -0.0430  0.2685
16998TIP3    H172485   6.274   1.703  12.396  0.6664  1.5995  0.4249
16998TIP3    H272486   6.373   1.594  12.360 -0.4592  0.9616 -0.8031
16999TIP3   OH272487   1.960   0.768  11.858  0.7028 -0.2398  0.0975
16999TIP3    H172488   2.038   0.752  11.805  1.1575 -1.1009  0.9960
16999TIP3    H272489   1.994   0.788  11.946 -0.0743 -3.4152  1.2524
17000TIP3   OH272490   0.618   4.235  11.452 -0.4063  0.3290  0.1020
17000TIP3    H172491   0.631   4.315  11.401 -1.1356 -1.2097 -2.7727
17000TIP3    H272492   0.581   4.173  11.388 -0.7878 -1.9968  2.4361
17001TIP3   OH272493   5.393   0.333  13.042 -0.5860 -0.1142  0.0014
17001TIP3    H172494   5.474   0.366  13.081 -1.1476  0.3102  0.8291
17001TIP3    H272495   5.323   0.375  13.092 -1.3220 -1.1303 -0.1440
17002TIP3   OH272496   1.885   2.408  17.181 -0.3849 -0.4233  0.4177
17002TIP3    H172497   1.888   2.491  17.229 -0.6493  1.0846 -2.0249
17002TIP3    H272498   1.832   2.351  17.235 -1.1763  1.3764  1.6305
17003TIP3   OH272499   2.685   2.630   0.484 -0.3825  0.1881 -0.7948
17003TIP3    H172500   2.653   2.716   0.511 -1.3509 -0.3838 -0.0605
17003TIP3    H272501   2.706   2.585   0.566 -0.5405 -0.5223 -1.1367
17004TIP3   OH272502   4.153   4.478  14.853 -0.3676  0.2860 -0.0769
17004TIP3    H172503   4.060   4.492  14.869 -0.4129 -0.0138 -0.0700
17004TIP3    H272504   4.195   4.559  14.881 -0.5084 -0.0042  1.0603
17005TIP3   OH272505   3.045   5.370   1.164  0.6353 -0.4779  0.1778
17005TIP3    H172506   3.123   5.402   1.210 -0.7121 -1.0301  3.0647
17005TIP3    H272507   2.991   5.332   1.233 -1.0421 -2.5072 -2.1036
17006TIP3   OH272508   2.178   0.576   5.763  0.3790 -0.1590 -0.2672
17006TIP3    H172509   2.181   0.489   5.723  1.8616 -0.9201  1.3577
17006TIP3    H272510   2.230   0.567   5.843 -1.0465  1.7311  0.9464
17007TIP3   OH272511   1.009   6.706   5.996 -0.1735 -0.1471 -0.2528
17007TIP3    H172512   0.982   6.779   6.051  1.2325 -0.2362  0.5901
17007TIP3    H272513   1.019   6.633   6.057  1.8154 -0.1401 -0.5241
17008TIP3   OH272514   5.237   1.319  12.553  0.5291 -0.0460  0.1469
17008TIP3    H172515   5.247   1.354  12.465 -1.2489  1.2383  0.3829
17008TIP3    H272516   5.238   1.224  12.542  0.5635  0.0931 -1.2287
17009TIP3   OH272517   3.091   5.985  11.872 -0.5571  0.0109 -0.0713
17009TIP3    H172518   3.029   5.917  11.898 -1.1037  0.2990 -0.6097
17009TIP3    H272519   3.177   5.948  11.893 -0.8758 -0.6081  0.1790
17010TIP3   OH272520   5.747   0.250   1.323 -0.2372  0.0132 -1.0535
17010TIP3    H172521   5.787   0.234   1.408  2.9258  0.6763 -2.2710
17010TIP3    H272522   5.754   0.345   1.311 -0.5640 -0.0829 -2.0854
17011TIP3   OH272523   6.636   4.257   1.300  0.4252  0.3380  0.2557
17011TIP3    H172524   6.706   4.322   1.300 -0.1821  1.0775  2.3289
17011TIP3    H272525   6.561   4.303   1.262  0.6704 -0.0209 -0.6967
17012TIP3   OH272526   1.830   6.196  13.518  0.1797 -0.2253  0.1395
17012TIP3    H172527   1.786   6.167  13.438 -0.1053  1.1300 -0.2156
17012TIP3    H272528   1.922   6.173  13.505 -0.1370 -1.6611  0.2214
17013TIP3   OH272529   2.786   0.952   3.316  0.7226  0.0986  0.4316
17013TIP3    H172530   2.788   0.880   3.253  1.8181  0.4006  0.1041
17013TIP3    H272531   2.876   0.985   3.318 -0.1925  3.0904 -1.2962
17014TIP3   OH272532   5.903   0.904  11.149  0.4793 -0.3105 -0.1764
17014TIP3    H172533   5.841   0.885  11.079 -0.4223 -1.1908  0.8244
17014TIP3    H272534   5.989   0.887  11.111 -0.0675 -2.2770 -0.6528
17015TIP3   OH272535   1.934   1.015  14.011  0.1878 -0.1050 -0.4578
17015TIP3    H172536   1.907   0.933  14.052  0.0090 -0.1527 -0.6691
17015TIP3    H272537   2.003   0.990  13.950  0.4436 -0.0361 -0.1974
17016TIP3   OH272538   3.944   4.398   4.099 -1.1773 -0.1518  0.3177
17016TIP3    H172539   3.947   4.449   4.180  1.6141 -1.1538  0.9727
17016TIP3    H272540   3.987   4.315   4.122  0.7867 -0.0254 -2.4483
17017TIP3   OH272541   1.380   5.063   5.811 -0.1111 -0.2786 -0.1778
17017TIP3    H172542   1.307   5.077   5.751  0.6984  0.3148 -1.0702
17017TIP3    H272543   1.347   5.092   5.896 -0.7937  0.3456 -0.6395
17018TIP3   OH272544   2.242   3.768  12.801  0.5414 -0.3668  0.1395
17018TIP3    H172545   2.298   3.723  12.864  0.5283  1.2964  1.3998
17018TIP3    H272546   2.260   3.861  12.814 -0.8204  0.1074 -1.0418
17019TIP3   OH272547   2.209   0.878  11.961 -0.7766 -0.4950  0.1170
17019TIP3    H172548   2.217   0.827  11.881  1.6648  0.0012 -0.0350
17019TIP3    H272549   2.277   0.945  11.954 -3.6244  2.7230  0.4331
17020TIP3   OH272550   4.698   6.748   5.489  0.3054  0.1091  0.2095
17020TIP3    H172551   4.613   6.761   5.531  0.1307 -0.5364  0.0746
17020TIP3    H272552   4.687   6.668   5.439  0.6370  0.6594 -0.7549
17021TIP3   OH272553   2.617   2.909   0.571  0.0790  0.8247 -0.3551
17021TIP3    H172554   2.665   2.983   0.535 -0.0119 -1.0721 -5.0107
17021TIP3    H272555   2.528   2.919   0.537 -0.6934  0.0257  1.3231
17022TIP3   OH272556   2.099   4.583  11.820  0.2058  0.2947  0.1201
17022TIP3    H172557   2.062   4.513  11.874 -0.0111  0.6168  0.4009
17022TIP3    H272558   2.193   4.575  11.831  0.1550  1.6035  2.2351
17023TIP3   OH272559   0.223   5.273   4.145 -0.5336  0.0007 -0.3602
17023TIP3    H172560   0.239   5.312   4.231 -2.3594 -1.3184  0.6551
17023TIP3    H272561   0.290   5.205   4.137  0.9955  1.5084 -0.9823
17024TIP3   OH272562   1.107   6.754   6.351  0.5546  0.2954  0.3025
17024TIP3    H172563   1.020   6.794   6.346  1.2377  1.6698 -2.0206
17024TIP3    H272564   1.097   6.670   6.308  0.4696  0.6540 -0.3831
17025TIP3   OH272565   4.609   4.057   3.909  0.0847 -0.1697 -0.4798
17025TIP3    H172566   4.601   4.128   3.973 -1.4223 -1.5434  0.9533
17025TIP3    H272567   4.673   3.998   3.948 -0.6286 -0.8757 -0.3527
17026TIP3   OH272568   0.650   5.539  15.126 -0.2341 -0.1585 -0.1780
17026TIP3    H172569   0.704   5.532  15.205  1.7207  0.6009 -1.3782
17026TIP3    H272570   0.656   5.452  15.086 -1.6293 -0.6936  0.7176
17027TIP3   OH272571   3.819   5.181  10.973 -0.3223  0.1492  0.4174
17027TIP3    H172572   3.880   5.149  10.907  0.3795  1.5155  0.3828
17027TIP3    H272573   3.822   5.114  11.042 -1.2112 -1.3909 -0.9769
17028TIP3   OH272574   3.577   3.506  15.068 -0.0819 -0.2094  0.9257
17028TIP3    H172575   3.588   3.420  15.109 -1.6366 -0.1041  1.6561
17028TIP3    H272576   3.662   3.548  15.076  0.3092 -1.1421  1.8544
17029TIP3   OH272577   2.050   0.801   5.664 -0.2447 -0.5858  0.6824
17029TIP3    H172578   2.110   0.728   5.681 -1.2787 -2.1512 -1.8530
17029TIP3    H272579   1.997   0.807   5.744  0.5860 -1.8940  1.3683
17030TIP3   OH272580   5.309   4.084  13.847 -0.3069  0.5391  0.1546
17030TIP3    H172581   5.369   4.105  13.919 -0.8485  1.1901  0.4235
17030TIP3    H272582   5.330   4.148  13.779 -0.8131  0.8846  0.3192
17031TIP3   OH272583   5.822   2.248  16.583 -0.4639 -0.5443 -0.4090
17031TIP3    H172584   5.916   2.265  16.574 -0.2942  0.1489  2.0319
17031TIP3    H272585   5.816   2.152  16.586  0.4246 -0.5836  1.2441
17032TIP3   OH272586   1.222   3.209  12.116 -0.1071 -0.1867 -0.2211
17032TIP3    H172587   1.224   3.303  12.131  0.8766 -0.3744  1.0023
17032TIP3    H272588   1.232   3.171  12.204  2.7092 -1.4091 -0.9848
17033TIP3   OH272589   4.332   2.564  16.060 -0.4102  0.6764  0.1950
17033TIP3    H172590   4.425   2.584  16.047 -0.8718  1.7862 -1.7268
17033TIP3    H272591   4.310   2.607  16.143  0.4085  1.8721 -0.1769
17034TIP3   OH272592   4.150   1.945  14.258 -0.1196 -0.6136  0.2509
17034TIP3    H172593   4.162   1.997  14.178  0.1891 -1.5478 -0.3140
17034TIP3    H272594   4.057   1.958  14.280  0.2639  1.3662  0.9694
17035TIP3   OH272595   6.547   6.037  17.136  0.2008  0.1032 -0.1528
17035TIP3    H172596   6.479   6.002  17.193  0.7956 -0.6973  0.0807
17035TIP3    H272597   6.629   6.010  17.177  0.8192  3.3783  1.1646
17036TIP3   OH272598   6.000   2.187  15.740  0.8621  0.1699 -0.3117
17036TIP3    H172599   6.071   2.173  15.803  0.3041 -1.7721 -0.0616
17036TIP3    H272600   6.044   2.225  15.664  1.8912  0.5511  0.4310
17037TIP3   OH272601   3.482   6.638   4.028  0.2746  0.0660 -0.4314
17037TIP3    H172602   3.551   6.700   4.002 -0.7013  1.2679 -0.2988
17037TIP3    H272603   3.520   6.552   4.012  1.6259  0.6942 -0.8181
17038TIP3   OH272604   1.176   1.286   2.508 -0.5049  0.3745 -0.5208
17038TIP3    H172605   1.173   1.377   2.479 -2.9867  0.8498  0.8530
17038TIP3    H272606   1.090   1.250   2.483 -0.2739 -1.0174  0.5550
17039TIP3   OH272607   4.898   2.397  13.685 -0.2165  0.7931  0.0305
17039TIP3    H172608   4.961   2.328  13.666 -0.5062  0.6923 -0.5804
17039TIP3    H272609   4.856   2.416  13.601  0.3720  2.2304  0.0298
17040TIP3   OH272610   3.428   4.644  15.422  0.0584  0.3414 -0.1355
17040TIP3    H172611   3.437   4.610  15.511 -1.3946 -0.9180 -0.4288
17040TIP3    H272612   3.506   4.611  15.377 -0.6899 -1.7025 -0.0791
17041TIP3   OH272613   5.894   6.064  17.270  0.3842 -0.0795  0.1053
17041TIP3    H172614   5.814   6.107  17.238  1.2209  0.7746 -0.9589
17041TIP3    H272615   5.871   6.033  17.358 -0.7144  1.3116  0.3574
17042TIP3   OH272616   5.867   6.218   3.920 -0.6038  0.0334 -0.1298
17042TIP3    H172617   5.894   6.304   3.953 -0.7197 -0.3411  1.0128
17042TIP3    H272618   5.772   6.225   3.908 -0.5849  0.1287 -0.2171
17043TIP3   OH272619   4.467   3.238  16.973 -0.0994 -0.0173 -0.1871
17043TIP3    H172620   4.513   3.177  17.030  1.0356  0.0178 -1.0276
17043TIP3    H272621   4.413   3.182  16.917 -0.1770 -0.1499  0.0215
17044TIP3   OH272622   3.563   2.775   4.670 -0.1723  0.0583  0.5930
17044TIP3    H172623   3.582   2.785   4.577  0.1070 -0.5711  0.5806
17044TIP3    H272624   3.501   2.702   4.674 -0.4218  0.2828  0.8774
17045TIP3   OH272625   2.216   6.006   4.770 -0.2467  0.0396 -0.2207
17045TIP3    H172626   2.285   6.012   4.704 -1.1050  3.0810 -0.9834
17045TIP3    H272627   2.159   5.936   4.739 -0.8733  1.6808 -3.0684
17046TIP3   OH272628   5.669   1.590  12.660 -0.1434  0.3323 -0.0355
17046TIP3    H172629   5.707   1.678  12.663  1.3903 -0.3114  1.0770
17046TIP3    H272630   5.738   1.533  12.696 -0.5638 -1.5203 -1.9234
17047TIP3   OH272631   5.322   3.435  16.892  0.2204  0.7404  0.4000
17047TIP3    H172632   5.253   3.492  16.925 -0.1834 -0.4206  1.6662
17047TIP3    H272633   5.352   3.387  16.969 -0.7694 -2.1243 -0.8662
17048TIP3   OH272634   6.073   1.415  14.188  0.3576  0.1517  0.2486
17048TIP3    H172635   6.102   1.336  14.234  0.5157 -0.7635 -1.3422
17048TIP3    H272636   6.142   1.480  14.204 -0.4250  0.4769  2.7204
17049TIP3   OH272637   0.131   2.222   2.342  0.4605  0.2619  0.1188
17049TIP3    H172638   0.135   2.155   2.411  2.6093 -0.4073 -0.5466
17049TIP3    H272639   0.149   2.173   2.262 -1.4854  1.1180 -0.8834
17050TIP3   OH272640   5.466   3.241   5.387 -0.0005 -0.4767 -0.0724
17050TIP3    H172641   5.562   3.240   5.389  0.0014  0.2203  1.4560
17050TIP3    H272642   5.440   3.248   5.479 -1.5578 -2.0295 -0.3266
17051TIP3   OH272643   5.133   3.874   5.468 -0.2044  0.1527  0.0424
17051TIP3    H172644   5.157   3.783   5.448 -1.6711 -0.6479  1.6350
17051TIP3    H272645   5.158   3.887   5.559  1.5757  1.9852 -0.6344
17052TIP3   OH272646   1.852   1.177   5.379 -0.7280 -0.1822  0.5893
17052TIP3    H172647   1.874   1.266   5.406 -0.9287  0.0432  0.0268
17052TIP3    H272648   1.937   1.134   5.367 -0.6243  0.0370  0.5311
17053TIP3   OH272649   6.304   3.893  14.269 -0.1065 -0.9497 -0.5644
17053TIP3    H172650   6.366   3.830  14.305  0.2484 -0.3429 -0.0975
17053TIP3    H272651   6.358   3.968  14.244 -0.5618 -0.7040 -0.8175
17054TIP3   OH272652   4.146   3.159  15.358 -0.0341  0.4501 -0.0651
17054TIP3    H172653   4.084   3.107  15.410  0.1708  0.1828 -0.0809
17054TIP3    H272654   4.093   3.196  15.288 -0.0190 -0.5209 -0.6145
17055TIP3   OH272655   4.682   5.189   0.084  0.7874  0.2024  0.4326
17055TIP3    H172656   4.644   5.105   0.059  0.5907  0.1589  0.8607
17055TIP3    H272657   4.729   5.219   0.006 -1.7972  1.2293 -0.8451
17056TIP3   OH272658   0.236   0.692  12.339  0.1674  0.2455  0.5927
17056TIP3    H172659   0.224   0.765  12.279 -0.1986  0.4554  0.9196
17056TIP3    H272660   0.206   0.725  12.423  0.1751 -0.2222  0.7802
17057TIP3   OH272661   5.648   1.805  13.629 -0.5380  0.0961 -0.0348
17057TIP3    H172662   5.676   1.756  13.706 -1.6093  1.2707  1.1588
17057TIP3    H272663   5.580   1.751  13.589  0.4976 -0.8417 -0.6045
17058TIP3   OH272664   3.273   6.661   4.866 -0.3397 -0.5680 -0.5445
17058TIP3    H172665   3.318   6.596   4.813 -0.8522 -0.2592 -1.3733
17058TIP3    H272666   3.337   6.732   4.876 -0.0474 -0.8679 -0.2782
17059TIP3   OH272667   2.835   6.579   5.469  0.0136 -0.4298  0.1598
17059TIP3    H172668   2.851   6.631   5.390 -0.8061  0.6170  0.6545
17059TIP3    H272669   2.907   6.516   5.472 -0.5934 -1.3386 -2.0832
17060TIP3   OH272670   5.107   4.578  12.282  0.4298 -0.1701 -0.0961
17060TIP3    H172671   5.134   4.663  12.316  0.9856  0.2815 -1.5634
17060TIP3    H272672   5.068   4.533  12.357  1.0000  0.9988  0.9375
17061TIP3   OH272673   4.325   5.227   5.142 -0.3881 -0.0775  0.1241
17061TIP3    H172674   4.320   5.207   5.236 -2.2913 -2.7265 -0.4283
17061TIP3    H272675   4.254   5.176   5.103  1.1337 -0.0640 -2.9438
17062TIP3   OH272676   0.391   5.371   2.638  0.4674  0.3636  0.5246
17062TIP3    H172677   0.439   5.319   2.573  0.8243 -0.9782  1.8158
17062TIP3    H272678   0.436   5.456   2.637  0.6477  0.2810 -0.7499
17063TIP3   OH272679   3.723   3.337   0.524 -0.3288 -0.1198  0.2472
17063TIP3    H172680   3.717   3.411   0.585  1.9224 -0.3946  0.8761
17063TIP3    H272681   3.745   3.263   0.580  0.5559 -0.6300 -0.7453
17064TIP3   OH272682   3.592   3.313  15.834 -0.4670 -0.2708  0.6397
17064TIP3    H172683   3.585   3.241  15.772 -2.8817  0.5730 -0.2175
17064TIP3    H272684   3.623   3.387  15.782 -0.7878  0.0004  0.8280
17065TIP3   OH272685   2.671   5.522  12.339  0.3774  0.0374  0.5224
17065TIP3    H172686   2.589   5.510  12.387  0.7123 -1.0431  0.8529
17065TIP3    H272687   2.644   5.528  12.247 -0.0849 -0.2113  0.6346
17066TIP3   OH272688   1.264   3.198  13.967 -0.3888 -0.2610 -0.2449
17066TIP3    H172689   1.315   3.168  14.042  0.9031 -1.7692 -1.6469
17066TIP3    H272690   1.247   3.119  13.916  0.2376  0.8987 -2.4029
17067TIP3   OH272691   6.799   2.721   3.693  0.0049 -0.8135 -0.1341
17067TIP3    H172692   6.794   2.816   3.679 -0.4203 -0.8170 -0.0304
17067TIP3    H272693   6.888   2.705   3.723 -0.6101 -0.1199  2.2382
17068TIP3   OH272694   2.902   2.422  16.847  0.5724 -0.4455 -0.7273
17068TIP3    H172695   2.830   2.380  16.799  0.4069  0.4115 -1.2526
17068TIP3    H272696   2.860   2.472  16.916  0.8606 -2.4328  0.9824
17069TIP3   OH272697   3.004   5.193  16.793  0.0724 -0.3737 -0.2302
17069TIP3    H172698   2.999   5.215  16.886 -0.2869 -2.9465  0.4406
17069TIP3    H272699   3.098   5.186  16.775  0.1504 -2.4574  0.6968
17070TIP3   OH272700   0.769   3.776   4.972  0.1792  0.1192 -0.1614
17070TIP3    H172701   0.731   3.699   5.015  2.0596  0.0415  1.5153
17070TIP3    H272702   0.862   3.770   4.992  0.2519  3.3691  0.9454
17071TIP3   OH272703   3.247   3.377   1.868  0.2805 -0.3163  0.4344
17071TIP3    H172704   3.284   3.320   1.800  0.2064 -0.7925  0.7846
17071TIP3    H272705   3.309   3.372   1.940  1.0261  1.2268 -0.0648
17072TIP3   OH272706   3.952   6.209  13.668  0.1372  0.0845 -0.4009
17072TIP3    H172707   3.879   6.259  13.703 -0.0696 -0.8409  0.5452
17072TIP3    H272708   4.005   6.187  13.745  1.2138  0.4121 -1.0170
17073TIP3   OH272709   5.100   5.305   3.987 -0.3321  0.1559 -0.3653
17073TIP3    H172710   5.022   5.360   3.973 -0.1728  0.4799  0.0028
17073TIP3    H272711   5.173   5.366   3.982 -0.2283  0.2566  1.4648
17074TIP3   OH272712   6.644   2.236   4.134  0.4863 -0.2754 -0.4202
17074TIP3    H172713   6.569   2.296   4.135  0.9081  0.3784 -2.9583
17074TIP3    H272714   6.721   2.292   4.136  1.0468 -0.9482  2.5054
17075TIP3   OH272715   4.147   5.523  11.519 -0.3383 -0.0730  0.6015
17075TIP3    H172716   4.084   5.473  11.571  0.7614 -2.1176  0.0661
17075TIP3    H272717   4.232   5.488  11.545  0.5527  1.9088  0.5554
17076TIP3   OH272718   5.169   5.571  11.439 -0.3542 -0.5322 -0.0073
17076TIP3    H172719   5.261   5.550  11.427 -0.3410 -0.0860 -0.7698
17076TIP3    H272720   5.154   5.647  11.382 -1.3851 -1.1376 -0.5763
17077TIP3   OH272721   3.516   6.684  10.390 -0.4590  0.3723  0.1798
17077TIP3    H172722   3.463   6.735  10.329 -2.2647  1.2733  2.3517
17077TIP3    H272723   3.570   6.750  10.434 -0.7048  0.0450  0.9870
17078TIP3   OH272724   1.773   5.972  12.859  0.1769 -0.2507 -0.4610
17078TIP3    H172725   1.756   5.887  12.818 -3.0478  0.3548 -0.6416
17078TIP3    H272726   1.830   6.018  12.797  0.0452 -1.4271 -1.5001
17079TIP3   OH272727   6.544   2.861  16.067 -0.2834 -0.6804  0.4487
17079TIP3    H172728   6.544   2.842  15.974 -0.5793  0.0352  0.2946
17079TIP3    H272729   6.633   2.891  16.086 -0.8098  1.4189 -0.1080
17080TIP3   OH272730   4.479   5.914   1.923 -0.0666  0.1781  0.4088
17080TIP3    H172731   4.494   5.948   2.011 -0.8503 -1.9294  1.4452
17080TIP3    H272732   4.550   5.851   1.910 -1.6669 -1.8167  0.8745
17081TIP3   OH272733   1.568   5.303   6.058 -0.1793  0.8146  0.2285
17081TIP3    H172734   1.619   5.341   5.986 -1.2172 -1.1981 -1.7100
17081TIP3    H272735   1.477   5.318   6.033 -0.6067 -1.8789 -0.1388
17082TIP3   OH272736   5.877   5.864   1.903 -0.0818 -0.1027 -0.2286
17082TIP3    H172737   5.876   5.890   1.995  1.3170  0.9884 -0.4774
17082TIP3    H272738   5.787   5.838   1.884 -0.4730  0.0031  1.3393
17083TIP3   OH272739   4.259   5.137   3.740 -0.4136  0.3276  0.3847
17083TIP3    H172740   4.345   5.139   3.782 -0.3406 -1.3037  0.3795
17083TIP3    H272741   4.221   5.053   3.767 -1.6419  0.6340 -0.3236
17084TIP3   OH272742   6.188   6.376   5.389 -0.3873  0.1116  0.3900
17084TIP3    H172743   6.282   6.361   5.375 -0.0549  1.7630  0.7166
17084TIP3    H272744   6.160   6.303   5.444  0.4859 -0.9113 -0.4612
17085TIP3   OH272745   2.532   2.129   1.399 -0.0547  0.2447 -0.1431
17085TIP3    H172746   2.442   2.132   1.432  0.2553  1.2129  0.6598
17085TIP3    H272747   2.564   2.042   1.425 -0.3771  0.3421  0.6001
17086TIP3   OH272748   2.740   4.405   3.976 -0.1820 -0.7045 -0.1170
17086TIP3    H172749   2.782   4.441   3.898 -1.5223 -0.4514 -0.7627
17086TIP3    H272750   2.748   4.474   4.042  3.0930 -1.8238  0.8218
17087TIP3   OH272751   1.663   2.107  11.723  0.0566 -0.0795 -0.2263
17087TIP3    H172752   1.728   2.037  11.734  1.8906  1.4334 -0.9704
17087TIP3    H272753   1.715   2.186  11.709 -1.9670  1.3334 -0.0987
17088TIP3   OH272754   4.921   5.291  10.697  0.2031 -0.9079 -0.2850
17088TIP3    H172755   4.898   5.383  10.708 -0.7788 -1.0376 -1.0638
17088TIP3    H272756   4.979   5.290  10.621 -0.9317 -1.0569 -1.1866
17089TIP3   OH272757   4.285   5.968  11.863  0.4901 -0.0321 -0.4870
17089TIP3    H172758   4.286   5.996  11.955  3.4904 -1.6500  0.1096
17089TIP3    H272759   4.220   5.897  11.860 -1.0725  1.3247 -0.1345
17090TIP3   OH272760   1.909   0.178   2.836  0.3415 -0.7014 -0.3356
17090TIP3    H172761   1.960   0.177   2.916 -1.6075 -1.5162  0.9772
17090TIP3    H272762   1.875   0.268   2.830 -0.0988 -0.8356  0.1510
17091TIP3   OH272763   3.975   4.752   4.770 -0.2431 -0.8514 -0.6047
17091TIP3    H172764   4.005   4.809   4.699 -1.1728  2.1440  1.2537
17091TIP3    H272765   3.891   4.788   4.797 -0.5981 -2.7610  1.1140
17092TIP3   OH272766   5.627   6.663   3.177 -0.3997 -0.0342  0.2020
17092TIP3    H172767   5.665   6.714   3.105  2.0873 -1.0778  0.6417
17092TIP3    H272768   5.562   6.607   3.136  1.7461 -1.4173 -1.5367
17093TIP3   OH272769   4.695   5.813   5.058  0.1583 -0.0739 -0.1351
17093TIP3    H172770   4.690   5.751   4.985 -0.2858  0.4449 -0.5583
17093TIP3    H272771   4.682   5.760   5.136  1.1227 -0.7175 -0.3931
17094TIP3   OH272772   5.838   5.962   3.941 -0.3093 -0.3264 -0.6645
17094TIP3    H172773   5.855   6.056   3.939 -0.6095 -0.2637 -2.0510
17094TIP3    H272774   5.827   5.940   4.033  0.3517  0.8883 -0.2895
17095TIP3   OH272775   6.459   5.562  10.511  0.0638 -0.1511 -0.1304
17095TIP3    H172776   6.451   5.471  10.539  1.1165  0.6430  3.2003
17095TIP3    H272777   6.376   5.602  10.537 -0.3750 -0.0702 -1.5386
17096TIP3   OH272778   5.468   1.410   5.528 -0.0942 -0.2098 -0.5270
17096TIP3    H172779   5.519   1.334   5.553  1.0320  0.2988 -1.2356
17096TIP3    H272780   5.392   1.408   5.587 -0.0806 -1.8499 -0.5330
17097TIP3   OH272781   1.730   6.731   1.515 -0.0740  0.1233  0.0647
17097TIP3    H172782   1.774   6.659   1.469  1.3745 -0.5785  2.3438
17097TIP3    H272783   1.726   6.701   1.606 -1.9016  1.8329  0.5999
17098TIP3   OH272784   5.140   3.729  15.176  0.1536 -0.2395 -0.0683
17098TIP3    H172785   5.141   3.655  15.236  1.3910 -1.4065 -1.4602
17098TIP3    H272786   5.110   3.803  15.229 -1.7497 -1.8379  1.2117
17099TIP3   OH272787   5.623   3.358   0.986 -0.0345 -0.2603  0.2215
17099TIP3    H172788   5.681   3.389   0.916 -0.7709  1.2578  0.2267
17099TIP3    H272789   5.683   3.335   1.057  0.7696 -2.4314 -1.0688
17100TIP3   OH272790   3.385   3.529  11.580  0.5248 -0.1181  0.0986
17100TIP3    H172791   3.467   3.577  11.566  0.0681  0.4041 -0.8970
17100TIP3    H272792   3.389   3.457  11.518  0.0352  0.1801 -0.2879
17101TIP3   OH272793   5.022   2.499  15.075  0.2770 -0.2515  0.6290
17101TIP3    H172794   5.006   2.431  15.140 -0.4995 -0.0817  0.6338
17101TIP3    H272795   5.031   2.452  14.992  2.0809 -0.5350  0.9509
17102TIP3   OH272796   3.370   0.905  17.117 -0.4655 -0.3918  0.8675
17102TIP3    H172797   3.396   0.872  17.203  0.4502 -2.0868 -0.0127
17102TIP3    H272798   3.313   0.837  17.081  1.5032 -1.1657 -1.0205
17103TIP3   OH272799   2.522   3.637   5.629  0.4356 -0.4256  0.2960
17103TIP3    H172800   2.609   3.604   5.654  1.3542 -0.0892 -2.1191
17103TIP3    H272801   2.468   3.558   5.621  0.9209 -0.7821  0.4300
17104TIP3   OH272802   4.241   1.690  14.076  0.0443 -0.4853  0.7113
17104TIP3    H172803   4.335   1.697  14.063  0.0966 -0.0537  1.2905
17104TIP3    H272804   4.212   1.779  14.096 -0.6977 -0.3670 -0.7523
17105TIP3   OH272805   0.588   0.855  13.301  0.1013  0.5438  0.0028
17105TIP3    H172806   0.530   0.845  13.376  2.0158 -3.2354  1.2500
17105TIP3    H272807   0.570   0.778  13.246  1.1730  1.3829 -1.6120
17106TIP3   OH272808   0.271   1.287  17.110 -0.5743  0.3232 -0.2687
17106TIP3    H172809   0.265   1.228  17.185 -0.5295  0.4875 -0.1345
17106TIP3    H272810   0.324   1.360  17.141 -0.7626  0.5110 -0.3827
17107TIP3   OH272811   3.660   6.387   0.903 -0.2213 -0.3958  0.1499
17107TIP3    H172812   3.727   6.346   0.959  0.0644 -0.2830 -0.1111
17107TIP3    H272813   3.689   6.477   0.893 -0.0561 -0.5219 -0.5202
17108TIP3   OH272814   4.786   4.672  11.770 -0.2521  0.1921 -0.6522
17108TIP3    H172815   4.723   4.619  11.721 -0.2649 -1.1925  0.7809
17108TIP3    H272816   4.761   4.661  11.861  1.2849  0.6588 -0.1481
17109TIP3   OH272817   1.399   0.623   4.944 -0.5634  0.1791 -0.4625
17109TIP3    H172818   1.482   0.592   4.982 -0.2520  0.7306 -0.6827
17109TIP3    H272819   1.340   0.631   5.019 -1.1043 -2.2924 -0.5581
17110TIP3   OH272820   1.979   1.169  11.329 -0.2373  0.3272 -0.4957
17110TIP3    H172821   2.071   1.161  11.303 -0.5487 -1.4952 -1.2113
17110TIP3    H272822   1.935   1.206  11.252 -0.2709  0.1149 -0.5813
17111TIP3   OH272823   5.307   3.956  11.726 -0.5753  0.1686  0.4501
17111TIP3    H172824   5.267   3.912  11.802 -0.5535 -1.6995 -0.5699
17111TIP3    H272825   5.395   3.920  11.721  0.7231  2.9218  1.5874
17112TIP3   OH272826   6.280   1.232  11.897 -0.2824  0.2654  0.5129
17112TIP3    H172827   6.367   1.268  11.881 -0.5520 -0.1863 -2.7856
17112TIP3    H272828   6.220   1.304  11.879 -0.6328 -0.1242  0.0682
17113TIP3   OH272829   2.279   4.371   0.920  0.9274 -0.7048 -0.4867
17113TIP3    H172830   2.242   4.409   0.841  1.2903 -0.6849 -0.6488
17113TIP3    H272831   2.356   4.425   0.939 -1.6635  2.4231  2.5811
17114TIP3   OH272832   4.869   1.772  11.551 -0.2878 -0.3767 -0.0412
17114TIP3    H172833   4.843   1.720  11.475  0.9901 -1.5810  0.3105
17114TIP3    H272834   4.788   1.784  11.601 -0.7034 -1.5576 -0.4026
17115TIP3   OH272835   3.728   0.665   4.473  0.0957  0.3693 -0.2675
17115TIP3    H172836   3.703   0.573   4.479  1.7647 -0.1078  0.0546
17115TIP3    H272837   3.656   0.708   4.427 -1.0247 -0.9607  0.1963
17116TIP3   OH272838   0.901   5.249  13.749  0.2717 -0.3332 -0.1753
17116TIP3    H172839   0.839   5.259  13.821 -0.4852  0.1001 -0.8660
17116TIP3    H272840   0.874   5.169  13.704  1.1156 -0.9346  0.3646
17117TIP3   OH272841   4.980   5.913  13.096 -0.0854  0.4741 -0.5968
17117TIP3    H172842   4.962   5.994  13.144 -0.9551 -0.0811  0.0549
17117TIP3    H272843   4.948   5.844  13.153 -1.3767 -0.2073 -2.0573
17118TIP3   OH272844   5.073   3.715   1.098 -0.5049 -0.4347 -0.0939
17118TIP3    H172845   4.991   3.745   1.136  0.0045  1.7274 -0.5691
17118TIP3    H272846   5.084   3.626   1.131 -2.3336 -0.2689  1.0865
17119TIP3   OH272847   2.273   4.549  12.649  0.2050 -0.0949  0.1927
17119TIP3    H172848   2.183   4.526  12.672  0.5011 -2.8298 -1.0075
17119TIP3    H272849   2.307   4.593  12.727 -1.4159 -1.2746  1.6476
17120TIP3   OH272850   0.253   0.816  13.825  0.1098 -0.2849  0.1816
17120TIP3    H172851   0.248   0.910  13.840 -0.2670 -0.3402  0.4226
17120TIP3    H272852   0.163   0.790  13.807  0.3822 -0.4007 -1.1140
17121TIP3   OH272853   3.802   5.751  11.081 -0.4793  0.4746 -0.4713
17121TIP3    H172854   3.834   5.805  11.008 -2.4580  0.3856 -1.4471
17121TIP3    H272855   3.710   5.737  11.062 -1.3276  1.2763  2.5674
17122TIP3   OH272856   3.808   0.095   2.064 -0.0751  0.0443  0.1344
17122TIP3    H172857   3.803   0.145   1.983  0.2675 -0.1765 -0.0242
17122TIP3    H272858   3.859   0.151   2.123 -0.2155  0.1497  0.1562
17123TIP3   OH272859   2.098   5.952   2.746 -0.5215 -0.9301  0.1252
17123TIP3    H172860   2.013   5.978   2.781 -0.5407 -0.2585 -0.4028
17123TIP3    H272861   2.140   6.034   2.720  0.4067 -1.2279  0.6199
17124TIP3   OH272862   3.256   1.820  16.083  0.0834 -0.2055 -0.4294
17124TIP3    H172863   3.232   1.741  16.132  0.6480  0.6430  1.2837
17124TIP3    H272864   3.231   1.800  15.993 -1.9957 -1.4319  0.3318
17125TIP3   OH272865   2.131   0.582   2.847  0.2946  0.2056  0.0839
17125TIP3    H172866   2.140   0.672   2.815  0.3920 -0.3584 -1.5203
17125TIP3    H272867   2.043   0.556   2.820  0.7719 -0.6477 -0.6934
17126TIP3   OH272868   6.067   5.308   5.658  0.7755 -0.2132 -0.7557
17126TIP3    H172869   6.018   5.258   5.592  0.5382 -1.4067  0.2809
17126TIP3    H272870   6.133   5.355   5.607  2.2087 -2.9807 -1.6903
17127TIP3   OH272871   5.085   2.646   1.653 -0.6126  0.2474  0.4701
17127TIP3    H172872   5.161   2.657   1.594 -0.5596  1.8567  0.7867
17127TIP3    H272873   5.121   2.602   1.730  0.3305  2.1218  1.1631
17128TIP3   OH272874   1.739   2.681  16.414  0.7503 -0.1968 -0.0064
17128TIP3    H172875   1.773   2.592  16.400 -0.5574 -0.4600 -1.9611
17128TIP3    H272876   1.656   2.668  16.460  0.0737 -0.1270 -1.1438
17129TIP3   OH272877   2.277   0.227  14.779 -0.2471 -0.4082  0.4070
17129TIP3    H172878   2.238   0.142  14.762 -0.2833 -0.1166 -1.0535
17129TIP3    H272879   2.204   0.289  14.774  0.3156  0.1675 -2.5598
17130TIP3   OH272880   6.252   5.517  13.334  0.3516 -0.4830  0.6809
17130TIP3    H172881   6.246   5.445  13.271  0.2475 -0.5159  0.7282
17130TIP3    H272882   6.338   5.506  13.375  0.5916 -0.2219  0.2563
17131TIP3   OH272883   0.691   0.695   5.419  0.3815  0.3211 -0.1728
17131TIP3    H172884   0.691   0.610   5.462  0.0929  0.7855  0.7850
17131TIP3    H272885   0.783   0.720   5.415  0.3512  0.7942  1.2960
17132TIP3   OH272886   4.833   2.091   0.647 -0.0767  0.2780 -0.0252
17132TIP3    H172887   4.793   2.115   0.564 -0.2554  0.2760  0.0605
17132TIP3    H272888   4.916   2.138   0.648 -0.1410  0.3943 -0.1384
17133TIP3   OH272889   0.531   2.722   5.661  0.6635 -0.1472  0.0338
17133TIP3    H172890   0.567   2.697   5.746  1.3643 -1.0253 -0.4955
17133TIP3    H272891   0.473   2.796   5.679  1.0453 -0.1263  1.2226
17134TIP3   OH272892   5.304   5.487   5.102  0.1565  0.3584  0.1809
17134TIP3    H172893   5.293   5.412   5.159  0.5225  0.1491 -0.0189
17134TIP3    H272894   5.399   5.500   5.097  0.1045  0.7244  0.0748
17135TIP3   OH272895   4.909   2.916  12.699 -0.4055  0.1311 -0.1213
17135TIP3    H172896   4.892   2.952  12.786  1.3087  0.0924  0.2613
17135TIP3    H272897   4.906   2.992  12.641 -1.6736  0.1391 -0.0638
17136TIP3   OH272898   3.858   3.433  11.656  0.0022  0.4756  0.0239
17136TIP3    H172899   3.781   3.483  11.627  0.6736  1.0803 -0.7762
17136TIP3    H272900   3.824   3.347  11.680 -0.9079  0.7050 -0.4109
17137TIP3   OH272901   0.138   3.534   3.210  0.0010  0.4090 -0.0740
17137TIP3    H172902   0.055   3.580   3.193 -0.3225  0.1645  0.7583
17137TIP3    H272903   0.115   3.441   3.205 -0.1016  0.3222  1.4791
17138TIP3   OH272904   5.408   5.781  13.377 -0.3621 -0.5492  0.2430
17138TIP3    H172905   5.402   5.715  13.446 -1.2656 -0.2254  0.4868
17138TIP3    H272906   5.351   5.852  13.407  1.4798  0.8794  0.5544
17139TIP3   OH272907   6.089   0.787  16.484 -0.3865  0.1983  0.1989
17139TIP3    H172908   6.049   0.864  16.442 -1.0120 -0.4678 -0.4453
17139TIP3    H272909   6.088   0.807  16.577 -0.0619  1.1952  0.0069
17140TIP3   OH272910   5.048   5.125   5.790 -0.1739 -0.3458 -0.1724
17140TIP3    H172911   4.975   5.187   5.796  0.2664  0.0700  0.9183
17140TIP3    H272912   5.020   5.051   5.844 -0.2776 -0.6921 -0.6917
17141TIP3   OH272913   2.401   6.102  15.199 -0.1896  0.7264  0.0328
17141TIP3    H172914   2.438   6.013  15.197  0.0709  0.8360 -0.0956
17141TIP3    H272915   2.339   6.101  15.272  0.4491  0.6883  0.5881
17142TIP3   OH272916   4.643   1.655   1.797  0.1763 -0.2002 -0.4584
17142TIP3    H172917   4.602   1.705   1.868 -1.7903 -1.6828 -0.4540
17142TIP3    H272918   4.575   1.651   1.729  1.1898 -0.7513 -1.4645
17143TIP3   OH272919   1.535   2.190  10.593 -0.3636  0.3062 -0.2426
17143TIP3    H172920   1.592   2.260  10.560 -0.7834  0.6114 -0.3314
17143TIP3    H272921   1.448   2.214  10.562 -0.6446  0.1859  0.4351
17144TIP3   OH272922   3.736   5.851   6.086 -0.1543 -0.1283 -0.1865
17144TIP3    H172923   3.739   5.788   6.014 -4.0373 -0.7360 -0.0110
17144TIP3    H272924   3.693   5.804   6.157 -0.9164  1.9541  0.8117
17145TIP3   OH272925   3.266   2.992  12.117  0.1642 -0.1653  0.1184
17145TIP3    H172926   3.210   2.925  12.078 -0.5274 -0.2580  1.2278
17145TIP3    H272927   3.275   3.059  12.048  0.1371 -0.9675 -0.6847
17146TIP3   OH272928   4.344   4.484   0.249  0.4085 -0.0882  0.0044
17146TIP3    H172929   4.383   4.517   0.168  1.5005  0.7027  0.8272
17146TIP3    H272930   4.270   4.431   0.220  0.1385  1.0310 -1.4726
17147TIP3   OH272931   3.517   4.406   2.480  0.9102  0.1465 -0.0300
17147TIP3    H172932   3.551   4.385   2.393  0.9137  1.5252 -0.3792
17147TIP3    H272933   3.594   4.434   2.530  0.8528 -0.2952  0.3103
17148TIP3   OH272934   0.740   3.858   3.839  0.3002  0.3250 -0.4137
17148TIP3    H172935   0.690   3.931   3.804 -1.9131 -1.0122 -0.2697
17148TIP3    H272936   0.709   3.782   3.790  1.1125 -0.7862  0.7244
17149TIP3   OH272937   4.492   3.942  14.266  0.3258  0.2810 -0.1445
17149TIP3    H172938   4.414   3.992  14.241  0.2296  0.0818 -0.2488
17149TIP3    H272939   4.465   3.850  14.258  0.5535  0.2110 -0.1239
17150TIP3   OH272940   3.166   5.126   3.300  0.3077  0.1889  0.3533
17150TIP3    H172941   3.231   5.084   3.244 -0.6501  1.0386 -1.4723
17150TIP3    H272942   3.098   5.060   3.311  0.3051  0.1548  0.1432
17151TIP3   OH272943   3.600   5.183  14.072  0.3500  0.0083 -0.3249
17151TIP3    H172944   3.599   5.264  14.124  0.1029 -1.3456  1.8969
17151TIP3    H272945   3.518   5.187  14.022 -1.0037 -0.0144  1.7442
17152TIP3   OH272946   4.885   4.910  11.613  0.3522 -0.1126 -0.0157
17152TIP3    H172947   4.867   4.870  11.528 -0.0217  1.4983 -0.7308
17152TIP3    H272948   4.827   4.865  11.674 -0.0623 -0.6480 -0.7965
17153TIP3   OH272949   5.599   1.948   5.786  0.3650 -0.0182  0.0900
17153TIP3    H172950   5.556   1.909   5.863 -0.4332  0.3590 -0.1542
17153TIP3    H272951   5.586   1.883   5.717 -2.2518  1.2183 -0.7103
17154TIP3   OH272952   6.412   6.412   1.612 -0.0440  0.3357 -0.0477
17154TIP3    H172953   6.401   6.324   1.576  1.5690  0.4966 -1.0105
17154TIP3    H272954   6.354   6.414   1.688  0.2182 -1.7192  0.2633
17155TIP3   OH272955   5.903   0.264  16.341  0.0697 -0.2970  0.3782
17155TIP3    H172956   5.944   0.230  16.420 -0.4063 -2.6802 -0.3060
17155TIP3    H272957   5.969   0.251  16.272  0.1936  1.0300  0.2265
17156TIP3   OH272958   3.647   4.720  14.413  0.4608  0.3149  0.0179
17156TIP3    H172959   3.557   4.733  14.381  0.3009 -0.6337  0.0678
17156TIP3    H272960   3.701   4.720  14.334  0.3499  0.2991 -0.0588
17157TIP3   OH272961   6.354   0.951   6.796  0.0808 -0.0483  0.4523
17157TIP3    H172962   6.439   0.924   6.762 -0.5485 -0.9377 -0.5062
17157TIP3    H272963   6.368   1.038   6.833  1.2866  0.0114 -0.1241
17158TIP3   OH272964   3.979   5.375  11.356 -0.3434 -0.2072 -0.0955
17158TIP3    H172965   4.056   5.431  11.362  0.8197 -1.8858  1.6556
17158TIP3    H272966   4.009   5.296  11.313 -1.7959  0.1555 -1.8968
17159TIP3   OH272967   4.433   3.501   1.459 -0.0845 -0.1705  0.1870
17159TIP3    H172968   4.523   3.473   1.442 -0.3931 -0.8112 -0.4730
17159TIP3    H272969   4.430   3.592   1.429  0.4920  0.0381  0.7526
17160TIP3   OH272970   4.003   2.187  12.786 -0.0571 -0.7824  0.4763
17160TIP3    H172971   4.028   2.105  12.828 -1.0279 -1.3039  0.0613
17160TIP3    H272972   3.949   2.232  12.851 -0.6872 -1.1092  0.1758
17161TIP3   OH272973   1.071   3.146  13.668 -0.2144  0.2186  0.5632
17161TIP3    H172974   0.983   3.184  13.675 -1.8028 -2.7155 -1.3057
17161TIP3    H272975   1.087   3.140  13.574  1.9562  0.4903  0.8549
17162TIP3   OH272976   5.624   6.604   3.968 -0.0517  0.1327 -0.4480
17162TIP3    H172977   5.638   6.695   3.942 -0.0134 -0.2477 -1.8397
17162TIP3    H272978   5.534   6.585   3.941 -0.6535  0.2261  1.3565
17163TIP3   OH272979   0.304   4.047   2.716  0.6688 -0.3450  0.9521
17163TIP3    H172980   0.210   4.045   2.699  0.7081  1.0211  0.4428
17163TIP3    H272981   0.318   4.129   2.763  1.6184 -0.5083  0.9807
17164TIP3   OH272982   2.468   0.136   3.984 -0.6116 -0.1280  0.2115
17164TIP3    H172983   2.560   0.148   3.961 -1.2063  0.1620 -2.2160
17164TIP3    H272984   2.432   0.225   3.985 -1.0106 -0.2894  0.5887
17165TIP3   OH272985   5.808   2.350  11.249  0.4311 -0.6628  0.1985
17165TIP3    H172986   5.785   2.358  11.156  0.2610  1.8866  0.3778
17165TIP3    H272987   5.891   2.397  11.257 -0.7253  1.2771  1.6794
17166TIP3   OH272988   2.007   0.717  15.035 -0.2172 -0.3588  0.1968
17166TIP3    H172989   2.074   0.687  14.973  0.7420 -0.7785  1.3943
17166TIP3    H272990   2.045   0.702  15.121 -2.2627 -1.6144  0.9681
17167TIP3   OH272991   1.957   4.741  15.005  0.2172  0.4692  0.4143
17167TIP3    H172992   2.024   4.733  15.072 -0.8407 -2.0399  1.3230
17167TIP3    H272993   1.975   4.668  14.945  0.0678  1.5731 -1.0132
17168TIP3   OH272994   3.096   0.681  11.796  0.6205  0.2047  0.5595
17168TIP3    H172995   3.056   0.767  11.798 -0.7263 -0.3748  0.0457
17168TIP3    H272996   3.188   0.697  11.779  0.4377  1.5487  0.7945
17169TIP3   OH272997   6.722   1.944  14.941  0.5094  0.4582  0.0195
17169TIP3    H172998   6.778   1.898  15.003  0.3227  0.1053 -0.0707
17169TIP3    H272999   6.781   2.002  14.894  0.2205  3.0802  2.6170
17170TIP3   OH273000   3.344   2.591  12.156 -0.2773 -0.1605  0.2139
17170TIP3    H173001   3.254   2.564  12.170 -0.3434 -0.4159 -0.6574
17170TIP3    H273002   3.376   2.535  12.086  0.6323 -0.2213  0.6589
17171TIP3   OH273003   3.225   2.532   4.875  0.3376 -0.2276 -0.2937
17171TIP3    H173004   3.314   2.500   4.859 -0.0101 -1.2462 -0.2375
17171TIP3    H273005   3.209   2.514   4.968  0.1801  0.2321 -0.2296
17172TIP3   OH273006   0.410   1.246   1.576  0.0626  0.1015  0.8826
17172TIP3    H173007   0.419   1.278   1.666 -0.4722 -1.0781  1.3634
17172TIP3    H273008   0.387   1.154   1.584  0.1533 -0.0695 -0.4729
17173TIP3   OH273009   5.792   5.311  15.294 -0.4927  0.3368  0.0325
17173TIP3    H173010   5.776   5.217  15.298 -0.3811  0.3318  0.3696
17173TIP3    H273011   5.772   5.343  15.382  0.9148  0.3941  0.3602
17174TIP3   OH273012   2.456   0.295  14.569 -0.3781  0.2088 -0.0917
17174TIP3    H173013   2.495   0.381  14.589 -1.3653  0.5265  0.5148
17174TIP3    H273014   2.396   0.278  14.641 -0.4931 -0.8219 -0.4146
17175TIP3   OH273015   4.583   1.577   2.833 -0.5088  0.2417  0.4222
17175TIP3    H173016   4.537   1.507   2.787 -2.8554  0.3977  2.2964
17175TIP3    H273017   4.612   1.537   2.915  2.3177  0.3340 -0.4251
17176TIP3   OH273018   4.977   5.499   5.525  0.6958  0.9560  0.6028
17176TIP3    H173019   5.004   5.508   5.617  1.4566 -2.1157  0.7746
17176TIP3    H273020   4.906   5.435   5.528  1.3731  0.0843 -1.0263
17177TIP3   OH273021   3.535   1.721   2.506  0.1152  0.4521 -0.0583
17177TIP3    H173022   3.630   1.727   2.495  0.2023 -0.4492  0.1154
17177TIP3    H273023   3.523   1.679   2.591 -0.4333  0.4768 -0.1196
17178TIP3   OH273024   6.041   6.065  11.838 -0.1154  0.1981  0.1740
17178TIP3    H173025   6.028   6.157  11.864 -0.4262  0.2907 -0.3080
17178TIP3    H273026   6.034   6.066  11.743 -0.2853 -0.3570  0.1800
17179TIP3   OH273027   1.165   0.199  13.490  0.1680 -0.0357  0.1175
17179TIP3    H173028   1.193   0.282  13.451 -0.6049  0.7412  1.1807
17179TIP3    H273029   1.222   0.188  13.566  1.2507 -1.2386 -0.8139
17180TIP3   OH273030   2.288   2.526  15.007  0.0437  0.1651  0.6621
17180TIP3    H173031   2.203   2.554  14.973  0.2137 -1.9493 -1.7470
17180TIP3    H273032   2.352   2.576  14.957  0.2580 -1.8711 -1.2367
17181TIP3   OH273033   0.504   5.935   1.905  0.1425 -0.7008  0.7063
17181TIP3    H173034   0.566   5.867   1.932  1.4178  0.3168  0.4734
17181TIP3    H273035   0.424   5.888   1.882  1.9629 -2.5311 -2.6043
17182TIP3   OH273036   1.326   0.453  12.118 -0.1697  0.1091 -0.0023
17182TIP3    H173037   1.412   0.454  12.160  0.0871  0.0766 -0.5270
17182TIP3    H273038   1.335   0.508  12.041 -0.9521  1.0710  0.5602
17183TIP3   OH273039   6.029   2.133   3.777  0.3014  0.2267  0.5590
17183TIP3    H173040   5.943   2.117   3.817 -1.3105 -1.8223 -3.1857
17183TIP3    H273041   6.077   2.052   3.792  0.1189 -0.0971 -0.5664
17184TIP3   OH273042   0.937   0.734   4.811  0.1500  0.1817  0.3662
17184TIP3    H173043   0.907   0.644   4.801 -0.7382  0.4222  0.7368
17184TIP3    H273044   0.948   0.765   4.721  0.3289 -0.2514  0.2365
17185TIP3   OH273045   3.617   4.652   4.254 -0.4432  0.2088  0.0803
17185TIP3    H173046   3.677   4.704   4.200 -1.8754  0.5503 -1.2505
17185TIP3    H273047   3.594   4.709   4.327 -0.7045  0.8352 -0.4842
17186TIP3   OH273048   2.338   1.667   3.407 -0.3698 -0.0116 -0.2605
17186TIP3    H173049   2.410   1.604   3.409 -1.0586 -0.8066  1.0659
17186TIP3    H273050   2.350   1.716   3.326 -0.0963 -2.1897 -1.6015
17187TIP3   OH273051   5.583   6.617  12.481 -0.3341  0.5539 -0.6745
17187TIP3    H173052   5.638   6.631  12.558  0.4158 -0.1530 -1.0703
17187TIP3    H273053   5.494   6.609  12.516  0.1203 -0.8309  0.2443
17188TIP3   OH273054   3.453   5.854   6.735 -0.2978 -0.8771 -0.8275
17188TIP3    H173055   3.385   5.902   6.781 -0.8302 -2.8407  0.5386
17188TIP3    H273056   3.413   5.771   6.710  0.6388 -0.7690 -2.9794
17189TIP3   OH273057   3.017   3.167   4.671  0.5241 -0.6817  0.1652
17189TIP3    H173058   3.065   3.234   4.719 -0.9114  2.0524 -1.9095
17189TIP3    H273059   2.943   3.145   4.728  0.1715  0.6976  0.2849
17190TIP3   OH273060   0.704   6.040  16.106 -0.2281  0.3594 -0.2012
17190TIP3    H173061   0.674   5.952  16.129  0.2746 -0.0799 -1.1524
17190TIP3    H273062   0.664   6.098  16.171 -2.5412 -0.2553 -1.0127
17191TIP3   OH273063   5.125   6.547  14.563 -0.1979  0.4553 -0.1270
17191TIP3    H173064   5.037   6.512  14.574  0.3903 -0.5986  1.4391
17191TIP3    H273065   5.178   6.472  14.535  0.2558  1.0523 -0.9411
17192TIP3   OH273066   3.315   3.961   6.326 -0.0697  0.5688 -0.1711
17192TIP3    H173067   3.252   3.961   6.398  0.3249 -0.2064  0.1900
17192TIP3    H273068   3.376   3.889   6.347 -0.2698 -0.0485 -1.5596
17193TIP3   OH273069   4.518   3.927  13.280 -0.1768 -0.2094  0.3294
17193TIP3    H173070   4.532   3.833  13.290  2.8989  0.1538  0.4099
17193TIP3    H273071   4.537   3.944  13.187 -0.7525  0.3461  0.3043
17194TIP3   OH273072   5.494   5.704  12.844  0.0549  0.2708 -0.1849
17194TIP3    H173073   5.578   5.698  12.890 -1.3123  0.1484  2.4513
17194TIP3    H273074   5.472   5.614  12.822  0.4769  0.2855 -0.7110
17195TIP3   OH273075   2.224   6.573  14.073 -0.0821  0.3113 -0.4475
17195TIP3    H173076   2.209   6.503  14.137  1.0142  0.4908  0.0191
17195TIP3    H273077   2.313   6.559  14.042 -1.0761 -0.6792 -3.1072
17196TIP3   OH273078   5.988   3.284  16.570  0.1795 -0.4630 -0.2176
17196TIP3    H173079   6.078   3.316  16.579  0.1347 -0.9671  2.6427
17196TIP3    H273080   5.997   3.203  16.521  0.8809  0.9598 -2.6337
17197TIP3   OH273081   0.243   3.811  13.913  0.1112 -0.3128 -0.2362
17197TIP3    H173082   0.333   3.799  13.883 -0.0499 -1.4825 -0.3196
17197TIP3    H273083   0.251   3.816  14.009  0.0934 -2.8897 -0.0252
17198TIP3   OH273084   2.697   2.932   4.120 -1.0605  0.6437  0.3801
17198TIP3    H173085   2.645   2.972   4.050  0.3007  0.4087 -0.8111
17198TIP3    H273086   2.632   2.888   4.176 -2.1294  0.0241 -1.2647
17199TIP3   OH273087   0.255   3.541  11.304 -0.2408  0.3855 -0.5654
17199TIP3    H173088   0.239   3.564  11.396  0.1071  2.5217 -0.9824
17199TIP3    H273089   0.255   3.445  11.303 -0.6308  0.3070  1.5844
17200TIP3   OH273090   5.412   1.857   1.721 -0.3142  0.0307 -0.4849
17200TIP3    H173091   5.386   1.830   1.633  0.0361 -0.3072 -0.4855
17200TIP3    H273092   5.441   1.777   1.764  0.0512  0.2885 -0.2462
17201TIP3   OH273093   4.942   4.536  11.095  0.4072  0.3786 -0.1771
17201TIP3    H173094   5.018   4.486  11.065  0.1372 -0.3507  0.3179
17201TIP3    H273095   4.939   4.520  11.189 -0.8524 -0.2970 -0.3142
17202TIP3   OH273096   4.856   6.322   2.625  0.0758 -0.0528  0.0468
17202TIP3    H173097   4.905   6.377   2.563  0.0897 -1.8962 -1.6575
17202TIP3    H273098   4.842   6.379   2.701  4.1313  0.8881  0.3495
17203TIP3   OH273099   0.127   2.131  13.602  0.2489 -0.3126  0.0466
17203TIP3    H173100   0.038   2.163  13.584 -0.2906  0.7959  3.8902
17203TIP3    H273101   0.138   2.058  13.541 -3.2324 -0.4027 -0.7196
17204TIP3   OH273102   1.690   6.113  13.305 -0.5378  0.1678 -0.1204
17204TIP3    H173103   1.740   6.063  13.241  1.5051  2.4533 -0.4698
17204TIP3    H273104   1.639   6.174  13.252 -0.8647  0.3261  0.3660
17205TIP3   OH273105   5.327   4.287   0.272 -0.0913 -0.3636 -0.3630
17205TIP3    H173106   5.362   4.376   0.281 -0.2163 -0.3546  0.0360
17205TIP3    H273107   5.405   4.231   0.276 -0.2019 -0.4640  2.2002
17206TIP3   OH273108   2.379   2.656   0.454 -0.2110  0.3430 -0.2378
17206TIP3    H173109   2.370   2.751   0.462  1.6842  0.5302  0.1396
17206TIP3    H273110   2.472   2.640   0.472  0.1831 -1.2823 -3.2578
17207TIP3   OH273111   3.848   5.363   1.549 -0.7602 -0.2499  0.7833
17207TIP3    H173112   3.848   5.429   1.479  0.6713  0.0944  1.0783
17207TIP3    H273113   3.906   5.294   1.517 -1.0849 -0.6796  1.1112
17208TIP3   OH273114   6.538   2.257  16.260  0.2787 -0.8279 -0.4280
17208TIP3    H173115   6.509   2.348  16.266  1.0482 -0.6419  0.6946
17208TIP3    H273116   6.613   2.252  16.318  1.6636 -1.6465 -2.2026
17209TIP3   OH273117   0.674   2.600   1.039  0.6391  0.3270  0.5284
17209TIP3    H173118   0.655   2.551   1.119 -0.9104  1.5954  0.9916
17209TIP3    H273119   0.732   2.671   1.068  0.6803  0.3530  0.3838
17210TIP3   OH273120   1.295   1.196  15.378 -0.2067  0.3916  0.3202
17210TIP3    H173121   1.321   1.278  15.337 -0.2588  0.7057  0.9034
17210TIP3    H273122   1.375   1.162  15.418 -0.1305  0.0281 -0.1335
17211TIP3   OH273123   6.049   5.822  14.643  0.1205  0.2508  0.3917
17211TIP3    H173124   6.134   5.866  14.655 -0.7546  2.4997 -1.1026
17211TIP3    H273125   6.058   5.774  14.561 -0.3236  1.2627 -0.2642
17212TIP3   OH273126   2.487   6.332   6.157 -0.3688  0.2024 -0.1104
17212TIP3    H173127   2.543   6.360   6.229 -0.9414 -0.4680  0.6178
17212TIP3    H273128   2.525   6.249   6.129 -0.2923  0.3409 -0.4156
17213TIP3   OH273129   0.820   5.921   0.344  0.6865  0.1770 -0.4558
17213TIP3    H173130   0.741   5.959   0.384  0.0032 -1.1626 -0.4807
17213TIP3    H273131   0.829   5.967   0.260  0.2880  0.7625 -0.1849
17214TIP3   OH273132   5.351   6.680   0.412 -0.5426 -0.3015 -0.0430
17214TIP3    H173133   5.358   6.775   0.422 -0.3393 -0.2709 -0.4689
17214TIP3    H273134   5.441   6.649   0.415 -0.6906 -0.6675  1.7832
17215TIP3   OH273135   4.187   1.795   3.454 -0.4628 -0.1212  0.1117
17215TIP3    H173136   4.204   1.719   3.509 -0.0868 -1.0521 -1.2296
17215TIP3    H273137   4.125   1.764   3.388 -0.6780  0.8747 -0.1795
17216TIP3   OH273138   6.210   3.901  12.712 -0.0470 -0.0145 -0.5944
17216TIP3    H173139   6.168   3.983  12.687  0.2813  0.4951  0.4494
17216TIP3    H273140   6.291   3.898  12.661  0.6161  1.0013  0.3610
17217TIP3   OH273141   2.652   4.329   4.689  0.1138  0.0428 -0.0366
17217TIP3    H173142   2.727   4.303   4.743  0.0013 -0.3964 -0.0875
17217TIP3    H273143   2.611   4.246   4.664 -0.6829  0.2945  0.4115
17218TIP3   OH273144   1.467   1.549   0.365 -0.4969  0.7266  0.1097
17218TIP3    H173145   1.559   1.524   0.375 -0.6206  0.5221  0.8180
17218TIP3    H273146   1.418   1.472   0.391 -0.8760  1.2008  0.8393
17219TIP3   OH273147   4.689   0.029  10.862  0.0047  0.3306 -0.0383
17219TIP3    H173148   4.665  -0.024  10.787  1.1073 -0.6719  0.2866
17219TIP3    H273149   4.606   0.053  10.903 -0.5525 -0.0669 -0.9159
17220TIP3   OH273150   0.419   2.979   3.334 -0.0317  0.2351  0.7160
17220TIP3    H173151   0.429   2.966   3.240  0.2768  0.6522  0.6895
17220TIP3    H273152   0.506   3.006   3.365  0.7972 -3.1375  1.6954
17221TIP3   OH273153   1.850   3.485   3.055  0.7197 -0.2462 -0.4280
17221TIP3    H173154   1.886   3.551   3.113 -1.3143  1.4938 -1.0155
17221TIP3    H273155   1.888   3.402   3.086  3.0905  1.1033  0.5272
17222TIP3   OH273156   6.047   4.825   3.256 -0.2680 -0.3456  0.4436
17222TIP3    H173157   6.074   4.916   3.261  3.6228 -1.3642  1.8045
17222TIP3    H273158   6.022   4.812   3.165 -0.6328  1.9794  0.1718
17223TIP3   OH273159   3.508   0.515  17.148  0.1866 -0.2528 -0.6337
17223TIP3    H173160   3.593   0.549  17.119 -0.2593  0.4532 -1.1385
17223TIP3    H273161   3.450   0.526  17.072 -0.3620 -0.7094 -0.2901
17224TIP3   OH273162   3.380   2.167  11.288 -0.4883  0.0851  0.2605
17224TIP3    H173163   3.334   2.142  11.208 -1.6472 -0.0609  0.9547
17224TIP3    H273164   3.311   2.195  11.348  0.5676  4.3070 -0.1582
17225TIP3   OH273165   0.406   4.318  11.626  0.1124 -0.0994  0.1168
17225TIP3    H173166   0.479   4.288  11.573  0.5962  2.1782 -0.6321
17225TIP3    H273167   0.343   4.353  11.562 -0.8171 -0.3660  0.8637
17226TIP3   OH273168   6.192   0.108   3.419  0.8046  0.1411  0.4515
17226TIP3    H173169   6.223   0.176   3.480 -3.0865  3.3178 -0.7160
17226TIP3    H273170   6.102   0.090   3.446  1.1309 -3.4641 -0.3770
17227TIP3   OH273171   1.113   5.329  17.241  0.0296  0.0031 -0.3679
17227TIP3    H173172   1.201   5.328  17.279 -0.2036  0.9403  0.2222
17227TIP3    H273173   1.070   5.252  17.278 -0.1257  0.7845  1.1181
17228TIP3   OH273174   5.562   5.432  12.010  0.1288  0.5435 -0.1761
17228TIP3    H173175   5.650   5.452  12.042  0.4639  1.3935 -1.5164
17228TIP3    H273176   5.503   5.468  12.076  0.7698 -0.0193  0.7274
17229TIP3   OH273177   4.360   1.754  17.151  0.9133 -0.5778 -0.1180
17229TIP3    H173178   4.391   1.817  17.086  1.6527  0.2912  1.0389
17229TIP3    H273179   4.334   1.677  17.100 -0.3658  0.7723 -1.6224
17230TIP3   OH273180   4.640   3.706  14.450 -0.7111  0.1398 -0.0760
17230TIP3    H173181   4.576   3.750  14.395  0.8935 -1.1633 -3.2315
17230TIP3    H273182   4.722   3.754  14.435  0.4541 -2.0803 -1.4530
17231TIP3   OH273183   4.361   1.322  14.604  0.2291 -0.0203  0.6487
17231TIP3    H173184   4.267   1.334  14.621  0.6502  2.5108  1.5771
17231TIP3    H273185   4.378   1.372  14.525  0.8104 -0.4722  0.4843
17232TIP3   OH273186   4.682   5.175  15.022 -0.1330 -0.2238 -0.1143
17232TIP3    H173187   4.595   5.214  15.028 -0.7616 -1.5747 -0.1248
17232TIP3    H273188   4.726   5.226  14.954 -0.3844  1.4065  0.8867
17233TIP3   OH273189   5.073   0.484   2.794 -0.3057  0.1070 -0.4649
17233TIP3    H173190   5.015   0.461   2.866  1.3536 -1.0284  0.5866
17233TIP3    H273191   5.156   0.507   2.837  0.7034 -0.5280 -2.0009
17234TIP3   OH273192   0.633   1.713   1.845 -0.4245  0.0739  0.4558
17234TIP3    H173193   0.647   1.807   1.835  0.0659  0.0310  0.6616
17234TIP3    H273194   0.551   1.705   1.893 -0.3622  0.4017  0.6158
17235TIP3   OH273195   2.204   5.245  13.865  0.0723 -0.3525 -0.6456
17235TIP3    H173196   2.226   5.251  13.958  1.8392  0.5697 -1.0783
17235TIP3    H273197   2.124   5.296  13.855 -0.9607 -1.6687  0.5849
17236TIP3   OH273198   1.542   4.533   5.224  0.1775 -0.1724  0.1094
17236TIP3    H173199   1.609   4.598   5.243 -0.1021 -0.4597  2.3386
17236TIP3    H273200   1.526   4.542   5.130  3.1093  0.0661 -0.4558
17237TIP3   OH273201   1.490   1.063   4.864  0.6293  0.5855 -0.6154
17237TIP3    H173202   1.437   0.983   4.868  0.2023  0.8834 -0.1308
17237TIP3    H273203   1.428   1.132   4.846  1.0922  0.7330 -1.6840
17238TIP3   OH273204   1.985   4.259  14.494  0.5417 -0.1164 -0.3819
17238TIP3    H173205   1.912   4.200  14.515  1.8426 -0.8219  2.6657
17238TIP3    H273206   1.962   4.341  14.539  1.5338 -0.3261  0.5470
17239TIP3   OH273207   5.255   2.328   1.654 -0.2548 -0.1742  0.3490
17239TIP3    H173208   5.347   2.347   1.672 -0.2680 -0.2231  0.4659
17239TIP3    H273209   5.212   2.337   1.739 -0.2509 -0.7855  0.4178
17240TIP3   OH273210   0.176   0.067   1.769  0.3727  0.3093 -0.4543
17240TIP3    H173211   0.154   0.077   1.676  2.6540 -0.3767 -1.1403
17240TIP3    H273212   0.145   0.149   1.809 -1.2662  0.3317 -1.6554
17241TIP3   OH273213   1.903   5.213  12.089 -0.8304  0.0832  0.4607
17241TIP3    H173214   1.940   5.179  12.008 -0.1442 -0.7968  1.1097
17241TIP3    H273215   1.960   5.286  12.114 -1.0294  0.3397  0.1644
17242TIP3   OH273216   1.363   6.233   5.147 -0.2798  0.6797  0.4692
17242TIP3    H173217   1.338   6.325   5.139  0.6772  0.8097 -1.8329
17242TIP3    H273218   1.300   6.186   5.092 -0.9923 -0.1182  1.9174
17243TIP3   OH273219   2.408   5.146  13.556  0.2871  0.3012  0.3404
17243TIP3    H173220   2.469   5.154  13.482 -0.7101 -1.0690 -0.6835
17243TIP3    H273221   2.379   5.055  13.553 -0.5982  0.5127  1.7907
17244TIP3   OH273222   5.674   5.308   3.209 -0.1760  0.1123 -0.3836
17244TIP3    H173223   5.584   5.275   3.204  0.1675 -0.8805 -0.1153
17244TIP3    H273224   5.664   5.403   3.217 -1.2053 -0.0020 -0.1903
17245TIP3   OH273225   0.941   5.935  12.343 -0.0949 -0.2284  0.2149
17245TIP3    H173226   0.885   5.857  12.348 -0.8235  0.1038 -1.6672
17245TIP3    H273227   0.991   5.923  12.262  0.2538  0.9632  0.2325
17246TIP3   OH273228   4.286   5.479  13.043  0.0554  0.0977 -0.0618
17246TIP3    H173229   4.211   5.429  13.013 -0.4380 -0.3050  1.7609
17246TIP3    H273230   4.254   5.529  13.118  1.5399  0.0961  0.6155
17247TIP3   OH273231   2.285   1.522   2.880 -0.3516  0.4134 -0.2845
17247TIP3    H173232   2.310   1.593   2.821 -0.2571  0.2750 -0.4118
17247TIP3    H273233   2.193   1.539   2.900 -0.2235  0.7837 -0.0103
17248TIP3   OH273234   5.909   0.444  15.652  0.2559 -0.1854  0.4501
17248TIP3    H173235   5.955   0.514  15.605  0.4064 -0.1184  0.6954
17248TIP3    H273236   5.976   0.379  15.671  0.3073  0.0424  1.0576
17249TIP3   OH273237   4.610   1.590   2.174  0.2084 -0.1376  0.4126
17249TIP3    H173238   4.536   1.539   2.141 -1.0209  2.4485 -1.1813
17249TIP3    H273239   4.616   1.665   2.114  1.6531  1.7582  2.7403
17250TIP3   OH273240   5.310   0.987   6.277  0.2617  0.3161 -0.7145
17250TIP3    H173241   5.335   0.915   6.220 -0.1719 -0.9041  0.5661
17250TIP3    H273242   5.234   0.954   6.325  2.7653 -0.3475  3.3520
17251TIP3   OH273243   3.701   1.863  15.599  0.0454  0.0906 -0.0082
17251TIP3    H173244   3.629   1.899  15.548 -0.0601  0.5849  0.4743
17251TIP3    H273245   3.692   1.904  15.685 -1.4149 -2.7218  1.3271
17252TIP3   OH273246   3.594   3.265   2.617  0.1752  0.0535  0.2329
17252TIP3    H173247   3.666   3.229   2.670  1.5046 -0.1548 -1.6122
17252TIP3    H273248   3.527   3.197   2.619  0.9561 -0.7419  0.1687
17253TIP3   OH273249   4.226   5.098  11.547 -0.6322  0.1276  0.1019
17253TIP3    H173250   4.272   5.066  11.469  0.3711  0.9056  0.3529
17253TIP3    H273251   4.164   5.029  11.568  0.5256 -1.0422 -0.1667
17254TIP3   OH273252   1.553   2.908   5.340  0.0495 -0.4382 -0.8356
17254TIP3    H173253   1.556   2.936   5.249 -3.0271 -1.5915 -1.4391
17254TIP3    H273254   1.464   2.930   5.369  0.2718 -1.9233  1.2407
17255TIP3   OH273255   3.604   0.655  11.303  0.1620 -0.2144 -0.2550
17255TIP3    H173256   3.550   0.587  11.263 -0.5766  0.6642 -0.8032
17255TIP3    H273257   3.614   0.721  11.235  1.3426 -0.0262  0.0829
17256TIP3   OH273258   4.005   0.866  16.709  0.6054  0.5140 -0.1261
17256TIP3    H173259   4.054   0.914  16.642  1.8181 -0.5652 -0.0528
17256TIP3    H273260   3.981   0.783  16.667  0.7319  0.1364  0.5284
17257TIP3   OH273261   0.357   3.498   2.073 -0.5140 -0.9286 -0.1561
17257TIP3    H173262   0.360   3.588   2.106  0.6735 -1.1659  0.4317
17257TIP3    H273263   0.433   3.455   2.112 -1.9740 -2.6745  0.9642
17258TIP3   OH273264   5.652   1.745  17.203  0.5169  0.2968 -0.0405
17258TIP3    H173265   5.693   1.784  17.126  1.3334  0.4814  0.4845
17258TIP3    H273266   5.712   1.675  17.229  1.0790  1.2686  1.3786
17259TIP3   OH273267   2.378   5.112   2.157  0.1638 -0.1991  0.2525
17259TIP3    H173268   2.319   5.134   2.085  1.2253  1.7770 -0.0787
17259TIP3    H273269   2.443   5.182   2.157  2.1539 -1.9592  1.0039
17260TIP3   OH273270   2.413   3.791   5.412 -0.2344 -0.0473  0.6980
17260TIP3    H173271   2.403   3.722   5.346 -1.4035  0.2752  0.5013
17260TIP3    H273272   2.474   3.755   5.476 -1.0153 -1.3745  0.7303
17261TIP3   OH273273   5.844   6.593  16.952 -0.0906 -0.3193  0.4477
17261TIP3    H173274   5.893   6.533  16.896 -1.6563 -1.4483  0.2349
17261TIP3    H273275   5.819   6.665  16.894  0.2650 -0.3380  0.2689
17262TIP3   OH273276   2.268   5.830   5.568  0.2281  0.1993 -0.6169
17262TIP3    H173277   2.287   5.784   5.486  1.1271 -2.1638  0.7979
17262TIP3    H273278   2.344   5.811   5.624 -0.8388  0.8103  1.1213
17263TIP3   OH273279   4.083   2.472  16.647 -0.6404 -0.5513  0.3554
17263TIP3    H173280   4.014   2.519  16.600 -0.6616  0.5979  1.4847
17263TIP3    H273281   4.042   2.444  16.728  0.3764  0.8052  1.3879
17264TIP3   OH273282   3.558   5.463   5.151  0.7286  0.1285  0.4954
17264TIP3    H173283   3.516   5.440   5.234 -0.7798 -0.9677 -0.5227
17264TIP3    H273284   3.571   5.558   5.156  0.0838  0.1717  1.7242
17265TIP3   OH273285   4.784   5.667  16.750  0.3042  0.6365 -0.0679
17265TIP3    H173286   4.809   5.643  16.661  1.7335 -0.5690  0.6083
17265TIP3    H273287   4.691   5.645  16.756  0.9510 -2.6909 -0.2719
17266TIP3   OH273288   1.234   6.103  14.082  0.0239 -0.3930  0.2154
17266TIP3    H173289   1.156   6.136  14.037  0.5801 -1.3952 -1.5501
17266TIP3    H273290   1.306   6.119  14.022  0.9871 -0.7735  1.2305
17267TIP3   OH273291   4.300   0.263   3.141 -0.0350  0.0901 -0.6859
17267TIP3    H173292   4.259   0.348   3.123 -0.6107  0.1855  0.9769
17267TIP3    H273293   4.369   0.283   3.204 -1.3336 -0.8733  1.1372
17268TIP3   OH273294   4.704   2.098  10.978  0.2084 -0.7927  0.2091
17268TIP3    H173295   4.797   2.117  10.961  0.3742 -0.0891  1.7241
17268TIP3    H273296   4.695   2.005  10.955  1.4813 -1.0702  0.6941
17269TIP3   OH273297   3.617   4.010   3.551 -0.0882  0.0971  0.3722
17269TIP3    H173298   3.546   4.075   3.551  0.3517  0.6261  1.7690
17269TIP3    H273299   3.695   4.061   3.532  0.0997 -0.2654  0.1603
17270TIP3   OH273300   5.358   1.332  10.496  0.0448 -0.0485 -0.2626
17270TIP3    H173301   5.270   1.368  10.507  0.4415  0.6699  0.7851
17270TIP3    H273302   5.363   1.262  10.562 -0.1190 -0.8649 -1.0980
17271TIP3   OH273303   4.765   4.481  16.093 -0.4084 -0.5627  0.0807
17271TIP3    H173304   4.772   4.544  16.165  0.1619 -1.0493  0.4598
17271TIP3    H273305   4.705   4.414  16.127 -2.5398  0.6899 -1.0159
17272TIP3   OH273306   4.358   5.257  12.751  0.4841  0.3567 -0.0197
17272TIP3    H173307   4.271   5.230  12.780  0.9146  0.8864  1.9799
17272TIP3    H273308   4.418   5.211  12.810  1.6167 -0.3678 -1.6575
17273TIP3   OH273309   6.108   3.736   4.001  0.5094  0.2750 -1.0793
17273TIP3    H173310   6.060   3.792   4.062  2.9276  1.6639 -0.2982
17273TIP3    H273311   6.089   3.772   3.915  0.0798  0.7187 -0.8028
17274TIP3   OH273312   6.632   1.575   4.459 -0.1960 -0.3268  0.3567
17274TIP3    H173313   6.616   1.487   4.494 -0.9258  0.4145  1.9797
17274TIP3    H273314   6.693   1.615   4.521  1.4300 -0.2002 -1.2452
17275TIP3   OH273315   1.631   4.377   5.694  0.2516 -0.4883 -0.1639
17275TIP3    H173316   1.587   4.457   5.664 -0.1614 -0.7389 -0.2440
17275TIP3    H273317   1.702   4.408   5.749  0.1807 -0.0595 -0.3062
17276TIP3   OH273318   4.659   2.605   2.294 -0.0710  0.6889  0.0535
17276TIP3    H173319   4.681   2.633   2.383  1.0443  0.1483 -0.0276
17276TIP3    H273320   4.606   2.526   2.305  0.3383  0.4389  0.2414
17277TIP3   OH273321   1.936   5.020  14.449  0.3304  0.1577 -0.1332
17277TIP3    H173322   1.918   5.045  14.539 -0.6990  0.9458 -0.5326
17277TIP3    H273323   1.899   5.091  14.396 -0.2035 -0.8729 -1.2146
17278TIP3   OH273324   3.783   0.450  15.822  0.2805  0.1643 -0.4089
17278TIP3    H173325   3.773   0.361  15.856  2.0473 -0.7811 -2.1997
17278TIP3    H273326   3.837   0.495  15.887 -2.4826  0.7431  1.6797
17279TIP3   OH273327   2.325   3.155   0.644  0.1826 -0.0118 -0.2824
17279TIP3    H173328   2.391   3.221   0.624 -0.2733  0.6700  0.4048
17279TIP3    H273329   2.243   3.204   0.648 -0.4870 -0.9461 -1.7847
17280TIP3   OH273330   2.804   0.167  17.002 -0.4043  0.4867  0.0782
17280TIP3    H173331   2.771   0.130  17.084 -0.2353  0.4992  0.1508
17280TIP3    H273332   2.899   0.155  17.006 -0.4995 -0.8992 -0.7854
17281TIP3   OH273333   6.237   0.239   0.287 -0.1579  0.3746 -0.5895
17281TIP3    H173334   6.175   0.190   0.233 -0.8391  1.2965 -0.6640
17281TIP3    H273335   6.238   0.192   0.370  0.8956 -1.0569 -1.3521
17282TIP3   OH273336   4.796   3.159   2.004 -0.4586  0.1257 -0.1986
17282TIP3    H173337   4.838   3.113   2.077 -0.5101 -0.7185 -0.6834
17282TIP3    H273338   4.838   3.245   2.003  0.4130 -0.2774  0.0800
17283TIP3   OH273339   6.592   0.610   6.301  0.1582  0.1316 -0.0295
17283TIP3    H173340   6.573   0.594   6.393  0.1323 -0.0474 -0.0672
17283TIP3    H273341   6.611   0.524   6.264 -1.6594 -0.0730 -0.6119
17284TIP3   OH273342   0.040   0.103   5.039 -0.1514 -0.0504  0.5128
17284TIP3    H173343   0.128   0.123   5.008 -0.0743  0.1537  0.8568
17284TIP3    H273344   0.002   0.189   5.059 -0.5506 -0.1145  0.0386
17285TIP3   OH273345   4.426   3.709  13.567 -0.5455 -0.3941  0.6263
17285TIP3    H173346   4.404   3.803  13.565 -2.4601 -0.8079  0.1081
17285TIP3    H273347   4.394   3.675  13.484  3.1158 -0.9849 -0.7273
17286TIP3   OH273348   6.032   6.122   0.413  0.2424 -0.2169 -0.2297
17286TIP3    H173349   5.937   6.129   0.423  0.4984  2.0861  1.4162
17286TIP3    H273350   6.064   6.101   0.501  1.3436  0.5895 -0.4152
17287TIP3   OH273351   5.094   1.624  14.993 -0.0811  0.4456 -0.1125
17287TIP3    H173352   5.078   1.708  15.037 -0.9660  0.7537 -0.9739
17287TIP3    H273353   5.027   1.565  15.028 -0.2029  0.4341 -0.3602
17288TIP3   OH273354   6.080   3.965   0.871  0.2772 -0.1536  0.2049
17288TIP3    H173355   6.143   3.955   0.942  0.8001 -1.7699 -0.4465
17288TIP3    H273356   6.003   4.005   0.913  0.8971 -0.2541  1.4799
17289TIP3   OH273357   4.271   5.276   6.195  0.0980  0.4600  0.0581
17289TIP3    H173358   4.225   5.257   6.113  2.5522 -0.7663 -1.1118
17289TIP3    H273359   4.300   5.191   6.226 -1.8251  0.7339  2.9537
17290TIP3   OH273360   2.017   1.461  15.296 -0.0428 -0.3105 -0.4349
17290TIP3    H173361   2.063   1.391  15.250 -0.3045 -1.1554  0.5393
17290TIP3    H273362   2.007   1.428  15.385 -2.3649 -0.1009 -0.5630
17291TIP3   OH273363   0.436   6.487   1.763 -0.2060 -0.1112  0.1700
17291TIP3    H173364   0.381   6.475   1.686  0.0575  0.2808 -0.0772
17291TIP3    H273365   0.416   6.575   1.794 -2.1297 -1.0895  1.9904
17292TIP3   OH273366   1.961   5.549  13.257  0.0448 -0.5860 -0.6852
17292TIP3    H173367   2.057   5.556  13.249 -0.0177  1.7802 -0.0800
17292TIP3    H273368   1.948   5.471  13.311  1.7707  0.0330  0.7554
17293TIP3   OH273369   0.193   5.782  16.491 -0.2485 -0.1562 -0.3108
17293TIP3    H173370   0.226   5.843  16.557 -0.3800  0.1145 -0.4947
17293TIP3    H273371   0.270   5.756  16.441 -0.3102  0.4548 -0.7226
17294TIP3   OH273372   2.814   3.024  11.204 -0.0211 -0.8958  0.6160
17294TIP3    H173373   2.760   2.959  11.160 -0.7577 -0.6214  1.0963
17294TIP3    H273374   2.888   3.038  11.144 -1.2149 -0.1884 -0.7788
17295TIP3   OH273375   3.652   1.631  12.174 -0.2284 -0.5355 -0.4361
17295TIP3    H173376   3.619   1.721  12.171 -1.3806 -0.9758 -1.2749
17295TIP3    H273377   3.645   1.607  12.267 -0.4938  0.0206 -0.3049
17296TIP3   OH273378   6.631   5.322   5.936  0.4053  0.2971 -0.1391
17296TIP3    H173379   6.708   5.359   5.894  1.2978 -1.7325 -0.4100
17296TIP3    H273380   6.642   5.341   6.029  0.4199  1.3589 -0.3410
17297TIP3   OH273381   6.176   4.047   3.470  0.2739 -0.6354 -0.6733
17297TIP3    H173382   6.091   4.012   3.443  0.1201 -1.2948  0.6104
17297TIP3    H273383   6.163   4.142   3.474 -0.6490 -0.7933  0.3168
17298TIP3   OH273384   3.122   4.271   1.179 -0.0435 -0.0264 -0.0182
17298TIP3    H173385   3.047   4.299   1.232  1.1853  2.4610  0.5288
17298TIP3    H273386   3.196   4.275   1.238  0.7390 -1.3437 -0.8577
17299TIP3   OH273387   4.637   3.797  12.985  0.1144  0.1352  0.3035
17299TIP3    H173388   4.566   3.857  12.964 -0.4530 -0.9457 -1.0486
17299TIP3    H273389   4.714   3.853  12.996 -1.0695  1.4380  2.7920
17300TIP3   OH273390   6.440   1.436   0.767  0.4978 -0.7994 -0.1677
17300TIP3    H173391   6.378   1.504   0.793  1.6501 -0.5068  2.1287
17300TIP3    H273392   6.438   1.436   0.672  0.3507  2.3702 -0.2697
17301TIP3   OH273393   5.766   2.991   6.490  0.3861  0.2610 -0.3184
17301TIP3    H173394   5.764   2.905   6.449 -0.5686  0.6904 -1.2321
17301TIP3    H273395   5.830   3.041   6.439  1.7583 -0.2070  0.8935
17302TIP3   OH273396   5.112   5.445   3.537 -0.2829  0.2320 -0.6718
17302TIP3    H173397   5.142   5.511   3.599  0.5455  0.1288 -0.9576
17302TIP3    H273398   5.102   5.365   3.589  1.5939 -0.1733 -0.8777
17303TIP3   OH273399   4.170   2.062  15.625  0.0686  0.2203 -0.2427
17303TIP3    H173400   4.130   1.978  15.648 -0.1236 -0.2580 -2.1375
17303TIP3    H273401   4.260   2.040  15.602 -0.5303  0.1332 -2.7673
17304TIP3   OH273402   3.657   0.441   5.174  0.0775  0.4555 -0.9839
17304TIP3    H173403   3.623   0.521   5.214 -0.5776 -0.1542 -0.2949
17304TIP3    H273404   3.741   0.467   5.136  0.2446  1.2830 -0.0798
17305TIP3   OH273405   0.645   0.029  17.214  0.0944 -0.0553 -0.1852
17305TIP3    H173406   0.712   0.078  17.261  0.0848  0.0404 -0.2725
17305TIP3    H273407   0.566   0.082  17.221  0.1409  0.0570 -0.4773
17306TIP3   OH273408   1.488   1.194   0.342 -0.5512 -0.3385  0.2022
17306TIP3    H173409   1.523   1.252   0.275 -0.1252 -3.4710 -2.5871
17306TIP3    H273410   1.393   1.209   0.340 -0.5453 -0.4067 -1.1700
17307TIP3   OH273411   6.120   2.269  10.752  0.0461 -0.0406 -0.1010
17307TIP3    H173412   6.073   2.195  10.714  0.8250 -0.1018 -0.9714
17307TIP3    H273413   6.097   2.266  10.845 -1.3705 -0.2748 -0.4353
17308TIP3   OH273414   3.054   5.525  10.410  0.3909  0.4129  0.1711
17308TIP3    H173415   3.039   5.556  10.500 -0.4322 -0.5505  0.3832
17308TIP3    H273416   3.148   5.507  10.406 -0.0105 -2.7205  1.9345
17309TIP3   OH273417   2.488   2.422   4.769  0.4514 -0.1643  0.3298
17309TIP3    H173418   2.418   2.372   4.728 -0.4268  0.2532  1.2584
17309TIP3    H273419   2.444   2.472   4.838  1.3694  1.4974 -0.2383
17310TIP3   OH273420   4.384   0.255   3.719 -0.0632  0.3555  0.1751
17310TIP3    H173421   4.380   0.184   3.654 -1.1046  0.3200  0.2632
17310TIP3    H273422   4.316   0.316   3.691  1.3827  1.7669 -0.3921
17311TIP3   OH273423   1.452   0.170   0.217 -0.0260  0.2483 -0.7423
17311TIP3    H173424   1.396   0.195   0.290 -1.0420  0.2595 -1.4949
17311TIP3    H273425   1.433   0.078   0.202 -0.0911  0.3344 -1.2121
17312TIP3   OH273426   0.659   5.313  17.209  0.0034 -0.1942 -0.7869
17312TIP3    H173427   0.700   5.296  17.124 -0.8888 -1.8281 -0.9291
17312TIP3    H273428   0.622   5.229  17.235 -1.9416  0.8545  0.0414
17313TIP3   OH273429   2.544   0.764  15.207 -0.4929  0.0138  0.0601
17313TIP3    H173430   2.573   0.706  15.277  0.6904  0.5363  0.0210
17313TIP3    H273431   2.623   0.784  15.157 -1.2836 -0.1879 -1.3179
17314TIP3   OH273432   5.920   4.075  14.389  0.0693 -0.0560  0.0041
17314TIP3    H173433   5.835   4.037  14.366 -0.2071  0.3177  0.3804
17314TIP3    H273434   5.901   4.167  14.405  0.7359  0.2587 -0.9207
17315TIP3   OH273435   5.583   3.632  16.239  0.4963  0.3814  0.1179
17315TIP3    H173436   5.547   3.654  16.153  0.5176  0.9922  0.2643
17315TIP3    H273437   5.534   3.686  16.301  0.2703 -0.2770  0.5322
17316TIP3   OH273438   6.181   5.009   4.273 -1.4824 -0.3583  0.0501
17316TIP3    H173439   6.181   5.012   4.369 -1.6651  0.7239  0.0274
17316TIP3    H273440   6.222   4.925   4.252  1.6811  0.7708  1.0603
17317TIP3   OH273441   3.557   2.901   0.053  0.7568  0.6683 -0.0998
17317TIP3    H173442   3.550   2.832   0.120  3.2151  1.1984  0.8219
17317TIP3    H273443   3.651   2.909   0.038  0.3760  2.1571 -1.9948
17318TIP3   OH273444   6.591   6.635   4.700  0.1502 -0.3970 -0.3502
17318TIP3    H173445   6.609   6.548   4.663 -0.3764 -0.6592 -0.0080
17318TIP3    H273446   6.603   6.624   4.794  1.7839  0.3481 -0.4383
17319TIP3   OH273447   2.469   1.607  12.825 -0.4419  0.0963 -0.6721
17319TIP3    H173448   2.448   1.514  12.825  0.2147 -0.0800  0.7991
17319TIP3    H273449   2.383   1.650  12.829 -0.7097 -0.5057  0.5711
17320TIP3   OH273450   3.158   6.456  14.959  0.0927 -0.1125 -0.5335
17320TIP3    H173451   3.171   6.399  14.883  0.0807  0.3849 -0.9106
17320TIP3    H273452   3.234   6.514  14.959 -0.1536  0.2115 -0.4512
17321TIP3   OH273453   4.381   4.833   1.218 -0.5149 -0.1974 -0.0116
17321TIP3    H173454   4.327   4.861   1.144 -1.1138 -3.3327 -0.9086
17321TIP3    H273455   4.468   4.817   1.179  0.1821  1.5835  0.7438
17322TIP3   OH273456   0.900   4.287   2.086 -0.3812  0.1263 -0.7027
17322TIP3    H173457   0.926   4.357   2.147  1.0174 -0.7558 -0.2507
17322TIP3    H273458   0.808   4.270   2.109 -0.1650  0.4634  0.5303
17323TIP3   OH273459   6.787   0.776  13.401 -0.1428  0.0086 -0.4469
17323TIP3    H173460   6.847   0.704  13.385 -0.1577 -0.0178 -0.3829
17323TIP3    H273461   6.712   0.758  13.345 -1.3349 -1.4404  1.5130
17324TIP3   OH273462   4.102   1.219  15.365  0.5542  0.1936  0.1389
17324TIP3    H173463   4.127   1.157  15.296  0.3532 -0.4176  0.5997
17324TIP3    H273464   4.094   1.303  15.321 -0.3303 -0.3351 -0.7320
17325TIP3   OH273465   3.049   2.655   1.461 -0.0073 -0.0982 -0.1192
17325TIP3    H173466   3.020   2.587   1.400 -0.8030 -0.6608  0.8421
17325TIP3    H273467   3.141   2.634   1.479 -0.0536 -0.5112 -0.3627
17326TIP3   OH273468   2.399   6.092  14.135  0.4230 -0.0839 -0.3631
17326TIP3    H173469   2.398   6.019  14.198 -1.4180  0.1909  0.0083
17326TIP3    H273470   2.345   6.160  14.177 -0.3740  0.3281 -1.9694
17327TIP3   OH273471   0.894   1.156   1.575 -0.3885  0.2251  0.3211
17327TIP3    H173472   0.879   1.070   1.614 -0.3453 -0.4402 -1.0788
17327TIP3    H273473   0.877   1.218   1.646  0.3716 -0.9649  1.5808
17328TIP3   OH273474   3.390   2.828   1.804 -0.4298  0.1699  0.3519
17328TIP3    H173475   3.359   2.842   1.894  0.4596 -1.7779  1.0153
17328TIP3    H273476   3.486   2.828   1.812 -0.3247  0.8173 -0.7577
17329TIP3   OH273477   2.958   3.560   4.437 -0.2593  0.1006 -0.1543
17329TIP3    H173478   2.932   3.468   4.439 -2.4146  0.6394 -1.0557
17329TIP3    H273479   3.030   3.563   4.374  0.4314 -1.0656  0.5378
17330TIP3   OH273480   1.681   3.136   0.944  0.1524 -0.5951 -0.4513
17330TIP3    H173481   1.752   3.096   0.994  1.5686  0.6837 -1.3600
17330TIP3    H273482   1.719   3.216   0.908 -0.9277 -1.1833 -3.1606
17331TIP3   OH273483   5.510   6.731   1.947  0.5584  0.1714  0.5510
17331TIP3    H173484   5.579   6.715   2.011 -0.1765  0.7352  1.5250
17331TIP3    H273485   5.480   6.644   1.922 -0.0908 -0.0962  2.0831
17332TIP3   OH273486   0.269   2.593   5.611 -0.1078  0.3466 -0.0432
17332TIP3    H173487   0.305   2.562   5.695 -2.2861  0.4280  0.9946
17332TIP3    H273488   0.346   2.620   5.561  1.3627 -0.7148  1.5000
17333TIP3   OH273489   2.974   6.646  11.220  0.4211  0.1035 -0.4548
17333TIP3    H173490   2.879   6.648  11.212  0.4067 -1.1689 -0.8389
17333TIP3    H273491   3.000   6.738  11.227 -0.9361  0.4159  1.0116
17334TIP3   OH273492   0.991   1.910   4.432 -0.0054 -0.0022 -0.1419
17334TIP3    H173493   1.038   1.897   4.350 -0.2253 -0.0887 -0.2555
17334TIP3    H273494   0.945   1.993   4.421 -1.5661 -0.9018 -0.8650
17335TIP3   OH273495   6.477   3.013  16.307 -0.0712 -0.5332  0.7608
17335TIP3    H173496   6.491   2.980  16.218 -0.9632 -1.6778  1.0241
17335TIP3    H273497   6.538   3.086  16.315  0.0350 -0.4212 -0.7876
17336TIP3   OH273498   0.180   0.115  16.692 -0.3055  0.3004 -0.0605
17336TIP3    H173499   0.205   0.076  16.608 -2.6837  1.5522 -1.4568
17336TIP3    H273500   0.218   0.056  16.758  1.0593 -1.1074 -1.9920
17337TIP3   OH273501   3.439   2.439  13.459  0.0621 -0.0023 -0.4567
17337TIP3    H173502   3.507   2.391  13.506 -2.1217 -0.7922  2.1830
17337TIP3    H273503   3.475   2.452  13.371  2.9290 -1.6978  0.3182
17338TIP3   OH273504   1.810   5.065   1.890 -0.1785 -0.1605  0.2443
17338TIP3    H173505   1.739   5.119   1.926  0.2858 -0.3007  1.4250
17338TIP3    H273506   1.789   5.057   1.797 -0.1949  2.1549 -0.0125
17339TIP3   OH273507   3.260   5.474  11.941 -0.2748 -0.4152 -0.1092
17339TIP3    H173508   3.215   5.459  11.858 -3.3629  0.0387  1.3336
17339TIP3    H273509   3.200   5.441  12.008  1.6700  0.0560  2.0232
17340TIP3   OH273510   3.799   4.553   5.041  0.7501  0.3008  0.4251
17340TIP3    H173511   3.887   4.552   5.004  0.2562  1.1102 -0.8768
17340TIP3    H273512   3.780   4.646   5.055 -0.2126  0.2194 -0.1909
17341TIP3   OH273513   3.857   0.597   3.878  0.2002  0.1564  0.6782
17341TIP3    H173514   3.865   0.545   3.957  1.4648 -2.4860 -1.0261
17341TIP3    H273515   3.943   0.590   3.836 -0.4831  1.2800 -1.0170
17342TIP3   OH273516   1.259   2.600   5.409 -1.0760 -0.1240  0.8325
17342TIP3    H173517   1.311   2.665   5.457 -0.1787 -1.6297  1.9601
17342TIP3    H273518   1.323   2.539   5.374 -1.8783 -0.1381 -0.6725
17343TIP3   OH273519   2.671   6.039   3.327  0.0818  0.6455 -0.3644
17343TIP3    H173520   2.698   6.036   3.419 -2.3735  0.4724  0.4103
17343TIP3    H273521   2.726   5.974   3.284  2.0653  1.5169  0.7009
17344TIP3   OH273522   4.910   5.967  12.508 -0.2173 -0.0388 -0.3345
17344TIP3    H173523   4.893   5.923  12.591  0.8162 -2.0701 -1.1041
17344TIP3    H273524   4.945   6.053  12.532  0.6539 -0.8117  1.3507
17345TIP3   OH273525   6.610   5.885   0.725  0.0204  0.0320  0.0620
17345TIP3    H173526   6.661   5.826   0.669 -0.6492  0.4609 -1.0372
17345TIP3    H273527   6.639   5.865   0.814 -0.5982 -2.3762 -0.2129
17346TIP3   OH273528   1.790   0.328  15.578  0.2395 -0.2681 -0.1783
17346TIP3    H173529   1.741   0.368  15.505 -1.0128 -1.9955 -0.3476
17346TIP3    H273530   1.857   0.274  15.535  0.2491 -0.3754 -0.0295
17347TIP3   OH273531   3.925   0.378  16.488  0.0457  0.1507 -0.0594
17347TIP3    H173532   4.007   0.393  16.536 -0.1366  2.3752 -0.3414
17347TIP3    H273533   3.944   0.404  16.398 -0.6962 -0.3214 -0.3680
17348TIP3   OH273534   6.685   6.542   2.781  0.1133  0.1161  0.5473
17348TIP3    H173535   6.773   6.530   2.746  0.3114 -0.2090  1.1363
17348TIP3    H273536   6.699   6.566   2.872 -0.4163 -2.3536  1.3605
17349TIP3   OH273537   4.964   3.670  13.557 -0.2883 -0.2872  0.0952
17349TIP3    H173538   5.014   3.638  13.481  0.5779 -0.5524  0.7579
17349TIP3    H273539   4.900   3.601  13.574  0.3244 -0.8008  0.3508
17350TIP3   OH273540   1.479   1.929   2.055  0.5044  0.1401 -0.3631
17350TIP3    H173541   1.442   1.984   2.124  0.8611  1.3093 -1.0710
17350TIP3    H273542   1.420   1.942   1.980  0.9391  0.0344 -0.7240
17351TIP3   OH273543   5.566   4.392  11.157 -0.1779  0.0983  0.4072
17351TIP3    H173544   5.621   4.391  11.236  0.9496 -0.0852 -0.3547
17351TIP3    H273545   5.606   4.458  11.101 -0.1642 -0.7006 -0.5503
17352TIP3   OH273546   1.574   5.105  17.002 -0.7017 -0.1903 -0.3545
17352TIP3    H173547   1.585   5.171  16.933  0.7223 -1.3084 -1.2543
17352TIP3    H273548   1.480   5.098  17.013 -0.9164  2.1622 -0.0274
17353TIP3   OH273549   1.530   5.045   1.415 -0.0286  0.1042  0.2481
17353TIP3    H173550   1.478   4.980   1.463  0.7878 -0.9764 -0.2831
17353TIP3    H273551   1.504   5.129   1.452 -0.9787 -0.5395  1.0883
17354TIP3   OH273552   6.253   2.435   3.893  0.4070 -0.0169 -0.4514
17354TIP3    H173553   6.304   2.397   3.964  2.7926  0.3241 -1.8838
17354TIP3    H273554   6.253   2.529   3.912 -0.8528 -0.1373  0.2273
17355TIP3   OH273555   1.758   3.510  13.064  0.1109  0.2355 -0.0390
17355TIP3    H173556   1.788   3.498  12.974  1.7794 -1.4983  0.6631
17355TIP3    H273557   1.687   3.447  13.074  0.1685  0.1710 -0.0372
17356TIP3   OH273558   2.408   3.306   0.050  0.6657  0.0906  0.0889
17356TIP3    H173559   2.489   3.321   0.097 -0.0304 -1.0636  1.7574
17356TIP3    H273560   2.342   3.355   0.099  0.5406  2.6311 -2.3254
17357TIP3   OH273561   4.121   3.552   2.643 -0.3164  0.3768 -0.6538
17357TIP3    H173562   4.053   3.615   2.617  0.4103  1.4864  0.0544
17357TIP3    H273563   4.171   3.536   2.563 -2.3582 -1.7786 -1.6461
17358TIP3   OH273564   3.857   3.487   5.763  0.4365 -0.0428 -0.1671
17358TIP3    H173565   3.929   3.504   5.702 -0.7635  1.6192 -1.1957
17358TIP3    H273566   3.818   3.406   5.730  0.2131  0.4805 -1.2539
17359TIP3   OH273567   5.001   6.808  11.920 -0.1319 -0.0584 -0.5439
17359TIP3    H173568   5.085   6.842  11.889 -0.0501 -0.9351 -1.3414
17359TIP3    H273569   5.002   6.716  11.896 -0.9509 -0.2902  0.2553
17360TIP3   OH273570   1.854   1.265  14.077  0.3168  0.2786  0.0945
17360TIP3    H173571   1.900   1.181  14.079  0.4435  0.3501  0.2021
17360TIP3    H273572   1.916   1.327  14.115 -0.4011  0.1136  1.6331
17361TIP3   OH273573   6.162   1.607   2.065 -0.4764 -0.2056  0.1961
17361TIP3    H173574   6.089   1.609   2.127 -1.1048  0.0151 -0.5288
17361TIP3    H273575   6.240   1.601   2.120 -0.9635  0.7760  1.0365
17362TIP3   OH273576   5.087   3.668   6.779  0.1209  0.2635  0.1702
17362TIP3    H173577   5.105   3.605   6.849 -0.0266  0.9878  0.8824
17362TIP3    H273578   5.105   3.620   6.698  0.1019 -0.6601  0.6933
17363TIP3   OH273579   4.461   0.182  14.035 -0.2662 -0.2591 -0.4099
17363TIP3    H173580   4.372   0.170  14.002 -1.2631  5.7295 -0.9640
17363TIP3    H273581   4.517   0.174  13.958 -1.1736  1.8315 -1.3655
17364TIP3   OH273582   2.224   3.082  11.535 -0.6291 -0.1704  0.1312
17364TIP3    H173583   2.202   3.098  11.443  2.7511  0.1121 -0.7683
17364TIP3    H273584   2.256   3.167  11.566  0.2170 -0.7587  0.9087
17365TIP3   OH273585   3.020   6.643  11.588 -0.1352 -0.1636  0.1784
17365TIP3    H173586   3.104   6.596  11.588  0.6938  1.2500  0.2088
17365TIP3    H273587   2.954   6.574  11.594  0.9383 -1.4559 -1.6926
17366TIP3   OH273588   2.713   3.485   2.681  0.1879  0.8270  0.0688
17366TIP3    H173589   2.702   3.571   2.640  0.9694  0.5111 -0.8623
17366TIP3    H273590   2.624   3.455   2.699 -0.1277  1.4747 -0.3612
17367TIP3   OH273591   0.208   5.539   2.857  0.2741 -0.0090  0.2247
17367TIP3    H173592   0.263   5.561   2.782 -0.1955 -3.1349 -1.1780
17367TIP3    H273593   0.135   5.490   2.820 -1.3635  0.5398  2.4901
17368TIP3   OH273594   4.759   4.675   4.564 -0.2596  0.6283  0.1016
17368TIP3    H173595   4.747   4.768   4.579 -2.7087  0.2127  1.2550
17368TIP3    H273596   4.689   4.633   4.615  0.2121 -1.7768 -1.0693
17369TIP3   OH273597   3.980   3.235   6.375 -0.0448 -0.1954 -0.3547
17369TIP3    H173598   4.054   3.190   6.415  1.9063  1.3702 -1.9539
17369TIP3    H273599   3.967   3.190   6.292  0.0894  0.4215 -0.7203
17370TIP3   OH273600   4.616   0.993  13.202  0.7805  0.4483  0.1884
17370TIP3    H173601   4.528   0.975  13.170  0.7677  0.1111  0.4127
17370TIP3    H273602   4.670   0.997  13.123  0.4309  1.4755 -0.0192
17371TIP3   OH273603   5.101   2.100   4.558  0.3744  0.0274  0.3367
17371TIP3    H173604   5.109   2.096   4.463  1.5362 -0.0081  0.4194
17371TIP3    H273605   5.116   2.010   4.587 -0.8448 -0.1282  0.5045
17372TIP3   OH273606   0.638   4.009   2.965 -0.3288 -0.5299 -0.4393
17372TIP3    H173607   0.595   4.093   2.946  0.3636 -0.5699 -2.3941
17372TIP3    H273608   0.578   3.943   2.932 -0.7370 -0.8207  0.8327
17373TIP3   OH273609   4.610   0.087  11.328  0.1697 -0.1982 -0.1107
17373TIP3    H173610   4.692   0.039  11.334 -0.1629 -1.0433 -1.6392
17373TIP3    H273611   4.635   0.174  11.296  1.0630  1.7346  4.9700
17374TIP3   OH273612   3.226   5.155   5.065  0.1320  0.0290  0.4061
17374TIP3    H173613   3.198   5.125   5.151 -0.7669 -1.3332 -0.3281
17374TIP3    H273614   3.322   5.150   5.067  0.0449 -1.9067  0.6817
17375TIP3   OH273615   0.886   1.369  15.462  0.9881  0.1165 -0.4578
17375TIP3    H173616   0.903   1.461  15.443 -0.7253  0.2801 -1.4699
17375TIP3    H273617   0.887   1.326  15.376 -2.5351  0.0564 -0.6165
17376TIP3   OH273618   2.829   6.811  13.579  0.1470 -0.1581 -0.1791
17376TIP3    H173619   2.801   6.773  13.662  0.0203  0.9240  0.2960
17376TIP3    H273620   2.839   6.736  13.520 -1.1195 -0.8235  0.4082
17377TIP3   OH273621   0.553   1.963   5.866 -0.2997 -0.2565  0.0706
17377TIP3    H173622   0.630   1.920   5.904  1.4597  2.0736 -0.6708
17377TIP3    H273623   0.540   1.918   5.782  0.3843 -0.5366  0.1069
17378TIP3   OH273624   3.762   3.148  15.942 -0.1844  0.0270 -0.2118
17378TIP3    H173625   3.713   3.229  15.928 -1.3488 -0.3614  1.3819
17378TIP3    H273626   3.706   3.079  15.907  0.1639 -0.2360 -0.2630
17379TIP3   OH273627   3.451   3.672   4.602 -0.4597 -0.1962 -0.2182
17379TIP3    H173628   3.411   3.748   4.645  0.4819  0.1126  0.1247
17379TIP3    H273629   3.414   3.597   4.648 -0.8898  0.0718 -0.1157
17380TIP3   OH273630   6.155   3.671  11.308 -0.1986  0.3033  0.1837
17380TIP3    H173631   6.184   3.717  11.229 -1.0687 -1.9309 -1.5414
17380TIP3    H273632   6.215   3.702  11.377  0.5996  2.3190 -1.3054
17381TIP3   OH273633   2.358   6.090  16.269 -0.3673  0.4362 -0.3215
17381TIP3    H173634   2.367   6.074  16.363  0.3428  0.1720 -0.4254
17381TIP3    H273635   2.326   6.180  16.263 -1.6591  0.0261  0.2023
17382TIP3   OH273636   2.007   1.189   4.506 -0.4205  0.2392  0.4376
17382TIP3    H173637   2.103   1.187   4.503 -0.3027  1.8612  1.4963
17382TIP3    H273638   1.987   1.231   4.590 -2.0244  1.0994 -0.3292
17383TIP3   OH273639   2.175   4.525   4.274 -0.1523  0.2568  1.0170
17383TIP3    H173640   2.240   4.592   4.296 -1.5068  2.1621 -0.5219
17383TIP3    H273641   2.144   4.549   4.187 -1.2469 -1.9842  0.7183
17384TIP3   OH273642   4.213   5.339   4.325 -0.2004  0.5687  0.4109
17384TIP3    H173643   4.211   5.245   4.344  2.5074  0.2987 -0.1978
17384TIP3    H273644   4.226   5.380   4.410 -1.4909  0.4436  0.6932
17385TIP3   OH273645   5.270   1.574   4.007  0.0177 -0.2451  1.0059
17385TIP3    H173646   5.204   1.532   3.952 -0.4617  0.3686  1.1006
17385TIP3    H273647   5.308   1.642   3.951 -2.1025  1.9900  2.0839
17386TIP3   OH273648   1.145   1.544  12.552 -0.4571  0.6827 -0.5121
17386TIP3    H173649   1.139   1.525  12.458 -1.7880 -0.4268 -0.2408
17386TIP3    H273650   1.054   1.546  12.582 -0.0591  1.2202  0.7202
17387TIP3   OH273651   6.299   4.007   2.512 -0.0395  0.4366 -0.2613
17387TIP3    H173652   6.375   4.061   2.536  0.8148 -0.5889 -0.5607
17387TIP3    H273653   6.229   4.036   2.570  1.2900 -0.3098  1.7997
17388TIP3   OH273654   6.499   3.565  13.421  0.3870  0.2301  0.5733
17388TIP3    H173655   6.530   3.653  13.403  0.6002  0.0153 -0.1534
17388TIP3    H273656   6.555   3.534  13.492  0.8547  0.3890  0.2786
17389TIP3   OH273657   2.864   6.768  16.007 -0.1406 -0.3231 -0.8902
17389TIP3    H173658   2.905   6.852  16.023  0.6026  0.3432 -5.1626
17389TIP3    H273659   2.770   6.785  16.011  0.0079  0.5737 -1.2167
17390TIP3   OH273660   5.738   2.073   4.654  0.0207 -0.1585 -0.3472
17390TIP3    H173661   5.648   2.075   4.621  0.1478  0.4425 -0.6734
17390TIP3    H273662   5.779   2.000   4.606 -0.0125  0.2137 -0.9515
17391TIP3   OH273663   3.926   5.678  15.599  0.0417 -0.1868  0.0975
17391TIP3    H173664   3.847   5.628  15.617  0.9450 -1.8055 -0.1780
17391TIP3    H273665   3.959   5.642  15.517  1.2569  0.1734  0.3974
17392TIP3   OH273666   0.903   2.465   3.430  0.2341 -0.0749  0.1274
17392TIP3    H173667   0.918   2.455   3.336  1.8150  0.9356  0.2301
17392TIP3    H273668   0.957   2.540   3.455  0.5714 -0.8801  2.0022
17393TIP3   OH273669   6.452   5.683  11.819  0.4683  0.1417 -0.0736
17393TIP3    H173670   6.543   5.666  11.846  0.8781 -0.9801 -1.9881
17393TIP3    H273671   6.408   5.599  11.830 -0.1177  0.4610  0.0221
17394TIP3   OH273672   3.837   5.550   5.672  0.3122  0.3135 -0.1324
17394TIP3    H173673   3.761   5.492   5.673  0.1365  0.4794  1.9588
17394TIP3    H273674   3.911   5.492   5.651 -0.0914 -0.3545  0.2364
17395TIP3   OH273675   2.287   5.541   2.108  0.1444 -0.0581  0.4754
17395TIP3    H173676   2.261   5.473   2.045  1.9605 -0.8909  0.5479
17395TIP3    H273677   2.255   5.623   2.070 -3.1575 -0.9866  0.9554
17396TIP3   OH273678   0.725   1.424   3.802 -0.1914 -0.1981  0.0057
17396TIP3    H173679   0.695   1.374   3.726 -0.3888 -2.3507  1.4149
17396TIP3    H273680   0.766   1.359   3.859 -0.5846  1.2249  2.0230
17397TIP3   OH273681   4.166   4.727  16.689 -0.1487 -0.2226  0.4489
17397TIP3    H173682   4.237   4.669  16.713 -1.0425 -1.2071  0.8055
17397TIP3    H273683   4.173   4.801  16.750  0.3948 -0.4411  0.6544
17398TIP3   OH273684   5.686   1.620  16.006  0.6325  1.2197 -0.3487
17398TIP3    H173685   5.753   1.569  16.052  1.8588  1.7961 -1.4249
17398TIP3    H273686   5.604   1.574  16.024  1.3252  0.3891  0.8548
17399TIP3   OH273687   4.703   4.602   5.257  0.1711 -0.5649 -0.0589
17399TIP3    H173688   4.751   4.683   5.241 -0.7607  0.1024  0.4306
17399TIP3    H273689   4.635   4.600   5.190 -1.8474  0.7303  1.8009
17400TIP3   OH273690   5.693   3.813   1.867  0.1024 -0.3584 -0.1170
17400TIP3    H173691   5.711   3.725   1.833 -2.0854 -0.8045 -0.2424
17400TIP3    H273692   5.627   3.800   1.935  2.1881  0.8599  2.3195
17401TIP3   OH273693   2.544   2.977   1.468 -0.8462 -0.4575 -0.2616
17401TIP3    H173694   2.452   3.003   1.457 -1.4688 -1.6225  1.7350
17401TIP3    H273695   2.564   2.998   1.559  0.3690 -1.6641 -0.2297
17402TIP3   OH273696   3.691   3.029   5.311 -0.0683 -0.4097 -0.0363
17402TIP3    H173697   3.638   3.108   5.317 -0.4598 -0.7087  0.5030
17402TIP3    H273698   3.635   2.960   5.346  1.0712 -0.5326  1.6635
17403TIP3   OH273699   0.167   5.606   5.707 -0.5240  0.0039  1.1672
17403TIP3    H173700   0.245   5.645   5.748 -1.5142  0.0984  3.0827
17403TIP3    H273701   0.120   5.680   5.669 -0.6125  0.2120  1.6738
17404TIP3   OH273702   4.033   0.677  11.402 -0.0973  0.0638 -0.0637
17404TIP3    H173703   4.070   0.666  11.489  0.4881  2.0502 -0.0338
17404TIP3    H273704   4.108   0.686  11.344 -0.4575  1.8319 -0.3174
17405TIP3   OH273705   6.677   5.268  17.233  0.3703  0.0396  0.0898
17405TIP3    H173706   6.590   5.308  17.240 -0.1312 -0.8443 -0.8778
17405TIP3    H273707   6.702   5.248  17.323 -0.6597 -0.1923  0.3335
17406TIP3   OH273708   5.455   2.427  12.238 -0.3633  0.2893  0.5716
17406TIP3    H173709   5.361   2.439  12.248 -0.6776  0.9458 -2.2784
17406TIP3    H273710   5.467   2.332  12.231 -0.7416  0.1832  1.2963
17407TIP3   OH273711   3.384   3.080  15.184 -0.0181  0.0796 -0.1959
17407TIP3    H173712   3.307   3.053  15.133  0.0362  1.6721 -1.1787
17407TIP3    H273713   3.358   3.064  15.275 -1.7215  1.0226 -0.4708
17408TIP3   OH273714   1.755   6.810   2.590  0.1429  0.1028 -0.3413
17408TIP3    H173715   1.660   6.820   2.578  0.3674 -0.2470 -2.8996
17408TIP3    H273716   1.764   6.778   2.680 -2.2163 -0.5563 -0.2658
17409TIP3   OH273717   3.161   1.308  16.607 -0.5842  0.7303 -0.1188
17409TIP3    H173718   3.207   1.268  16.533 -0.0379 -0.2290  0.7261
17409TIP3    H273719   3.090   1.247  16.627  0.2631  0.1534  1.1951
17410TIP3   OH273720   4.944   3.794  17.101 -0.5078 -0.5279  0.5365
17410TIP3    H173721   4.936   3.751  17.186 -1.1712  0.1488  0.8209
17410TIP3    H273722   4.905   3.880  17.113 -0.3242 -0.3041 -0.3725
17411TIP3   OH273723   4.878   5.075   0.917  0.4873 -0.0882 -0.2283
17411TIP3    H173724   4.873   5.007   0.850  1.3323 -0.9826  0.5702
17411TIP3    H273725   4.972   5.096   0.923  0.2317  1.2041 -0.4973
17412TIP3   OH273726   1.948   5.949  16.953 -0.0784 -0.3266  0.5753
17412TIP3    H173727   1.961   5.861  16.918 -0.4749 -0.6283  1.1688
17412TIP3    H273728   1.860   5.973  16.923  0.3679  0.2365 -0.3386
17413TIP3   OH273729   0.045   5.959  12.372  0.3633  0.2575  0.4223
17413TIP3    H173730   0.118   5.910  12.335 -0.6540  0.0494 -1.4489
17413TIP3    H273731   0.071   5.978  12.462  2.1974 -0.8157  0.1575
17414TIP3   OH273732   5.892   1.734   0.844 -0.3876 -0.8826  0.1268
17414TIP3    H173733   5.813   1.736   0.899 -1.0992  0.5093 -0.9081
17414TIP3    H273734   5.894   1.644   0.810 -0.4609 -1.4924  1.6232
17415TIP3   OH273735   1.623   0.046   5.360  0.3799  0.2994  0.1449
17415TIP3    H173736   1.561   0.052   5.433 -0.5607  0.2073 -0.6378
17415TIP3    H273737   1.595   0.114   5.299 -0.1643 -1.0023 -1.1204
17416TIP3   OH273738   2.391   5.778   1.499 -0.1057  0.3691  0.1505
17416TIP3    H173739   2.298   5.791   1.484 -0.4442 -2.6997 -1.2034
17416TIP3    H273740   2.396   5.719   1.574  0.9029  2.1436  1.5455
17417TIP3   OH273741   5.834   1.544   0.573  0.1238 -0.2572  0.2673
17417TIP3    H173742   5.890   1.606   0.527 -0.8765 -1.7948 -3.3081
17417TIP3    H273743   5.747   1.584   0.572  0.3994  0.6517  2.9437
17418TIP3   OH273744   6.231   2.968  10.531 -0.1293 -0.7429  0.2178
17418TIP3    H173745   6.181   2.901  10.578 -1.2610  1.6881  2.7516
17418TIP3    H273746   6.166   3.013  10.478  0.4797 -1.0682 -0.8379
17419TIP3   OH273747   0.289   4.511   1.583  0.2700 -0.4544  0.0247
17419TIP3    H173748   0.339   4.472   1.655  0.9020 -0.4782 -0.4210
17419TIP3    H273749   0.288   4.604   1.602 -0.2162 -0.5436  0.4602
17420TIP3   OH273750   0.198   6.167  16.507  0.3202 -0.0067 -0.3318
17420TIP3    H173751   0.152   6.102  16.561 -0.3968 -0.5413 -1.5375
17420TIP3    H273752   0.139   6.182  16.433  1.3649  0.5571 -1.0682
17421TIP3   OH273753   0.016   0.352  16.638  0.7102  0.1424  0.6752
17421TIP3    H173754   0.016   0.355  16.542  0.6813  1.2649  0.6906
17421TIP3    H273755   0.089   0.295  16.660  0.4586 -0.4642 -0.0159
17422TIP3   OH273756   2.149   3.630   4.788 -0.0629 -0.0161  0.5580
17422TIP3    H173757   2.122   3.545   4.753  1.2868 -0.4382  0.5174
17422TIP3    H273758   2.241   3.638   4.765 -0.2310  1.5705  0.3665
17423TIP3   OH273759   3.474   4.049  12.214  0.0115  0.0438 -0.1886
17423TIP3    H173760   3.548   4.101  12.245 -1.2095  1.6718  0.1329
17423TIP3    H273761   3.440   4.097  12.139 -1.1571 -0.2712  0.1133
17424TIP3   OH273762   4.601   6.072  11.340 -0.2815 -0.2687  0.3654
17424TIP3    H173763   4.631   5.983  11.359  0.5961 -0.5995 -2.2454
17424TIP3    H273764   4.672   6.111  11.290 -1.4960  1.2055 -0.2892
17425TIP3   OH273765   4.170   0.692   0.420 -0.2953 -0.5741 -0.1401
17425TIP3    H173766   4.149   0.774   0.374 -0.0210 -0.3353  0.1593
17425TIP3    H273767   4.158   0.713   0.512  1.8960 -0.2234  0.1140
17426TIP3   OH273768   2.204   4.443  16.333 -0.1462  0.2965  0.3011
17426TIP3    H173769   2.230   4.435  16.425  0.3414  1.6425  0.3012
17426TIP3    H273770   2.177   4.354  16.308  0.6748 -0.3013  1.4445
17427TIP3   OH273771   6.165   3.815   1.562 -0.1432 -0.6652  0.0379
17427TIP3    H173772   6.144   3.729   1.525 -0.3665 -1.2655  1.5104
17427TIP3    H273773   6.086   3.867   1.544 -0.5833 -1.1935  0.3922
17428TIP3   OH273774   3.562   4.288   3.894  0.2717  0.0703  0.0783
17428TIP3    H173775   3.516   4.274   3.977 -0.6675 -0.4036 -0.5143
17428TIP3    H273776   3.504   4.253   3.827  1.4032 -0.3482 -0.7185
17429TIP3   OH273777   6.412   0.593   1.208  0.0563 -0.6296  0.7837
17429TIP3    H173778   6.431   0.511   1.162 -1.1225  0.0701 -1.0224
17429TIP3    H273779   6.459   0.584   1.291  1.8092 -2.1725 -0.2897
17430TIP3   OH273780   6.469   3.867  11.492  0.0707  0.2728  0.3535
17430TIP3    H173781   6.389   3.919  11.480 -0.0633 -0.2974 -1.4631
17430TIP3    H273782   6.537   3.917  11.448  0.2454 -0.3429 -0.0867
17431TIP3   OH273783   0.943   1.869   2.745 -0.0117 -0.0504 -0.2904
17431TIP3    H173784   1.003   1.931   2.787 -1.5210  1.8791 -0.8091
17431TIP3    H273785   0.867   1.867   2.802 -1.2534  1.0402 -1.7952
17432TIP3   OH273786   1.758   3.386   0.828 -0.0835 -0.2879  0.2603
17432TIP3    H173787   1.685   3.447   0.832  0.1764  0.0141  0.4714
17432TIP3    H273788   1.833   3.440   0.803  0.0377 -0.6208 -0.1221
17433TIP3   OH273789   5.920   1.259  11.429 -0.1245 -0.2307 -0.9112
17433TIP3    H173790   5.886   1.180  11.471  1.3485  0.3172  1.5623
17433TIP3    H273791   5.978   1.227  11.360  1.3211 -1.4276  0.7681
17434TIP3   OH273792   1.479   3.050  17.237 -0.3993 -1.0092  0.3317
17434TIP3    H173793   1.523   2.992  17.300  1.7544 -0.7637 -0.8500
17434TIP3    H273794   1.465   3.131  17.286 -0.4536 -1.4244  1.0276
17435TIP3   OH273795   1.127   1.014   3.352 -0.2578 -0.2426  0.0542
17435TIP3    H173796   1.034   1.003   3.369 -0.2660  2.0553  2.0749
17435TIP3    H273797   1.133   1.094   3.300  0.5324 -1.3776 -1.7014
17436TIP3   OH273798   5.488   5.587   3.280 -0.0244  0.2120  0.0798
17436TIP3    H173799   5.470   5.520   3.346 -2.4209  2.0746  1.4558
17436TIP3    H273800   5.465   5.544   3.197  0.8505 -1.4298  0.6376
17437TIP3   OH273801   1.372   4.176   3.469  0.8818 -0.1474  0.3002
17437TIP3    H173802   1.343   4.142   3.384 -1.0898  3.0483 -0.4973
17437TIP3    H273803   1.392   4.268   3.452 -0.0599  0.7426  3.3799
17438TIP3   OH273804   5.069   1.258   2.068  0.8156 -0.1432  0.6908
17438TIP3    H173805   5.031   1.178   2.031 -0.9280  2.7676 -4.7955
17438TIP3    H273806   5.001   1.292   2.126  0.8837 -1.6174  1.7195
17439TIP3   OH273807   4.001   2.107  12.455  0.1804 -0.0369  0.2513
17439TIP3    H173808   3.943   2.033  12.437 -0.7093  0.4544  0.9680
17439TIP3    H273809   4.033   2.091  12.544 -0.2083  0.5379  0.5064
17440TIP3   OH273810   6.801   3.375   2.441  0.1376  0.0780  0.1692
17440TIP3    H173811   6.867   3.397   2.375  0.7095  0.0616  0.7268
17440TIP3    H273812   6.724   3.349   2.390  0.5257  0.1924 -0.4894
17441TIP3   OH273813   4.253   6.649   2.530 -0.0786 -0.1210 -0.2593
17441TIP3    H173814   4.319   6.635   2.461 -0.6398  1.0524 -1.0738
17441TIP3    H273815   4.281   6.730   2.573 -0.7691  0.1775 -0.3644
17442TIP3   OH273816   0.121   5.997  15.890  0.0221 -0.0075  0.0575
17442TIP3    H173817   0.189   5.964  15.948  0.5964 -0.1404 -0.6741
17442TIP3    H273818   0.151   5.974  15.802 -0.1176  1.4364 -0.4010
17443TIP3   OH273819   4.912   1.915  13.521 -0.3808  0.1433 -0.2075
17443TIP3    H173820   4.860   1.837  13.542  0.6241 -0.3307  0.5672
17443TIP3    H273821   4.853   1.988  13.541 -2.0776 -0.3668 -2.8402
17444TIP3   OH273822   4.010   5.883   3.588 -0.2982  0.1066 -0.0089
17444TIP3    H173823   4.072   5.832   3.641  0.8309  0.6388 -0.7837
17444TIP3    H273824   3.933   5.826   3.581  0.6895 -1.2581 -0.3344
17445TIP3   OH273825   2.305   4.498   3.541 -0.4971 -0.3888  0.0776
17445TIP3    H173826   2.349   4.414   3.525  0.7849  0.2390  0.1931
17445TIP3    H273827   2.267   4.488   3.628 -0.5139 -0.9190  0.0158
17446TIP3   OH273828   1.485   6.507  15.672  0.4850 -0.4748 -0.2095
17446TIP3    H173829   1.396   6.530  15.642  0.8088  0.2004 -0.6954
17446TIP3    H273830   1.506   6.426  15.626  0.2837 -0.4026 -0.4307
17447TIP3   OH273831   0.605   6.607  12.876 -0.1908  0.4444 -0.3999
17447TIP3    H173832   0.617   6.633  12.784  0.0718  0.0882 -0.4705
17447TIP3    H273833   0.537   6.540  12.873  0.8072 -0.6010 -0.5196
17448TIP3   OH273834   4.910   1.107   6.277  0.6198  0.1295  0.0353
17448TIP3    H173835   4.816   1.096   6.287  0.6614  0.8902  1.6514
17448TIP3    H273836   4.946   1.019   6.287  0.2019  0.0956  1.4838
17449TIP3   OH273837   1.857   0.310   0.420 -0.1063 -0.2140 -0.3661
17449TIP3    H173838   1.785   0.317   0.357  0.6197  0.0748 -1.1956
17449TIP3    H273839   1.898   0.397   0.420  0.8734 -0.6572 -0.7015
17450TIP3   OH273840   1.162   1.198   5.908 -0.7722  0.5415 -0.5922
17450TIP3    H173841   1.207   1.261   5.851 -0.9138  3.4191  2.2051
17450TIP3    H273842   1.214   1.199   5.989 -2.5027 -0.6872  0.5859
17451TIP3   OH273843   5.675   6.306  12.005 -0.2290 -0.3437 -0.3743
17451TIP3    H173844   5.613   6.328  11.935  0.7800  1.8681 -0.6866
17451TIP3    H273845   5.645   6.357  12.080  1.0275  0.5879 -0.4689
17452TIP3   OH273846   6.402   5.882   0.041 -0.1665  0.4669  0.6544
17452TIP3    H173847   6.311   5.907   0.055  0.2968  2.4652  0.4452
17452TIP3    H273848   6.437   5.870   0.129 -0.9548 -1.7356  0.7082
17453TIP3   OH273849   3.714   5.608  17.257 -0.3279 -0.2831 -0.0691
17453TIP3    H173850   3.770   5.535  17.283 -0.8661 -0.3559  0.9283
17453TIP3    H273851   3.699   5.658  17.337 -0.5554  0.5220 -0.5951
17454TIP3   OH273852   0.958   5.187   0.412  0.2420  0.3102 -0.2469
17454TIP3    H173853   0.966   5.131   0.489  2.5248  0.8928  0.0126
17454TIP3    H273854   0.949   5.275   0.447 -0.8956  0.3805 -0.6672
17455TIP3   OH273855   0.115   4.114  14.481 -0.4450  0.1249 -0.2243
17455TIP3    H173856   0.190   4.174  14.484  0.9282 -1.4781  2.6097
17455TIP3    H273857   0.105   4.093  14.388  0.8456  2.4727 -0.9827
17456TIP3   OH273858   5.123   2.809   2.806 -0.3473  0.8179  0.1225
17456TIP3    H173859   5.153   2.738   2.864 -1.5340 -1.5533 -1.9534
17456TIP3    H273860   5.060   2.858   2.859 -1.5071 -1.3375  0.8758
17457TIP3   OH273861   1.052   1.436  13.442 -0.3045  0.8523 -0.8220
17457TIP3    H173862   0.988   1.419  13.511  0.8646  1.9269  0.6278
17457TIP3    H273863   1.001   1.449  13.363 -1.9852  2.5716  0.4522
17458TIP3   OH273864   4.736   5.328   2.121  0.5574  0.0675  0.0429
17458TIP3    H173865   4.781   5.383   2.056 -2.9229  2.0191 -0.9526
17458TIP3    H273866   4.737   5.380   2.201  2.2204 -1.0286  0.7777
17459TIP3   OH273867   4.495   3.194   2.902 -0.0417  0.4668 -0.3318
17459TIP3    H173868   4.532   3.224   2.818  1.0436 -0.5069 -0.2356
17459TIP3    H273869   4.464   3.105   2.884  0.3347  0.1926  0.3240
17460TIP3   OH273870   2.906   1.604   0.402  0.3127 -0.1170  0.3672
17460TIP3    H173871   2.908   1.514   0.369  1.2873 -0.2141  0.6871
17460TIP3    H273872   2.812   1.625   0.406  0.1070 -0.6247 -1.0248
17461TIP3   OH273873   2.166   5.536   5.006  0.0780 -0.1721 -0.1702
17461TIP3    H173874   2.240   5.581   5.046  0.2785 -0.5370 -0.1227
17461TIP3    H273875   2.194   5.520   4.916 -1.0272  2.1650 -1.0142
17462TIP3   OH273876   0.107   0.916  13.163 -0.3533  0.0621 -0.4306
17462TIP3    H173877   0.067   0.892  13.246 -0.1642 -0.1361 -0.3964
17462TIP3    H273878   0.033   0.932  13.104 -0.4801 -0.4475 -0.4091
17463TIP3   OH273879   5.351   0.557   1.090  0.4626  0.0136  0.6175
17463TIP3    H173880   5.416   0.580   1.156  1.0056  0.6369 -0.1140
17463TIP3    H273881   5.387   0.479   1.047  0.2135 -0.2644  0.9076
17464TIP3   OH273882   3.736   4.067  13.305  0.4743 -0.1573 -0.2367
17464TIP3    H173883   3.723   3.979  13.341  2.0344 -0.5999 -0.6789
17464TIP3    H273884   3.818   4.097  13.343 -0.9713  1.9591  1.4514
17465TIP3   OH273885   2.092   3.184   0.458  0.3247 -0.1154  0.1919
17465TIP3    H173886   2.004   3.222   0.463  0.4721  0.0805  2.5478
17465TIP3    H273887   2.078   3.096   0.425 -0.9788 -0.5498  1.7518
17466TIP3   OH273888   6.695   2.216   5.206  0.3678  0.7403  0.9892
17466TIP3    H173889   6.789   2.204   5.194  0.1315  1.0408 -1.5338
17466TIP3    H273890   6.658   2.129   5.195  0.0689  1.1463 -1.7320
17467TIP3   OH273891   6.504   2.010   5.238  0.2301 -0.0449 -0.3589
17467TIP3    H173892   6.428   1.953   5.222  0.8630 -1.1353  0.3781
17467TIP3    H273893   6.498   2.033   5.330  1.1298 -0.6697 -0.1303
17468TIP3   OH273894   6.133   0.612   1.211 -0.1895 -0.0634  0.4617
17468TIP3    H173895   6.228   0.615   1.223 -0.0687  1.8119 -0.5017
17468TIP3    H273896   6.106   0.529   1.250  1.4884  0.5417  3.2106
17469TIP3   OH273897   2.737   2.966  14.987 -0.0536  0.2552 -0.0190
17469TIP3    H173898   2.829   2.951  14.964 -0.2205 -1.0358  0.0467
17469TIP3    H273899   2.700   3.012  14.912  0.3639 -0.3310 -0.5964
17470TIP3   OH273900   3.228   6.012  11.579  0.3269  0.0208 -0.1881
17470TIP3    H173901   3.281   5.937  11.607  0.3133  0.4828  1.1786
17470TIP3    H273902   3.243   6.078  11.647  2.3802  2.2876 -2.6615
17471TIP3   OH273903   3.006   3.676  10.624 -0.1067  0.4897  0.3080
17471TIP3    H173904   3.069   3.747  10.635 -0.3925  0.7373  0.3725
17471TIP3    H273905   2.942   3.710  10.561  0.1508  0.0181 -0.2167
17472TIP3   OH273906   4.182   3.779   2.440  0.7997  0.2730 -0.1851
17472TIP3    H173907   4.122   3.713   2.406  0.4396 -0.2500  1.3912
17472TIP3    H273908   4.134   3.820   2.512  0.7423  2.7585 -1.5239
17473TIP3   OH273909   2.529   1.669  11.710  0.5552 -0.2792 -0.3640
17473TIP3    H173910   2.616   1.662  11.672  1.1765 -0.6372  1.0809
17473TIP3    H273911   2.500   1.758  11.688  0.5243 -0.7425 -2.3677
17474TIP3   OH273912   4.152   0.945  11.734 -0.0572  0.7607 -0.5152
17474TIP3    H173913   4.100   1.015  11.774 -0.5083  0.5211 -0.6782
17474TIP3    H273914   4.106   0.865  11.758  1.0899  0.4232  0.6481
17475TIP3   OH273915   0.582   3.538   5.913  0.0634  0.4785  0.2143
17475TIP3    H173916   0.553   3.629   5.915  1.3927  0.9207  0.4173
17475TIP3    H273917   0.546   3.503   5.832 -3.3620  0.1371  1.6857
17476TIP3   OH273918   2.934   6.468  13.758 -0.1795 -0.0935  0.4427
17476TIP3    H173919   2.885   6.415  13.822 -1.2669 -1.7051 -1.5902
17476TIP3    H273920   2.927   6.557  13.791  0.6240 -0.9771  3.3563
17477TIP3   OH273921   2.037   6.695  16.718 -0.3716  0.4522  0.3260
17477TIP3    H173922   2.007   6.606  16.701  0.9682  0.0975 -0.2914
17477TIP3    H273923   1.957   6.748  16.714 -1.1546 -0.6789  0.4974
17478TIP3   OH273924   2.587   2.483  11.447 -0.1805  0.1505 -0.7393
17478TIP3    H173925   2.522   2.475  11.377  0.7402 -0.8195 -1.5331
17478TIP3    H273926   2.618   2.573  11.442  2.1539 -0.6452 -3.7926
17479TIP3   OH273927   6.136   3.360  14.447 -0.3898 -0.2577 -0.2633
17479TIP3    H173928   6.097   3.416  14.515 -1.0986 -0.8561 -0.1668
17479TIP3    H273929   6.166   3.283  14.494 -0.5673 -0.5203 -0.5729
17480TIP3   OH273930   3.611   2.751  12.841  0.0159  0.0802 -0.4185
17480TIP3    H173931   3.637   2.678  12.785 -0.8697 -1.2268  0.8229
17480TIP3    H273932   3.537   2.791  12.796 -0.0706 -0.3541 -0.6640
17481TIP3   OH273933   5.543   5.334   4.065  0.0788  0.2739 -0.0206
17481TIP3    H173934   5.597   5.413   4.054  1.3039 -0.3102  1.4327
17481TIP3    H273935   5.496   5.325   3.982  1.6324  1.2569 -1.0548
17482TIP3   OH273936   6.106   1.689   3.634  0.3018  0.0335 -1.0740
17482TIP3    H173937   6.169   1.702   3.562  0.4148  0.6188 -0.8783
17482TIP3    H273938   6.108   1.595   3.651  0.0493 -0.1580 -2.0402
17483TIP3   OH273939   3.080   5.156   5.336 -0.3764 -0.1231  0.7714
17483TIP3    H173940   3.013   5.156   5.268 -0.5496 -2.8789  0.8595
17483TIP3    H273941   3.030   5.150   5.418 -0.0801 -2.1385  0.8380
17484TIP3   OH273942   0.304   4.395  12.849  0.2649  0.0968 -0.3494
17484TIP3    H173943   0.211   4.413  12.856  0.3743  0.0301  2.0003
17484TIP3    H273944   0.316   4.311  12.892  1.5874  0.8466  0.8522
17485TIP3   OH273945   2.060   3.215   5.168  0.6192 -0.0360  0.1141
17485TIP3    H173946   2.065   3.309   5.150 -0.1252  0.2936  1.4168
17485TIP3    H273947   1.968   3.201   5.193  0.9268 -0.9344  0.7819
17486TIP3   OH273948   6.470   2.778  12.692  0.2811 -0.1687  0.1340
17486TIP3    H173949   6.509   2.702  12.734  0.4358  0.6553  1.5592
17486TIP3    H273950   6.384   2.787  12.733  0.7669  1.1402  0.9321
17487TIP3   OH273951   6.695   2.138  14.380  0.2136 -0.4927 -0.3734
17487TIP3    H173952   6.686   2.234  14.382 -1.7707 -0.4862 -3.5592
17487TIP3    H273953   6.786   2.122  14.407  0.5874  2.2347  0.3139
17488TIP3   OH273954   1.863   2.500  13.155  0.0540  0.2197 -0.5317
17488TIP3    H173955   1.902   2.533  13.236 -0.6751  2.0128 -0.8661
17488TIP3    H273956   1.938   2.491  13.095  0.4742 -0.2540  0.0521
17489TIP3   OH273957   0.659   0.414   6.060 -0.0567 -0.1578  0.5544
17489TIP3    H173958   0.662   0.393   6.154 -0.3158 -0.9500  0.3876
17489TIP3    H273959   0.658   0.510   6.057  1.4967 -0.0825  1.3287
17490TIP3   OH273960   1.337   6.711   3.075 -0.2884 -0.0362 -0.1440
17490TIP3    H173961   1.267   6.654   3.107 -1.0506 -0.1111 -1.8804
17490TIP3    H273962   1.406   6.651   3.047 -0.2607 -0.0223 -0.1058
17491TIP3   OH273963   1.147   3.982   4.468  0.0185 -0.3307  0.1695
17491TIP3    H173964   1.205   3.928   4.522  0.8420  0.0816 -0.2792
17491TIP3    H273965   1.204   4.049   4.432 -0.5079 -0.6130 -1.2326
17492TIP3   OH273966   1.650   6.679   1.803  0.2032  0.1839  0.2816
17492TIP3    H173967   1.693   6.762   1.822  0.5303 -0.1204  0.8828
17492TIP3    H273968   1.673   6.622   1.876 -2.5837  0.5045  1.5682
17493TIP3   OH273969   5.817   2.032  16.920 -1.0695  0.2063 -0.0412
17493TIP3    H173970   5.823   2.084  16.840 -1.4131 -0.8336 -0.7705
17493TIP3    H273971   5.824   1.941  16.890 -1.6604 -0.2262  1.0628
17494TIP3   OH273972   3.378   3.760   0.778 -0.2479  0.1270  0.0335
17494TIP3    H173973   3.361   3.667   0.768  0.2329  0.1114 -0.6305
17494TIP3    H273974   3.470   3.766   0.801 -0.0440  0.4866 -0.8310
17495TIP3   OH273975   3.270   1.540  16.674  0.3148 -0.0805  0.0358
17495TIP3    H173976   3.337   1.506  16.615  0.9353  1.1487 -0.0014
17495TIP3    H273977   3.224   1.462  16.705  1.5453 -0.9334 -0.1947
17496TIP3   OH273978   2.744   3.515   3.181  0.7398  0.7231 -0.1654
17496TIP3    H173979   2.831   3.476   3.165 -0.1567 -1.9129  0.7542
17496TIP3    H273980   2.746   3.540   3.273  0.8263  1.5459 -0.3888
17497TIP3   OH273981   1.865   0.668  13.832 -0.2730  0.6956  0.1298
17497TIP3    H173982   1.771   0.659  13.845 -0.2346 -1.7715 -0.8682
17497TIP3    H273983   1.900   0.679  13.921 -1.4782  1.9186  0.4914
17498TIP3   OH273984   4.037   3.374   5.588 -0.3202 -0.1236 -0.5094
17498TIP3    H173985   4.058   3.403   5.499 -1.6440  1.4130 -0.3642
17498TIP3    H273986   4.107   3.411   5.642 -0.8669  1.1013 -0.6057
17499TIP3   OH273987   0.641   5.887  16.446  0.2338  0.7088  0.2755
17499TIP3    H173988   0.689   5.947  16.503  0.0208  1.1429  0.0051
17499TIP3    H273989   0.565   5.937  16.416  2.8868  2.5618 -4.6124
17500TIP3   OH273990   6.356   3.848   3.484 -0.1562 -0.1683  0.3784
17500TIP3    H173991   6.279   3.903   3.471 -0.4076 -0.9764 -1.7747
17500TIP3    H273992   6.335   3.796   3.562 -1.5381  0.0290  0.1666
17501TIP3   OH273993   5.477   5.621  11.846  0.3416 -0.4114 -0.2962
17501TIP3    H173994   5.484   5.563  11.922 -0.6840  1.1291  1.0505
17501TIP3    H273995   5.410   5.581  11.791 -0.1793 -0.6501  0.4904
17502TIP3   OH273996   3.543   0.074   2.138  0.2425 -0.5458  0.3484
17502TIP3    H173997   3.553   0.092   2.231 -0.2750 -0.0566  0.3184
17502TIP3    H273998   3.632   0.069   2.104  0.4448  0.8894  0.5756
17503TIP3   OH273999   1.878   0.910  12.954 -0.0401  0.5209  0.3183
17503TIP3    H174000   1.845   0.903  12.865  1.3768  1.4560 -0.3149
17503TIP3    H274001   1.864   1.001  12.978  1.6261  0.8491  0.1720
17504TIP3   OH274002   3.172   5.829  10.666  0.3007  0.0378 -1.1358
17504TIP3    H174003   3.104   5.761  10.667  0.3057  0.0316  0.1775
17504TIP3    H274004   3.253   5.781  10.652  0.3688 -0.3170  0.3421
17505TIP3   OH274005   2.787   5.447  16.330  0.3916  0.1767  0.2760
17505TIP3    H174006   2.711   5.504  16.319 -2.0388 -3.1983 -3.2654
17505TIP3    H274007   2.861   5.496  16.294 -1.3750  1.4976 -1.7551
17506TIP3   OH274008   1.531   1.317   3.789  0.2066  0.0460  0.3695
17506TIP3    H174009   1.545   1.373   3.713  2.5848 -1.4562 -0.4209
17506TIP3    H274010   1.593   1.244   3.777 -0.3177 -0.9676  3.0447
17507TIP3   OH274011   6.210   5.131  11.949 -0.3751 -0.1917 -0.1878
17507TIP3    H174012   6.133   5.172  11.990 -0.7469  0.0740 -1.1067
17507TIP3    H274013   6.190   5.038  11.948 -0.5850 -0.1474 -0.2085
17508TIP3   OH274014   5.631   0.997  14.996  0.2470  0.3155  0.6438
17508TIP3    H174015   5.646   1.092  14.993  1.2510  0.2609  2.6023
17508TIP3    H274016   5.613   0.978  15.088  1.0328 -1.5305  0.4535
17509TIP3   OH274017   4.572   3.372   0.357  0.1842  0.2814 -0.1654
17509TIP3    H174018   4.535   3.322   0.429  1.1879  2.1645  1.7650
17509TIP3    H274019   4.577   3.310   0.284  0.5495 -2.1302  1.7919
17510TIP3   OH274020   2.324   2.205  17.080  0.1508 -0.1027 -0.0585
17510TIP3    H174021   2.283   2.120  17.064 -3.5999  1.5893 -0.5398
17510TIP3    H274022   2.371   2.225  17.000  0.2276 -1.2675 -0.3194
17511TIP3   OH274023   1.696   6.719   0.239 -0.6178 -0.2459  0.1738
17511TIP3    H174024   1.756   6.794   0.233 -0.7081 -0.2887 -2.4973
17511TIP3    H274025   1.639   6.740   0.313  1.4233  0.7157  1.5637
17512TIP3   OH274026   6.276   3.215  11.965  0.1048  0.0434  0.1840
17512TIP3    H174027   6.238   3.206  12.052 -0.8121 -0.9038 -0.3047
17512TIP3    H274028   6.286   3.310  11.953 -1.3756  0.2669  0.6305
17513TIP3   OH274029   6.468   5.981   5.268  0.3421 -0.1603 -0.0676
17513TIP3    H174030   6.562   5.990   5.284  0.3212 -0.4258  0.2173
17513TIP3    H274031   6.456   6.013   5.179  0.5939  0.5385  0.1445
17514TIP3   OH274032   3.772   5.796   1.419  0.2117 -0.4386  0.2486
17514TIP3    H174033   3.776   5.776   1.512 -0.8399 -1.1998  0.1413
17514TIP3    H274034   3.795   5.889   1.414  1.2670 -0.6327  1.1506
17515TIP3   OH274035   0.515   1.652  15.105 -0.6705  0.4224 -0.3629
17515TIP3    H174036   0.496   1.746  15.100 -0.9905  0.4645  1.1867
17515TIP3    H274037   0.548   1.639  15.194 -1.5128 -1.0957 -0.2539
17516TIP3   OH274038   1.456   6.288   5.397  0.2868 -0.2472 -0.5320
17516TIP3    H174039   1.401   6.264   5.472  0.5340 -1.4199 -0.7052
17516TIP3    H274040   1.422   6.235   5.325 -1.2423  2.2958 -1.8034
17517TIP3   OH274041   2.196   0.264   1.953 -0.0679  0.2123 -0.2550
17517TIP3    H174042   2.224   0.176   1.978  0.4713  0.4920  0.1376
17517TIP3    H274043   2.267   0.296   1.897 -0.4029  0.2933 -0.6452
17518TIP3   OH274044   3.238   4.610  10.890  0.4358 -0.2847  0.2715
17518TIP3    H174045   3.285   4.668  10.831  0.4369 -0.3063  0.2511
17518TIP3    H274046   3.146   4.629  10.874  0.4304 -0.4982  0.0520
17519TIP3   OH274047   0.091   4.895   2.459  0.0695  0.8983 -0.4318
17519TIP3    H174048   0.098   4.925   2.550 -1.1242  0.5842 -0.2293
17519TIP3    H274049   0.139   4.812   2.457 -1.3925 -0.0025  0.3592
17520TIP3   OH274050   2.940   0.264   0.451  0.0557  0.1998 -0.4461
17520TIP3    H174051   2.891   0.346   0.442 -0.9090 -0.4212 -1.1953
17520TIP3    H274052   2.882   0.198   0.411 -1.4268 -1.7620  4.2580
17521TIP3   OH274053   3.642   3.710  17.037  0.0281 -0.1598  0.2928
17521TIP3    H174054   3.712   3.662  17.082  0.5995 -0.2103 -0.6310
17521TIP3    H274055   3.667   3.708  16.945 -1.9252 -1.4261 -0.2672
17522TIP3   OH274056   2.638   6.554   1.682 -0.4109  0.4484 -0.0917
17522TIP3    H174057   2.665   6.569   1.773  1.1186  2.3241 -0.7799
17522TIP3    H274058   2.563   6.612   1.669 -2.9508 -2.3757  0.8764
17523TIP3   OH274059   1.898   4.540   5.066  0.1169 -0.1830 -0.4158
17523TIP3    H174060   1.864   4.460   5.027 -1.9623  0.0827  0.7502
17523TIP3    H274061   1.919   4.595   4.990  1.0157 -1.5635 -1.2190
17524TIP3   OH274062   6.307   2.667  13.627  0.2134  0.1605 -0.4338
17524TIP3    H174063   6.304   2.762  13.613 -0.4989 -0.0243 -1.7529
17524TIP3    H274064   6.401   2.647  13.633  0.4407  0.7905 -1.5158
17525TIP3   OH274065   4.503   2.646  13.412 -0.1258  0.4289 -0.4513
17525TIP3    H174066   4.502   2.571  13.471 -0.2645  1.5062  0.9504
17525TIP3    H274067   4.587   2.639  13.366  0.5881  0.3087  0.8341
17526TIP3   OH274068   5.834   6.634  15.316 -0.2011  0.1805  0.2754
17526TIP3    H174069   5.885   6.680  15.383  0.4706  0.5510 -0.4789
17526TIP3    H274070   5.770   6.583  15.366 -0.0939  0.8995  1.1763
17527TIP3   OH274071   1.703   5.795   1.423  0.3619 -0.5364 -0.1832
17527TIP3    H174072   1.723   5.759   1.510 -1.2154 -1.6081 -0.2374
17527TIP3    H274073   1.631   5.856   1.439  1.1105  0.4690 -0.5351
17528TIP3   OH274074   3.762   6.612   0.413 -0.3116  0.9701 -0.5197
17528TIP3    H174075   3.673   6.592   0.441  0.0107  0.6622  0.3218
17528TIP3    H274076   3.751   6.674   0.341 -1.2595 -0.4472 -1.6552
17529TIP3   OH274077   3.602   4.024  16.131 -0.4520  0.1093  0.1259
17529TIP3    H174078   3.580   4.088  16.198 -0.9718 -0.1793  0.2385
17529TIP3    H274079   3.534   3.957  16.138 -0.6868  0.2184 -0.8866
17530TIP3   OH274080   0.012   1.925  12.793 -0.3981 -0.0165  0.2269
17530TIP3    H174081  -0.072   1.919  12.838  0.8063  0.4427  2.6953
17530TIP3    H274082   0.051   2.006  12.826  0.5108  0.4443 -1.8381
17531TIP3   OH274083   1.022   4.360  10.977  0.2778  0.2872 -0.2765
17531TIP3    H174084   1.060   4.443  11.007  1.1485 -0.0333 -0.4484
17531TIP3    H274085   1.066   4.342  10.893 -0.0798 -0.2250 -0.3638
17532TIP3   OH274086   3.471   2.422   1.827 -0.3559 -0.0629 -0.4823
17532TIP3    H174087   3.402   2.446   1.765 -1.4161 -0.2933  0.5636
17532TIP3    H274088   3.552   2.457   1.788 -1.3306  2.1084 -0.7280
17533TIP3   OH274089   3.962   0.199   0.494 -0.1600  0.3052  0.3552
17533TIP3    H174090   3.972   0.109   0.523  0.4156  0.7966  1.7588
17533TIP3    H274091   4.015   0.205   0.415  1.1985 -0.1505  1.2107
17534TIP3   OH274092   5.739   3.669  15.660  0.6993 -0.0507 -0.4087
17534TIP3    H174093   5.747   3.655  15.755 -0.8871  0.6307 -0.1355
17534TIP3    H274094   5.645   3.683  15.646  0.8845 -0.3582 -2.1262
17535TIP3   OH274095   5.860   0.206  15.886  0.1537  0.5078  0.0114
17535TIP3    H174096   5.921   0.198  15.813 -0.4880  0.0151 -0.4900
17535TIP3    H274097   5.773   0.200  15.845 -0.2359  1.1446  0.7065
17536TIP3   OH274098   4.103   0.639   1.529  0.0756  0.1422 -0.3000
17536TIP3    H174099   4.163   0.600   1.593  1.2033  0.3243 -1.2228
17536TIP3    H274100   4.154   0.708   1.488 -0.9720  0.6879 -0.7057
17537TIP3   OH274101   1.207   6.041  16.808  0.7090  0.5801 -0.6171
17537TIP3    H174102   1.166   6.126  16.817  1.0220  0.6191  0.5110
17537TIP3    H274103   1.172   5.989  16.880 -0.5850 -0.7220 -2.1142
17538TIP3   OH274104   5.818   0.660  16.842  0.3574 -0.2646 -0.1243
17538TIP3    H174105   5.772   0.709  16.910 -3.0496 -2.6660 -0.4106
17538TIP3    H274106   5.869   0.595  16.890 -0.4364 -0.6590  0.2058
17539TIP3   OH274107   2.636   1.959   3.693  0.2892 -0.0159 -0.1259
17539TIP3    H174108   2.705   1.957   3.759 -0.5443  1.7064  0.8759
17539TIP3    H274109   2.600   2.047   3.698 -0.5315 -0.1765 -2.1645
17540TIP3   OH274110   2.976   5.092   2.424 -0.5675  0.2158  0.8937
17540TIP3    H174111   3.071   5.096   2.436 -0.6323 -0.7863  1.9087
17540TIP3    H274112   2.941   5.088   2.513 -1.4920 -0.6864  0.5102
17541TIP3   OH274113   2.736   1.112   4.019 -0.4299  0.1583 -0.3879
17541TIP3    H174114   2.668   1.179   4.026 -0.7974 -0.3331  0.7545
17541TIP3    H274115   2.807   1.144   4.075 -0.9388 -0.8073  0.8249
17542TIP3   OH274116   5.450   1.165  13.095  0.6214  0.3691 -0.2248
17542TIP3    H174117   5.525   1.175  13.036  1.0595  1.8450  0.5319
17542TIP3    H274118   5.421   1.254  13.112 -1.2567 -0.1724 -0.3943
17543TIP3   OH274119   0.589   5.931  11.661 -0.9864  0.1229  0.0810
17543TIP3    H174120   0.600   5.991  11.587  1.2868  0.3375  0.5005
17543TIP3    H274121   0.638   5.853  11.636 -0.4219  0.0849  1.2197
17544TIP3   OH274122   1.345   1.495   0.094 -0.0017  0.4703  0.9544
17544TIP3    H174123   1.362   1.496   0.188 -0.1067 -0.0899  0.9848
17544TIP3    H274124   1.366   1.405   0.067 -1.4898  0.1532  0.7316
17545TIP3   OH274125   0.325   1.550   4.366  0.0777  0.3613 -0.6422
17545TIP3    H174126   0.415   1.554   4.335  0.1041  1.9542 -0.4143
17545TIP3    H274127   0.282   1.626   4.327 -1.3769 -0.7205 -1.2959
17546TIP3   OH274128   0.771   1.522   2.689  0.2402 -0.1887 -0.1394
17546TIP3    H174129   0.842   1.550   2.632  0.4947 -1.1853 -0.3287
17546TIP3    H274130   0.753   1.431   2.662 -1.5950  0.2648 -0.6015
17547TIP3   OH274131   3.239   5.038   3.747 -0.2046  0.1080  0.0355
17547TIP3    H174132   3.197   4.974   3.805  1.3937 -2.2474 -1.2262
17547TIP3    H274133   3.310   5.074   3.799 -0.8662  0.5842  0.6264
17548TIP3   OH274134   5.978   5.963  15.705  0.4262 -0.3808  0.3755
17548TIP3    H174135   6.056   5.998  15.662 -0.2260 -0.3563 -0.8360
17548TIP3    H274136   5.934   6.040  15.741 -0.1430 -0.1228 -0.8298
17549TIP3   OH274137   6.255   5.815  16.569 -0.2556 -0.2765 -0.0172
17549TIP3    H174138   6.180   5.799  16.626  0.2515 -1.0140  0.4513
17549TIP3    H274139   6.331   5.788  16.620  0.1997 -1.0900 -1.0670
17550TIP3   OH274140   0.061   4.723  14.625 -0.4492  0.0287  0.6041
17550TIP3    H174141   0.080   4.817  14.632 -3.2823  0.6103  1.5680
17550TIP3    H274142   0.034   4.712  14.534 -0.9740  0.3344  0.7202
17551TIP3   OH274143   2.067   5.399  12.204  0.0602  0.5762 -0.4102
17551TIP3    H174144   2.020   5.479  12.226 -0.6020  0.0801  0.0221
17551TIP3    H274145   2.159   5.422  12.211 -0.1239  1.2884 -0.2688
17552TIP3   OH274146   1.086   0.676   1.278  0.3742 -0.2930 -0.6888
17552TIP3    H174147   1.146   0.725   1.220  0.4763  0.2361 -0.1486
17552TIP3    H274148   1.141   0.646   1.349  0.2640 -1.0245 -0.9113
17553TIP3   OH274149   6.739   4.720   2.795 -0.3374  0.4572  0.1262
17553TIP3    H174150   6.696   4.785   2.740  0.1986  0.6857 -0.0304
17553TIP3    H274151   6.690   4.722   2.877 -1.9548 -0.8052 -0.7452
17554TIP3   OH274152   4.152   6.337   3.929 -0.2418 -0.0126 -0.1257
17554TIP3    H174153   4.099   6.295   3.996  0.2208  0.1522  0.3487
17554TIP3    H274154   4.088   6.370   3.866 -0.7964  1.2003  1.0127
17555TIP3   OH274155   5.149   3.562  15.376  0.2780 -0.0293 -0.3434
17555TIP3    H174156   5.235   3.524  15.356  0.8023 -0.5670  2.4462
17555TIP3    H274157   5.133   3.537  15.467 -2.6537  0.4856 -0.6287
17556TIP3   OH274158   4.154   1.936  12.026  0.0922 -0.3882  0.2541
17556TIP3    H174159   4.112   1.860  11.984  0.2992 -1.1023  1.3001
17556TIP3    H274160   4.227   1.958  11.968  1.2045 -2.2099  0.8686
17557TIP3   OH274161   0.789   4.392  15.527 -0.3594 -0.6249  0.1636
17557TIP3    H174162   0.881   4.367  15.521 -0.0596  0.3825  0.4789
17557TIP3    H274163   0.744   4.310  15.549  0.5064 -1.0372  0.4504
17558TIP3   OH274164   0.851   6.044  16.594  0.2640  0.3579 -0.1215
17558TIP3    H174165   0.870   6.033  16.687 -4.0130 -0.2274  0.9094
17558TIP3    H274166   0.790   6.119  16.590  0.8796  0.8422 -2.5921
17559TIP3   OH274167   0.434   5.778   1.060 -0.4206 -0.2482 -0.0458
17559TIP3    H174168   0.475   5.858   1.027 -1.3813 -0.0053 -0.6967
17559TIP3    H274169   0.342   5.801   1.073 -0.5848 -1.0730  0.3641
17560TIP3   OH274170   0.571   1.310   0.325 -0.0896  0.0974 -0.7023
17560TIP3    H174171   0.505   1.342   0.263 -0.9417  0.8260  0.5504
17560TIP3    H274172   0.654   1.345   0.292 -0.8025  2.3983 -0.1974
17561TIP3   OH274173   5.855   0.671  11.286  0.2943  0.0378  0.2356
17561TIP3    H174174   5.780   0.659  11.228  0.7063  1.1370 -0.5807
17561TIP3    H274175   5.886   0.760  11.266  0.4427  0.4572  2.1708
17562TIP3   OH274176   5.197   3.705   4.563 -0.0472  0.1762 -0.0394
17562TIP3    H174177   5.135   3.717   4.635  2.4747  0.7680  2.2039
17562TIP3    H274178   5.225   3.614   4.571 -0.2071  0.0684 -0.6898
17563TIP3   OH274179   0.444   4.013   0.920  0.8611 -0.4551 -0.1236
17563TIP3    H174180   0.526   3.983   0.960  0.4064 -0.2408  1.0148
17563TIP3    H274181   0.452   3.989   0.828  2.3520 -0.1347 -0.1036
17564TIP3   OH274182   6.025   0.458  14.595  0.0495 -0.2028 -0.4826
17564TIP3    H174183   6.010   0.385  14.655  1.1422 -1.0214 -1.1430
17564TIP3    H274184   5.943   0.466  14.546 -0.1921 -0.8064 -0.1911
17565TIP3   OH274185   4.202   4.627  12.332  0.4490 -0.1965  0.0591
17565TIP3    H174186   4.210   4.640  12.237  0.1902 -1.1531 -0.1108
17565TIP3    H274187   4.113   4.595  12.344  0.5974 -0.4202  0.5858
17566TIP3   OH274188   3.731   5.195   5.481  0.2480  0.1017 -0.2491
17566TIP3    H174189   3.818   5.181   5.444 -0.3556 -1.0416 -1.2767
17566TIP3    H274190   3.725   5.290   5.492  0.9123  0.3699 -1.9547
17567TIP3   OH274191   1.879   1.408   0.803  0.0367  0.0518  0.1866
17567TIP3    H174192   1.829   1.485   0.775  1.1649  0.0298 -2.1378
17567TIP3    H274193   1.937   1.389   0.729 -0.6245 -3.4343  0.4166
17568TIP3   OH274194   1.385   5.235   4.675  0.3447 -0.9915  0.6169
17568TIP3    H174195   1.296   5.262   4.698  0.9635  1.9682  0.0443
17568TIP3    H274196   1.413   5.179   4.747 -1.2042 -0.1221  1.9675
17569TIP3   OH274197   2.911   4.251  11.906  0.2867  0.2554  0.3708
17569TIP3    H174198   2.946   4.339  11.897  0.7895  0.1449  1.1863
17569TIP3    H274199   2.853   4.255  11.982  1.2075 -0.3728  1.1392
17570TIP3   OH274200   6.320   3.571   3.587  0.6542  0.0657  0.0499
17570TIP3    H174201   6.340   3.540   3.499  2.8147  1.0418  0.1329
17570TIP3    H274202   6.232   3.537   3.605  1.1066 -2.1967 -1.5408
17571TIP3   OH274203   4.979   3.385  12.275 -0.0273 -0.4044  0.2028
17571TIP3    H174204   4.909   3.405  12.213  0.0028 -0.3392  0.1890
17571TIP3    H274205   5.012   3.299  12.249 -0.9324 -0.9968  0.9620
17572TIP3   OH274206   6.330   3.167   1.285  0.3309  0.2549  0.3013
17572TIP3    H174207   6.371   3.090   1.246 -2.3158 -1.7790  1.2601
17572TIP3    H274208   6.270   3.199   1.218  0.6440  0.8836  0.3079
17573TIP3   OH274209   2.175   0.040   3.304 -0.0660  0.2452  0.0697
17573TIP3    H174210   2.132  -0.016   3.239  0.0491  1.6134 -1.2663
17573TIP3    H274211   2.246   0.082   3.255  1.8199 -0.7519  1.8265
17574TIP3   OH274212   3.548   0.781   2.421 -0.1703  0.0799 -0.0590
17574TIP3    H174213   3.455   0.769   2.403 -0.3054 -1.0074  1.2198
17574TIP3    H274214   3.553   0.865   2.466  0.0232  2.1984 -3.6170
17575TIP3   OH274215   5.719   3.142   4.825 -0.4291  0.0594  0.4062
17575TIP3    H174216   5.731   3.134   4.920 -0.6916 -1.8573  0.2995
17575TIP3    H274217   5.749   3.059   4.790 -2.3183 -0.0827 -1.0046
17576TIP3   OH274218   4.507   0.101   2.176  0.6219  0.2987  0.7219
17576TIP3    H174219   4.463   0.110   2.091  0.1971 -1.0462  0.7695
17576TIP3    H274220   4.551   0.185   2.190  0.9544  0.4323 -0.9671
17577TIP3   OH274221   2.119   6.327  12.603  0.0542 -0.0563 -0.1903
17577TIP3    H174222   2.109   6.419  12.579 -0.1862 -0.0530 -0.0792
17577TIP3    H274223   2.102   6.325  12.697  0.1906 -0.1938 -0.1678
17578TIP3   OH274224   5.222   2.955  14.091 -0.2281 -0.6781  0.1546
17578TIP3    H174225   5.168   2.969  14.169  2.0102 -1.4075  1.9255
17578TIP3    H274226   5.210   3.035  14.040 -1.3782  0.0435  1.4601
17579TIP3   OH274227   5.062   3.873  11.599 -0.3939  0.1986 -0.0471
17579TIP3    H174228   5.153   3.886  11.625 -0.4794  0.0357  0.3351
17579TIP3    H274229   5.022   3.960  11.606 -0.5758  0.0424  1.0001
17580TIP3   OH274230   2.929   0.805   2.899 -0.0777 -0.5110 -0.7792
17580TIP3    H174231   2.853   0.813   2.958 -0.0708 -0.5254 -0.7684
17580TIP3    H274232   2.929   0.887   2.849 -0.6783 -0.9229 -1.4724
17581TIP3   OH274233   5.354   4.665   4.178 -0.5283 -0.1140 -0.1666
17581TIP3    H174234   5.343   4.579   4.137  2.2884 -2.0317  2.5373
17581TIP3    H274235   5.268   4.705   4.175 -1.5307 -2.1435 -3.2993
17582TIP3   OH274236   4.200   1.218  13.100  0.0055  0.1360  0.1836
17582TIP3    H174237   4.154   1.216  13.184  2.1120 -0.4542  1.4007
17582TIP3    H274238   4.234   1.130  13.089  0.4211  0.4205 -0.9199
17583TIP3   OH274239   2.470   3.970   1.880  0.2121 -0.4280 -0.7220
17583TIP3    H174240   2.535   3.923   1.828 -0.7609 -0.4166 -2.0328
17583TIP3    H274241   2.484   4.062   1.859  1.3113 -0.2025  0.8776
17584TIP3   OH274242   1.636   6.328   4.999  0.6490 -0.4299 -0.0738
17584TIP3    H174243   1.544   6.315   4.977  0.5307 -0.1714  0.2671
17584TIP3    H274244   1.649   6.422   4.997  1.1216 -0.5030 -0.9714
17585TIP3   OH274245   5.549   1.711  11.571 -0.1119 -0.0573 -0.0308
17585TIP3    H174246   5.612   1.662  11.623 -1.5568  0.3439  2.2245
17585TIP3    H274247   5.464   1.682  11.602 -1.0965  0.0782 -2.3570
17586TIP3   OH274248   1.217   4.851   6.199 -0.0851 -0.1570 -0.5891
17586TIP3    H174249   1.201   4.922   6.137  0.8472  1.5162  0.9954
17586TIP3    H274250   1.247   4.895   6.279  2.6190 -2.4280 -0.1992
17587TIP3   OH274251   3.649   3.769   3.412 -0.3067 -0.6321 -0.1382
17587TIP3    H174252   3.744   3.764   3.423  0.0175  1.2411 -1.4036
17587TIP3    H274253   3.625   3.851   3.455 -1.1540 -0.5034 -0.8288
17588TIP3   OH274254   0.714   2.367   0.172 -0.1362  0.6918 -0.1024
17588TIP3    H174255   0.648   2.376   0.102 -0.2019  0.7461 -0.0334
17588TIP3    H274256   0.688   2.288   0.219  0.0408  0.5252 -0.2799
17589TIP3   OH274257   1.935   0.943   3.367  0.9781  0.2483  0.0200
17589TIP3    H174258   1.862   1.001   3.390  0.1217 -0.2535 -1.2839
17589TIP3    H274259   2.008   1.002   3.349  0.5249  0.8376  0.0867
17590TIP3   OH274260   3.654   2.183   2.006 -0.2471 -0.6409 -0.4069
17590TIP3    H174261   3.638   2.147   1.918 -0.4066  1.6700 -1.4007
17590TIP3    H274262   3.577   2.236   2.024 -0.2746 -1.1797  1.2448
17591TIP3   OH274263   1.665   4.569   2.006  0.5027  0.3007 -0.0315
17591TIP3    H174264   1.674   4.575   1.911 -3.9479  0.4278 -0.6370
17591TIP3    H274265   1.724   4.637   2.040  1.6945  0.7067 -2.6818
17592TIP3   OH274266   0.961   6.810  14.958 -0.2432 -0.0692 -0.4923
17592TIP3    H174267   1.049   6.775  14.968 -0.5454 -0.4980  0.8603
17592TIP3    H274268   0.917   6.788  15.040 -1.4411  0.6292 -0.9244
17593TIP3   OH274269   6.093   4.154  11.984  0.0440 -0.6547  0.2110
17593TIP3    H174270   6.182   4.121  11.990 -0.0628 -0.9905  0.0159
17593TIP3    H274271   6.055   4.137  12.071 -0.2267 -1.7081 -0.0936
17594TIP3   OH274272   0.344   5.028  15.834  0.0204  0.3677  0.5960
17594TIP3    H174273   0.429   5.016  15.792  0.4605 -1.2585  1.8539
17594TIP3    H274274   0.354   5.106  15.888  1.0629 -0.3545  1.4897
17595TIP3   OH274275   4.973   2.243  16.781 -0.1667  0.0974  0.2608
17595TIP3    H174276   4.945   2.205  16.864 -1.0877 -0.6328 -0.3596
17595TIP3    H274277   4.902   2.223  16.720  0.7189  0.1725 -0.8289
17596TIP3   OH274278   3.764   6.662  15.896 -0.2257  0.0977  0.2598
17596TIP3    H174279   3.764   6.574  15.933 -0.0265  0.1043  0.2755
17596TIP3    H274280   3.829   6.710  15.947  0.1194  0.0810 -0.1483
17597TIP3   OH274281   6.457   0.213   4.363  0.0340  0.2014 -0.2478
17597TIP3    H174282   6.372   0.256   4.348 -0.2525 -0.6173 -1.0803
17597TIP3    H274283   6.447   0.170   4.447 -0.7655 -0.7401 -0.7962
17598TIP3   OH274284   2.011   6.704   4.911  0.2944  0.3918 -0.5924
17598TIP3    H174285   2.072   6.764   4.955  2.9308 -0.2624 -3.1184
17598TIP3    H274286   2.063   6.627   4.889 -1.7457 -0.7166 -1.8762
17599TIP3   OH274287   5.066   5.830  12.006 -0.1192  0.1346  0.3275
17599TIP3    H174288   5.090   5.909  12.055 -2.1501  0.6948  0.4978
17599TIP3    H274289   5.115   5.838  11.924 -0.2458  1.5653  0.3537
17600TIP3   OH274290   0.307   5.074  11.939 -0.1034  0.1988 -0.3893
17600TIP3    H174291   0.279   4.985  11.915 -2.1569  0.7796 -0.3044
17600TIP3    H274292   0.228   5.126  11.934  0.8161  1.7945  0.8165
17601TIP3   OH274293   0.855   3.377   2.350 -0.1112  0.1751  0.1593
17601TIP3    H174294   0.924   3.422   2.302  0.3110 -0.1607  0.4344
17601TIP3    H274295   0.843   3.295   2.302 -0.0317  0.0549  0.3442
17602TIP3   OH274296   1.505   3.869  16.129 -0.0141  0.3291 -0.4999
17602TIP3    H174297   1.476   3.866  16.220  2.4948  0.1096  0.3693
17602TIP3    H274298   1.595   3.902  16.133 -0.0514  0.9208 -2.9718
17603TIP3   OH274299   1.038   4.011   5.518 -0.3436  0.4907  0.0937
17603TIP3    H174300   1.070   4.049   5.437  1.5888 -0.0204  0.5620
17603TIP3    H274301   0.983   4.080   5.557  0.6580  1.6575 -0.4936
17604TIP3   OH274302   1.045   5.094   1.978 -0.2838 -0.6865  0.4444
17604TIP3    H174303   1.091   5.096   1.894 -0.9304 -2.7720 -0.0099
17604TIP3    H274304   1.114   5.102   2.043  0.1315  2.4433 -0.1899
17605TIP3   OH274305   5.372   4.348   6.316 -0.2925  0.0185 -0.1955
17605TIP3    H174306   5.418   4.430   6.298  0.7706 -0.1142  1.7062
17605TIP3    H274307   5.333   4.361   6.402 -1.3522 -0.9659 -0.5039
17606TIP3   OH274308   1.760   6.783   4.836 -0.1700  0.3130  0.2008
17606TIP3    H174309   1.725   6.801   4.923 -0.9472  1.0491 -0.2609
17606TIP3    H274310   1.852   6.761   4.853 -0.3823  0.1315  1.2350
17607TIP3   OH274311   4.585   2.850   2.719  0.8263 -0.2613 -0.4008
17607TIP3    H174312   4.621   2.786   2.657  0.0031 -1.1793  0.0348
17607TIP3    H274313   4.598   2.935   2.677  0.0624 -0.8688 -1.9391
17608TIP3   OH274314   4.111   5.099   2.182  0.3364 -0.1771  0.0402
17608TIP3    H174315   4.177   5.069   2.244 -0.0069  1.3219  1.1807
17608TIP3    H274316   4.162   5.129   2.106  0.7470 -2.1963 -0.5479
17609TIP3   OH274317   2.483   2.324  14.079  0.0279  0.0058 -0.2827
17609TIP3    H174318   2.570   2.295  14.106 -0.1222  1.3348  1.8526
17609TIP3    H274319   2.453   2.381  14.151 -1.9902  0.7719 -1.6418
17610TIP3   OH274320   2.576   0.561  15.643  0.8769 -0.1346 -0.0662
17610TIP3    H174321   2.558   0.638  15.590 -2.3151 -0.8024 -0.1327
17610TIP3    H274322   2.596   0.596  15.730 -1.2978  0.8200  0.1107
17611TIP3   OH274323   5.234   6.017   1.311 -0.0469 -0.2001  0.2208
17611TIP3    H174324   5.322   6.019   1.349  0.0080  0.3040  0.0680
17611TIP3    H274325   5.185   5.957   1.368  1.0612 -2.5903 -1.1737
17612TIP3   OH274326   4.345   0.433   1.508 -0.4280  0.3572  0.2708
17612TIP3    H174327   4.322   0.480   1.427 -3.5767 -0.5889  0.4845
17612TIP3    H274328   4.370   0.502   1.569  0.9938  1.1765 -1.1410
17613TIP3   OH274329   6.643   4.546  12.906  0.3073 -0.1918  0.5045
17613TIP3    H174330   6.638   4.587  12.820  0.1327 -2.3132 -0.5737
17613TIP3    H274331   6.573   4.587  12.957 -1.3999 -0.7518 -1.2686
17614TIP3   OH274332   1.928   4.419   2.818  0.8448  0.0434  0.1663
17614TIP3    H174333   2.012   4.380   2.840  0.3370 -1.7597 -0.8952
17614TIP3    H274334   1.937   4.449   2.728  0.7772  1.1572  0.5124
17615TIP3   OH274335   5.492   0.689  12.399 -0.1886  0.5822 -0.1436
17615TIP3    H174336   5.564   0.630  12.421  0.0657  2.0307  3.6736
17615TIP3    H274337   5.430   0.636  12.350  0.3993 -2.6692  2.3148
17616TIP3   OH274338   3.146   1.594  16.318  0.4276 -0.2472 -0.1627
17616TIP3    H174339   3.232   1.611  16.357 -0.2669  2.2789  0.5006
17616TIP3    H274340   3.164   1.543  16.240  2.7950  1.8857 -1.1468
17617TIP3   OH274341   0.941   3.618   6.793  0.3018 -0.3036 -0.0022
17617TIP3    H174342   0.950   3.708   6.824  1.2479 -0.6676  0.8520
17617TIP3    H274343   1.030   3.583   6.796 -0.1274 -1.4252  0.1861
17618TIP3   OH274344   6.097   4.859  17.091  0.7150  0.3586  0.1593
17618TIP3    H174345   6.078   4.780  17.039  1.3679 -0.3392  0.9565
17618TIP3    H274346   6.184   4.886  17.062  0.6899  0.5159  0.2318
17619TIP3   OH274347   5.560   2.675   0.700  0.6419 -0.2541 -1.3581
17619TIP3    H174348   5.617   2.711   0.632 -0.7907  0.7899 -2.0594
17619TIP3    H274349   5.503   2.748   0.725  0.7945 -0.7652  0.6101
17620TIP3   OH274350   5.369   3.776   2.125  0.4252  0.1428 -0.1424
17620TIP3    H174351   5.314   3.845   2.088 -0.7093 -1.1859 -1.0354
17620TIP3    H274352   5.366   3.705   2.061  1.3327 -0.8506  0.8610
17621TIP3   OH274353   3.216   0.834  12.086  0.1336  0.2609  0.0015
17621TIP3    H174354   3.141   0.832  12.146  0.7342 -0.1148  0.7509
17621TIP3    H274355   3.228   0.928  12.067 -0.6167  0.3127 -0.2529
17622TIP3   OH274356   5.403   2.482   4.787  0.1455  0.2616  0.0118
17622TIP3    H174357   5.407   2.388   4.767 -0.0832  0.0599  0.8570
17622TIP3    H274358   5.312   2.497   4.811  0.6740  0.1641  2.2624
17623TIP3   OH274359   6.776   1.929   3.846  0.8606 -0.2610  0.0220
17623TIP3    H174360   6.683   1.951   3.838  1.0270 -0.1881 -2.0847
17623TIP3    H274361   6.815   2.008   3.884  0.2383  0.1459 -0.1589
17624TIP3   OH274362   2.617   2.985  14.471 -0.1771 -0.2467  0.1064
17624TIP3    H174363   2.525   2.971  14.450 -0.0674 -0.6657 -0.1112
17624TIP3    H274364   2.662   2.909  14.435  0.8075  1.7672 -3.3174
17625TIP3   OH274365   4.784   6.542   0.169  0.4555 -0.3382 -0.5345
17625TIP3    H174366   4.763   6.527   0.077 -0.0818 -2.9193 -0.0609
17625TIP3    H274367   4.820   6.631   0.171 -0.5176  0.2042 -3.0397
17626TIP3   OH274368   2.100   0.280   4.618  0.2666 -0.8238  0.0283
17626TIP3    H174369   2.050   0.323   4.549 -1.9595 -0.5955  1.6482
17626TIP3    H274370   2.084   0.187   4.605  0.6629 -0.8406 -0.3396
17627TIP3   OH274371   0.510   3.810   2.355  0.8127  0.0855 -0.0537
17627TIP3    H174372   0.472   3.818   2.267 -0.2871 -0.0727  0.3901
17627TIP3    H274373   0.491   3.720   2.381 -0.7967  0.7393  1.1837
17628TIP3   OH274374   3.578   2.898  15.073 -0.3255  0.1197 -0.4328
17628TIP3    H174375   3.522   2.958  15.122 -0.2623 -0.5170  0.4491
17628TIP3    H274376   3.518   2.830  15.041 -0.2129 -0.0221 -0.3471
17629TIP3   OH274377   5.871   4.848   6.061  0.5130 -0.5767 -0.3964
17629TIP3    H174378   5.871   4.757   6.032  2.2182 -1.4576  2.0117
17629TIP3    H274379   5.871   4.843   6.157  1.8163  1.9279 -0.1628
17630TIP3   OH274380   4.898   0.268   2.668  0.4125  0.4947 -0.3739
17630TIP3    H174381   4.857   0.201   2.723  2.5653 -0.0573  0.6429
17630TIP3    H274382   4.946   0.323   2.729  0.6594  1.5302 -1.4595
17631TIP3   OH274383   2.880   6.638   1.032 -0.5286  0.3283 -0.5754
17631TIP3    H174384   2.808   6.577   1.020 -1.6862  1.9382 -2.4174
17631TIP3    H274385   2.885   6.687   0.949  0.4040  2.6495  0.7341
17632TIP3   OH274386   0.534   3.084  12.291 -0.5069 -0.0267 -0.1743
17632TIP3    H174387   0.562   3.165  12.335  2.8665 -0.8225 -0.5290
17632TIP3    H274388   0.581   3.015  12.338  0.3404 -1.2696 -2.7075
17633TIP3   OH274389   1.170   3.221  15.791  0.0495  0.1306  0.2881
17633TIP3    H174390   1.210   3.134  15.786 -0.7595 -0.1985 -1.2860
17633TIP3    H274391   1.195   3.255  15.877 -1.5523 -2.5962  1.9651
17634TIP3   OH274392   6.365   0.242  13.228  0.4633  0.1188 -0.1267
17634TIP3    H174393   6.275   0.247  13.198 -0.3800 -2.1228  1.7312
17634TIP3    H274394   6.417   0.226  13.149 -1.0686 -1.0205 -0.9388
17635TIP3   OH274395   6.170   1.834   0.099 -0.3191 -0.2607 -0.1395
17635TIP3    H174396   6.226   1.896   0.052 -0.0438 -1.5773 -1.6198
17635TIP3    H274397   6.081   1.866   0.087 -0.2567 -0.6001 -1.6387
17636TIP3   OH274398   3.642   2.095   0.794 -0.1476  0.2557  0.4674
17636TIP3    H174399   3.617   2.053   0.876 -0.7498 -0.7343 -0.2060
17636TIP3    H274400   3.567   2.082   0.736 -0.0825  1.7092  0.0237
17637TIP3   OH274401   1.712   0.100   5.748 -0.2437 -0.5490  0.0204
17637TIP3    H174402   1.709   0.077   5.655  1.1120 -2.1476  0.3067
17637TIP3    H274403   1.646   0.168   5.759  1.7552  2.1477 -2.7789
17638TIP3   OH274404   6.047   6.306   4.263  0.0102  0.1863  0.3268
17638TIP3    H174405   6.022   6.332   4.352  0.2983  1.7799 -0.0238
17638TIP3    H274406   5.999   6.366   4.206  1.1705  0.3479 -0.5235
17639TIP3   OH274407   0.798   1.367   1.696  0.0538 -0.9747  0.3109
17639TIP3    H174408   0.740   1.423   1.645  0.6230 -0.1101  0.6024
17639TIP3    H274409   0.832   1.423   1.766  1.3880 -1.4013  0.0381
17640TIP3   OH274410   3.106   6.089   3.805  0.0487  0.4563 -0.2654
17640TIP3    H174411   3.168   6.080   3.732 -0.5319 -0.4001 -0.6714
17640TIP3    H274412   3.030   6.131   3.766 -0.3198 -0.1330 -0.1892
17641TIP3   OH274413   2.440   0.772  15.897 -0.5331  0.3215  0.0716
17641TIP3    H174414   2.495   0.697  15.918  0.9227  1.6419  1.2437
17641TIP3    H274415   2.374   0.738  15.837  1.5893 -1.3531 -1.4492
17642TIP3   OH274416   6.123   4.688  14.613 -0.1055 -0.2266  0.5836
17642TIP3    H174417   6.082   4.752  14.670  1.5327  1.4382 -0.0146
17642TIP3    H274418   6.060   4.676  14.542 -0.5137  0.5978  0.7933
17643TIP3   OH274419   5.209   0.607   1.524 -0.0690 -0.1967  0.0782
17643TIP3    H174420   5.201   0.527   1.472  0.7244 -0.8797  0.9503
17643TIP3    H274421   5.294   0.644   1.498  0.2863 -0.4888  0.7776
17644TIP3   OH274422   2.934   1.129  16.997 -0.7512  0.4114  0.1169
17644TIP3    H174423   2.925   1.224  17.008 -2.3278  0.1936  1.0904
17644TIP3    H274424   2.875   1.092  17.063 -0.6244 -1.2448 -0.6517
17645TIP3   OH274425   1.961   0.569  12.748  0.8676  0.1369  0.3950
17645TIP3    H174426   2.009   0.497  12.707  0.2679 -0.3912  0.5971
17645TIP3    H274427   1.953   0.543  12.840 -0.2002 -0.0118  0.2699
17646TIP3   OH274428   1.960   5.839   3.786 -0.1487  0.2262 -0.0747
17646TIP3    H174429   1.887   5.803   3.837  0.1316 -0.7807 -0.3466
17646TIP3    H274430   1.919   5.883   3.712 -0.5541  1.5257  0.8850
17647TIP3   OH274431   1.653   6.175  13.720  0.1886  0.2103  0.1534
17647TIP3    H174432   1.712   6.190  13.646  0.4910 -0.7584  0.1912
17647TIP3    H274433   1.592   6.108  13.689 -0.8348  1.0932  0.1595
17648TIP3   OH274434   0.198   0.878   0.140 -0.9433  0.7158 -0.1582
17648TIP3    H174435   0.148   0.801   0.112 -1.1745  0.6808  0.3354
17648TIP3    H274436   0.135   0.930   0.189 -0.4831  0.6442  0.5230
17649TIP3   OH274437   1.179   5.268   6.356 -0.0298  0.4090  0.3183
17649TIP3    H174438   1.272   5.271   6.381 -0.7993  2.7988  3.4917
17649TIP3    H274439   1.149   5.182   6.385  0.9594 -0.0427  0.0606
17650TIP3   OH274440   0.594   1.533   4.326  0.4972  0.5830  0.1625
17650TIP3    H174441   0.666   1.473   4.308  2.0328  1.1185  3.7717
17650TIP3    H274442   0.633   1.620   4.319 -0.2975  0.9620  0.3759
17651TIP3   OH274443   2.630   0.598   1.598 -0.3791  0.1348 -0.3652
17651TIP3    H174444   2.713   0.555   1.617 -0.2342  0.4761 -0.2255
17651TIP3    H274445   2.570   0.526   1.576 -0.0187 -0.1029 -0.5806
17652TIP3   OH274446   3.586   6.494   1.846  0.1917  0.0771 -0.6057
17652TIP3    H174447   3.637   6.459   1.773  0.9421 -1.0914  0.4312
17652TIP3    H274448   3.648   6.549   1.894  0.2497 -0.6516  0.1736
17653TIP3   OH274449   1.075   1.469  12.294  0.4991  0.6067  0.4199
17653TIP3    H174450   1.115   1.522  12.225 -0.9122  0.6267 -0.4080
17653TIP3    H274451   1.082   1.379  12.263  2.2626  0.3174  1.5079
17654TIP3   OH274452   2.042   4.780  13.857 -0.2649 -0.7889 -0.3337
17654TIP3    H174453   2.067   4.712  13.795  1.2962 -1.3478  0.8387
17654TIP3    H274454   2.079   4.861  13.822  2.5789 -1.4459  0.8723
17655TIP3   OH274455   5.985   1.786   2.583  0.9841  0.6611  0.7939
17655TIP3    H174456   6.066   1.752   2.545  0.7661  1.7991 -0.7820
17655TIP3    H274457   5.927   1.710   2.587  1.1400  0.4092 -0.8780
17656TIP3   OH274458   1.065   0.650  14.212 -0.3237 -0.0472 -0.0654
17656TIP3    H174459   0.979   0.649  14.256 -0.9837 -1.5373 -1.3245
17656TIP3    H274460   1.109   0.572  14.243  0.0355 -0.0099 -0.4732
17657TIP3   OH274461   6.356   3.735   2.557  0.2533 -0.8271  0.1229
17657TIP3    H174462   6.334   3.821   2.522  1.5215 -0.2288  0.7317
17657TIP3    H274463   6.282   3.712   2.613 -0.0682 -0.1066  0.0028
17658TIP3   OH274464   3.783   0.783   2.636 -0.7511  0.1302  0.0365
17658TIP3    H174465   3.761   0.786   2.543 -0.1409 -1.7231 -0.2225
17658TIP3    H274466   3.860   0.839   2.644  0.0507 -0.7985 -0.8762
17659TIP3   OH274467   0.123   3.861   5.733  0.2210  0.3326  0.1318
17659TIP3    H174468   0.045   3.852   5.789 -0.5243  0.1591 -0.9154
17659TIP3    H274469   0.089   3.860   5.644  1.6260 -2.2305 -0.4748
17660TIP3   OH274470   3.126   2.912  11.330 -0.6753  0.2801  0.3050
17660TIP3    H174471   3.099   2.967  11.403  0.7506 -1.0341  1.9097
17660TIP3    H274472   3.205   2.954  11.296  0.2279 -0.4995  1.3264
17661TIP3   OH274473   6.461   6.371   5.382  0.4027  0.3065  0.1898
17661TIP3    H174474   6.502   6.431   5.444  1.2983  0.3294 -0.4024
17661TIP3    H274475   6.531   6.347   5.321 -0.6107  0.8221 -1.2406
17662TIP3   OH274476   2.169   0.678   1.695  0.2716 -0.4676 -0.6969
17662TIP3    H174477   2.237   0.687   1.628  0.3169  1.9205 -0.4362
17662TIP3    H274478   2.131   0.766   1.702  1.2079 -0.1863  3.3634
17663TIP3   OH274479   3.950   6.801   4.800 -0.5442  0.5531 -0.2071
17663TIP3    H174480   3.926   6.849   4.879  0.9090 -0.1534  0.6961
17663TIP3    H274481   3.867   6.768   4.766 -1.1100  0.0966  1.5307
17664TIP3   OH274482   0.775   0.046  16.621  0.0616  0.1438  0.3178
17664TIP3    H174483   0.740   0.094  16.696  0.5170  0.7732  0.1440
17664TIP3    H274484   0.707   0.053  16.554  0.3993  1.1670  0.0552
17665TIP3   OH274485   3.133   1.358  11.956  0.4121  0.1045 -0.5966
17665TIP3    H174486   3.174   1.296  12.017 -0.6850  0.1664  0.2207
17665TIP3    H274487   3.179   1.440  11.970  0.9634 -0.1790 -0.7145
17666TIP3   OH274488   3.422   5.430   0.312 -0.1000  0.6630 -0.2195
17666TIP3    H174489   3.378   5.425   0.397  0.0599 -0.8991 -0.2072
17666TIP3    H274490   3.498   5.373   0.320 -1.9095 -2.3933 -2.4347
17667TIP3   OH274491   4.603   6.625  15.796  0.7096  0.5644  0.3768
17667TIP3    H174492   4.581   6.657  15.709 -0.1706  1.0164  0.7612
17667TIP3    H274493   4.691   6.659  15.812  0.4578  1.3508  0.0942
17668TIP3   OH274494   0.408   6.738   4.848 -0.5781 -0.0906  0.0414
17668TIP3    H174495   0.419   6.665   4.786  1.3085  0.4570 -0.3166
17668TIP3    H274496   0.323   6.721   4.888 -0.9596 -1.5639 -1.2503
17669TIP3   OH274497   6.027   0.687  13.313 -0.4985 -0.0410  0.3714
17669TIP3    H174498   6.070   0.766  13.347 -1.9491  1.1629 -0.4450
17669TIP3    H274499   6.066   0.673  13.227 -1.8492  1.2346 -0.5046
17670TIP3   OH274500   1.286   5.547  13.557 -0.2826 -0.1973  0.6828
17670TIP3    H174501   1.231   5.500  13.619 -0.0300  0.5186  1.4773
17670TIP3    H274502   1.229   5.565  13.483 -0.8602 -0.2577  1.1055
17671TIP3   OH274503   3.689   5.884   3.416 -0.9101  0.2318  0.4299
17671TIP3    H174504   3.732   5.844   3.491 -0.8826  0.3096  0.4554
17671TIP3    H274505   3.614   5.827   3.398 -1.2167  0.5085  0.8437
17672TIP3   OH274506   6.441   2.650  14.057  0.4929  0.2539  0.0376
17672TIP3    H174507   6.465   2.651  13.964 -1.6727  1.1069 -0.5644
17672TIP3    H274508   6.461   2.561  14.085 -0.2459 -0.5000 -1.6620
17673TIP3   OH274509   4.567   4.749  14.248 -0.1162  0.4479 -0.0131
17673TIP3    H174510   4.577   4.780  14.158  0.7352 -0.0407 -0.1048
17673TIP3    H274511   4.479   4.710  14.251  0.1498 -0.2410 -0.8667
17674TIP3   OH274512   4.852   2.953   0.533 -0.4822  0.0460 -0.6881
17674TIP3    H174513   4.789   3.023   0.519 -0.2387  0.6459  0.9786
17674TIP3    H274514   4.802   2.881   0.570 -0.0689  0.9991  1.9368
17675TIP3   OH274515   1.591   1.006  14.095 -0.0442 -1.1007 -0.0925
17675TIP3    H174516   1.675   0.975  14.060  1.1395  0.3838  1.2542
17675TIP3    H274517   1.579   0.958  14.176 -0.4342 -1.2205 -0.2212
17676TIP3   OH274518   2.450   3.181  16.101 -0.0030 -0.5095  0.8232
17676TIP3    H174519   2.539   3.151  16.120  0.0616 -0.3613  0.7575
17676TIP3    H274520   2.462   3.264  16.054 -0.1315 -1.1655 -0.4247
17677TIP3   OH274521   3.539   2.217   2.790 -0.0235  0.1991  0.1865
17677TIP3    H174522   3.510   2.286   2.730  1.0013  1.2035  0.8095
17677TIP3    H274523   3.573   2.264   2.866 -1.4247 -1.0367  1.6538
17678TIP3   OH274524   1.049   5.925  12.085 -0.2021 -0.2225 -0.1717
17678TIP3    H174525   1.132   5.929  12.036  0.5322  0.5956  1.1088
17678TIP3    H274526   0.987   5.971  12.029  0.8388  1.5206  0.0423
17679TIP3   OH274527   0.413   1.182  15.966  1.0209  0.1221 -0.0821
17679TIP3    H174528   0.420   1.184  15.871  2.1771  0.5495  0.0029
17679TIP3    H274529   0.486   1.234  15.997 -0.5912  1.8682  1.0153
17680TIP3   OH274530   3.554   4.946  16.416  0.4389 -0.3370  0.9134
17680TIP3    H174531   3.561   4.883  16.488  1.2085 -0.8264  0.4227
17680TIP3    H274532   3.482   5.004  16.442  0.2122 -0.9603  1.7222
17681TIP3   OH274533   3.590   1.856  14.960 -0.5873 -0.4995 -0.6237
17681TIP3    H174534   3.603   1.912  15.037 -2.9628 -1.8187  0.8851
17681TIP3    H274535   3.622   1.908  14.886 -2.0607  2.6008  0.7304
17682TIP3   OH274536   5.322   1.227  15.037 -0.0330 -0.1640 -0.2838
17682TIP3    H174537   5.233   1.209  15.068 -0.3836  0.9470 -0.5766
17682TIP3    H274538   5.340   1.158  14.973  0.0345 -1.4676  1.0832
17683TIP3   OH274539   5.617   4.509  17.250  0.0395  0.3129  0.3379
17683TIP3    H174540   5.566   4.562  17.311 -1.7472 -2.4838  1.4257
17683TIP3    H274541   5.582   4.531  17.164  0.3423  1.8862  0.5824
17684TIP3   OH274542   6.358   4.463   5.041  0.0240 -0.0991  0.0378
17684TIP3    H174543   6.446   4.441   5.073 -0.5764 -0.6866  1.3325
17684TIP3    H274544   6.310   4.490   5.119 -2.4478 -4.5846  0.4321
17685TIP3   OH274545   3.020   4.604   2.483 -0.1869  0.3188  0.1177
17685TIP3    H174546   3.100   4.597   2.431  0.5538  0.5850  1.1815
17685TIP3    H274547   2.952   4.565   2.429  0.2396  1.9556 -1.7052
17686TIP3   OH274548   0.283   0.196   4.969  0.1343  0.6887 -0.3333
17686TIP3    H174549   0.292   0.279   5.016  1.2798  0.2679  0.2132
17686TIP3    H274550   0.364   0.188   4.918  0.2420 -0.3222 -0.0186
17687TIP3   OH274551   6.241   4.004  15.610 -0.1723 -0.1576 -0.2777
17687TIP3    H174552   6.274   3.940  15.546  3.5726  0.8564  0.4117
17687TIP3    H274553   6.256   3.962  15.695 -1.3943  0.1047  0.0827
17688TIP3   OH274554   3.834   2.727  15.043 -0.5080 -0.1969 -0.2085
17688TIP3    H174555   3.855   2.697  15.131  1.5669  1.7238  0.0357
17688TIP3    H274556   3.745   2.762  15.051 -0.8809 -1.2819  0.7523
17689TIP3   OH274557   0.705   4.104  12.563  0.0290 -0.0828  0.1703
17689TIP3    H174558   0.711   4.175  12.627 -0.8694 -0.0965  0.2935
17689TIP3    H274559   0.778   4.046  12.584 -0.5837 -0.3929  1.5657
17690TIP3   OH274560   4.212   5.731  10.506 -0.2984  0.1599 -0.0459
17690TIP3    H174561   4.191   5.750  10.414 -0.6483 -0.4327 -0.0924
17690TIP3    H274562   4.193   5.812  10.552 -0.9507  0.1956 -0.3675
17691TIP3   OH274563   6.393   6.600  16.098  0.3077  0.7665 -0.4333
17691TIP3    H174564   6.429   6.518  16.133  0.6191  1.5102  1.0497
17691TIP3    H274565   6.351   6.574  16.016 -0.5460 -1.0784  0.5276
17692TIP3   OH274566   6.429   2.338   2.307  0.4903 -0.5194 -0.3967
17692TIP3    H174567   6.470   2.420   2.279  0.4169 -1.1289 -2.4821
17692TIP3    H274568   6.347   2.365   2.348 -0.5081  0.4400 -2.8467
17693TIP3   OH274569   0.769   0.431   3.489  0.8813  0.0343  0.2848
17693TIP3    H174570   0.806   0.512   3.454  2.0813 -0.4074  0.4720
17693TIP3    H274571   0.840   0.366   3.480  1.4171 -0.0714  3.6981
17694TIP3   OH274572   3.252   0.830  13.711 -0.1521  0.1754 -0.3812
17694TIP3    H174573   3.278   0.739  13.726  2.5821  1.0193  0.5801
17694TIP3    H274574   3.241   0.867  13.799  2.7383  1.7139 -0.5357
17695TIP3   OH274575   4.366   1.106  11.924 -0.0895 -0.3142  0.0621
17695TIP3    H174576   4.447   1.087  11.972  0.9516 -0.3321 -1.6152
17695TIP3    H274577   4.363   1.039  11.856 -1.4889 -0.2518  0.0364
17696TIP3   OH274578   4.768   3.002   2.398 -0.2150 -0.1121  0.3117
17696TIP3    H174579   4.745   2.928   2.343 -1.7509  0.7124 -0.2338
17696TIP3    H274580   4.840   2.971   2.453 -1.7794 -2.4823  1.1489
17697TIP3   OH274581   0.033   4.810  11.281 -0.1379 -0.5033  0.3511
17697TIP3    H174582   0.030   4.717  11.256  3.2468 -0.7875  0.5669
17697TIP3    H274583   0.084   4.852  11.211 -3.5284  1.8046 -1.0176
17698TIP3   OH274584   5.103   6.266  14.003 -0.3878  0.0568  0.0246
17698TIP3    H174585   5.183   6.225  14.037  0.5620  1.9855  0.2471
17698TIP3    H274586   5.130   6.307  13.921 -1.2326  0.4424 -0.0693
17699TIP3   OH274587   2.005   2.016   5.104 -0.2222 -0.5215 -0.2050
17699TIP3    H174588   2.075   1.983   5.048  0.8875  0.6504  0.4362
17699TIP3    H274589   2.031   1.990   5.192 -0.7544 -0.3505  0.0039
17700TIP3   OH274590   2.156   6.025  12.751  0.4827  0.3291 -0.0817
17700TIP3    H174591   2.078   6.017  12.695  0.4219 -0.5604  0.1062
17700TIP3    H274592   2.127   6.081  12.823 -0.2198 -0.5759  0.3600
17701TIP3   OH274593   2.884   4.888  16.771  0.0394  0.1904 -0.3897
17701TIP3    H174594   2.819   4.918  16.834 -0.7963  2.0719 -2.0739
17701TIP3    H274595   2.938   4.964  16.753  0.7337 -0.5064 -1.4008
17702TIP3   OH274596   2.345   5.876  12.210  0.5403  0.0192 -0.2109
17702TIP3    H174597   2.344   5.891  12.115  0.7742 -0.0980 -0.2323
17702TIP3    H274598   2.437   5.875  12.234  0.4652  0.5321  0.1005
17703TIP3   OH274599   1.346   4.391  13.614 -0.1222 -0.1123 -0.5691
17703TIP3    H174600   1.437   4.414  13.631 -0.3732 -0.5066  1.5247
17703TIP3    H274601   1.350   4.302  13.578  0.2675 -0.5529  0.5330
17704TIP3   OH274602   3.605   0.988   1.939 -0.4451  0.1099 -0.4183
17704TIP3    H174603   3.555   0.990   2.021 -0.0359 -0.1258 -0.1590
17704TIP3    H274604   3.558   0.924   1.885 -0.1259 -0.5083  0.0225
17705TIP3   OH274605   1.791   4.861   2.295  0.3191 -0.0439 -0.7091
17705TIP3    H174606   1.809   4.770   2.318 -1.4466 -0.7791 -2.0190
17705TIP3    H274607   1.849   4.879   2.222  1.1962  0.1370  0.0211
17706TIP3   OH274608   4.064   6.293  15.249  0.1667  0.1250  0.4540
17706TIP3    H174609   4.007   6.260  15.318  0.8365  0.2932  1.1008
17706TIP3    H274610   4.149   6.304  15.291  0.7626 -0.4034 -0.5613
17707TIP3   OH274611   1.679   5.282  13.300  0.1818  0.3129 -0.0401
17707TIP3    H174612   1.768   5.280  13.335  0.0774  0.8565  0.2625
17707TIP3    H274613   1.666   5.372  13.270  0.0605  0.0104 -0.9535
17708TIP3   OH274614   6.601   5.954   7.120  0.3591  0.3467 -0.0399
17708TIP3    H174615   6.689   5.968   7.084  0.0729 -2.0496 -1.9120
17708TIP3    H274616   6.542   5.977   7.048 -0.5187  0.9093  0.8474
17709TIP3   OH274617   3.926   5.684  12.439 -0.5130  0.6281 -0.3707
17709TIP3    H174618   4.000   5.708  12.495 -1.2324  0.7026  0.5651
17709TIP3    H274619   3.854   5.667  12.500 -0.9159 -0.7614 -1.1766
17710TIP3   OH274620   0.501   6.152   3.126 -0.3058  0.0218 -0.4001
17710TIP3    H174621   0.554   6.073   3.131  0.7187  0.4361 -2.9899
17710TIP3    H274622   0.562   6.220   3.097 -1.2646  1.6872  1.2559
17711TIP3   OH274623   5.245   2.469  14.826  0.6804 -0.4224  0.3860
17711TIP3    H174624   5.259   2.540  14.888 -1.5001  0.6444 -0.2421
17711TIP3    H274625   5.252   2.510  14.740 -3.9889  0.0524 -0.0552
17712TIP3   OH274626   3.941   4.979  14.049 -0.0773 -0.0289  0.6371
17712TIP3    H174627   3.917   5.042  13.981  0.6124  0.0574  0.4629
17712TIP3    H274628   4.035   4.993  14.062 -0.0898 -0.4385  1.2048
17713TIP3   OH274629   6.450   1.770  14.799  0.3386 -0.3154  0.0244
17713TIP3    H174630   6.537   1.731  14.789  0.5543 -0.1882  1.3102
17713TIP3    H274631   6.390   1.696  14.789  0.5360 -0.3159 -1.4441
17714TIP3   OH274632   0.367   3.612   0.327  0.2787  0.3736  0.3169
17714TIP3    H174633   0.397   3.699   0.302 -0.1937  0.9732  1.6945
17714TIP3    H274634   0.313   3.583   0.254  1.4092  0.7242 -0.6738
17715TIP3   OH274635   2.979   3.286   4.428  0.0679  0.3444 -0.0124
17715TIP3    H174636   2.990   3.240   4.511  0.7275  0.6134  0.0485
17715TIP3    H274637   2.935   3.222   4.371  0.5535 -0.2007  0.2206
17716TIP3   OH274638   1.370   6.736  17.152 -0.1806 -1.1077 -0.3603
17716TIP3    H174639   1.465   6.738  17.144 -0.2378  0.2495 -1.1969
17716TIP3    H274640   1.340   6.687  17.075 -0.2138  0.7205 -1.5926
17717TIP3   OH274641   4.602   3.357   3.340  0.5826  0.1254 -0.2719
17717TIP3    H174642   4.584   3.266   3.319 -0.0219 -0.0951  1.1483
17717TIP3    H274643   4.613   3.359   3.435 -0.2668  1.6632 -0.1771
17718TIP3   OH274644   5.372   0.585  14.436  0.4056  0.3092  0.6123
17718TIP3    H174645   5.403   0.649  14.373  2.3411 -1.3041 -0.1789
17718TIP3    H274646   5.289   0.553  14.400  0.6523  0.6248 -0.2419
17719TIP3   OH274647   4.870   2.910   3.515 -0.1905 -0.1801  0.4584
17719TIP3    H174648   4.877   2.859   3.596  0.4601 -1.4464 -0.3596
17719TIP3    H274649   4.899   2.998   3.539 -1.6473 -0.0750  1.9873
17720TIP3   OH274650   1.296   5.899  14.306 -0.6932  0.0462  0.1965
17720TIP3    H174651   1.387   5.921  14.328 -0.4055  0.6858 -1.4614
17720TIP3    H274652   1.267   5.971  14.250 -1.9411 -0.5992 -0.0204
17721TIP3   OH274653   4.121   4.885  15.609  0.2500 -0.1448  0.5342
17721TIP3    H174654   4.069   4.892  15.689  0.2493  2.2322  0.4185
17721TIP3    H274655   4.065   4.924  15.541  0.7302 -1.0144 -0.3826
17722TIP3   OH274656   4.498   4.174   5.012  0.3210  0.3003 -0.2148
17722TIP3    H174657   4.489   4.148   4.920 -0.4686 -1.8998  0.4088
17722TIP3    H274658   4.429   4.239   5.026 -0.2875 -0.1814 -0.9042
17723TIP3   OH274659   5.234   4.126   0.749 -0.3253 -0.1404 -0.2583
17723TIP3    H174660   5.324   4.097   0.741 -0.9383 -1.8742 -1.3149
17723TIP3    H274661   5.194   4.066   0.811 -1.2088 -0.5865 -1.2289
17724TIP3   OH274662   4.785   0.746   3.344 -0.1488  0.1579  0.6688
17724TIP3    H174663   4.728   0.770   3.271  0.7122 -0.3551 -0.2020
17724TIP3    H274664   4.832   0.827   3.365  1.3110 -0.2145 -0.9419
17725TIP3   OH274665   0.343   1.271   2.778  0.1401  0.0872  0.5058
17725TIP3    H174666   0.342   1.322   2.859 -0.9094 -1.4006  1.4690
17725TIP3    H274667   0.260   1.223   2.778  0.6537 -0.8764 -0.8537
17726TIP3   OH274668   6.087   1.079   1.650  0.2838  1.0626  0.2334
17726TIP3    H174669   6.178   1.103   1.666  0.8079  0.4583 -1.6413
17726TIP3    H274670   6.061   1.128   1.572 -0.0928 -0.7704 -0.8715
17727TIP3   OH274671   0.030   0.659   3.014  0.0383  0.6073 -0.2382
17727TIP3    H174672   0.012   0.565   3.022  0.9943  0.4308  0.0084
17727TIP3    H274673  -0.056   0.699   3.001 -0.4154 -0.2697 -0.0328
17728TIP3   OH274674   6.788   2.841  16.226 -0.0924  0.1451  0.1650
17728TIP3    H174675   6.873   2.829  16.268 -1.1258 -1.5616  1.9011
17728TIP3    H274676   6.802   2.813  16.136  1.4975  1.2517  0.0228
17729TIP3   OH274677   0.162   6.094   1.500  1.0362  0.0689 -0.2060
17729TIP3    H174678   0.196   6.184   1.500  1.3521 -0.0472  0.0795
17729TIP3    H274679   0.141   6.076   1.592  0.6296 -0.0246 -0.3124
17730TIP3   OH274680   6.764   2.022   3.320  0.5968 -0.1935 -0.3184
17730TIP3    H174681   6.678   2.064   3.327  0.8003  0.0624  0.8015
17730TIP3    H274682   6.748   1.930   3.342  0.2019 -0.6972 -2.4953
17731TIP3   OH274683   4.640   2.900  13.157 -0.1237 -0.0225 -0.4629
17731TIP3    H174684   4.612   2.825  13.104 -0.5744  0.1185 -0.4347
17731TIP3    H274685   4.709   2.865  13.214 -0.6085 -0.5165 -0.1645
17732TIP3   OH274686   3.562   2.731   1.020  0.0818 -0.2916  0.0237
17732TIP3    H174687   3.585   2.761   1.108  0.7197  1.0827 -0.5716
17732TIP3    H274688   3.539   2.639   1.031  1.0920 -0.4112  1.4766
17733TIP3   OH274689   0.088   2.985  12.253  0.0447  0.2944  0.1199
17733TIP3    H174690  -0.006   2.981  12.236  0.1583 -0.1330 -0.4417
17733TIP3    H274691   0.126   3.022  12.173  0.5965 -1.8020 -0.6388
17734TIP3   OH274692   5.113   1.170   3.154 -0.5620 -0.0193 -0.6011
17734TIP3    H174693   5.099   1.201   3.244  0.4387 -0.7466 -0.1732
17734TIP3    H274694   5.040   1.110   3.138 -0.1105 -0.8017  0.1781
17735TIP3   OH274695   5.076   2.680  16.597  0.4367  0.1537 -0.4225
17735TIP3    H174696   5.139   2.743  16.633  0.9045 -0.1400 -0.7140
17735TIP3    H274697   5.049   2.627  16.672  0.4271  0.3785 -0.2693
17736TIP3   OH274698   1.595   3.464   1.188 -0.2529  0.1499 -0.7330
17736TIP3    H174699   1.617   3.429   1.274 -0.4829 -0.1703 -0.8054
17736TIP3    H274700   1.568   3.389   1.137  0.4541  0.2497 -1.2764
17737TIP3   OH274701   6.010   3.773  16.441 -0.6100  0.2195 -0.7483
17737TIP3    H174702   5.959   3.697  16.414 -1.9196  1.0747 -0.7704
17737TIP3    H274703   5.996   3.778  16.536  2.6698 -1.8312  0.0009
17738TIP3   OH274704   5.623   5.493  15.730  0.1349  0.2138 -0.1966
17738TIP3    H174705   5.563   5.493  15.655  1.0084  0.5102 -0.9204
17738TIP3    H274706   5.588   5.561  15.788 -1.2793 -0.8937  0.2932
17739TIP3   OH274707   6.258   2.131   6.628  0.5073 -0.1468 -0.0156
17739TIP3    H174708   6.261   2.039   6.653  0.4144 -0.2344 -0.3286
17739TIP3    H274709   6.173   2.142   6.586  0.6810 -0.0066 -0.3297
17740TIP3   OH274710   4.078   3.649  15.362 -0.0486 -0.0379  0.3030
17740TIP3    H174711   4.067   3.737  15.326  1.0474 -0.3070 -0.7620
17740TIP3    H274712   4.050   3.657  15.454 -1.1048  1.1217 -0.0922
17741TIP3   OH274713   6.558   4.408  13.881 -0.0200  0.1916 -0.4451
17741TIP3    H174714   6.602   4.366  13.955 -0.6182 -1.0324 -0.7596
17741TIP3    H274715   6.485   4.455  13.921 -0.7446 -1.0187 -0.2966
17742TIP3   OH274716   0.320   1.898   0.173 -0.3480 -0.2393  0.0325
17742TIP3    H174717   0.379   1.840   0.221 -1.2780 -1.2310  0.0195
17742TIP3    H274718   0.328   1.982   0.217 -0.7553 -0.9783  1.5989
17743TIP3   OH274719   4.983   1.473  11.381  0.1100 -0.2269  0.2839
17743TIP3    H174720   4.968   1.384  11.351  1.4894 -0.6420  0.7562
17743TIP3    H274721   4.922   1.526  11.330  0.3630 -1.2465 -1.1450
17744TIP3   OH274722   4.713   3.229  16.507  0.8738  0.5365  0.7614
17744TIP3    H174723   4.643   3.260  16.565  1.7629  0.6462  1.8160
17744TIP3    H274724   4.738   3.144  16.542  0.0815 -0.3267 -0.6830
17745TIP3   OH274725   0.461   5.769  15.649  0.3218  0.2229  0.2350
17745TIP3    H174726   0.422   5.790  15.565  0.3095  2.8792  0.8381
17745TIP3    H274727   0.555   5.778  15.635  0.5120 -1.6068 -0.0140
17746TIP3   OH274728   5.824   0.088  13.101 -0.1425  0.2421  0.5324
17746TIP3    H174729   5.797   0.102  13.192  1.9094 -0.1075  1.2320
17746TIP3    H274730   5.864   0.001  13.101  1.3390  0.8911 -0.3209
17747TIP3   OH274731   3.830   1.564   1.404 -0.1526  0.0675 -0.9276
17747TIP3    H174732   3.751   1.552   1.458 -0.4485  0.9467 -1.1408
17747TIP3    H274733   3.875   1.480   1.408  0.1992  0.2970  1.2584
17748TIP3   OH274734   5.677   5.345   2.059 -0.1229  0.1843 -0.3555
17748TIP3    H174735   5.714   5.369   2.144  2.5780  1.9421 -1.8863
17748TIP3    H274736   5.614   5.414   2.039 -0.1047  0.2525 -0.1757
17749TIP3   OH274737   4.674   2.868   5.195 -0.1440  0.4951  0.1143
17749TIP3    H174738   4.665   2.813   5.117 -1.2190  0.2855  0.3792
17749TIP3    H274739   4.619   2.826   5.261  1.2120  0.3360  1.1845
17750TIP3   OH274740   1.086   5.379  15.218  0.1915 -0.3380  0.3660
17750TIP3    H174741   1.147   5.410  15.150  0.6538  1.2945  1.4623
17750TIP3    H274742   1.079   5.285  15.202  0.8405 -0.1178 -1.4950
17751TIP3   OH274743   0.124   5.148   3.487 -0.7339  0.0834 -0.7640
17751TIP3    H174744   0.071   5.069   3.494  0.1904 -0.5256 -0.4612
17751TIP3    H274745   0.211   5.122   3.519 -1.1210  1.9384  2.1810
17752TIP3   OH274746   5.942   4.785   1.830  0.1949 -0.0155 -0.0626
17752TIP3    H174747   5.865   4.791   1.887 -0.0233  2.0384 -0.4902
17752TIP3    H274748   6.003   4.730   1.879 -0.4690  0.6496  1.6175
17753TIP3   OH274749   2.204   5.532   3.635 -0.2398  0.0441 -1.0021
17753TIP3    H174750   2.213   5.627   3.648  1.1100 -0.2446  0.5871
17753TIP3    H274751   2.293   5.503   3.612 -0.9710 -0.6556 -3.1828
17754TIP3   OH274752   5.512   4.454  11.472  0.0226 -0.3413  0.1422
17754TIP3    H174753   5.482   4.545  11.466  0.2521 -0.0611  2.5094
17754TIP3    H274754   5.605   4.458  11.449 -0.1810 -0.1463 -0.6763
17755TIP3   OH274755   2.164   5.609   4.475 -0.7345  0.1159 -0.1412
17755TIP3    H174756   2.204   5.529   4.440 -0.7844 -0.3117  0.7613
17755TIP3    H274757   2.112   5.643   4.402 -3.0705 -2.2512  0.2445
17756TIP3   OH274758   1.177   1.537   1.982 -0.0361 -0.0477 -0.0944
17756TIP3    H174759   1.142   1.478   2.049 -1.6054  1.3063  0.3599
17756TIP3    H274760   1.262   1.564   2.017  1.2476 -2.8047 -0.8397
17757TIP3   OH274761   1.675   3.322   3.711  0.1618 -0.1537  0.0570
17757TIP3    H174762   1.707   3.401   3.670  1.4417 -0.5788  0.1972
17757TIP3    H274763   1.697   3.251   3.650 -0.7218 -0.4458  0.0540
17758TIP3   OH274764   5.702   2.072   4.202  0.4948  0.1721  0.1702
17758TIP3    H174765   5.606   2.071   4.206  0.4279  1.5732 -0.4672
17758TIP3    H274766   5.725   1.989   4.160 -0.5490  0.4101 -0.9511
17759TIP3   OH274767   0.208   2.930  14.378 -0.1349  0.5822 -0.0542
17759TIP3    H174768   0.222   2.853  14.323  0.3775  0.0017  0.8694
17759TIP3    H274769   0.281   2.929  14.440 -1.2038  0.6632  1.2593
17760TIP3   OH274770   4.662   3.119  16.250  0.7011 -0.1035  0.1269
17760TIP3    H174771   4.641   3.193  16.192  0.3460  0.0227  0.4122
17760TIP3    H274772   4.681   3.159  16.334 -4.1318 -0.4797  1.7007
17761TIP3   OH274773   1.539   3.249   5.706  0.0105  0.1296  1.0333
17761TIP3    H174774   1.609   3.198   5.665 -0.2162  1.4697 -1.2008
17761TIP3    H274775   1.578   3.283   5.786  2.2697  1.5263 -0.5518
17762TIP3   OH274776   0.582   3.004  17.275  0.0856  0.2727  0.0176
17762TIP3    H174777   0.560   2.974  17.363 -1.2407 -1.2776 -0.7991
17762TIP3    H274778   0.498   3.015  17.231  0.5538  3.7502 -0.2924
17763TIP3   OH274779   1.856   1.336  13.546 -0.3226  0.5419  0.0304
17763TIP3    H174780   1.861   1.313  13.639 -0.7558 -0.9789 -0.3004
17763TIP3    H274781   1.946   1.327  13.514  0.1769  2.6934  0.6086
17764TIP3   OH274782   1.259   1.768   4.938 -0.3960  0.0133 -0.2359
17764TIP3    H174783   1.222   1.688   4.899 -2.0684  0.7593 -0.2542
17764TIP3    H274784   1.210   1.839   4.896 -1.3294  0.9124  2.2094
17765TIP3   OH274785   2.350   3.421   3.876  0.0728  0.2930 -0.3952
17765TIP3    H174786   2.287   3.377   3.819  0.0965 -2.1869  1.3420
17765TIP3    H274787   2.428   3.433   3.822 -0.0382 -1.5970 -1.0309
17766TIP3   OH274788   5.192   4.199   5.665 -0.2294 -0.7441  0.1673
17766TIP3    H174789   5.217   4.130   5.603  1.1295 -0.4062  0.2907
17766TIP3    H274790   5.131   4.254   5.617  0.8166 -0.4769 -0.9000
17767TIP3   OH274791   5.354   1.102  16.116  0.6002  0.3220  0.3086
17767TIP3    H174792   5.310   1.127  16.035 -0.0231  0.1216  0.5742
17767TIP3    H274793   5.359   1.007  16.111 -0.0464  0.2555  0.8015
17768TIP3   OH274794   4.950   0.066   5.128  0.2412 -0.2988  0.9753
17768TIP3    H174795   5.000   0.148   5.127  0.9211 -0.6639 -0.9074
17768TIP3    H274796   4.859   0.093   5.134  0.4907  0.5742  0.9974
17769TIP3   OH274797   5.303   5.327  15.954  0.5063 -0.2930 -0.6413
17769TIP3    H174798   5.302   5.423  15.948  0.2058 -0.0985  1.6199
17769TIP3    H274799   5.361   5.309  16.028 -2.3033 -1.5994  1.4253
17770TIP3   OH274800   3.859   3.484  15.686  0.0392 -0.0060 -0.4860
17770TIP3    H174801   3.937   3.530  15.654 -0.5528  0.4021 -1.4074
17770TIP3    H274802   3.828   3.538  15.759  0.2405  0.1910 -0.5442
17771TIP3   OH274803   3.524   3.364   2.932 -0.3593 -0.4744 -0.7077
17771TIP3    H174804   3.534   3.451   2.971 -0.4592 -0.0878 -1.5136
17771TIP3    H274805   3.593   3.360   2.866  0.8837 -1.7600  0.5926
17772TIP3   OH274806   4.158   5.444   0.580  0.3132 -0.1016 -0.4046
17772TIP3    H174807   4.236   5.478   0.624  1.0688 -0.8172 -1.1586
17772TIP3    H274808   4.090   5.445   0.647  0.6852  1.5135 -0.0068
17773TIP3   OH274809   0.417   6.673   4.255  0.0650  0.2286  0.4399
17773TIP3    H174810   0.434   6.580   4.269 -2.0992 -0.4684 -0.9839
17773TIP3    H274811   0.359   6.698   4.327  1.5509  0.8353  1.4791
17774TIP3   OH274812   5.469   4.550   1.072 -0.9869 -0.1239  0.1673
17774TIP3    H174813   5.520   4.624   1.037  0.9146 -0.6493  1.6447
17774TIP3    H274814   5.393   4.591   1.113  0.0877  1.0794  1.0665
17775TIP3   OH274815   3.253   6.008  11.267  0.3955  0.1076  0.5563
17775TIP3    H174816   3.232   6.100  11.252 -3.0021 -0.4015  1.5193
17775TIP3    H274817   3.267   6.001  11.362  1.3860 -0.2778  0.3976
17776TIP3   OH274818   3.527   1.299   4.649 -0.0376  0.4801 -0.6243
17776TIP3    H174819   3.619   1.278   4.639 -0.1416  0.3202 -1.2722
17776TIP3    H274820   3.489   1.223   4.693  0.2641  0.8401  0.2883
17777TIP3   OH274821   3.000   1.395  15.935  0.3361  0.4949  0.3133
17777TIP3    H174822   2.957   1.441  15.864 -1.7545 -1.4396  0.1992
17777TIP3    H274823   3.091   1.385  15.906 -0.2983  0.3751 -1.7876
17778TIP3   OH274824   5.695   2.204  14.127 -0.0855 -0.2724 -0.1492
17778TIP3    H174825   5.654   2.121  14.104  0.4497 -0.5771 -0.0116
17778TIP3    H274826   5.783   2.199  14.089  0.0593  0.0983  0.1352
17779TIP3   OH274827   3.697   0.081   3.106  0.3374 -0.0623  0.1210
17779TIP3    H174828   3.751   0.093   3.184  0.5398  0.6446 -0.1204
17779TIP3    H274829   3.618   0.039   3.137  0.1996  0.6743  0.7963
17780TIP3   OH274830   3.994   4.897  16.374 -0.0098  0.0338 -0.7069
17780TIP3    H174831   3.924   4.914  16.312  0.4153  1.9507 -0.7161
17780TIP3    H274832   3.951   4.854  16.448 -1.2538  1.3041 -0.6502
17781TIP3   OH274833   4.736   6.054   5.172  0.0574 -0.7696 -0.1329
17781TIP3    H174834   4.726   5.963   5.145  0.7783 -0.7069 -0.6394
17781TIP3    H274835   4.734   6.104   5.091 -0.0772 -0.3541  0.1215
17782TIP3   OH274836   6.679   4.724   2.207  0.1283 -0.6823 -0.8009
17782TIP3    H174837   6.774   4.732   2.205  0.1129 -0.0685  0.2101
17782TIP3    H274838   6.660   4.645   2.155  1.0487  0.1440 -2.4771
17783TIP3   OH274839   6.024   6.617   2.193 -0.1499  0.0856  0.1401
17783TIP3    H174840   6.078   6.692   2.169  0.7075 -0.6995 -0.4408
17783TIP3    H274841   5.968   6.649   2.264  0.7373  1.0496  0.4204
17784TIP3   OH274842   6.662   4.141  12.529 -0.1938 -0.3990 -0.5228
17784TIP3    H174843   6.717   4.086  12.474  0.0898 -0.5159 -0.1302
17784TIP3    H274844   6.710   4.147  12.612 -0.3492  0.2200 -0.4727
17785TIP3   OH274845   3.779   5.043  16.256 -0.2350  0.2899  0.4891
17785TIP3    H174846   3.734   5.065  16.338 -0.3895  1.0762  0.1951
17785TIP3    H274847   3.766   5.119  16.200  0.5459  0.0790  0.0120
17786TIP3   OH274848   3.267   1.607   6.392  0.0692  0.2736  0.1585
17786TIP3    H174849   3.292   1.555   6.316  0.5961  0.8577 -0.0681
17786TIP3    H274850   3.350   1.636   6.430 -0.1673 -0.2106  1.1056
17787TIP3   OH274851   1.515   6.051  15.369 -0.1132 -0.6681 -0.2264
17787TIP3    H174852   1.538   6.061  15.277 -0.4869  0.9570 -0.1725
17787TIP3    H274853   1.485   5.960  15.376  2.6098 -1.7472 -1.0604
17788TIP3   OH274854   6.580   0.622  13.720  0.4794  0.5276  0.0391
17788TIP3    H174855   6.533   0.612  13.638 -0.0837  0.1572  0.4006
17788TIP3    H274856   6.524   0.678  13.774  0.6984  0.5096  0.2900
17789TIP3   OH274857   0.163   1.229  16.068  0.2045 -0.1849  0.1470
17789TIP3    H174858   0.116   1.166  16.014  0.4038  0.4151 -0.7762
17789TIP3    H274859   0.255   1.215  16.045  0.2306  0.5888 -0.2575
17790TIP3   OH274860   2.835   4.848  10.692  0.3110  0.2500 -0.2870
17790TIP3    H174861   2.781   4.909  10.641 -0.2821  0.0581  0.1100
17790TIP3    H274862   2.777   4.815  10.760  0.7321 -0.4838 -0.2708
17791TIP3   OH274863   5.756   2.914   2.598  0.4530  0.8463  1.0536
17791TIP3    H174864   5.847   2.907   2.624  0.5433 -0.0878  0.5070
17791TIP3    H274865   5.741   3.008   2.587  1.3291  1.0028  1.1754
17792TIP3   OH274866   4.753   1.503  12.532  0.1177 -0.0922 -0.0008
17792TIP3    H174867   4.799   1.534  12.610  0.3538  1.8844 -0.8720
17792TIP3    H274868   4.818   1.449  12.486  0.0314 -1.1289  1.0489
17793TIP3   OH274869   2.862   2.349  11.611 -0.5501 -0.2127 -0.1462
17793TIP3    H174870   2.784   2.310  11.650 -0.0708  0.2104  1.2979
17793TIP3    H274871   2.922   2.276  11.597  0.4709 -0.1062  2.8367
17794TIP3   OH274872   5.800   4.308  11.881 -0.3325 -0.1171  0.1503
17794TIP3    H174873   5.707   4.302  11.859  0.0037 -0.4359 -1.3209
17794TIP3    H274874   5.815   4.239  11.945 -0.8658 -0.9194 -0.5668
17795TIP3   OH274875   6.551   4.943   4.723  0.2719  0.0159  0.1767
17795TIP3    H174876   6.581   5.033   4.733 -1.0348  0.4853  0.0436
17795TIP3    H274877   6.518   4.939   4.633 -2.5302  0.3221  1.1031
17796TIP3   OH274878   6.219   2.959   0.929  0.4930  0.4852 -0.1812
17796TIP3    H174879   6.282   3.029   0.947  0.8509 -0.4743  2.8472
17796TIP3    H274880   6.161   2.995   0.863  3.0137  2.1365 -1.6601
17797TIP3   OH274881   5.826   4.972  14.495  0.2906  0.3746  0.6183
17797TIP3    H174882   5.743   4.938  14.527 -0.0854 -0.9325 -1.5461
17797TIP3    H274883   5.802   5.052  14.447  0.4929  0.8032  1.2173
17798TIP3   OH274884   4.165   1.356   6.446  0.2323  0.6001  0.3912
17798TIP3    H174885   4.071   1.341   6.439 -0.2331  1.4940  3.4259
17798TIP3    H274886   4.191   1.387   6.359 -2.7437  2.6214  0.0938
17799TIP3   OH274887   5.627   3.911   4.967  0.0285  0.1994  0.1738
17799TIP3    H174888   5.719   3.920   4.991  0.3726 -2.2388  0.0349
17799TIP3    H274889   5.625   3.838   4.906 -2.1156 -0.5285  1.0006
17800TIP3   OH274890   6.058   1.218  15.440  0.5101 -0.2696  0.1602
17800TIP3    H174891   6.050   1.262  15.355  1.3606  1.8038  1.0809
17800TIP3    H274892   6.091   1.286  15.499  1.3825 -2.0410  1.8263
17801TIP3   OH274893   1.036   0.215  15.647 -0.4080  0.4976  0.1133
17801TIP3    H174894   0.949   0.177  15.658  0.6819 -1.9665  1.2030
17801TIP3    H274895   1.096   0.146  15.678  1.9794  1.7333 -1.4412
17802TIP3   OH274896   4.916   1.903  12.042 -0.2534 -0.1221  0.0426
17802TIP3    H174897   4.880   1.841  12.105  0.5542  0.4942  1.1486
17802TIP3    H274898   4.937   1.851  11.965 -2.8697 -0.6078 -0.4165
17803TIP3   OH274899   3.308   5.581  15.236 -0.1699  0.3157  0.6492
17803TIP3    H174900   3.240   5.638  15.273 -0.6168  0.1023  0.1780
17803TIP3    H274901   3.357   5.550  15.312 -0.0147  1.2015  0.9250
17804TIP3   OH274902   5.927   6.306  13.785 -0.2412  0.3537 -0.0242
17804TIP3    H174903   5.911   6.295  13.691 -2.5832  0.3912  0.3034
17804TIP3    H274904   5.897   6.223  13.824  0.2478  0.5214  0.7290
17805TIP3   OH274905   4.350   0.765  12.216 -0.1968 -0.0806  0.1463
17805TIP3    H174906   4.332   0.859  12.224 -0.4829  0.1125 -2.0857
17805TIP3    H274907   4.445   0.758  12.221 -0.1433  0.3934 -0.1281
17806TIP3   OH274908   2.539   2.425   6.272  0.0966  0.2570 -0.4848
17806TIP3    H174909   2.463   2.385   6.230 -0.7586 -0.7086  1.8238
17806TIP3    H274910   2.523   2.519   6.264 -0.9732  0.0740 -0.6777
17807TIP3   OH274911   1.403   5.994  10.540  0.2303 -0.5723 -0.3975
17807TIP3    H174912   1.486   5.991  10.492  1.9010 -0.0837  2.2429
17807TIP3    H274913   1.381   6.087  10.544  0.2219 -0.5906 -0.0176
17808TIP3   OH274914   0.180   2.289   5.454 -0.4852 -0.0196 -0.2399
17808TIP3    H174915   0.169   2.196   5.431 -0.5643  0.1167 -0.7558
17808TIP3    H274916   0.139   2.297   5.540 -2.3765 -0.0173 -1.0996
17809TIP3   OH274917   5.283   5.057  12.514  0.1698  0.9884  0.5344
17809TIP3    H174918   5.265   5.065  12.607  1.4146  1.4571  0.7566
17809TIP3    H274919   5.292   5.147  12.483  2.9126  0.8620  0.6621
17810TIP3   OH274920   6.261   0.810   0.848  0.3936  0.2549 -0.6799
17810TIP3    H174921   6.339   0.824   0.902 -0.4675  2.0584  0.1878
17810TIP3    H274922   6.187   0.828   0.907 -0.5842  4.1695 -2.7318
17811TIP3   OH274923   6.673   0.981  11.756 -0.3160  0.1754 -0.0603
17811TIP3    H174924   6.615   1.015  11.825 -0.3106  0.6792 -0.2939
17811TIP3    H274925   6.755   1.029  11.767  0.1380 -0.6949  0.4054
17812TIP3   OH274926   1.222   4.395  12.036 -0.4707 -0.2046  0.4875
17812TIP3    H174927   1.262   4.311  12.015  0.2582  0.5199 -1.2103
17812TIP3    H274928   1.152   4.374  12.098  1.0514 -1.7809  1.7790
17813TIP3   OH274929   3.736   4.141  12.090  0.2921  0.1030 -0.1751
17813TIP3    H174930   3.746   4.048  12.068  0.7056  0.6359 -2.5698
17813TIP3    H274931   3.783   4.152  12.173  1.4195 -1.5848 -0.5436
17814TIP3   OH274932   2.421   1.150   5.448  0.5847  0.0639 -0.4370
17814TIP3    H174933   2.375   1.078   5.404 -1.0917  0.4328  0.6162
17814TIP3    H274934   2.513   1.123   5.448 -0.2278 -3.6619  2.5977
17815TIP3   OH274935   1.222   3.794  11.995  0.1259 -0.3939  0.4999
17815TIP3    H174936   1.227   3.815  11.902 -0.8885  0.4823  0.6193
17815TIP3    H274937   1.157   3.724  12.001 -0.2819 -0.0102  0.6045
17816TIP3   OH274938   6.604   1.720   3.637  0.1763  0.2139 -0.1711
17816TIP3    H174939   6.589   1.730   3.731  1.1211  0.6185 -0.0532
17816TIP3    H274940   6.543   1.781   3.596  1.2916  1.6916  0.2787
17817TIP3   OH274941   3.175   0.678  17.031 -0.2682 -0.0178 -0.6090
17817TIP3    H174942   3.123   0.750  16.994 -1.3681  0.1162  1.0991
17817TIP3    H274943   3.129   0.599  17.003 -1.3821  0.0960  0.7612
17818TIP3   OH274944   5.432   3.051  12.297  0.1079 -0.3936 -0.3767
17818TIP3    H174945   5.367   3.063  12.366 -1.5673 -0.3246 -1.8978
17818TIP3    H274946   5.447   3.139  12.262 -0.7344 -0.6826 -1.5282
17819TIP3   OH274947   6.257   2.622   4.893  0.3116  0.9602 -0.2491
17819TIP3    H174948   6.323   2.592   4.831  0.2575  0.7929 -0.2279
17819TIP3    H274949   6.203   2.684   4.843  0.9357  1.6733 -0.0551
17820TIP3   OH274950   0.312   3.840  15.290 -0.3753  0.0204  0.6353
17820TIP3    H174951   0.228   3.885  15.299 -0.4515 -0.1951  1.0824
17820TIP3    H274952   0.292   3.748  15.309 -0.5991 -0.6008 -2.1594
17821TIP3   OH274953   5.111   4.250   3.618  0.5294  0.4646 -0.6338
17821TIP3    H174954   5.205   4.241   3.627  0.3538 -0.3235  0.5683
17821TIP3    H274955   5.078   4.160   3.620 -0.3787  0.7959  0.7792
17822TIP3   OH274956   3.734   3.673  15.888 -0.1603  0.7206 -0.6009
17822TIP3    H174957   3.751   3.766  15.900  1.6487  0.1872  1.7109
17822TIP3    H274958   3.767   3.632  15.968 -1.9546 -1.8049 -1.0377
17823TIP3   OH274959   5.910   0.748  15.012 -0.2187  0.1896  0.0414
17823TIP3    H174960   5.991   0.721  14.969 -0.2585  2.2158 -1.4908
17823TIP3    H274961   5.841   0.728  14.948 -0.8104 -0.4257  0.8445
17824TIP3   OH274962   2.976   6.563  10.147 -0.3017 -0.1930  0.6922
17824TIP3    H174963   2.964   6.471  10.125  0.8729 -0.0682 -0.5450
17824TIP3    H274964   3.052   6.564  10.205  1.2552  0.1901 -1.2496
17825TIP3   OH274965   1.828   3.075   3.918  0.7866  0.4689  0.4363
17825TIP3    H174966   1.799   3.075   3.827  0.4430  0.9601  0.5391
17825TIP3    H274967   1.778   3.005   3.959  0.3459  0.7738  0.4253
17826TIP3   OH274968   5.384   0.602  15.194 -0.0061  0.2796  0.1488
17826TIP3    H174969   5.385   0.668  15.125  0.0407  0.2368  0.1089
17826TIP3    H274970   5.294   0.605  15.228 -0.0962  0.1346 -0.0726
17827TIP3   OH274971   5.990   5.473   3.901 -0.5395  0.2043  0.0117
17827TIP3    H174972   5.980   5.559   3.861 -0.1779  0.4557  0.4421
17827TIP3    H274973   6.085   5.459   3.903 -0.6041 -0.2659 -0.1835
17828TIP3   OH274974   5.316   1.367   5.077  0.1059 -0.0944  0.2137
17828TIP3    H174975   5.266   1.430   5.129  1.1268 -2.4526  4.5372
17828TIP3    H274976   5.408   1.389   5.095  0.4839 -1.5447  0.1939
17829TIP3   OH274977   2.559   6.684   3.342 -0.4969 -0.6772  0.6455
17829TIP3    H174978   2.554   6.739   3.420 -0.2663  0.5083 -0.1598
17829TIP3    H274979   2.632   6.624   3.360 -0.2371 -0.2046  1.2166
17830TIP3   OH274980   0.301   0.678   5.541 -0.4947 -0.3824  0.2037
17830TIP3    H174981   0.222   0.722   5.573 -0.3755  0.8031 -1.0096
17830TIP3    H274982   0.372   0.721   5.588 -0.4828 -0.3018  0.1151
17831TIP3   OH274983   0.601   1.752   6.378 -0.8419 -0.7792  0.6519
17831TIP3    H174984   0.668   1.800   6.329 -2.3451  0.3567 -0.3855
17831TIP3    H274985   0.636   1.746   6.466  0.0702  0.9734  0.4629
17832TIP3   OH274986   3.654   0.124   1.342  0.3997  0.0872  0.0715
17832TIP3    H174987   3.724   0.177   1.303  0.8719 -0.7577 -0.2530
17832TIP3    H274988   3.651   0.045   1.288 -0.0402 -0.3914  0.7777
17833TIP3   OH274989   6.007   2.892   6.012  0.1469  0.1478  0.1370
17833TIP3    H174990   6.043   2.819   6.061  0.0761  0.6328  0.9280
17833TIP3    H274991   6.033   2.970   6.062 -0.6310  0.5989 -0.1460
17834TIP3   OH274992   0.957   0.419   4.587 -0.5629  0.1160 -0.3938
17834TIP3    H174993   0.963   0.363   4.509 -0.5449 -0.2101 -0.1599
17834TIP3    H274994   0.955   0.508   4.552  3.0458  0.2286 -0.6541
17835TIP3   OH274995   2.998   5.645  16.322  0.1385 -0.3650  0.3052
17835TIP3    H174996   3.085   5.606  16.317 -0.1324 -0.8140 -1.6940
17835TIP3    H274997   3.011   5.736  16.295 -0.3382 -1.1152 -2.8639
17836TIP3   OH274998   5.280   4.952   3.824 -0.3794  0.3540 -0.2353
17836TIP3    H174999   5.303   4.873   3.775 -2.5624 -0.3909 -0.1517
17836TIP3    H275000   5.363   4.983   3.859  0.9295 -0.3771 -2.4925
17837TIP3   OH275001   0.572   4.229  14.813 -0.4759  0.5334 -0.1290
17837TIP3    H175002   0.511   4.302  14.827 -0.4467  0.6013 -0.3535
17837TIP3    H275003   0.570   4.180  14.896 -1.7864 -0.1708 -0.5404
17838TIP3   OH275004   3.841   5.082  16.728 -0.2145 -0.0186  0.0513
17838TIP3    H175005   3.838   4.992  16.759 -0.6017 -0.2689 -0.7013
17838TIP3    H275006   3.802   5.079  16.641 -0.9396  1.0014  0.3209
17839TIP3   OH275007   2.555   5.269   2.820  0.0208  0.4681 -0.8589
17839TIP3    H175008   2.639   5.248   2.780 -0.1570 -0.0058 -1.0000
17839TIP3    H275009   2.500   5.299   2.748 -0.1902 -0.0458 -0.9206
17840TIP3   OH275010   1.101   2.650   4.713 -0.1517  0.4798 -0.1124
17840TIP3    H175011   1.142   2.729   4.748  0.1828  1.2853 -2.2235
17840TIP3    H275012   1.008   2.663   4.726 -0.0525  0.8718  0.2226
17841TIP3   OH275013   2.712   2.289   4.057 -0.3805 -0.3602  0.1852
17841TIP3    H175014   2.783   2.226   4.048  0.6816  0.4319  2.3529
17841TIP3    H275015   2.648   2.246   4.114 -1.6407 -1.0052 -1.6249
17842TIP3   OH275016   0.647   0.118  12.441 -0.0590 -0.2318  0.0925
17842TIP3    H175017   0.684   0.190  12.390 -1.7153  0.6396  0.0405
17842TIP3    H275018   0.666   0.040  12.389 -0.2024  0.4351 -1.0091
17843TIP3   OH275019   0.528   5.895   6.041 -0.0760  0.5862  0.2450
17843TIP3    H175020   0.503   5.847   6.120 -1.1758  0.3724 -0.2284
17843TIP3    H275021   0.562   5.828   5.982 -1.2679  0.4341 -0.2761
17844TIP3   OH275022   0.810   6.117   6.073 -0.4346  0.3014  0.1364
17844TIP3    H175023   0.849   6.135   5.987 -2.6935 -0.9452 -1.2309
17844TIP3    H275024   0.877   6.066   6.119  1.0825  1.5543 -0.5793
17845TIP3   OH275025   5.134   3.227   2.296 -0.0542  0.0190  0.0305
17845TIP3    H175026   5.143   3.252   2.388  0.5150 -2.2781  0.6597
17845TIP3    H275027   5.217   3.253   2.255  0.5221 -0.8369  0.6507
17846TIP3   OH275028   5.703   0.415  10.372 -0.1108  0.5204 -0.1517
17846TIP3    H175029   5.750   0.442  10.451  0.0934  0.5752 -0.2933
17846TIP3    H275030   5.614   0.396  10.403  0.2997 -0.6954  0.3254
17847TIP3   OH275031   3.380   4.475   4.529 -0.1648 -0.1512  0.7167
17847TIP3    H175032   3.311   4.459   4.593 -0.1219 -0.2627  0.7367
17847TIP3    H275033   3.333   4.485   4.446 -0.4855  2.9570  1.1651
17848TIP3   OH275034   5.262   1.540   1.578  0.2279 -0.6907  0.1345
17848TIP3    H175035   5.232   1.453   1.602 -0.1359 -0.7033 -0.3477
17848TIP3    H275036   5.184   1.595   1.578  0.1056 -0.7979 -1.4408
17849TIP3   OH275037   0.556   1.508   3.346 -0.5434 -0.0523 -0.0881
17849TIP3    H175038   0.537   1.601   3.360 -0.0958  0.1405 -0.7009
17849TIP3    H275039   0.500   1.483   3.272  0.7518  0.2475 -1.2102
17850TIP3   OH275040   5.322   0.917   5.092 -0.3445  0.6525 -0.3008
17850TIP3    H175041   5.248   0.873   5.132  0.8697  0.5532  2.0439
17850TIP3    H275042   5.395   0.899   5.151  1.8060 -0.0284 -2.9758
17851TIP3   OH275043   0.182   0.741   1.288 -0.2558  0.2746 -0.4477
17851TIP3    H175044   0.100   0.693   1.281  0.6231 -1.5085  0.7393
17851TIP3    H275045   0.187   0.767   1.380  0.4094  0.5489 -0.5557
17852TIP3   OH275046   1.001   1.444   3.589 -0.5789 -0.2329  0.0685
17852TIP3    H175047   0.981   1.354   3.562  1.1549 -0.1635 -1.6713
17852TIP3    H275048   0.941   1.498   3.538  0.1936 -0.2839 -0.9039
17853TIP3   OH275049   4.187   1.256  13.967 -0.3652  0.2623 -0.4014
17853TIP3    H175050   4.175   1.212  14.051  1.2986  0.0231 -0.2630
17853TIP3    H275051   4.139   1.339  13.977 -0.8414 -0.1032  0.4857
17854TIP3   OH275052   6.119   1.047  17.272  0.1444 -0.6217  0.4742
17854TIP3    H175053   6.046   0.986  17.261  0.8564 -1.3144 -0.6085
17854TIP3    H275054   6.186   1.015  17.211  1.1445  0.3139  1.0534
17855TIP3   OH275055   1.173   6.271  13.205  0.2197  0.1671 -0.5304
17855TIP3    H175056   1.201   6.347  13.153 -0.2008  0.2399 -0.6552
17855TIP3    H275057   1.225   6.277  13.286  0.5996  0.2667 -0.7802
17856TIP3   OH275058   6.529   1.694   1.549  0.1824  0.4275  0.1489
17856TIP3    H175059   6.540   1.600   1.534  2.6506  0.8536 -1.4100
17856TIP3    H275060   6.464   1.722   1.485  0.5639 -0.0052 -0.4377
17857TIP3   OH275061   0.386   0.656   5.034  0.7228 -0.3719 -0.6329
17857TIP3    H175062   0.421   0.701   5.111  1.3327 -0.5439 -0.8007
17857TIP3    H275063   0.389   0.722   4.965 -1.1583  0.2231 -0.1944
17858TIP3   OH275064   3.776   4.824   5.045  0.1671  0.6707 -0.2527
17858TIP3    H175065   3.753   4.906   5.001 -3.1258  0.0393  0.0410
17858TIP3    H275066   3.727   4.826   5.127 -0.6914 -1.9040 -0.6058
17859TIP3   OH275067   6.009   1.722   0.448  0.9096 -0.6820 -0.1251
17859TIP3    H175068   6.018   1.791   0.514  1.5544 -1.3744  0.5375
17859TIP3    H275069   6.083   1.663   0.465 -0.2719 -2.1660  0.0839
17860TIP3   OH275070   1.928   5.563   5.564 -0.4519 -0.3955 -0.1042
17860TIP3    H175071   1.939   5.651   5.601 -1.0830 -0.3275 -0.0612
17860TIP3    H275072   1.901   5.579   5.473  0.7032 -0.5604 -0.4927
17861TIP3   OH275073   1.020   0.442   3.059  0.3622  0.3097  0.3243
17861TIP3    H175074   1.104   0.413   3.095  0.5572 -0.0014 -0.3598
17861TIP3    H275075   0.964   0.365   3.062  0.2833  0.3627  0.2366
17862TIP3   OH275076   4.516   0.427  12.762 -0.5659  0.5331  0.1628
17862TIP3    H175077   4.525   0.509  12.714  1.7749  0.5004  0.4232
17862TIP3    H275078   4.456   0.447  12.834  0.3601  2.1996  0.5129
17863TIP3   OH275079   2.025   4.456  12.710  0.1250 -0.0891 -0.0893
17863TIP3    H175080   2.021   4.393  12.638 -1.9972 -0.1847  0.0569
17863TIP3    H275081   1.959   4.522  12.689  0.0093  0.3022  1.3635
17864TIP3   OH275082   3.653   2.409   0.396  0.1751  0.1380 -0.3207
17864TIP3    H175083   3.651   2.456   0.479 -1.0776 -0.1264 -0.1848
17864TIP3    H275084   3.717   2.338   0.411 -1.6044 -1.2476  1.2030
17865TIP3   OH275085   4.365   6.819  15.270  0.6200 -0.3263 -0.2489
17865TIP3    H175086   4.339   6.890  15.211  2.5526 -0.2079 -1.0206
17865TIP3    H275087   4.290   6.809  15.329 -0.4550  1.0797 -1.2998
17866TIP3   OH275088   1.084   1.723   4.170  0.0518 -0.6047 -0.6586
17866TIP3    H175089   1.160   1.753   4.121 -0.1990 -0.0336 -0.7046
17866TIP3    H275090   1.111   1.639   4.208  1.2563  0.3061  0.6173
17867TIP3   OH275091   3.198   3.267  15.870 -0.4720 -0.0890 -0.1805
17867TIP3    H175092   3.215   3.173  15.860 -0.2605  0.0991 -1.9424
17867TIP3    H275093   3.245   3.291  15.949 -0.5181 -1.4670  0.3012
17868TIP3   OH275094   1.883   4.943  12.862  0.2627 -0.1264 -0.1229
17868TIP3    H175095   1.848   5.013  12.918 -1.3985 -0.5589 -0.5516
17868TIP3    H275096   1.880   4.865  12.917  1.9847  0.0805  0.3104
17869TIP3   OH275097   1.793   4.974  16.929 -0.5595  0.0029  0.1082
17869TIP3    H175098   1.819   5.016  16.847  0.8652  0.7025  0.8778
17869TIP3    H275099   1.716   5.022  16.957 -0.1506  0.7753 -0.0630
17870TIP3   OH275100   0.871   3.345  12.472  0.0353 -0.5104  0.3146
17870TIP3    H175101   0.780   3.315  12.475 -0.0856 -0.0564  1.7186
17870TIP3    H275102   0.903   3.313  12.387 -1.6290 -0.0533 -0.5425
17871TIP3   OH275103   2.189   5.032  12.485 -0.0511 -0.3289  0.3996
17871TIP3    H175104   2.176   5.006  12.394  0.0142  0.5359  0.1363
17871TIP3    H275105   2.171   4.953  12.535 -0.3173 -0.7527 -0.3524
17872TIP3   OH275106   6.687   2.353   1.838 -0.7225  0.1170  0.4820
17872TIP3    H175107   6.751   2.377   1.904 -0.4275 -0.1435  0.2935
17872TIP3    H275108   6.650   2.436   1.808  0.3473  0.3556 -0.2250
17873TIP3   OH275109   4.377   4.712  12.753 -0.0061 -0.5516 -0.0484
17873TIP3    H175110   4.473   4.717  12.749 -0.0586  1.1833 -0.0610
17873TIP3    H275111   4.358   4.703  12.846  0.1592 -1.1015 -0.0615
17874TIP3   OH275112   5.633   0.100  15.741 -0.0510 -0.5794 -0.2390
17874TIP3    H175113   5.572   0.144  15.801  2.0617  1.5342  0.5072
17874TIP3    H275114   5.638   0.010  15.773  0.5827  0.3308  2.4993
17875TIP3   OH275115   3.881   1.405   2.517  0.2132 -0.4509 -0.5046
17875TIP3    H175116   3.951   1.396   2.453 -0.5098  0.0661 -1.3900
17875TIP3    H275117   3.826   1.476   2.484  0.4285  0.6071  1.2756
17876TIP3   OH275118   2.260   2.596   3.152 -0.0392 -0.1929  0.1248
17876TIP3    H175119   2.244   2.690   3.166 -0.8137 -0.2127 -0.5409
17876TIP3    H275120   2.274   2.588   3.057 -0.7844 -0.8555  0.0603
17877TIP3   OH275121   0.442   6.391   3.538  0.0120 -0.1922  0.4053
17877TIP3    H175122   0.433   6.316   3.480 -1.2026  0.3829 -0.1759
17877TIP3    H275123   0.428   6.467   3.482  0.1701  0.4289  1.1858
17878TIP3   OH275124   5.440   4.217  10.923  0.1507  0.7492 -0.7215
17878TIP3    H175125   5.503   4.165  10.873  0.3066  1.1374 -0.9299
17878TIP3    H275126   5.493   4.267  10.985  0.4741  3.6164 -3.0640
17879TIP3   OH275127   3.974   5.912   5.487  0.7942  0.2551 -0.2933
17879TIP3    H175128   3.978   5.959   5.403 -3.4381  1.4886 -0.0166
17879TIP3    H275129   3.919   5.836   5.469  1.3370 -0.4840  1.0353
17880TIP3   OH275130   5.562   6.314   2.582 -0.1237  0.0217  0.2460
17880TIP3    H175131   5.507   6.256   2.529 -0.0999 -0.0888  0.3423
17880TIP3    H275132   5.508   6.334   2.659  0.1503 -0.4706  0.5739
17881TIP3   OH275133   0.119   5.792   1.722  0.2373  0.0798 -0.3462
17881TIP3    H175134   0.051   5.726   1.737 -2.1721  2.8511  1.9385
17881TIP3    H275135   0.188   5.769   1.785 -0.2005 -0.6660 -0.1175
17882TIP3   OH275136   4.230   4.455   1.962 -0.3443  0.1195 -0.5023
17882TIP3    H175137   4.186   4.373   1.984 -0.7600 -0.0126 -1.7862
17882TIP3    H275138   4.160   4.511   1.928  0.5844 -0.4639 -3.6431
17883TIP3   OH275139   2.040   1.329   5.714  0.2463  0.5629 -0.1695
17883TIP3    H175140   2.013   1.325   5.806 -1.1909 -0.3002 -0.5994
17883TIP3    H275141   2.091   1.249   5.701 -1.3470 -0.4351 -0.6189
17884TIP3   OH275142   4.684   0.926   1.812 -0.6180  0.2211  0.4610
17884TIP3    H175143   4.627   0.993   1.775 -1.6634  0.3280  2.1283
17884TIP3    H275144   4.628   0.849   1.822  0.5095 -0.8758 -1.2184
17885TIP3   OH275145   6.329   3.727   4.347  0.0748  0.4063 -0.5428
17885TIP3    H175146   6.379   3.742   4.266  1.7242  0.6820  0.4888
17885TIP3    H275147   6.309   3.815   4.379  0.9784  0.3505  0.2395
17886TIP3   OH275148   4.441   4.558  10.803  1.0897 -0.3782  0.6716
17886TIP3    H175149   4.530   4.527  10.787  1.1901  0.0725  0.3374
17886TIP3    H275150   4.391   4.479  10.822  1.2866 -0.7840 -0.4240
17887TIP3   OH275151   2.030   3.334   3.392  0.0698 -0.1510  0.0117
17887TIP3    H175152   2.114   3.308   3.431 -0.9420 -2.3504  0.9166
17887TIP3    H275153   2.045   3.329   3.298  0.7542 -1.2562  0.1636
17888TIP3   OH275154   4.924   5.060  12.161  0.2609  0.4070  0.3194
17888TIP3    H175155   4.938   5.051  12.067 -1.7504 -0.9957  0.0839
17888TIP3    H275156   4.851   5.121  12.169  0.9139  1.1169  1.0244
17889TIP3   OH275157   2.030   3.027   5.709 -0.1316 -0.1857  0.4545
17889TIP3    H175158   2.109   3.046   5.659  0.7157  1.2429  2.1944
17889TIP3    H275159   2.043   2.937   5.741 -0.7856 -1.1946 -1.9328
17890TIP3   OH275160   6.201   4.306   2.295  0.1553 -0.1536 -0.0566
17890TIP3    H175161   6.196   4.315   2.199 -0.0119  0.1473 -0.0204
17890TIP3    H275162   6.295   4.309   2.314  0.1694  0.1838 -0.1748
17891TIP3   OH275163   4.504   6.104   0.734  0.3317 -0.7150 -0.6748
17891TIP3    H175164   4.536   6.064   0.815  0.3272  0.1344 -0.2422
17891TIP3    H275165   4.554   6.186   0.726 -0.8027  0.0100 -0.6586
17892TIP3   OH275166   6.183   4.301  14.106 -0.2778  0.1715  0.6006
17892TIP3    H175167   6.172   4.308  14.201  1.3557 -2.4406  1.0969
17892TIP3    H275168   6.273   4.329  14.090 -0.7483  1.2090 -0.3025
17893TIP3   OH275169   4.638   4.462   0.222 -0.0645 -0.1377  0.2629
17893TIP3    H175170   4.723   4.422   0.204 -0.5643 -0.5741 -1.2869
17893TIP3    H275171   4.646   4.496   0.311  1.2847 -1.3202  0.6354
17894TIP3   OH275172   6.723   3.993   3.876  0.2670  0.0027 -0.7723
17894TIP3    H175173   6.724   3.905   3.838  1.0814 -0.2136 -0.2666
17894TIP3    H275174   6.671   4.045   3.814  0.1646 -0.7263 -1.3114
17895TIP3   OH275175   5.385   0.926  10.993 -0.3164  0.4077  0.0221
17895TIP3    H175176   5.445   0.929  10.918 -0.0016  2.2191  0.3045
17895TIP3    H275177   5.316   0.866  10.966  1.2964 -1.2915 -0.5491
17896TIP3   OH275178   0.900   5.503   3.902  0.2272  0.1123  0.0084
17896TIP3    H175179   0.895   5.413   3.869  2.1010 -0.5610  1.3828
17896TIP3    H275180   0.931   5.554   3.828  1.4375 -0.8269 -0.1644
17897TIP3   OH275181   3.621   4.751   6.415  0.2213  0.1522 -0.1901
17897TIP3    H175182   3.709   4.776   6.388  0.2488 -0.0760 -0.3194
17897TIP3    H275183   3.634   4.669   6.464  0.0019 -0.3267 -0.9123
17898TIP3   OH275184   6.021   5.583  11.953 -0.0046 -0.3340  0.3154
17898TIP3    H175185   5.985   5.669  11.929  1.5148  0.0677 -0.6242
17898TIP3    H275186   6.095   5.570  11.893 -0.3816 -2.4475  0.2234
17899TIP3   OH275187   6.793   3.077   0.615  0.0799 -0.1575  0.0790
17899TIP3    H175188   6.752   2.990   0.613 -0.2813  0.0237 -1.0330
17899TIP3    H275189   6.809   3.098   0.523 -0.7043  1.3603  0.2633
17900TIP3   OH275190   4.286   2.394   4.762 -0.5804 -0.0870 -0.1097
17900TIP3    H175191   4.315   2.468   4.816 -1.4305  0.8964 -0.9655
17900TIP3    H275192   4.333   2.319   4.798  1.0872  1.0210  0.1471
17901TIP3   OH275193   0.591   4.873   4.071  0.4315 -0.1351  1.0912
17901TIP3    H175194   0.587   4.931   4.147  1.9255  1.6268 -0.0940
17901TIP3    H275195   0.499   4.859   4.047  0.0146  1.4425  1.6582
17902TIP3   OH275196   4.057   6.576  15.249 -0.0055 -0.4187  0.0040
17902TIP3    H175197   4.151   6.570  15.266  0.5584 -1.4687 -2.8934
17902TIP3    H275198   4.034   6.491  15.212 -1.4563  0.7464 -1.9452
17903TIP3   OH275199   3.386   5.914   1.319 -0.5671 -0.1934  0.6475
17903TIP3    H175200   3.301   5.958   1.317 -0.2248  0.5308  1.5559
17903TIP3    H275201   3.425   5.940   1.402  1.3960  1.1161 -0.5862
17904TIP3   OH275202   2.473   4.272  16.011  0.3306  0.0917 -0.2304
17904TIP3    H175203   2.556   4.276  16.058  0.3869  0.4953 -0.3631
17904TIP3    H275204   2.464   4.180  15.985  0.2033 -0.1797  0.7279
17905TIP3   OH275205   4.126   1.786  15.681  0.2195  0.9639 -0.5488
17905TIP3    H175206   4.124   1.691  15.674 -0.0894  0.8864  0.4872
17905TIP3    H275207   4.134   1.803  15.775 -0.1889  1.9695 -0.6879
17906TIP3   OH275208   5.573   6.378  15.699 -0.5134  0.6000  0.5138
17906TIP3    H175209   5.526   6.426  15.767  2.4483  1.0655  2.4158
17906TIP3    H275210   5.665   6.378  15.728  0.5828 -0.9924 -2.4773
17907TIP3   OH275211   2.675   1.543  11.015  0.1552  0.2932 -1.1202
17907TIP3    H175212   2.659   1.464  10.963  0.6261 -0.3124 -0.3681
17907TIP3    H275213   2.754   1.523  11.065 -0.2952  0.8489 -0.1616
17908TIP3   OH275214   1.542   2.802   4.624 -0.3523  0.0126  0.0153
17908TIP3    H175215   1.496   2.864   4.681 -0.6173 -0.6975  0.5851
17908TIP3    H275216   1.511   2.716   4.652  0.6895 -0.4346 -0.1559
17909TIP3   OH275217   0.323   3.953  12.053 -0.5473  0.0375 -0.0533
17909TIP3    H175218   0.319   4.016  12.125 -0.8535  0.2396 -0.2452
17909TIP3    H275219   0.242   3.966  12.004 -2.7126 -3.3358  2.2375
17910TIP3   OH275220   4.240   3.497   0.873 -0.8697  0.0075  0.1239
17910TIP3    H175221   4.295   3.558   0.824  0.2348 -0.6428  0.5126
17910TIP3    H275222   4.234   3.536   0.961  0.4919 -0.7820  0.6061
17911TIP3   OH275223   5.896   0.250   4.798  0.6650  0.0205 -1.1442
17911TIP3    H175224   5.909   0.233   4.891 -1.8193  1.2244 -0.4989
17911TIP3    H275225   5.941   0.332   4.782 -0.1703  0.5977 -0.6051
17912TIP3   OH275226   4.249   4.022   0.446  0.0338  0.1299  0.0702
17912TIP3    H175227   4.163   4.064   0.448  0.4067  1.1207 -1.9451
17912TIP3    H275228   4.237   3.945   0.391  0.2841 -0.1409  0.3898
17913TIP3   OH275229   4.483   6.757  10.231 -0.3040  0.1731 -0.3137
17913TIP3    H175230   4.453   6.672  10.200 -3.2730  0.5717  1.0329
17913TIP3    H275231   4.500   6.744  10.324  0.9516  0.6792 -0.4587
17914TIP3   OH275232   0.729   6.441   3.604  0.2455 -0.2207  0.0502
17914TIP3    H175233   0.792   6.438   3.531 -0.0288  1.3619 -0.2871
17914TIP3    H275234   0.643   6.436   3.562  0.1013 -1.7748  0.4701
17915TIP3   OH275235   2.117   5.854   1.226 -0.3444 -0.1982 -0.6928
17915TIP3    H175236   2.022   5.868   1.223 -0.2623  0.3303 -0.9025
17915TIP3    H275237   2.145   5.899   1.306 -0.4720 -1.6407  0.1931
17916TIP3   OH275238   1.849   3.113  15.469  0.2126  0.8946  0.5065
17916TIP3    H175239   1.937   3.082  15.448 -0.3280 -0.9558  0.7285
17916TIP3    H275240   1.803   3.115  15.385  0.2829  1.2214  0.4758
17917TIP3   OH275241   4.490   5.282  14.742  0.0080  0.1003  0.1011
17917TIP3    H175242   4.569   5.301  14.691 -0.4524  0.2661 -0.5556
17917TIP3    H275243   4.424   5.260  14.677 -0.4322 -0.2616  0.6613
17918TIP3   OH275244   3.958   0.609   1.834  0.2540 -0.5370  0.1553
17918TIP3    H175245   3.904   0.649   1.902 -1.0285  0.5795 -1.4514
17918TIP3    H275246   3.896   0.580   1.768  1.4407 -1.9640 -0.3912
17919TIP3   OH275247   4.597   4.318   5.367 -0.6767 -0.3256  0.1016
17919TIP3    H175248   4.624   4.287   5.280  1.1092 -1.6895  1.0880
17919TIP3    H275249   4.648   4.398   5.381 -2.4353  1.0471 -0.8499
17920TIP3   OH275250   6.316   0.261   4.611  0.0424  0.0240 -0.5064
17920TIP3    H175251   6.306   0.179   4.659 -0.3378 -0.3848 -1.2502
17920TIP3    H275252   6.396   0.300   4.645 -0.1593 -0.3076  0.3598
17921TIP3   OH275253   0.553   1.523   2.848 -0.3493  0.0666 -0.1973
17921TIP3    H175254   0.639   1.539   2.808  0.1777 -0.9550  0.4865
17921TIP3    H275255   0.504   1.475   2.781 -0.0504 -0.1957 -0.2261
17922TIP3   OH275256   5.211   1.824  13.562 -0.0073  0.3082  0.1168
17922TIP3    H175257   5.124   1.863  13.552  0.7577  1.7772 -1.2508
17922TIP3    H275258   5.193   1.734  13.591 -1.9465  0.7371  0.4146
17923TIP3   OH275259   5.390   5.858  14.667  0.1855  0.1746 -0.5673
17923TIP3    H175260   5.348   5.837  14.583 -1.1688 -0.6784  0.2729
17923TIP3    H275261   5.345   5.938  14.696  1.4107  1.0939 -1.1349
17924TIP3   OH275262   3.865   5.228  12.487  0.2522  0.5679  0.3175
17924TIP3    H175263   3.792   5.227  12.549  0.3841  0.1655  0.4677
17924TIP3    H275264   3.838   5.170  12.416  0.3332  0.5909  0.2680
17925TIP3   OH275265   3.873   2.194  11.744  0.3923  0.2305 -0.5218
17925TIP3    H175266   3.965   2.171  11.730  0.3230 -0.6662  0.3765
17925TIP3    H275267   3.828   2.110  11.749 -0.9444  0.6180 -3.6103
17926TIP3   OH275268   6.362   6.105   2.617 -0.3931  0.4505  0.0710
17926TIP3    H175269   6.438   6.148   2.657  0.0093 -0.1214 -0.0701
17926TIP3    H275270   6.287   6.158   2.644  0.0410  0.9298  0.3397
17927TIP3   OH275271   2.038   5.804   1.756 -0.1600 -0.4741  0.1600
17927TIP3    H175272   2.044   5.731   1.694  1.2846 -0.0737 -0.2075
17927TIP3    H275273   1.962   5.855   1.725 -0.7643 -1.4302  0.0190
17928TIP3   OH275274   0.721   5.924   3.130  0.1626  0.1355 -0.0222
17928TIP3    H175275   0.757   5.869   3.060 -2.1639 -2.3685  0.6095
17928TIP3    H275276   0.799   5.956   3.176  1.7000 -2.2348 -0.7419
17929TIP3   OH275277   4.009   5.820  14.086  0.3500 -0.9463  0.5697
17929TIP3    H175278   4.049   5.745  14.129 -0.0971 -0.6823  1.4780
17929TIP3    H275279   3.925   5.832  14.131  0.0732 -0.3774 -0.0746
17930TIP3   OH275280   1.350   1.739  13.753 -0.1631 -0.0537 -0.0649
17930TIP3    H175281   1.379   1.810  13.695  1.6100 -0.3004  0.4489
17930TIP3    H275282   1.312   1.674  13.694  0.1410  0.3996 -0.7772
17931TIP3   OH275283   2.061   3.748  11.606  0.0752 -0.4654  1.1115
17931TIP3    H175284   1.993   3.689  11.637 -0.7107  0.6189  1.5249
17931TIP3    H275285   2.136   3.729  11.662 -0.4665 -0.4189  1.8716
17932TIP3   OH275286   0.297   4.261   2.197 -0.0700 -0.1700  0.1538
17932TIP3    H175287   0.238   4.279   2.124 -0.8680 -1.2574  0.5036
17932TIP3    H275288   0.305   4.166   2.199  1.6936 -0.0623  0.1438
17933TIP3   OH275289   0.478   0.163  11.103  0.6949  0.1584 -0.1703
17933TIP3    H175290   0.535   0.240  11.108  0.8251 -0.0072  1.4375
17933TIP3    H275291   0.484   0.123  11.190 -0.3340 -0.9828 -0.5926
17934TIP3   OH275292   4.328   6.277  14.196  0.0289 -0.0104 -0.2064
17934TIP3    H175293   4.402   6.284  14.137 -0.8312 -0.6071 -1.4031
17934TIP3    H275294   4.355   6.213  14.262  1.4971  1.6341  0.8874
17935TIP3   OH275295   1.029   1.893   0.521 -0.4598 -0.0203 -0.4210
17935TIP3    H175296   0.980   1.975   0.524  2.3413  1.7784  0.8502
17935TIP3    H275297   0.990   1.840   0.591 -2.4271  0.0782 -1.3726
17936TIP3   OH275298   1.487   3.384  14.970  0.0717 -0.3938  0.1438
17936TIP3    H175299   1.568   3.344  14.938  0.7985  0.3220  1.0483
17936TIP3    H275300   1.453   3.322  15.034 -0.5151 -1.0499 -0.7748
17937TIP3   OH275301   3.163   4.323  13.263  0.3433  0.3221  0.1147
17937TIP3    H175302   3.192   4.232  13.261  1.1660  0.5567  0.8956
17937TIP3    H275303   3.243   4.375  13.264 -0.1064  1.0383  0.3879
17938TIP3   OH275304   3.122   1.785  15.843  0.6453  0.1121  0.8400
17938TIP3    H175305   3.117   1.702  15.795  0.3244  0.6371 -0.0571
17938TIP3    H275306   3.030   1.811  15.855  0.7365  0.2220  1.3487
17939TIP3   OH275307   0.822   4.542  13.794  0.1638 -0.1301 -0.6596
17939TIP3    H175308   0.875   4.481  13.742  1.4865  0.5176 -0.1055
17939TIP3    H275309   0.871   4.553  13.876 -1.2977 -0.2284  0.2629
17940TIP3   OH275310   0.521   3.866   1.835 -0.7749 -0.4743 -0.3154
17940TIP3    H175311   0.467   3.837   1.762  0.9664 -1.3545 -1.3348
17940TIP3    H275312   0.562   3.947   1.803 -2.2828  0.8263  0.8742
17941TIP3   OH275313   3.639   2.018   4.318 -0.1011 -0.0168 -0.5221
17941TIP3    H175314   3.584   1.970   4.380 -0.2277 -1.0624 -1.4109
17941TIP3    H275315   3.708   2.055   4.372  0.7625 -2.3147  0.0961
17942TIP3   OH275316   2.489   0.398  16.615 -0.1890 -0.0181  0.1825
17942TIP3    H175317   2.413   0.360  16.571  0.2218 -0.7520  0.0895
17942TIP3    H275318   2.463   0.488  16.634 -0.1969  0.5225 -2.0537
17943TIP3   OH275319   1.807   4.258   0.568  0.3197  0.5861 -0.2746
17943TIP3    H175320   1.860   4.329   0.605  1.7497  0.3486 -1.7531
17943TIP3    H275321   1.736   4.246   0.630  3.3495 -0.8426  3.3147
17944TIP3   OH275322   5.352   3.917  12.960 -0.7791 -0.7598 -0.1038
17944TIP3    H175323   5.427   3.957  13.004 -0.5809  0.6137 -1.5989
17944TIP3    H275324   5.383   3.899  12.872 -1.7535 -1.6376 -0.2831
17945TIP3   OH275325   4.790   0.093  10.491  0.0231  0.4659 -0.2844
17945TIP3    H175326   4.728   0.028  10.459  1.0398 -0.0432 -1.2901
17945TIP3    H275327   4.804   0.152  10.417 -0.9696  1.9423  0.6459
17946TIP3   OH275328   6.707   5.528   3.324  0.6533  0.2412 -0.1151
17946TIP3    H175329   6.624   5.505   3.281  2.5861 -0.9752 -3.6418
17946TIP3    H275330   6.736   5.447   3.364 -1.2996  1.4452  4.3236
17947TIP3   OH275331   4.717   5.476   0.904  0.0601  0.5048  0.3070
17947TIP3    H175332   4.769   5.517   0.835 -2.1387 -0.6991 -2.2691
17947TIP3    H275333   4.656   5.544   0.933 -0.6135  0.3619 -0.7334
17948TIP3   OH275334   0.117   5.401   0.883  0.4432 -0.5057 -0.0499
17948TIP3    H175335   0.059   5.435   0.815  1.9500  0.6909 -0.8042
17948TIP3    H275336   0.086   5.312   0.899 -0.4614 -0.5276 -1.7241
17949TIP3   OH275337   4.302   5.863  11.536  0.2828 -0.1940  0.0973
17949TIP3    H175338   4.385   5.832  11.500  0.6176  1.8255 -0.9931
17949TIP3    H275339   4.325   5.943  11.584 -1.1214  0.8438 -0.8965
17950TIP3   OH275340   6.808   3.315  11.346 -0.3415 -0.5294  0.0501
17950TIP3    H175341   6.717   3.288  11.357 -0.6727  0.5897  0.1893
17950TIP3    H275342   6.823   3.378  11.417 -0.0575  0.7617 -1.1083
17951TIP3   OH275343   5.606   6.310   6.183  0.3277 -0.0322 -0.5682
17951TIP3    H175344   5.611   6.216   6.200  0.7745 -0.3162 -2.1483
17951TIP3    H275345   5.645   6.350   6.260 -2.2282 -0.9811  1.3966
17952TIP3   OH275346   0.297   1.099   3.547  0.4252  0.1173  0.2099
17952TIP3    H175347   0.305   1.152   3.626  1.9423 -0.6959  0.6583
17952TIP3    H275348   0.286   1.009   3.580  0.1660 -0.1222 -0.5119
17953TIP3   OH275349   2.190   0.589  13.423 -0.0120 -0.4588  0.0845
17953TIP3    H175350   2.123   0.590  13.492 -1.1661  0.0461 -1.0206
17953TIP3    H275351   2.246   0.664  13.444  0.4044 -1.0600  1.1886
17954TIP3   OH275352   3.448   5.612   4.824  0.4956 -0.7131  0.0528
17954TIP3    H175353   3.372   5.656   4.786  0.4211 -1.2888 -0.4720
17954TIP3    H275354   3.412   5.559   4.896  0.4462 -0.7189  0.0239
17955TIP3   OH275355   4.574   3.053  11.885  0.0044 -0.0215 -0.1993
17955TIP3    H175356   4.549   2.973  11.838 -1.2240  0.8448 -1.0848
17955TIP3    H275357   4.498   3.072  11.940  1.2340 -0.7488  1.8369
17956TIP3   OH275358   2.496   6.418  15.681 -0.5569  0.0904  0.1213
17956TIP3    H175359   2.567   6.465  15.637 -0.6471 -0.6683 -0.8768
17956TIP3    H275360   2.432   6.400  15.613 -1.3626  0.0955  0.8564
17957TIP3   OH275361   6.515   4.721   0.472  0.4843  0.4627  0.1553
17957TIP3    H175362   6.506   4.697   0.380 -0.6509  0.6879  0.2020
17957TIP3    H275363   6.566   4.803   0.470 -0.6917  1.2064 -0.3746
17958TIP3   OH275364   3.484   6.173   5.693 -0.0767  0.0989  0.2932
17958TIP3    H175365   3.428   6.246   5.719  0.9132  1.6283 -1.5683
17958TIP3    H275366   3.569   6.214   5.674  0.7199 -1.6516 -0.1172
17959TIP3   OH275367   0.511   2.173   2.630 -0.2055 -0.3231 -0.1806
17959TIP3    H175368   0.441   2.219   2.584 -0.2420 -0.9442 -0.7636
17959TIP3    H275369   0.573   2.242   2.655 -0.7345  0.1548 -0.1795
17960TIP3   OH275370   0.912   2.250  17.056  0.2457  0.9574 -0.1955
17960TIP3    H175371   0.904   2.321  17.120 -0.2182  1.1055 -0.4103
17960TIP3    H275372   0.872   2.285  16.977  0.8984  0.8107 -0.5989
17961TIP3   OH275373   3.127   5.633   0.052 -0.0914 -0.2880 -0.0691
17961TIP3    H175374   3.056   5.589   0.099 -0.4179 -0.0114 -0.3015
17961TIP3    H275375   3.181   5.561   0.017 -1.2382 -0.5302 -1.3965
17962TIP3   OH275376   4.923   1.506  16.584 -0.2157  0.0195 -0.3132
17962TIP3    H175377   4.846   1.523  16.529 -0.0106  0.2619 -0.5252
17962TIP3    H275378   4.992   1.560  16.546  0.2196 -0.6513 -0.4812
17963TIP3   OH275379   5.978   2.855   2.295 -0.4961  0.1514  0.3745
17963TIP3    H175380   6.037   2.918   2.335  1.4997 -1.7957  0.6949
17963TIP3    H275381   6.036   2.795   2.247 -2.3882 -0.7714 -0.8892
17964TIP3   OH275382   5.837   6.657   2.775  0.1248  0.2026  0.6448
17964TIP3    H175383   5.933   6.661   2.780  0.1498  2.6526 -0.4152
17964TIP3    H275384   5.815   6.574   2.816  2.6181  0.1684  2.1503
17965TIP3   OH275385   3.955   1.438   4.368 -0.4001 -0.1419  0.4089
17965TIP3    H175386   3.946   1.473   4.279  1.1309 -0.8102 -0.0353
17965TIP3    H275387   4.022   1.494   4.408 -0.0575 -0.7202  0.6568
17966TIP3   OH275388   4.009   5.300   2.590  0.0272  0.4662  0.5376
17966TIP3    H175389   4.022   5.254   2.674 -1.4182  0.7962  0.9643
17966TIP3    H275390   4.094   5.339   2.572  0.4667  0.1105  1.6827
17967TIP3   OH275391   5.923   3.240  11.622 -0.6315  0.6832  0.6050
17967TIP3    H175392   5.865   3.271  11.552 -0.3390  0.7991  0.4095
17967TIP3    H275393   5.982   3.178  11.578 -1.4045 -0.3902  1.0504
17968TIP3   OH275394   5.506   3.480   5.062  0.2061  0.1558 -0.0591
17968TIP3    H175395   5.519   3.552   5.124 -0.2932  0.2855 -0.0996
17968TIP3    H275396   5.417   3.449   5.080  0.6367 -0.8670  0.3855
17969TIP3   OH275397   3.320   5.166   3.534  0.2888  0.1331  0.1062
17969TIP3    H175398   3.277   5.147   3.617 -1.4805 -0.0282 -0.8170
17969TIP3    H275399   3.260   5.134   3.467  2.7719 -2.1029 -1.2562
17970TIP3   OH275400   0.523   0.326   3.074  0.6929 -0.2926 -0.2435
17970TIP3    H175401   0.576   0.298   2.999 -0.4953 -0.6086 -0.9853
17970TIP3    H275402   0.433   0.328   3.041  0.0640 -1.0093  1.3390
17971TIP3   OH275403   1.098   4.498  13.389  0.0866 -0.2067 -0.3194
17971TIP3    H175404   1.097   4.586  13.351 -0.0883 -0.2116 -0.3250
17971TIP3    H275405   1.188   4.468  13.378  1.0320  1.2137  2.4961
17972TIP3   OH275406   2.514   3.462  11.407  0.2191 -0.5570  0.5317
17972TIP3    H175407   2.569   3.496  11.336  0.4733 -1.6698  0.1813
17972TIP3    H275408   2.477   3.541  11.448  0.2209  0.1084 -0.7037
17973TIP3   OH275409   4.064   5.375  12.952 -0.2840  0.3245  0.5276
17973TIP3    H175410   4.062   5.363  12.857 -0.7215  1.6078  0.3668
17973TIP3    H275411   3.989   5.431  12.971 -0.7105 -0.6057  1.7479
17974TIP3   OH275412   5.255   2.066   5.281 -0.0944  0.0514  0.4557
17974TIP3    H175413   5.174   2.083   5.328 -0.5255  2.5644 -1.0220
17974TIP3    H275414   5.231   2.073   5.189  1.4654 -1.0391 -0.0771
17975TIP3   OH275415   4.698   4.862  15.526 -0.0812 -0.2775 -0.1006
17975TIP3    H175416   4.762   4.932  15.542  0.5607 -0.5023 -1.5874
17975TIP3    H275417   4.661   4.882  15.440  0.7950 -2.2549 -0.9977
17976TIP3   OH275418   2.126   5.018   0.998 -0.0097 -0.4165  0.7000
17976TIP3    H175419   2.118   5.111   0.976 -0.4688  0.4448  3.8921
17976TIP3    H275420   2.193   4.984   0.938  2.3279  2.7222  1.2467
17977TIP3   OH275421   2.673   6.716  16.680 -0.4904 -0.0638 -0.2443
17977TIP3    H175422   2.733   6.790  16.687  0.1057 -0.5304 -0.3780
17977TIP3    H275423   2.595   6.744  16.729  0.4174 -0.0533  1.2449
17978TIP3   OH275424   3.050   2.415  17.284 -0.3385  0.3557  0.0349
17978TIP3    H175425   2.966   2.457  17.267 -0.9053 -0.3545  1.0286
17978TIP3    H275426   3.033   2.354  17.355  1.6846  2.5156  2.5645
17979TIP3   OH275427   5.907   5.742  13.866 -0.5097 -0.0300  0.5207
17979TIP3    H175428   5.915   5.813  13.802 -0.9841  1.0124  1.5788
17979TIP3    H275429   5.849   5.678  13.824 -0.2571  0.3109 -0.3612
17980TIP3   OH275430   5.908   4.228  13.682  0.0605 -0.4408  0.4197
17980TIP3    H175431   5.989   4.260  13.721  1.7941  1.0342 -3.7381
17980TIP3    H275432   5.853   4.306  13.674  0.1309 -0.4941 -0.7616
17981TIP3   OH275433   6.764   3.621  16.954 -0.1934  0.3979 -0.8346
17981TIP3    H175434   6.822   3.616  16.878  0.5791 -4.0097 -0.2080
17981TIP3    H275435   6.676   3.612  16.918  0.1512 -1.4617 -1.3154
17982TIP3   OH275436   1.683   5.583   3.006  0.3601 -0.0749  0.0090
17982TIP3    H175437   1.729   5.506   3.038 -0.7147 -1.1411 -0.8895
17982TIP3    H275438   1.735   5.613   2.931 -0.2223 -1.1434 -0.8671
17983TIP3   OH275439   5.886   6.552  13.650 -0.5692  0.1472  0.0666
17983TIP3    H175440   5.791   6.565  13.657 -0.6443 -0.5918  0.4739
17983TIP3    H275441   5.911   6.508  13.731  0.4160  1.8653  0.7627
17984TIP3   OH275442   0.058   3.617  14.049  0.0244 -0.0148  0.4256
17984TIP3    H175443   0.102   3.566  14.117 -2.4841 -0.4188  1.8741
17984TIP3    H275444   0.128   3.665  14.005  1.9614 -1.3153  1.9501
17985TIP3   OH275445   5.768   2.190   3.126 -0.3412  0.3725 -0.5645
17985TIP3    H175446   5.801   2.136   3.197 -0.0088  1.4876  0.1573
17985TIP3    H275447   5.738   2.270   3.169  0.5016  1.3636 -1.7473
17986TIP3   OH275448   0.641   2.309  14.493  0.3665 -0.3216 -0.2417
17986TIP3    H175449   0.562   2.319  14.441  0.7286 -0.4328 -0.8169
17986TIP3    H275450   0.699   2.378  14.462  0.7059 -0.5962 -0.2198
17987TIP3   OH275451   2.823   2.332   5.949 -0.1430 -0.3353  0.1592
17987TIP3    H175452   2.868   2.326   6.033  0.1242 -1.8449 -0.0635
17987TIP3    H275453   2.732   2.308   5.970 -0.3531  0.4802  0.2135
17988TIP3   OH275454   2.989   4.081   2.363 -0.1290 -0.4882  0.5238
17988TIP3    H175455   2.896   4.070   2.382 -0.2037  1.2696  1.3979
17988TIP3    H275456   2.993   4.093   2.269 -1.0344  1.0634  0.6376
17989TIP3   OH275457   6.396   5.935  12.197  0.2467  0.3978 -0.0278
17989TIP3    H175458   6.348   5.991  12.136  0.6093  0.8747  0.1234
17989TIP3    H275459   6.348   5.852  12.196  0.2711  0.3860 -0.9920
17990TIP3   OH275460   3.255   5.648   5.852  0.5073  0.6078  0.5340
17990TIP3    H175461   3.210   5.667   5.770 -0.0044 -1.0168  0.4133
17990TIP3    H275462   3.269   5.554   5.851 -1.3309  0.1995  3.2245
17991TIP3   OH275463   2.862   6.121   1.495  0.2737 -0.8732 -0.5203
17991TIP3    H175464   2.778   6.167   1.498  0.7558  0.0079  2.0646
17991TIP3    H275465   2.868   6.077   1.579  3.5824  1.4075  0.6348
17992TIP3   OH275466   2.782   3.077   4.792 -0.6604 -0.6755 -0.2568
17992TIP3    H175467   2.706   3.047   4.742  0.5688 -2.3386 -1.2400
17992TIP3    H275468   2.779   3.026   4.872 -1.5507  0.6011  0.5746
17993TIP3   OH275469   4.679   2.615   2.589 -0.8033  0.0320 -0.1697
17993TIP3    H175470   4.631   2.559   2.651 -0.4262  0.8886  0.9229
17993TIP3    H275471   4.744   2.557   2.549  0.3155 -0.0996  1.7491
17994TIP3   OH275472   3.542   1.897  15.235  0.3942 -0.0204  0.6324
17994TIP3    H175473   3.493   1.947  15.301 -0.4416  1.8305 -1.2928
17994TIP3    H275474   3.499   1.811  15.234 -0.1113  0.1901  1.8812
17995TIP3   OH275475   3.882   1.239  11.106  0.0717 -0.2081  0.0243
17995TIP3    H175476   3.886   1.280  11.193 -0.2769  0.5769 -0.3283
17995TIP3    H275477   3.789   1.224  11.092  0.0353  0.5967 -0.6427
17996TIP3   OH275478   6.036   2.826  14.841  0.0840  0.5607  0.0793
17996TIP3    H175479   5.965   2.823  14.906  0.5646 -0.2360  0.5856
17996TIP3    H275480   6.080   2.909  14.858 -0.5607  0.9450 -0.0731
17997TIP3   OH275481   4.439   1.956   1.699  0.1403  0.0949  0.0959
17997TIP3    H175482   4.424   1.861   1.699  1.7505 -0.2087 -0.5174
17997TIP3    H275483   4.446   1.979   1.606 -1.6943  1.1138  0.1716
17998TIP3   OH275484   5.600   5.972   0.338 -0.0035 -0.0225  0.2640
17998TIP3    H175485   5.526   5.996   0.283  0.3702  0.1176 -0.1805
17998TIP3    H275486   5.636   5.893   0.298  1.6612  1.3311 -1.0582
17999TIP3   OH275487   4.361   3.528   4.344 -0.2649  0.1544 -0.0989
17999TIP3    H175488   4.352   3.587   4.418 -0.1102  0.2305 -0.1414
17999TIP3    H275489   4.385   3.584   4.270 -0.8803  0.1413 -0.3139
18000TIP3   OH275490   1.239   6.250   3.488 -0.1983 -0.4063  0.2200
18000TIP3    H175491   1.240   6.250   3.583  0.0787 -0.7113  0.2174
18000TIP3    H275492   1.184   6.176   3.464  0.1277 -0.6242  0.1406
18001TIP3   OH275493   1.439   1.883  14.827 -0.5703  0.3315 -0.5329
18001TIP3    H175494   1.400   1.855  14.745 -0.6619  0.3439 -0.4930
18001TIP3    H275495   1.460   1.976  14.814  0.9512 -0.0589 -1.1479
18002TIP3   OH275496   1.604   6.690  17.263  0.0012  0.0561  0.2479
18002TIP3    H175497   1.640   6.712  17.349 -0.9311  1.1613  0.3837
18002TIP3    H275498   1.587   6.596  17.268  1.1406 -0.1439  0.8084
18003TIP3   OH275499   0.791   4.056  13.690 -0.7454  0.0628  0.3893
18003TIP3    H175500   0.735   4.110  13.635  1.3806 -0.2942 -2.3293
18003TIP3    H275501   0.753   3.968  13.686 -0.7377  0.0900 -0.3767
18004TIP3   OH275502   0.220   3.408   4.275  0.2843  0.1127  0.4339
18004TIP3    H175503   0.195   3.345   4.342  0.6429  0.9207  1.3754
18004TIP3    H275504   0.162   3.391   4.202 -0.0095 -0.9138  0.8890
18005TIP3   OH275505   1.430   3.554   3.642 -0.4037  0.2330 -0.0026
18005TIP3    H175506   1.456   3.559   3.550 -0.9669 -1.5327 -0.3009
18005TIP3    H275507   1.408   3.644   3.666  2.0067  1.1407 -0.8825
18006TIP3   OH275508   0.634   4.186  13.532  0.1696 -0.8361  0.3143
18006TIP3    H175509   0.673   4.259  13.483  0.0410 -0.4911  0.7195
18006TIP3    H275510   0.550   4.220  13.563 -1.0248 -1.9316 -1.5083
18007TIP3   OH275511   1.666   5.490   6.529 -0.2067  0.1294  0.1460
18007TIP3    H175512   1.720   5.413   6.546 -0.1346  0.0067 -0.6222
18007TIP3    H275513   1.689   5.551   6.599  0.2700 -0.2692  0.3423
18008TIP3   OH275514   2.259   3.907  15.624  0.1692  0.5818 -0.5276
18008TIP3    H175515   2.337   3.908  15.568  2.0126  0.8191  1.8895
18008TIP3    H275516   2.277   3.838  15.688 -0.7021  1.9248  1.2378
18009TIP3   OH275517   3.903   2.393  12.575  0.5157  0.0358  0.6043
18009TIP3    H175518   3.942   2.314  12.614 -0.7453 -0.7642  0.3056
18009TIP3    H275519   3.925   2.387  12.482 -1.0366 -0.9183  0.2567
18010TIP3   OH275520   6.478   5.643   6.678  0.9319  0.1157 -0.1857
18010TIP3    H175521   6.456   5.563   6.726  1.5865  0.0976  0.0898
18010TIP3    H275522   6.516   5.701   6.744  0.1119  0.8106 -0.3058
18011TIP3   OH275523   1.942   1.378  12.114  0.0725  0.3480 -0.3468
18011TIP3    H175524   1.946   1.436  12.039  1.0356 -1.9617 -2.2180
18011TIP3    H275525   1.941   1.290  12.076 -1.8745 -0.9057  2.2810
18012TIP3   OH275526   0.515   5.219   3.131 -0.0803 -0.4611  0.7362
18012TIP3    H175527   0.579   5.263   3.186  0.2082 -1.8948  1.6085
18012TIP3    H275528   0.438   5.276   3.134  0.9450  1.0111  0.1079
18013TIP3   OH275529   0.691   2.981  14.577  0.1748  0.3625  0.7381
18013TIP3    H175530   0.772   3.016  14.541 -1.4437  0.4825 -3.2082
18013TIP3    H275531   0.704   2.886  14.579  1.4269  0.5014  3.1935
18014TIP3   OH275532   2.719   1.954  16.996 -0.0213  0.4053 -0.7134
18014TIP3    H175533   2.688   1.931  17.083  1.3589 -1.3282 -0.6165
18014TIP3    H275534   2.765   2.037  17.008 -0.8489  0.7799 -0.0400
18015TIP3   OH275535   5.835   1.500   3.433  0.3914  0.3965  0.6260
18015TIP3    H175536   5.780   1.504   3.354  0.8919 -1.1848  0.1472
18015TIP3    H275537   5.795   1.431   3.486  1.0301  0.2794  0.9639
18016TIP3   OH275538   0.248   1.197  13.275  0.2278  0.6036  0.3719
18016TIP3    H175539   0.166   1.223  13.235  0.8655  3.0519  0.4772
18016TIP3    H275540   0.291   1.142  13.209 -1.1113 -0.0637  0.0133
18017TIP3   OH275541   0.755   0.254  11.351 -0.1544  0.0301 -0.3473
18017TIP3    H175542   0.751   0.280  11.259 -0.6078  1.1876 -0.0197
18017TIP3    H275543   0.750   0.158  11.349  1.8073 -0.1101 -1.6318
18018TIP3   OH275544   3.986   3.023  11.817 -0.3446 -0.2718  0.4377
18018TIP3    H175545   4.071   2.994  11.784 -0.8024 -0.6063 -0.4829
18018TIP3    H275546   4.007   3.078  11.893  0.7853  1.1515 -0.8409
18019TIP3   OH275547   0.936   3.305   3.100  0.4423 -0.0209  0.4744
18019TIP3    H175548   0.989   3.351   3.165 -0.6913 -0.4763  1.7709
18019TIP3    H275549   0.922   3.219   3.137  1.1766 -0.9158 -1.1885
18020TIP3   OH275550   1.776   0.013  15.302  0.3970  0.1457  0.6668
18020TIP3    H175551   1.772  -0.046  15.227  0.7356  0.4919  0.3778
18020TIP3    H275552   1.698  -0.009  15.353 -1.5236  1.9489 -1.3040
18021TIP3   OH275553   1.591   6.406   3.660  0.6249 -0.0606 -0.3230
18021TIP3    H175554   1.594   6.484   3.715  0.7234 -0.5235  0.3389
18021TIP3    H275555   1.674   6.362   3.676  0.4071 -0.5046 -0.3925
18022TIP3   OH275556   1.746   4.322   3.981 -0.0679  0.5947 -0.3638
18022TIP3    H175557   1.724   4.235   3.945 -0.0521  0.1549  0.6640
18022TIP3    H275558   1.814   4.355   3.922  0.3083 -0.3230 -0.4683
18023TIP3   OH275559   0.738   3.553   4.718  0.1649 -0.2143  0.1583
18023TIP3    H175560   0.661   3.588   4.764 -2.0924 -1.5110 -2.3674
18023TIP3    H275561   0.759   3.473   4.766  1.0346  0.9422  1.8229
18024TIP3   OH275562   0.596   2.226   0.396 -0.1236 -0.2973  0.0372
18024TIP3    H175563   0.587   2.248   0.489 -0.3377 -1.1804  0.2421
18024TIP3    H275564   0.506   2.223   0.364 -0.0056  0.9875 -0.4553
18025TIP3   OH275565   4.790   3.540   0.219 -0.2382 -0.2803  0.3000
18025TIP3    H175566   4.772   3.590   0.140 -1.3243  1.2490  1.4336
18025TIP3    H275567   4.711   3.486   0.231  0.4876 -1.5238 -0.3499
18026TIP3   OH275568   1.367   3.082  15.990  0.0645 -0.3689 -0.2343
18026TIP3    H175569   1.293   3.072  16.049  1.1706 -0.2123  1.2413
18026TIP3    H275570   1.432   3.018  16.022  1.5722  1.3022  0.1980
18027TIP3   OH275571   5.617   0.756   3.990 -0.0213 -0.7697  0.0152
18027TIP3    H175572   5.530   0.744   4.029  0.5289  0.6853  1.8515
18027TIP3    H275573   5.655   0.828   4.040  1.4456  0.0561 -2.1701
18028TIP3   OH275574   2.128   2.221  15.879  0.3331  0.0798  0.3944
18028TIP3    H175575   2.116   2.291  15.815 -0.7499 -0.9778 -0.5984
18028TIP3    H275576   2.039   2.196  15.904  0.6864 -1.2292  0.3987
18029TIP3   OH275577   2.143   2.526   2.076 -0.0574 -0.1163  0.4210
18029TIP3    H175578   2.052   2.495   2.076  0.4869 -1.8504  0.9777
18029TIP3    H275579   2.174   2.510   1.987 -0.4314  0.9753  0.0795
18030TIP3   OH275580   6.622   1.196  12.389 -0.0543  0.1086 -0.0837
18030TIP3    H175581   6.578   1.125  12.341  0.9284 -1.4200  1.1621
18030TIP3    H275582   6.694   1.222  12.333 -0.1757 -0.1741 -0.3758
18031TIP3   OH275583   5.548   6.405  16.671  0.4845 -0.5622 -0.2453
18031TIP3    H175584   5.469   6.372  16.629  0.3198 -0.9972  0.4025
18031TIP3    H275585   5.517   6.465  16.738  0.6331 -1.7220  0.8869
18032TIP3   OH275586   1.371   6.007  16.177  0.4330 -0.0130 -0.4592
18032TIP3    H175587   1.393   6.056  16.098  0.4173  1.4623  0.4106
18032TIP3    H275588   1.284   6.037  16.201  0.2529 -0.7811 -0.1277
18033TIP3   OH275589   6.022   0.185  14.750 -0.1507  0.5035  0.0572
18033TIP3    H175590   5.927   0.174  14.746 -0.5204  1.5926  2.9319
18033TIP3    H275591   6.054   0.103  14.788  0.0001  0.3826 -0.3239
18034TIP3   OH275592   0.141   3.006   3.299  0.6478 -0.3277 -0.5497
18034TIP3    H175593   0.126   2.912   3.311  2.6291 -0.4949  1.1495
18034TIP3    H275594   0.233   3.018   3.320  0.9193  1.7546 -2.5435
18035TIP3   OH275595   1.488   5.461   3.662  0.0668 -0.1286 -0.7363
18035TIP3    H175596   1.453   5.447   3.750 -1.7420  0.7895 -1.2588
18035TIP3    H275597   1.581   5.478   3.675 -0.2940  0.6587  1.0804
18036TIP3   OH275598   0.134   2.078  11.601 -0.7415  0.3573 -0.3392
18036TIP3    H175599   0.046   2.059  11.570  0.2006 -1.6366 -2.0528
18036TIP3    H275600   0.178   2.116  11.525 -0.0288  1.0350  0.4008
18037TIP3   OH275601   0.262   2.909  16.647 -0.3816  0.0322 -0.0646
18037TIP3    H175602   0.294   2.994  16.616 -0.9382  0.0773 -0.5276
18037TIP3    H275603   0.263   2.917  16.743  0.9658  0.0299 -0.0610
18038TIP3   OH275604   1.383   3.529  15.519  0.0020  0.2811 -0.2001
18038TIP3    H175605   1.473   3.559  15.513  0.2196 -0.4051 -0.4098
18038TIP3    H275606   1.340   3.592  15.578  0.5831  0.6688 -0.1895
18039TIP3   OH275607   2.397   5.249   4.498 -0.5844 -0.4787  0.3292
18039TIP3    H175608   2.424   5.335   4.532 -0.0465 -0.4969 -0.0430
18039TIP3    H275609   2.332   5.218   4.561 -0.0120 -0.2625  1.0356
18040TIP3   OH275610   3.458   3.716   6.301 -0.5402 -0.2686  0.7445
18040TIP3    H175611   3.513   3.732   6.378 -3.1005 -1.0104  2.8739
18040TIP3    H275612   3.447   3.621   6.299  0.9356 -0.4638 -1.7208
18041TIP3   OH275613   6.489   0.429   0.933  0.1540  0.6612  0.0082
18041TIP3    H175614   6.406   0.474   0.920 -0.9802 -1.5529 -0.9011
18041TIP3    H275615   6.556   0.498   0.923 -1.5020  2.3408  0.0226
18042TIP3   OH275616   4.673   4.027   1.500  0.1437 -0.2082  0.4635
18042TIP3    H175617   4.614   4.100   1.520  0.7439  0.4660 -0.1353
18042TIP3    H275618   4.741   4.066   1.444 -0.0081 -1.4212 -0.6174
18043TIP3   OH275619   0.336   2.238  14.407  0.5160  0.4833  0.1916
18043TIP3    H175620   0.350   2.176  14.479 -0.7999 -0.6426 -0.4814
18043TIP3    H275621   0.352   2.186  14.328 -1.3446  0.7790 -0.4110
18044TIP3   OH275622   5.498   2.129   1.785  0.1417 -0.2293  0.1634
18044TIP3    H175623   5.475   2.038   1.764 -2.1531  0.7931 -2.2068
18044TIP3    H275624   5.563   2.154   1.720 -1.4303  0.6668 -1.1281
18045TIP3   OH275625   0.125   2.563  16.325  0.8900 -0.1048  0.5583
18045TIP3    H175626   0.188   2.554  16.397 -0.1352 -2.8843  1.2224
18045TIP3    H275627   0.040   2.572  16.368  0.4902  0.6318 -0.3353
18046TIP3   OH275628   5.326   5.723   5.692  0.6014 -0.2513 -0.1450
18046TIP3    H175629   5.397   5.728   5.757  0.9735  0.6222 -0.6074
18046TIP3    H275630   5.363   5.762   5.613  0.3323 -1.7684 -1.0634
18047TIP3   OH275631   1.863   2.208   5.577  0.0880 -0.0635  0.5591
18047TIP3    H175632   1.806   2.241   5.508  0.0773 -0.3601  0.4247
18047TIP3    H275633   1.888   2.121   5.548  0.5331  0.0254  0.6603
18048TIP3   OH275634   3.417   0.691  16.925  0.2984  0.1970  0.2318
18048TIP3    H175635   3.335   0.660  16.962  0.9617 -1.1463  0.6464
18048TIP3    H275636   3.403   0.689  16.830 -0.0535 -0.3063  0.2923
18049TIP3   OH275637   5.633   0.265  11.186  0.5602 -0.4452 -0.9203
18049TIP3    H175638   5.726   0.286  11.194  0.6003  0.3693 -2.9125
18049TIP3    H275639   5.592   0.313  11.257  1.6138 -0.5580 -0.2082
18050TIP3   OH275640   0.174   6.304  12.110 -0.5713  0.2323 -0.3373
18050TIP3    H175641   0.185   6.375  12.046  0.9648  0.6253  0.3013
18050TIP3    H275642   0.166   6.349  12.194  0.2479 -0.3239  0.0557
18051TIP3   OH275643   6.673   3.051   4.827  0.1335  0.2937  0.2151
18051TIP3    H175644   6.712   3.009   4.904  1.1185  0.1077 -0.3670
18051TIP3    H275645   6.712   3.138   4.825  0.6518  0.0524 -0.4569
18052TIP3   OH275646   5.553   0.877   3.082  0.4203 -0.1202 -0.1406
18052TIP3    H175647   5.491   0.943   3.051  0.1384 -0.8065 -1.1019
18052TIP3    H275648   5.561   0.894   3.176 -0.5422  0.5467 -0.1606
18053TIP3   OH275649   1.235   2.776   5.740 -0.1961 -0.8042 -0.2570
18053TIP3    H175650   1.141   2.779   5.759  0.2041  0.6428  1.9175
18053TIP3    H275651   1.251   2.686   5.713 -2.1687 -1.1285 -0.5386
18054TIP3   OH275652   4.512   4.449  14.572 -0.0855 -0.2228  0.4835
18054TIP3    H175653   4.585   4.459  14.510  1.0253  3.1561  2.0768
18054TIP3    H275654   4.510   4.532  14.619 -5.1256 -0.0483  0.4726
18055TIP3   OH275655   5.490   3.859  12.728 -0.6216 -0.0834 -0.0541
18055TIP3    H175656   5.548   3.785  12.710 -0.3148 -0.3268  1.8121
18055TIP3    H275657   5.547   3.935  12.724 -0.2970 -0.2572  1.1007
18056TIP3   OH275658   6.550   4.515  11.593  0.1480 -0.0434  0.1080
18056TIP3    H175659   6.478   4.470  11.548 -0.4670  2.0307 -1.0824
18056TIP3    H275660   6.508   4.565  11.662  0.4950  0.8060 -0.2857
18057TIP3   OH275661   3.386   0.631  12.407 -0.6619 -0.3046  0.2258
18057TIP3    H175662   3.390   0.715  12.362 -0.1349 -0.0999  0.6499
18057TIP3    H275663   3.301   0.633  12.452  0.3105  1.0120  2.1436
18058TIP3   OH275664   5.432   0.296   1.464  0.1268  0.7930 -0.0686
18058TIP3    H175665   5.354   0.335   1.424 -0.3053  0.4949  0.4650
18058TIP3    H275666   5.455   0.223   1.406 -0.5884  0.2660  0.2866
18059TIP3   OH275667   6.152   1.726  15.984  0.4754  0.2895  0.4011
18059TIP3    H175668   6.178   1.745  16.074  0.6611 -2.2006  0.9421
18059TIP3    H275669   6.078   1.666  15.992  1.2497 -0.9284 -1.0731
18060TIP3   OH275670   6.284   0.419  12.918 -0.6108  0.1714 -0.1096
18060TIP3    H175671   6.220   0.350  12.939 -1.4916  0.6244 -1.1855
18060TIP3    H275672   6.368   0.373  12.913 -1.1588 -0.7974 -0.6490
18061TIP3   OH275673   1.601   3.177   1.504 -0.0007  0.4674  0.4927
18061TIP3    H175674   1.508   3.198   1.500  0.0811  0.8204  0.3559
18061TIP3    H275675   1.645   3.260   1.485  0.3451  0.0601 -0.5405
18062TIP3   OH275676   4.547   3.807  15.517  0.1375 -0.1430  0.6478
18062TIP3    H175677   4.488   3.835  15.447 -0.3114 -0.7210  0.7824
18062TIP3    H275678   4.569   3.887  15.563  1.8677  0.5362 -1.2221
18063TIP3   OH275679   5.233   3.886   5.730 -0.3540 -0.4531  0.0866
18063TIP3    H175680   5.208   3.796   5.753 -0.9918 -0.5789 -1.0453
18063TIP3    H275681   5.184   3.941   5.791 -0.0097 -0.8573  0.7457
18064TIP3   OH275682   0.109   4.331  13.096 -0.1251 -0.0993  0.2296
18064TIP3    H175683   0.083   4.377  13.175  2.2485  1.0044  0.4593
18064TIP3    H275684   0.123   4.241  13.124  0.2687  0.1885  0.9752
18065TIP3   OH275685   3.895   5.973   4.366  0.3067 -0.0158  0.0619
18065TIP3    H175686   3.873   6.033   4.437 -0.4466  0.0077 -0.1824
18065TIP3    H275687   3.818   5.973   4.310  0.8246 -0.1701 -0.6697
18066TIP3   OH275688   2.829   4.226  14.739 -0.2216 -0.1494 -0.0849
18066TIP3    H175689   2.755   4.253  14.684  0.8741  1.5122 -0.8048
18066TIP3    H275690   2.822   4.281  14.817 -2.1204 -2.9100  1.8540
18067TIP3   OH275691   1.463   1.612  11.540  0.2547  0.2157 -0.4655
18067TIP3    H175692   1.480   1.589  11.632  0.5615 -0.8499 -0.7756
18067TIP3    H275693   1.481   1.706  11.535 -0.3011  0.4046  0.6864
18068TIP3   OH275694   3.287   4.959   5.423  0.5739  0.1553 -0.6356
18068TIP3    H175695   3.366   4.996   5.385  0.7700  0.7015  0.2759
18068TIP3    H275696   3.215   5.001   5.375  0.7760  2.1826  0.7281
18069TIP3   OH275697   3.248   0.562   5.924  0.0517  0.0509  0.2164
18069TIP3    H175698   3.175   0.501   5.919  1.6662 -1.9139 -0.5959
18069TIP3    H275699   3.317   0.513   5.969  1.0344  1.7077  0.6006
18070TIP3   OH275700   1.172   1.763  13.288  0.6104  0.6774 -0.7258
18070TIP3    H175701   1.100   1.784  13.348  0.3032  1.5028 -1.3471
18070TIP3    H275702   1.140   1.687  13.238 -1.4026  3.0145 -3.3761
18071TIP3   OH275703   4.134   2.591  12.995  0.1390  0.7592  0.0968
18071TIP3    H175704   4.136   2.683  13.023 -0.7486  0.8146  0.0018
18071TIP3    H275705   4.141   2.594  12.900 -1.8998  0.8663 -0.0946
18072TIP3   OH275706   4.909   5.539  11.513  0.0434  0.2084  0.9448
18072TIP3    H175707   4.848   5.524  11.441  0.1213  0.6521  0.7845
18072TIP3    H275708   4.995   5.543  11.472  0.3666 -1.8551  1.3337
18073TIP3   OH275709   3.804   6.692  12.353 -0.1468  0.0136 -0.4216
18073TIP3    H175710   3.820   6.773  12.305  1.0409 -0.3691 -0.7036
18073TIP3    H275711   3.829   6.623  12.291 -1.9479 -0.6279 -0.5102
18074TIP3   OH275712   6.551   0.875  14.523 -0.0581  0.5105 -0.4726
18074TIP3    H175713   6.595   0.909  14.445 -0.0860  1.2403 -0.1843
18074TIP3    H275714   6.529   0.785  14.501  2.7663 -0.3537 -0.1594
18075TIP3   OH275715   3.085   0.207   2.567 -0.5139  0.2936  0.2335
18075TIP3    H175716   3.122   0.185   2.481 -2.6169 -2.9826 -0.0039
18075TIP3    H275717   3.156   0.192   2.629  0.0937 -0.6011 -0.6529
18076TIP3   OH275718   2.782   0.293  15.915 -0.0640  0.3719  0.1287
18076TIP3    H175719   2.758   0.210  15.956 -0.9385  0.8556  0.6366
18076TIP3    H275720   2.873   0.308  15.941 -0.4082  0.3576  1.3967
18077TIP3   OH275721   2.565   2.195   4.288  0.7894  0.0816 -0.6348
18077TIP3    H175722   2.485   2.160   4.249 -0.1276  0.0601  1.1611
18077TIP3    H275723   2.579   2.141   4.366  2.2751  0.4337 -0.6299
18078TIP3   OH275724   0.476   4.050  11.281  0.4870 -0.3441 -0.2006
18078TIP3    H175725   0.432   3.985  11.336 -0.9031  0.7717  0.0818
18078TIP3    H275726   0.413   4.067  11.210  1.2390 -0.0112 -0.7961
18079TIP3   OH275727   6.729   0.431  14.960  0.4997  0.4374 -0.2352
18079TIP3    H175728   6.688   0.404  14.878  1.9315  1.0109 -1.1896
18079TIP3    H275729   6.794   0.363  14.978  0.4663  0.5209  0.2239
18080TIP3   OH275730   0.206   3.625   5.845 -0.0891 -0.5525 -0.0249
18080TIP3    H175731   0.167   3.705   5.810 -2.0776 -1.9425 -1.1737
18080TIP3    H275732   0.132   3.575   5.878  1.1197 -1.9185  0.7311
18081TIP3   OH275733   5.344   2.884   5.736  0.5948  0.0942 -0.7949
18081TIP3    H175734   5.357   2.803   5.787  0.9515 -0.0391 -1.0911
18081TIP3    H275735   5.421   2.889   5.680  1.0374  1.1258 -0.1326
18082TIP3   OH275736   1.460   1.349  15.627  0.6554  0.0873  0.0421
18082TIP3    H175737   1.554   1.341  15.643  1.1372 -2.1341 -3.1550
18082TIP3    H275738   1.421   1.277  15.676  0.5044  1.0786  1.4653
18083TIP3   OH275739   4.670   4.340  11.772  0.1946 -0.3723 -0.4131
18083TIP3    H175740   4.761   4.365  11.785 -0.1238  0.2553  0.7845
18083TIP3    H275741   4.664   4.318  11.680  1.2854  0.7533 -0.7800
18084TIP3   OH275742   3.094   4.457   2.106  0.3016  0.1937 -0.2573
18084TIP3    H175743   3.188   4.471   2.117  0.4488 -1.4951  1.1230
18084TIP3    H275744   3.057   4.470   2.193 -0.8039  1.0531 -0.8300
18085TIP3   OH275745   3.135   6.694  13.495  0.0583 -0.7195  0.0837
18085TIP3    H175746   3.200   6.736  13.438 -0.0254 -0.8200 -0.0878
18085TIP3    H275747   3.073   6.653  13.434 -1.3824  1.1851  0.1875
18086TIP3   OH275748   3.944   6.515  11.872  0.2442 -0.0437 -0.6347
18086TIP3    H175749   3.965   6.595  11.825  1.0231  0.9879  1.3431
18086TIP3    H275750   4.020   6.458  11.856 -0.2550 -0.3611 -1.9432
18087TIP3   OH275751   0.330   0.829  12.796  0.3351 -0.4679 -0.3931
18087TIP3    H175752   0.371   0.803  12.879 -0.3293  0.0647  0.1155
18087TIP3    H275753   0.369   0.914  12.775 -0.2193 -0.1358 -0.1018
18088TIP3   OH275754   3.062   4.960  13.296  0.7292 -0.5293  0.4768
18088TIP3    H175755   3.008   5.038  13.304 -1.2443 -1.6416 -1.1260
18088TIP3    H275756   3.132   4.985  13.235 -0.4439 -0.2305 -0.8012
18089TIP3   OH275757   6.152   1.531  14.491 -0.2437  0.0502 -0.7011
18089TIP3    H175758   6.171   1.616  14.531  0.1620  0.0509 -0.8909
18089TIP3    H275759   6.071   1.502  14.532  0.6720 -0.4040  0.8478
18090TIP3   OH275760   2.002   3.894   3.647  0.3970 -0.5240 -0.0745
18090TIP3    H175761   1.961   3.919   3.564  0.9563  0.1999 -0.1485
18090TIP3    H275762   2.006   3.799   3.644  1.0702 -0.4889 -1.2267
18091TIP3   OH275763   6.513   2.450  17.170 -0.3735  0.1176 -0.3187
18091TIP3    H175764   6.427   2.426  17.136  0.4130 -0.4557 -2.0096
18091TIP3    H275765   6.544   2.518  17.110  0.9115 -0.6627 -0.5650
18092TIP3   OH275766   5.132   5.680  12.357 -0.3009  0.4574  0.0212
18092TIP3    H175767   5.074   5.626  12.303 -0.7172  0.0776  0.8357
18092TIP3    H275768   5.191   5.722  12.294 -3.8774  4.0556 -1.4081
18093TIP3   OH275769   4.410   2.173  16.993 -0.0989 -0.2406  0.6060
18093TIP3    H175770   4.360   2.091  16.999  0.2196 -0.4124  0.9879
18093TIP3    H275771   4.345   2.239  16.966 -1.1923  0.0968  3.6021
18094TIP3   OH275772   0.037   5.156   5.381  0.1495  0.1992 -0.3538
18094TIP3    H175773   0.008   5.082   5.434  0.7866  0.8997  1.0500
18094TIP3    H275774   0.016   5.233   5.434 -0.3073  1.0118 -1.6872
18095TIP3   OH275775   2.052   5.122   1.761  0.0019  0.0690 -0.0968
18095TIP3    H175776   1.993   5.119   1.837  0.5730  0.3948  0.3678
18095TIP3    H275777   2.128   5.070   1.788  0.5278  0.7878 -0.1594
18096TIP3   OH275778   3.051   2.173   3.779  0.4158  0.2502  0.4704
18096TIP3    H175779   2.980   2.235   3.764 -2.3413 -2.8274 -0.5095
18096TIP3    H275780   3.026   2.127   3.859  1.5448 -0.6511  0.3381
18097TIP3   OH275781   1.398   1.763   4.441 -0.0853  0.0383  0.4233
18097TIP3    H175782   1.337   1.698   4.405 -0.8094 -0.8672  3.0913
18097TIP3    H275783   1.362   1.847   4.414 -2.4671 -0.4857  1.7502
18098TIP3   OH275784   1.585   0.739   4.103 -0.0895 -0.4667 -0.6214
18098TIP3    H175785   1.641   0.802   4.057  1.2006 -1.4600 -0.4751
18098TIP3    H275786   1.505   0.734   4.051  0.8994 -0.7535 -2.1699
18099TIP3   OH275787   5.805   0.397  10.743 -0.3968 -0.4380 -0.1889
18099TIP3    H175788   5.753   0.317  10.747 -2.8413  1.0953  1.8673
18099TIP3    H275789   5.754   0.456  10.686  0.9646 -0.0685 -1.0588
18100TIP3   OH275790   3.729   4.398   5.798  0.1092 -0.3675  0.5454
18100TIP3    H175791   3.822   4.404   5.778 -0.0419  1.0857  0.1691
18100TIP3    H275792   3.711   4.473   5.855 -0.9143 -0.3765  0.2624
18101TIP3   OH275793   4.785   0.108   2.868 -0.0173 -0.1834  0.2135
18101TIP3    H175794   4.864   0.059   2.890  0.6118 -0.9402 -3.1043
18101TIP3    H275795   4.713   0.047   2.885  0.4048 -0.7122  0.1317
18102TIP3   OH275796   2.704   1.232   3.505  0.0949 -0.5097 -0.2931
18102TIP3    H175797   2.647   1.179   3.449 -1.2181 -0.4848  0.9719
18102TIP3    H275798   2.766   1.170   3.542 -0.8304 -1.0310  0.4296
18103TIP3   OH275799   4.967   0.912  13.374  0.3198  0.1216 -0.0632
18103TIP3    H175800   4.997   0.907  13.465  0.2425  1.9966  0.1010
18103TIP3    H275801   5.047   0.922  13.323  0.4393 -1.8644 -0.3309
18104TIP3   OH275802   6.507   2.642   0.521 -0.1981  0.4726  0.0464
18104TIP3    H175803   6.594   2.668   0.551 -0.1091  1.1014 -0.7161
18104TIP3    H275804   6.508   2.546   0.523  0.6686  0.4670 -0.3698
18105TIP3   OH275805   1.446   4.820   5.008  0.3915 -0.1888 -0.1709
18105TIP3    H175806   1.531   4.788   5.036  0.2836 -0.9296 -0.6806
18105TIP3    H275807   1.386   4.794   5.078  0.0767 -2.2585 -1.1447
18106TIP3   OH275808   0.694   0.115   1.830 -0.1283 -0.5216  0.1451
18106TIP3    H175809   0.641   0.185   1.792  0.1993 -1.1382 -1.5203
18106TIP3    H275810   0.633   0.043   1.842 -0.2501 -0.3036  0.9427
18107TIP3   OH275811   3.318   1.193   2.678 -0.2056 -0.0962 -0.8085
18107TIP3    H175812   3.279   1.273   2.714 -0.5705 -1.2446  1.5489
18107TIP3    H275813   3.246   1.148   2.635 -0.2348  0.3330 -1.2143
18108TIP3   OH275814   1.884   1.107  14.377  0.0103  0.2244  0.5671
18108TIP3    H175815   1.871   1.013  14.390  0.9896  0.3605  2.9149
18108TIP3    H275816   1.925   1.114  14.290  0.2445 -1.5287  0.5101
18109TIP3   OH275817   3.812   1.402   0.714 -0.2815 -0.4637  0.3366
18109TIP3    H175818   3.746   1.440   0.656  0.2537  0.3804  0.2674
18109TIP3    H275819   3.831   1.317   0.676 -0.6880 -0.3467 -0.1423
18110TIP3   OH275820   5.222   1.153  13.623 -0.1171  0.4487 -0.2701
18110TIP3    H175821   5.235   1.239  13.663  0.4176  0.1840  0.1331
18110TIP3    H275822   5.309   1.127  13.593 -0.6216  0.9959 -2.3580
18111TIP3   OH275823   4.178   2.448  12.738 -0.1175 -0.5850 -0.3193
18111TIP3    H175824   4.088   2.416  12.742 -0.7818  1.1913 -0.1084
18111TIP3    H275825   4.188   2.482  12.649  0.0324  0.0385 -0.0706
18112TIP3   OH275826   1.096   2.558   6.407 -0.0917 -0.0516 -0.2911
18112TIP3    H175827   1.163   2.554   6.475  0.5185  2.8911 -0.5883
18112TIP3    H275828   1.145   2.556   6.324 -0.6658 -1.3159 -0.6293
18113TIP3   OH275829   3.693   0.205  12.248 -0.5192  0.2684 -0.3249
18113TIP3    H175830   3.669   0.258  12.324 -2.9393 -0.9186 -0.1690
18113TIP3    H275831   3.776   0.165  12.271 -1.6694 -0.8446  2.1473
18114TIP3   OH275832   2.010   5.713  15.592 -0.3941 -0.1053  0.3875
18114TIP3    H175833   2.048   5.638  15.637 -1.1298 -0.2281  0.8275
18114TIP3    H275834   1.915   5.700  15.599 -0.5451  1.1723  0.9905
18115TIP3   OH275835   1.256   4.958   3.430 -0.1142 -0.6816 -0.0558
18115TIP3    H175836   1.212   5.030   3.475  0.6171 -0.5468  0.4545
18115TIP3    H275837   1.271   4.990   3.341 -1.0497 -0.7380 -0.2551
18116TIP3   OH275838   1.519   3.516   0.798 -0.1486  0.2274  0.6579
18116TIP3    H175839   1.500   3.507   0.891 -1.4383  0.9293  0.4844
18116TIP3    H275840   1.461   3.586   0.768 -0.2569 -0.4487 -0.8198
18117TIP3   OH275841   6.308   1.463  13.466  0.0294  0.7354  0.2237
18117TIP3    H175842   6.228   1.504  13.432 -0.7171 -0.2820  0.6982
18117TIP3    H275843   6.285   1.371  13.477  2.1457 -0.2245 -2.3692
18118TIP3   OH275844   6.318   0.687   6.139  0.4434 -0.1402 -0.0167
18118TIP3    H175845   6.386   0.635   6.183 -0.1928 -0.8076  0.1860
18118TIP3    H275846   6.367   0.756   6.093  1.2745 -0.7380 -0.0494
18119TIP3   OH275847   0.937   2.312  14.110  0.2557  0.5786 -0.6894
18119TIP3    H175848   0.890   2.363  14.176  1.7154  0.4006  0.5106
18119TIP3    H275849   1.024   2.351  14.107  0.8563 -0.7535 -1.0117
18120TIP3   OH275850   0.176   5.226  15.358  0.4128  0.5061 -0.0356
18120TIP3    H175851   0.245   5.254  15.298  0.3313 -1.3010 -1.0221
18120TIP3    H275852   0.110   5.295  15.352  1.7638  1.8873  0.3588
18121TIP3   OH275853   6.083   1.109   5.434  0.0642  0.1944 -0.1503
18121TIP3    H175854   6.120   1.113   5.523 -1.3981 -1.1610  0.5710
18121TIP3    H275855   6.048   1.020   5.427 -3.1065  1.3468 -0.6965
18122TIP3   OH275856   2.200   4.069   3.455 -0.2249 -0.3580 -0.1378
18122TIP3    H175857   2.185   4.058   3.549 -0.9389 -0.9138 -0.3068
18122TIP3    H275858   2.189   4.163   3.439 -1.9016 -0.4880  0.0458
18123TIP3   OH275859   2.042   3.766   2.216  0.3199 -0.2403 -0.5197
18123TIP3    H175860   2.116   3.760   2.276  1.0746  1.0270 -1.2770
18123TIP3    H275861   2.023   3.676   2.192  3.8558 -0.5520 -2.9405
18124TIP3   OH275862   0.593   0.807  12.936  0.3315  0.2886  0.1691
18124TIP3    H175863   0.678   0.827  12.974  0.6971  0.0960 -0.5256
18124TIP3    H275864   0.611   0.741  12.869 -0.2036  0.9612 -0.6780
18125TIP3   OH275865   4.832   1.044  11.600  0.5235  0.4724 -0.6115
18125TIP3    H175866   4.875   1.118  11.643  0.3792  0.4464 -0.4195
18125TIP3    H275867   4.778   1.085  11.532 -1.9141  0.8581  1.3820
18126TIP3   OH275868   5.900   0.801   6.269 -0.0065 -0.3893  0.0774
18126TIP3    H175869   5.954   0.848   6.205 -0.4665  1.1195  0.7498
18126TIP3    H275870   5.938   0.825   6.354 -1.1401 -0.0655  0.5065
18127TIP3   OH275871   3.422   0.427  11.225  0.2750  0.0683 -0.5011
18127TIP3    H175872   3.426   0.335  11.199  1.7137 -0.1041  0.2350
18127TIP3    H275873   3.369   0.427  11.305 -1.5933  0.2069 -1.6733
18128TIP3   OH275874   1.017   3.571  14.974 -0.8204  0.3923  0.1704
18128TIP3    H175875   0.980   3.630  14.909 -0.5679  0.4964  0.1213
18128TIP3    H275876   0.959   3.495  14.974 -0.9937  0.5264  0.0442
18129TIP3   OH275877   4.096   0.074  13.399  0.1148  0.5612  0.2170
18129TIP3    H175878   4.118   0.013  13.469  2.1473  0.0641 -0.7957
18129TIP3    H275879   4.019   0.035  13.356 -1.1613  0.8772  2.0939
18130TIP3   OH275880   2.892   0.885  13.991  0.3418 -0.1826 -0.3025
18130TIP3    H175881   2.881   0.969  13.946 -0.4200 -0.1847 -0.1308
18130TIP3    H275882   2.981   0.888  14.025 -0.0892  1.1086  0.8152
18131TIP3   OH275883   6.607   5.575  15.958  0.2422 -0.3039  0.2018
18131TIP3    H175884   6.693   5.552  15.922  0.4355 -0.8827  1.0167
18131TIP3    H275885   6.626   5.609  16.046 -0.3909 -0.7754  0.5298
18132TIP3   OH275886   0.330   0.433   0.915 -0.1109 -0.5816  0.3827
18132TIP3    H175887   0.294   0.515   0.949 -0.6823 -1.3890  1.8032
18132TIP3    H275888   0.388   0.460   0.843  1.5070  1.2740  2.2443
18133TIP3   OH275889   0.234   1.382   1.301 -0.2748  0.2762  0.2103
18133TIP3    H175890   0.209   1.462   1.255  0.7254  0.9500  0.7881
18133TIP3    H275891   0.298   1.340   1.243 -2.8397 -1.6335 -1.4406
18134TIP3   OH275892   5.669   5.458   5.296 -0.4720 -0.2153  0.4461
18134TIP3    H175893   5.603   5.441   5.363  0.3184  1.5045  1.7425
18134TIP3    H275894   5.618   5.477   5.217 -1.5912  1.0941  1.4165
18135TIP3   OH275895   0.418   1.483  13.034 -0.0692  0.2455 -0.5311
18135TIP3    H175896   0.407   1.493  13.129 -1.0207  0.0762 -0.6131
18135TIP3    H275897   0.372   1.402  13.013 -0.7741  0.8309 -1.2890
18136TIP3   OH275898   1.884   2.424   3.734 -0.1428 -0.0960  0.0713
18136TIP3    H175899   1.953   2.489   3.721 -0.7453  0.3699 -0.9406
18136TIP3    H275900   1.915   2.370   3.807  0.7614  0.7923  0.3658
18137TIP3   OH275901   5.681   4.228   4.729  0.4813 -0.0492  0.7519
18137TIP3    H175902   5.776   4.227   4.744  0.5239 -2.0111  0.5093
18137TIP3    H275903   5.646   4.275   4.805  1.6174  0.5766  0.9136
18138TIP3   OH275904   3.644   2.370  15.887 -0.4350 -0.7896 -0.4400
18138TIP3    H175905   3.559   2.409  15.904  1.0228  2.1391  0.7253
18138TIP3    H275906   3.661   2.315  15.964  0.3947  1.8696  1.3960
18139TIP3   OH275907   2.262   3.795   5.043  0.4948 -0.3500  0.7365
18139TIP3    H175908   2.250   3.876   4.993 -0.3021 -0.9083  0.0034
18139TIP3    H275909   2.173   3.766   5.063  0.7238 -1.9491 -0.4795
18140TIP3   OH275910   4.442   1.586   2.387 -0.3599 -0.1653  0.5371
18140TIP3    H175911   4.388   1.598   2.309 -0.8954  1.9449  1.1633
18140TIP3    H275912   4.531   1.601   2.357 -0.7047  2.3649  0.5782
18141TIP3   OH275913   4.870   3.501  15.234 -0.1867 -0.2441 -0.1174
18141TIP3    H175914   4.921   3.560  15.290  1.1130 -2.1253  0.8038
18141TIP3    H275915   4.787   3.491  15.280 -0.8743  1.6740 -0.8529
18142TIP3   OH275916   4.542   4.094   2.911 -0.2828  0.5259  0.1568
18142TIP3    H175917   4.524   4.098   2.817 -0.9547 -0.3163  0.2384
18142TIP3    H275918   4.461   4.061   2.950 -0.1564  1.2515  1.0910
18143TIP3   OH275919   1.379   2.741  13.305 -0.1667 -0.3910  0.2110
18143TIP3    H175920   1.306   2.684  13.283 -0.2732 -0.2074  0.0798
18143TIP3    H275921   1.441   2.730  13.232 -0.5727  0.3069 -0.2504
18144TIP3   OH275922   5.396   3.457  15.426 -0.7336  0.3266  0.1456
18144TIP3    H175923   5.472   3.514  15.416 -0.8139  0.4710  0.3566
18144TIP3    H275924   5.426   3.371  15.394 -1.1874  0.9292 -2.0640
18145TIP3   OH275925   4.027   1.896  11.713  0.1658 -0.0421  0.2058
18145TIP3    H175926   3.940   1.885  11.675 -0.0050  1.2005  0.1732
18145TIP3    H275927   4.029   1.835  11.787 -1.3035  0.9500  1.1159
18146TIP3   OH275928   5.667   6.420   1.720 -0.3504  0.0163 -0.0218
18146TIP3    H175929   5.738   6.408   1.657  1.3581  0.5916  1.6912
18146TIP3    H275930   5.592   6.447   1.667  0.0270 -2.7150 -2.1565
18147TIP3   OH275931   3.194   6.460   0.416 -0.4291  0.5795 -0.3885
18147TIP3    H175932   3.281   6.423   0.400 -1.5546 -2.3750 -0.3751
18147TIP3    H275933   3.194   6.480   0.510 -0.1699 -0.7187 -0.0894
18148TIP3   OH275934   2.673   2.992   2.785 -0.2334  0.7044  0.1067
18148TIP3    H175935   2.662   2.946   2.868  2.0231  0.7853  0.5201
18148TIP3    H275936   2.721   3.072   2.808  0.2638  0.8197 -1.2227
18149TIP3   OH275937   5.178   3.282   0.777  0.3118 -0.1059 -0.2564
18149TIP3    H175938   5.093   3.326   0.786  0.5288  0.1904  0.3867
18149TIP3    H275939   5.165   3.221   0.704 -0.4740 -0.1138 -0.1235
18150TIP3   OH275940   6.527   4.354   1.836  0.0701  0.5561 -0.1018
18150TIP3    H175941   6.471   4.418   1.790 -1.3217 -1.2217 -0.9942
18150TIP3    H275942   6.556   4.294   1.768  0.8105 -0.1709  0.8245
18151TIP3   OH275943   1.791   1.030  14.989 -0.0432  0.0255 -0.1762
18151TIP3    H175944   1.792   1.114  15.036 -0.8497  0.4963 -0.9580
18151TIP3    H275945   1.702   0.997  15.003 -0.4277  0.3575 -1.6470
18152TIP3   OH275946   3.160   4.718   0.957  0.4040 -0.2412 -0.3355
18152TIP3    H175947   3.119   4.665   1.026  0.7247  0.6466  0.5539
18152TIP3    H275948   3.195   4.653   0.896 -2.2002 -1.0704 -1.1119
18153TIP3   OH275949   2.565   4.516  16.399  0.4358 -0.4807  0.2136
18153TIP3    H175950   2.618   4.439  16.420 -0.2516 -1.0473 -0.0969
18153TIP3    H275951   2.596   4.544  16.313 -1.0311 -1.9672 -0.8574
18154TIP3   OH275952   3.107   0.626   0.735 -0.7581 -0.1036  0.4201
18154TIP3    H175953   3.052   0.554   0.766 -0.0824 -0.8987 -0.1716
18154TIP3    H275954   3.045   0.689   0.699 -1.3025 -2.3227 -3.1196
18155TIP3   OH275955   6.731   6.527   5.921  0.6044 -0.2695  0.1727
18155TIP3    H175956   6.760   6.489   6.004  0.3556 -1.0677 -0.0945
18155TIP3    H275957   6.651   6.575   5.944  1.8712  1.6169  0.8343
18156TIP3   OH275958   4.573   0.697   3.514 -0.7159 -0.2391  0.1007
18156TIP3    H175959   4.615   0.755   3.450 -0.2517  0.8479  1.3489
18156TIP3    H275960   4.622   0.615   3.508  0.0351  0.2206 -0.1523
18157TIP3   OH275961   6.241   4.015  13.346  0.0231 -0.1651  0.4612
18157TIP3    H175962   6.250   3.920  13.360 -0.4021 -0.3770 -0.6328
18157TIP3    H275963   6.193   4.045  13.423 -0.6531 -1.0001  0.3892
18158TIP3   OH275964   2.889   5.970   2.946  0.1801  0.3660  0.2722
18158TIP3    H175965   2.918   6.021   3.021  0.6418  2.1476 -1.0378
18158TIP3    H275966   2.959   5.907   2.931  1.2198  1.5503 -0.0440
18159TIP3   OH275967   6.379   6.125   5.491 -0.1422  0.4468  0.4428
18159TIP3    H175968   6.424   6.204   5.461 -0.7347  0.8346  0.5597
18159TIP3    H275969   6.404   6.058   5.427 -0.1862  0.8958 -0.0531
18160TIP3   OH275970   4.740   5.612   4.841  0.1035  0.2076  0.3676
18160TIP3    H175971   4.802   5.539   4.846 -0.2030 -0.1377 -0.5887
18160TIP3    H275972   4.734   5.631   4.747  0.3787  1.6364  0.6269
18161TIP3   OH275973   6.657   3.225  10.969  1.4056  0.1301  0.3469
18161TIP3    H175974   6.575   3.272  10.958  2.5817  2.2286 -0.0405
18161TIP3    H275975   6.679   3.196  10.880  1.8145  0.9400  0.1687
18162TIP3   OH275976   4.112   5.215  16.195 -0.3399 -0.1256 -0.2042
18162TIP3    H175977   4.120   5.195  16.288  1.2456 -2.1780 -0.7088
18162TIP3    H275978   4.026   5.255  16.186 -0.0745  1.2243  2.2871
18163TIP3   OH275979   5.734   0.335   3.222  0.0478 -0.2957  0.0072
18163TIP3    H175980   5.714   0.362   3.132  1.1494 -1.4284 -0.5946
18163TIP3    H275981   5.806   0.273   3.214  0.7920  0.2741  1.7603
18164TIP3   OH275982   2.130   6.580   3.198  0.2345 -0.5568 -0.6971
18164TIP3    H175983   2.065   6.553   3.133 -0.0598 -0.6835 -0.3585
18164TIP3    H275984   2.211   6.593   3.148 -0.4003  1.1007 -1.3817
18165TIP3   OH275985   1.054   6.284  14.862  0.3052  0.0383 -0.1903
18165TIP3    H175986   0.984   6.280  14.926  1.4114 -0.0480  1.0673
18165TIP3    H275987   1.126   6.329  14.907  2.1871 -2.6160 -0.2230
18166TIP3   OH275988   5.930   5.889   0.258  0.5703  0.3231 -0.0416
18166TIP3    H175989   5.880   5.814   0.225  2.9452 -0.8100 -1.2943
18166TIP3    H275990   5.946   5.868   0.350  1.5311 -0.9489 -0.4680
18167TIP3   OH275991   6.046   0.858   2.870  0.0509  0.1112 -0.3249
18167TIP3    H175992   6.056   0.918   2.944  0.9311 -0.4027 -0.0060
18167TIP3    H275993   6.131   0.813   2.864 -0.2867 -0.4469 -1.1276
18168TIP3   OH275994   1.817   2.403   1.152  0.4869 -0.0193 -0.4089
18168TIP3    H175995   1.847   2.431   1.065  0.2847  1.5184  0.0022
18168TIP3    H275996   1.816   2.483   1.204 -2.7541 -0.2278  0.0675
18169TIP3   OH275997   1.983   5.180   2.510 -0.4377  0.1850 -0.3461
18169TIP3    H175998   1.925   5.106   2.532 -0.3907  0.4770  0.7770
18169TIP3    H275999   2.071   5.143   2.516 -0.4318  0.2110 -0.2816
18170TIP3   OH276000   6.728   1.575  15.825  0.2960  0.0909 -0.0608
18170TIP3    H176001   6.661   1.532  15.878  0.1310  2.1375  1.5220
18170TIP3    H276002   6.678   1.626  15.761  0.4908 -2.1342 -2.1055
18171TIP3   OH276003   1.651   0.401   5.423  0.1502 -0.1595  0.5943
18171TIP3    H176004   1.742   0.380   5.401  0.2735  3.2760 -3.4556
18171TIP3    H276005   1.599   0.337   5.373  0.3374 -0.5150  0.8515
18172TIP3   OH276006   2.699   1.362  15.026 -0.2525  0.6316 -0.3978
18172TIP3    H176007   2.766   1.430  15.036 -0.6765  1.2179 -1.3840
18172TIP3    H276008   2.678   1.335  15.116  1.0789  0.6502 -0.0673
18173TIP3   OH276009   3.144   0.054   1.983  0.1905 -0.4628 -0.2456
18173TIP3    H176010   3.149   0.149   1.979  0.1105 -0.4726 -0.6616
18173TIP3    H276011   3.211   0.024   1.920  0.2607 -0.6802 -0.0694
18174TIP3   OH276012   2.060   3.981   1.592 -0.1402  0.0656 -0.1032
18174TIP3    H176013   1.998   4.022   1.531 -0.5004 -0.2521  0.0396
18174TIP3    H276014   2.061   3.889   1.566 -1.5204 -0.4057  1.3573
18175TIP3   OH276015   3.515   6.185   3.978  0.5045 -0.3797 -0.4817
18175TIP3    H176016   3.534   6.097   3.945 -2.6037 -0.9399 -1.0123
18175TIP3    H276017   3.442   6.173   4.039 -0.9630  1.9730 -1.6474
18176TIP3   OH276018   0.475   4.881  16.102 -0.3768 -0.1724  0.0577
18176TIP3    H176019   0.554   4.828  16.090 -0.8611 -1.1612  1.0939
18176TIP3    H276020   0.438   4.851  16.185 -2.9759 -1.2458 -1.3487
18177TIP3   OH276021   6.089   4.954   1.058  0.4142 -0.1374 -0.0536
18177TIP3    H176022   6.033   5.001   1.120  1.3461 -1.1842  1.6497
18177TIP3    H276023   6.027   4.907   1.002 -0.4644  1.4363 -0.4727
18178TIP3   OH276024   3.429   4.068  13.364 -0.4855 -0.0413 -0.1359
18178TIP3    H176025   3.483   3.990  13.350  0.4078  0.5682 -0.1764
18178TIP3    H276026   3.485   4.141  13.337  0.2493  1.0065  3.5939
18179TIP3   OH276027   0.113   0.125  15.866 -0.0134  0.3791 -0.4128
18179TIP3    H176028   0.181   0.135  15.932 -1.2367  1.6457  0.7517
18179TIP3    H276029   0.080   0.214  15.852 -0.6432 -0.0423 -1.7932
18180TIP3   OH276030   3.745   1.308  13.182 -0.5239  0.0962  0.0506
18180TIP3    H176031   3.827   1.301  13.133 -0.1749 -2.8173  0.8568
18180TIP3    H276032   3.766   1.364  13.256  0.4588  0.1939 -0.2932
18181TIP3   OH276033   3.283   2.965   3.109 -0.3548 -0.3879  0.1983
18181TIP3    H176034   3.191   2.990   3.115 -0.4662 -0.9647  1.0738
18181TIP3    H276035   3.323   3.030   3.051 -2.3041 -2.8969 -4.5528
18182TIP3   OH276036   1.042   0.166   2.285 -0.1091 -0.0626  0.2445
18182TIP3    H176037   1.112   0.202   2.230 -0.3382 -0.6313 -0.4398
18182TIP3    H276038   1.083   0.093   2.332 -0.4541 -1.0319 -0.8965
18183TIP3   OH276039   3.184   4.149  14.688  0.2590 -0.2815 -0.1719
18183TIP3    H176040   3.118   4.086  14.718 -0.0020  0.2966  0.5187
18183TIP3    H276041   3.248   4.096  14.641 -0.5081 -0.9069 -0.5368
18184TIP3   OH276042   0.205   3.056   2.057  0.7265  0.2269 -0.3567
18184TIP3    H176043   0.112   3.079   2.051  0.3316 -0.9431  0.8025
18184TIP3    H276044   0.243   3.119   2.118 -0.0950 -1.3186  1.8889
18185TIP3   OH276045   5.770   1.258   1.957  0.5061  0.1695  0.5395
18185TIP3    H176046   5.687   1.213   1.974  1.1891 -0.7529  1.4976
18185TIP3    H276047   5.824   1.241   2.034  1.9749 -0.1312 -0.5086
18186TIP3   OH276048   3.092   4.370  14.262 -0.4531  0.3178 -0.6532
18186TIP3    H176049   3.083   4.401  14.352  0.6588  0.8446 -0.6964
18186TIP3    H276050   3.156   4.299  14.267  0.7173  1.2846 -1.1802
18187TIP3   OH276051   1.353   4.387   4.521  0.4348 -0.0352 -0.0637
18187TIP3    H176052   1.311   4.309   4.484  1.2282 -0.4639 -0.0696
18187TIP3    H276053   1.280   4.448   4.537 -0.0729 -0.3460 -1.0858
18188TIP3   OH276054   4.922   4.384  10.775 -0.7366  0.0144 -0.3437
18188TIP3    H176055   4.974   4.399  10.854 -1.5045  0.3454  0.1140
18188TIP3    H276056   4.925   4.290  10.762 -2.6845 -0.4029  1.5900
18189TIP3   OH276057   4.792   5.062   2.217  1.1430  0.6617  0.2720
18189TIP3    H176058   4.746   5.131   2.169 -0.7620  0.4071  1.6159
18189TIP3    H276059   4.733   4.987   2.212  1.7777  0.0717  1.4176
18190TIP3   OH276060   1.637   1.907  13.335  0.4077  0.1461 -0.2007
18190TIP3    H176061   1.729   1.906  13.363  0.1115  1.3093  0.9358
18190TIP3    H276062   1.640   1.939  13.244  1.1559 -0.3908 -0.3742
18191TIP3   OH276063   5.698   1.049  12.128  0.2133  0.3033 -0.3967
18191TIP3    H176064   5.656   0.974  12.086  0.1959  1.6040 -2.8668
18191TIP3    H276065   5.630   1.116  12.132  0.3720  0.4138  1.3070
18192TIP3   OH276066   4.684   1.239   6.713  0.1098  0.4401 -0.4365
18192TIP3    H176067   4.611   1.267   6.768  0.0887  0.6386 -0.5668
18192TIP3    H276068   4.646   1.173   6.655  0.3698 -0.5659  0.5061
18193TIP3   OH276069   3.665   1.018  11.291 -0.0604  0.2573  0.0464
18193TIP3    H176070   3.635   1.057  11.373  1.5757  0.6257  0.5039
18193TIP3    H276071   3.756   0.995  11.307 -0.1942 -1.2752 -1.1176
18194TIP3   OH276072   0.061   1.340  13.033 -0.0630  0.2098 -0.4510
18194TIP3    H176073   0.140   1.296  13.001  1.6092  1.2329  1.9169
18194TIP3    H276074   0.058   1.422  12.985  1.4604  0.9911  0.6969
18195TIP3   OH276075   4.640   6.380  11.952  0.7950 -1.0645  0.3775
18195TIP3    H176076   4.616   6.287  11.957  0.8846 -1.1841 -0.9920
18195TIP3    H276077   4.733   6.379  11.931  0.8337 -0.6621  0.5296
18196TIP3   OH276078   3.440   0.498   3.893  0.7478  0.0589 -0.2207
18196TIP3    H176079   3.490   0.439   3.949  0.4520 -0.1404 -0.1603
18196TIP3    H276080   3.468   0.586   3.918 -0.3326  0.0500  1.1786
18197TIP3   OH276081   6.729   3.266   5.623  0.2079  0.4443  0.4694
18197TIP3    H176082   6.748   3.173   5.635  1.0948  0.6074  0.3884
18197TIP3    H276083   6.639   3.269   5.591  0.3513 -0.4139 -0.0281
18198TIP3   OH276084   2.294   5.656  14.546  0.2645 -0.2109  0.1571
18198TIP3    H176085   2.230   5.658  14.617 -1.1191  1.9092 -1.0812
18198TIP3    H276086   2.370   5.704  14.580  0.4783 -1.0769  0.9376
18199TIP3   OH276087   0.511   6.121   4.726  0.4805 -0.0398 -0.2633
18199TIP3    H176088   0.471   6.162   4.649 -0.5512  0.2812  0.4329
18199TIP3    H276089   0.600   6.101   4.698  0.1256  0.0690 -1.5495
18200TIP3   OH276090   2.579   3.436   5.905 -0.1900  0.4191 -0.0720
18200TIP3    H176091   2.540   3.480   5.980 -0.3277 -0.7553  0.5777
18200TIP3    H276092   2.673   3.433   5.924  0.0120  1.6660 -0.7912
18201TIP3   OH276093   1.556   6.384  16.363  0.3254  0.8234  0.3260
18201TIP3    H176094   1.622   6.340  16.309  1.1561  0.7563  1.3512
18201TIP3    H276095   1.472   6.358  16.326  0.7623 -1.6818  0.9060
18202TIP3   OH276096   0.331   3.922   4.968  0.3729  0.1031  0.1400
18202TIP3    H176097   0.253   3.907   4.914 -0.9116 -1.5284  2.3235
18202TIP3    H276098   0.345   4.016   4.962 -3.4075  0.9646  1.6944
18203TIP3   OH276099   1.308   2.293   1.974  0.5210  0.6934 -0.0140
18203TIP3    H176100   1.400   2.308   1.994  0.9561  0.8759 -1.9403
18203TIP3    H276101   1.287   2.360   1.909  0.1655 -1.6832 -2.5361
18204TIP3   OH276102   2.922   2.491   1.290  0.0252 -0.1061  0.2729
18204TIP3    H176103   2.868   2.450   1.222 -0.5628  0.5321  0.3407
18204TIP3    H276104   2.875   2.473   1.371 -0.1694  0.5922  0.3158
18205TIP3   OH276105   2.216   4.621  15.682 -0.6741  0.2759 -0.2822
18205TIP3    H176106   2.226   4.663  15.767  0.8376  0.6094 -0.5849
18205TIP3    H276107   2.234   4.528  15.699 -2.9174 -0.1136  0.1902
18206TIP3   OH276108   5.532   6.135   1.295  0.4598  0.3039 -0.6385
18206TIP3    H176109   5.533   6.155   1.389 -1.9302 -0.4903 -0.3828
18206TIP3    H276110   5.564   6.044   1.290  3.0197  1.1387 -0.9237
18207TIP3   OH276111   4.400   2.347   2.502 -0.0506 -0.0383 -0.2464
18207TIP3    H176112   4.434   2.353   2.413  0.4112  0.5487 -0.0349
18207TIP3    H276113   4.422   2.258   2.531  0.5913  0.0653 -0.4011
18208TIP3   OH276114   3.096   5.306  13.700  0.8019  0.2150 -0.0240
18208TIP3    H176115   3.046   5.325  13.621 -1.5879  0.3592  1.4174
18208TIP3    H276116   3.049   5.352  13.770  1.8234 -1.2432  1.7307
18209TIP3   OH276117   4.630   5.080  15.312  0.2276  0.4762 -0.7050
18209TIP3    H176118   4.602   5.106  15.400  1.3176  0.3529 -0.3001
18209TIP3    H276119   4.569   5.123  15.253 -0.3949  0.7273  0.1104
18210TIP3   OH276120   6.517   0.907   4.016 -0.0427 -0.1585  0.5125
18210TIP3    H176121   6.464   0.884   3.940  0.5310 -0.0755  0.0821
18210TIP3    H276122   6.483   0.992   4.045 -1.4623 -1.0189  1.4668
18211TIP3   OH276123   1.000   5.586   6.027 -0.2701 -0.3741 -0.7478
18211TIP3    H176124   1.056   5.649   6.073 -1.4699  0.0845  0.1331
18211TIP3    H276125   1.019   5.602   5.934  0.1731  0.5982 -0.5099
18212TIP3   OH276126   2.692   3.095  15.773 -0.2569 -0.2123  0.2067
18212TIP3    H176127   2.712   3.130  15.859 -1.3396  1.2987 -0.1121
18212TIP3    H276128   2.706   3.169  15.713 -0.9662 -0.8040 -0.7218
18213TIP3   OH276129   5.773   2.734  14.771  0.2460  0.6220 -0.1156
18213TIP3    H176130   5.735   2.649  14.794 -0.5267  0.6835 -1.0669
18213TIP3    H276131   5.860   2.733  14.810 -0.1003 -0.2282  0.6749
18214TIP3   OH276132   5.603   5.164  14.747 -0.1727 -0.5882 -0.2013
18214TIP3    H176133   5.556   5.243  14.722  3.0672  2.1379  1.4743
18214TIP3    H276134   5.582   5.101  14.678 -1.1103  2.4896 -3.0079
18215TIP3   OH276135   2.807   1.815   3.873 -0.6737  0.2790 -0.2325
18215TIP3    H176136   2.727   1.778   3.910 -0.7736 -0.9210 -1.5412
18215TIP3    H276137   2.837   1.750   3.810 -0.1330  1.8618 -1.7220
18216TIP3   OH276138   0.786   0.814  13.920  0.6022  0.1574  0.2573
18216TIP3    H176139   0.839   0.839  13.844  1.3717 -0.2692  0.6438
18216TIP3    H276140   0.849   0.808  13.992  0.3238 -1.9742  0.3853
18217TIP3   OH276141   3.842   3.984  16.921  0.2081 -0.0271 -0.2159
18217TIP3    H176142   3.843   3.951  16.832  0.0441 -0.5594 -0.0239
18217TIP3    H276143   3.827   4.078  16.912  0.5818 -0.0149 -0.7643
18218TIP3   OH276144   3.993   5.768   4.080 -0.2372  0.1278  0.9369
18218TIP3    H176145   3.985   5.839   4.145  1.2390 -0.1962  1.5097
18218TIP3    H276146   4.087   5.753   4.073 -0.3631  0.0794 -1.2396
18219TIP3   OH276147   0.236   1.083   6.127  0.3526 -0.0096  0.2696
18219TIP3    H176148   0.282   1.001   6.146 -1.1385 -0.5879  1.6660
18219TIP3    H276149   0.184   1.100   6.205  0.3622  2.1257 -0.1237
18220TIP3   OH276150   4.757   4.740  17.103  0.2670  0.0487  1.0706
18220TIP3    H176151   4.749   4.724  17.009  0.4542 -0.8187  1.1975
18220TIP3    H276152   4.850   4.728  17.121 -0.2109 -3.4506  1.9790
18221TIP3   OH276153   4.199   5.918   1.917  0.2063  0.5023  0.0699
18221TIP3    H176154   4.294   5.928   1.920  0.4282 -1.3998  1.7091
18221TIP3    H276155   4.177   5.878   2.001 -2.1195  1.3137 -0.0901
18222TIP3   OH276156   6.415   3.873  11.783  0.3055  0.2202  0.1006
18222TIP3    H176157   6.466   3.939  11.737 -0.4646 -0.5423 -1.9639
18222TIP3    H276158   6.473   3.797  11.788 -0.5092 -0.6532 -2.2628
18223TIP3   OH276159   1.897   5.077   0.433 -0.0037  0.4233 -0.0865
18223TIP3    H176160   1.872   4.992   0.396 -1.0995  0.5106  0.4230
18223TIP3    H276161   1.979   5.059   0.479 -0.0072 -0.2622 -0.3309
18224TIP3   OH276162   4.591   6.655   2.203 -0.4866 -0.5180 -0.1296
18224TIP3    H176163   4.664   6.678   2.260 -0.2352 -1.0370 -0.2388
18224TIP3    H276164   4.529   6.727   2.213  0.0755 -0.0337 -0.1021
18225TIP3   OH276165   3.396   3.174   6.125 -0.1205  0.1019 -0.2786
18225TIP3    H176166   3.352   3.161   6.041  1.4779 -2.0539 -0.8824
18225TIP3    H276167   3.355   3.111   6.184  1.0633 -0.8633 -0.4420
18226TIP3   OH276168   1.685   5.670   5.114  0.0019 -0.0743 -0.2413
18226TIP3    H176169   1.725   5.745   5.070 -0.7845  0.5953  0.1842
18226TIP3    H276170   1.759   5.623   5.152  0.6301 -0.2341 -1.5858
18227TIP3   OH276171   6.543   3.737  12.368  0.5150 -0.4382  0.1445
18227TIP3    H176172   6.620   3.793  12.359 -0.2068  0.8104  1.3349
18227TIP3    H276173   6.571   3.669  12.430  1.2826 -1.2325 -1.0350
18228TIP3   OH276174   6.800   4.515  13.823 -0.4617  0.3571 -0.2613
18228TIP3    H176175   6.710   4.488  13.843 -1.0117 -0.2004 -3.1146
18228TIP3    H276176   6.790   4.586  13.760  1.0446 -0.9792 -2.1166
18229TIP3   OH276177   2.078   6.763  15.799  0.1773  0.0558 -0.1153
18229TIP3    H176178   2.055   6.851  15.830 -0.2539 -0.6025  1.5152
18229TIP3    H276179   2.074   6.770  15.703  2.3123  2.3832 -0.1394
18230TIP3   OH276180   0.027   5.973  12.860  0.1002 -0.7825  0.3862
18230TIP3    H176181  -0.030   5.920  12.804 -1.2457  1.5082 -0.5400
18230TIP3    H276182  -0.015   6.059  12.863  1.5864 -0.0433  2.7473
18231TIP3   OH276183   6.154   0.282   3.639 -0.5812 -0.1696 -0.7497
18231TIP3    H176184   6.089   0.297   3.708  0.0344  0.2947 -0.2552
18231TIP3    H276185   6.212   0.358   3.644  0.2406 -0.7713 -0.9006
18232TIP3   OH276186   0.708   5.316   1.861  0.0612  0.2302 -0.0910
18232TIP3    H176187   0.791   5.360   1.840 -0.2520  0.5649 -0.6636
18232TIP3    H276188   0.645   5.354   1.800 -1.1117  1.8691  2.0204
18233TIP3   OH276189   2.557   4.130  15.715 -0.4192  0.2134  0.5406
18233TIP3    H176190   2.535   4.068  15.646  0.2268 -0.8409  1.2637
18233TIP3    H276191   2.509   4.210  15.691 -1.2369 -0.5373 -0.4100
18234TIP3   OH276192   3.417   4.377  10.763  0.1492  0.3022  0.3251
18234TIP3    H176193   3.445   4.452  10.711  1.6642 -0.2085  0.3540
18234TIP3    H276194   3.344   4.410  10.815  0.4849  1.6283  0.0058
18235TIP3   OH276195   0.220   2.987   0.698 -0.0999  0.2378 -0.5073
18235TIP3    H176196   0.206   2.898   0.730  1.6305  0.3518  0.6845
18235TIP3    H276197   0.133   3.026   0.697 -0.5351 -0.5272  1.8678
18236TIP3   OH276198   1.067   0.953   1.910 -0.1274  0.2758  0.1198
18236TIP3    H176199   1.115   0.925   1.833  0.2500  1.0696  0.0545
18236TIP3    H276200   1.022   0.874   1.940 -0.6956  0.0621 -1.2072
18237TIP3   OH276201   4.225   5.400  12.258  0.8243  0.6079 -0.2913
18237TIP3    H176202   4.134   5.407  12.288  1.1407  2.5318  0.3468
18237TIP3    H276203   4.277   5.430  12.333  2.0524 -1.0996 -0.4137
18238TIP3   OH276204   6.798   6.142   3.207 -0.1606 -0.4437  0.3490
18238TIP3    H176205   6.814   6.048   3.212 -0.2915 -0.4183  1.3589
18238TIP3    H276206   6.885   6.182   3.211 -0.1945 -0.4685  1.4594
18239TIP3   OH276207   2.698   1.774   5.596 -0.3518 -0.5799 -0.3858
18239TIP3    H176208   2.725   1.824   5.673  0.4412  0.0597 -1.0642
18239TIP3    H276209   2.692   1.838   5.525  1.8372 -1.5559 -1.5622
18240TIP3   OH276210   1.881   5.645  14.896  0.2694  0.2294 -0.5575
18240TIP3    H176211   1.821   5.696  14.951  2.2681  1.6007  0.4872
18240TIP3    H276212   1.850   5.555  14.903 -1.3547  0.8171  0.3279
18241TIP3   OH276213   2.443   4.927   1.701  0.0483 -1.0560  0.0342
18241TIP3    H176214   2.510   4.862   1.724 -0.1553 -1.1395  0.3860
18241TIP3    H276215   2.492   4.997   1.657  0.4220 -0.9488  0.6082
18242TIP3   OH276216   0.386   5.001   3.341 -1.2159  0.0869  0.0075
18242TIP3    H176217   0.442   5.057   3.288  0.2591 -0.5711  0.7940
18242TIP3    H276218   0.354   4.935   3.279 -0.9675  0.3670 -0.4280
18243TIP3   OH276219   2.934   4.976   0.245 -0.2951 -0.4241  0.1582
18243TIP3    H176220   2.904   5.061   0.276 -1.4301 -0.5391 -0.5664
18243TIP3    H276221   2.897   4.913   0.307 -3.2679 -0.7281 -1.7037
18244TIP3   OH276222   0.498   1.867   4.299 -0.0204 -0.2634  0.1593
18244TIP3    H176223   0.466   1.912   4.221  2.0045 -1.4964 -1.4469
18244TIP3    H276224   0.437   1.894   4.368 -1.5498  1.2953 -1.6917
18245TIP3   OH276225   3.431   6.778  14.453  0.6220  0.3054 -0.5609
18245TIP3    H176226   3.443   6.739  14.366  0.4967  0.4732 -0.6562
18245TIP3    H276227   3.420   6.872  14.435  0.6088  0.3419 -0.3622
18246TIP3   OH276228   4.446   0.579  11.098 -1.0327 -0.3418  0.4893
18246TIP3    H176229   4.490   0.540  11.173  0.9902 -0.2615 -0.5813
18246TIP3    H276230   4.512   0.579  11.029 -2.3866  0.8597 -0.8841
18247TIP3   OH276231   4.068   1.697  12.994  0.1905  0.2990 -0.4366
18247TIP3    H176232   4.139   1.665  12.938  0.5261  0.3153 -0.0178
18247TIP3    H276233   4.082   1.654  13.078  1.0567  2.0278  0.3642
18248TIP3   OH276234   2.772   4.580   2.038  0.3133 -0.2649 -0.1250
18248TIP3    H176235   2.777   4.501   2.093  0.6590  1.0342  1.7979
18248TIP3    H276236   2.860   4.616   2.039 -0.2514  1.1798  0.6403
18249TIP3   OH276237   6.008   6.275  12.470  0.2673 -0.1314 -0.0607
18249TIP3    H176238   6.048   6.245  12.388  1.4648 -0.9300  0.7704
18249TIP3    H276239   6.018   6.201  12.530 -1.1579  0.2055  0.6350
18250TIP3   OH276240   0.684   4.316  12.722  0.2260 -0.4277  0.0209
18250TIP3    H176241   0.623   4.389  12.720  2.3152  1.4499 -2.5132
18250TIP3    H276242   0.768   4.355  12.745  1.1401 -2.2766  0.0219
18251TIP3   OH276243   4.624   1.980  17.022 -0.3647 -0.4860  0.1127
18251TIP3    H176244   4.562   2.045  16.988  0.0196  0.1897  0.6694
18251TIP3    H276245   4.617   1.988  17.117 -0.9705 -1.9122  0.2042
18252TIP3   OH276246   3.466   5.452   1.946 -0.3456  0.0477 -0.1252
18252TIP3    H176247   3.506   5.460   2.033  0.5279  1.8848 -0.6377
18252TIP3    H276248   3.484   5.362   1.919  2.0185  0.2917  0.4040
18253TIP3   OH276249   0.260   1.665  16.122  0.2797 -0.0057 -0.0873
18253TIP3    H176250   0.237   1.684  16.213  1.1470 -0.7320  0.2966
18253TIP3    H276251   0.287   1.573  16.123 -1.0906 -0.4402 -1.3649
18254TIP3   OH276252   6.423   2.917  11.304 -0.0394 -0.1502 -0.0634
18254TIP3    H176253   6.495   2.897  11.244 -0.9702  0.2065 -1.3461
18254TIP3    H276254   6.375   2.834  11.312 -0.4905  0.0448 -0.6417
18255TIP3   OH276255   3.201   2.087   0.202  0.5417 -0.8864 -0.6192
18255TIP3    H176256   3.264   2.125   0.263 -0.6837  1.6193 -0.7852
18255TIP3    H276257   3.115   2.107   0.241 -0.2340 -0.3496 -2.4981
18256TIP3   OH276258   4.135   2.146   2.587  0.5198 -0.8853  0.1534
18256TIP3    H176259   4.215   2.144   2.639  0.5243  1.4870  0.3277
18256TIP3    H276260   4.115   2.239   2.576 -0.0995 -1.2709 -3.1505
18257TIP3   OH276261   6.552   2.239  14.900  0.2291 -0.6212  0.3991
18257TIP3    H176262   6.566   2.200  14.986 -1.1508  1.2758  1.5613
18257TIP3    H276263   6.523   2.329  14.918  0.3744  0.0059 -2.0590
18258TIP3   OH276264   4.707   5.992   2.248  0.5471  0.3626 -0.1115
18258TIP3    H176265   4.652   6.070   2.233 -0.0071 -0.1402 -0.7892
18258TIP3    H276266   4.644   5.920   2.252  0.7838  0.1978  3.1259
18259TIP3   OH276267   1.361   2.218   5.215  0.4754  0.2383 -0.1971
18259TIP3    H176268   1.378   2.312   5.215 -1.0017  0.5319  0.1675
18259TIP3    H276269   1.267   2.211   5.199  0.7529 -1.2302 -1.4090
18260TIP3   OH276270   0.298   1.253   0.107 -0.0042 -0.2706  0.6523
18260TIP3    H176271   0.363   1.284   0.043  1.4762 -1.3114  1.5804
18260TIP3    H276272   0.323   1.162   0.124 -1.8188 -0.7477  0.9480
18261TIP3   OH276273   0.736   4.470   2.946 -0.2214  0.0282  0.9021
18261TIP3    H176274   0.732   4.543   2.884 -0.4149 -0.0938  0.7694
18261TIP3    H276275   0.815   4.422   2.921  0.2172  0.5081  1.3474
18262TIP3   OH276276   3.232   2.890  15.047  0.8473  0.1609 -0.2991
18262TIP3    H176277   3.224   2.830  14.973 -0.1025 -0.3044  0.1743
18262TIP3    H276278   3.261   2.834  15.120 -0.8561  0.0928  0.3572
18263TIP3   OH276279   3.296   0.554   1.204 -0.5318  0.0812  0.0504
18263TIP3    H176280   3.267   0.488   1.141 -0.8484 -1.4038  1.6612
18263TIP3    H276281   3.332   0.503   1.277  1.9214  1.7791  0.1290
18264TIP3   OH276282   1.381   5.236   4.413  0.0612  0.1647  0.2306
18264TIP3    H176283   1.422   5.149   4.403  1.4123  0.8911 -0.8755
18264TIP3    H276284   1.374   5.247   4.508  3.0637  0.2067  0.5484
18265TIP3   OH276285   4.477   3.172  13.667 -0.5324 -0.3315 -0.0195
18265TIP3    H176286   4.527   3.177  13.749 -1.2113  0.2032  0.3627
18265TIP3    H276287   4.506   3.089  13.628 -0.4569 -0.7718  0.9234
18266TIP3   OH276288   3.264   2.433  11.945  0.5369  0.0306  0.2556
18266TIP3    H176289   3.181   2.403  11.908  0.1903  1.5934 -0.3123
18266TIP3    H276290   3.330   2.375  11.906  0.0020  0.6119 -1.6190
18267TIP3   OH276291   4.895   2.873  16.454 -0.2543  0.2872 -0.4096
18267TIP3    H176292   4.959   2.812  16.492 -0.5019  1.9714  3.1201
18267TIP3    H276293   4.944   2.954  16.440 -0.8639  0.5803 -0.9043
18268TIP3   OH276294   2.396   0.461   5.900  0.4586  0.2162  1.0720
18268TIP3    H176295   2.455   0.386   5.912 -0.0919 -0.2888  0.6654
18268TIP3    H276296   2.436   0.532   5.951  0.8517 -0.4250  1.6644
18269TIP3   OH276297   4.517   4.087  12.671 -0.4774 -0.2693  0.2600
18269TIP3    H176298   4.605   4.065  12.700 -0.4165  0.0659  0.3400
18269TIP3    H276299   4.473   4.003  12.662  0.6571 -0.6725 -2.4061
18270TIP3   OH276300   2.681   0.764  11.853  0.2386  0.1588  0.3014
18270TIP3    H176301   2.637   0.803  11.778 -0.9682  0.6684  1.2237
18270TIP3    H276302   2.729   0.837  11.893  0.4013  0.0248  0.3503
18271TIP3   OH276303   5.338   3.025   4.243  0.2605  0.1380  0.5097
18271TIP3    H176304   5.341   2.930   4.239 -1.2173 -0.0065  1.9743
18271TIP3    H276305   5.337   3.053   4.151  0.6409 -1.2495  0.0669
18272TIP3   OH276306   3.864   1.525  15.756  0.0269 -0.2098 -0.0157
18272TIP3    H176307   3.955   1.499  15.746 -0.2210 -0.9326 -0.4974
18272TIP3    H276308   3.845   1.578  15.678 -0.5350 -1.7941 -1.0005
18273TIP3   OH276309   0.885   1.225   3.433  0.0536  0.1510  0.0568
18273TIP3    H176310   0.840   1.175   3.365 -1.2506 -0.1781  1.1250
18273TIP3    H276311   0.947   1.163   3.471  1.5157  0.6133 -1.4338
18274TIP3   OH276312   6.059   3.633   4.338  0.1602 -0.0021 -0.2702
18274TIP3    H176313   6.016   3.695   4.279 -0.1469 -1.6047 -1.8615
18274TIP3    H276314   6.149   3.665   4.347 -0.3123  1.2970 -0.0611
18275TIP3   OH276315   0.151   5.300  13.322 -0.2340 -0.3329  0.2532
18275TIP3    H176316   0.127   5.234  13.257 -0.7565 -1.1024  1.2065
18275TIP3    H276317   0.180   5.375  13.270  0.5868 -1.3776 -0.8489
18276TIP3   OH276318   4.113   5.420   4.041 -0.2169  0.3298 -0.4637
18276TIP3    H176319   4.062   5.500   4.054  0.9538  1.1932 -0.9784
18276TIP3    H276320   4.122   5.413   3.946  0.3465  0.0297 -0.3916
18277TIP3   OH276321   0.923   5.405  12.505 -0.8986  0.0189  0.0743
18277TIP3    H176322   0.940   5.431  12.596 -1.2353  3.1867 -0.6765
18277TIP3    H276323   1.002   5.429  12.458 -1.6227  0.5978 -0.8640
18278TIP3   OH276324   3.316   1.946  12.771  0.6132  0.1968  0.5200
18278TIP3    H176325   3.363   1.961  12.689 -1.1304  2.4660 -0.1725
18278TIP3    H276326   3.255   2.020  12.778  0.8061  0.1959  3.9772
18279TIP3   OH276327   4.295   2.752   1.376  0.7998  0.2811 -0.4400
18279TIP3    H176328   4.374   2.722   1.331  0.7805 -1.7463  0.7396
18279TIP3    H276329   4.314   2.739   1.469 -0.9216 -0.3266 -0.1317
18280TIP3   OH276330   3.820   1.241   4.233 -0.1799 -0.3831 -0.2875
18280TIP3    H176331   3.904   1.252   4.276  0.1409 -2.8442 -0.1455
18280TIP3    H276332   3.788   1.330   4.218  2.1291  0.5859  0.2365
18281TIP3   OH276333   1.980   5.023   5.864 -0.5723  0.3186  0.0363
18281TIP3    H176334   2.002   4.957   5.798 -0.2257  1.0949 -0.6248
18281TIP3    H276335   2.033   4.999   5.940 -1.8615 -1.3094  0.4972
18282TIP3   OH276336   6.727   2.254  11.310 -0.1078 -0.5151 -0.0430
18282TIP3    H176337   6.822   2.242  11.314 -0.1027 -0.6243 -0.4676
18282TIP3    H276338   6.713   2.344  11.342  0.0805 -0.7105  0.5959
18283TIP3   OH276339   6.378   5.125   1.850 -0.3211  0.3384 -0.4438
18283TIP3    H176340   6.465   5.159   1.872  0.1117 -0.6193 -0.5974
18283TIP3    H276341   6.393   5.069   1.773 -0.7744 -1.1755  0.5200
18284TIP3   OH276342   1.762   3.557  11.008  0.4530  0.5282  0.0678
18284TIP3    H176343   1.771   3.513  11.093  0.7565  1.4839  0.5487
18284TIP3    H276344   1.829   3.626  11.010 -0.2133  1.2063 -0.5259
18285TIP3   OH276345   3.952   6.673  10.741 -0.0023 -0.2350  0.1461
18285TIP3    H176346   3.891   6.644  10.674  1.0784 -0.3204 -0.8401
18285TIP3    H276347   3.933   6.619  10.817 -0.8412 -0.5671 -0.2918
18286TIP3   OH276348   1.878   4.944   0.096  0.0137  0.1722  0.4804
18286TIP3    H176349   1.801   4.998   0.079 -1.0502 -1.7130 -1.2864
18286TIP3    H276350   1.856   4.895   0.176 -1.2133 -1.1811 -0.6157
18287TIP3   OH276351   0.799   2.994   1.907 -0.3442  0.7303 -0.0221
18287TIP3    H176352   0.749   3.002   1.826 -1.7489  1.9968  0.9329
18287TIP3    H276353   0.865   3.062   1.902 -0.4875  0.8660 -0.0588
18288TIP3   OH276354   6.362   1.645   0.101  0.0142 -0.0053  0.5738
18288TIP3    H176355   6.399   1.660   0.014 -0.4275  0.6240  0.4811
18288TIP3    H276356   6.270   1.671   0.093 -0.1677 -0.4638  1.0891
18289TIP3   OH276357   4.487   4.217  13.605 -0.1032  0.6519 -0.4524
18289TIP3    H176358   4.530   4.300  13.584 -0.7823  1.3681  0.8467
18289TIP3    H276359   4.522   4.193  13.691 -1.1909  0.5109 -0.0271
18290TIP3   OH276360   3.260   4.290  12.513  0.2233  0.1304  0.1550
18290TIP3    H176361   3.278   4.213  12.459 -2.3191 -0.2307 -0.3396
18290TIP3    H276362   3.329   4.289  12.579  0.5783 -2.3008 -0.1328
18291TIP3   OH276363   2.867   2.346   0.583 -0.1080  0.1973  0.0770
18291TIP3    H176364   2.925   2.386   0.518 -0.2261 -0.1351 -0.2356
18291TIP3    H276365   2.864   2.409   0.655  0.3668  0.3706 -0.0537
18292TIP3   OH276366   4.215   5.615  16.677  0.8200  0.4851  0.8731
18292TIP3    H176367   4.267   5.695  16.677  0.0652  0.9878  1.3236
18292TIP3    H276368   4.268   5.552  16.726  1.6217  0.5538  0.1234
18293TIP3   OH276369   4.127   2.603   5.284  0.3348  0.4729  0.0549
18293TIP3    H176370   4.087   2.563   5.361  2.8021 -0.2619  1.0710
18293TIP3    H276371   4.194   2.540   5.257  0.6450  1.4888 -1.6781
18294TIP3   OH276372   4.394   0.751  11.932 -0.2329  0.2890 -0.1242
18294TIP3    H176373   4.311   0.720  11.896  0.1989  0.6697 -1.5108
18294TIP3    H276374   4.382   0.748  12.027 -1.1016 -1.6035 -0.2668
18295TIP3   OH276375   3.059   0.254  14.005  0.0185  0.4358  0.0355
18295TIP3    H176376   3.044   0.301  14.087 -0.8499 -1.2141  0.8696
18295TIP3    H276377   2.977   0.265  13.956 -0.3576 -0.5167  0.4222
18296TIP3   OH276378   4.750   2.640  10.709  0.5143 -0.1441  0.2947
18296TIP3    H176379   4.826   2.584  10.720 -0.8265 -2.6785 -2.1080
18296TIP3    H276380   4.783   2.717  10.662  1.6022 -1.3812 -1.0837
18297TIP3   OH276381   2.326   1.828  16.679  0.0589  0.1812 -0.4075
18297TIP3    H176382   2.412   1.867  16.663  0.8073 -1.3852 -0.3216
18297TIP3    H276383   2.336   1.736  16.654 -1.8699  0.1829 -1.3346
18298TIP3   OH276384   1.158   3.775  14.394 -0.1604 -0.5407 -0.4734
18298TIP3    H176385   1.147   3.801  14.302  1.9128 -0.9379 -0.8742
18298TIP3    H276386   1.078   3.806  14.436 -1.2654 -0.5169 -2.4371
18299TIP3   OH276387   0.081   5.929  15.047 -0.3973  0.0030 -0.0235
18299TIP3    H176388   0.075   6.003  14.987 -0.9661  0.0014  0.0230
18299TIP3    H276389   0.045   5.962  15.129 -1.5889 -0.6051 -0.2788
18300TIP3   OH276390   2.259   2.061  14.550 -0.7627 -0.5754  0.4297
18300TIP3    H176391   2.277   1.985  14.495 -0.7370 -0.2109 -0.0778
18300TIP3    H276392   2.296   2.135  14.501 -1.6351 -0.1102  0.4497
18301TIP3   OH276393   2.869   1.691  13.977  0.3148 -0.0465 -0.4686
18301TIP3    H176394   2.906   1.649  14.055 -1.4479  0.7456  0.8703
18301TIP3    H276395   2.817   1.622  13.935 -0.8551  0.1567  0.5597
18302TIP3   OH276396   2.641   3.273  11.555  0.2583  0.1179 -0.2076
18302TIP3    H176397   2.595   3.290  11.638 -0.3675 -0.8695 -0.3319
18302TIP3    H276398   2.590   3.321  11.490  0.7554  0.9019 -0.0203
18303TIP3   OH276399   2.092   4.754   5.988 -0.4486  0.2861 -0.2485
18303TIP3    H176400   2.078   4.694   6.061 -3.4061 -1.7145 -2.1942
18303TIP3    H276401   2.111   4.838   6.029 -1.1912 -0.8845  2.7823
18304TIP3   OH276402   1.829   0.620  11.491  0.3348 -0.0531  0.7933
18304TIP3    H176403   1.849   0.709  11.463  0.3360  0.5614  2.6136
18304TIP3    H276404   1.779   0.582  11.419 -0.3649  1.6954  0.3228
18305TIP3   OH276405   0.083   4.149   4.655 -0.5358 -0.4753  0.1834
18305TIP3    H176406   0.147   4.212   4.623 -0.5676 -0.4698  0.1310
18305TIP3    H276407   0.010   4.203   4.687 -0.2860 -0.4597  0.7399
18306TIP3   OH276408   3.835   5.751   2.765 -0.1063 -0.4473  0.0185
18306TIP3    H176409   3.922   5.790   2.753 -0.1789 -0.0167  0.8495
18306TIP3    H276410   3.800   5.745   2.676  0.2309  0.6717 -0.2142
18307TIP3   OH276411   4.261   2.179   1.095 -0.4222 -0.3233 -0.2294
18307TIP3    H176412   4.222   2.238   1.031 -0.5541 -1.2660 -1.0459
18307TIP3    H276413   4.297   2.107   1.043  3.7080  1.1091  0.2921
18308TIP3   OH276414   3.496   4.258  16.748  0.4315  0.5348  0.4061
18308TIP3    H176415   3.556   4.331  16.739  0.8512  0.0865 -0.6205
18308TIP3    H276416   3.427   4.275  16.684 -0.1857  0.7024  1.1028
18309TIP3   OH276417   0.137   0.661  16.238  0.5021 -0.5472 -0.2923
18309TIP3    H176418   0.115   0.730  16.174 -0.0777 -0.8728 -0.4499
18309TIP3    H276419   0.194   0.601  16.189  1.1966 -0.0733 -0.0913
18310TIP3   OH276420   1.722   2.025  14.597  0.1380  0.5904 -0.4827
18310TIP3    H176421   1.745   1.936  14.621  0.5880  0.5417 -1.0751
18310TIP3    H276422   1.775   2.044  14.519  0.3296  1.5017 -0.1464
18311TIP3   OH276423   4.031   1.625  16.847  0.4536 -0.4672  0.3915
18311TIP3    H176424   4.074   1.657  16.926  1.0181 -1.1464  0.3760
18311TIP3    H276425   4.003   1.704  16.801  1.7040  0.0008  0.4032
18312TIP3   OH276426   2.500   4.698  12.545  0.5304 -0.3816 -0.5787
18312TIP3    H176427   2.414   4.697  12.588  1.4976 -0.5062  1.4335
18312TIP3    H276428   2.514   4.790  12.523  1.1216  0.1280  1.7596
18313TIP3   OH276429   4.770   0.569  15.116  0.4327 -0.2662 -0.2909
18313TIP3    H176430   4.808   0.651  15.148  2.1245 -1.4104  0.8137
18313TIP3    H276431   4.824   0.501  15.155 -1.9101 -2.0058  0.1356
18314TIP3   OH276432   5.682   3.175   2.513 -0.2291 -0.3720  0.0710
18314TIP3    H176433   5.630   3.188   2.433  0.1670 -1.0558 -0.3075
18314TIP3    H276434   5.716   3.262   2.533 -1.3851  0.0624  0.2417
18315TIP3   OH276435   6.181   4.025   4.565 -0.2341 -0.2629  0.0406
18315TIP3    H176436   6.215   4.031   4.476 -0.2744  3.7437  0.1172
18315TIP3    H276437   6.088   4.004   4.555 -0.2633  0.2931 -0.8681
18316TIP3   OH276438   0.871   0.921   3.414 -0.2585 -0.1928  0.7919
18316TIP3    H176439   0.862   0.833   3.449 -0.1635 -0.9260 -0.9202
18316TIP3    H276440   0.807   0.973   3.461 -0.0277 -1.0746  2.1140
18317TIP3   OH276441   0.867   3.707   4.141  0.1023 -0.2468  0.3362
18317TIP3    H176442   0.905   3.639   4.085  0.1191  0.4271 -0.4814
18317TIP3    H276443   0.792   3.664   4.182  1.0829 -1.2578  1.1263
18318TIP3   OH276444   4.063   3.480   1.649  0.1732  0.2641 -0.1873
18318TIP3    H176445   3.986   3.505   1.599  0.3293  0.9775 -0.0829
18318TIP3    H276446   4.098   3.403   1.603 -1.6957 -1.3315  0.8822
18319TIP3   OH276447   0.993   4.234   5.023  0.0312 -0.6617  0.8312
18319TIP3    H176448   0.998   4.202   4.933  1.2174 -0.2252  0.7353
18319TIP3    H276449   1.080   4.221   5.059  0.0228  0.6869  1.3960
18320TIP3   OH276450   1.062   6.418   2.835  0.2957 -0.5529  0.4505
18320TIP3    H176451   1.137   6.438   2.780  0.5291 -1.3021  0.4907
18320TIP3    H276452   0.987   6.417   2.775  0.4716 -0.8521  0.2395
18321TIP3   OH276453   3.267   2.404   4.381  0.4486 -0.0629 -0.1265
18321TIP3    H176454   3.192   2.463   4.376  0.9638  0.5577 -0.6732
18321TIP3    H276455   3.229   2.316   4.379 -0.2859  0.2479  0.0692
18322TIP3   OH276456   5.725   1.570  11.843 -0.2612  0.8165 -0.5874
18322TIP3    H176457   5.638   1.578  11.880 -0.0331  0.2104  0.0881
18322TIP3    H276458   5.713   1.517  11.764 -1.0072  3.4445 -2.3925
18323TIP3   OH276459   1.703   0.588  11.211  0.6151  0.5520 -0.2095
18323TIP3    H176460   1.649   0.588  11.131  0.7607 -1.1065 -0.3421
18323TIP3    H276461   1.767   0.519  11.196  0.3586 -0.1010  1.5251
18324TIP3   OH276462   6.226   4.464  15.946 -0.1960 -0.1772  0.6310
18324TIP3    H176463   6.248   4.374  15.967  3.0859 -0.0394 -1.4665
18324TIP3    H276464   6.285   4.517  15.999  1.5785  0.4339 -1.7487
18325TIP3   OH276465   6.155   1.387  14.956 -0.2012 -1.2020 -0.4649
18325TIP3    H176466   6.065   1.400  14.926  0.0369  1.5834 -0.2338
18325TIP3    H276467   6.204   1.368  14.876 -0.9055 -2.6420 -0.6032
18326TIP3   OH276468   5.119   4.917  14.351  0.0720 -0.1859 -0.3781
18326TIP3    H176469   5.158   4.853  14.410  0.2887  0.2921  0.0020
18326TIP3    H276470   5.142   5.002  14.389 -0.6533  0.1128 -0.5875
18327TIP3   OH276471   2.684   1.016   6.045 -0.1383 -0.1353 -0.3135
18327TIP3    H176472   2.682   0.930   6.003 -1.9118 -0.0556 -0.4653
18327TIP3    H276473   2.774   1.047   6.032  0.0390 -1.1795 -1.8585
18328TIP3   OH276474   1.644   3.634  14.843  0.2359 -0.0777 -0.1689
18328TIP3    H176475   1.656   3.607  14.752 -1.0291  3.4762 -1.5609
18328TIP3    H276476   1.570   3.582  14.874 -0.8852  0.3092 -2.0316
18329TIP3   OH276477   6.016   4.795  11.184  0.0014 -0.2224  0.1391
18329TIP3    H176478   5.981   4.798  11.095 -1.1157  1.7949  0.5686
18329TIP3    H276479   6.020   4.702  11.206 -0.6154 -0.7077 -1.6736
18330TIP3   OH276480   1.403   3.579   5.509 -0.3430 -0.8077  0.3895
18330TIP3    H176481   1.328   3.639   5.520 -0.0702 -0.4168  0.1397
18330TIP3    H276482   1.438   3.569   5.598 -0.0257 -0.1070  0.3568
18331TIP3   OH276483   0.584   5.738  11.383 -0.4528  0.4920 -0.1853
18331TIP3    H176484   0.540   5.667  11.429  0.9477  0.8558  1.8368
18331TIP3    H276485   0.526   5.759  11.310 -1.0992 -2.4259 -0.6229
18332TIP3   OH276486   4.417   0.990   5.918 -0.1484  0.6772 -0.5559
18332TIP3    H176487   4.359   1.029   5.853 -1.2354  0.2497  0.1238
18332TIP3    H276488   4.385   0.900   5.928 -2.5108  1.6794  3.1926
18333TIP3   OH276489   0.327   1.206  12.973 -0.3931  0.2643  0.3193
18333TIP3    H176490   0.375   1.131  13.009 -1.4105 -0.1362  0.9057
18333TIP3    H276491   0.375   1.230  12.894  3.7467  3.0308  3.2548
18334TIP3   OH276492   4.128   6.478   2.286  0.1765 -0.0275  0.2780
18334TIP3    H176493   4.141   6.435   2.371 -1.4246 -0.8845  0.1207
18334TIP3    H276494   4.036   6.464   2.266 -0.0350  2.1559 -0.5396
18335TIP3   OH276495   1.725   2.243  12.710  0.3083 -0.5100  0.3438
18335TIP3    H176496   1.642   2.213  12.748 -0.3677  0.3825 -0.3723
18335TIP3    H276497   1.704   2.263  12.619  1.4395 -0.7279  0.0164
18336TIP3   OH276498   1.283   2.957   0.539 -0.0958 -0.6181 -0.3286
18336TIP3    H176499   1.262   2.958   0.633  3.0513  1.5447  0.5083
18336TIP3    H276500   1.279   3.049   0.513 -0.2759 -1.1217 -2.2074
18337TIP3   OH276501   6.520   5.593   1.345 -0.3902 -0.0029 -0.1630
18337TIP3    H176502   6.603   5.640   1.354  1.6415 -3.0706 -1.1871
18337TIP3    H276503   6.522   5.527   1.414 -2.3196  0.2522  0.1873
18338TIP3   OH276504   6.150   1.902  12.471 -0.2290  0.4025  0.5228
18338TIP3    H176505   6.159   1.945  12.386 -2.2269 -1.6532 -0.8401
18338TIP3    H276506   6.057   1.879  12.477  0.3360 -1.8595  2.0511
18339TIP3   OH276507   2.010   3.088   3.611 -0.3771 -0.0455 -0.4814
18339TIP3    H176508   2.026   3.092   3.517  0.3714 -1.9413 -0.4712
18339TIP3    H276509   1.944   3.021   3.622  2.1619 -2.5693  0.5421
18340TIP3   OH276510   5.884   2.899   3.543  0.1932 -0.4462 -0.1929
18340TIP3    H176511   5.812   2.872   3.599 -0.7898  0.2150 -1.0917
18340TIP3    H276512   5.880   2.994   3.543 -0.8997 -0.4141 -2.6366
18341TIP3   OH276513   0.223   4.360  12.344  0.0140  0.2542 -0.5508
18341TIP3    H176514   0.174   4.346  12.425 -1.3821 -0.7846 -1.5311
18341TIP3    H276515   0.198   4.449  12.316  0.2362  0.4840 -0.0316
18342TIP3   OH276516   6.405   2.394  14.155 -0.6139  0.3993 -0.0901
18342TIP3    H176517   6.497   2.368  14.150 -0.6052  0.4819 -0.3712
18342TIP3    H276518   6.374   2.355  14.237 -0.0811  1.1623  0.4931
18343TIP3   OH276519   3.015   5.033  16.184  0.3105  0.0416 -0.6121
18343TIP3    H176520   2.999   4.973  16.112  1.4637 -0.0314 -0.8276
18343TIP3    H276521   2.944   5.097  16.179 -1.1214 -1.4531 -0.1719
18344TIP3   OH276522   6.090   5.299   0.168 -0.1380  0.5469 -0.9274
18344TIP3    H176523   6.144   5.234   0.213 -2.4691 -0.7378  0.2146
18344TIP3    H276524   6.135   5.382   0.181  1.1129 -0.3471  0.6794
18345TIP3   OH276525   0.820   3.563   6.182  0.3223 -0.1917 -0.2740
18345TIP3    H176526   0.800   3.475   6.212  0.1529 -0.8827 -2.2564
18345TIP3    H276527   0.856   3.607   6.259 -2.1727 -1.0810  1.5364
18346TIP3   OH276528   6.084   2.005   0.964 -0.6592  0.4490  0.2723
18346TIP3    H176529   6.150   1.996   1.033 -1.5660  0.0336  1.0992
18346TIP3    H276530   6.014   1.944   0.989 -0.8585  0.0446 -1.1929
18347TIP3   OH276531   0.325   4.819   1.344  0.0360  0.0810 -0.2965
18347TIP3    H176532   0.322   4.840   1.251  0.6614  0.9578 -0.1283
18347TIP3    H276533   0.234   4.804   1.369 -0.1265 -0.2348 -1.0629
18348TIP3   OH276534   1.787   0.757   3.534  0.8215 -0.0586  0.1401
18348TIP3    H176535   1.710   0.721   3.491  0.0066  0.1864  1.3569
18348TIP3    H276536   1.837   0.798   3.463  0.4711 -1.2825 -0.8482
18349TIP3   OH276537   0.915   3.927  12.334 -0.2455  0.2168 -0.4770
18349TIP3    H176538   0.900   3.874  12.413 -0.6250 -1.0277 -1.3520
18349TIP3    H276539   1.004   3.906  12.308 -1.0031 -1.5787 -1.9069
18350TIP3   OH276540   1.272   2.207   2.396 -0.2909 -0.0810 -0.3891
18350TIP3    H176541   1.302   2.181   2.308  0.9531 -1.5886  0.4180
18350TIP3    H276542   1.197   2.149   2.413 -0.2960 -0.0526 -0.3166
18351TIP3   OH276543   3.290   3.883   3.735  0.5419 -0.3249  0.0990
18351TIP3    H176544   3.205   3.883   3.692  1.0323 -3.4942 -1.1726
18351TIP3    H276545   3.299   3.795   3.771  3.1951 -0.0350  0.3542
18352TIP3   OH276546   3.187   6.618  11.037  0.3452  0.5055 -0.0068
18352TIP3    H176547   3.127   6.631  11.111 -1.3060  3.6091 -1.7079
18352TIP3    H276548   3.227   6.703  11.023  3.0049 -0.7724 -0.8293
18353TIP3   OH276549   0.635   0.247  12.795  0.4096  0.1520 -0.2446
18353TIP3    H176550   0.713   0.192  12.797 -0.1238 -0.6008  0.3869
18353TIP3    H276551   0.650   0.308  12.723  2.4748  1.3392  1.1103
18354TIP3   OH276552   3.935   3.285   3.602 -0.4375 -0.1307 -0.4469
18354TIP3    H176553   3.850   3.248   3.624  0.5441 -1.5796  1.1474
18354TIP3    H276554   3.997   3.215   3.622  1.1855  1.0729 -1.0800
18355TIP3   OH276555   4.851   1.943   6.445 -0.3281  0.1355  0.5413
18355TIP3    H176556   4.862   1.879   6.516  1.1767 -0.8636 -0.5275
18355TIP3    H276557   4.767   1.921   6.405  0.7112 -2.0527 -0.5936
18356TIP3   OH276558   2.170   2.144  14.280 -0.4456 -0.4428  0.0179
18356TIP3    H176559   2.232   2.082  14.241 -1.2799 -1.3810  0.1559
18356TIP3    H276560   2.088   2.131  14.232 -0.6675  0.5022  0.1043
18357TIP3   OH276561   3.576   3.150   4.070 -0.5153  0.6204  0.0428
18357TIP3    H176562   3.638   3.107   4.128 -0.7323 -0.9462 -0.8199
18357TIP3    H276563   3.539   3.221   4.122  0.2391  0.0760  1.3637
18358TIP3   OH276564   6.095   0.119  13.334 -0.1640  0.3146  0.0684
18358TIP3    H176565   6.074   0.178  13.406 -1.2371 -0.1331  0.1476
18358TIP3    H276566   6.097   0.175  13.256 -0.3638  0.5849  0.2569
18359TIP3   OH276567   4.330   3.181   5.250  0.2635 -0.3966  0.3651
18359TIP3    H176568   4.406   3.134   5.285  1.0310 -0.2391 -1.0109
18359TIP3    H276569   4.329   3.159   5.157  1.1513  2.9190 -0.5457
18360TIP3   OH276570   1.883   5.988   1.664 -0.4912  0.1330  0.1418
18360TIP3    H176571   1.794   6.010   1.638  1.0005  3.7872 -2.7042
18360TIP3    H276572   1.919   6.068   1.701  2.7972  0.2526 -2.7284
18361TIP3   OH276573   6.365   4.594  16.843  0.0066  0.2511 -0.8809
18361TIP3    H176574   6.284   4.567  16.800 -0.4481 -0.1848  0.1849
18361TIP3    H276575   6.353   4.565  16.934  1.1292  0.6825 -0.5873
18362TIP3   OH276576   4.024   4.992  14.800  0.0968  0.2644  0.0969
18362TIP3    H176577   4.030   5.087  14.811 -0.8622  0.2154  1.1712
18362TIP3    H276578   4.027   4.979  14.705  0.7326  1.3218 -0.0435
18363TIP3   OH276579   2.068   0.189  11.667 -0.3939 -0.0082 -0.0501
18363TIP3    H176580   2.143   0.179  11.725 -0.9856 -0.4284  0.6565
18363TIP3    H276581   2.071   0.281  11.639 -1.4547  0.9168  2.5662
18364TIP3   OH276582   3.583   1.921  13.285  0.4139  0.1086  0.6461
18364TIP3    H176583   3.497   1.961  13.297  0.2776 -0.1436  0.5069
18364TIP3    H276584   3.626   1.932  13.370  1.0768  2.1926  0.1095
18365TIP3   OH276585   1.547   0.660  15.635  0.3909  0.2216 -0.3631
18365TIP3    H176586   1.593   0.647  15.552  0.2722  0.5541 -0.4829
18365TIP3    H276587   1.608   0.628  15.701  0.2960 -0.4823 -0.6113
18366TIP3   OH276588   0.288   2.163   3.010  0.1053 -0.0662 -0.2613
18366TIP3    H176589   0.260   2.254   3.015 -0.5148 -0.2959  1.0390
18366TIP3    H276590   0.206   2.113   3.008  0.4371 -0.5929 -0.9259
18367TIP3   OH276591   4.373   2.612   4.941 -0.3669  0.3348  0.3590
18367TIP3    H176592   4.343   2.572   5.023  1.9855  2.3206  2.3277
18367TIP3    H276593   4.317   2.690   4.931 -0.9548 -0.1474 -0.2226
18368TIP3   OH276594   0.291   4.116  12.975  0.0160 -0.0069 -1.2010
18368TIP3    H176595   0.375   4.085  12.940  1.0866  1.0596  0.2726
18368TIP3    H276596   0.242   4.036  12.994  1.4012 -0.7383 -0.4856
18369TIP3   OH276597   2.934   3.883  13.254  0.9328  0.0606 -0.2032
18369TIP3    H176598   3.000   3.916  13.315 -0.1015  0.4182  0.7557
18369TIP3    H276599   2.878   3.828  13.308 -0.5219  1.0776 -0.6172
18370TIP3   OH276600   1.103   6.675   4.818 -0.5209 -0.3994  0.3214
18370TIP3    H176601   1.115   6.762   4.857 -1.3092  0.2817 -0.8897
18370TIP3    H276602   1.012   6.651   4.840 -0.8761 -0.1403 -0.7875
18371TIP3   OH276603   4.641   6.816  14.362 -0.3855 -0.1413  0.1731
18371TIP3    H176604   4.733   6.844  14.361 -0.2843 -0.4846 -0.1814
18371TIP3    H276605   4.634   6.752  14.291 -1.2625  1.0237 -0.8342
18372TIP3   OH276606   4.113   2.128   4.830  0.1189 -0.0580  0.0707
18372TIP3    H176607   4.204   2.103   4.844  0.4177  0.4479 -0.8796
18372TIP3    H276608   4.103   2.132   4.734 -1.1196 -0.8837  0.1351
18373TIP3   OH276609   1.363   5.376  16.210 -0.0639  0.1869 -0.1064
18373TIP3    H176610   1.293   5.417  16.159  2.4761  1.3178 -2.9428
18373TIP3    H276611   1.423   5.448  16.231  1.6736 -1.1466 -0.2837
18374TIP3   OH276612   0.844   2.046  17.283 -0.2019 -0.4209 -0.1718
18374TIP3    H176613   0.833   2.091  17.199 -0.6903 -0.8056 -0.3186
18374TIP3    H276614   0.755   2.030  17.313 -0.0371 -1.0533  0.0009
18375TIP3   OH276615   6.068   1.852  12.733  0.1125 -0.3988  0.4904
18375TIP3    H176616   6.126   1.846  12.656 -0.5699 -0.9026 -0.0029
18375TIP3    H276617   6.036   1.942  12.732  2.0446  0.3634  1.6562
18376TIP3   OH276618   5.792   2.916   1.552 -0.1992 -0.6675 -0.4560
18376TIP3    H176619   5.784   2.873   1.637  0.4485 -0.5232 -0.3168
18376TIP3    H276620   5.750   2.856   1.491 -0.9497 -0.6271  0.0075
18377TIP3   OH276621   6.109   5.079   2.339  0.2200 -0.0860 -0.6772
18377TIP3    H176622   6.061   5.000   2.363  1.8229 -0.6403  0.8934
18377TIP3    H276623   6.067   5.108   2.257 -2.0768 -1.0757  0.0564
18378TIP3   OH276624   5.379   3.576   1.929 -0.3898  0.0959  0.2490
18378TIP3    H176625   5.355   3.483   1.919  0.0177  0.1808 -1.9232
18378TIP3    H276626   5.474   3.578   1.915 -0.5783  0.9682 -1.1461
18379TIP3   OH276627   5.162   0.205   1.747 -0.0253 -0.2689 -0.1294
18379TIP3    H176628   5.090   0.218   1.686 -1.1065 -0.3153  1.0813
18379TIP3    H276629   5.193   0.293   1.767  1.1085 -0.2961 -1.5738
18380TIP3   OH276630   0.468   2.869  11.921  0.0241 -0.0982  0.1508
18380TIP3    H176631   0.435   2.780  11.912 -0.5244  0.0890  0.2651
18380TIP3    H276632   0.437   2.897  12.007  0.7129 -0.0115  0.3751
18381TIP3   OH276633   5.720   6.645   2.135  0.2749  0.0750 -0.2615
18381TIP3    H176634   5.708   6.632   2.229 -0.2060  0.0794 -0.3184
18381TIP3    H276635   5.765   6.729   2.128 -1.0274  0.8223 -0.0829
18382TIP3   OH276636   0.541   1.644  16.497  0.1844  0.5952  0.1028
18382TIP3    H176637   0.545   1.739  16.481 -1.7200  0.7232  0.1649
18382TIP3    H276638   0.550   1.636  16.592 -1.0661  0.8556  0.2615
18383TIP3   OH276639   3.839   2.229  15.427  0.5036 -0.0488 -0.5029
18383TIP3    H176640   3.757   2.192  15.395 -1.3482  0.8158  2.8411
18383TIP3    H276641   3.871   2.282  15.354 -1.6568 -0.7657 -2.0671
18384TIP3   OH276642   2.732   5.962  17.101  0.1758 -0.2993 -0.2043
18384TIP3    H176643   2.827   5.977  17.101  0.1930 -0.2539 -1.6254
18384TIP3    H276644   2.700   6.019  17.031 -0.9256 -0.2433  0.3311
18385TIP3   OH276645   2.514   2.428   1.414  0.4664 -0.3210  0.1816
18385TIP3    H176646   2.581   2.391   1.472  1.4108  1.1049  0.0501
18385TIP3    H276647   2.496   2.359   1.351  0.9740 -1.1382  0.9042
18386TIP3   OH276648   0.911   6.302   1.437 -0.2583 -0.2490 -0.1129
18386TIP3    H176649   0.820   6.321   1.460  0.0253 -0.0385  0.8803
18386TIP3    H276650   0.953   6.282   1.521  0.8960  0.8365 -0.4115
18387TIP3   OH276651   5.307   1.956   5.701  0.1095 -0.4187 -0.2629
18387TIP3    H176652   5.274   1.965   5.790 -1.1670  0.0172 -0.7635
18387TIP3    H276653   5.300   1.862   5.683 -0.9936 -0.3224 -0.3988
18388TIP3   OH276654   4.339   5.479   3.813  0.2078  0.3503  0.0060
18388TIP3    H176655   4.420   5.428   3.804  0.7900  1.0977  0.9139
18388TIP3    H276656   4.327   5.489   3.907 -1.8025 -1.0674 -0.0176
18389TIP3   OH276657   0.744   0.788   2.388 -0.0626  0.5709  0.5517
18389TIP3    H176658   0.799   0.790   2.467  1.6616  1.7367 -0.5920
18389TIP3    H276659   0.786   0.723   2.331 -0.3213  0.9102 -0.0369
18390TIP3   OH276660   4.241   4.541  10.147  0.2413 -0.4809  0.1602
18390TIP3    H176661   4.224   4.476  10.215  1.5078 -1.5855 -0.5366
18390TIP3    H276662   4.159   4.545  10.096 -1.0510  1.0096  2.1795
18391TIP3   OH276663   4.322   3.927  15.770 -0.2862  0.0446  0.3464
18391TIP3    H176664   4.378   3.850  15.768 -0.4897 -0.1320  0.9966
18391TIP3    H276665   4.259   3.909  15.840 -1.2013  0.2078 -0.4146
18392TIP3   OH276666   1.467   1.719  12.093  0.5774  0.0705  0.4142
18392TIP3    H176667   1.374   1.707  12.075  0.7797  1.3806 -1.9095
18392TIP3    H276668   1.472   1.805  12.135  0.7767  0.3982 -0.2561
18393TIP3   OH276669   3.933   6.806  15.023  0.0083  0.5682 -0.4208
18393TIP3    H176670   3.963   6.863  14.952  1.2103  1.7733  0.9970
18393TIP3    H276671   3.899   6.728  14.978 -2.7202  2.7574 -2.5184
18394TIP3   OH276672   2.069   2.461  13.519  0.1011 -0.0268 -0.6974
18394TIP3    H176673   1.981   2.436  13.491 -0.9022 -0.4740  2.4632
18394TIP3    H276674   2.055   2.519  13.594  2.4969 -0.4361  0.1584
18395TIP3   OH276675   3.989   3.887   0.083 -0.1100  0.3730 -0.0179
18395TIP3    H176676   4.077   3.867   0.115  0.3185  1.1793 -0.6358
18395TIP3    H276677   3.933   3.879   0.160  0.4279 -0.5998  0.2868
18396TIP3   OH276678   0.851   3.543   4.476 -0.1339 -0.4335  0.0836
18396TIP3    H176679   0.888   3.627   4.450  1.4366 -1.0708  0.1589
18396TIP3    H276680   0.807   3.560   4.559 -0.4642  0.4512 -0.2582
18397TIP3   OH276681   3.291   0.414  10.482 -0.2565 -0.4213 -0.6451
18397TIP3    H176682   3.344   0.469  10.424  0.7922  0.5281  1.0989
18397TIP3    H276683   3.220   0.472  10.511 -0.2617 -0.6002 -0.3009
18398TIP3   OH276684   5.100   0.647   0.566 -0.5022  0.5503 -0.1633
18398TIP3    H176685   5.073   0.672   0.654 -0.3437 -0.8011  0.2879
18398TIP3    H276686   5.177   0.592   0.579 -0.2392  0.6526 -1.1730
18399TIP3   OH276687   3.099   1.789  12.757  0.4349 -0.0520 -0.8084
18399TIP3    H176688   3.183   1.834  12.768  0.2350  0.0358  0.4812
18399TIP3    H276689   3.044   1.824  12.826 -0.4092 -0.7297 -1.1216
18400TIP3   OH276690   3.630   2.513  14.714 -0.1343 -0.0589  0.0496
18400TIP3    H176691   3.622   2.582  14.648 -0.0197 -0.8667 -0.8186
18400TIP3    H276692   3.723   2.513  14.737 -0.1175  0.0019 -0.0178
18401TIP3   OH276693   6.234   1.584   0.546 -0.4807  0.1844  0.2381
18401TIP3    H176694   6.296   1.609   0.477 -1.4307 -0.7707 -1.0063
18401TIP3    H276695   6.207   1.496   0.523 -1.9962  0.4232  0.9858
18402TIP3   OH276696   5.196   1.822   6.003 -0.0683  0.1352 -0.1028
18402TIP3    H176697   5.129   1.813   5.935  0.7515  0.0378 -0.9250
18402TIP3    H276698   5.150   1.804   6.085 -0.6104 -2.0386 -0.8146
18403TIP3   OH276699   1.133   4.927   5.347  0.2231  0.2848  0.2373
18403TIP3    H176700   1.041   4.949   5.360  0.4412  2.2878 -1.1249
18403TIP3    H276701   1.162   4.893   5.431 -1.1123  2.1515  1.5232
18404TIP3   OH276702   5.733   0.499   5.315  0.3937  0.0751 -0.0146
18404TIP3    H176703   5.814   0.462   5.278  0.7699  1.2878 -0.4352
18404TIP3    H276704   5.663   0.448   5.275  0.7805  1.3225 -2.4545
18405TIP3   OH276705   3.670   2.966   0.317  0.2165  0.0534 -0.1595
18405TIP3    H176706   3.674   3.044   0.261  1.7833 -0.9117 -1.5138
18405TIP3    H276707   3.586   2.925   0.295 -0.0520  0.7002 -0.3683
18406TIP3   OH276708   6.542   4.328  12.682  0.3054  0.4909 -0.4975
18406TIP3    H176709   6.533   4.246  12.731 -0.1692  1.5122  1.2168
18406TIP3    H276710   6.548   4.301  12.591  0.4327 -1.4634  0.0441
18407TIP3   OH276711   3.934   1.912  12.895  0.4788  0.5468 -0.2682
18407TIP3    H176712   3.969   1.895  12.807  0.3969  1.0269 -0.3961
18407TIP3    H276713   3.982   1.853  12.952 -0.3511 -0.7050 -0.8047
18408TIP3   OH276714   6.269   3.351  16.549 -0.4207  0.5733 -0.1579
18408TIP3    H176715   6.240   3.424  16.494  0.3359  1.3723  0.4641
18408TIP3    H276716   6.354   3.326  16.513 -0.2364  0.6500  0.2146
18409TIP3   OH276717   5.056   6.792  11.590 -0.0317 -0.4979 -0.1409
18409TIP3    H176718   5.047   6.710  11.541  1.4191 -1.7650  1.5675
18409TIP3    H276719   5.125   6.839  11.544 -1.0028 -0.0832 -1.2463
18410TIP3   OH276720   3.751   0.156   4.990  0.3258 -0.8142  0.3551
18410TIP3    H176721   3.684   0.223   5.002  0.2239 -0.9041  0.2861
18410TIP3    H276722   3.804   0.161   5.070 -0.9878 -2.1198  1.3864
18411TIP3   OH276723   5.736   5.774  15.504  0.1388 -0.2687  0.0394
18411TIP3    H176724   5.675   5.718  15.455 -0.4146  0.3356  0.0218
18411TIP3    H276725   5.798   5.712  15.544  0.1904 -0.8199 -0.8519
18412TIP3   OH276726   4.461   3.094  11.350  0.0961  1.0230  0.0316
18412TIP3    H176727   4.501   3.084  11.264  3.5345  0.4247  1.5541
18412TIP3    H276728   4.490   3.017  11.400 -2.2503  1.0466  1.6451
18413TIP3   OH276729   1.910   0.241  14.910  0.0085  0.0510  0.8515
18413TIP3    H176730   1.918   0.172  14.844  0.4177 -0.3871  1.3561
18413TIP3    H276731   1.985   0.298  14.893  1.6264 -1.4426  2.5195
18414TIP3   OH276732   0.677   5.272  15.157 -0.0421  0.6373  0.3894
18414TIP3    H176733   0.651   5.202  15.215 -1.9679  0.3229 -0.7746
18414TIP3    H276734   0.773   5.267  15.155  0.0434  0.1281  2.7819
18415TIP3   OH276735   0.890   1.961   3.604 -0.3495  0.1458  0.1029
18415TIP3    H176736   0.950   1.963   3.530 -1.0253  0.2530 -0.4435
18415TIP3    H276737   0.834   1.885   3.589 -0.7542  0.3979  0.2867
18416TIP3   OH276738   1.168   4.139  15.302  0.2579  0.5298  0.0003
18416TIP3    H176739   1.112   4.134  15.224  0.3316 -1.0070  0.0115
18416TIP3    H276740   1.188   4.048  15.322  0.7562  0.9394  1.4590
18417TIP3   OH276741   5.749   2.947  14.580  0.1874  0.6399  0.3913
18417TIP3    H176742   5.661   2.981  14.597  0.4812  1.8509 -0.3652
18417TIP3    H276743   5.747   2.857  14.612 -1.3028  0.6748  0.4439
18418TIP3   OH276744   0.321   0.909   0.429  0.1424 -0.0444  0.7075
18418TIP3    H176745   0.355   0.970   0.495 -3.8832  0.4693  2.5814
18418TIP3    H276746   0.296   0.964   0.356 -1.9603  0.4522  1.7349
18419TIP3   OH276747   5.059   6.798  14.510  0.0171 -0.2816  0.6828
18419TIP3    H176748   5.074   6.705  14.527  1.1924  0.0478  1.6914
18419TIP3    H276749   5.053   6.837  14.598  2.1147  0.9303  0.3686
18420TIP3   OH276750   0.695   1.710   1.192  0.1259 -0.3263  0.1179
18420TIP3    H176751   0.699   1.753   1.277  0.7172 -0.4865  0.1722
18420TIP3    H276752   0.608   1.670   1.190  0.4996 -1.2347  1.0933
18421TIP3   OH276753   4.238   4.444   6.457  0.2847 -0.0150  0.2820
18421TIP3    H176754   4.214   4.375   6.518 -0.8477  0.9843  1.0243
18421TIP3    H276755   4.224   4.525   6.506  1.9723  0.7374 -0.4213
18422TIP3   OH276756   5.648   0.144  15.461  0.1853  0.6491 -0.7234
18422TIP3    H176757   5.722   0.203  15.445  1.1620  0.2788  1.8749
18422TIP3    H276758   5.656   0.121  15.554 -1.0246 -2.4139 -1.2609
18423TIP3   OH276759   2.334   6.546  12.758 -0.7525  0.0382  0.6141
18423TIP3    H176760   2.359   6.455  12.770 -2.2231 -0.4158  0.4338
18423TIP3    H276761   2.405   6.584  12.705  0.3917 -0.7057  1.5706
18424TIP3   OH276762   3.418   3.224   0.194 -0.3273 -0.3471  0.6481
18424TIP3    H176763   3.375   3.177   0.122 -0.7085 -0.0569  0.6786
18424TIP3    H276764   3.385   3.314   0.187 -0.1568 -0.2520  1.0190
18425TIP3   OH276765   4.358   5.300  11.953 -0.1711 -0.2130  0.3654
18425TIP3    H176766   4.343   5.368  11.888 -1.3438  1.2882  2.1130
18425TIP3    H276767   4.334   5.340  12.036  1.3924 -2.0081  1.7798
18426TIP3   OH276768   0.110   2.319  14.612  0.1095  0.1583 -0.3813
18426TIP3    H176769   0.185   2.346  14.665  0.4991 -0.2486 -0.7158
18426TIP3    H276770   0.137   2.336  14.522 -0.1908 -0.0130 -0.5035
18427TIP3   OH276771   0.390   6.048   2.172 -0.0454 -0.2124 -0.7750
18427TIP3    H176772   0.300   6.059   2.142 -0.8790  0.7808  1.7872
18427TIP3    H276773   0.399   5.955   2.190 -0.8758 -0.1921 -0.2074
18428TIP3   OH276774   4.033   3.069  13.462 -0.3221  0.1942 -0.5666
18428TIP3    H176775   3.951   3.022  13.444  0.6990 -1.4497 -1.1242
18428TIP3    H276776   4.082   3.065  13.380  0.9295 -0.1558  0.1737
18429TIP3   OH276777   6.661   2.029  13.226 -0.0471  0.4965 -0.0183
18429TIP3    H176778   6.596   1.990  13.285 -0.0728 -2.5628 -1.8521
18429TIP3    H276779   6.614   2.101  13.183 -0.9972  0.7532  1.3656
18430TIP3   OH276780   6.587   6.216   6.737 -0.1644  0.1123  0.7271
18430TIP3    H176781   6.667   6.165   6.722  0.4839  0.9637  1.2067
18430TIP3    H276782   6.529   6.155   6.782  0.7815 -0.0658  1.7433
18431TIP3   OH276783   3.790   3.927   5.483  0.2716  0.0941 -0.3564
18431TIP3    H176784   3.807   3.839   5.517  0.0714  0.7663  1.5703
18431TIP3    H276785   3.838   3.985   5.541 -0.8033  1.3655 -0.7010
18432TIP3   OH276786   3.702   3.789   1.926 -0.2804  0.4261  0.0351
18432TIP3    H176787   3.737   3.858   1.870  0.5315 -0.5604 -0.7240
18432TIP3    H276788   3.739   3.807   2.012 -0.1498  0.9904 -0.1372
18433TIP3   OH276789   1.473   5.557  15.497 -0.2296  0.1959  0.0323
18433TIP3    H176790   1.458   5.471  15.456  2.1542 -0.1045 -0.3378
18433TIP3    H276791   1.444   5.545  15.587 -0.8954 -0.6681 -0.2764
18434TIP3   OH276792   2.813   4.703   1.382  0.3263  0.1853  0.8478
18434TIP3    H176793   2.764   4.773   1.426 -1.4386 -1.0908  1.0301
18434TIP3    H276794   2.872   4.669   1.448 -0.9455 -0.4529  1.6926
18435TIP3   OH276795   6.762   0.829  16.887  0.0793 -0.0506  0.2105
18435TIP3    H176796   6.785   0.917  16.916  2.4906 -0.2507 -0.8919
18435TIP3    H276797   6.739   0.840  16.795 -0.1497 -0.5090  0.2107
18436TIP3   OH276798   0.227   6.806   5.774 -0.4819  0.4706  0.5591
18436TIP3    H176799   0.318   6.837   5.772  0.7782 -2.8749  0.5428
18436TIP3    H276800   0.203   6.808   5.867  1.0048 -2.0521  1.0831
18437TIP3   OH276801   6.721   6.287  15.408  0.5239 -0.1970 -0.0227
18437TIP3    H176802   6.709   6.378  15.384 -2.7538 -0.9632 -1.9005
18437TIP3    H276803   6.704   6.284  15.502  0.6391  1.1279  0.0449
18438TIP3   OH276804   2.917   1.369   2.728 -0.0216 -0.1674 -0.5389
18438TIP3    H176805   2.842   1.428   2.725 -0.2451 -0.4431 -0.3537
18438TIP3    H276806   2.979   1.406   2.664  0.6076  1.3009  0.8292
18439TIP3   OH276807   0.164   6.521   5.734 -0.0405  0.0921 -0.1597
18439TIP3    H176808   0.170   6.617   5.727 -0.8946  0.2309  0.7299
18439TIP3    H276809   0.082   6.506   5.781  1.4234 -0.9516  2.2444
18440TIP3   OH276810   2.842   6.678  14.741  0.0581  0.3840  0.0183
18440TIP3    H176811   2.754   6.715  14.743  0.1847  0.6902 -0.0286
18440TIP3    H276812   2.855   6.640  14.828 -0.1386  0.2904  0.0061
18441TIP3   OH276813   3.492   4.835  12.061 -0.0524 -0.8626 -0.9420
18441TIP3    H176814   3.414   4.792  12.096  0.4487 -1.1251 -0.0951
18441TIP3    H276815   3.552   4.838  12.136  0.3127  0.3862 -1.2718
18442TIP3   OH276816   5.789   1.011   2.421 -0.6991 -0.1641  0.6448
18442TIP3    H176817   5.782   1.098   2.381  0.8220  0.4946  1.7644
18442TIP3    H276818   5.840   0.960   2.358 -2.1322 -0.4793 -0.3165
18443TIP3   OH276819   0.390   0.637   2.033 -0.1351  0.1901  0.1720
18443TIP3    H176820   0.483   0.626   2.055 -0.4363 -1.1943  0.8266
18443TIP3    H276821   0.366   0.557   1.988 -1.2503  0.1373  0.8268
18444TIP3   OH276822   0.013   1.334   0.696  0.5219 -0.0767 -0.0592
18444TIP3    H176823   0.041   1.425   0.711  1.6401 -0.5492  0.8288
18444TIP3    H276824  -0.002   1.300   0.784 -0.8909 -0.4709 -0.4299
18445TIP3   OH276825   0.150   2.488   0.797  0.3414  0.4060  0.1191
18445TIP3    H176826   0.129   2.430   0.723  1.4297  0.9565 -0.6492
18445TIP3    H276827   0.079   2.473   0.859 -0.0304 -0.8755 -0.5661
18446TIP3   OH276828   3.645   4.978   1.413  0.1061  0.1659 -0.4750
18446TIP3    H176829   3.605   5.061   1.437 -0.0924 -0.0931  0.0976
18446TIP3    H276830   3.719   5.003   1.358 -1.0503  0.6223 -1.8687
18447TIP3   OH276831   4.017   3.940   2.642 -0.6074 -0.1096  0.2769
18447TIP3    H176832   4.093   3.986   2.679 -0.6587  0.9814 -0.8967
18447TIP3    H276833   4.004   3.865   2.700  1.4405 -0.3956  0.4463
18448TIP3   OH276834   0.614   1.608   5.197 -0.1622 -0.2227  0.0592
18448TIP3    H176835   0.690   1.659   5.225  0.4518 -0.3265 -1.3241
18448TIP3    H276836   0.574   1.660   5.127 -0.9803 -0.4848  0.3174
18449TIP3   OH276837   2.284   1.271   1.893  0.4586  0.2227 -0.5493
18449TIP3    H176838   2.271   1.238   1.804 -0.1533 -1.2077  0.0361
18449TIP3    H276839   2.379   1.271   1.905  0.6188  1.6420 -1.6140
18450TIP3   OH276840   4.046   1.687  16.133 -0.2339  0.2343  0.0792
18450TIP3    H176841   4.079   1.658  16.048 -1.8441  1.6836 -1.1382
18450TIP3    H276842   4.097   1.766  16.152  2.0606 -1.5529  1.9108
18451TIP3   OH276843   1.894   0.078   3.944 -0.6266 -0.2899 -0.6853
18451TIP3    H176844   1.849   0.010   3.893 -1.3895  0.9769 -1.7472
18451TIP3    H276845   1.921   0.142   3.878  0.0748  0.4475  0.3087
18452TIP3   OH276846   2.876   2.415  16.489  0.0273  0.1999  0.0430
18452TIP3    H176847   2.801   2.379  16.441 -0.3790  0.5952  0.3643
18452TIP3    H276848   2.951   2.399  16.432 -0.4268  0.5368 -0.6666
18453TIP3   OH276849   0.877   5.823   2.921 -0.1965 -0.4329 -0.0282
18453TIP3    H176850   0.847   5.777   2.843 -0.2964  1.2527 -1.0283
18453TIP3    H276851   0.942   5.885   2.889 -0.3063  0.3623  1.2186
18454TIP3   OH276852   0.318   5.133   5.391  0.0860 -0.1983  0.0739
18454TIP3    H176853   0.229   5.131   5.359  0.6580 -0.0222 -1.6053
18454TIP3    H276854   0.347   5.042   5.389  0.6216 -0.0173 -1.4470
18455TIP3   OH276855   6.387   2.044  11.326  0.0583  0.0885  0.0636
18455TIP3    H176856   6.425   2.080  11.246 -1.0798  0.0411 -0.5103
18455TIP3    H276857   6.328   1.975  11.296  2.0660 -2.2569  1.1194
18456TIP3   OH276858   3.923   0.646  12.179 -0.1801  0.1086 -0.1097
18456TIP3    H176859   3.897   0.737  12.164  1.5640  0.9607  1.6259
18456TIP3    H276860   3.896   0.628  12.269  1.8349 -0.1591  0.4902
18457TIP3   OH276861   6.073   5.958   2.856 -0.1916  0.3090  0.1825
18457TIP3    H176862   6.066   5.863   2.862 -2.1837  0.2603 -1.5901
18457TIP3    H276863   6.122   5.984   2.934 -0.4408 -2.0755  1.2072
18458TIP3   OH276864   1.259   1.370   0.362 -0.3725 -0.8666 -0.1769
18458TIP3    H176865   1.198   1.333   0.298 -0.7857  1.3354 -1.1786
18458TIP3    H276866   1.204   1.398   0.435 -0.3725 -0.3083 -0.3840
18459TIP3   OH276867   4.171   6.638  12.729  0.1685 -0.2592  0.8434
18459TIP3    H176868   4.137   6.697  12.662 -1.2384 -0.9574  0.9116
18459TIP3    H276869   4.182   6.554  12.685 -0.8411 -0.7443  1.4755
18460TIP3   OH276870   0.268   6.452   2.980  0.7430 -0.4299  0.1496
18460TIP3    H176871   0.341   6.514   2.993  2.1879 -2.1318  0.5867
18460TIP3    H276872   0.295   6.399   2.905 -0.1304 -0.9886  0.2219
18461TIP3   OH276873   0.661   2.952   2.818 -0.2325 -0.1144  0.0334
18461TIP3    H176874   0.599   2.912   2.756 -0.4788 -2.1271  1.4762
18461TIP3    H276875   0.744   2.952   2.771 -0.2618 -2.2391 -0.1175
18462TIP3   OH276876   4.547   6.236  14.590 -0.3676  0.0712 -0.3032
18462TIP3    H176877   4.610   6.210  14.657 -1.5371  0.3827  0.9655
18462TIP3    H276878   4.467   6.256  14.639 -1.0861  0.8751 -1.7449
18463TIP3   OH276879   0.407   1.509  15.688  0.2034 -0.0462 -0.0583
18463TIP3    H176880   0.499   1.489  15.671 -0.3475 -0.7819 -2.5605
18463TIP3    H276881   0.365   1.502  15.602 -1.6523  3.3187  0.4112
18464TIP3   OH276882   6.498   0.075   3.480  0.7186  0.2542 -0.1123
18464TIP3    H176883   6.480  -0.016   3.458 -0.6440  0.8041 -1.4504
18464TIP3    H276884   6.586   0.074   3.518  1.2247 -1.4531 -1.2138
18465TIP3   OH276885   3.743   0.249   3.885  0.1964 -0.2962 -0.1444
18465TIP3    H176886   3.665   0.225   3.936 -0.0030  1.1650  0.2789
18465TIP3    H276887   3.708   0.290   3.806  0.4712 -3.2348 -1.9741
18466TIP3   OH276888   2.899   6.761   0.153 -0.1106  0.5311  0.0306
18466TIP3    H176889   2.904   6.670   0.183  2.1270  0.5012 -0.2866
18466TIP3    H276890   2.954   6.764   0.075 -1.7616  1.7529 -1.1724
18467TIP3   OH276891   0.668   0.265  14.967 -0.5007 -0.6220 -0.4229
18467TIP3    H176892   0.754   0.262  14.925  0.8618  0.2663  2.1073
18467TIP3    H276893   0.660   0.354  15.000 -1.9761 -0.9635  0.2562
18468TIP3   OH276894   6.205   1.953  14.342  0.7237 -0.1001 -0.0386
18468TIP3    H176895   6.221   1.924  14.252 -0.8522 -1.1486 -0.0315
18468TIP3    H276896   6.203   2.048  14.337 -0.1512 -0.1647 -1.2819
18469TIP3   OH276897   3.911   3.049   1.876 -0.0134 -0.0533  0.2266
18469TIP3    H176898   3.936   3.062   1.968  1.5816 -2.4617  0.2222
18469TIP3    H276899   3.960   3.115   1.828 -1.0275  1.3815  1.0719
18470TIP3   OH276900   5.422   2.763   4.063 -0.3564 -0.2432  0.5233
18470TIP3    H176901   5.410   2.841   4.008 -2.6409 -1.0318 -0.2036
18470TIP3    H276902   5.516   2.763   4.084 -0.2458  2.6199  0.4644
18471TIP3   OH276903   6.762   4.470   6.025 -0.1493 -0.1449 -0.2143
18471TIP3    H176904   6.769   4.530   5.952 -2.0530 -0.6865 -0.9000
18471TIP3    H276905   6.670   4.445   6.027  0.0673 -0.9651  1.7169
18472TIP3   OH276906   0.075   1.511   0.287  0.2515  0.3974  0.1741
18472TIP3    H176907   0.137   1.439   0.300  1.9571  1.6412 -0.6030
18472TIP3    H276908   0.024   1.513   0.368 -0.6115 -2.3271 -0.2011
18473TIP3   OH276909   4.315   1.470   6.685  0.5382  0.0267 -0.0935
18473TIP3    H176910   4.247   1.486   6.620  0.6944  1.5752  0.0879
18473TIP3    H276911   4.330   1.375   6.681 -0.6669 -0.1498 -1.0756
18474TIP3   OH276912   1.161   6.049   3.111 -0.8201  1.0749  0.0263
18474TIP3    H176913   1.069   6.076   3.114 -1.1578 -0.0650  0.7185
18474TIP3    H276914   1.160   5.959   3.143  0.6448  1.2908  0.7542
18475TIP3   OH276915   1.248   1.270   2.136 -0.3641 -0.0560 -0.2613
18475TIP3    H176916   1.154   1.257   2.145 -0.1622 -1.1118  0.4214
18475TIP3    H276917   1.275   1.208   2.069  0.2879 -1.9039  1.6150
18476TIP3   OH276918   4.990   0.660   1.003  0.1204  0.4938 -0.1975
18476TIP3    H176919   4.974   0.610   1.083  2.3609 -0.2393 -0.1259
18476TIP3    H276920   5.042   0.735   1.032  0.3808  0.5731 -0.8590
18477TIP3   OH276921   4.347   1.623  15.427  0.1095  0.5902 -0.1208
18477TIP3    H176922   4.425   1.648  15.476 -0.2222 -0.8385  1.2398
18477TIP3    H276923   4.291   1.700  15.431  0.1568  0.5906  1.7246
18478TIP3   OH276924   1.980   3.600  11.268  0.8356  0.4010 -0.1118
18478TIP3    H176925   1.943   3.685  11.291 -1.7432 -0.6654  0.0437
18478TIP3    H276926   1.981   3.551  11.350 -3.6560 -1.7083 -0.9776
18479TIP3   OH276927   2.937   0.490  17.139 -0.9871 -0.1225  0.0471
18479TIP3    H176928   2.919   0.492  17.233 -0.0104 -2.7784  0.3889
18479TIP3    H276929   2.858   0.452  17.101 -1.3627  0.9090 -0.2379
18480TIP3   OH276930   6.801   6.028  13.894  0.2131  1.0147 -0.4026
18480TIP3    H176931   6.804   6.110  13.944  0.1800 -0.0814  1.4790
18480TIP3    H276932   6.874   5.976  13.928 -0.3172 -0.1021 -0.9186
18481TIP3   OH276933   1.568   0.143   4.405 -0.2948 -0.3221 -0.6167
18481TIP3    H176934   1.647   0.106   4.442 -1.6611 -2.1150  0.6730
18481TIP3    H276935   1.598   0.195   4.330  2.1907  0.3139  0.7250
18482TIP3   OH276936   2.352   5.590  12.951 -0.3376 -0.5462 -0.1962
18482TIP3    H176937   2.289   5.549  12.893  2.2071 -0.8448 -3.0101
18482TIP3    H276938   2.409   5.518  12.980  0.7542  0.1436 -0.5561
18483TIP3   OH276939   3.303   3.940   5.080  0.0841  0.0935  0.6495
18483TIP3    H176940   3.267   4.025   5.055  0.7608  0.9139  2.3164
18483TIP3    H276941   3.261   3.878   5.021 -0.4849  1.5651 -0.5647
18484TIP3   OH276942   6.018   3.735  15.613 -0.5963  0.0035 -0.6888
18484TIP3    H176943   6.039   3.701  15.526  0.8983  1.6937 -1.0292
18484TIP3    H276944   5.923   3.722  15.621 -0.9327  0.6484 -2.9475
18485TIP3   OH276945   6.556   1.316  15.030 -0.0469  0.0533 -0.4790
18485TIP3    H176946   6.543   1.228  15.065  1.5794 -0.1241 -0.2571
18485TIP3    H276947   6.576   1.303  14.937 -0.7589  0.2821 -0.6777
18486TIP3   OH276948   5.988   5.245  16.319 -0.2761  0.3568 -0.3442
18486TIP3    H176949   6.000   5.205  16.406  0.6252  0.7123 -0.2950
18486TIP3    H276950   6.077   5.261  16.288 -0.5798  2.7694 -0.1488
18487TIP3   OH276951   6.331   3.444   3.363 -0.5398 -0.3545 -0.0532
18487TIP3    H176952   6.332   3.437   3.267 -1.9729  2.9539 -0.4523
18487TIP3    H276953   6.287   3.365   3.392 -0.7443 -1.1072 -2.2054
18488TIP3   OH276954   1.102   3.035  17.030 -0.1265 -0.1841  0.5214
18488TIP3    H176955   1.146   2.971  17.085 -0.0812 -2.4801 -1.9635
18488TIP3    H276956   1.155   3.039  16.951 -0.5317  2.4843  0.3055
18489TIP3   OH276957   6.797   3.265   0.873  0.1420  0.5251  0.3060
18489TIP3    H176958   6.750   3.262   0.956 -0.8559  0.3068 -0.2554
18489TIP3    H276959   6.755   3.199   0.819  2.1970 -0.8985  0.3330
18490TIP3   OH276960   4.830   1.502  16.845  0.3102 -0.8439 -0.2884
18490TIP3    H176961   4.772   1.574  16.871  3.7386  1.6828  1.2374
18490TIP3    H276962   4.834   1.508  16.750 -1.0394 -0.3545 -0.3325
18491TIP3   OH276963   6.430   2.109  11.905  0.2748 -0.4929  0.3720
18491TIP3    H176964   6.520   2.120  11.937  0.7725 -0.9360 -0.8407
18491TIP3    H276965   6.438   2.109  11.810 -1.0687 -0.1422  0.2377
18492TIP3   OH276966   4.897   3.725  13.845  0.2225  0.2149 -0.3648
18492TIP3    H176967   4.966   3.768  13.896 -0.8556  0.8913  0.5662
18492TIP3    H276968   4.901   3.767  13.759  2.3902 -1.2790 -1.0963
18493TIP3   OH276969   5.144   6.594  15.808  0.0530 -0.3719  0.1054
18493TIP3    H176970   5.103   6.579  15.723 -1.4647 -0.7076  0.8615
18493TIP3    H276971   5.232   6.624  15.787 -0.8031  1.1868 -1.6236
18494TIP3   OH276972   5.691   3.672  16.530  0.3725 -0.2493  0.2457
18494TIP3    H176973   5.718   3.652  16.441  1.0127 -0.2602  0.4375
18494TIP3    H276974   5.628   3.603  16.552 -0.5940  0.3555 -0.5595
18495TIP3   OH276975   2.000   4.329  11.309  0.0925  0.0297  0.1283
18495TIP3    H176976   1.936   4.264  11.283 -3.1502  2.5874  0.9628
18495TIP3    H276977   2.029   4.369  11.227 -1.0018  0.1747 -0.2072
18496TIP3   OH276978   4.057   5.081  12.851 -0.7273  0.4117 -0.1947
18496TIP3    H176979   4.031   5.114  12.938  0.3832  0.4005  0.1534
18496TIP3    H276980   4.106   5.001  12.869 -1.3669 -0.1593 -0.9088
18497TIP3   OH276981   4.273   1.553   3.571 -0.0187  0.2872  0.2702
18497TIP3    H176982   4.234   1.489   3.629 -0.5793  1.4124  1.1767
18497TIP3    H276983   4.284   1.507   3.488 -2.2637 -0.3990  0.2948
18498TIP3   OH276984   1.087   6.721   2.759 -0.4899 -0.3082 -0.3661
18498TIP3    H176985   1.033   6.666   2.814 -0.1311  1.3801  1.8241
18498TIP3    H276986   1.132   6.660   2.701 -0.9692 -2.1892  1.1252
18499TIP3   OH276987   6.126   1.469   3.400  0.1637 -0.1324  0.5181
18499TIP3    H176988   6.157   1.475   3.491 -1.0632 -1.2262  1.0310
18499TIP3    H276989   6.040   1.509   3.401 -0.5583 -1.6084  0.2155
18500TIP3   OH276990   5.066   5.918   2.551  0.2577  0.3729  0.0664
18500TIP3    H176991   5.031   5.873   2.628 -1.4263  3.7476  1.4793
18500TIP3    H276992   5.010   5.890   2.479 -1.4115  0.9064  1.0979
18501TIP3   OH276993   0.826   4.947   0.597 -0.0825  0.0169 -0.1114
18501TIP3    H176994   0.849   4.986   0.681  1.4415 -0.5868 -0.2195
18501TIP3    H276995   0.747   4.994   0.570 -0.9025 -0.1082  1.8586
18502TIP3   OH276996   2.820   3.999  13.011 -0.3009 -0.0879 -0.1472
18502TIP3    H176997   2.824   3.955  13.096 -1.0134 -1.1023 -0.6148
18502TIP3    H276998   2.884   4.070  13.018  0.7665 -1.0832  0.7123
18503TIP3   OH276999   6.642   1.099   5.275 -0.0321 -0.1067 -0.0797
18503TIP3    H177000   6.677   1.070   5.360  0.8025  0.0894 -0.3431
18503TIP3    H277001   6.685   1.183   5.260  0.5428 -0.5670 -1.1243
18504TIP3   OH277002   4.375   0.634  16.270  0.3040  0.1559 -0.4911
18504TIP3    H177003   4.385   0.592  16.185 -1.1011  0.3890 -0.7908
18504TIP3    H277004   4.294   0.685  16.263 -0.3747 -0.5799  1.2831
18505TIP3   OH277005   2.277   3.114  17.116 -0.3378  0.3121 -0.0849
18505TIP3    H177006   2.232   3.198  17.107  0.3080  0.6115 -0.5742
18505TIP3    H277007   2.323   3.102  17.033 -1.2902 -1.0403 -0.4449
18506TIP3   OH277008   4.645   0.727  16.279 -0.2765  0.5557  0.1374
18506TIP3    H177009   4.558   0.689  16.288 -0.5512  0.8680 -1.0675
18506TIP3    H277010   4.702   0.666  16.326 -0.7190 -1.2961 -1.5838
18507TIP3   OH277011   0.896   1.372   4.884 -0.0491  0.2065  0.4651
18507TIP3    H177012   0.917   1.279   4.876 -0.7860 -0.1085  1.9318
18507TIP3    H277013   0.819   1.374   4.941 -0.3806  1.6860 -0.0011
18508TIP3   OH277014   3.015   5.364   0.855  0.0973 -0.0098  0.1862
18508TIP3    H177015   2.938   5.353   0.911  0.5803 -0.8257  0.7141
18508TIP3    H277016   3.090   5.352   0.914  0.6314  0.6843 -0.3343
18509TIP3   OH277017   1.606   4.191   5.046  0.3392  0.5206  0.2723
18509TIP3    H177018   1.539   4.149   4.992  1.4705 -1.0615 -0.0017
18509TIP3    H277019   1.649   4.118   5.091  3.2771  1.1612 -1.2134
18510TIP3   OH277020   4.553   2.902   2.220 -0.2442 -0.6402  0.2806
18510TIP3    H177021   4.630   2.878   2.170 -0.3615 -0.7572  0.1587
18510TIP3    H277022   4.489   2.833   2.203 -1.1123  0.4728 -1.2351
18511TIP3   OH277023   2.348   3.208  15.014 -0.5197  0.2494 -0.4803
18511TIP3    H177024   2.395   3.143  14.961 -1.5592 -0.5736 -0.4192
18511TIP3    H277025   2.416   3.271  15.040  0.3640 -0.3829 -1.1817
18512TIP3   OH277026   2.574   5.106  12.953 -0.1318 -0.1717  0.2110
18512TIP3    H177027   2.545   5.015  12.956 -2.2496  0.3954  4.6799
18512TIP3    H277028   2.567   5.137  13.043  3.0365  3.7538 -0.5823
18513TIP3   OH277029   5.508   2.381  15.899 -0.0272  0.1576 -0.1033
18513TIP3    H177030   5.438   2.436  15.862 -1.3015 -0.9829  0.5081
18513TIP3    H277031   5.569   2.443  15.938 -0.4507  1.2219 -1.0665
18514TIP3   OH277032   2.445   3.450  14.739  0.1301 -0.5261  0.0337
18514TIP3    H177033   2.438   3.472  14.832  1.6307  0.5137 -0.0660
18514TIP3    H277034   2.537   3.429  14.726 -0.3978 -2.5326 -0.8721
18515TIP3   OH277035   4.351   1.341  12.224  0.0656 -0.1916  0.1571
18515TIP3    H177036   4.398   1.259  12.236  1.5578  0.8321  1.5749
18515TIP3    H277037   4.268   1.328  12.271  0.7081 -0.5474  1.2176
18516TIP3   OH277038   2.627   3.079   2.020 -0.3228  0.0916 -1.0377
18516TIP3    H177039   2.644   3.080   2.115  0.2046  3.9516 -1.0162
18516TIP3    H277040   2.533   3.066   2.013 -0.3684 -0.2884 -0.0028
18517TIP3   OH277041   1.878   5.636  13.675  0.4518 -0.5660  0.1672
18517TIP3    H177042   1.810   5.702  13.658  0.0747 -0.7748  0.8440
18517TIP3    H277043   1.957   5.672  13.634  0.2250  0.2491  0.4333
18518TIP3   OH277044   0.630   3.580  14.195  0.0367  0.9526  0.7428
18518TIP3    H177045   0.614   3.568  14.289 -1.9977 -0.4504  0.2897
18518TIP3    H277046   0.622   3.492  14.158  1.7554  1.3307 -0.6481
18519TIP3   OH277047   3.739   4.882   1.094 -0.0912  0.0203  0.2540
18519TIP3    H177048   3.781   4.815   1.039  1.2626  0.9740  0.0759
18519TIP3    H277049   3.664   4.837   1.133 -0.9414 -0.7687 -2.1259
18520TIP3   OH277050   3.704   4.887  14.174  0.7312 -0.1162 -0.5592
18520TIP3    H177051   3.797   4.905  14.180  0.7438 -0.5212  0.6466
18520TIP3    H277052   3.666   4.967  14.138  1.1337  1.3576  2.0517
18521TIP3   OH277053   1.496   2.670  12.814 -0.0659 -0.0488  0.5219
18521TIP3    H177054   1.443   2.701  12.741 -0.5358 -2.6350 -0.3171
18521TIP3    H277055   1.586   2.676  12.783  0.0465  2.1662  1.1033
18522TIP3   OH277056   1.946   4.017  14.292  0.2132  0.2116  0.5593
18522TIP3    H177057   1.940   4.099  14.340  1.5440  1.4817 -1.3011
18522TIP3    H277058   1.858   3.981  14.294  0.0522  0.5684  3.2189
18523TIP3   OH277059   1.068   2.649  15.864 -0.1513 -0.1901 -0.5828
18523TIP3    H177060   1.070   2.624  15.956  1.2816  2.7396  0.3075
18523TIP3    H277061   1.072   2.566  15.816  2.3576 -1.7233  1.9834
18524TIP3   OH277062   4.659   4.646   3.204 -0.4698  0.0699 -0.0481
18524TIP3    H177063   4.649   4.583   3.133 -1.6246  0.3762 -0.1774
18524TIP3    H277064   4.592   4.713   3.187  0.8057  1.4223  0.0037
18525TIP3   OH277065   2.429   5.418  11.934 -0.2278  0.3655  0.1670
18525TIP3    H177066   2.360   5.416  11.869 -0.4266  0.2187  0.3839
18525TIP3    H277067   2.390   5.381  12.013 -0.3050  1.4763  0.6714
18526TIP3   OH277068   5.543   6.021  13.595 -0.3050  0.0655 -0.9916
18526TIP3    H177069   5.607   6.052  13.658 -1.3925 -2.0604  1.2944
18526TIP3    H277070   5.504   6.101  13.559 -0.5517  1.4130  2.0150
18527TIP3   OH277071   1.852   1.016   2.644  0.0747  0.0927 -0.5090
18527TIP3    H177072   1.889   1.059   2.567  1.9337  0.7383  0.6723
18527TIP3    H277073   1.769   1.060   2.659 -0.2134  0.1018 -1.9945
18528TIP3   OH277074   1.773   5.638  12.171  0.1747  0.2089 -0.0055
18528TIP3    H177075   1.726   5.721  12.174 -0.4738 -0.1779  1.2695
18528TIP3    H277076   1.833   5.641  12.246  2.1368  0.6350 -1.5242
18529TIP3   OH277077   6.621   2.069   4.367 -0.1510  0.6311  0.3572
18529TIP3    H177078   6.615   2.115   4.283  1.2422  1.4927  0.7037
18529TIP3    H277079   6.618   2.138   4.433  1.2614  0.1865  0.9152
18530TIP3   OH277080   1.408   4.363   0.236 -0.1207 -0.4539  0.1934
18530TIP3    H177081   1.447   4.376   0.322 -1.8720 -1.7106  1.2430
18530TIP3    H277082   1.382   4.451   0.208 -1.0997 -0.2114  1.7533
18531TIP3   OH277083   2.811   0.470   2.374  0.1862 -0.2130 -0.1604
18531TIP3    H177084   2.837   0.420   2.452 -1.3665 -0.2325  0.3816
18531TIP3    H277085   2.787   0.556   2.408 -0.8157 -0.3233 -0.5554
18532TIP3   OH277086   1.184   2.276  15.438 -0.4498  0.2426  0.4113
18532TIP3    H177087   1.203   2.309  15.525  0.9904  2.0777 -0.5189
18532TIP3    H277088   1.236   2.196  15.431  0.8463  1.0353  0.6593
18533TIP3   OH277089   5.616   1.912  14.649  0.0841 -0.6906  0.1451
18533TIP3    H177090   5.682   1.956  14.702  0.6463 -1.4553  0.0950
18533TIP3    H277091   5.665   1.873  14.577 -0.7697  1.0030 -1.4178
18534TIP3   OH277092   5.221   0.399   2.193 -0.0282  0.5220 -0.0486
18534TIP3    H177093   5.228   0.494   2.189  1.5171  0.5457  1.7343
18534TIP3    H277094   5.280   0.367   2.125  0.5681  0.8488  0.3095
18535TIP3   OH277095   2.657   1.749   4.554  0.0051 -0.5068 -0.5739
18535TIP3    H177096   2.571   1.715   4.578  0.6560 -1.8012  0.0380
18535TIP3    H277097   2.638   1.823   4.496 -1.5267 -0.0255  0.4700
18536TIP3   OH277098   3.599   6.653   5.523  0.1601  0.2272  0.5216
18536TIP3    H177099   3.555   6.738   5.522  0.9818  0.6930 -1.8483
18536TIP3    H277100   3.692   6.675   5.534  0.6330 -0.1327 -2.1258
18537TIP3   OH277101   6.496   5.962   2.106  0.1215 -0.7037 -0.1545
18537TIP3    H177102   6.491   6.024   2.178 -1.5540 -0.6281 -0.3064
18537TIP3    H277103   6.441   6.000   2.038  0.9750 -1.2072 -1.1548
18538TIP3   OH277104   5.418   3.229  12.875 -0.1881 -0.3036 -0.8715
18538TIP3    H177105   5.385   3.308  12.832 -1.0259 -1.2773 -2.0964
18538TIP3    H277106   5.512   3.229  12.857 -0.1093  0.6015 -0.5161
18539TIP3   OH277107   6.071   2.133   0.198  0.1348 -0.3159  0.4763
18539TIP3    H177108   6.000   2.094   0.249  1.1710 -2.3157  0.4652
18539TIP3    H277109   6.144   2.072   0.206  1.5258  1.1352 -0.4148
18540TIP3   OH277110   0.481   2.052  14.575  0.7792 -0.2073  0.3836
18540TIP3    H177111   0.550   2.068  14.511  1.1911 -0.7374  0.6839
18540TIP3    H277112   0.438   1.972  14.545 -1.7412  1.7053 -1.5161
18541TIP3   OH277113   5.090   6.566  15.112  0.0575  0.4251 -0.0991
18541TIP3    H177114   5.054   6.477  15.108 -2.0569  1.1766  0.9028
18541TIP3    H277115   5.178   6.554  15.147  0.2441 -1.3604 -1.0499
18542TIP3   OH277116   2.924   1.179   4.983  0.6954  0.6309 -0.2187
18542TIP3    H177117   2.891   1.263   4.950  1.0874  1.0109  0.3532
18542TIP3    H277118   3.016   1.178   4.956  0.9088  0.7603  0.4959
18543TIP3   OH277119   6.694   1.845  11.734 -0.1916  0.5048  0.3058
18543TIP3    H177120   6.700   1.894  11.652 -0.0087  2.1910  1.2715
18543TIP3    H277121   6.678   1.912  11.800 -1.0008 -0.8888  1.5695
18544TIP3   OH277122   0.380   0.376   1.927 -0.0954  0.1331  0.2028
18544TIP3    H177123   0.406   0.342   2.013  0.4016 -0.3099 -0.1215
18544TIP3    H277124   0.412   0.312   1.865 -0.7898  0.2627 -0.3003
18545TIP3   OH277125   4.421   5.057  16.226 -0.0496 -0.1610 -0.1274
18545TIP3    H177126   4.328   5.070  16.210 -0.2623 -0.5678  0.7261
18545TIP3    H277127   4.462   5.065  16.139 -0.4950  2.8620 -0.1687
18546TIP3   OH277128   1.842   0.378  11.144 -0.2160  0.3300 -0.0305
18546TIP3    H177129   1.818   0.331  11.064 -1.3366 -0.3317  0.6701
18546TIP3    H277130   1.876   0.311  11.203  1.8310  0.9984 -0.3615
18547TIP3   OH277131   3.823   4.381  14.589 -0.2679  0.4175  0.0391
18547TIP3    H177132   3.728   4.385  14.597 -0.3380 -0.7814 -0.0623
18547TIP3    H277133   3.855   4.417  14.672 -0.8265 -0.0884  0.4834
18548TIP3   OH277134   0.800   5.082   4.829 -0.0156  0.0888  0.5136
18548TIP3    H177135   0.847   5.088   4.746 -1.1444  1.6043 -0.0709
18548TIP3    H277136   0.852   5.023   4.883  1.7865  0.6231 -0.5789
18549TIP3   OH277137   0.531   4.680   1.026  0.5650 -0.5144  0.7776
18549TIP3    H177138   0.564   4.657   1.113  0.1780  3.6171  2.2697
18549TIP3    H277139   0.608   4.710   0.978  0.3903 -0.2644  0.6493
18550TIP3   OH277140   4.234   6.208   2.086  0.5236 -0.2741  0.8150
18550TIP3    H177141   4.182   6.250   2.017 -0.1848 -0.8475  0.9847
18550TIP3    H277142   4.176   6.206   2.162  1.7291  1.5035  1.8611
18551TIP3   OH277143   3.016   4.012  11.825 -0.7034 -0.4341  0.0215
18551TIP3    H177144   3.021   4.099  11.865 -2.0605  0.2790 -1.2707
18551TIP3    H277145   2.959   3.962  11.884 -1.0195 -0.0292  0.0627
18552TIP3   OH277146   5.782   2.596   6.050  0.4271  0.5573 -0.0160
18552TIP3    H177147   5.696   2.635   6.063  0.7323  1.4191 -0.5133
18552TIP3    H277148   5.816   2.637   5.971  1.1003 -0.1346 -0.1027
18553TIP3   OH277149   2.015   6.184  17.119 -0.2789  0.0104 -0.2171
18553TIP3    H177150   2.006   6.170  17.213  2.6781  1.0222  0.3066
18553TIP3    H277151   2.022   6.096  17.082  1.8954 -0.3965  0.9954
18554TIP3   OH277152   0.354   5.283  17.253  0.4251 -0.0926  0.2009
18554TIP3    H177153   0.385   5.274  17.343 -0.5341  0.9837  0.6704
18554TIP3    H277154   0.297   5.360  17.255 -0.7081 -0.8540 -1.0323
18555TIP3   OH277155   6.574   3.351   1.115 -0.3970  0.5382  0.0162
18555TIP3    H177156   6.556   3.383   1.027 -2.2572 -0.0920  0.1272
18555TIP3    H277157   6.574   3.429   1.170  2.1507  1.1134 -0.6812
18556TIP3   OH277158   0.799   3.198   0.079 -0.5022 -0.4006  0.0077
18556TIP3    H177159   0.733   3.131   0.060 -0.2002 -0.2050 -1.9760
18556TIP3    H277160   0.860   3.194   0.005  0.9087  0.4160  1.0577
18557TIP3   OH277161   6.392   0.837   1.093  0.1803  0.2137 -0.5062
18557TIP3    H177162   6.380   0.747   1.121  0.5493 -0.4584 -2.4056
18557TIP3    H277163   6.337   0.888   1.153  0.3853 -1.1756  0.9472
18558TIP3   OH277164   4.076   5.931  16.401 -0.3392  0.1480  0.0141
18558TIP3    H177165   4.117   5.926  16.315  1.2238 -0.5145  0.7635
18558TIP3    H277166   4.136   5.984  16.454 -1.1600  0.3627  0.7636
18559TIP3   OH277167   1.993   2.346   0.201 -0.1705  0.0831  0.3237
18559TIP3    H177168   1.913   2.347   0.253 -0.3398  1.7229  0.0920
18559TIP3    H277169   2.052   2.405   0.247  2.1492 -3.4006  2.2322
18560TIP3   OH277170   5.459   3.968   1.747 -0.4896  0.1780 -0.6390
18560TIP3    H177171   5.553   3.949   1.755 -0.1371  2.0563  0.0801
18560TIP3    H277172   5.419   3.882   1.732  1.0358 -1.0614  1.7173
18561TIP3   OH277173   6.305   6.322   0.702  0.3654 -0.1201  0.1161
18561TIP3    H177174   6.375   6.343   0.764 -1.3235  1.8551  1.4943
18561TIP3    H277175   6.228   6.308   0.757 -0.8539  0.1760 -1.4456
18562TIP3   OH277176   3.831   0.370   2.557 -0.1484  0.0708  1.0921
18562TIP3    H177177   3.741   0.379   2.524 -0.3475  1.6241  1.9457
18562TIP3    H277178   3.885   0.414   2.491  0.5772 -4.1481 -1.4498
18563TIP3   OH277179   1.903   6.553   1.145 -0.5435  0.2591 -0.0105
18563TIP3    H177180   1.983   6.507   1.169  0.0180  1.0214 -0.3817
18563TIP3    H277181   1.835   6.514   1.200 -0.3920 -2.0371 -1.2971
18564TIP3   OH277182   4.337   5.692   4.518 -0.3106  0.3815  0.1473
18564TIP3    H177183   4.241   5.689   4.527 -0.2930 -1.4926  0.1366
18564TIP3    H277184   4.365   5.604   4.544  1.4504  1.0178  0.4809
18565TIP3   OH277185   1.285   6.697  15.928 -0.0972 -0.1783  0.3891
18565TIP3    H177186   1.349   6.767  15.943  1.4089 -1.9737  3.4487
18565TIP3    H277187   1.225   6.703  16.003 -1.5993 -0.5199 -0.7495
18566TIP3   OH277188   0.534   3.683  11.197 -0.4045 -0.1236 -0.1985
18566TIP3    H177189   0.479   3.664  11.273 -1.1324  3.0671  0.2320
18566TIP3    H277190   0.488   3.643  11.123 -0.9631 -1.2311  0.7247
18567TIP3   OH277191   0.736   0.389   1.311 -0.5613 -0.1725  0.0818
18567TIP3    H177192   0.763   0.417   1.224 -1.2362 -2.4826 -0.9542
18567TIP3    H277193   0.777   0.303   1.323 -2.1607 -0.8479  1.1201
18568TIP3   OH277194   1.730   1.152  14.750  0.9207  0.3056 -0.1978
18568TIP3    H177195   1.805   1.124  14.802  1.3767  1.4844 -0.1897
18568TIP3    H277196   1.768   1.199  14.676  0.2426 -0.6043 -1.1678
18569TIP3   OH277197   4.481   0.027   5.215  0.1209 -0.5975 -0.3224
18569TIP3    H177198   4.499  -0.065   5.236  0.9048 -0.0614  1.5612
18569TIP3    H277199   4.394   0.043   5.252 -0.1097 -0.6240 -0.8426
18570TIP3   OH277200   5.033   1.816   4.362  0.8922 -0.5973  0.2493
18570TIP3    H177201   4.964   1.872   4.397  1.9673  0.6928  0.3899
18570TIP3    H277202   4.998   1.727   4.370  0.0574 -0.1595  2.2155
18571TIP3   OH277203   4.988   3.334   2.046 -0.0833 -0.2069  0.4743
18571TIP3    H177204   5.008   3.427   2.052 -3.3648  0.6158  0.1555
18571TIP3    H277205   4.964   3.309   2.135  1.2589 -0.9206  0.6609
18572TIP3   OH277206   3.152   2.143   5.483  0.2027  0.2064  0.0360
18572TIP3    H177207   3.067   2.143   5.439 -0.0428 -2.5872  0.3321
18572TIP3    H277208   3.132   2.140   5.576  0.6827  1.1328  0.1878
18573TIP3   OH277209   1.468   3.035  15.439 -0.4581  0.3044  0.3245
18573TIP3    H177210   1.476   3.034  15.535  0.6580  1.0393  0.2554
18573TIP3    H277211   1.499   3.122  15.414 -1.4025  0.3748 -0.6657
18574TIP3   OH277212   0.490   3.184  13.737  0.3696 -0.2974 -0.6461
18574TIP3    H177213   0.498   3.110  13.677 -1.5615 -0.7158 -0.4486
18574TIP3    H277214   0.506   3.261  13.682  2.4906 -0.7935 -0.8349
18575TIP3   OH277215   6.739   0.141  13.253  0.0977 -0.0389  0.2238
18575TIP3    H177216   6.703   0.230  13.259 -1.1621 -0.4211 -1.1986
18575TIP3    H277217   6.832   0.155  13.236  0.6290  0.9730  3.2999
18576TIP3   OH277218   0.133   0.066  11.330 -0.2023  0.1315  0.3297
18576TIP3    H177219   0.141   0.147  11.280  0.5000 -1.0672 -1.6322
18576TIP3    H277220   0.042   0.065  11.361 -0.2093  1.6481  0.4035
18577TIP3   OH277221   3.592   5.151   3.458  0.4733  0.1080 -0.1972
18577TIP3    H177222   3.499   5.177   3.459 -0.3725 -2.5810 -0.7458
18577TIP3    H277223   3.610   5.124   3.548  0.5803  0.1753 -0.1988
18578TIP3   OH277224   1.632   3.397   5.918  0.5704  0.2211 -0.1544
18578TIP3    H177225   1.707   3.438   5.876 -0.2318  1.9189 -0.0121
18578TIP3    H277226   1.663   3.374   6.006  1.4761 -0.9420 -0.7454
18579TIP3   OH277227   3.451   4.114  10.726  0.8402 -0.2800 -0.1101
18579TIP3    H177228   3.413   4.192  10.766  3.4595  1.8235 -1.4025
18579TIP3    H277229   3.399   4.099  10.647  0.0687 -0.1102  0.3552
18580TIP3   OH277230   6.657   0.138   1.072 -0.3866  0.0359 -0.6776
18580TIP3    H177231   6.568   0.173   1.067 -0.3274  0.0567 -2.2044
18580TIP3    H277232   6.682   0.149   1.163 -1.2068  1.8729 -0.6277
18581TIP3   OH277233   3.893   4.066   6.400 -0.0890  0.0810  0.4057
18581TIP3    H177234   3.965   4.129   6.401  1.7919 -1.8157 -1.8620
18581TIP3    H277235   3.931   3.986   6.436 -1.3291 -0.7440 -0.0553
18582TIP3   OH277236   5.281   6.748   5.734 -0.7554  0.5253 -0.0611
18582TIP3    H177237   5.360   6.717   5.776 -0.7079  1.9221  0.9696
18582TIP3    H277238   5.230   6.669   5.715 -0.0785 -0.2387  1.2158
18583TIP3   OH277239   0.551   4.162  15.282  0.4019  0.3561  0.1334
18583TIP3    H177240   0.517   4.140  15.195 -3.2986 -0.7076  1.6534
18583TIP3    H277241   0.588   4.080  15.314 -1.1102 -0.1556  0.6720
18584TIP3   OH277242   0.621   6.702  13.992 -0.5517  0.0977 -0.4108
18584TIP3    H177243   0.568   6.780  13.978  0.5300  0.9678  0.2203
18584TIP3    H277244   0.702   6.718  13.944 -0.3069 -0.6342 -0.2686
18585TIP3   OH277245   2.974   5.426  12.055  0.3408  0.5244  0.3230
18585TIP3    H177246   2.886   5.390  12.067  0.2591  0.2436 -0.9992
18585TIP3    H277247   2.970   5.513  12.093  0.2306 -0.4040  2.6119
18586TIP3   OH277248   3.616   6.135   6.008  1.1682 -0.5248  0.5155
18586TIP3    H177249   3.647   6.055   6.049 -0.0718 -1.3308 -0.0605
18586TIP3    H277250   3.559   6.175   6.074  0.8270 -0.7504  0.3614
18587TIP3   OH277251   6.593   6.273   5.798 -0.3200 -0.0456  0.2637
18587TIP3    H177252   6.548   6.356   5.784 -0.6857 -0.3249 -0.2459
18587TIP3    H277253   6.642   6.285   5.879 -1.3140  0.2572  0.8293
18588TIP3   OH277254   1.931   5.552  16.148  0.0245  0.0919 -0.6180
18588TIP3    H177255   1.939   5.488  16.078 -2.2571 -2.7654  1.4672
18588TIP3    H277256   1.997   5.527  16.212 -1.1788 -0.5644  0.4183
18589TIP3   OH277257   1.577   4.050  13.068  0.2373 -0.6725 -0.3873
18589TIP3    H177258   1.552   4.036  13.159 -2.5300  0.3176 -0.8874
18589TIP3    H277259   1.574   3.963  13.028  1.7966 -1.1608  0.5052
18590TIP3   OH277260   2.218   0.666   5.416 -1.0374 -0.2901 -0.2309
18590TIP3    H177261   2.160   0.622   5.353 -0.2765 -1.6464 -0.0422
18590TIP3    H277262   2.244   0.596   5.477  0.4246  0.3646 -0.0572
18591TIP3   OH277263   4.722   2.076  11.670  0.8466 -0.0762 -0.8300
18591TIP3    H177264   4.780   2.150  11.649 -0.2779  1.3500  0.7681
18591TIP3    H277265   4.648   2.086  11.610  0.9051 -0.1721 -0.9188
18592TIP3   OH277266   4.690   1.293   2.397  0.5547 -0.1228 -0.1476
18592TIP3    H177267   4.759   1.271   2.460  1.6805  2.2307 -0.4519
18592TIP3    H277268   4.737   1.324   2.320 -0.8189  0.8468 -0.6325
18593TIP3   OH277269   3.484   5.964  15.935  0.2265 -0.4652 -0.4434
18593TIP3    H177270   3.427   6.025  15.982 -0.6650  0.1674 -2.2450
18593TIP3    H277271   3.482   5.884  15.988 -0.6523  0.2304  0.6243
18594TIP3   OH277272   3.702   2.225   4.135 -0.0978  0.1780  0.0015
18594TIP3    H177273   3.684   2.156   4.199  0.5266 -0.2823 -0.3013
18594TIP3    H277274   3.616   2.264   4.116 -0.2903  0.2843  1.0628
18595TIP3   OH277275   2.481   4.564  12.866 -0.0578 -0.6521 -0.3789
18595TIP3    H177276   2.525   4.551  12.950 -0.0361  0.3955 -0.2059
18595TIP3    H277277   2.546   4.540  12.800  0.3605 -0.2936 -0.1058
18596TIP3   OH277278   3.588   0.475  15.305  0.2395  0.2190 -0.3414
18596TIP3    H177279   3.642   0.548  15.274  2.8110 -1.9409 -1.2844
18596TIP3    H277280   3.611   0.467  15.398  1.5229 -0.6038 -0.7045
18597TIP3   OH277281   5.532   2.957   3.568  0.1405  0.2828  0.2437
18597TIP3    H177282   5.509   2.864   3.562 -0.9430  0.6275 -1.6746
18597TIP3    H277283   5.555   2.970   3.660  0.8898 -2.0004  0.4569
18598TIP3   OH277284   3.636   3.911   1.478 -0.2244 -0.7719 -0.5211
18598TIP3    H177285   3.664   3.970   1.549  1.0176 -1.5935 -0.3041
18598TIP3    H277286   3.710   3.911   1.417 -0.8072 -1.0027 -1.2353
18599TIP3   OH277287   1.457   4.090  11.434 -0.3332  0.1838  0.1763
18599TIP3    H177288   1.519   4.021  11.460 -0.3058 -0.5723 -1.7267
18599TIP3    H277289   1.380   4.075  11.489  0.8330  0.6314  2.0140
18600TIP3   OH277290   2.035   0.805   4.590 -0.4549  0.0015  0.3331
18600TIP3    H177291   1.973   0.733   4.589  0.0062 -0.4025  0.1465
18600TIP3    H277292   2.024   0.848   4.505 -0.7023  0.1261  0.4286
18601TIP3   OH277293   2.187   5.513  15.736 -0.0514 -0.5566 -0.4528
18601TIP3    H177294   2.282   5.507  15.738  0.1656  1.8879  0.5142
18601TIP3    H277295   2.160   5.498  15.827 -0.5295 -0.7310 -0.6233
18602TIP3   OH277296   4.286   5.818   4.217  0.0820 -0.3589 -0.1366
18602TIP3    H177297   4.299   5.780   4.304 -0.7751  0.3775  0.3317
18602TIP3    H277298   4.199   5.857   4.221 -0.0629 -0.5148 -1.4119
18603TIP3   OH277299   0.434   0.973   2.432 -0.1999  0.0454 -0.2719
18603TIP3    H177300   0.479   0.890   2.448  1.4320  0.9980  0.3757
18603TIP3    H277301   0.390   0.961   2.348  0.5312 -1.2555 -0.4960
18604TIP3   OH277302   6.377   3.544   5.641 -0.0938 -0.0982 -0.2446
18604TIP3    H177303   6.310   3.538   5.709  1.9507  0.2876  1.9304
18604TIP3    H277304   6.395   3.453   5.617  0.1723 -0.3248  0.7882
18605TIP3   OH277305   3.003   6.403  14.039 -0.1985  0.1792 -0.0659
18605TIP3    H177306   2.938   6.402  14.110 -0.1420  1.8240  0.0561
18605TIP3    H277307   3.037   6.493  14.040  2.4122 -0.7348  0.1612
18606TIP3   OH277308   0.673   4.633  13.177  0.2865 -0.3028  0.3511
18606TIP3    H177309   0.582   4.611  13.196 -0.1132  0.7351 -0.2869
18606TIP3    H277310   0.670   4.723  13.146  1.4120 -0.5586 -0.5840
18607TIP3   OH277311   1.430   5.672   0.606 -0.4399  0.1686 -0.0627
18607TIP3    H177312   1.374   5.603   0.643  0.3924 -0.3101  0.3282
18607TIP3    H277313   1.399   5.681   0.515 -0.9318 -0.3200  0.0461
18608TIP3   OH277314   1.349   0.331   4.921 -0.3934 -0.0955 -0.2096
18608TIP3    H177315   1.284   0.389   4.961  1.9071  3.0950 -0.6840
18608TIP3    H277316   1.412   0.313   4.991 -0.3437 -0.9054 -0.4493
18609TIP3   OH277317   2.473   2.770  10.804 -0.5388  0.1627 -0.2195
18609TIP3    H177318   2.378   2.757  10.813 -0.7376  0.0747 -1.9632
18609TIP3    H277319   2.481   2.823  10.724  0.8001  1.8027  0.9483
18610TIP3   OH277320   3.168   4.568   3.017 -0.1574 -0.2173 -0.3301
18610TIP3    H177321   3.225   4.539   3.088 -1.0427 -0.5404  0.2659
18610TIP3    H277322   3.119   4.641   3.054 -2.3956 -1.9179  0.2619
18611TIP3   OH277323   4.752   0.965   2.422 -0.7618  0.4728 -0.0782
18611TIP3    H177324   4.781   0.998   2.337 -0.6442 -1.1088 -0.6791
18611TIP3    H277325   4.833   0.940   2.468 -0.8104  1.4887  0.5895
18612TIP3   OH277326   3.303   2.622   1.547 -0.4074  0.4799  0.5504
18612TIP3    H177327   3.357   2.641   1.624  1.0537  1.0046 -0.5557
18612TIP3    H277328   3.337   2.681   1.480 -0.4348 -1.2200 -1.0143
18613TIP3   OH277329   6.565   4.456   4.120  0.1687 -0.8588 -0.2443
18613TIP3    H177330   6.638   4.518   4.121 -1.2840  1.0557  2.8152
18613TIP3    H277331   6.496   4.501   4.071  0.3497 -1.7668 -1.3512
18614TIP3   OH277332   0.347   1.683   4.671  0.4836 -0.1318  0.0522
18614TIP3    H177333   0.424   1.646   4.629  1.3478  0.1231  1.3631
18614TIP3    H277334   0.326   1.620   4.741  1.8952  1.6633  2.2257
18615TIP3   OH277335   3.543   0.954  16.901  0.4874 -0.2902  0.1288
18615TIP3    H177336   3.541   0.859  16.897 -0.3940 -0.3201  0.8883
18615TIP3    H277337   3.493   0.976  16.980 -0.8328  0.8559 -0.9608
18616TIP3   OH277338   3.901   5.418  16.286 -0.1607 -0.0247  0.2197
18616TIP3    H177339   3.983   5.430  16.334 -1.1684  2.7427  1.4534
18616TIP3    H277340   3.850   5.496  16.307 -2.0020 -0.2965 -2.7765
18617TIP3   OH277341   5.676   1.236   4.589 -0.0163 -0.4288 -0.6159
18617TIP3    H177342   5.666   1.180   4.512  3.8713 -0.5423 -1.2461
18617TIP3    H277343   5.687   1.175   4.662 -2.1508 -0.3241 -0.1415
18618TIP3   OH277344   3.973   3.118  16.579 -0.0190  1.1592 -0.0235
18618TIP3    H177345   4.038   3.059  16.540  1.4790  2.4932  0.3556
18618TIP3    H277346   3.979   3.102  16.673 -0.4513  1.0760 -0.0107
18619TIP3   OH277347   4.280   0.084   4.516  0.1885  0.3361 -0.2204
18619TIP3    H177348   4.327   0.075   4.432 -0.4747  1.0639 -0.6804
18619TIP3    H277349   4.203   0.137   4.495 -1.4190 -1.6792  0.3026
18620TIP3   OH277350   6.396   6.748  15.525 -0.0004 -0.0595 -0.3696
18620TIP3    H177351   6.422   6.839  15.517 -0.5377  0.0962 -0.3735
18620TIP3    H277352   6.348   6.743  15.608  0.0848 -0.3532 -0.3332
18621TIP3   OH277353   0.695   6.715  12.288  0.1758  0.2440  0.6475
18621TIP3    H177354   0.692   6.645  12.353 -1.3749  0.8814  1.3272
18621TIP3    H277355   0.717   6.672  12.206  0.6056 -0.8194  1.3086
18622TIP3   OH277356   0.971   5.991  14.303 -0.2553 -0.3597 -0.5100
18622TIP3    H177357   0.945   6.083  14.312 -0.6262 -0.5880  1.0369
18622TIP3    H277358   0.890   5.946  14.280  0.0121 -0.2759 -1.7318
18623TIP3   OH277359   1.258   0.436   4.228 -0.7194 -0.0404 -0.0268
18623TIP3    H177360   1.299   0.479   4.303 -2.5498 -0.4081  1.2567
18623TIP3    H277361   1.262   0.343   4.248  1.8721 -0.4860 -2.0899
18624TIP3   OH277362   2.590   4.579  15.468  0.1750 -0.0948 -0.1036
18624TIP3    H177363   2.597   4.561  15.374  1.5102  2.1054 -0.5139
18624TIP3    H277364   2.525   4.517  15.500 -0.3146 -0.9121 -2.4824
18625TIP3   OH277365   0.160   5.939  11.577  0.5425 -0.0605 -0.0839
18625TIP3    H177366   0.134   6.004  11.642  0.1160 -2.2384  2.0622
18625TIP3    H277367   0.254   5.956  11.563  1.6699 -1.7233  4.0187
18626TIP3   OH277368   4.832   2.002   2.702 -0.2215 -0.4339 -0.0539
18626TIP3    H177369   4.856   1.974   2.790  3.2879  1.5938 -0.1577
18626TIP3    H277370   4.752   2.053   2.714 -0.4342 -1.1215  1.7559
18627TIP3   OH277371   3.642   5.188   2.019  0.4829  0.1448 -0.0027
18627TIP3    H177372   3.624   5.132   1.943 -0.6396  0.4190  0.0393
18627TIP3    H277373   3.725   5.156   2.054 -0.3930 -1.8852  0.3586
18628TIP3   OH277374   6.509   1.143  11.236 -0.0171  0.1863 -0.2452
18628TIP3    H177375   6.594   1.163  11.274 -0.8389  1.2084  1.1503
18628TIP3    H277376   6.451   1.212  11.268 -1.4126 -0.5566 -1.0461
18629TIP3   OH277377   6.672   1.358   2.748 -0.3554  0.2045 -0.3233
18629TIP3    H177378   6.656   1.379   2.840 -0.8633 -0.9048 -0.1354
18629TIP3    H277379   6.590   1.317   2.719 -0.0759  0.2398 -1.1691
18630TIP3   OH277380   3.291   4.063   4.402 -0.3154 -0.1041 -0.5438
18630TIP3    H177381   3.313   4.093   4.490 -0.9369  1.1903 -0.8019
18630TIP3    H277382   3.200   4.091   4.389 -0.5250 -1.0491 -1.2777
18631TIP3   OH277383   2.206   0.009   0.110  0.2226 -0.1627 -0.5330
18631TIP3    H177384   2.295   0.007   0.146 -0.1967 -0.4501  0.5177
18631TIP3    H277385   2.192   0.101   0.087  1.0889 -0.2537 -1.5064
18632TIP3   OH277386   5.052   2.510  16.801  0.0200 -0.0453 -0.4174
18632TIP3    H177387   5.050   2.415  16.794 -0.1520  0.0064 -1.1954
18632TIP3    H277388   4.997   2.531  16.876 -0.1068 -0.5433 -0.3720
18633TIP3   OH277389   3.171   0.107  15.809  0.5964  0.3258  0.1659
18633TIP3    H177390   3.239   0.152  15.759  2.2042  0.7116  2.5668
18633TIP3    H277391   3.208   0.020  15.827 -1.5802 -1.3234 -2.5320
18634TIP3   OH277392   5.217   1.641  16.814 -0.4901  0.4531 -0.5512
18634TIP3    H177393   5.243   1.570  16.755 -0.3564 -0.4562  0.5742
18634TIP3    H277394   5.295   1.696  16.820 -0.9969  1.4696 -2.4601
18635TIP3   OH277395   0.070   4.338   3.736  0.1523 -0.1937  0.2544
18635TIP3    H177396   0.105   4.256   3.770 -1.8593 -1.4406 -0.4838
18635TIP3    H277397   0.115   4.350   3.652  0.3828 -0.6012  0.3161
18636TIP3   OH277398   3.782   3.710   6.061  0.1693 -0.2800  0.1312
18636TIP3    H177399   3.838   3.788   6.056 -1.1638  0.6777 -0.2925
18636TIP3    H277400   3.778   3.690   6.154 -0.7778  1.1691  0.4403
18637TIP3   OH277401   5.126   4.059  13.445 -0.3697 -0.0770  0.0724
18637TIP3    H177402   5.046   4.106  13.419  0.1142  0.4601 -0.4844
18637TIP3    H277403   5.095   3.987  13.499 -1.2679 -0.1076 -0.4661
18638TIP3   OH277404   6.574   3.724  15.959 -0.7432  0.6786 -0.1294
18638TIP3    H177405   6.523   3.798  15.925 -0.6092  0.9738  0.3054
18638TIP3    H277406   6.652   3.765  15.996 -1.4315  0.4839  1.6173
18639TIP3   OH277407   1.761   1.686  15.443 -0.6580 -0.1292  0.0325
18639TIP3    H177408   1.670   1.673  15.416 -0.4939 -1.0371 -0.1193
18639TIP3    H277409   1.775   1.781  15.435 -1.5650  0.0120 -0.0042
18640TIP3   OH277410   0.161   0.479  14.150 -0.2306 -0.0268 -0.0794
18640TIP3    H177411   0.113   0.481  14.233  0.0830  0.4301  0.0909
18640TIP3    H277412   0.223   0.551  14.156  1.9155 -1.8219  0.5582
18641TIP3   OH277413   1.922   2.749   3.185  0.3865 -0.1973 -0.3419
18641TIP3    H177414   1.897   2.718   3.098  0.2134 -0.8397 -0.0729
18641TIP3    H277415   1.861   2.705   3.244  1.6855 -1.2540  0.2697
18642TIP3   OH277416   1.298   0.893  14.763 -0.3680  0.1415  0.5905
18642TIP3    H177417   1.234   0.938  14.707  0.8688  2.7510  1.1385
18642TIP3    H277418   1.251   0.878  14.845 -0.9771 -0.1199  0.2029
18643TIP3   OH277419   0.870   1.472   0.112  1.0395 -0.2987 -0.0026
18643TIP3    H177420   0.880   1.381   0.140  0.9514  0.0262  1.1435
18643TIP3    H277421   0.957   1.498   0.083  0.6562 -1.3411 -2.3202
18644TIP3   OH277422   4.754   5.558  15.098 -0.0528 -0.3705 -0.1951
18644TIP3    H177423   4.698   5.601  15.163  0.4284  0.0514 -0.0577
18644TIP3    H277424   4.834   5.536  15.145  1.2899  2.0585 -1.1643
18645TIP3   OH277425   4.884   5.038  15.681 -0.1414  0.1812  0.2753
18645TIP3    H177426   4.830   5.006  15.753  0.0190  1.2731  0.8992
18645TIP3    H277427   4.971   5.049  15.719  0.2022 -0.2524 -0.3671
18646TIP3   OH277428   6.091   0.301  10.937 -0.2170  0.2938 -0.1320
18646TIP3    H177429   6.100   0.206  10.951  0.7989  0.3924 -0.0272
18646TIP3    H277430   6.105   0.312  10.843 -0.6915  0.3035 -0.2018
18647TIP3   OH277431   2.527   6.661  14.575  0.0790  0.3877 -0.2087
18647TIP3    H177432   2.568   6.577  14.593  0.1215  0.0236 -1.8476
18647TIP3    H277433   2.434   6.642  14.567  0.0052  0.6182  0.0719
18648TIP3   OH277434   1.261   0.601   6.280 -0.2219  0.6016  0.5031
18648TIP3    H177435   1.200   0.541   6.323 -0.6167  0.3304 -0.4170
18648TIP3    H277436   1.279   0.668   6.346  0.3189 -0.5755  1.6020
18649TIP3   OH277437   6.390   4.794   1.780 -0.2509  0.5331  0.0453
18649TIP3    H177438   6.369   4.766   1.869  1.4663  1.9475  0.9745
18649TIP3    H277439   6.310   4.837   1.749 -1.5829 -1.7960  0.0408
18650TIP3   OH277440   3.917   4.996  11.157 -0.1667 -0.0141 -0.0675
18650TIP3    H177441   3.933   4.949  11.075  2.2761 -1.9746  1.3719
18650TIP3    H277442   3.856   4.941  11.205 -0.7065  0.5566 -0.0828
18651TIP3   OH277443   4.758   3.920  11.697  0.6136  0.0442  0.5849
18651TIP3    H177444   4.715   3.935  11.782 -1.9076 -0.2417 -0.5344
18651TIP3    H277445   4.747   4.003  11.650  1.7238  0.0957  0.3874
18652TIP3   OH277446   5.285   6.427   6.548  0.3527  0.1329  0.0339
18652TIP3    H177447   5.202   6.394   6.584  0.3647 -1.1482 -1.0333
18652TIP3    H277448   5.330   6.348   6.516  1.9651  0.8145  0.5404
18653TIP3   OH277449   1.540   1.776  10.756  0.0465  0.1913 -0.6160
18653TIP3    H177450   1.562   1.818  10.673  0.9356  1.0914  0.0496
18653TIP3    H277451   1.452   1.807  10.777 -0.2290 -0.1383 -1.2803
18654TIP3   OH277452   2.604   0.131  16.384  0.1357 -0.3294  0.3415
18654TIP3    H177453   2.560   0.056  16.345  1.0275 -0.4707 -0.4478
18654TIP3    H277454   2.578   0.130  16.476 -0.3505 -1.2391  0.2018
18655TIP3   OH277455   6.767   4.428  14.342 -0.6043 -0.3552  0.2802
18655TIP3    H177456   6.851   4.395  14.311 -1.2180 -0.5257 -1.3025
18655TIP3    H277457   6.783   4.521  14.361  0.1732 -0.6211  1.0073
18656TIP3   OH277458   2.849   5.870  13.060 -0.0933  0.2301  0.2851
18656TIP3    H177459   2.775   5.897  13.005 -0.2500  0.3187  0.5401
18656TIP3    H277460   2.915   5.841  12.997  0.9220  3.1988 -0.1745
18657TIP3   OH277461   4.454   0.784   0.412  0.4414 -0.2790  0.1449
18657TIP3    H177462   4.494   0.842   0.478 -0.6064 -0.3940  0.9111
18657TIP3    H277463   4.394   0.841   0.364 -0.2001 -0.5929  0.5546
18658TIP3   OH277464   0.340   4.151  16.625  0.8423 -0.3307  0.4451
18658TIP3    H177465   0.343   4.157  16.721  0.2205  0.1800  0.4377
18658TIP3    H277466   0.417   4.100  16.602  0.6483 -1.0255  1.2675
18659TIP3   OH277467   0.100   3.267   3.832  0.4514 -0.2943  0.4667
18659TIP3    H177468   0.091   3.210   3.908 -3.3129 -1.8574 -0.9090
18659TIP3    H277469   0.017   3.313   3.826  1.9981  2.6290 -0.6825
18660TIP3   OH277470   3.960   1.162   1.793 -0.0201 -0.0275  0.1877
18660TIP3    H177471   4.038   1.209   1.763  0.7842 -0.4436  1.5474
18660TIP3    H277472   3.940   1.101   1.722  0.6265  0.3942 -0.3683
18661TIP3   OH277473   5.938   4.936   5.650 -0.0001 -0.1764  0.2965
18661TIP3    H177474   5.981   4.884   5.582  1.5135 -0.3782  1.3684
18661TIP3    H277475   5.928   5.023   5.611 -0.1000 -0.5563 -0.5469
18662TIP3   OH277476   2.759   3.249   6.174 -0.1194  0.0870 -0.5030
18662TIP3    H177477   2.801   3.285   6.252 -0.6711  0.1444 -0.2308
18662TIP3    H277478   2.731   3.161   6.200  0.0879 -0.0614 -0.7739
18663TIP3   OH277479   0.507   2.119  12.722  0.0992  0.7044  0.0794
18663TIP3    H177480   0.525   2.109  12.816  1.8922  1.8623 -0.0935
18663TIP3    H277481   0.486   2.212  12.712 -1.2981  0.3543 -0.5264
18664TIP3   OH277482   4.582   6.298   4.703 -0.4032 -0.2735 -0.3839
18664TIP3    H177483   4.634   6.375   4.681 -1.4429  0.4349 -0.4533
18664TIP3    H277484   4.636   6.249   4.765 -0.0325  0.8982  0.2425
18665TIP3   OH277485   1.214   6.351   0.324 -0.3948 -0.2568 -0.1837
18665TIP3    H177486   1.304   6.383   0.314 -0.2103 -0.9819 -0.9527
18665TIP3    H277487   1.218   6.289   0.397 -0.2873 -0.2169 -0.1567
18666TIP3   OH277488   6.325   4.730  15.360 -0.1418  0.2518 -0.6715
18666TIP3    H177489   6.246   4.700  15.315  0.7758 -1.5397 -1.1837
18666TIP3    H277490   6.396   4.715  15.297  0.5847  2.2349 -0.3966
18667TIP3   OH277491   5.642   2.333   1.930 -0.5069  0.0715 -0.4842
18667TIP3    H177492   5.665   2.302   2.018 -0.9057  0.2768 -0.3050
18667TIP3    H277493   5.604   2.258   1.886 -0.2395 -0.0518 -0.5100
18668TIP3   OH277494   0.476   1.711  14.190 -0.0441 -0.1088 -0.7724
18668TIP3    H177495   0.522   1.672  14.265 -0.5216  0.9750  0.1179
18668TIP3    H277496   0.385   1.686  14.202  0.0941 -1.1748 -1.8294
18669TIP3   OH277497   5.154   0.556   1.803 -0.3769 -0.0020 -0.0138
18669TIP3    H177498   5.173   0.583   1.713  1.5567  0.6056  0.5203
18669TIP3    H277499   5.227   0.498   1.826 -0.3417  0.5950  1.4673
18670TIP3   OH277500   2.085   4.193  17.123  0.3878  0.1410  0.8271
18670TIP3    H177501   2.021   4.263  17.137  1.5513  1.1592  1.3176
18670TIP3    H277502   2.150   4.207  17.192  2.6836  0.9713 -1.3371
18671TIP3   OH277503   4.657   1.414   1.929  0.1683  0.0309 -0.2617
18671TIP3    H177504   4.574   1.410   1.978  0.5760 -0.2908  0.4168
18671TIP3    H277505   4.649   1.493   1.876  0.5733  1.6601  1.9654
18672TIP3   OH277506   4.896   1.735   3.790 -0.6009  0.9635 -0.2723
18672TIP3    H177507   4.923   1.772   3.874  2.2446 -1.0046 -0.1592
18672TIP3    H277508   4.933   1.795   3.725  1.9872 -0.2579 -0.0648
18673TIP3   OH277509   4.898   3.072   4.387 -0.0430 -0.3045  0.4553
18673TIP3    H177510   4.829   3.137   4.396 -1.9720 -2.0828 -0.6247
18673TIP3    H277511   4.874   3.002   4.447  1.3533 -0.5877  0.7393
18674TIP3   OH277512   0.979   4.964   0.846  0.3579  0.1241 -0.5213
18674TIP3    H177513   0.976   4.968   0.942  0.2172  0.9576 -0.5469
18674TIP3    H277514   1.046   4.899   0.826  0.2935 -0.1526  0.1462
18675TIP3   OH277515   0.483   5.157   0.188  0.3844  0.4472 -0.1917
18675TIP3    H177516   0.436   5.157   0.271 -0.2517 -2.0306 -0.4868
18675TIP3    H277517   0.570   5.191   0.209 -0.1460  0.9716  1.2331
18676TIP3   OH277518   0.215   1.513   5.536 -0.3983 -0.0290  0.1697
18676TIP3    H177519   0.135   1.530   5.486 -0.5970  1.0613  0.8227
18676TIP3    H277520   0.199   1.552   5.622 -0.0129 -1.7742  1.0812
18677TIP3   OH277521   0.443   1.064   4.408 -0.4374 -0.3336 -0.1350
18677TIP3    H177522   0.472   1.028   4.324 -0.4664 -0.8981  0.0909
18677TIP3    H277523   0.391   1.140   4.384  2.0552  1.3601 -0.5254
18678TIP3   OH277524   1.012   1.300   6.229  0.0316 -0.4098 -0.2068
18678TIP3    H177525   1.023   1.254   6.313 -1.0307 -0.1900  0.0706
18678TIP3    H277526   1.014   1.230   6.163  0.8869 -0.5822 -0.0131
18679TIP3   OH277527   3.289   0.484   4.524 -0.9765  0.1690 -0.0150
18679TIP3    H177528   3.272   0.490   4.618 -1.1521 -0.6850  0.0180
18679TIP3    H277529   3.220   0.425   4.492 -1.0411  0.6231 -0.7122
18680TIP3   OH277530   3.720   3.437   2.405 -0.5316 -0.2550 -0.8151
18680TIP3    H177531   3.751   3.369   2.345  0.3912 -0.8366  0.2761
18680TIP3    H277532   3.688   3.389   2.481 -0.0577  0.5198 -0.1090
18681TIP3   OH277533   2.402   1.191  13.164  0.6390 -0.1158  0.2747
18681TIP3    H177534   2.335   1.180  13.097  1.2908 -1.3214 -0.1985
18681TIP3    H277535   2.385   1.278  13.201 -0.1015  0.3177 -1.0276
18682TIP3   OH277536   1.465   5.273   1.085  0.3344  0.1523  0.6570
18682TIP3    H177537   1.521   5.308   1.016 -1.4330 -1.8941 -2.0217
18682TIP3    H277538   1.396   5.339   1.096 -0.7679 -0.5695 -1.4504
18683TIP3   OH277539   2.331   4.456   5.490  0.1374  0.2960  0.0081
18683TIP3    H177540   2.343   4.542   5.530  1.4375  0.2977 -0.3316
18683TIP3    H277541   2.391   4.398   5.538 -1.4396 -0.6698  0.9013
18684TIP3   OH277542   5.386   1.656   1.252  0.4057 -0.2013  0.1915
18684TIP3    H177543   5.407   1.625   1.164 -0.9408 -0.6741  0.0111
18684TIP3    H277544   5.442   1.604   1.310  0.8789 -0.3010 -0.3528
18685TIP3   OH277545   2.568   5.640  12.779 -0.0122 -0.0516 -0.2251
18685TIP3    H177546   2.507   5.669  12.847  0.9783 -0.5315  0.8894
18685TIP3    H277547   2.559   5.545  12.777 -0.0435 -0.0450 -0.7975
18686TIP3   OH277548   3.249   1.457   1.666 -0.0708  0.1616 -0.2004
18686TIP3    H177549   3.330   1.506   1.677  0.7825 -0.6500 -2.3588
18686TIP3    H277550   3.180   1.519   1.688  1.0854  1.2943  0.3284
18687TIP3   OH277551   5.413   3.678  13.929  0.7306 -0.1637 -0.1387
18687TIP3    H177552   5.356   3.651  13.857 -0.3259 -1.6614  1.1979
18687TIP3    H277553   5.365   3.749  13.973  1.7662  1.3609 -1.3570
18688TIP3   OH277554   2.959   1.073   3.080 -0.6002  0.1897 -0.1519
18688TIP3    H177555   2.868   1.044   3.070 -1.0037  0.7605  1.4868
18688TIP3    H277556   2.963   1.154   3.028 -0.2677 -1.1374 -2.3332
18689TIP3   OH277557   4.467   2.233   4.612  0.7825  0.4434 -0.0587
18689TIP3    H177558   4.454   2.138   4.624  1.3480  0.3271 -0.3541
18689TIP3    H277559   4.380   2.270   4.628  0.4146 -0.1829 -0.5220
18690TIP3   OH277560   5.895   5.611   0.216  0.1147  0.6842  0.0976
18690TIP3    H177561   5.850   5.648   0.140  0.9776  4.1722  1.1279
18690TIP3    H277562   5.941   5.535   0.181 -1.4750  0.7143 -2.3102
18691TIP3   OH277563   0.592   2.194  16.400  0.4506 -0.0823  0.2095
18691TIP3    H177564   0.545   2.258  16.347  0.4891 -0.5309 -0.3748
18691TIP3    H277565   0.586   2.227  16.489  1.1534  1.1532 -0.1810
18692TIP3   OH277566   1.962   2.185   2.255  0.1509 -0.5835  0.1492
18692TIP3    H177567   2.045   2.192   2.302 -0.4776 -1.3197  1.4345
18692TIP3    H277568   1.965   2.098   2.215  0.5350 -0.0953 -0.9038
18693TIP3   OH277569   0.271   1.382   0.411  0.7297  0.3742 -0.7482
18693TIP3    H177570   0.342   1.421   0.463  0.6847 -1.9297  1.2397
18693TIP3    H277571   0.264   1.292   0.444 -1.8536 -0.0616 -2.2084
18694TIP3   OH277572   5.489   2.840   4.788  0.7330 -0.2731  0.3632
18694TIP3    H177573   5.542   2.782   4.842  0.1196  0.6246  1.9957
18694TIP3    H277574   5.465   2.912   4.846  0.0628  0.7633 -1.1254
18695TIP3   OH277575   0.315   4.859   5.401 -0.3268  0.0316 -0.1511
18695TIP3    H177576   0.350   4.805   5.471  0.4994 -0.0756 -0.6373
18695TIP3    H277577   0.227   4.824   5.386  0.1728 -1.1572 -0.4331
18696TIP3   OH277578   5.685   2.935   0.260 -0.3912  0.5748  0.3891
18696TIP3    H177579   5.672   2.841   0.243 -2.2090  0.2120  3.1537
18696TIP3    H277580   5.632   2.979   0.194 -0.8746 -0.4257  0.0915
18697TIP3   OH277581   2.044   0.224  15.827 -0.4602 -0.6906 -0.1735
18697TIP3    H177582   2.056   0.298  15.768 -0.8870  0.6917  1.3964
18697TIP3    H277583   2.026   0.264  15.913  1.3374 -2.5743  1.1896
18698TIP3   OH277584   4.600   3.946   2.216  0.3939  0.2331  0.4648
18698TIP3    H177585   4.547   3.879   2.173  2.4867 -1.0794 -0.2776
18698TIP3    H277586   4.592   3.926   2.310 -0.0320 -0.2300  0.3336
18699TIP3   OH277587   4.673   1.652  17.077 -0.1376 -0.0079  0.4960
18699TIP3    H177588   4.674   1.747  17.070 -0.0496  0.0155  0.7874
18699TIP3    H277589   4.657   1.636  17.171 -1.5570 -0.2720  0.2378
18700TIP3   OH277590   6.259   2.385   2.764 -0.0540 -0.1847 -0.6966
18700TIP3    H177591   6.174   2.382   2.806  0.7011 -1.3742  0.8463
18700TIP3    H277592   6.281   2.478   2.759 -0.5039  0.0231  0.9049
18701TIP3   OH277593   6.122   6.135  12.251 -0.1355  0.1965 -0.0478
18701TIP3    H177594   6.179   6.152  12.176  0.2690 -1.4411 -0.1491
18701TIP3    H277595   6.078   6.053  12.230 -2.9181  1.5905 -0.1467
18702TIP3   OH277596   4.593   1.168   0.708 -0.5525  0.2348  0.2361
18702TIP3    H177597   4.515   1.206   0.667 -1.2076  0.1709  1.3806
18702TIP3    H277598   4.609   1.222   0.785 -0.6901 -0.9727  1.1392
18703TIP3   OH277599   6.472   3.901   4.549  0.4788 -0.2857 -0.0920
18703TIP3    H177600   6.406   3.969   4.558 -0.5957 -1.2836 -0.1836
18703TIP3    H277601   6.541   3.941   4.495 -2.0269 -0.5316 -3.8601
18704TIP3   OH277602   0.756   3.900   2.237 -0.3312  0.4299 -0.0828
18704TIP3    H177603   0.798   3.984   2.260 -1.4000  1.2387 -0.9755
18704TIP3    H277604   0.690   3.888   2.305  0.5807 -0.3007  0.7061
18705TIP3   OH277605   2.153   1.804  12.236 -0.6063 -0.0438  0.1229
18705TIP3    H177606   2.162   1.896  12.259 -1.4784  0.3066 -0.8717
18705TIP3    H277607   2.181   1.799  12.144  0.0408 -0.8950  0.3504
18706TIP3   OH277608   0.317   2.309  15.574 -0.3631 -0.6944 -0.0580
18706TIP3    H177609   0.400   2.347  15.544 -0.9125  0.2699 -0.3691
18706TIP3    H277610   0.318   2.220  15.538  0.7300 -0.8575  0.3171
18707TIP3   OH277611   0.110   3.677  12.141  0.2151 -0.5900  0.3034
18707TIP3    H177612   0.160   3.750  12.105 -0.5270  0.5383  1.4432
18707TIP3    H277613   0.043   3.658  12.075  0.1207  0.0893  0.1955
18708TIP3   OH277614   4.942   2.379   1.634 -0.2818  0.0055  0.5110
18708TIP3    H177615   4.943   2.465   1.592  1.6203  0.3875  1.2605
18708TIP3    H277616   4.996   2.324   1.578 -2.6546 -1.1808 -0.7642
18709TIP3   OH277617   2.132   2.413   4.519  0.3180  0.0643 -0.4690
18709TIP3    H177618   2.042   2.435   4.540 -0.1483 -0.4460 -1.7939
18709TIP3    H277619   2.142   2.439   4.427  1.4937  0.0505 -0.3633
18710TIP3   OH277620   3.654   5.363  10.401 -0.5484 -0.0563  0.0782
18710TIP3    H177621   3.659   5.457  10.419 -0.0835 -0.5447  2.9655
18710TIP3    H277622   3.744   5.331  10.408 -0.6988 -0.7516 -0.8701
18711TIP3   OH277623   3.220   6.618   5.555  0.2458  0.1019 -0.0094
18711TIP3    H177624   3.150   6.584   5.499  1.0044  0.2922 -1.1154
18711TIP3    H277625   3.264   6.683   5.500  0.0858  1.4161  1.3452
18712TIP3   OH277626   2.703   5.521  14.248  0.3923 -0.2382 -0.0658
18712TIP3    H177627   2.736   5.530  14.337 -0.6999 -0.3814  0.3647
18712TIP3    H277628   2.707   5.427  14.231  0.3412 -0.2398 -0.0695
18713TIP3   OH277629   6.320   3.639  16.086  0.1744 -0.2393  0.2458
18713TIP3    H177630   6.398   3.684  16.053  0.5136  0.7253  2.1919
18713TIP3    H277631   6.272   3.707  16.135 -2.0732 -0.7273 -1.1338
18714TIP3   OH277632   0.194   1.142   4.696 -0.4419  0.2658  0.2808
18714TIP3    H177633   0.122   1.188   4.653 -0.3433 -0.9147 -1.2289
18714TIP3    H277634   0.264   1.139   4.631 -0.0775 -1.1097  0.6904
18715TIP3   OH277635   3.589   3.576  15.333 -0.4646 -0.4333  0.3959
18715TIP3    H177636   3.548   3.558  15.248  0.7280 -1.5911  0.0305
18715TIP3    H277637   3.681   3.554  15.320 -0.1194  0.0948  1.7909
18716TIP3   OH277638   1.665   2.797  14.523 -0.3338  0.3405  0.3071
18716TIP3    H177639   1.647   2.883  14.561  0.8371  0.6671  0.1664
18716TIP3    H277640   1.703   2.747  14.595 -1.6905 -0.3207  0.5899
18717TIP3   OH277641   2.964   6.419   5.763  0.4687 -0.0937 -0.7962
18717TIP3    H177642   2.977   6.484   5.831  0.5593  0.3011 -1.1897
18717TIP3    H277643   2.879   6.379   5.783  1.6783 -1.8807  1.1192
18718TIP3   OH277644   6.654   5.750  10.509 -0.1144 -0.6854 -0.0878
18718TIP3    H177645   6.653   5.779  10.601 -0.7970  1.9265 -0.8320
18718TIP3    H277646   6.587   5.683  10.504 -2.4517  1.4252  0.7370
18719TIP3   OH277647   0.343   5.986   3.459  0.2523 -0.0574 -0.1689
18719TIP3    H177648   0.429   6.026   3.467  0.6721 -1.2169  2.0958
18719TIP3    H277649   0.356   5.910   3.402  0.8293 -0.3956  0.4002
18720TIP3   OH277650   5.624   0.977   5.365  0.1342 -0.3419 -0.2302
18720TIP3    H177651   5.619   1.037   5.439 -1.5320 -0.9011  0.1624
18720TIP3    H277652   5.592   1.029   5.291 -0.5344 -0.4892 -0.0527
18721TIP3   OH277653   1.962   2.709  16.860 -0.2497  0.6509 -0.2425
18721TIP3    H177654   2.019   2.785  16.874 -1.5011  2.2527 -3.0247
18721TIP3    H277655   2.011   2.653  16.801  0.3932 -0.4423  1.2772
18722TIP3   OH277656   5.307   1.640  13.823 -0.8692  0.2653 -0.5842
18722TIP3    H177657   5.268   1.726  13.814  0.1644  0.6270 -1.9812
18722TIP3    H277658   5.398   1.657  13.849 -1.6059 -0.5621  3.0950
18723TIP3   OH277659   1.328   4.286  13.305 -0.3334  0.4113  0.4201
18723TIP3    H177660   1.278   4.232  13.366 -1.1399  1.6084  0.8558
18723TIP3    H277661   1.417   4.287  13.341  0.0592 -1.6854 -0.3279
18724TIP3   OH277662   2.572   2.241  14.442 -0.2260  0.3018 -0.1308
18724TIP3    H177663   2.541   2.327  14.416 -0.0433  0.1401 -0.9158
18724TIP3    H277664   2.666   2.242  14.422 -0.0000  0.2953  0.8860
18725TIP3   OH277665   4.321   6.260   1.441  0.1733  0.0395  0.4611
18725TIP3    H177666   4.282   6.176   1.416  0.5537  0.3030 -1.1984
18725TIP3    H277667   4.376   6.240   1.516  0.8420 -1.3897 -0.3592
18726TIP3   OH277668   5.763   0.106   0.795  0.1892  0.4126 -0.3521
18726TIP3    H177669   5.783   0.040   0.861  1.2455  1.5763  0.5297
18726TIP3    H277670   5.824   0.088   0.723 -1.6818 -1.5413 -1.5965
18727TIP3   OH277671   1.184   5.778   3.167 -0.3191  0.6645  0.0210
18727TIP3    H177672   1.235   5.781   3.086 -0.5084  1.2196 -0.0870
18727TIP3    H277673   1.125   5.704   3.156  2.1401 -1.6207  1.2055
18728TIP3   OH277674   4.436   0.077  12.741 -0.3835  0.2061  0.2009
18728TIP3    H177675   4.452  -0.010  12.706  0.4549  0.7375 -0.8228
18728TIP3    H277676   4.396   0.063  12.826  1.6729 -1.2199  1.0163
18729TIP3   OH277677   4.868   5.934  16.443 -0.4435  0.1366  0.6705
18729TIP3    H177678   4.822   6.000  16.391 -2.3949 -0.8675  1.0681
18729TIP3    H277679   4.947   5.914  16.392 -0.8551  1.2727 -0.4508
18730TIP3   OH277680   3.223   4.258  15.536  0.2280 -0.3206  0.0041
18730TIP3    H177681   3.242   4.165  15.523  0.6328 -0.2344 -0.0173
18730TIP3    H277682   3.302   4.303  15.507 -0.1778  0.0638 -0.5100
18731TIP3   OH277683   4.212   1.758   1.955  0.3741 -0.6348  0.2332
18731TIP3    H177684   4.181   1.698   1.887 -0.3153 -0.2512  0.2014
18731TIP3    H277685   4.161   1.837   1.942  0.8483 -0.2505  0.6628
18732TIP3   OH277686   4.500   5.659  17.027 -0.6148 -0.4848 -0.1016
18732TIP3    H177687   4.499   5.610  16.944  0.6579 -0.0926 -0.3693
18732TIP3    H277688   4.592   5.682  17.040 -1.1796  2.1106 -0.1594
18733TIP3   OH277689   4.349   3.244  11.541 -1.1583 -0.1253  0.3135
18733TIP3    H177690   4.289   3.282  11.476 -0.5809  0.3627  0.0626
18733TIP3    H277691   4.414   3.198  11.489 -1.6061 -1.1235  0.6024
18734TIP3   OH277692   5.412   0.993  14.463 -0.3328 -0.5524 -0.8847
18734TIP3    H177693   5.442   0.953  14.544 -0.9288 -1.0477 -0.9041
18734TIP3    H277694   5.491   0.999  14.409  0.4529  1.4414  0.3768
18735TIP3   OH277695   4.463   1.136  17.213  0.2745 -0.1326  0.3106
18735TIP3    H177696   4.519   1.136  17.290 -0.5666  0.3568  0.9491
18735TIP3    H277697   4.485   1.056  17.166  2.0751  0.4539  0.1045
18736TIP3   OH277698   2.582   1.405  12.651 -0.3815 -0.5811 -0.2172
18736TIP3    H177699   2.627   1.347  12.713  0.6910  1.3502  0.8993
18736TIP3    H277700   2.607   1.493  12.678  0.9048  0.3787 -3.9770
18737TIP3   OH277701   0.025   0.663   3.340  0.0039  0.1546  0.0334
18737TIP3    H177702  -0.022   0.604   3.397 -0.2743 -0.0118 -0.3646
18737TIP3    H277703   0.038   0.614   3.258 -0.6405  0.7965 -0.4656
18738TIP3   OH277704   6.146   2.163   5.092 -0.3994 -0.3158  0.0170
18738TIP3    H177705   6.126   2.256   5.083  1.0327  0.2269  1.9001
18738TIP3    H277706   6.228   2.152   5.044 -0.8561 -0.7528 -0.6805
18739TIP3   OH277707   1.428   5.454  14.399 -0.5005 -0.0245 -0.8979
18739TIP3    H177708   1.341   5.493  14.409  0.1517  1.2776 -0.0819
18739TIP3    H277709   1.480   5.522  14.358  0.6361 -0.0584  0.4189
18740TIP3   OH277710   0.153   2.266   3.340 -0.0556  0.1355 -0.2570
18740TIP3    H177711   0.123   2.186   3.297  0.2376 -1.2357  1.9197
18740TIP3    H277712   0.248   2.263   3.334 -0.0397  0.2704 -0.0754
18741TIP3   OH277713   3.181   4.566  14.826  0.6879  0.1755 -0.0012
18741TIP3    H177714   3.177   4.660  14.809  2.2463  0.3278  0.3388
18741TIP3    H277715   3.193   4.527  14.739  0.1829  0.2856 -0.1270
18742TIP3   OH277716   2.265   2.612   5.703  0.0397 -0.4463 -0.2999
18742TIP3    H177717   2.352   2.591   5.671 -0.2661  1.0891 -2.3734
18742TIP3    H277718   2.213   2.534   5.683  0.9012 -1.3904  0.9895
18743TIP3   OH277719   5.590   0.782  11.371 -0.3827 -0.1994  0.2923
18743TIP3    H177720   5.543   0.807  11.451 -2.1936  1.0134 -1.0790
18743TIP3    H277721   5.632   0.699  11.393 -1.2344 -0.1423  2.3474
18744TIP3   OH277722   6.244   3.347  16.182 -0.2496  0.1732 -0.0888
18744TIP3    H177723   6.248   3.443  16.188 -0.1586  0.1042  1.0821
18744TIP3    H277724   6.331   3.322  16.151  0.2560  0.3821  1.1037
18745TIP3   OH277725   1.859   1.796  11.962  0.2630 -0.0627 -0.4711
18745TIP3    H177726   1.785   1.740  11.987 -0.6043  0.7681 -1.1079
18745TIP3    H277727   1.926   1.778  12.028  0.0778 -1.9531 -0.7291
18746TIP3   OH277728   1.127   3.108  16.136  0.0673  0.1308 -0.4538
18746TIP3    H177729   1.079   3.026  16.123 -0.2818  0.5798 -2.3266
18746TIP3    H277730   1.058   3.174  16.148 -0.0120  0.9379 -4.0860
18747TIP3   OH277731   4.228   3.744   4.548 -0.2910  0.0772 -0.0530
18747TIP3    H177732   4.240   3.790   4.632  1.4165  0.9128 -0.6911
18747TIP3    H277733   4.164   3.797   4.500 -2.0351 -0.9444  1.0522
18748TIP3   OH277734   0.605   0.159   1.459  0.2662 -0.3946 -0.3868
18748TIP3    H177735   0.571   0.167   1.370  2.4810 -2.3939 -1.5087
18748TIP3    H277736   0.579   0.072   1.487  0.8787 -0.3507  0.3333
18749TIP3   OH277737   2.844   3.178   5.642 -0.1736 -0.2659  0.5568
18749TIP3    H177738   2.765   3.177   5.696  0.1280  1.2976  1.0879
18749TIP3    H277739   2.843   3.263   5.599 -1.1397 -1.9362 -3.1690
18750TIP3   OH277740   1.346   0.405  12.563  0.2575  0.5106  0.1207
18750TIP3    H177741   1.415   0.342  12.543  0.0904  0.9869 -2.2251
18750TIP3    H277742   1.391   0.490  12.562 -0.1402  0.7200 -0.2047
18751TIP3   OH277743   4.839   4.805  12.276  0.1371 -0.6972  0.0810
18751TIP3    H177744   4.903   4.743  12.311  0.5260  0.2381  1.0533
18751TIP3    H277745   4.891   4.878  12.243 -0.3212 -0.8425 -1.0131
18752TIP3   OH277746   4.082   6.071  14.167 -0.1358 -0.1224 -0.3193
18752TIP3    H177747   4.153   6.106  14.114  1.4421 -1.0109  1.1244
18752TIP3    H277748   4.073   5.980  14.139  1.5703 -0.9815  1.6881
18753TIP3   OH277749   3.119   0.627   0.217  0.2093 -0.2275 -0.5648
18753TIP3    H177750   3.189   0.592   0.272 -0.7705  1.4872  1.9334
18753TIP3    H277751   3.057   0.666   0.278 -1.0699  1.6603 -2.8929
18754TIP3   OH277752   2.521   0.898  12.902  0.2135 -0.5653  0.2492
18754TIP3    H177753   2.462   0.828  12.930 -0.6429 -0.5459 -1.3421
18754TIP3    H277754   2.463   0.970  12.879  1.0236  0.2868  0.8129
18755TIP3   OH277755   3.630   5.401   2.508  0.1251  0.2000 -0.6056
18755TIP3    H177756   3.711   5.426   2.463 -0.2284  0.2247 -1.2385
18755TIP3    H277757   3.565   5.395   2.438 -1.3070  3.6794  0.2560
18756TIP3   OH277758   1.140   0.986  13.621 -0.5407  0.7955  0.4956
18756TIP3    H177759   1.200   1.044  13.667  1.6605 -1.2343  0.4053
18756TIP3    H277760   1.134   1.022  13.532  0.7840  0.9011  0.4372
18757TIP3   OH277761   5.028   4.829  11.040  0.1751 -0.4113  0.1928
18757TIP3    H177762   5.110   4.849  10.993 -1.1846 -0.4444 -2.3571
18757TIP3    H277763   5.045   4.745  11.082  1.5595 -0.2764 -0.0443
18758TIP3   OH277764   0.028   5.104  13.146  0.2447  0.4417 -0.2023
18758TIP3    H177765   0.104   5.074  13.096 -0.3103 -0.1452 -0.7257
18758TIP3    H277766  -0.020   5.159  13.084 -1.0766 -1.2547 -0.7689
18759TIP3   OH277767   0.986   4.788  11.470  0.2781  0.2865 -0.1770
18759TIP3    H177768   1.065   4.787  11.523 -0.5510  2.9094  1.3003
18759TIP3    H277769   0.922   4.737  11.521  0.7242 -1.1031 -0.9579
18760TIP3   OH277770   0.944   0.073   1.944  0.3674 -0.1797  0.0398
18760TIP3    H177771   0.857   0.100   1.914  0.1761 -1.5030 -0.6771
18760TIP3    H277772   1.004   0.116   1.884  0.1393 -0.2696 -0.2557
18761TIP3   OH277773   0.527   5.176   5.100  0.5598 -0.1823 -0.0340
18761TIP3    H177774   0.552   5.223   5.180  3.4500  1.2932 -1.6290
18761TIP3    H277775   0.558   5.087   5.114  0.7181 -0.0255  0.6543
18762TIP3   OH277776   6.019   4.601  17.022 -0.3215 -0.4227 -0.3597
18762TIP3    H177777   5.992   4.549  17.097  0.0832  0.2261  0.2486
18762TIP3    H277778   5.941   4.605  16.966 -0.8620 -0.2937  0.3819
18763TIP3   OH277779   6.350   5.349  11.894  0.1585  0.0073 -0.0010
18763TIP3    H177780   6.272   5.295  11.908  0.6305 -0.3197  1.5357
18763TIP3    H277781   6.345   5.374  11.802 -1.2759 -0.7629 -0.1667
18764TIP3   OH277782   3.885   6.311  11.096 -0.4358  0.1827  0.0975
18764TIP3    H177783   3.872   6.307  11.191 -0.4242  0.8344  0.1310
18764TIP3    H277784   3.909   6.222  11.072  1.8990  0.4692  1.0599
18765TIP3   OH277785   2.855   2.208  17.090 -0.1231  0.5761 -0.6659
18765TIP3    H177786   2.868   2.301  17.111 -2.0419  0.6567  0.3858
18765TIP3    H277787   2.913   2.162  17.151  1.1596  1.0658 -1.4824
18766TIP3   OH277788   1.788   0.128   3.182 -0.3907 -0.5285 -0.2347
18766TIP3    H177789   1.849   0.113   3.110  1.0674  0.7481  0.6762
18766TIP3    H277790   1.751   0.215   3.164  1.7715  0.8880  1.7116
18767TIP3   OH277791   3.093   1.746   2.183 -0.1673  0.1609 -0.1936
18767TIP3    H177792   3.066   1.663   2.142 -2.0811 -0.2051  1.5934
18767TIP3    H277793   3.012   1.797   2.188 -0.1852  0.0674  3.1974
18768TIP3   OH277794   6.201   4.852   3.932 -0.1282 -0.1533 -0.3748
18768TIP3    H177795   6.118   4.847   3.978 -0.0882  2.2783  0.0772
18768TIP3    H277796   6.177   4.847   3.839 -0.8118  0.5807 -0.2488
18769TIP3   OH277797   0.743   6.637  15.746  0.3603  0.0671 -0.0308
18769TIP3    H177798   0.809   6.584  15.791  1.6292  0.3373 -1.5070
18769TIP3    H277799   0.700   6.576  15.687  1.0314  0.3972 -0.8879
18770TIP3   OH277800   5.351   2.362  13.448  0.4413 -0.9738 -0.0404
18770TIP3    H177801   5.379   2.446  13.486  0.4869 -0.6341 -0.8199
18770TIP3    H277802   5.433   2.313  13.436  0.3291 -1.5475  1.3643
18771TIP3   OH277803   0.130   6.491   2.055  0.4985  0.2415 -0.5233
18771TIP3    H177804   0.111   6.418   1.996  0.6383  1.6937 -2.4898
18771TIP3    H277805   0.109   6.569   2.003  0.8067  1.6134  1.3227
18772TIP3   OH277806   0.477   1.476   5.931  0.1524 -0.4297  0.3749
18772TIP3    H177807   0.542   1.428   5.982  0.2474 -0.1583  0.5059
18772TIP3    H277808   0.520   1.558   5.908 -0.2024 -0.1791  0.6027
18773TIP3   OH277809   0.416   2.033  14.157 -0.1216  0.2169 -0.1124
18773TIP3    H177810   0.450   1.987  14.233 -1.8294  1.3827  1.4410
18773TIP3    H277811   0.352   1.973  14.119 -1.5675  0.8067  1.2824
18774TIP3   OH277812   0.380   3.094  16.802 -0.3045 -0.6866  0.3518
18774TIP3    H177813   0.292   3.105  16.837  0.8720  0.1010  3.3754
18774TIP3    H277814   0.420   3.180  16.808  1.1997 -1.3676  0.7731
18775TIP3   OH277815   2.709   6.427   0.150 -0.0695  0.0278  0.3692
18775TIP3    H177816   2.626   6.428   0.197  0.0739 -1.8652  0.7516
18775TIP3    H277817   2.697   6.360   0.082  0.6547  0.7851 -0.5352
18776TIP3   OH277818   4.486   1.690  13.429  0.0731  0.5356 -0.7290
18776TIP3    H177819   4.396   1.682  13.399 -0.1836  1.1544 -0.1408
18776TIP3    H277820   4.506   1.605  13.470  0.6393 -0.5640 -3.1186
18777TIP3   OH277821   3.730   2.355  16.666 -0.4274 -0.2779  0.5066
18777TIP3    H177822   3.809   2.310  16.638  0.1208  1.1608 -0.4291
18777TIP3    H277823   3.757   2.411  16.738 -0.5052  0.3946  0.0348
18778TIP3   OH277824   3.051   1.497   4.541  0.1019 -0.6444 -0.0946
18778TIP3    H177825   3.111   1.512   4.614 -1.1653 -0.8155  1.0363
18778TIP3    H277826   2.964   1.513   4.578 -0.6022 -1.0660 -1.4879
18779TIP3   OH277827   1.334   4.190   1.759 -0.4972 -0.6015  0.0661
18779TIP3    H177828   1.285   4.181   1.677 -1.7313  1.1089  0.5506
18779TIP3    H277829   1.266   4.194   1.827  0.3655  0.4497  0.9064
18780TIP3   OH277830   4.063   1.737  17.085 -0.1292  0.1488 -0.3547
18780TIP3    H177831   3.973   1.733  17.119 -0.1229 -0.4786 -0.3895
18780TIP3    H277832   4.115   1.689  17.149  0.1686  0.4273 -0.3851
18781TIP3   OH277833   1.169   4.694   2.915 -0.4838 -0.2298 -0.4421
18781TIP3    H177834   1.116   4.652   2.846  0.5766 -0.0633 -1.3828
18781TIP3    H277835   1.217   4.763   2.869 -1.5994  1.5336  0.9347
18782TIP3   OH277836   3.669   6.702  12.823  0.3190  0.1005 -0.0220
18782TIP3    H177837   3.594   6.755  12.796 -0.6259 -1.3853 -0.3805
18782TIP3    H277838   3.653   6.616  12.785  1.4343 -0.6740  1.1850
18783TIP3   OH277839   0.682   3.017  16.783 -0.2846 -0.4988 -0.0417
18783TIP3    H177840   0.591   3.048  16.778 -0.6714 -1.6491 -0.8337
18783TIP3    H277841   0.688   2.973  16.867  0.4736  2.1865  1.4091
18784TIP3   OH277842   5.201   5.144   4.874  0.5399  0.5081  0.0474
18784TIP3    H177843   5.179   5.060   4.833  0.4506  0.7185 -0.3331
18784TIP3    H277844   5.165   5.210   4.816  3.4344  0.9510 -1.4192
18785TIP3   OH277845   0.865   5.394  12.840  0.2670 -0.7150  1.1551
18785TIP3    H177846   0.837   5.485  12.838 -0.0964 -0.8335 -0.6778
18785TIP3    H277847   0.898   5.381  12.929 -0.8803  0.8240  1.8426
18786TIP3   OH277848   3.965   2.748   2.249  0.3018  0.1298 -0.2837
18786TIP3    H177849   4.013   2.800   2.314  0.4091 -0.2482 -0.0612
18786TIP3    H277850   3.933   2.813   2.186  1.4096  0.3601 -0.6340
18787TIP3   OH277851   4.962   1.348  13.609  0.5662  0.0900  0.3119
18787TIP3    H177852   5.004   1.268  13.580  1.0248 -0.1784  1.6605
18787TIP3    H277853   4.891   1.362  13.545  0.6085 -1.2569 -0.0666
18788TIP3   OH277854   3.310   4.566  13.026  0.5514  0.5442 -0.6814
18788TIP3    H177855   3.244   4.632  13.046 -0.5844 -0.5287 -0.8065
18788TIP3    H277856   3.327   4.576  12.933  1.1898  1.3603 -0.4901
18789TIP3   OH277857   1.580   3.642   5.274 -0.2901 -0.0617 -0.6659
18789TIP3    H177858   1.526   3.630   5.351 -2.1788 -2.9925 -2.2787
18789TIP3    H277859   1.542   3.718   5.230  0.6185  1.4471  1.0267
18790TIP3   OH277860   1.263   3.945  13.310  0.0743  0.2246 -0.3805
18790TIP3    H177861   1.209   3.983  13.241  1.3778  2.8015 -0.1072
18790TIP3    H277862   1.227   3.858  13.324 -2.0276  0.7040 -2.3016
18791TIP3   OH277863   2.355   1.767   6.547 -0.3090  0.4882  0.0329
18791TIP3    H177864   2.266   1.732   6.546 -0.6403  1.3171  0.2369
18791TIP3    H277865   2.408   1.697   6.585 -1.0476  0.3897  0.9001
18792TIP3   OH277866   1.623   3.350   5.239 -0.1357 -0.0556  0.4835
18792TIP3    H177867   1.584   3.437   5.232 -2.9234 -1.2062  0.2377
18792TIP3    H277868   1.675   3.340   5.159 -1.9033  0.4791 -0.7894
18793TIP3   OH277869   5.182   5.686  12.873 -0.7049  0.1824  0.2059
18793TIP3    H177870   5.108   5.688  12.812 -1.0207 -1.5207  0.4691
18793TIP3    H277871   5.145   5.649  12.953 -0.0109  1.2490  1.0471
18794TIP3   OH277872   5.478   6.370  11.802 -0.1439  0.2149 -0.0188
18794TIP3    H177873   5.416   6.298  11.801  0.3311 -0.2034  0.0808
18794TIP3    H277874   5.429   6.445  11.769 -0.5707 -0.2109 -0.3587
18795TIP3   OH277875   0.643   2.615   4.945  0.0107 -0.1638  0.1464
18795TIP3    H177876   0.681   2.703   4.953  0.6054 -0.2707 -1.2031
18795TIP3    H277877   0.693   2.575   4.874 -1.3078 -1.0430 -0.3042
18796TIP3   OH277878   6.071   0.088   0.123 -0.3728 -0.5926  0.1792
18796TIP3    H177879   6.092   0.078   0.030 -2.1687 -1.3755 -0.1794
18796TIP3    H277880   6.021   0.010   0.145 -0.6012 -0.0625  1.6347
18797TIP3   OH277881   4.869   0.270  15.534  0.8820 -0.0113 -0.6261
18797TIP3    H177882   4.956   0.267  15.493  0.0895  0.5436 -2.4670
18797TIP3    H277883   4.809   0.239  15.466 -0.4696  0.5554  0.2579
18798TIP3   OH277884   0.225   1.500  12.684 -0.1150 -0.0648  0.2618
18798TIP3    H177885   0.160   1.430  12.681 -1.0707  0.8268 -0.6893
18798TIP3    H277886   0.309   1.455  12.691 -0.8251 -1.2452  1.9842
18799TIP3   OH277887   3.939   1.776   0.191  0.7829 -0.1311  0.3302
18799TIP3    H177888   4.026   1.795   0.155  1.3215 -2.3687  0.2925
18799TIP3    H277889   3.957   1.743   0.279 -0.0434 -0.4118  0.3970
18800TIP3   OH277890   1.308   5.081  13.323 -0.3216 -0.1745 -0.3945
18800TIP3    H177891   1.254   5.064  13.400  0.2309  1.3546  0.3586
18800TIP3    H277892   1.395   5.049  13.347  0.0437  1.0235 -0.0440
18801TIP3   OH277893   5.796   5.357  15.578 -0.2393 -0.2534  0.9598
18801TIP3    H177894   5.881   5.400  15.570 -0.0690 -0.8418 -0.6087
18801TIP3    H277895   5.749   5.408  15.645  0.5469  1.3691  0.3025
18802TIP3   OH277896   1.542   5.946   1.644 -0.0554  0.0979  0.4498
18802TIP3    H177897   1.492   6.010   1.696  0.4379 -0.8213  2.1374
18802TIP3    H277898   1.507   5.861   1.672  0.6880 -0.4509 -0.2554
18803TIP3   OH277899   6.584   0.100  15.163  0.1476  0.4005  0.2331
18803TIP3    H177900   6.672   0.133  15.141  1.5724 -3.3939 -0.6150
18803TIP3    H277901   6.591   0.074  15.255  0.3343 -0.9669 -0.1526
18804TIP3   OH277902   5.208   5.345   4.282  0.4791 -0.3706 -0.4841
18804TIP3    H177903   5.232   5.421   4.229 -0.3379 -0.1708 -0.5759
18804TIP3    H277904   5.114   5.354   4.298  0.2549 -1.6259 -0.9234
18805TIP3   OH277905   3.275   2.636  11.695  0.1784 -0.0006  0.0173
18805TIP3    H177906   3.283   2.613  11.788  0.2075 -0.5814 -0.1232
18805TIP3    H277907   3.252   2.729  11.695  2.0491  0.5169  0.5639
18806TIP3   OH277908   5.725   5.190  11.299 -0.0281 -0.4801 -0.2307
18806TIP3    H177909   5.791   5.211  11.233 -0.5453  0.7972 -0.3703
18806TIP3    H277910   5.753   5.236  11.378 -1.2680  1.0142 -0.5903
18807TIP3   OH277911   5.472   2.430  13.696 -0.0552 -0.0207  0.6662
18807TIP3    H177912   5.450   2.405  13.786  0.2357  0.5824  0.9119
18807TIP3    H277913   5.434   2.518  13.686  1.3707  0.6359  0.7732
18808TIP3   OH277914   2.204   6.483  13.487 -0.0238  0.0057 -0.6960
18808TIP3    H177915   2.270   6.417  13.466 -1.1180 -1.5660  0.5513
18808TIP3    H277916   2.174   6.460  13.575 -0.1915  2.4184 -0.0397
18809TIP3   OH277917   0.962   0.248   3.408 -0.8388  0.4159 -0.0024
18809TIP3    H177918   0.969   0.226   3.315 -1.6623  0.2051 -0.0252
18809TIP3    H277919   1.022   0.322   3.420  2.0779 -1.7689  0.0761
18810TIP3   OH277920   1.603   5.034   2.323 -0.4112 -0.7370  0.2573
18810TIP3    H177921   1.630   5.091   2.251 -2.0943 -0.4924 -0.2282
18810TIP3    H277922   1.663   4.959   2.318 -0.1333 -0.4521 -1.0529
18811TIP3   OH277923   2.015   6.708  13.197  0.0107 -0.2700  0.0181
18811TIP3    H177924   1.961   6.764  13.253  0.0890 -0.8018  0.6410
18811TIP3    H277925   2.027   6.759  13.117 -0.8181  0.1491  0.1484
18812TIP3   OH277926   6.758   2.092   6.264  0.2755  0.2102  0.0818
18812TIP3    H177927   6.767   1.997   6.265  0.5304  0.2049 -1.4389
18812TIP3    H277928   6.690   2.110   6.329  0.1199 -1.0145  0.2820
18813TIP3   OH277929   2.613   0.025  15.936 -0.4541  0.4102  0.3517
18813TIP3    H177930   2.567  -0.059  15.936 -0.3474  0.2717 -2.3809
18813TIP3    H277931   2.544   0.089  15.954 -1.2868 -0.0044 -1.1721
18814TIP3   OH277932   2.185   3.411  15.875  0.4540 -0.2968  0.2639
18814TIP3    H177933   2.180   3.418  15.780  0.9451 -0.5756  0.2106
18814TIP3    H277934   2.117   3.348  15.898 -0.1530  0.3189  0.1750
18815TIP3   OH277935   3.575   6.677  13.079  0.4424 -0.3106 -0.0697
18815TIP3    H177936   3.621   6.639  13.004  1.6281 -0.1697  0.5600
18815TIP3    H277937   3.631   6.750  13.106 -0.8106  0.6880 -0.0643
18816TIP3   OH277938   2.542   3.483   1.947 -0.1639  0.1907 -0.2517
18816TIP3    H177939   2.604   3.527   2.006 -0.0533  2.3025 -1.8277
18816TIP3    H277940   2.589   3.406   1.916  0.7272  0.4298  0.4691
18817TIP3   OH277941   5.516   2.360  15.154  0.2249 -0.2920 -0.2644
18817TIP3    H177942   5.455   2.424  15.118  0.1100 -0.1872  0.1098
18817TIP3    H277943   5.464   2.308  15.215 -0.0488 -1.7145 -1.6425
18818TIP3   OH277944   3.624   3.637  13.069  0.0493 -0.0195  1.3856
18818TIP3    H177945   3.627   3.542  13.061  0.4677  0.0024  1.2882
18818TIP3    H277946   3.531   3.659  13.060 -0.2960 -0.5769  3.1775
18819TIP3   OH277947   2.605   6.102  16.896 -0.2907  0.0873 -0.1335
18819TIP3    H177948   2.605   6.113  16.801 -2.6551  1.3025 -0.0433
18819TIP3    H277949   2.604   6.191  16.931 -0.3041 -0.3489  1.0151
18820TIP3   OH277950   4.078   4.799  13.746  0.0228 -0.0686 -0.2071
18820TIP3    H177951   3.996   4.800  13.795 -0.8708 -0.5745 -1.6693
18820TIP3    H277952   4.076   4.878  13.693  1.2904  0.8219  0.9727
18821TIP3   OH277953   2.183   1.884  13.883 -0.2035 -0.2268 -0.4467
18821TIP3    H177954   2.229   1.968  13.888 -0.7006  0.0450 -0.3928
18821TIP3    H277955   2.212   1.836  13.961 -1.4629  0.6856  0.6150
18822TIP3   OH277956   6.072   4.238   1.400 -0.0776  0.3070  0.1138
18822TIP3    H177957   6.039   4.148   1.407  0.3644  0.1839  0.6500
18822TIP3    H277958   6.161   4.234   1.437  0.3734  0.7267 -0.8827
18823TIP3   OH277959   6.451   1.576   5.892 -0.1896 -0.3297 -0.2657
18823TIP3    H177960   6.497   1.641   5.945  0.4977 -0.3513 -0.8178
18823TIP3    H277961   6.384   1.626   5.844  1.4672  0.3196 -2.0293
18824TIP3   OH277962   4.587   4.516   1.567 -0.4780 -0.0373  0.6846
18824TIP3    H177963   4.550   4.602   1.548  2.9016  1.2594 -0.8843
18824TIP3    H277964   4.567   4.463   1.490  0.8239  0.6719 -0.1803
18825TIP3   OH277965   6.242   5.472  11.131  0.5231 -0.3293  0.1761
18825TIP3    H177966   6.163   5.524  11.119  1.3456  1.2730  1.3898
18825TIP3    H277967   6.292   5.518  11.198  3.1029 -0.5485 -1.4377
18826TIP3   OH277968   2.726   0.414   5.100  0.3490 -0.2902 -0.2965
18826TIP3    H177969   2.805   0.468   5.108  0.0861  0.0150  0.2966
18826TIP3    H277970   2.730   0.379   5.011  1.0760 -0.1576 -0.3210
18827TIP3   OH277971   2.117   1.352  13.436  0.2666 -0.0043 -0.2056
18827TIP3    H177972   2.196   1.304  13.461  0.1210 -0.3312 -0.3673
18827TIP3    H277973   2.142   1.444  13.440  0.6861 -0.1118 -0.3476
18828TIP3   OH277974   2.053   3.455   4.586  0.6379 -0.5008 -0.0640
18828TIP3    H177975   2.118   3.473   4.518 -0.8204  0.8714 -1.1679
18828TIP3    H277976   2.015   3.371   4.561  0.1212 -0.0103 -0.9681
18829TIP3   OH277977   0.174   1.691   1.607 -0.8814 -0.2340 -0.2724
18829TIP3    H177978   0.221   1.642   1.675 -0.9842  0.9834  0.7249
18829TIP3    H277979   0.225   1.677   1.527 -0.2799 -1.0239  0.2324
18830TIP3   OH277980   6.156   3.897  17.239  0.2993  0.2635 -0.3981
18830TIP3    H177981   6.187   3.895  17.330 -0.4371 -0.5913 -0.1552
18830TIP3    H277982   6.061   3.896  17.245  0.2339  0.8088 -1.1760
18831TIP3   OH277983   0.660   2.739   5.424 -0.1759 -0.9780 -0.0696
18831TIP3    H177984   0.589   2.741   5.361 -0.0702  0.3271 -0.1658
18831TIP3    H277985   0.620   2.764   5.507  0.0389 -0.8970  0.0109
18832TIP3   OH277986   6.619   4.079  11.678 -0.2641 -0.1196 -0.3163
18832TIP3    H177987   6.695   4.138  11.672 -0.2254 -0.1350  0.0009
18832TIP3    H277988   6.547   4.130  11.642 -0.2532  0.1680  0.0579
18833TIP3   OH277989   4.946   4.805   3.586  0.6477  0.6685 -0.2575
18833TIP3    H177990   4.917   4.722   3.548  0.9523  1.1043 -1.4896
18833TIP3    H277991   4.870   4.838   3.634 -0.5563  1.1719 -2.3778
18834TIP3   OH277992   6.607   1.744  16.240 -0.2697 -0.1078  0.5775
18834TIP3    H177993   6.646   1.742  16.327  2.2760 -0.0802 -0.4597
18834TIP3    H277994   6.674   1.787  16.185 -1.9217  0.1827 -1.3259
18835TIP3   OH277995   5.472   6.126  12.540  0.2032 -0.0261 -0.3328
18835TIP3    H177996   5.495   6.038  12.570 -1.2288 -0.2813  0.0818
18835TIP3    H277997   5.557   6.168  12.524  0.9260 -1.2665  0.0504
18836TIP3   OH277998   2.929   3.140   1.668  0.0277  0.2575 -0.6548
18836TIP3    H177999   2.885   3.222   1.645 -0.9710  0.0699  0.4976
18836TIP3    H278000   2.902   3.123   1.758  2.3555  0.0439  0.0811
18837TIP3   OH278001   0.372   0.758   1.785 -0.4368  0.0597  0.3631
18837TIP3    H178002   0.333   0.727   1.867  1.1969  1.9523  1.9837
18837TIP3    H278003   0.466   0.739   1.795 -0.2339  0.1936 -1.1405
18838TIP3   OH278004   3.120   5.261   2.085 -0.0013  0.5203 -0.1325
18838TIP3    H178005   3.097   5.352   2.104 -0.2978  0.4050  0.0711
18838TIP3    H278006   3.192   5.241   2.144  0.2057  0.6853 -0.3253
18839TIP3   OH278007   6.790   4.788   0.802  0.1838 -0.1679  0.0592
18839TIP3    H178008   6.828   4.839   0.873  0.0942 -1.7263  1.2697
18839TIP3    H278009   6.842   4.810   0.725  0.2545  1.5838  0.5751
18840TIP3   OH278010   0.836   3.825  13.393 -0.6060 -0.1083 -0.4909
18840TIP3    H178011   0.889   3.746  13.382  1.8904  1.5146 -0.7718
18840TIP3    H278012   0.804   3.819  13.483  0.4591 -0.9248 -0.1392
18841TIP3   OH278013   2.294   1.664   2.479  0.0652 -0.5165  0.2257
18841TIP3    H178014   2.352   1.593   2.451 -0.9695 -1.0260 -0.7021
18841TIP3    H278015   2.291   1.723   2.403  0.1686  0.0376  0.6466
18842TIP3   OH278016   5.798   4.737  10.995 -0.1227 -0.9822 -0.0700
18842TIP3    H178017   5.755   4.823  10.995  2.0471  0.1791  1.1024
18842TIP3    H278018   5.767   4.695  11.075  0.5584 -0.3359  0.5422
18843TIP3   OH278019   6.442   5.310  15.933 -0.0282  0.3561 -0.4997
18843TIP3    H178020   6.508   5.245  15.906  0.6044 -0.0429  1.7959
18843TIP3    H278021   6.489   5.393  15.933  0.8064 -0.0441  1.9435
18844TIP3   OH278022   0.047   1.659  12.985 -0.1156  0.0984  0.2875
18844TIP3    H178023   0.071   1.612  13.064 -2.4406 -2.2893 -0.2868
18844TIP3    H278024   0.051   1.752  13.010  1.2114 -0.4917  2.5254
18845TIP3   OH278025   1.243   5.374   5.649 -0.1229  0.2478 -0.3498
18845TIP3    H178026   1.289   5.314   5.591 -0.8552 -0.5761 -0.1073
18845TIP3    H278027   1.301   5.383   5.725  0.1712  0.1516 -0.5607
18846TIP3   OH278028   2.727   0.104   3.791  0.1510  0.4307 -0.2950
18846TIP3    H178029   2.740   0.134   3.881 -0.1752  0.5536 -0.2860
18846TIP3    H278030   2.735   0.183   3.738 -1.5020  0.6964 -0.1992
18847TIP3   OH278031   3.184   1.589   5.657 -0.2929  0.6263 -0.1216
18847TIP3    H178032   3.247   1.656   5.630  0.7655  0.6107  2.0610
18847TIP3    H278033   3.195   1.584   5.752 -0.7731 -2.2401 -0.1474
18848TIP3   OH278034   5.900   5.283  12.319 -0.3993  0.6328 -0.0080
18848TIP3    H178035   5.823   5.239  12.355 -1.2588  1.3503 -0.9126
18848TIP3    H278036   5.972   5.259  12.378 -1.5583  1.0023  1.6256
18849TIP3   OH278037   2.613   5.785   1.863 -0.3711  0.4602  0.0398
18849TIP3    H178038   2.566   5.717   1.814  0.5410 -1.3111  1.4829
18849TIP3    H278039   2.599   5.762   1.955  0.9251  1.5418  0.5415
18850TIP3   OH278040   4.989   5.615   2.182 -0.3017 -0.8860 -0.2397
18850TIP3    H178041   4.947   5.583   2.102  0.7068 -0.3442 -1.0129
18850TIP3    H278042   5.083   5.619   2.160 -0.0542 -0.3627  0.8442
18851TIP3   OH278043   3.373   1.879  16.324 -0.4991  0.1652 -0.2274
18851TIP3    H178044   3.384   1.784  16.332 -0.7764  0.2008  0.7836
18851TIP3    H278045   3.339   1.892  16.236 -0.9847 -0.7333 -0.1869
18852TIP3   OH278046   5.640   6.467  15.445 -0.0915  0.6904  0.2378
18852TIP3    H178047   5.602   6.451  15.531  0.4241  0.3308  0.3980
18852TIP3    H278048   5.592   6.410  15.386  1.2017 -0.9091  0.6772
18853TIP3   OH278049   2.613   2.717   3.877 -0.2432  0.5499  0.1158
18853TIP3    H178050   2.690   2.734   3.931 -0.2232  0.8937 -0.0187
18853TIP3    H278051   2.540   2.757   3.925 -0.5345 -0.7581  0.8145
18854TIP3   OH278052   1.722   5.374   5.813  0.2632  0.3075  0.1196
18854TIP3    H178053   1.817   5.375   5.825  0.3770 -0.3225 -0.6465
18854TIP3    H278054   1.698   5.466   5.803  0.6549  0.5502  1.2823
18855TIP3   OH278055   0.709   5.874  14.258 -0.3534 -0.1097  0.4328
18855TIP3    H178056   0.675   5.828  14.181 -1.2777  0.3309  0.5616
18855TIP3    H278057   0.658   5.954  14.262  0.3199  0.3008  0.9862
18856TIP3   OH278058   1.297   5.622  15.738  0.0329  0.2199  0.0588
18856TIP3    H178059   1.336   5.675  15.807 -0.7019 -0.3907  0.9734
18856TIP3    H278060   1.202   5.631  15.752 -0.1111 -1.4247  0.3418
18857TIP3   OH278061   2.898   6.199   0.068 -0.0058  1.1993  0.1596
18857TIP3    H178062   2.945   6.132   0.019 -0.8099  0.5938  0.1997
18857TIP3    H278063   2.816   6.212   0.020 -0.9505  0.3761  1.4699
18858TIP3   OH278064   5.849   4.092   0.963  0.0098 -0.1892 -0.0274
18858TIP3    H178065   5.782   4.145   0.920  0.6013  0.1070 -0.5955
18858TIP3    H278066   5.914   4.155   0.993 -1.2995 -0.1600  3.0705
18859TIP3   OH278067   6.514   0.329   1.367 -0.5311  0.7076 -0.0471
18859TIP3    H178068   6.487   0.295   1.281  0.3953 -0.0710 -0.0526
18859TIP3    H278069   6.610   0.324   1.365 -0.5138  0.1930  1.2238
18860TIP3   OH278070   0.328   5.472   3.356 -0.0794  0.0032 -0.0261
18860TIP3    H178071   0.292   5.425   3.431  0.5214 -0.3538  0.0419
18860TIP3    H278072   0.298   5.423   3.279 -0.4197  0.1807 -0.0090
18861TIP3   OH278073   5.049   2.182  13.705 -0.3462  0.6720 -0.1756
18861TIP3    H178074   4.991   2.110  13.731 -1.6299  1.5686 -0.4617
18861TIP3    H278075   5.075   2.223  13.787 -0.3248  0.4279 -0.0581
18862TIP3   OH278076   2.513   0.311  11.427 -0.0899  0.2636 -0.4951
18862TIP3    H178077   2.573   0.367  11.476  1.8956 -0.3391 -2.0986
18862TIP3    H278078   2.474   0.369  11.361  1.1060  0.0558 -1.4225
18863TIP3   OH278079   3.486   3.569   3.377  0.7393 -0.9789  0.0574
18863TIP3    H178080   3.519   3.650   3.416 -1.9748 -0.7386  2.1870
18863TIP3    H278081   3.458   3.595   3.289 -0.4778  0.5920  0.8532
18864TIP3   OH278082   2.598   3.083  17.248 -0.3317  0.1920  0.3851
18864TIP3    H178083   2.536   3.146  17.211  0.5572  0.4170 -0.8162
18864TIP3    H278084   2.551   3.000  17.248 -0.0945 -0.0568 -2.3650
18865TIP3   OH278085   1.780   1.407  12.851  0.5080 -0.3335 -0.2869
18865TIP3    H178086   1.711   1.409  12.784  0.8122  1.3768 -0.6010
18865TIP3    H278087   1.773   1.492  12.894  2.5999 -0.0063 -0.5066
18866TIP3   OH278088   4.477   2.104   2.533  0.1459  0.1783  0.0667
18866TIP3    H178089   4.551   2.139   2.484  0.1164 -0.0888 -0.1763
18866TIP3    H278090   4.501   2.014   2.552  0.4473  0.4777  1.1461
18867TIP3   OH278091   5.243   3.563  16.482 -0.6752 -0.2874 -0.1869
18867TIP3    H178092   5.287   3.526  16.406 -0.9061  1.2618 -1.0982
18867TIP3    H278093   5.163   3.511  16.492 -0.9815 -0.0696 -1.4277
18868TIP3   OH278094   1.022   1.213  16.322 -0.2455 -0.4494 -0.4438
18868TIP3    H178095   1.077   1.290  16.308  1.0448 -0.9430  1.5342
18868TIP3    H278096   1.067   1.143  16.275 -0.0725 -0.5138 -0.1827
18869TIP3   OH278097   5.813   1.141   6.179 -0.1927 -0.1260 -0.0546
18869TIP3    H178098   5.867   1.065   6.156 -0.0997 -0.4568  1.1361
18869TIP3    H278099   5.765   1.162   6.099  0.6189 -0.7391 -0.7189
18870TIP3   OH278100   5.183   1.598   0.511 -0.8578 -0.2044  0.2502
18870TIP3    H178101   5.173   1.655   0.435 -1.4823  0.5783  0.9020
18870TIP3    H278102   5.189   1.658   0.585 -0.8323 -0.9731  0.8776
18871TIP3   OH278103   3.248   3.153  14.731  0.1878  0.1366  0.1140
18871TIP3    H178104   3.308   3.183  14.800  0.1386  1.8013 -0.5316
18871TIP3    H278105   3.267   3.059  14.723  1.6475  0.3225  0.9673
18872TIP3   OH278106   3.381   3.602  14.180 -0.1180  0.8052 -0.5492
18872TIP3    H178107   3.440   3.583  14.252  0.2574  1.6381 -0.6269
18872TIP3    H278108   3.342   3.518  14.157  0.8917  0.2819 -0.3675
18873TIP3   OH278109   2.724   1.201   5.664 -0.3942 -0.2217 -0.1176
18873TIP3    H178110   2.770   1.121   5.690 -2.3851 -1.2349  0.5489
18873TIP3    H278111   2.750   1.266   5.729  0.5117 -0.5880 -0.0976
18874TIP3   OH278112   3.536   5.864   3.198 -0.6016  0.2935  0.1498
18874TIP3    H178113   3.612   5.919   3.216  0.3156 -0.8367 -0.1251
18874TIP3    H278114   3.567   5.802   3.131 -2.3300  0.9961 -1.3931
18875TIP3   OH278115   2.750   0.397   3.153  0.1405 -0.5154  0.3240
18875TIP3    H178116   2.791   0.403   3.240  1.5119 -2.4616 -0.1174
18875TIP3    H278117   2.706   0.312   3.153 -1.8190  0.4447 -0.1345
18876TIP3   OH278118   1.698   5.109  17.248  0.4230 -0.6320 -0.4613
18876TIP3    H178119   1.639   5.100  17.173  0.1962  1.7996 -0.6578
18876TIP3    H278120   1.688   5.200  17.276  2.6045 -0.6903  0.7500
18877TIP3   OH278121   4.667   2.343   0.427 -0.3537  0.1068  0.2187
18877TIP3    H178122   4.604   2.415   0.422 -1.5617 -0.9858 -1.7405
18877TIP3    H278123   4.633   2.285   0.495 -1.0369 -0.0599 -0.2541
18878TIP3   OH278124   3.322   1.868   2.101 -0.0438  0.4366 -0.4289
18878TIP3    H178125   3.393   1.878   2.164 -0.5689 -0.4665  0.3145
18878TIP3    H278126   3.249   1.834   2.151  0.0648 -2.0537 -1.8227
18879TIP3   OH278127   6.205   0.047   0.481  0.1826 -0.4464  0.4756
18879TIP3    H178128   6.214  -0.024   0.418  0.9634 -0.0839  0.1586
18879TIP3    H278129   6.220   0.007   0.566  0.3683 -0.7082  0.3207
18880TIP3   OH278130   6.710   2.325   3.502  0.0911  0.2162  0.0808
18880TIP3    H178131   6.793   2.318   3.454  0.3487  0.5441  0.4706
18880TIP3    H278132   6.733   2.303   3.593 -0.1819  0.6225  0.2521
18881TIP3   OH278133   5.664   4.075  12.058 -0.3953 -0.7538  0.2030
18881TIP3    H178134   5.589   4.017  12.043 -0.3183 -1.6002  2.5775
18881TIP3    H278135   5.631   4.141  12.119  0.2392  0.1906 -0.4443
18882TIP3   OH278136   2.054   3.348   5.796  0.2639 -0.1779 -0.8992
18882TIP3    H178137   2.031   3.329   5.706 -1.7695 -0.1724 -0.4301
18882TIP3    H278138   2.010   3.280   5.847  1.6136 -0.3576  0.0816
18883TIP3   OH278139   3.135   2.466  13.805 -0.2502  0.1461  0.3471
18883TIP3    H178140   3.111   2.555  13.778  0.7990  0.6303  0.9660
18883TIP3    H278141   3.053   2.427  13.834 -0.5324  1.3291  1.2239
18884TIP3   OH278142   2.444   3.537  15.010 -0.2389 -0.8063  0.1691
18884TIP3    H178143   2.508   3.490  15.063  0.2840 -1.3604 -0.9092
18884TIP3    H278144   2.366   3.542  15.064  0.7968  0.1458  1.6454
18885TIP3   OH278145   2.321   3.967   2.226  0.0627 -0.4404 -0.2557
18885TIP3    H178146   2.322   3.911   2.303  0.2928 -0.6288 -0.3967
18885TIP3    H278147   2.398   4.023   2.236  1.9043 -2.5308 -1.8704
18886TIP3   OH278148   3.172   5.974  13.583 -0.2950  0.4726 -0.0642
18886TIP3    H178149   3.206   5.906  13.525  0.5162  1.4329 -0.7503
18886TIP3    H278150   3.136   5.926  13.657 -0.0925 -0.7211 -0.7081
18887TIP3   OH278151   1.121   6.559  11.851  0.3957 -0.1846  0.5517
18887TIP3    H178152   1.182   6.621  11.811 -0.9399  1.8368  1.5112
18887TIP3    H278153   1.161   6.535  11.934  0.6515 -0.1556  0.4358
18888TIP3   OH278154   6.323   1.766   3.456 -0.0176 -0.1759  0.7676
18888TIP3    H178155   6.336   1.757   3.362 -1.1390  0.1113  0.5729
18888TIP3    H278156   6.372   1.845   3.479 -1.1765  0.7779  0.0912
18889TIP3   OH278157   4.274   6.747  14.370  0.3183 -0.0907 -0.2820
18889TIP3    H178158   4.337   6.740  14.298  1.3793  0.6145  0.5374
18889TIP3    H278159   4.310   6.816  14.427 -1.6479  0.9629 -0.2129
18890TIP3   OH278160   5.275   0.217  10.569 -0.0213  0.2200  0.0473
18890TIP3    H178161   5.320   0.297  10.596  0.0693 -0.2751  1.4644
18890TIP3    H278162   5.339   0.148  10.581  0.4193  0.0697 -2.6580
18891TIP3   OH278163   3.981   3.273   2.125  0.2076  0.2833 -0.0017
18891TIP3    H178164   4.014   3.187   2.098  0.5805 -0.9476  3.8779
18891TIP3    H278165   4.023   3.334   2.064  0.7955 -2.1331 -2.2095
18892TIP3   OH278166   5.442   4.807  11.132 -0.0983  0.2316  0.1629
18892TIP3    H178167   5.383   4.856  11.076 -0.2296 -2.3267 -2.1407
18892TIP3    H278168   5.529   4.844  11.113  0.0766 -1.4430 -2.9964
18893TIP3   OH278169   1.472   4.951  12.563 -0.2787 -1.2463 -0.3937
18893TIP3    H178170   1.524   4.962  12.484  0.1112  0.3215  0.0392
18893TIP3    H278171   1.433   5.037  12.578  0.3059 -1.2681  1.5381
18894TIP3   OH278172   0.095   5.865   5.039  0.2892  0.4296 -0.7209
18894TIP3    H178173   0.098   5.958   5.062 -0.8576  0.4124 -0.4447
18894TIP3    H278174   0.101   5.820   5.124  0.7698  0.2415 -0.8489
18895TIP3   OH278175   6.061   0.440   5.898  0.4362 -0.4894 -0.0855
18895TIP3    H178176   6.088   0.426   5.807 -0.5075  2.1918 -0.8975
18895TIP3    H278177   5.966   0.435   5.896  0.1971  2.3075  0.0760
18896TIP3   OH278178   2.629   4.675   0.101 -0.4310 -0.4200  0.0317
18896TIP3    H178179   2.681   4.596   0.084  1.2144  0.5644  0.3028
18896TIP3    H278180   2.560   4.645   0.160 -0.2083 -1.7761 -0.3534
18897TIP3   OH278181   3.322   4.492  14.617 -0.4232 -0.3597  0.1522
18897TIP3    H178182   3.413   4.517  14.631 -0.9208  0.5346  2.0508
18897TIP3    H278183   3.327   4.407  14.573  1.3087 -0.0955 -0.2158
18898TIP3   OH278184   4.455   3.083  15.985 -0.2179 -0.2123  0.3181
18898TIP3    H178185   4.502   3.005  16.014  1.5052 -0.0112 -1.7335
18898TIP3    H278186   4.369   3.051  15.958 -0.7242 -0.8494  2.5013
18899TIP3   OH278187   0.487   1.925  11.133 -0.2570  0.1658  0.2314
18899TIP3    H178188   0.424   1.996  11.118 -0.6387 -0.3560 -0.6955
18899TIP3    H278189   0.471   1.864  11.062  0.1900 -0.7772  0.9298
18900TIP3   OH278190   1.879   3.968  11.564  0.0940  0.3545 -0.0260
18900TIP3    H178191   1.792   3.930  11.559  0.2629  0.1627 -2.5601
18900TIP3    H278192   1.936   3.895  11.590 -0.1332 -0.1901 -1.0271
18901TIP3   OH278193   1.755   1.688   0.371 -0.7685  1.0539 -0.3548
18901TIP3    H178194   1.689   1.737   0.419  0.1031  2.0622 -0.1328
18901TIP3    H278195   1.727   1.692   0.279 -2.5423 -1.0386  0.0175
18902TIP3   OH278196   5.368   1.949  11.756 -0.3426  0.6245  0.2654
18902TIP3    H178197   5.363   1.862  11.718  0.0038  0.4295  0.6646
18902TIP3    H278198   5.439   1.992  11.709  0.3211  0.2629  0.9324
18903TIP3   OH278199   0.170   0.994   3.075 -0.0749 -0.1344  0.8239
18903TIP3    H178200   0.180   0.900   3.063  0.6665  0.0433 -0.0766
18903TIP3    H278201   0.136   1.025   2.991 -2.4279  0.1456  1.7848
18904TIP3   OH278202   0.705   6.658   6.180 -0.2358  0.1306  0.0730
18904TIP3    H178203   0.774   6.669   6.245  1.7460  1.1740 -2.0399
18904TIP3    H278204   0.722   6.573   6.140 -0.1812  0.3678 -0.4232
18905TIP3   OH278205   4.959   1.109   1.111 -0.1147  0.4871  0.3576
18905TIP3    H178206   4.914   1.053   1.047  0.1859  0.6306  0.0193
18905TIP3    H278207   4.996   1.180   1.059 -1.1635  1.4432  0.8689
18906TIP3   OH278208   4.515   3.486   3.830 -0.0484 -0.0367  0.6594
18906TIP3    H178209   4.568   3.550   3.877 -1.1200  0.0317  1.8176
18906TIP3    H278210   4.432   3.532   3.813 -0.0329 -0.3894 -0.4552
18907TIP3   OH278211   6.435   3.256   2.043 -0.6029 -0.1467 -0.3858
18907TIP3    H178212   6.371   3.328   2.048 -1.8553 -1.2265 -0.2910
18907TIP3    H278213   6.488   3.276   1.966 -0.7321  1.0283 -0.1896
18908TIP3   OH278214   5.727   1.406  11.618  0.0338  0.6603 -0.4034
18908TIP3    H178215   5.705   1.312  11.615 -0.0614  0.7136 -1.7257
18908TIP3    H278216   5.814   1.411  11.579 -0.1950  1.1897 -0.8501
18909TIP3   OH278217   6.148   0.920  13.322  0.2156 -0.0124  0.1371
18909TIP3    H178218   6.156   0.926  13.227 -0.4333  0.4102  0.0995
18909TIP3    H278219   6.238   0.916  13.354  0.5538  2.0448 -0.3692
18910TIP3   OH278220   5.305   5.510  13.675 -0.2411 -0.2604  0.6233
18910TIP3    H178221   5.236   5.524  13.740  0.7242 -0.7765  1.8004
18910TIP3    H278222   5.285   5.424  13.637 -1.4792  0.5376 -0.6825
18911TIP3   OH278223   6.131   5.266   3.660  0.2623  1.1197 -0.0631
18911TIP3    H178224   6.165   5.186   3.699 -0.8068  0.5350 -0.2892
18911TIP3    H278225   6.152   5.335   3.723  2.7269  0.9809 -0.6342
18912TIP3   OH278226   5.229   5.761  11.201 -0.0555 -0.3488  0.2206
18912TIP3    H178227   5.240   5.800  11.288 -0.5634  0.1280  0.0751
18912TIP3    H278228   5.139   5.781  11.177  0.1215 -0.3752 -0.4672
18913TIP3   OH278229   1.607   2.203  16.660  0.1503 -0.3283 -0.3535
18913TIP3    H178230   1.692   2.179  16.697 -1.5151 -3.8065  1.7908
18913TIP3    H278231   1.544   2.183  16.730 -2.7677 -1.9826 -3.1893
18914TIP3   OH278232   5.390   0.895   3.838  0.6225 -0.0362 -0.4081
18914TIP3    H178233   5.367   0.880   3.746 -0.7448 -0.2738 -0.0514
18914TIP3    H278234   5.477   0.858   3.848  0.1163 -1.5224 -1.2148
18915TIP3   OH278235   4.747   3.124   3.994  0.1512  0.2069  0.6390
18915TIP3    H178236   4.780   3.041   4.029 -0.8148 -0.3051  0.3796
18915TIP3    H278237   4.789   3.132   3.908  0.8395  0.3800  0.9842
18916TIP3   OH278238   3.152   2.382   2.276 -0.0850 -0.3014 -0.3831
18916TIP3    H178239   3.180   2.451   2.335 -2.5285  0.5172 -0.0856
18916TIP3    H278240   3.170   2.417   2.188 -0.5895  0.3914 -0.2164
18917TIP3   OH278241   3.571   0.627   2.674  0.4139  0.2215 -0.1966
18917TIP3    H178242   3.482   0.652   2.650  0.1966 -0.6494 -0.3467
18917TIP3    H278243   3.628   0.688   2.628 -0.1232  1.3795  0.6354
18918TIP3   OH278244   6.092   1.499  13.738  0.1251  0.9283 -0.0038
18918TIP3    H178245   6.087   1.588  13.705  0.8781  0.6119 -1.0180
18918TIP3    H278246   6.042   1.446  13.675  0.3763  0.5192  0.1317
18919TIP3   OH278247   4.129   5.392  15.216 -0.2705 -0.1080  0.4041
18919TIP3    H178248   4.109   5.451  15.143  0.0843 -1.8930 -1.2223
18919TIP3    H278249   4.091   5.308  15.190  0.6172 -1.0171  1.8902
18920TIP3   OH278250   4.598   1.829  12.609  0.0246 -0.1068  0.0150
18920TIP3    H178251   4.556   1.791  12.532  0.2694  0.3718 -0.3675
18920TIP3    H278252   4.616   1.755  12.666  1.0121 -0.6583 -0.9546
18921TIP3   OH278253   3.096   3.639   4.050  0.0561  0.4112  0.4119
18921TIP3    H178254   3.142   3.653   4.133 -0.6245 -0.2403  0.9133
18921TIP3    H278255   3.030   3.573   4.070  0.8459 -0.8627 -1.0113
18922TIP3   OH278256   2.546   0.869  12.276 -0.2947 -1.2405  0.1869
18922TIP3    H178257   2.558   0.922  12.197 -0.7700 -0.4938  0.6016
18922TIP3    H278258   2.466   0.819  12.259 -2.2156  1.1985  1.3607
18923TIP3   OH278259   0.170   1.445  13.489  0.3690 -0.5345 -0.2670
18923TIP3    H178260   0.128   1.524  13.456 -0.9771 -1.0429  0.1329
18923TIP3    H278261   0.227   1.416  13.418 -0.3014 -0.0495 -1.0236
18924TIP3   OH278262   0.156   0.644  13.007 -0.0155 -0.4095  0.3598
18924TIP3    H178263   0.074   0.617  13.048 -0.5096  1.2611  0.5379
18924TIP3    H278264   0.187   0.718  13.060  2.0754 -1.5262  0.8083
18925TIP3   OH278265   4.164   1.483   4.610 -0.0458  0.5185  0.3004
18925TIP3    H178266   4.082   1.520   4.642  0.6700  1.1635  1.4737
18925TIP3    H278267   4.202   1.439   4.687  2.0439  2.6914  0.6251
18926TIP3   OH278268   2.574   2.173  16.926 -0.0658  0.1387  0.0362
18926TIP3    H178269   2.639   2.236  16.955  0.5877 -0.5916  0.2002
18926TIP3    H278270   2.608   2.088  16.957 -1.7282 -0.1265  1.3066
18927TIP3   OH278271   3.409   3.623   3.099 -0.0139 -0.1198 -0.2930
18927TIP3    H178272   3.317   3.649   3.106 -0.4233 -0.6386 -2.7947
18927TIP3    H278273   3.438   3.660   3.016  1.7553 -0.8450 -0.0464
18928TIP3   OH278274   3.364   3.887   1.481 -0.4844 -0.2229 -0.1324
18928TIP3    H178275   3.330   3.872   1.393 -1.6655  2.5140 -0.2305
18928TIP3    H278276   3.459   3.891   1.471 -0.5498 -0.8747 -1.0944
18929TIP3   OH278277   0.389   0.855   6.127 -0.4258 -0.6482 -0.0421
18929TIP3    H178278   0.424   0.856   6.038  0.3310 -0.8787  0.2395
18929TIP3    H278279   0.431   0.780   6.169  1.5282  1.0785  1.3711
18930TIP3   OH278280   2.969   4.939  15.772 -0.2093  0.2739  0.4557
18930TIP3    H178281   2.917   4.881  15.827  0.7544 -2.0422 -0.9175
18930TIP3    H278282   3.056   4.937  15.811  0.6383 -1.8812 -1.3750
18931TIP3   OH278283   0.530   4.500  13.522 -0.2720 -0.4823 -0.1733
18931TIP3    H178284   0.436   4.492  13.509 -0.5662  2.0206 -0.2022
18931TIP3    H278285   0.569   4.458  13.445 -1.4281 -0.3248 -0.8642
18932TIP3   OH278286   6.475   5.982   3.028  0.2318  0.5150  0.0994
18932TIP3    H178287   6.499   6.039   3.101 -0.5073 -2.1497  2.6260
18932TIP3    H278288   6.508   5.896   3.054 -0.5028 -0.6564 -2.5472
18933TIP3   OH278289   0.517   3.629  15.417  0.2192 -0.2286 -0.4248
18933TIP3    H178290   0.473   3.653  15.498  1.3297  1.0959 -0.1892
18933TIP3    H278291   0.458   3.564  15.377 -0.4655 -0.7184  1.2833
18934TIP3   OH278292   0.199   2.839   2.630  0.4880  0.2452  0.2738
18934TIP3    H178293   0.106   2.861   2.627  0.0770 -1.4553 -1.1155
18934TIP3    H278294   0.214   2.808   2.719 -0.4991 -0.3498  0.2423
18935TIP3   OH278295   0.881   1.830   5.759 -0.4772 -0.0547  0.5445
18935TIP3    H178296   0.857   1.752   5.808 -0.4999 -0.4187 -0.0448
18935TIP3    H278297   0.929   1.884   5.822  0.3433 -0.9447  0.6968
18936TIP3   OH278298   0.425   3.439  15.155  0.0738  0.0616  0.7391
18936TIP3    H178299   0.475   3.360  15.176  1.2578  0.2756 -1.1001
18936TIP3    H278300   0.348   3.407  15.108  0.3822 -0.0172  0.2894
18937TIP3   OH278301   4.682   6.276  15.129 -0.4391 -0.2111  0.8738
18937TIP3    H178302   4.726   6.278  15.044 -2.0651  0.0212  0.0005
18937TIP3    H278303   4.684   6.184  15.155  0.1353 -0.2713  0.6390
18938TIP3   OH278304   1.431   3.031   2.851 -0.0439 -0.1510  0.0471
18938TIP3    H178305   1.461   3.120   2.830  0.5307 -0.0277  1.2965
18938TIP3    H278306   1.511   2.977   2.845  0.6352  0.2133  3.6118
18939TIP3   OH278307   5.376   4.911  11.925  0.4386  0.5555 -0.4897
18939TIP3    H178308   5.435   4.986  11.924  0.5598  0.4884  0.3543
18939TIP3    H278309   5.289   4.948  11.938  0.5457  0.5422  0.3505
18940TIP3   OH278310   3.446   1.219  14.535  0.6009 -0.0687  0.4399
18940TIP3    H178311   3.513   1.279  14.502 -0.3028 -0.2342 -1.8949
18940TIP3    H278312   3.476   1.132  14.507 -0.1199 -0.2405  0.1738
18941TIP3   OH278313   1.464   6.143  17.188 -0.0446 -0.5240 -0.4799
18941TIP3    H178314   1.512   6.201  17.129  0.5490  0.2829  0.7507
18941TIP3    H278315   1.530   6.112  17.250 -0.6832 -1.2019 -0.1287
18942TIP3   OH278316   6.578   1.007   0.701 -0.2242  0.8548 -0.3256
18942TIP3    H178317   6.655   0.958   0.730 -1.3695 -0.4855  0.6398
18942TIP3    H278318   6.567   1.076   0.766 -1.5422 -0.8328  1.3700
18943TIP3   OH278319   6.038   4.292  11.519 -0.3147 -0.3752 -0.2613
18943TIP3    H178320   6.054   4.219  11.579 -1.3075  0.1550  0.6748
18943TIP3    H278321   6.005   4.249  11.439  2.8211 -1.2426 -1.2307
18944TIP3   OH278322   1.810   5.578  15.298  0.3010 -0.7993  0.0076
18944TIP3    H178323   1.834   5.594  15.389 -0.3448  0.0333  0.0479
18944TIP3    H278324   1.756   5.500  15.300 -3.4390  1.5518  1.0189
18945TIP3   OH278325   6.332   6.091  16.550  0.1277 -0.0335 -0.0367
18945TIP3    H178326   6.299   6.005  16.525  1.3080 -0.5504  0.0770
18945TIP3    H278327   6.353   6.082  16.643 -0.4339  0.6173  0.1603
18946TIP3   OH278328   6.534   3.159   1.779  0.7278  0.5002  0.1313
18946TIP3    H178329   6.513   3.175   1.687  2.5378  0.3180 -0.3590
18946TIP3    H278330   6.596   3.086   1.777  0.1613 -0.0697  1.5800
18947TIP3   OH278331   5.617   0.238   4.274  0.1649  0.1432 -0.0139
18947TIP3    H178332   5.695   0.285   4.306  0.2155  1.2706 -1.6478
18947TIP3    H278333   5.545   0.272   4.327  0.4241  0.9842 -0.1873
18948TIP3   OH278334   0.837   6.382   3.006 -0.4078 -0.0592 -0.5168
18948TIP3    H178335   0.856   6.300   3.050  0.3343  1.2266  1.7364
18948TIP3    H278336   0.923   6.424   2.995 -0.3203 -0.8848 -4.6645
18949TIP3   OH278337   4.931   4.208  14.371  0.4572  0.0702  0.2041
18949TIP3    H178338   4.863   4.160  14.418 -0.9250  0.7724 -0.9884
18949TIP3    H278339   5.010   4.194  14.422 -0.6885 -0.3447  1.9438
18950TIP3   OH278340   1.106   3.042   2.897 -0.4314  0.3170 -0.0676
18950TIP3    H178341   1.070   3.124   2.864  0.3400  0.3000 -0.9772
18950TIP3    H278342   1.200   3.055   2.895 -0.3197 -0.3651  0.4142
18951TIP3   OH278343   3.312   3.343   3.729  0.2705 -0.0673 -0.0370
18951TIP3    H178344   3.321   3.262   3.779 -2.8833 -0.7285 -0.3354
18951TIP3    H278345   3.370   3.330   3.654  1.7676 -0.9019  1.1849
18952TIP3   OH278346   1.590   2.740   3.457 -0.2448 -0.0108  0.4440
18952TIP3    H178347   1.600   2.731   3.552  2.2582  0.0512  0.2459
18952TIP3    H278348   1.656   2.682   3.420  0.4330  1.6838 -1.1877
18953TIP3   OH278349   1.483   4.343  10.483 -0.5012  0.0846 -0.2858
18953TIP3    H178350   1.452   4.427  10.517 -0.2991 -0.5715  1.6287
18953TIP3    H278351   1.578   4.351  10.478 -0.5713  0.3934 -1.3634
18954TIP3   OH278352   1.184   0.345   5.486  0.3789 -0.0302  0.2682
18954TIP3    H178353   1.266   0.373   5.445  0.3114  0.1941  0.2824
18954TIP3    H278354   1.117   0.360   5.419  0.6374 -2.4712 -0.6500
18955TIP3   OH278355   2.732   3.125  16.900 -0.1481 -0.2448 -0.3151
18955TIP3    H178356   2.808   3.150  16.953 -0.5447  1.2270 -0.4025
18955TIP3    H278357   2.750   3.163  16.814 -2.0025  2.1583  0.2729
18956TIP3   OH278358   4.242   6.639   1.631  0.3341  0.2107  0.9900
18956TIP3    H178359   4.332   6.668   1.650  0.2332  0.7656  0.6474
18956TIP3    H278360   4.187   6.689   1.691  0.1581  0.7473  0.3949
18957TIP3   OH278361   4.710   3.936   4.378  0.0711  0.3676  0.1308
18957TIP3    H178362   4.633   3.967   4.426  0.5839  1.9493 -0.0105
18957TIP3    H278363   4.734   4.009   4.321  1.1508 -0.4296 -0.4710
18958TIP3   OH278364   1.553   6.810  15.453  0.4869 -0.0693  0.2336
18958TIP3    H178365   1.567   6.805  15.547  2.1474  0.0418  0.0190
18958TIP3    H278366   1.516   6.725  15.429  1.7166 -0.7650  0.7430
18959TIP3   OH278367   5.620   4.972   5.918  0.0411 -0.0682  0.1132
18959TIP3    H178368   5.678   4.937   5.986  0.3090  0.7517  0.3277
18959TIP3    H278369   5.631   4.913   5.844 -0.2808 -0.9961  0.7970
18960TIP3   OH278370   2.916   6.011  16.586  0.0122 -0.0106 -0.3405
18960TIP3    H178371   2.971   6.001  16.508  0.0591  1.8150 -0.5924
18960TIP3    H278372   2.878   5.924  16.601 -1.5023 -0.0213 -3.5109
18961TIP3   OH278373   3.361   6.253   1.575 -0.2408 -0.0906 -0.9543
18961TIP3    H178374   3.328   6.280   1.490  0.8385 -1.0651 -1.7187
18961TIP3    H278375   3.449   6.219   1.557  0.6602  1.1484  0.7794
18962TIP3   OH278376   0.904   3.519   3.626  0.6379  0.2857  0.5517
18962TIP3    H178377   0.983   3.470   3.651  1.3988  0.1728 -1.7886
18962TIP3    H278378   0.884   3.488   3.538 -0.6091  2.0633  0.1520
18963TIP3   OH278379   0.555   4.350   4.908  0.2182  0.5503  1.0031
18963TIP3    H178380   0.552   4.410   4.833 -0.0587 -1.0810 -0.3552
18963TIP3    H278381   0.645   4.316   4.908 -0.5046 -1.5550 -0.3901
18964TIP3   OH278382   2.563   5.922   4.790  0.5154 -0.1615  0.1280
18964TIP3    H178383   2.611   5.842   4.767 -1.4267 -1.0393 -1.2321
18964TIP3    H278384   2.547   5.965   4.706 -1.3484 -0.1200  0.4534
18965TIP3   OH278385   0.201   4.384  15.367  0.5411 -0.0670 -0.5195
18965TIP3    H178386   0.291   4.401  15.392 -0.1105 -0.5558  2.6292
18965TIP3    H278387   0.163   4.471  15.354  1.1934  0.1848 -0.7648
18966TIP3   OH278388   3.452   0.230  17.159 -0.1127  0.6836 -0.5186
18966TIP3    H178389   3.518   0.176  17.115 -1.4005  0.1580 -1.8513
18966TIP3    H278390   3.492   0.318  17.161  0.4694  0.4716 -1.6839
18967TIP3   OH278391   2.644   4.583  13.920  0.3071  0.1533  0.0875
18967TIP3    H178392   2.708   4.559  13.987  0.3103  0.9598  0.3882
18967TIP3    H278393   2.662   4.675  13.901  1.8765 -0.6322 -2.8097
18968TIP3   OH278394   4.570   5.051   6.011  0.3609  0.2256  0.4086
18968TIP3    H178395   4.579   4.992   6.086  0.9926  1.1041  1.0493
18968TIP3    H278396   4.555   5.137   6.049  0.7088  0.6950 -0.4758
18969TIP3   OH278397   5.614   1.893   5.262 -0.4025 -0.1226  0.2585
18969TIP3    H178398   5.611   1.800   5.288  2.5016 -0.6377 -0.8161
18969TIP3    H278399   5.601   1.941   5.343 -0.3035 -1.5343  1.1469
18970TIP3   OH278400   6.783   0.915  10.806 -0.0840  0.0172  0.1265
18970TIP3    H178401   6.693   0.882  10.803 -1.1010  2.3940  1.6985
18970TIP3    H278402   6.834   0.851  10.756 -2.5056 -1.7905 -0.1866
18971TIP3   OH278403   1.456   2.804  11.540  0.4110  0.6761  0.3746
18971TIP3    H178404   1.532   2.853  11.507  0.2827  0.3632 -0.4232
18971TIP3    H278405   1.493   2.735  11.595  0.6835  0.8108  0.3577
18972TIP3   OH278406   0.238   2.915   6.523  0.1638  0.0833 -0.5140
18972TIP3    H178407   0.285   2.882   6.601 -0.5262 -0.0216 -0.1394
18972TIP3    H278408   0.296   2.983   6.488  1.5405 -1.3576 -1.1980
18973TIP3   OH278409   1.568   5.618   2.164  0.0402  0.9612 -0.4271
18973TIP3    H178410   1.597   5.658   2.246 -0.0826  0.8271 -0.3175
18973TIP3    H278411   1.496   5.560   2.190  0.0116  0.9070 -0.6275
18974TIP3   OH278412   1.877   1.939   5.476  0.4326  0.0628 -0.0917
18974TIP3    H178413   1.895   1.879   5.548  2.1709  0.5718 -0.0539
18974TIP3    H278414   1.804   1.899   5.429  0.5427 -1.2780  0.8128
18975TIP3   OH278415   3.915   1.376  16.869  0.0218 -0.2657 -0.6056
18975TIP3    H178416   3.939   1.462  16.837 -1.3634 -0.0180 -1.0606
18975TIP3    H278417   3.886   1.391  16.959 -1.1419 -0.0759 -0.9966
18976TIP3   OH278418   1.344   2.472  16.350 -0.6101  0.0311 -0.2419
18976TIP3    H178419   1.323   2.550  16.299 -0.6146 -0.4226 -0.9615
18976TIP3    H278420   1.333   2.400  16.287 -0.3268 -0.5157  0.3308
18977TIP3   OH278421   2.718   1.713  15.213 -0.2534  0.1849  0.3399
18977TIP3    H178422   2.773   1.785  15.242 -1.5727  0.4072  2.5494
18977TIP3    H278423   2.633   1.754  15.193 -1.1303 -0.7229  1.9680
18978TIP3   OH278424   0.644   2.622   4.560  0.3921 -0.0434 -0.4476
18978TIP3    H178425   0.565   2.656   4.519 -0.4425 -0.7619  0.5440
18978TIP3    H278426   0.716   2.660   4.508 -0.5688  1.0397 -1.0245
18979TIP3   OH278427   5.771   4.206   5.603  0.1065 -0.4234 -0.2477
18979TIP3    H178428   5.749   4.168   5.688  1.6165 -1.1705 -0.1608
18979TIP3    H278429   5.783   4.299   5.621  1.5958 -0.7519  0.6382
18980TIP3   OH278430   6.432   2.713  15.572  0.3093  0.6175 -0.3377
18980TIP3    H178431   6.343   2.730  15.539  0.8871  2.8452 -0.9327
18980TIP3    H278432   6.480   2.683  15.495 -0.2882 -2.4497  0.3604
18981TIP3   OH278433   1.693   2.897   5.092  0.2605  0.4739  0.6636
18981TIP3    H178434   1.773   2.888   5.142  0.2421 -3.1762  0.3443
18981TIP3    H278435   1.722   2.917   5.003  1.2224 -3.1196 -0.0169
18982TIP3   OH278436   5.177   0.731  12.201 -0.2178 -0.1264 -0.0485
18982TIP3    H178437   5.185   0.763  12.291  1.4092  0.0597 -0.2300
18982TIP3    H278438   5.225   0.796  12.149  2.6253 -2.4014 -0.5140
18983TIP3   OH278439   0.658   0.067   1.190  0.3498  0.0199 -0.4303
18983TIP3    H178440   0.604   0.019   1.127  0.7432  1.0879 -1.6460
18983TIP3    H278441   0.700  -0.000   1.243 -2.5144 -0.8667  0.9183
18984TIP3   OH278442   6.510   2.841   2.785 -0.3798 -0.1032 -0.3089
18984TIP3    H178443   6.478   2.926   2.754 -0.5906 -0.1780 -0.2942
18984TIP3    H278444   6.529   2.855   2.878  0.8634  0.3019 -0.5969
18985TIP3   OH278445   4.825   0.671   4.441 -0.2104 -0.1228  0.1219
18985TIP3    H178446   4.860   0.756   4.467  0.1336  0.1778 -1.2479
18985TIP3    H278447   4.843   0.614   4.516 -0.3420  0.9664  1.0178
18986TIP3   OH278448   3.693   2.845   2.358 -0.4111  0.3645  0.6059
18986TIP3    H178449   3.725   2.899   2.285  0.5062 -1.0337 -0.0712
18986TIP3    H278450   3.707   2.899   2.435 -0.7439  1.6107 -0.1671
18987TIP3   OH278451   0.067   0.362   3.325 -0.1158 -0.8173 -0.0124
18987TIP3    H178452   0.017   0.372   3.405 -0.4844 -0.1936 -0.3146
18987TIP3    H278453   0.157   0.382   3.350 -0.3388  0.0504  0.0980
18988TIP3   OH278454   5.475   0.238  13.748 -0.8745 -0.2916 -0.0896
18988TIP3    H178455   5.495   0.254  13.840 -1.8731 -0.4316  0.1572
18988TIP3    H278456   5.418   0.310  13.722  1.8248  1.5203 -1.4864
18989TIP3   OH278457   5.535   5.814  16.245  0.2671 -0.3665  0.0494
18989TIP3    H178458   5.509   5.891  16.296  0.6100 -1.2181  1.5652
18989TIP3    H278459   5.552   5.848  16.157 -0.7569  1.0788  0.3816
18990TIP3   OH278460   5.800   6.175   2.439  0.2864  0.0700  0.1162
18990TIP3    H178461   5.730   6.202   2.499 -0.1159 -0.2632 -0.1951
18990TIP3    H278462   5.871   6.145   2.497  0.8413  1.9599  0.4856
18991TIP3   OH278463   1.677   5.142  11.260 -0.2116 -0.4362 -0.3428
18991TIP3    H178464   1.675   5.207  11.189 -0.2756  0.8889  0.8452
18991TIP3    H278465   1.697   5.060  11.215  1.5423  0.6484 -1.6951
18992TIP3   OH278466   6.618   0.895   1.882  0.0719  0.5764 -0.0813
18992TIP3    H178467   6.548   0.884   1.946  0.0035 -0.1458 -0.2660
18992TIP3    H278468   6.650   0.984   1.895 -0.6459  0.7882  0.2420
18993TIP3   OH278469   1.756   6.503  14.536 -0.0561  1.0493 -0.0558
18993TIP3    H178470   1.839   6.489  14.488 -0.4068 -4.9446  0.3631
18993TIP3    H278471   1.783   6.518  14.626  0.7750 -1.5877  0.2207
18994TIP3   OH278472   0.641   6.269   2.847 -0.1545  0.0126  0.2257
18994TIP3    H178473   0.720   6.302   2.889 -0.2079  0.4544 -0.0101
18994TIP3    H278474   0.575   6.336   2.865 -0.4563 -0.3086  0.3448
18995TIP3   OH278475   5.097   0.264  13.349 -0.5504  0.4510 -0.3340
18995TIP3    H178476   5.182   0.258  13.393 -0.5747 -1.6175 -0.4475
18995TIP3    H278477   5.108   0.331  13.283 -0.0964  2.7191  1.8935
18996TIP3   OH278478   5.231   3.075   2.984 -0.4916  0.5042  0.2970
18996TIP3    H178479   5.166   3.009   2.958  1.1474 -1.0742  0.0564
18996TIP3    H278480   5.265   3.043   3.068  0.3913  1.0054  0.1351
18997TIP3   OH278481   1.881   1.594   5.975  0.1047 -0.7567 -0.0666
18997TIP3    H178482   1.881   1.530   6.046 -0.1948  0.2793  0.8996
18997TIP3    H278483   1.797   1.640   5.985  1.0010  0.8523  0.2762
18998TIP3   OH278484   4.685   5.323   4.061 -0.5742  0.0672 -0.5754
18998TIP3    H178485   4.680   5.227   4.055 -0.3996  0.0487 -0.4362
18998TIP3    H278486   4.642   5.344   4.144 -1.3394  0.1756 -0.9948
18999TIP3   OH278487   0.865   3.794   6.023 -0.3017  0.4990 -0.2189
18999TIP3    H178488   0.850   3.712   6.070 -0.3887  0.5360 -0.1808
18999TIP3    H278489   0.943   3.831   6.064 -1.5322  1.5339  1.3103
19000TIP3   OH278490   3.865   4.190  16.592 -0.2968  0.3203 -0.2515
19000TIP3    H178491   3.793   4.252  16.598  0.0957  0.8225 -0.6545
19000TIP3    H278492   3.833   4.111  16.636 -0.1824  1.3650  1.8387
19001TIP3   OH278493   0.044   4.588   1.953 -0.3613  0.0593 -0.2899
19001TIP3    H178494   0.083   4.610   2.038 -1.5250 -1.5586  0.7230
19001TIP3    H278495  -0.050   4.583   1.971 -0.6489 -0.1761 -1.7240
19002TIP3   OH278496   3.167   3.667   1.416  0.7827  0.3354  0.0207
19002TIP3    H178497   3.152   3.573   1.404 -0.3607  0.5021  0.0460
19002TIP3    H278498   3.259   3.680   1.393  1.0648 -0.8551  0.4111
19003TIP3   OH278499   6.577   1.987   3.025 -0.0387  0.6156  0.3698
19003TIP3    H178500   6.493   2.032   3.027 -0.6683 -0.5320  1.0210
19003TIP3    H278501   6.574   1.928   3.100  0.4654 -1.0012 -0.8268
19004TIP3   OH278502   4.364   5.054  14.893  0.0480  0.0326 -0.1914
19004TIP3    H178503   4.399   5.141  14.869  2.3257 -1.1524 -1.5602
19004TIP3    H278504   4.385   4.999  14.818 -1.8388 -1.6241  0.4261
19005TIP3   OH278505   3.327   6.513   1.878 -0.3330 -0.3503 -0.0462
19005TIP3    H178506   3.316   6.608   1.882  0.3351 -0.3043  1.2675
19005TIP3    H278507   3.416   6.500   1.845 -0.1548 -0.4997  0.4830
19006TIP3   OH278508   3.699   2.922   1.585 -0.5782 -0.1107  0.3365
19006TIP3    H178509   3.773   2.887   1.536 -2.1750 -3.5130  0.0955
19006TIP3    H278510   3.659   2.986   1.526 -0.2819 -1.3922 -1.3410
19007TIP3   OH278511   4.561   2.318   4.225 -0.3106  0.6261 -0.2527
19007TIP3    H178512   4.574   2.281   4.312  1.0944  1.0730 -0.2379
19007TIP3    H278513   4.475   2.360   4.229  0.1829  1.5766  1.2872
19008TIP3   OH278514   2.162   1.736  10.929 -0.1824 -0.5705 -0.7604
19008TIP3    H178515   2.191   1.713  11.017 -0.7539  1.1679 -0.0795
19008TIP3    H278516   2.241   1.729  10.875  0.6536  0.3675  0.3063
19009TIP3   OH278517   6.444   6.306   6.112  0.0698 -0.1240  0.6163
19009TIP3    H178518   6.498   6.383   6.130  2.9760 -1.2226 -2.4469
19009TIP3    H278519   6.395   6.328   6.033 -1.9415 -0.1870  1.7868
19010TIP3   OH278520   2.931   1.425  16.937 -0.0026  0.1823  0.5699
19010TIP3    H178521   2.854   1.471  16.968 -0.4466  2.5892 -3.3153
19010TIP3    H278522   2.999   1.493  16.932 -0.1558  0.2879 -3.6917
19011TIP3   OH278523   0.813   5.944  12.728  0.1701  0.0230 -0.8984
19011TIP3    H178524   0.806   6.005  12.654 -1.5259 -0.5312 -1.2364
19011TIP3    H278525   0.784   5.860  12.692 -0.3262 -0.3332  0.3049
19012TIP3   OH278526   6.060   4.233   1.068 -0.0111 -0.1349  0.3837
19012TIP3    H178527   6.040   4.266   1.155 -0.4830 -2.5417  1.2758
19012TIP3    H278528   6.134   4.173   1.081 -1.0057 -1.6578 -0.5553
19013TIP3   OH278529   0.093   5.459   4.002 -0.3443  0.3814 -0.3304
19013TIP3    H178530   0.035   5.407   3.947 -1.1389 -0.1038  0.9162
19013TIP3    H278531   0.156   5.397   4.037  0.7588  0.8496 -1.3959
19014TIP3   OH278532   3.639   1.539   5.756 -0.4201  0.3349 -0.0702
19014TIP3    H178533   3.582   1.545   5.833  1.0371  2.3042  0.9749
19014TIP3    H278534   3.701   1.470   5.778 -1.1652 -0.4453 -0.3541
19015TIP3   OH278535   0.529   3.917  15.631 -0.0509 -0.3460  0.0902
19015TIP3    H178536   0.446   3.956  15.658 -0.1330 -0.5301  0.1020
19015TIP3    H278537   0.542   3.845  15.693 -0.0195 -0.4915 -0.0874
19016TIP3   OH278538   1.854   5.302  10.999 -0.3754 -0.3842 -0.0245
19016TIP3    H178539   1.761   5.290  11.021 -0.7838  1.2928 -0.7288
19016TIP3    H278540   1.864   5.396  10.988  1.2950 -0.5980 -0.5202
19017TIP3   OH278541   5.356   3.135  17.002  0.3200  0.2614  0.1655
19017TIP3    H178542   5.390   3.164  16.918  0.4825  0.5276  0.3225
19017TIP3    H278543   5.261   3.146  16.994  0.3019 -0.0999 -0.1248
19018TIP3   OH278544   2.343   2.850   6.514 -0.1664 -0.6546 -0.4388
19018TIP3    H178545   2.280   2.826   6.445 -0.1074 -0.8596 -0.4238
19018TIP3    H278546   2.290   2.888   6.583 -0.0358  1.3895 -1.3957
19019TIP3   OH278547   3.938   2.904   5.014  0.4082  0.2824  0.1490
19019TIP3    H178548   4.022   2.882   4.975  0.4888 -0.9027  0.9185
19019TIP3    H278549   3.878   2.911   4.939  0.9912  0.1880 -0.3346
19020TIP3   OH278550   3.307   2.477   2.043  0.5836  0.1223  0.1783
19020TIP3    H178551   3.248   2.545   2.011  1.4419 -0.0915 -2.0312
19020TIP3    H278552   3.375   2.470   1.976  2.1777 -0.8452  1.7937
19021TIP3   OH278553   4.521   2.146  14.346  0.1372  0.1325  0.2846
19021TIP3    H178554   4.525   2.197  14.265 -0.2913 -0.0720  0.1284
19021TIP3    H278555   4.428   2.142  14.367  0.1584 -0.6145  0.2735
19022TIP3   OH278556   1.783   2.807  17.085  0.1881 -0.0675 -0.1412
19022TIP3    H178557   1.860   2.773  17.039  0.1640 -0.8377  0.3709
19022TIP3    H278558   1.747   2.873  17.025  1.8970  1.1494  0.1141
19023TIP3   OH278559   6.596   4.472   6.362  0.0698  0.3908  0.6920
19023TIP3    H178560   6.596   4.561   6.326  0.9845  0.5857  1.1452
19023TIP3    H278561   6.660   4.475   6.434 -0.0938 -0.5606  0.8914
19024TIP3   OH278562   5.609   5.737  12.223 -0.4112  0.0113  0.1030
19024TIP3    H178563   5.646   5.725  12.310 -0.4641  0.9044  0.2505
19024TIP3    H278564   5.674   5.697  12.164 -0.7496 -1.3201  0.5903
19025TIP3   OH278565   5.555   4.181   0.434 -0.4444  0.0109  0.0324
19025TIP3    H178566   5.508   4.264   0.423 -0.9565 -0.2161  0.4205
19025TIP3    H278567   5.598   4.189   0.519  1.2161  0.6793 -0.8380
19026TIP3   OH278568   1.475   6.549  15.389 -0.0953 -0.5763  0.0438
19026TIP3    H178569   1.391   6.507  15.372  0.3272 -0.6794 -2.0402
19026TIP3    H278570   1.530   6.524  15.315  1.6132 -0.0530  1.0777
19027TIP3   OH278571   3.910   3.301  13.225  0.1626  0.2599  0.0899
19027TIP3    H178572   3.928   3.370  13.161  2.2434  0.2967  0.6520
19027TIP3    H278573   3.948   3.333  13.306 -2.4181  0.2152  1.4286
19028TIP3   OH278574   5.298   4.770  16.525  0.0659 -0.8397  0.5495
19028TIP3    H178575   5.264   4.736  16.608  0.9616 -3.7754 -0.1747
19028TIP3    H278576   5.274   4.704  16.461 -0.2214  1.1520 -1.5194
19029TIP3   OH278577   5.498   6.674   5.876 -0.4694  0.8705 -0.0828
19029TIP3    H178578   5.562   6.744   5.887  0.6216 -0.3397  1.8596
19029TIP3    H278579   5.446   6.677   5.957 -1.0470  0.0785 -0.4218
19030TIP3   OH278580   1.309   4.035  14.470 -0.3051 -0.1935 -0.1981
19030TIP3    H178581   1.262   3.956  14.496 -0.0377 -0.0326  0.8333
19030TIP3    H278582   1.400   4.017  14.493  0.0164 -0.1632 -1.3710
19031TIP3   OH278583   0.451   4.424   6.099  0.5131  0.0735  0.0247
19031TIP3    H178584   0.386   4.375   6.048 -0.2845 -0.2992  1.3601
19031TIP3    H278585   0.449   4.512   6.061  0.9644 -0.5316 -1.4990
19032TIP3   OH278586   1.179   3.734  16.145  0.2792 -0.4348  0.2457
19032TIP3    H178587   1.181   3.824  16.178  1.0502 -0.3085 -0.1245
19032TIP3    H278588   1.261   3.696  16.176  0.9441 -0.3704 -1.3461
19033TIP3   OH278589   3.006   1.617   6.143  0.0375  0.1054 -0.0830
19033TIP3    H178590   2.932   1.601   6.085  0.7148 -1.2888 -0.6190
19033TIP3    H278591   2.994   1.707   6.173 -1.7222 -0.0036 -0.3433
19034TIP3   OH278592   3.124   1.504  14.413  0.5121  0.1308 -0.1603
19034TIP3    H178593   3.212   1.503  14.375  0.5977  0.0590  0.0352
19034TIP3    H278594   3.102   1.412  14.426  0.3362  0.1428 -0.3689
19035TIP3   OH278595   3.890   2.105  15.884 -0.2667 -0.5225 -0.2013
19035TIP3    H178596   3.957   2.171  15.866 -0.8767  0.6666  1.6601
19035TIP3    H278597   3.810   2.155  15.899 -1.2519 -1.8420 -0.8332
19036TIP3   OH278598   2.812   6.488   2.113  0.0884 -0.3591 -0.4911
19036TIP3    H178599   2.840   6.556   2.051 -0.2639 -1.4443 -1.8926
19036TIP3    H278600   2.894   6.457   2.152  0.4437 -0.4368 -1.2622
19037TIP3   OH278601   5.158   2.997   3.498 -0.5962 -0.0731 -0.5613
19037TIP3    H178602   5.222   3.053   3.543 -3.3674  2.5923  0.4182
19037TIP3    H278603   5.167   2.912   3.541  1.1905  0.6178  0.5859
19038TIP3   OH278604   0.048   0.067  13.542 -0.2286  0.2805  0.2855
19038TIP3    H178605   0.012   0.068  13.454  0.9427 -0.7592 -0.2427
19038TIP3    H278606   0.110  -0.006  13.542  1.0170  1.2842  1.4748
19039TIP3   OH278607   0.765   1.701  15.315 -0.0669  0.1150  0.0393
19039TIP3    H178608   0.833   1.706  15.248  0.3895 -0.1426  0.4757
19039TIP3    H278609   0.792   1.765  15.381 -0.4585  0.2954  0.0224
19040TIP3   OH278610   0.433   3.124  13.384 -0.6193  0.2008  0.4443
19040TIP3    H178611   0.375   3.050  13.365 -0.7549  0.7064 -1.3020
19040TIP3    H278612   0.462   3.154  13.298 -1.9084  3.2329  0.9382
19041TIP3   OH278613   5.008   3.194  16.149  0.0315  0.4551 -0.2883
19041TIP3    H178614   5.009   3.131  16.077  0.0552 -1.4443  1.3023
19041TIP3    H278615   4.917   3.225  16.153 -0.4332 -0.8985  0.0600
19042TIP3   OH278616   0.249   4.467   6.874  0.2405  0.2189 -0.2973
19042TIP3    H178617   0.188   4.395   6.855  0.7253  0.1740 -1.8315
19042TIP3    H278618   0.208   4.544   6.835 -0.0105  0.6911  0.8634
19043TIP3   OH278619   2.704   3.080   3.748 -0.4115  0.4670  0.2100
19043TIP3    H178620   2.666   3.027   3.678  0.8563 -1.2088  0.6967
19043TIP3    H278621   2.674   3.169   3.731 -1.5340 -0.1815 -1.4464
19044TIP3   OH278622   4.452   5.677   3.535  0.0029 -0.1342 -0.4646
19044TIP3    H178623   4.482   5.689   3.625 -1.0927  1.6091 -0.2788
19044TIP3    H278624   4.429   5.584   3.530  2.5822 -0.9064  0.2019
19045TIP3   OH278625   1.233   5.693  11.703 -0.4923  0.5029 -0.1589
19045TIP3    H178626   1.172   5.684  11.776  0.3042  1.0629  0.6100
19045TIP3    H278627   1.236   5.606  11.663 -0.9001  0.1674  0.5193
19046TIP3   OH278628   1.417   0.522   1.026  0.1143  0.1445  0.2883
19046TIP3    H178629   1.455   0.448   0.978  0.9033  1.1032 -0.6080
19046TIP3    H278630   1.360   0.565   0.962  0.0656  0.6130  0.6454
19047TIP3   OH278631   4.183   1.305  11.998 -0.2463 -0.2904  0.9561
19047TIP3    H178632   4.254   1.243  11.980 -0.5122 -0.6408  1.1100
19047TIP3    H278633   4.215   1.356  12.073  0.0827 -0.0621  0.6639
19048TIP3   OH278634   3.190   5.094   1.263 -0.6970  0.2692  0.5670
19048TIP3    H178635   3.222   5.145   1.188  0.2351 -2.4925 -1.0989
19048TIP3    H278636   3.107   5.134   1.286 -0.7574  1.5634 -1.6300
19049TIP3   OH278637   3.032   5.973  15.400 -0.1393  0.2857 -0.3958
19049TIP3    H178638   3.004   6.050  15.448  0.3193  1.1747 -1.5137
19049TIP3    H278639   2.950   5.927  15.379 -0.5251  1.1167 -0.7712
19050TIP3   OH278640   3.889   0.453  16.765  0.0429  0.6128 -0.1855
19050TIP3    H178641   3.919   0.418  16.681 -1.6922  1.1719 -1.0692
19050TIP3    H278642   3.841   0.532  16.743  0.7515  1.5656  1.4788
19051TIP3   OH278643   6.393   3.470  11.264 -0.0251 -0.1674  0.1387
19051TIP3    H178644   6.357   3.452  11.177  1.3532  0.1601 -0.5314
19051TIP3    H278645   6.317   3.495  11.316 -0.6438  1.7306 -1.5224
19052TIP3   OH278646   4.821   3.073  12.943  0.3092 -0.3027  0.3335
19052TIP3    H178647   4.726   3.078  12.937  0.3314 -0.0199  0.2071
19052TIP3    H278648   4.844   3.134  13.013  0.2401 -1.8980  1.8020
19053TIP3   OH278649   0.549   1.910   4.598  0.1848  0.7941  0.4785
19053TIP3    H178650   0.568   1.858   4.520 -0.1020  1.2512  0.0939
19053TIP3    H278651   0.453   1.912   4.602  0.1987  0.1642  1.2626
19054TIP3   OH278652   2.926   6.664  15.763 -0.0507 -0.3043  0.4780
19054TIP3    H178653   2.907   6.712  15.844  0.7040  0.6792  0.0888
19054TIP3    H278654   2.936   6.732  15.697  0.1383 -1.0582 -0.2844
19055TIP3   OH278655   0.708   5.651  14.451 -0.6712  0.2760 -0.4997
19055TIP3    H178656   0.669   5.708  14.385 -1.7137  0.0447 -0.1036
19055TIP3    H278657   0.758   5.709  14.507 -3.3215  1.1695  1.0997
19056TIP3   OH278658   2.440   4.466   5.990  0.2935  0.1001 -0.1648
19056TIP3    H178659   2.437   4.467   6.085  0.3538 -0.1741 -0.1604
19056TIP3    H278660   2.533   4.466   5.968  0.2829  0.5297 -0.2299
19057TIP3   OH278661   5.099   6.204   6.068  0.3095  0.4982  0.4128
19057TIP3    H178662   5.049   6.185   6.148 -1.1395  1.5758 -0.1966
19057TIP3    H278663   5.185   6.231   6.100  0.1455 -0.2357  1.5527
19058TIP3   OH278664   1.501   4.666  14.247 -0.9464 -0.0131 -0.5120
19058TIP3    H178665   1.509   4.753  14.285 -0.6288 -0.2841  0.0472
19058TIP3    H278666   1.424   4.628  14.290 -0.7913 -0.1915 -0.3908
19059TIP3   OH278667   4.169   2.844  17.274 -0.1338 -0.4826  0.5244
19059TIP3    H178668   4.135   2.842  17.363 -0.2410 -0.6257  0.4805
19059TIP3    H278669   4.099   2.806  17.221 -0.2067 -0.0818  0.3311
19060TIP3   OH278670   1.694   6.520  13.954 -0.4211 -0.7139  0.5017
19060TIP3    H178671   1.788   6.525  13.940 -0.4009 -1.4833  0.3306
19060TIP3    H278672   1.670   6.432  13.927 -0.9735 -1.0110  1.8508
19061TIP3   OH278673   6.253   3.764  12.386  0.0067  0.2652 -0.1625
19061TIP3    H178674   6.233   3.853  12.358  0.9639  0.9939  1.3261
19061TIP3    H278675   6.349   3.760  12.388 -0.0119 -0.3080  1.1803
19062TIP3   OH278676   3.381   0.907   1.549  0.0158 -0.4474 -0.1503
19062TIP3    H178677   3.339   0.990   1.570  1.3835  0.8810 -2.2626
19062TIP3    H278678   3.452   0.900   1.614  1.8962  1.7410 -1.7885
19063TIP3   OH278679   3.112   1.067  11.584 -0.1114 -0.1532 -0.4005
19063TIP3    H178680   3.166   1.077  11.662 -1.3789 -1.4973  0.7000
19063TIP3    H278681   3.025   1.047  11.617 -0.6952 -0.7142 -2.1549
19064TIP3   OH278682   5.224   1.355   0.901  0.0570 -0.2508 -0.6782
19064TIP3    H178683   5.278   1.319   0.971  0.5256  0.2277 -0.7935
19064TIP3    H278684   5.141   1.377   0.944  0.5081  0.4771 -0.1786
19065TIP3   OH278685   2.774   3.920  11.134 -0.1094  0.2575 -0.2039
19065TIP3    H178686   2.683   3.921  11.104 -0.9482  1.3994  2.1274
19065TIP3    H278687   2.811   4.001  11.099  0.2030 -0.4599 -1.5927
19066TIP3   OH278688   2.460   5.452   2.638 -0.3152  0.1105  0.0597
19066TIP3    H178689   2.384   5.495   2.676  0.5848  1.0473  0.8885
19066TIP3    H278690   2.427   5.407   2.560 -2.0815 -1.1998  1.4856
19067TIP3   OH278691   2.773   4.668  14.592 -0.2363 -0.0601  0.0197
19067TIP3    H178692   2.857   4.707  14.618  0.1110 -1.0778  0.5024
19067TIP3    H278693   2.759   4.699  14.503 -0.5931  2.1262  0.7816
19068TIP3   OH278694   2.526   5.903  11.407 -0.0954 -0.2240  0.5063
19068TIP3    H178695   2.446   5.855  11.427 -0.5122  0.2216 -0.0400
19068TIP3    H278696   2.577   5.901  11.488 -0.5471 -0.7307  0.7786
19069TIP3   OH278697   6.591   0.528  12.919 -0.0582  0.0101 -0.2235
19069TIP3    H178698   6.586   0.556  13.010  2.6762 -0.3499  0.1085
19069TIP3    H278699   6.586   0.609  12.868 -4.8579  0.0732 -0.1188
19070TIP3   OH278700   5.738   4.178  14.764  0.4366  0.2960  0.0578
19070TIP3    H178701   5.689   4.149  14.687 -0.1186  0.3877  0.3690
19070TIP3    H278702   5.789   4.253  14.733 -1.7972  2.0581  0.3646
19071TIP3   OH278703   3.610   0.825  15.515 -0.0359 -0.0299  0.2294
19071TIP3    H178704   3.553   0.749  15.503 -3.2498  2.0797  0.8973
19071TIP3    H278705   3.628   0.857  15.427  0.7939 -1.1038 -0.0198
19072TIP3   OH278706   4.217   5.208   4.613  0.5575  0.1655  0.3152
19072TIP3    H178707   4.232   5.133   4.555 -1.6622  0.3068 -0.5447
19072TIP3    H278708   4.292   5.266   4.596  1.1931 -0.8846 -0.6251
19073TIP3   OH278709   6.520   2.573   1.929 -0.8181 -0.2664 -0.2259
19073TIP3    H178710   6.546   2.557   2.020 -0.1654  0.2019 -0.3217
19073TIP3    H278711   6.427   2.550   1.926 -1.4475  1.8049  1.1219
19074TIP3   OH278712   4.129   1.467   1.492 -0.4863  0.2070 -0.2946
19074TIP3    H178713   4.180   1.386   1.498 -1.9843 -0.7044  1.0495
19074TIP3    H278714   4.114   1.479   1.399  0.4656 -0.6221 -0.5723
19075TIP3   OH278715   4.935   0.820  15.447  0.2083  0.6692 -0.6749
19075TIP3    H178716   5.022   0.786  15.429 -0.2956 -0.3190 -1.3397
19075TIP3    H278717   4.948   0.887  15.514  1.2279 -0.9021  0.7495
19076TIP3   OH278718   6.553   6.257   3.207 -0.3949  0.0938 -0.2060
19076TIP3    H178719   6.564   6.333   3.264  0.2216  0.6780 -1.0870
19076TIP3    H278720   6.642   6.223   3.194 -0.5580 -0.1970 -0.6004
19077TIP3   OH278721   6.154   0.821  11.041  0.5874 -0.0795 -0.6023
19077TIP3    H178722   6.198   0.861  11.117 -0.3782 -2.4038  1.3133
19077TIP3    H278723   6.167   0.884  10.970  2.4990  1.7143  1.1865
19078TIP3   OH278724   3.838   6.075   4.024  0.0992  0.0386  0.2026
19078TIP3    H178725   3.847   6.151   3.967 -3.6011  0.3163 -0.2636
19078TIP3    H278726   3.822   6.002   3.964  1.3889 -0.7020  0.7313
19079TIP3   OH278727   2.488   1.022   4.803  0.0475 -0.1499 -0.8718
19079TIP3    H178728   2.571   1.031   4.849  0.6381  1.5819 -2.1338
19079TIP3    H278729   2.451   0.940   4.835  0.2981  0.9619  2.7887
19080TIP3   OH278730   2.813   3.455  11.121 -0.1954  0.0644  0.1698
19080TIP3    H178731   2.819   3.404  11.040  2.3831  0.0567  0.2739
19080TIP3    H278732   2.822   3.390  11.190  2.0512  0.4566  0.3193
19081TIP3   OH278733   6.425   1.942   2.041  0.4279 -0.3183 -0.0965
19081TIP3    H178734   6.505   1.903   2.076  0.0126 -0.8152  0.3214
19081TIP3    H278735   6.437   2.036   2.052  0.8998 -0.3976  0.0864
19082TIP3   OH278736   3.618   0.728   3.885  0.5982 -0.2538 -0.0404
19082TIP3    H178737   3.683   0.664   3.914  1.7773  0.6450 -0.5760
19082TIP3    H278738   3.633   0.736   3.790  1.1396  1.4810  0.1500
19083TIP3   OH278739   4.809   6.357  13.911 -0.3462 -0.2195  0.5176
19083TIP3    H178740   4.778   6.408  13.986  2.4926  0.4514  1.3466
19083TIP3    H278741   4.874   6.298  13.948 -1.1660 -2.1712 -0.9741
19084TIP3   OH278742   4.312   5.894   5.600  0.4783  0.5363 -0.2457
19084TIP3    H178743   4.224   5.926   5.616  0.7979  1.4986 -0.3670
19084TIP3    H278744   4.361   5.917   5.679  1.0983  1.7967 -0.9686
19085TIP3   OH278745   0.111   1.976  14.270  0.0723  0.0938 -0.2630
19085TIP3    H178746   0.144   1.898  14.226  1.2868  0.8627 -0.7636
19085TIP3    H278747   0.123   1.957  14.363 -0.0491 -0.4787 -0.3582
19086TIP3   OH278748   1.142   2.296   0.546  0.0458  0.4416 -0.0344
19086TIP3    H178749   1.151   2.389   0.527  3.6491  0.3046  0.3793
19086TIP3    H278750   1.153   2.252   0.461 -1.4486  0.3113 -0.1970
19087TIP3   OH278751   0.107   6.424  15.731  0.6613 -0.4601 -0.0384
19087TIP3    H178752   0.135   6.491  15.793  2.2954 -0.3083 -0.8678
19087TIP3    H278753   0.183   6.412  15.674 -0.5871 -0.9778 -1.6651
19088TIP3   OH278754   6.449   0.852   1.660 -0.0537 -0.0922  0.3760
19088TIP3    H178755   6.502   0.837   1.739  0.5129  0.4508  0.1080
19088TIP3    H278756   6.403   0.934   1.678  0.6335  0.4217 -0.1382
19089TIP3   OH278757   5.194   5.353  13.140 -0.0633  0.0918  0.9961
19089TIP3    H178758   5.195   5.431  13.196 -1.1459 -0.8838  2.4347
19089TIP3    H278759   5.151   5.286  13.193 -1.3825 -0.8212 -1.1275
19090TIP3   OH278760   0.901   5.583  11.473  0.3624 -0.8212  0.7830
19090TIP3    H178761   0.978   5.628  11.439  1.3883 -0.1904  3.6543
19090TIP3    H278762   0.828   5.641  11.452  0.9762 -0.3178 -0.0148
19091TIP3   OH278763   0.523   5.242  16.574  0.2889  0.0254 -0.5077
19091TIP3    H178764   0.476   5.280  16.500  0.5884  0.5825 -0.4164
19091TIP3    H278765   0.540   5.316  16.632 -0.4148 -0.4934  0.3871
19092TIP3   OH278766   4.257   1.049  12.243  0.0785 -1.0269 -0.4646
19092TIP3    H178767   4.279   1.003  12.324  0.1847 -0.9107 -0.4271
19092TIP3    H278768   4.341   1.078  12.208 -0.0786  0.2608  0.1797
19093TIP3   OH278769   2.368   5.978   2.017 -0.0876  0.0750 -0.0745
19093TIP3    H178770   2.395   5.980   2.109 -1.8717 -0.6359  0.5023
19093TIP3    H278771   2.304   5.907   2.012 -0.2892  0.3433 -1.7954
19094TIP3   OH278772   5.283   2.191  16.410  0.3776 -0.0634  0.2547
19094TIP3    H178773   5.193   2.210  16.385  0.3909  0.2212  0.4177
19094TIP3    H278774   5.305   2.110  16.364 -0.3530 -0.7850  1.1282
19095TIP3   OH278775   4.939   4.728   6.429 -0.5662 -0.3000 -0.1156
19095TIP3    H178776   4.998   4.653   6.437  1.1786  1.2204  3.5805
19095TIP3    H278777   4.874   4.714   6.498  1.2542  2.5496  2.4334
19096TIP3   OH278778   5.765   3.252   5.763 -0.3234  0.3883  0.2680
19096TIP3    H178779   5.759   3.156   5.763 -0.9603  0.4245 -0.4480
19096TIP3    H278780   5.808   3.273   5.846 -1.3253 -0.4407  1.0181
19097TIP3   OH278781   5.168   6.056  15.144 -0.3699  0.1345  0.3221
19097TIP3    H178782   5.213   5.992  15.090 -3.1913 -0.1923 -1.8797
19097TIP3    H278783   5.126   6.005  15.213  0.4702  0.1341  0.8465
19098TIP3   OH278784   4.041   0.134  10.829  0.2134 -0.6236 -0.7391
19098TIP3    H178785   3.964   0.086  10.799 -0.5636 -0.7315  1.2683
19098TIP3    H278786   4.096   0.069  10.872 -0.4941  0.0400  1.3339
19099TIP3   OH278787   3.784   6.209  14.705  0.3319  0.4656  0.2360
19099TIP3    H178788   3.705   6.254  14.675 -0.3033 -1.1231 -0.5401
19099TIP3    H278789   3.849   6.228  14.638 -1.1833 -3.3943 -2.6838
19100TIP3   OH278790   6.127   1.919   4.108  0.3397 -0.1210 -0.4666
19100TIP3    H178791   6.124   1.887   4.018 -0.7188 -0.5907 -0.2785
19100TIP3    H278792   6.192   1.863   4.151 -0.2003 -0.8522 -0.5856
19101TIP3   OH278793   4.223   0.811   3.219  0.5009 -0.0347  0.4803
19101TIP3    H178794   4.133   0.831   3.192  0.1129 -1.1624  0.8977
19101TIP3    H278795   4.221   0.814   3.314  0.5736 -1.3884  0.5399
19102TIP3   OH278796   1.419   5.396  16.958 -0.5015 -0.5333  0.7135
19102TIP3    H178797   1.470   5.342  16.897 -1.0695  0.7221 -0.9638
19102TIP3    H278798   1.342   5.421  16.908 -0.5927  1.2306  1.6664
19103TIP3   OH278799   2.612   2.740   5.484  0.0560 -0.2062  0.0699
19103TIP3    H178800   2.680   2.776   5.541 -0.2800  0.8977 -0.1933
19103TIP3    H278801   2.605   2.648   5.510  2.4833 -0.6935 -0.7137
19104TIP3   OH278802   2.672   4.539   5.163 -0.2887  0.3721 -0.0914
19104TIP3    H178803   2.617   4.471   5.202  1.7336 -0.8735  0.7341
19104TIP3    H278804   2.609   4.604   5.130 -2.2958 -1.6068 -0.4618
19105TIP3   OH278805   1.903   6.613   6.728  0.4816  0.1149 -0.6245
19105TIP3    H178806   1.848   6.545   6.768 -2.1508  1.7958 -1.1411
19105TIP3    H278807   1.963   6.639   6.798  0.0464 -1.1822  0.2832
19106TIP3   OH278808   0.985   0.707   5.916 -0.0466 -0.1673  0.4080
19106TIP3    H178809   1.026   0.745   5.994 -0.2612 -0.1262  0.5020
19106TIP3    H278810   1.007   0.768   5.845  0.5021 -0.4222  0.3526
19107TIP3   OH278811   2.899   5.064   3.831  0.4695  0.7499  0.4573
19107TIP3    H178812   2.953   5.090   3.905  0.7183  2.4025 -0.2719
19107TIP3    H278813   2.934   5.113   3.757 -1.2205  0.8997 -0.2917
19108TIP3   OH278814   2.926   5.524  15.066  0.0255  1.0158  0.3190
19108TIP3    H178815   2.832   5.532  15.080 -0.6383 -1.9494 -1.7127
19108TIP3    H278816   2.939   5.434  15.035  3.4837  1.4554  0.0766
19109TIP3   OH278817   6.790   1.855   1.213 -0.0377  0.0175  0.0372
19109TIP3    H178818   6.814   1.832   1.303  0.0643 -0.2031 -0.0461
19109TIP3    H278819   6.709   1.807   1.197 -0.2982  0.4084  0.1631
19110TIP3   OH278820   2.211   2.190   2.589  0.2998 -0.2362 -0.8358
19110TIP3    H178821   2.172   2.105   2.568 -0.5228 -1.5627  4.4197
19110TIP3    H278822   2.305   2.173   2.595  0.6068  0.2837 -3.3274
19111TIP3   OH278823   0.400   4.617   2.774 -0.0247  0.1335 -0.5931
19111TIP3    H178824   0.382   4.533   2.731  3.6904 -0.4270 -1.4880
19111TIP3    H278825   0.366   4.607   2.863 -0.5756 -1.9317 -0.9849
19112TIP3   OH278826   2.320   6.568   1.668  0.3560  0.3417  0.1216
19112TIP3    H178827   2.234   6.555   1.707  0.2100 -0.9032 -0.5690
19112TIP3    H278828   2.317   6.656   1.630 -0.9980 -0.1052 -0.8497
19113TIP3   OH278829   5.165   5.191  12.225  0.1902  0.0416 -0.1990
19113TIP3    H178830   5.077   5.161  12.246 -0.0788  0.6602 -0.4354
19113TIP3    H278831   5.187   5.254  12.293  1.3750 -1.7851  1.2154
19114TIP3   OH278832   2.527   1.625  12.014  0.7074 -0.5206  0.0751
19114TIP3    H178833   2.601   1.678  12.042  0.1665  1.4866 -1.9698
19114TIP3    H278834   2.500   1.664  11.931 -4.0238  0.3254  1.7089
19115TIP3   OH278835   4.569   0.600  16.008 -0.6588  0.2595 -0.5379
19115TIP3    H178836   4.588   0.650  15.928 -0.2708  0.6611 -0.2052
19115TIP3    H278837   4.644   0.619  16.065 -1.2530  0.5067  0.1693
19116TIP3   OH278838   0.050   2.487  17.192  0.5331 -0.3211 -0.3685
19116TIP3    H178839  -0.030   2.437  17.207 -0.1905  0.8490 -0.2135
19116TIP3    H278840   0.025   2.554  17.128  1.0022  0.9130  0.6899
19117TIP3   OH278841   3.618   4.692   3.809 -0.2119  0.7525 -0.4418
19117TIP3    H178842   3.572   4.625   3.757 -0.8431  1.9628 -1.4838
19117TIP3    H278843   3.690   4.644   3.851 -2.8690 -1.4669  2.0562
19118TIP3   OH278844   5.071   5.719   0.901  0.2018  0.7176  0.0701
19118TIP3    H178845   5.083   5.654   0.832  0.9008 -0.3972  1.1970
19118TIP3    H278846   5.158   5.729   0.939  0.2976  2.9708 -0.5988
19119TIP3   OH278847   5.248   0.733   5.850 -0.2347  0.1968  0.5176
19119TIP3    H178848   5.303   0.671   5.899  0.9017  0.6021 -0.1914
19119TIP3    H278849   5.214   0.681   5.777 -1.5443 -0.2826  1.4261
19120TIP3   OH278850   5.645   5.995  14.125  0.2671  0.2197 -0.6706
19120TIP3    H178851   5.644   6.075  14.177 -1.2911  1.0736 -1.9465
19120TIP3    H278852   5.738   5.976  14.113  0.6627  1.1559  0.6441
19121TIP3   OH278853   0.051   6.677   3.510 -0.1380 -0.4261  0.2027
19121TIP3    H178854   0.093   6.591   3.513 -1.0244 -0.9402 -1.3952
19121TIP3    H278855  -0.020   6.672   3.574 -1.6168 -1.6973 -1.4708
19122TIP3   OH278856   0.028   1.368  16.914  0.6486 -0.0054 -0.4760
19122TIP3    H178857   0.022   1.442  16.974  0.7790 -0.1932 -0.2273
19122TIP3    H278858   0.120   1.365  16.889  0.9210 -0.8734  0.5403
19123TIP3   OH278859   5.919   5.733  10.393 -0.0065  0.2229 -0.4804
19123TIP3    H178860   5.955   5.809  10.438  0.1476 -0.3999  0.4759
19123TIP3    H278861   5.869   5.687  10.460  0.7117 -1.0475 -0.7813
19124TIP3   OH278862   3.551   5.186  13.231  0.1678  0.3583  0.1545
19124TIP3    H178863   3.591   5.259  13.279  0.5864 -0.2631  0.7819
19124TIP3    H278864   3.591   5.189  13.145  1.2508  0.0248  0.6316
19125TIP3   OH278865   0.224   3.399   0.445  0.0493 -0.1955 -0.7622
19125TIP3    H178866   0.252   3.411   0.536  1.8347 -1.8401 -1.0493
19125TIP3    H278867   0.258   3.476   0.399 -0.2846  0.3112 -0.1783
19126TIP3   OH278868   4.697   1.850  15.446 -0.0305 -0.1837  0.0301
19126TIP3    H178869   4.762   1.790  15.483 -1.2203 -2.0325 -0.7036
19126TIP3    H278870   4.698   1.926  15.504  1.3317 -1.0358  1.1897
19127TIP3   OH278871   1.978   1.458  16.378  0.2363 -0.1900 -0.3079
19127TIP3    H178872   1.920   1.427  16.309 -1.4009 -2.5650  1.9327
19127TIP3    H278873   1.926   1.451  16.458  2.4676  1.0820  1.3671
19128TIP3   OH278874   0.187   3.789   4.436  0.5932 -0.3576 -0.6791
19128TIP3    H178875   0.242   3.866   4.452  1.6005 -1.3311  0.7543
19128TIP3    H278876   0.239   3.734   4.378  0.8282 -0.9426  0.0766
19129TIP3   OH278877   1.261   1.599   1.400  0.2816  0.4279 -0.3910
19129TIP3    H178878   1.224   1.556   1.476  1.0699 -0.1158 -0.3034
19129TIP3    H278879   1.265   1.692   1.424  2.9048 -0.0119  1.2889
19130TIP3   OH278880   6.412   4.271  16.518 -0.1962  0.0883 -0.0241
19130TIP3    H178881   6.458   4.194  16.482  0.4897 -0.3541  1.6894
19130TIP3    H278882   6.475   4.310  16.579  0.1608  3.1133 -2.1105
19131TIP3   OH278883   5.701   0.848   5.938  0.0450 -0.5019  0.4085
19131TIP3    H178884   5.702   0.777   6.002  0.0902 -0.0555  0.9151
19131TIP3    H278885   5.787   0.843   5.896  0.5715  0.0673  1.3734
19132TIP3   OH278886   4.281   6.539  13.503 -0.3640  0.0172  0.0243
19132TIP3    H178887   4.291   6.514  13.411 -0.0118  0.2990 -0.0146
19132TIP3    H278888   4.365   6.578  13.527 -0.6652  0.5130  0.2882
19133TIP3   OH278889   4.698   1.171   3.031 -0.2930  0.1363 -0.4320
19133TIP3    H178890   4.779   1.124   3.049 -0.4327  0.7746  2.2290
19133TIP3    H278891   4.724   1.262   3.022 -0.8184  0.6394  2.3159
19134TIP3   OH278892   0.629   3.288  17.057  0.0587  0.2021 -0.0895
19134TIP3    H178893   0.617   3.381  17.037  1.9187  0.6935  0.8315
19134TIP3    H278894   0.629   3.284  17.152 -1.3893 -0.9955 -0.0972
19135TIP3   OH278895   3.684   5.075  15.727  0.2384 -0.2712 -0.3565
19135TIP3    H178896   3.659   5.047  15.639 -0.6685 -0.3689 -0.0792
19135TIP3    H278897   3.647   5.008  15.785  2.1886 -1.0798  0.0170
19136TIP3   OH278898   2.184   2.800   1.668 -0.7209  0.2152  0.0329
19136TIP3    H178899   2.113   2.792   1.605 -0.5299 -1.2074 -0.0170
19136TIP3    H278900   2.245   2.730   1.646  0.8394  1.5515 -0.0668
19137TIP3   OH278901   5.589   6.396   5.449  0.3551 -0.5401  0.7292
19137TIP3    H178902   5.608   6.379   5.541 -0.6579  0.8791  1.2269
19137TIP3    H278903   5.501   6.362   5.435 -0.1957  0.8272  0.7638
19138TIP3   OH278904   0.778   4.336  15.251 -0.0406  0.2346  0.0074
19138TIP3    H178905   0.744   4.359  15.165  2.6537 -0.3249 -1.3212
19138TIP3    H278906   0.701   4.316  15.303 -2.0160  3.7584 -1.2322
19139TIP3   OH278907   5.006   6.295   3.135  0.4776  0.0586  0.3598
19139TIP3    H178908   4.928   6.266   3.088  0.7039 -0.3003  0.1955
19139TIP3    H278909   4.982   6.290   3.227  1.0652 -2.4346  0.4679
19140TIP3   OH278910   4.224   2.279   0.455  0.1476  0.0416  0.0654
19140TIP3    H178911   4.237   2.351   0.392 -1.0510  0.6271  0.4567
19140TIP3    H278912   4.203   2.203   0.400  0.0962  0.3088 -0.2905
19141TIP3   OH278913   0.588   6.164   3.459 -0.1525 -0.4646  0.1541
19141TIP3    H178914   0.650   6.126   3.521  0.8820  1.6452  0.5152
19141TIP3    H278915   0.637   6.171   3.378 -0.2386  0.3006  0.1643
19142TIP3   OH278916   0.193   4.137  17.164  0.2539  0.0282  0.0729
19142TIP3    H178917   0.216   4.146  17.256  1.0836  1.1732 -0.2166
19142TIP3    H278918   0.109   4.183  17.156  1.7655  2.9779 -0.3109
19143TIP3   OH278919   6.279   6.453  14.954  0.0039 -0.4108 -0.3485
19143TIP3    H178920   6.318   6.449  14.866  0.8161 -0.6774  0.0160
19143TIP3    H278921   6.325   6.525  14.997 -2.3764  1.6635 -1.0460
19144TIP3   OH278922   5.541   5.649  13.798 -0.0571 -0.0157  0.0851
19144TIP3    H178923   5.609   5.592  13.833 -1.2219 -0.4595  1.7616
19144TIP3    H278924   5.463   5.594  13.794 -1.0821  1.2605  1.2725
19145TIP3   OH278925   0.984   6.792  14.643 -0.2177 -0.1090 -0.2358
19145TIP3    H178926   1.042   6.795  14.720 -4.0280 -2.6617  3.1727
19145TIP3    H278927   0.997   6.705  14.607 -1.6715 -0.6664  0.4973
19146TIP3   OH278928   0.527   0.194  14.237  0.4340 -0.1062  0.3417
19146TIP3    H178929   0.487   0.205  14.151  1.2198 -0.4691 -0.0749
19146TIP3    H278930   0.488   0.113  14.270 -0.7367  0.6210  0.8353
19147TIP3   OH278931   4.662   5.224  14.532  0.0564 -0.1531  0.9574
19147TIP3    H178932   4.651   5.144  14.481 -0.5159 -0.4660  1.5647
19147TIP3    H278933   4.750   5.217  14.569 -0.2003 -0.7603  1.4560
19148TIP3   OH278934   4.159   3.481  12.069  1.2889  1.2828  0.0045
19148TIP3    H178935   4.079   3.527  12.043  0.4069 -0.3191 -0.1713
19148TIP3    H278936   4.139   3.443  12.154  1.5697  0.1783 -0.4110
19149TIP3   OH278937   5.889   0.913   5.345  0.3939  0.2267 -0.4847
19149TIP3    H178938   5.929   0.988   5.300  1.2002 -0.5345 -1.0814
19149TIP3    H278939   5.796   0.923   5.327  0.6418  0.2234 -1.9488
19150TIP3   OH278940   5.147   3.251   2.576 -0.7561 -0.0513 -0.5972
19150TIP3    H178941   5.193   3.300   2.644  1.7573 -2.2033 -0.5712
19150TIP3    H278942   5.078   3.205   2.623  1.0111 -1.6012  0.6332
19151TIP3   OH278943   0.953   4.470   2.315  0.1058  0.1480  0.7896
19151TIP3    H178944   1.020   4.535   2.293  0.3827 -0.6615 -0.9228
19151TIP3    H278945   0.880   4.522   2.349  0.2844  1.3761 -0.5956
19152TIP3   OH278946   6.774   4.861  11.551 -0.5917  0.1750 -0.1748
19152TIP3    H178947   6.848   4.899  11.600  0.6231 -0.4646 -1.4530
19152TIP3    H278948   6.799   4.870  11.459 -0.4978 -3.0751 -0.6018
19153TIP3   OH278949   1.847   1.000  12.200  0.4685 -0.2152 -0.3169
19153TIP3    H178950   1.874   0.939  12.269 -0.4125  0.2959  0.5095
19153TIP3    H278951   1.762   1.033  12.230  1.5717  2.5240 -0.0191
19154TIP3   OH278952   1.635   6.032   3.339  0.0880 -0.4574  1.0315
19154TIP3    H178953   1.593   5.947   3.355  0.8667 -0.8853  0.8688
19154TIP3    H278954   1.563   6.091   3.319 -0.4271 -1.2281  0.5404
19155TIP3   OH278955   1.080   4.085  15.040 -0.1255 -0.5218 -0.2174
19155TIP3    H178956   1.093   3.993  15.062  0.7666 -0.1723  0.8019
19155TIP3    H278957   0.985   4.096  15.037 -0.2429 -1.4757 -0.3976
19156TIP3   OH278958   4.361   5.339  11.570  0.0867 -0.0502 -0.0703
19156TIP3    H178959   4.452   5.317  11.550  0.2961  2.0511 -1.7806
19156TIP3    H278960   4.312   5.259  11.550  1.3672 -0.7331 -0.6032
19157TIP3   OH278961   4.955   2.788   5.191 -0.2339  0.0563 -0.1265
19157TIP3    H178962   4.872   2.834   5.179 -0.7596 -1.3713 -2.4578
19157TIP3    H278963   5.016   2.834   5.134 -0.1959 -0.7077 -0.7115
19158TIP3   OH278964   0.183   0.571  15.269 -0.1765  0.6598  0.0680
19158TIP3    H178965   0.219   0.483  15.258 -1.4657  0.3439 -2.1143
19158TIP3    H278966   0.247   0.615  15.325  1.0040 -1.3519  0.4236
19159TIP3   OH278967   0.561   4.538   5.120  0.7826  0.2103  0.2794
19159TIP3    H178968   0.535   4.460   5.072  2.1565  0.8062 -1.5497
19159TIP3    H278969   0.479   4.586   5.134  0.2745 -0.2063 -1.1237
19160TIP3   OH278970   3.286   0.332  13.340 -0.5985  0.4762 -0.5219
19160TIP3    H178971   3.330   0.254  13.375 -1.9795  0.0262  0.2691
19160TIP3    H278972   3.337   0.406  13.375 -0.3142 -0.0352  0.1636
19161TIP3   OH278973   0.650   5.322  16.935 -0.2298  0.1689 -0.2072
19161TIP3    H178974   0.583   5.255  16.947  0.9445 -1.4022 -1.8583
19161TIP3    H278975   0.611   5.385  16.874 -0.5762 -0.1886 -0.3536
19162TIP3   OH278976   3.876   5.266  15.678  0.0646 -0.3782  0.2605
19162TIP3    H178977   3.844   5.295  15.593 -0.2718 -0.2727  0.4236
19162TIP3    H278978   3.828   5.185  15.696  1.5115 -1.4681 -0.5224
19163TIP3   OH278979   6.440   1.484   1.170  0.2804  0.3004 -0.6029
19163TIP3    H178980   6.392   1.431   1.107 -0.2025  0.8892 -0.7379
19163TIP3    H278981   6.382   1.491   1.246  0.7173 -0.1190 -0.2221
19164TIP3   OH278982   3.012   2.272  12.492  0.5522 -0.0036 -0.3481
19164TIP3    H178983   3.039   2.359  12.522  0.4689 -0.1688  0.2144
19164TIP3    H278984   3.003   2.281  12.397 -1.0201  1.0411 -0.1396
19165TIP3   OH278985   4.887   2.292  11.627  0.2028  0.2131  0.0423
19165TIP3    H178986   4.963   2.300  11.568  0.7570 -1.0171  0.5441
19165TIP3    H278987   4.925   2.291  11.715 -0.1253 -2.5829  0.2389
19166TIP3   OH278988   2.946   2.460  13.372 -0.1639 -0.6313  0.5384
19166TIP3    H178989   2.881   2.443  13.303 -0.0789  0.1074  0.2733
19166TIP3    H278990   2.898   2.445  13.453  0.2389 -3.4256  0.3475
19167TIP3   OH278991   5.922   5.126   1.243  0.3752  0.6256  0.0850
19167TIP3    H178992   5.833   5.093   1.237  0.0108  1.3715  1.0415
19167TIP3    H278993   5.933   5.180   1.165  0.1736  0.1173 -0.2997
19168TIP3   OH278994   5.721   6.432  14.975  0.0778 -0.2132 -0.1303
19168TIP3    H178995   5.810   6.461  14.997 -0.0129 -0.2144  0.2409
19168TIP3    H278996   5.687   6.501  14.918  0.7176 -0.7482 -1.2049
19169TIP3   OH278997   4.650   2.171  15.346 -0.4219 -0.5324 -0.5617
19169TIP3    H178998   4.653   2.232  15.271  0.9143 -2.1711 -1.9110
19169TIP3    H278999   4.560   2.139  15.346 -0.5273 -0.2596 -1.2471
19170TIP3   OH279000   0.204   6.397  13.248 -0.2291 -0.1960 -0.0749
19170TIP3    H179001   0.177   6.367  13.161 -1.2817  2.2360 -0.6833
19170TIP3    H279002   0.187   6.323  13.305 -0.4624 -1.5278 -1.7890
19171TIP3   OH279003   3.848   5.190   3.398 -0.4519 -0.0491  0.0812
19171TIP3    H179004   3.765   5.153   3.425 -0.1610  0.4001  1.6730
19171TIP3    H279005   3.827   5.243   3.321 -1.9293  1.3006  1.3631
19172TIP3   OH279006   0.560   1.630  16.786 -0.0854  0.1808  0.5364
19172TIP3    H179007   0.544   1.537  16.798  0.1411  0.1810  0.8507
19172TIP3    H279008   0.568   1.665  16.875 -0.1832  0.4999  0.4224
19173TIP3   OH279009   0.383   4.675   3.419  0.4149  0.4091  0.0146
19173TIP3    H179010   0.387   4.581   3.437 -0.4372  0.0630 -1.4839
19173TIP3    H279011   0.475   4.702   3.415  0.6703 -0.0366  1.8482
19174TIP3   OH279012   4.963   3.823  11.346 -0.1683  0.5136 -0.5382
19174TIP3    H179013   5.027   3.857  11.408 -0.1074  1.3270 -1.0415
19174TIP3    H279014   4.988   3.860  11.262 -0.3167 -0.4887 -1.0395
19175TIP3   OH279015   6.439   6.555  16.734 -0.4487  0.0515  0.0038
19175TIP3    H179016   6.463   6.500  16.809  0.2553  1.0392  0.5116
19175TIP3    H279017   6.364   6.509  16.695  0.1954 -1.3329  0.3377
19176TIP3   OH279018   3.287   2.237   0.907 -0.1859  0.1375  0.2428
19176TIP3    H179019   3.201   2.232   0.948  0.1865  1.1447  1.1749
19176TIP3    H279020   3.344   2.187   0.965 -0.1920 -0.8591 -0.5744
19177TIP3   OH279021   3.449   1.754  14.676  0.3372 -0.1654 -0.0668
19177TIP3    H179022   3.399   1.672  14.676  0.8767 -0.4937  0.0110
19177TIP3    H279023   3.506   1.748  14.752  1.4866 -0.3993 -0.9158
19178TIP3   OH279024   5.212   4.689  10.825 -0.3594  0.2382  0.2653
19178TIP3    H179025   5.276   4.639  10.877  0.0555 -0.3216 -0.7528
19178TIP3    H279026   5.239   4.780  10.836 -0.1633  0.1157  0.8717
19179TIP3   OH279027   3.026   1.770  11.957 -0.3795 -0.2182 -0.3843
19179TIP3    H179028   3.062   1.842  12.007 -0.5232 -1.0906  1.0314
19179TIP3    H279029   3.091   1.752  11.889 -0.3117  1.1656 -0.7024
19180TIP3   OH279030   1.872   0.442   3.293 -0.4262  0.2757 -0.8688
19180TIP3    H179031   1.952   0.482   3.327 -0.6635 -0.0049  0.0239
19180TIP3    H279032   1.805   0.510   3.303 -0.8643 -0.3558  0.7890
19181TIP3   OH279033   4.726   5.104  12.499  0.3036  0.1992  0.1604
19181TIP3    H179034   4.803   5.140  12.455  0.7803  0.4989  1.1932
19181TIP3    H279035   4.687   5.180  12.543  0.2657 -0.2141  0.8495
19182TIP3   OH279036   1.157   3.300  17.226  0.1427  0.3047 -0.0758
19182TIP3    H179037   1.080   3.277  17.174 -1.2892 -1.7065  2.6784
19182TIP3    H279038   1.231   3.261  17.179 -0.9079 -0.4911 -1.1262
19183TIP3   OH279039   4.598   6.534  15.207  0.2477 -0.3000 -0.4401
19183TIP3    H179040   4.662   6.565  15.272 -0.2608  0.3119 -0.2155
19183TIP3    H279041   4.628   6.446  15.184  0.7423 -0.3183  0.2290
19184TIP3   OH279042   5.228   3.955  16.508  0.2599  0.1109 -0.2459
19184TIP3    H179043   5.308   3.999  16.537 -0.3742  0.3500  1.2401
19184TIP3    H279044   5.221   3.878  16.565  0.3556 -0.8957 -1.5572
19185TIP3   OH279045   3.111   4.075   2.982  1.2322 -0.3465  0.4733
19185TIP3    H179046   3.153   4.073   2.895  0.4504  1.2375  0.0228
19185TIP3    H279047   3.019   4.094   2.964  1.3651  1.7824  1.6984
19186TIP3   OH279048   3.083   3.058   4.101 -0.2485 -0.3560 -0.0847
19186TIP3    H179049   3.150   3.011   4.052  0.1368  0.1547 -0.0600
19186TIP3    H279050   3.042   2.991   4.156  1.7726 -0.3037  1.6084
19187TIP3   OH279051   1.216   0.783  10.601  0.2007  0.8179 -0.0191
19187TIP3    H179052   1.167   0.846  10.654 -0.9051  0.1212 -0.1824
19187TIP3    H279053   1.216   0.822  10.513 -1.2296  0.2170 -0.3117
19188TIP3   OH279054   2.397   5.173  11.663 -0.7995 -0.3250  0.3316
19188TIP3    H179055   2.377   5.266  11.662 -0.2338 -0.2010 -0.2546
19188TIP3    H279056   2.429   5.155  11.574 -1.2555 -1.1534  0.3198
19189TIP3   OH279057   4.416   4.922  15.697  0.3241 -0.2990 -0.3812
19189TIP3    H179058   4.475   4.959  15.631  1.4489 -1.4721 -0.0757
19189TIP3    H279059   4.331   4.917  15.653  0.8981 -0.4020 -1.5116
19190TIP3   OH279060   6.344   3.593   3.979 -0.1781  0.8635 -0.1548
19190TIP3    H179061   6.411   3.654   3.947  2.1919 -0.8146  1.2811
19190TIP3    H279062   6.277   3.649   4.018  2.9464  2.7061  3.1609
19191TIP3   OH279063   0.450   5.066  16.776  0.2698 -0.0370 -0.1348
19191TIP3    H179064   0.423   5.123  16.848 -2.0961 -0.6909 -0.4446
19191TIP3    H279065   0.481   5.126  16.708 -2.3094  0.9627 -0.5095
19192TIP3   OH279066   5.119   3.213  16.633 -0.2094 -0.1342 -0.0071
19192TIP3    H179067   5.107   3.270  16.557 -2.0029 -1.1637 -0.5526
19192TIP3    H279068   5.035   3.216  16.679 -0.4802 -2.4717 -0.2032
19193TIP3   OH279069   0.540   2.747  15.496 -0.5523  0.3888 -0.1192
19193TIP3    H179070   0.577   2.668  15.534 -0.4701  0.0891 -0.8188
19193TIP3    H279071   0.449   2.724  15.477 -0.2903  0.1651 -1.1528
19194TIP3   OH279072   1.227   6.434  15.870  0.0710  0.4279  0.0134
19194TIP3    H179073   1.250   6.430  15.777  2.4957  0.4309  0.5608
19194TIP3    H279074   1.257   6.520  15.899  1.8593 -0.5643  1.3440
19195TIP3   OH279075   0.237   0.976   0.716  0.2600 -0.1331  0.1284
19195TIP3    H179076   0.222   0.964   0.810  0.2967 -0.2567  0.1176
19195TIP3    H279077   0.174   0.918   0.674 -0.7632  0.9818  0.0576
19196TIP3   OH279078   6.755   1.855   1.485  0.0106  0.1317 -0.2565
19196TIP3    H179079   6.834   1.811   1.515  0.0101 -0.0737 -0.5525
19196TIP3    H279080   6.684   1.793   1.503  0.2612 -1.0365 -2.8109
19197TIP3   OH279081   3.464   0.217   3.821  0.1117 -0.1369  1.1959
19197TIP3    H179082   3.454   0.250   3.911 -1.6772  0.7483  0.7072
19197TIP3    H279083   3.489   0.294   3.770 -0.7473 -0.2159  0.6314
19198TIP3   OH279084   3.072   2.659  11.351  0.0484  0.1617  0.5957
19198TIP3    H179085   3.003   2.649  11.416 -0.9639  0.7117 -0.3537
19198TIP3    H279086   3.087   2.753  11.346 -0.8227  0.2583 -0.8618
19199TIP3   OH279087   5.580   5.223   4.910 -0.3114  0.1908 -0.3595
19199TIP3    H179088   5.536   5.150   4.955  0.8731  0.1076  0.7175
19199TIP3    H279089   5.515   5.254   4.848 -1.0884 -1.3697 -0.3999
19200TIP3   OH279090   3.067   2.241   1.057  0.3042 -0.0094  0.2648
19200TIP3    H179091   2.986   2.200   1.024  0.3893 -0.6707  0.8690
19200TIP3    H279092   3.062   2.230   1.152  0.1842  1.6752  0.4704
19201TIP3   OH279093   4.429   1.602   4.950 -0.4141  0.0803 -0.0538
19201TIP3    H179094   4.385   1.639   5.027 -1.7887  2.0003 -1.6528
19201TIP3    H279095   4.521   1.597   4.975 -1.0292 -1.1708  2.3454
19202TIP3   OH279096   2.145   0.991  15.237 -0.4773 -0.0848  0.1314
19202TIP3    H179097   2.209   1.028  15.176 -1.6892  1.4273 -0.2969
19202TIP3    H279098   2.188   0.995  15.322  0.0630  0.8003 -0.1664
19203TIP3   OH279099   1.395   2.488   5.189  0.3337 -0.3705 -1.1434
19203TIP3    H179100   1.336   2.521   5.121  0.6008  2.3141 -0.2205
19203TIP3    H279101   1.477   2.535   5.172  0.2727  0.7100  1.2371
19204TIP3   OH279102   1.353   5.133   1.870  0.0446  0.2334 -0.3963
19204TIP3    H179103   1.367   5.136   1.965  0.8722  0.3937 -0.5203
19204TIP3    H279104   1.395   5.052   1.842  0.2508  0.4401 -0.6943
19205TIP3   OH279105   5.953   5.873   2.228 -0.2396  0.9993  0.4219
19205TIP3    H179106   5.883   5.818   2.193  1.9020 -0.2902 -2.1487
19205TIP3    H279107   6.013   5.812   2.271  1.2195  1.4893 -0.8177
19206TIP3   OH279108   5.341   1.222  11.004  0.1022 -0.0688  0.2106
19206TIP3    H179109   5.419   1.268  10.975 -0.5384 -0.1390 -1.7076
19206TIP3    H279110   5.375   1.149  11.057  1.3544 -0.2008 -0.7264
19207TIP3   OH279111   4.465   2.381   2.027  0.0524  0.3808  0.0551
19207TIP3    H179112   4.485   2.440   1.954 -1.2459  1.5790  0.6161
19207TIP3    H279113   4.373   2.359   2.016  0.2227 -0.5978  0.5242
19208TIP3   OH279114   2.073   1.729   4.412 -0.6869  1.2310 -0.0274
19208TIP3    H179115   2.115   1.765   4.490 -2.3185  0.6248  1.1814
19208TIP3    H279116   2.046   1.641   4.437 -2.6024  1.5624 -0.7480
19209TIP3   OH279117   6.698   2.976  12.904  0.0465  0.1660 -0.1065
19209TIP3    H179118   6.649   2.961  12.823 -0.5183  0.5400  0.1620
19209TIP3    H279119   6.789   2.954  12.882  0.1755  1.7570 -1.2851
19210TIP3   OH279120   4.470   2.978  12.223 -0.3797  0.0365 -0.1819
19210TIP3    H179121   4.560   2.989  12.254  0.0248 -1.5150 -0.7323
19210TIP3    H279122   4.452   3.058  12.174  0.8509  0.1902 -0.4178
19211TIP3   OH279123   0.128   2.625   6.473  0.1396 -0.2858 -0.4081
19211TIP3    H179124   0.107   2.684   6.546 -0.1971 -1.0700  0.1407
19211TIP3    H279125   0.208   2.661   6.436 -0.3581  0.8429 -0.4368
19212TIP3   OH279126   3.407   3.230  14.922  0.4876 -0.4148 -0.4683
19212TIP3    H179127   3.494   3.266  14.942  0.3706  1.0143 -2.2122
19212TIP3    H279128   3.352   3.258  14.995  0.6081  2.4125 -1.3106
19213TIP3   OH279129   4.667   0.519   0.277 -0.6040  0.7804  0.0450
19213TIP3    H179130   4.665   0.464   0.199 -0.8578  0.6799  0.1224
19213TIP3    H279131   4.578   0.515   0.313 -0.1420 -0.3222  1.1333
19214TIP3   OH279132   1.047   2.715   3.399  0.5140 -0.4239 -0.2949
19214TIP3    H179133   1.035   2.789   3.458  1.0553 -0.4223 -0.1829
19214TIP3    H279134   1.141   2.714   3.380  0.2079  0.3100 -2.1099
19215TIP3   OH279135   0.330   1.804  13.242  0.7430 -0.3366  0.6795
19215TIP3    H179136   0.399   1.852  13.289  0.4666  0.3455  0.4060
19215TIP3    H279137   0.370   1.779  13.159  0.8565 -0.4885  0.7801
19216TIP3   OH279138   6.754   4.308  11.599 -0.2336  0.0627  0.3978
19216TIP3    H179139   6.785   4.303  11.509 -0.2470  1.6486  0.2908
19216TIP3    H279140   6.709   4.392  11.605 -1.8153 -0.7919  1.3978
19217TIP3   OH279141   2.917   5.408  11.065 -0.3388  0.1576 -0.3240
19217TIP3    H179142   2.846   5.414  11.129 -0.2852 -0.0299 -0.2476
19217TIP3    H279143   2.898   5.329  11.014  1.8428 -2.1986  2.1820
19218TIP3   OH279144   2.559   3.872  11.671 -0.6268  0.2165 -0.1308
19218TIP3    H179145   2.516   3.952  11.643  2.0958  2.2479  1.0301
19218TIP3    H279146   2.636   3.865  11.615 -1.0453 -1.9090 -0.5274
19219TIP3   OH279147   5.511   3.292  15.679 -0.0748  0.0637 -0.0362
19219TIP3    H179148   5.599   3.300  15.642 -0.6880  1.9794 -1.2421
19219TIP3    H279149   5.504   3.367  15.739 -0.0414 -1.4935  2.0064
19220TIP3   OH279150   0.393   2.828   1.537  0.1649  0.6041 -0.1447
19220TIP3    H179151   0.416   2.896   1.474  0.1543  0.8492  0.1155
19220TIP3    H279152   0.302   2.806   1.516  0.3296  0.3001 -0.5634
19221TIP3   OH279153   0.456   3.192   5.657 -0.4285  0.4220 -0.3975
19221TIP3    H179154   0.479   3.230   5.572  1.5572  1.3576  0.5046
19221TIP3    H279155   0.429   3.266   5.711 -0.4755  0.0031  0.1658
19222TIP3   OH279156   6.030   1.300  11.151  0.4041  0.0708  0.1388
19222TIP3    H179157   6.092   1.371  11.133  0.2145 -0.2316 -2.0019
19222TIP3    H279158   5.947   1.345  11.171  0.6034  0.4533  0.1216
19223TIP3   OH279159   6.227   5.856   3.828 -0.1283 -0.0096 -0.0390
19223TIP3    H179160   6.279   5.790   3.874 -0.2275 -0.5030 -0.6081
19223TIP3    H279161   6.266   5.939   3.853 -0.4361 -0.2291  1.2416
19224TIP3   OH279162   2.151   2.402  17.082 -0.2167 -0.3458 -0.6308
19224TIP3    H179163   2.209   2.326  17.076 -0.1163 -0.3149 -0.0476
19224TIP3    H279164   2.064   2.365  17.093 -0.4333 -0.4134 -2.2360
19225TIP3   OH279165   0.960   0.578  15.113  0.2009 -0.0833 -0.7947
19225TIP3    H179166   0.980   0.547  15.201  0.4441 -0.1394 -0.8668
19225TIP3    H279167   1.005   0.516  15.055  2.1960  1.3843 -0.9271
19226TIP3   OH279168   1.837   1.903   3.418 -0.0203 -0.0508  0.1337
19226TIP3    H179169   1.789   1.856   3.487  1.1549 -1.1503  0.2454
19226TIP3    H279170   1.895   1.963   3.465 -1.3557  1.4090 -0.0057
19227TIP3   OH279171   2.175   6.317  16.941 -0.0627  0.4749 -0.5610
19227TIP3    H179172   2.139   6.290  17.025 -0.1193  0.8375 -0.4708
19227TIP3    H279173   2.209   6.235  16.903 -0.4294  0.2356 -0.3821
19228TIP3   OH279174   1.599   0.454   3.863  0.0978  0.1979  0.0299
19228TIP3    H179175   1.635   0.540   3.841  0.1996  0.2956  0.5551
19228TIP3    H279176   1.643   0.431   3.945 -0.9888  0.3007  0.6587
19229TIP3   OH279177   6.220   0.620  11.753 -0.1670 -0.0031  0.1711
19229TIP3    H179178   6.299   0.668  11.780  0.0386 -0.1285 -0.1991
19229TIP3    H279179   6.208   0.644  11.661  1.0006 -2.0382 -0.6034
19230TIP3   OH279180   1.020   4.383  15.919 -0.0518  0.4929  0.2583
19230TIP3    H179181   0.982   4.452  15.864 -0.1966 -2.1065 -3.1737
19230TIP3    H279182   1.113   4.383  15.898  0.2057  0.4755  1.3064
19231TIP3   OH279183   3.809   2.589   2.448  0.4332 -0.0566 -0.0041
19231TIP3    H179184   3.766   2.667   2.412 -0.3708 -0.1535  0.7092
19231TIP3    H279185   3.851   2.547   2.373  0.9955  1.1362 -0.3778
19232TIP3   OH279186   1.997   4.823   5.682  0.0714  0.2454  0.0622
19232TIP3    H179187   2.034   4.735   5.694  1.5194  0.9245  0.6941
19232TIP3    H279188   1.916   4.807   5.632  1.1711 -1.3016 -1.3743
19233TIP3   OH279189   5.377   4.876  16.149 -0.0893 -0.0912  0.2905
19233TIP3    H179190   5.342   4.961  16.122 -0.2006  0.1066  1.0579
19233TIP3    H279191   5.380   4.825  16.068  0.2763  0.7454 -0.2337
19234TIP3   OH279192   6.764   0.509   1.538  0.0602 -0.2061  0.1523
19234TIP3    H179193   6.781   0.602   1.553 -0.8006  0.3148 -1.7377
19234TIP3    H279194   6.778   0.497   1.444 -1.4615 -1.6064  0.0607
19235TIP3   OH279195   5.865   6.200  15.765 -0.5758  0.1781  0.0413
19235TIP3    H179196   5.936   6.222  15.825 -1.1387  0.5475  0.5795
19235TIP3    H279197   5.785   6.210  15.817 -1.0003 -0.7406 -0.4039
19236TIP3   OH279198   0.654   4.451  15.022 -0.3845  0.0446 -0.2566
19236TIP3    H179199   0.579   4.510  15.035  0.7408  1.1111  1.9769
19236TIP3    H279200   0.674   4.459  14.929 -2.2873  0.6538 -0.6664
19237TIP3   OH279201   2.415   2.969   5.036 -0.1560  0.4390 -0.3246
19237TIP3    H179202   2.406   3.028   5.111 -0.5551 -0.0051 -0.0156
19237TIP3    H279203   2.362   3.009   4.967  0.5344  1.0588 -0.5099
19238TIP3   OH279204   0.442   4.644   5.503 -0.2538  0.4985  0.9872
19238TIP3    H179205   0.534   4.616   5.504 -0.7088 -1.3323 -1.1582
19238TIP3    H279206   0.421   4.655   5.411 -2.2690  0.6320  1.4097
19239TIP3   OH279207   6.631   3.912  14.392  0.2057 -0.2775 -0.1853
19239TIP3    H179208   6.717   3.909  14.349  0.7881 -0.1063  0.9332
19239TIP3    H279209   6.585   3.835  14.359  0.8298 -0.4419 -0.7007
19240TIP3   OH279210   4.769   3.420   3.137  0.1169  0.6129 -0.5976
19240TIP3    H179211   4.729   3.401   3.222  0.4687 -0.2900 -0.6181
19240TIP3    H279212   4.695   3.426   3.076 -0.0128 -1.8196 -0.7828
19241TIP3   OH279213   1.876   4.603  12.546 -0.3549  0.3247 -0.0905
19241TIP3    H179214   1.828   4.660  12.605 -0.1068  0.4585 -0.0163
19241TIP3    H279215   1.843   4.625  12.459 -0.9051 -0.0527  0.0189
19242TIP3   OH279216   4.504   3.682   1.678  0.6381  0.1424  0.1921
19242TIP3    H179217   4.541   3.760   1.721  0.1161  0.5403 -0.0662
19242TIP3    H279218   4.497   3.707   1.586 -1.7856  0.7096  0.4619
19243TIP3   OH279219   4.091   6.146   1.130  0.2092  0.1645 -0.5505
19243TIP3    H179220   4.184   6.129   1.145  0.2536 -0.1319 -1.1312
19243TIP3    H279221   4.065   6.082   1.063 -0.3712  0.3532 -0.5164
19244TIP3   OH279222   3.316   4.292   4.079  0.1255  0.1367 -0.0041
19244TIP3    H179223   3.278   4.204   4.083  0.1225  0.0749 -1.1675
19244TIP3    H279224   3.252   4.343   4.031  1.2911  0.1333 -1.6359
19245TIP3   OH279225   4.540   2.624   4.290 -0.4362  0.2498  0.4417
19245TIP3    H179226   4.460   2.597   4.245  0.1293  0.4221 -0.7181
19245TIP3    H279227   4.607   2.566   4.255  0.4879  2.0078 -0.8445
19246TIP3   OH279228   6.414   2.923   5.671 -0.2179 -0.0175  0.2186
19246TIP3    H179229   6.371   2.887   5.593 -1.5415  0.1655  0.8423
19246TIP3    H279230   6.351   2.986   5.707  1.1260  1.2678  0.4195
19247TIP3   OH279231   2.306   1.990  14.813 -0.2268  0.8413  0.6247
19247TIP3    H179232   2.291   2.049  14.739 -1.9088  0.3943  0.5804
19247TIP3    H279233   2.349   2.045  14.879 -0.6000  1.7840  0.1006
19248TIP3   OH279234   4.563   4.476  13.188  0.4943  0.2545  0.1597
19248TIP3    H179235   4.580   4.440  13.101 -0.3774 -1.1550  0.5450
19248TIP3    H279236   4.630   4.437  13.244 -0.2726 -0.5772  0.5225
19249TIP3   OH279237   0.977   6.740  13.021  0.5030  0.3361  0.3059
19249TIP3    H179238   0.972   6.746  13.116  1.9928  0.2220  0.4277
19249TIP3    H279239   0.918   6.669  12.997 -0.4333  0.8484  1.0709
19250TIP3   OH279240   0.578   5.504  16.146  0.7064  0.1602  0.6869
19250TIP3    H179241   0.658   5.465  16.112  0.4646 -0.5533  0.9293
19250TIP3    H279242   0.557   5.454  16.224 -0.8364 -0.7033 -0.2299
19251TIP3   OH279243   5.660   3.382  13.075 -0.3721 -0.2295  0.0123
19251TIP3    H179244   5.579   3.408  13.120 -0.8167 -1.0202 -0.3067
19251TIP3    H279245   5.671   3.448  13.007 -0.7718 -0.1363  0.0299
19252TIP3   OH279246   4.293   3.160   5.862  0.3438  0.3528 -0.1769
19252TIP3    H179247   4.223   3.224   5.847 -0.4914 -0.8305 -1.5373
19252TIP3    H279248   4.313   3.126   5.775  3.5548  1.5474 -0.0345
19253TIP3   OH279249   3.271   1.978  14.821  0.0901  0.8449  0.5943
19253TIP3    H179250   3.256   2.026  14.740 -0.4078 -0.5712 -0.1865
19253TIP3    H279251   3.337   1.913  14.798  0.4433  0.8694  1.5138
19254TIP3   OH279252   4.642   2.630   1.622  0.3984  0.2335  0.0582
19254TIP3    H179253   4.605   2.632   1.710  0.2913  0.3179  0.0127
19254TIP3    H279254   4.628   2.540   1.592  0.7906  0.1000  0.2738
19255TIP3   OH279255   5.178   0.074   5.487  0.2420 -0.5467 -0.1378
19255TIP3    H179256   5.233   0.152   5.481  1.1270 -1.1699 -0.3657
19255TIP3    H279257   5.210   0.027   5.564  1.1838 -1.7598 -1.2241
19256TIP3   OH279258   1.110   3.117   4.653  0.3364 -0.0815  0.0031
19256TIP3    H179259   1.128   3.036   4.702 -0.9254 -0.5916 -0.3325
19256TIP3    H279260   1.052   3.089   4.582  1.9941  0.6557 -1.7178
19257TIP3   OH279261   4.038   6.550   2.719  0.1719 -0.3541 -0.0634
19257TIP3    H179262   4.020   6.603   2.797  0.7540  0.3845 -0.4256
19257TIP3    H279263   4.109   6.596   2.675  2.5978 -2.8119  0.9861
19258TIP3   OH279264   5.722   2.328   3.651  0.1109  0.1553  0.0751
19258TIP3    H179265   5.757   2.310   3.737  1.9761 -2.3589 -1.0949
19258TIP3    H279266   5.654   2.262   3.637  0.4068 -0.0082 -0.6800
19259TIP3   OH279267   3.573   4.639  13.528  0.1683 -0.6201 -0.0808
19259TIP3    H179268   3.641   4.688  13.480  0.2057 -1.1120 -0.5382
19259TIP3    H279269   3.610   4.551  13.538 -1.2862 -1.5720 -2.3346
19260TIP3   OH279270   3.400   2.526  15.909 -0.1832  0.0989 -0.4995
19260TIP3    H179271   3.366   2.587  15.975  0.7960 -1.6491  1.7387
19260TIP3    H279272   3.323   2.477  15.880 -0.2539 -1.0613  1.5248
19261TIP3   OH279273   6.053   4.530  11.235 -0.1401 -0.2585  0.1265
19261TIP3    H179274   6.060   4.491  11.322  1.4275 -0.0997  0.1053
19261TIP3    H279275   6.070   4.458  11.175 -0.5619 -0.2264 -0.0377
19262TIP3   OH279276   6.403   1.132  16.845  0.4776  0.1878  0.3427
19262TIP3    H179277   6.473   1.151  16.907  1.1921  1.4268 -0.8169
19262TIP3    H279278   6.447   1.113  16.763 -0.4773 -1.1797  0.0968
19263TIP3   OH279279   1.263   0.158  15.053 -0.2895  0.3501  0.6597
19263TIP3    H179280   1.232   0.067  15.049 -3.4055  1.3163 -0.1739
19263TIP3    H279281   1.328   0.164  14.984 -3.0455 -0.3383 -2.2148
19264TIP3   OH279282   3.176   1.660   5.939 -0.3237 -0.1412 -0.4576
19264TIP3    H179283   3.134   1.650   6.024 -0.6628  0.9399 -0.4861
19264TIP3    H279284   3.188   1.754   5.928  0.6067 -0.3175 -1.1850
19265TIP3   OH279285   2.193   4.416  16.906 -0.0322  0.3461  0.0486
19265TIP3    H179286   2.143   4.480  16.957 -1.2762  0.3788 -1.1688
19265TIP3    H279287   2.197   4.338  16.962 -1.6624  0.2582  0.0851
19266TIP3   OH279288   0.846   6.148  10.869 -0.3304  0.1830  0.2098
19266TIP3    H179289   0.870   6.094  10.944  0.7161  0.8474  0.3768
19266TIP3    H279290   0.827   6.234  10.906  0.1547  0.5048 -0.2787
19267TIP3   OH279291   0.669   2.643  17.231 -0.0502 -0.1360 -0.1689
19267TIP3    H179292   0.619   2.639  17.312  0.0668 -1.0831 -0.1301
19267TIP3    H279293   0.742   2.702  17.250 -0.6745  0.5648  0.0436
19268TIP3   OH279294   5.281   6.532  16.928  0.0486 -0.5151  0.1100
19268TIP3    H179295   5.310   6.543  16.837 -0.3446 -1.0728 -0.0880
19268TIP3    H279296   5.206   6.473  16.922 -0.8811  0.5902  0.6567
19269TIP3   OH279297   1.311   6.104   6.054  0.0287 -0.2192 -0.3165
19269TIP3    H179298   1.270   6.188   6.077  0.9264  0.9942 -2.8224
19269TIP3    H279299   1.255   6.068   5.986  0.0639 -1.3185  0.2208
19270TIP3   OH279300   2.470   3.148   4.231 -0.7236 -0.4879  0.3405
19270TIP3    H179301   2.474   3.055   4.253  0.7513 -1.1139 -2.1621
19270TIP3    H279302   2.436   3.150   4.141 -1.2366  1.4511  0.5356
19271TIP3   OH279303   4.878   6.087  11.936 -0.3005  0.2542 -0.3695
19271TIP3    H179304   4.925   6.003  11.936 -0.6610  0.0483 -0.9484
19271TIP3    H279305   4.822   6.082  12.013 -0.6855 -0.2532 -0.6725
19272TIP3   OH279306   5.144   3.226  14.007  0.4564 -0.1565  0.2143
19272TIP3    H179307   5.164   3.319  14.002 -0.7833  0.1041 -0.5461
19272TIP3    H279308   5.067   3.221  14.064  0.2962 -0.6744 -0.0425
19273TIP3   OH279309   6.028   3.819   3.019  0.5395  0.3022 -0.5480
19273TIP3    H179310   5.952   3.777   3.060 -0.1340  1.2611 -0.7860
19273TIP3    H279311   6.059   3.882   3.084  0.3543  0.8080 -0.9442
19274TIP3   OH279312   0.944   5.504  14.624 -0.4254  0.2688 -0.3079
19274TIP3    H179313   0.920   5.596  14.611 -1.8523  0.2986  1.9601
19274TIP3    H279314   1.037   5.507  14.646 -0.6416  1.2773  0.5345
19275TIP3   OH279315   3.841   4.894   2.415  0.2716 -0.2480  0.2935
19275TIP3    H179316   3.823   4.976   2.461  0.8278  0.0913 -0.0737
19275TIP3    H279317   3.892   4.842   2.478  0.1580 -0.1982  0.4265
19276TIP3   OH279318   0.834   1.536   3.362  0.2281 -0.5418  0.2378
19276TIP3    H179319   0.849   1.568   3.273  0.4898 -0.4236  0.3249
19276TIP3    H279320   0.741   1.511   3.362 -0.6220  2.2688  0.8009
19277TIP3   OH279321   5.068   6.222  11.689  0.7613 -0.5121 -0.9524
19277TIP3    H179322   5.055   6.317  11.685  2.0719 -0.1641  1.2431
19277TIP3    H279323   4.983   6.185  11.667 -0.1934  1.2262 -0.3461
19278TIP3   OH279324   1.114   2.600   2.262 -0.4457 -0.0465  0.2453
19278TIP3    H179325   1.078   2.536   2.324 -0.3388 -0.3652 -0.0211
19278TIP3    H279326   1.090   2.685   2.299 -0.5536 -0.2386  0.6238
19279TIP3   OH279327   0.585   3.913  11.944 -0.5219 -0.0770 -0.1244
19279TIP3    H179328   0.524   3.865  12.000  0.2784  2.5325  3.3309
19279TIP3    H279329   0.545   3.999  11.933 -0.1935 -0.1978 -2.9990
19280TIP3   OH279330   4.918   3.280   5.963 -0.1468  0.6196 -0.0946
19280TIP3    H179331   4.917   3.224   5.885 -1.8779  0.1497  0.2291
19280TIP3    H279332   4.985   3.241   6.019  0.2862  0.2587 -0.8436
19281TIP3   OH279333   2.659   5.686  16.389  0.0280  0.3392 -0.4624
19281TIP3    H179334   2.714   5.695  16.466  1.3961  2.3889 -1.5791
19281TIP3    H279335   2.688   5.756  16.330 -0.9944 -1.0905 -2.8174
19282TIP3   OH279336   2.977   6.346  16.967 -0.6318  0.0509  0.0098
19282TIP3    H179337   2.942   6.413  16.908 -0.1353 -0.4464 -0.8730
19282TIP3    H279338   2.954   6.263  16.925 -0.9774 -0.3387  0.9369
19283TIP3   OH279339   1.788   2.985   4.582 -0.3655  0.4326  0.4472
19283TIP3    H179340   1.709   2.939   4.552 -0.6784 -0.2146  2.1857
19283TIP3    H279341   1.840   2.918   4.625  1.2572  0.8169 -0.7959
19284TIP3   OH279342   1.563   1.660  13.463 -0.0736 -0.5389  0.2671
19284TIP3    H179343   1.489   1.632  13.409 -2.1780  1.3137  1.9740
19284TIP3    H279344   1.596   1.738  13.420 -0.1960 -0.4252  0.3784
19285TIP3   OH279345   4.588   2.340   2.282  0.4785 -0.2767 -0.1353
19285TIP3    H179346   4.609   2.247   2.290 -0.2660 -0.4720 -0.2812
19285TIP3    H279347   4.575   2.353   2.188 -0.4569 -0.2832 -0.0253
19286TIP3   OH279348   6.142   0.129   1.470 -0.0094  0.1730 -0.2255
19286TIP3    H179349   6.222   0.168   1.506 -0.0250 -0.9466  1.1071
19286TIP3    H279350   6.072   0.160   1.527 -0.0664 -1.4416  0.6423
19287TIP3   OH279351   4.828   5.272  11.378 -0.0390 -0.0157 -0.2419
19287TIP3    H179352   4.901   5.227  11.421 -1.3116 -1.4338  0.5244
19287TIP3    H279353   4.859   5.288  11.289  1.0211 -1.0769 -0.0917
19288TIP3   OH279354   2.333   3.189   1.315 -0.0136  0.0567 -0.0567
19288TIP3    H179355   2.313   3.281   1.327  0.2115  0.1933 -0.6648
19288TIP3    H279356   2.309   3.147   1.398 -0.0728  0.6662  0.2347
19289TIP3   OH279357   3.249   6.654  17.146 -0.1947 -0.3341  0.1072
19289TIP3    H179358   3.233   6.615  17.060  1.2997  0.6150 -0.6594
19289TIP3    H279359   3.184   6.724  17.152 -1.0046 -1.0777  0.2400
19290TIP3   OH279360   4.977   2.915   2.525  0.1040  0.4505 -0.3062
19290TIP3    H179361   5.042   2.918   2.454  0.9455  0.2769  0.4418
19290TIP3    H279362   5.018   2.861   2.593  0.2653  2.3889  1.2203
19291TIP3   OH279363   5.011   2.100   3.935  0.2004 -0.0425 -0.4206
19291TIP3    H179364   4.961   2.040   3.990  3.2134 -1.2626  1.1951
19291TIP3    H279365   5.036   2.171   3.994  0.5548  0.4408 -1.1468
19292TIP3   OH279366   3.330   0.394  15.391 -0.0128 -0.0393 -0.6339
19292TIP3    H179367   3.399   0.394  15.326  0.4417 -0.6559 -0.1631
19292TIP3    H279368   3.265   0.332  15.357 -0.9250  1.4289 -1.6637
19293TIP3   OH279369   6.688   2.028  12.514  0.3475 -0.3823  0.3590
19293TIP3    H179370   6.652   1.953  12.466 -0.3341  1.0272 -1.4637
19293TIP3    H279371   6.613   2.064  12.561 -0.4044  1.5769 -2.1302
19294TIP3   OH279372   0.908   0.667  11.497 -0.0580 -0.1292  0.5686
19294TIP3    H179373   0.930   0.728  11.568 -1.0703  1.3417 -0.3270
19294TIP3    H279374   0.992   0.648  11.455  0.0875  2.3929 -0.4582
19295TIP3   OH279375   4.424   6.274  16.884 -0.0951 -0.0792 -0.3233
19295TIP3    H179376   4.501   6.322  16.913  0.0899 -1.5466  1.8447
19295TIP3    H279377   4.367   6.340  16.845  0.6236  1.7257  1.5229
19296TIP3   OH279378   2.798   5.187   0.352 -0.2969  0.0371 -0.2695
19296TIP3    H179379   2.727   5.249   0.333  0.2524  0.5279 -0.7540
19296TIP3    H279380   2.821   5.204   0.443  2.0651  2.9001 -1.2552
19297TIP3   OH279381   3.506   6.038  14.584 -0.1801  0.1792  0.8227
19297TIP3    H179382   3.491   5.944  14.579 -0.8127  0.2727  0.8929
19297TIP3    H279383   3.427   6.077  14.546 -0.2374  0.6919  1.4576
19298TIP3   OH279384   5.896   3.663   1.166 -0.0330  0.0791 -0.2101
19298TIP3    H179385   5.886   3.708   1.082 -0.5868  0.8809  0.2749
19298TIP3    H279386   5.864   3.574   1.150  0.7487 -0.0586 -1.0859
19299TIP3   OH279387   5.118   0.558  15.507  0.0845 -0.7289 -0.0445
19299TIP3    H179388   5.194   0.505  15.530 -0.2246 -0.9814  0.3934
19299TIP3    H279389   5.053   0.539  15.574  0.3403  1.0008  0.7665
19300TIP3   OH279390   3.408   4.439  13.240  0.6927  0.0970 -0.2122
19300TIP3    H179391   3.384   4.461  13.150  0.2013  2.6287  0.4683
19300TIP3    H279392   3.397   4.520  13.289  1.5827 -1.0370  2.0360
19301TIP3   OH279393   2.186   5.362  15.499 -0.0733 -0.2484  0.0909
19301TIP3    H179394   2.100   5.331  15.526 -0.8031  1.7796  0.3210
19301TIP3    H279395   2.218   5.412  15.574  1.3617 -1.0331  0.0383
19302TIP3   OH279396   1.578   1.977   5.613 -0.3789 -0.3809 -0.0845
19302TIP3    H179397   1.549   1.978   5.522  0.6903  0.6417 -0.4452
19302TIP3    H279398   1.655   2.035   5.614 -1.2330  0.8096  1.7519
19303TIP3   OH279399   1.514   1.829   0.435 -0.2507 -0.1476 -0.0941
19303TIP3    H179400   1.504   1.748   0.385  0.2966 -0.3639  0.1352
19303TIP3    H279401   1.429   1.872   0.429 -0.3248 -0.3787 -0.8493
19304TIP3   OH279402   2.037   1.728  15.724 -0.1979 -0.9769  0.6003
19304TIP3    H179403   2.131   1.726  15.709 -0.0438 -1.3247  1.5442
19304TIP3    H279404   2.009   1.813  15.689  0.2971 -1.2512 -0.5245
19305TIP3   OH279405   3.899   0.436   3.630 -0.0052 -0.3477  0.0074
19305TIP3    H179406   3.954   0.510   3.657  0.8395 -0.2941 -1.7178
19305TIP3    H279407   3.844   0.472   3.559  0.2135 -1.2855 -0.6513
19306TIP3   OH279408   4.359   3.383  15.658  0.2582  0.3473  0.2945
19306TIP3    H179409   4.328   3.395  15.568 -2.6844  0.7489  1.2415
19306TIP3    H279410   4.383   3.471  15.687 -0.0850  0.4425  0.3002
19307TIP3   OH279411   3.265   5.652  15.630 -0.1899 -0.0093 -0.2338
19307TIP3    H179412   3.313   5.733  15.648  0.6670 -0.2249 -1.3886
19307TIP3    H279413   3.236   5.662  15.539 -1.9750 -0.0940  0.2924
19308TIP3   OH279414   1.454   0.084   0.921  0.1712 -0.1546  0.0815
19308TIP3    H179415   1.374   0.121   0.958  0.4135  0.3576  0.0999
19308TIP3    H279416   1.498   0.044   0.996  1.1090  1.6717  0.5773
19309TIP3   OH279417   3.433   6.296   0.445  0.3897 -0.2492  0.0166
19309TIP3    H179418   3.509   6.287   0.388  0.7001  0.2777  0.3425
19309TIP3    H279419   3.469   6.304   0.533  0.0407  1.3956  0.0380
19310TIP3   OH279420   2.656   5.654   4.045  0.2017  0.0554 -0.3236
19310TIP3    H179421   2.576   5.686   4.088  1.5038  0.2257  2.1657
19310TIP3    H279422   2.632   5.568   4.011 -1.3547  0.6102 -0.7095
19311TIP3   OH279423   5.362   5.064   2.939  0.2221  0.2152 -0.0278
19311TIP3    H179424   5.279   5.017   2.941  0.3339  0.0225  0.0370
19311TIP3    H279425   5.429   4.996   2.930  0.3577  0.3882 -0.3558
19312TIP3   OH279426   2.803   1.586  15.532  0.0534 -0.3330 -0.3476
19312TIP3    H179427   2.798   1.556  15.441 -1.4211  1.2618 -0.8555
19312TIP3    H279428   2.773   1.677  15.528  0.8352  0.0495  1.6246
19313TIP3   OH279429   3.743   6.784  11.687  0.2406 -0.1080  0.8355
19313TIP3    H179430   3.651   6.756  11.679  0.5363 -1.1335  0.7911
19313TIP3    H279431   3.793   6.703  11.676  1.1670  0.4877  0.5655
19314TIP3   OH279432   5.696   2.619  15.850  0.8812 -0.0384 -0.0966
19314TIP3    H179433   5.620   2.660  15.808  0.1750 -0.7561  0.4394
19314TIP3    H279434   5.745   2.580  15.779  0.2465 -0.3619 -0.3652
19315TIP3   OH279435   3.088   5.582   5.298 -0.3647  0.1798  0.7684
19315TIP3    H179436   3.141   5.517   5.344  2.0531  0.9362 -0.6989
19315TIP3    H279437   3.071   5.542   5.212  0.9457  1.3080 -0.0602
19316TIP3   OH279438   2.985   3.053  14.666  0.4794  0.6916 -0.4371
19316TIP3    H179439   2.990   3.009  14.751  0.1158  2.7096  0.6821
19316TIP3    H279440   3.070   3.095  14.654  0.0032  1.7394 -0.2849
19317TIP3   OH279441   3.451   2.110  16.820 -0.0362 -0.2667  0.3473
19317TIP3    H179442   3.443   2.085  16.728  0.7043 -2.5705  0.8572
19317TIP3    H279443   3.535   2.074  16.848 -0.0883  0.6961  1.8540
19318TIP3   OH279444   1.860   6.150   0.552  0.1517  0.6066  0.3080
19318TIP3    H179445   1.867   6.170   0.646  2.1187 -0.6928  0.5011
19318TIP3    H279446   1.776   6.105   0.544 -0.0209  0.6723  1.4652
19319TIP3   OH279447   0.050   5.953   1.285 -0.4479  0.4853 -0.2961
19319TIP3    H179448  -0.017   5.896   1.322 -0.4704  0.6883 -0.0252
19319TIP3    H279449   0.091   5.994   1.361 -1.1480  1.6503 -0.5360
19320TIP3   OH279450   6.235   3.278  12.238 -0.1573  0.6836  0.3924
19320TIP3    H179451   6.205   3.216  12.304  1.0626 -1.2164 -0.7469
19320TIP3    H279452   6.156   3.325  12.211 -1.3376 -1.1119  0.5725
19321TIP3   OH279453   2.096   6.193   5.812  0.2094  0.3925 -0.7904
19321TIP3    H179454   2.016   6.186   5.863  0.3501  1.3310 -0.4332
19321TIP3    H279455   2.073   6.156   5.726 -0.0526 -1.0843 -0.1151
19322TIP3   OH279456   5.657   4.388   5.067 -0.6262  0.1473  0.4201
19322TIP3    H179457   5.716   4.320   5.099 -0.0674  1.0589  1.3599
19322TIP3    H279458   5.587   4.391   5.133 -1.5179 -0.6089 -0.4500
19323TIP3   OH279459   4.020   6.788   2.442  0.2561  0.4893 -0.0043
19323TIP3    H179460   4.086   6.718   2.443  0.6640  0.8158 -1.6905
19323TIP3    H279461   4.049   6.849   2.510 -0.2730 -1.0656  1.7305
19324TIP3   OH279462   5.849   1.493   5.024  0.0593  0.6297 -0.7463
19324TIP3    H179463   5.827   1.586   5.019  1.4107  1.2435  2.1512
19324TIP3    H279464   5.785   1.457   5.086  0.7266  0.0935 -0.3520
19325TIP3   OH279465   0.217   2.563  16.917  0.1569 -0.5956 -0.3259
19325TIP3    H179466   0.254   2.574  17.005  0.8081 -2.1407 -0.3817
19325TIP3    H279467   0.255   2.482  16.885 -0.8285 -0.5549 -1.6717
19326TIP3   OH279468   5.002   2.379   0.120 -0.3187 -0.1752 -0.0743
19326TIP3    H179469   4.935   2.340   0.063 -0.2716 -0.3386 -0.0185
19326TIP3    H279470   5.085   2.343   0.088 -0.3756 -1.0765  0.7434
19327TIP3   OH279471   6.328   2.649  11.258 -0.2915 -0.3402 -0.0332
19327TIP3    H179472   6.341   2.573  11.315  0.7610  0.0019  0.2032
19327TIP3    H279473   6.379   2.629  11.180 -2.2441 -1.0949 -1.1674
19328TIP3   OH279474   1.521   3.139  12.150  0.6053 -0.1881 -0.1991
19328TIP3    H179475   1.493   3.170  12.063  1.4320  1.1742 -0.0052
19328TIP3    H279476   1.514   3.216  12.206  0.2715 -1.0099  0.9113
19329TIP3   OH279477   4.963   1.999   2.177 -0.5493 -0.1684 -0.1948
19329TIP3    H179478   5.052   2.018   2.147 -1.0812  0.9173 -1.1386
19329TIP3    H279479   4.968   2.007   2.272  0.4874 -0.6944 -0.1931
19330TIP3   OH279480   1.109   2.993  11.976 -0.0039 -0.2562 -0.2921
19330TIP3    H179481   1.169   3.055  12.017 -0.3885  0.7592 -1.2036
19330TIP3    H279482   1.163   2.946  11.912  0.2029 -0.6228  0.1406
19331TIP3   OH279483   5.915   4.430  16.119  0.2826  0.0518  0.3491
19331TIP3    H179484   5.868   4.501  16.076  3.2902  1.5498 -0.7463
19331TIP3    H279485   5.912   4.358  16.056  0.1313  0.3949 -0.0396
19332TIP3   OH279486   4.316   4.419  15.260 -0.7392 -0.0541 -0.5410
19332TIP3    H179487   4.355   4.506  15.274 -1.1829  0.0828 -0.1443
19332TIP3    H279488   4.222   4.435  15.258 -0.8982 -0.6814  0.7822
19333TIP3   OH279489   1.618   5.543  10.963  0.0578 -0.5850  0.3159
19333TIP3    H179490   1.603   5.450  10.978 -0.0604 -0.4906  0.7774
19333TIP3    H279491   1.713   5.553  10.967  0.0130 -0.4896  1.4402
19334TIP3   OH279492   3.833   0.426  13.461 -0.3416  0.2831 -0.6380
19334TIP3    H179493   3.838   0.417  13.366 -0.6512 -1.4312 -0.5283
19334TIP3    H279494   3.760   0.486  13.476 -2.6663 -2.1582 -1.4664
19335TIP3   OH279495   2.385   0.549  11.675  0.1363 -0.4684 -0.2554
19335TIP3    H179496   2.373   0.534  11.768  0.5426 -0.4403 -0.1940
19335TIP3    H279497   2.464   0.499  11.653  1.1333  1.0075 -0.1895
19336TIP3   OH279498   4.549   2.421  16.285  0.1223  0.6508  0.2690
19336TIP3    H179499   4.588   2.480  16.222  1.9467 -1.4217 -0.6585
19336TIP3    H279500   4.455   2.439  16.280  0.5852  3.5017  0.1836
19337TIP3   OH279501   1.454   3.267   0.122  0.3051  0.1676 -0.4744
19337TIP3    H179502   1.548   3.283   0.112  1.3661 -3.5446  1.5256
19337TIP3    H279503   1.427   3.329   0.190  1.5242  0.6722 -0.4210
19338TIP3   OH279504   5.628   5.272  16.594 -0.6647 -0.3101 -0.0513
19338TIP3    H179505   5.568   5.198  16.605  0.1078 -0.7881  1.1501
19338TIP3    H279506   5.714   5.231  16.583 -0.1323  0.4060  1.2843
19339TIP3   OH279507   3.480   0.844   0.949  0.1565  0.6269  0.2377
19339TIP3    H179508   3.486   0.897   1.028 -1.9104 -0.7485  1.4261
19339TIP3    H279509   3.396   0.870   0.909  0.3702  0.1124 -0.5807
19340TIP3   OH279510   2.983   5.780  12.712  0.5394 -0.2768  0.4472
19340TIP3    H179511   2.986   5.864  12.759  1.3993 -0.1867  0.2445
19340TIP3    H279512   3.027   5.798  12.629 -0.2129 -0.6605 -0.0398
19341TIP3   OH279513   4.636   5.685  12.639  0.2176 -0.4121 -0.0623
19341TIP3    H179514   4.629   5.642  12.724  2.0882  0.7631  0.7522
19341TIP3    H279515   4.611   5.776  12.655  0.8238 -0.1203 -0.6995
19342TIP3   OH279516   6.224   3.768   2.174  0.4860 -0.5713 -0.2562
19342TIP3    H179517   6.259   3.857   2.173  1.1065 -0.7872 -2.3842
19342TIP3    H279518   6.150   3.770   2.113  0.6507 -1.5475 -0.5160
19343TIP3   OH279519   4.309   4.193   0.826 -0.5218 -0.5818  1.0029
19343TIP3    H179520   4.363   4.137   0.770 -0.1212  0.1275  0.6645
19343TIP3    H279521   4.249   4.132   0.870  1.0354 -1.4870  1.9682
19344TIP3   OH279522   0.044   2.795  16.924  0.3077  0.1283 -0.1850
19344TIP3    H179523   0.100   2.816  16.998  1.6469 -0.7346 -0.9037
19344TIP3    H279524   0.040   2.699  16.923 -1.1463  0.1598 -0.2027
19345TIP3   OH279525   4.416   1.438  13.793  1.1310 -0.4273  0.3043
19345TIP3    H179526   4.407   1.355  13.747  2.5635 -1.1055  1.1548
19345TIP3    H279527   4.327   1.474  13.796  0.4901 -1.8978 -0.1286
19346TIP3   OH279528   2.353   3.415  15.386  0.0987 -0.3970 -0.1561
19346TIP3    H179529   2.308   3.411  15.302  0.8295  0.5444 -0.6047
19346TIP3    H279530   2.288   3.385  15.450 -1.1278  0.8171 -0.7899
19347TIP3   OH279531   3.808   4.645   1.332 -0.5875 -0.5350  0.5266
19347TIP3    H179532   3.869   4.586   1.286 -0.8406  0.2506 -0.8723
19347TIP3    H279533   3.729   4.644   1.278 -1.6035 -1.0265  1.9716
19348TIP3   OH279534   2.931   5.719  14.186  0.4612  0.4684  0.6175
19348TIP3    H179535   2.877   5.714  14.265 -1.2321  0.1039 -0.4939
19348TIP3    H279536   2.911   5.804  14.148  0.7025  0.3563  0.2272
19349TIP3   OH279537   6.750   5.401   2.260  0.1024  0.0042 -0.7546
19349TIP3    H179538   6.761   5.324   2.316 -1.2939 -0.0668 -0.5304
19349TIP3    H279539   6.801   5.381   2.182 -0.6957 -1.4241 -0.9504
19350TIP3   OH279540   0.547   6.779   3.117 -0.0162  0.1579  0.5521
19350TIP3    H179541   0.487   6.810   3.185  0.1142 -2.2289  1.8370
19350TIP3    H279542   0.634   6.789   3.156  0.2089  0.5040 -0.0217
19351TIP3   OH279543   0.730   6.681  14.816 -0.1790  0.3342  0.7208
19351TIP3    H179544   0.796   6.716  14.756  0.8400 -0.0337  1.6079
19351TIP3    H279545   0.682   6.758  14.846 -0.4959  0.5579 -0.2884
19352TIP3   OH279546   3.117   3.612  14.573 -0.3645 -0.4162 -0.5311
19352TIP3    H179547   3.143   3.523  14.549 -4.2229 -1.9510  0.1548
19352TIP3    H279548   3.104   3.657  14.489 -1.3416 -1.5616 -1.0294
19353TIP3   OH279549   2.546   0.562  14.668 -0.5059  0.3037 -0.0001
19353TIP3    H179550   2.532   0.634  14.730  0.2975  1.0317 -0.6389
19353TIP3    H279551   2.601   0.500  14.715 -1.5885 -0.1318  0.7213
19354TIP3   OH279552   3.273   0.133  15.401 -1.1275 -0.2520  0.1023
19354TIP3    H179553   3.308   0.186  15.473 -1.0637  0.3063 -0.3314
19354TIP3    H279554   3.230   0.060  15.444  1.7838 -1.7776  0.6801
19355TIP3   OH279555   1.115   0.539  10.535  0.0189  0.1655  0.2344
19355TIP3    H179556   1.140   0.627  10.560  1.1400 -0.0695  0.0324
19355TIP3    H279557   1.020   0.537  10.543 -0.1937  1.8640 -1.2685
19356TIP3   OH279558   5.886   5.740  16.339 -0.6024  0.7066  0.0555
19356TIP3    H179559   5.808   5.756  16.392 -1.3016 -1.1841 -0.3180
19356TIP3    H279560   5.897   5.645  16.342  0.5417  0.7587 -1.5167
19357TIP3   OH279561   3.713   1.712  14.230  0.1980  0.0242 -0.0219
19357TIP3    H179562   3.768   1.767  14.174 -0.7846  0.7409 -0.3172
19357TIP3    H279563   3.627   1.754  14.227 -0.5395 -1.4384 -0.1047
19358TIP3   OH279564   6.103   0.541   2.164 -0.9265  0.1885 -0.8339
19358TIP3    H179565   6.048   0.555   2.086 -2.2020  1.2560  0.1992
19358TIP3    H279566   6.049   0.486   2.221 -0.2437 -0.1061 -0.4697
19359TIP3   OH279567   2.481   3.087   2.307  0.0844  0.1512  0.3777
19359TIP3    H179568   2.483   3.015   2.370 -0.4854  1.5048  2.0133
19359TIP3    H279569   2.570   3.123   2.309 -0.4924  1.5851  2.1468
19360TIP3   OH279570   5.627   0.415   2.991 -0.8921  0.1980  0.2296
19360TIP3    H179571   5.632   0.410   2.896  0.1065  0.8261  0.2359
19360TIP3    H279572   5.536   0.395   3.012 -1.0115 -0.4206 -0.8196
19361TIP3   OH279573   2.554   2.881  16.586  0.0283  0.3327  0.4124
19361TIP3    H179574   2.602   2.938  16.527 -0.7062 -0.0386 -0.5644
19361TIP3    H279575   2.463   2.913  16.582 -0.0060  0.4196  1.4876
19362TIP3   OH279576   4.131   0.182  11.483  0.1255 -0.1667  0.2283
19362TIP3    H179577   4.040   0.190  11.509 -0.1746  2.9623 -1.3734
19362TIP3    H279578   4.172   0.264  11.509  1.2494  0.5636 -3.2727
19363TIP3   OH279579   3.373   5.478  13.074 -0.1755 -0.0625 -0.4224
19363TIP3    H179580   3.306   5.451  13.137  0.3214 -1.1771 -0.3358
19363TIP3    H279581   3.390   5.570  13.094  0.1384 -0.4466  1.2217
19364TIP3   OH279582   2.267   0.927  10.901 -0.1345  0.8159  0.6866
19364TIP3    H179583   2.254   1.014  10.864 -0.7453  0.9565  1.2074
19364TIP3    H279584   2.207   0.871  10.852 -0.7661  0.9571  1.2818
19365TIP3   OH279585   2.055   4.404   5.498  0.1313 -0.1598 -0.6047
19365TIP3    H179586   2.137   4.432   5.458  0.3534 -1.0880 -0.8329
19365TIP3    H279587   2.022   4.482   5.543  1.2394  0.1741 -0.3441
19366TIP3   OH279588   0.692   5.704  15.483  0.6443 -0.6884 -0.4350
19366TIP3    H179589   0.696   5.648  15.406 -1.9183 -1.4444 -0.1256
19366TIP3    H279590   0.686   5.793  15.447 -1.2593 -1.0735 -1.2336
19367TIP3   OH279591   2.708   0.548  16.531 -0.3974  0.3461 -0.7705
19367TIP3    H179592   2.745   0.482  16.473  0.1978  0.1320 -0.1567
19367TIP3    H279593   2.642   0.501  16.582 -2.5376  0.9805 -2.7307
19368TIP3   OH279594   3.082   6.490  10.809 -0.2041 -0.0248  0.3468
19368TIP3    H179595   3.124   6.568  10.845 -1.5905  0.4991  0.8876
19368TIP3    H279596   3.089   6.500  10.714 -2.4786  2.0180  0.3061
19369TIP3   OH279597   0.942   3.572  16.179  0.0254  0.3129  0.3189
19369TIP3    H179598   1.016   3.632  16.177 -0.7553  1.2928 -0.0070
19369TIP3    H279599   0.907   3.581  16.268  0.3893 -0.2707  0.5234
19370TIP3   OH279600   2.029   0.989   5.267 -0.8788  0.3403 -0.1419
19370TIP3    H179601   2.010   0.962   5.178 -0.7227 -0.0392 -0.0628
19370TIP3    H279602   2.124   1.003   5.268 -0.6290 -1.1789  0.3559
19371TIP3   OH279603   4.987   4.960  12.707 -0.0434  0.1950 -0.0516
19371TIP3    H179604   4.923   4.898  12.671  0.2507  0.0066 -0.2543
19371TIP3    H279605   4.936   5.039  12.725 -0.3441  0.0302 -0.1661
19372TIP3   OH279606   2.899   4.719  12.154  0.3292  0.3180 -0.7227
19372TIP3    H179607   2.904   4.685  12.243  2.3351  0.3800 -0.7754
19372TIP3    H279608   2.805   4.726  12.136 -0.1075  0.3297  1.3754
19373TIP3   OH279609   2.767   5.915   0.289  0.2693  0.0398  0.2558
19373TIP3    H179610   2.756   5.927   0.194 -0.4037 -0.0595  0.3137
19373TIP3    H279611   2.795   6.000   0.321 -1.9563  0.8299  0.3082
19374TIP3   OH279612   5.192   6.767   4.125 -0.0829 -0.1364  0.5074
19374TIP3    H179613   5.232   6.761   4.039  0.4674  0.2236  0.7336
19374TIP3    H279614   5.100   6.744   4.111 -0.0647  0.2299 -0.2187
19375TIP3   OH279615   5.024   2.380   4.475 -0.3154 -0.1043 -0.1634
19375TIP3    H179616   5.011   2.323   4.551 -0.1126 -1.1798 -0.9108
19375TIP3    H279617   5.109   2.421   4.489  0.4561 -1.5163 -0.5487
19376TIP3   OH279618   1.064   2.928   1.894 -0.5218  0.3161  0.4805
19376TIP3    H179619   0.994   2.989   1.871 -0.2179 -0.2755 -2.3715
19376TIP3    H279620   1.145   2.975   1.876 -0.2748 -0.3563 -0.2832
19377TIP3   OH279621   2.846   5.562   1.116 -0.1650 -0.1492  0.2636
19377TIP3    H179622   2.927   5.537   1.071 -0.0045  0.8491 -0.0231
19377TIP3    H279623   2.777   5.521   1.063  0.0512  0.6149 -0.6420
19378TIP3   OH279624   5.892   6.452   5.528 -0.2488 -0.3358  0.4572
19378TIP3    H179625   5.934   6.372   5.495 -1.1720 -0.8806  0.5680
19378TIP3    H279626   5.841   6.423   5.603 -1.0003  0.2658  0.1941
19379TIP3   OH279627   0.208   2.819  12.454  0.1109  0.2631  0.4254
19379TIP3    H179628   0.150   2.879  12.407  1.2645  0.3985 -0.9096
19379TIP3    H279629   0.267   2.877  12.503  0.0722  0.1730  0.5764
19380TIP3   OH279630   6.128   1.413   2.334 -0.1940 -0.2777 -0.1197
19380TIP3    H179631   6.211   1.459   2.349  0.6909 -2.1092  0.8713
19380TIP3    H279632   6.064   1.483   2.322  1.1220  1.2164  1.1517
19381TIP3   OH279633   0.229   0.623   0.481 -0.5229 -0.1206 -0.2928
19381TIP3    H179634   0.180   0.699   0.451  0.2825 -0.0684 -1.5534
19381TIP3    H279635   0.295   0.609   0.413  0.2706 -1.0623  0.6433
19382TIP3   OH279636   2.674   3.800  14.613 -0.4210  0.2319 -0.5111
19382TIP3    H179637   2.736   3.727  14.606 -1.8025 -1.0542  0.1397
19382TIP3    H279638   2.626   3.782  14.694 -2.5850  0.4085 -1.6882
19383TIP3   OH279639   0.128   6.511   2.626  0.0488  0.0511 -0.5070
19383TIP3    H179640   0.070   6.449   2.582  0.2211 -0.1485 -0.4568
19383TIP3    H279641   0.210   6.505   2.577  0.3289 -0.3725  0.0086
19384TIP3   OH279642   6.339   3.144  11.156 -0.0685  0.3046  0.0348
19384TIP3    H179643   6.393   3.075  11.193 -0.3287  0.8808  1.5781
19384TIP3    H279644   6.399   3.195  11.102  0.6676  0.2375  0.7673
19385TIP3   OH279645   2.246   3.273   0.983  0.1308 -0.0645  0.2239
19385TIP3    H179646   2.315   3.210   1.001 -0.5446 -0.9549 -0.2436
19385TIP3    H279647   2.279   3.326   0.910  0.7290  0.1916  0.6705
19386TIP3   OH279648   2.436   1.267  10.632  0.1487 -0.3512 -0.4024
19386TIP3    H179649   2.376   1.331  10.595 -0.5299 -0.9722 -0.3989
19386TIP3    H279650   2.382   1.213  10.690  1.3738  1.2335  2.4079
19387TIP3   OH279651   2.308   5.689   0.429  0.2930 -0.1614 -0.2910
19387TIP3    H179652   2.302   5.699   0.524  0.3413 -0.8553 -0.2132
19387TIP3    H279653   2.401   5.702   0.410  0.5741 -1.6299 -0.0393
19388TIP3   OH279654   4.076   1.234   5.057 -0.3428  0.7567 -0.4873
19388TIP3    H179655   4.112   1.267   4.974 -2.6479  2.9830 -0.7358
19388TIP3    H279656   4.015   1.164   5.030 -2.0296  2.3015 -0.8979
19389TIP3   OH279657   0.696   5.994  13.295  0.1134  0.1093  0.5726
19389TIP3    H179658   0.699   6.087  13.321  0.8894  0.0695  0.6542
19389TIP3    H279659   0.786   5.964  13.305  0.7014  0.3002 -2.9636
19390TIP3   OH279660   2.978   6.290  11.066 -0.4734 -1.0772 -0.2133
19390TIP3    H179661   2.908   6.311  11.005 -1.9538 -2.8519  0.7794
19390TIP3    H279662   2.935   6.282  11.151  0.8336 -2.6486  0.3694
19391TIP3   OH279663   3.740   1.961  13.545  0.1178  0.4741 -0.1806
19391TIP3    H179664   3.809   2.023  13.524 -0.0416  0.5174 -0.5874
19391TIP3    H279665   3.721   1.976  13.637 -1.3615  2.4726 -0.7645
19392TIP3   OH279666   4.682   0.437   0.841  0.4371 -0.5015 -1.1449
19392TIP3    H179667   4.596   0.416   0.877  0.1938 -0.1368 -1.5112
19392TIP3    H279668   4.740   0.435   0.918 -0.2060  0.9928 -0.5865
19393TIP3   OH279669   4.432   4.795  11.863  0.3620  0.0687 -0.3768
19393TIP3    H179670   4.507   4.787  11.922 -0.9846 -3.4744  1.1025
19393TIP3    H279671   4.431   4.888  11.839  2.6539  1.1613  2.9695
19394TIP3   OH279672   2.995   1.209   1.645  0.3349  0.2753  0.3235
19394TIP3    H179673   2.919   1.179   1.695 -0.9031  0.4803 -1.3503
19394TIP3    H279674   3.032   1.130   1.606  1.3554  0.1031  1.5809
19395TIP3   OH279675   5.799   5.516  12.088 -0.3319 -0.6122  0.3602
19395TIP3    H179676   5.832   5.521  12.178 -1.0075 -0.5432  0.6155
19395TIP3    H279677   5.864   5.562  12.035 -1.2473  1.7849  1.1956
19396TIP3   OH279678   6.270   3.679   1.811  0.0485 -0.1463  0.7130
19396TIP3    H179679   6.213   3.747   1.848 -1.3637 -1.1929  0.5078
19396TIP3    H279680   6.221   3.642   1.739  0.7656 -1.4500  0.8631
19397TIP3   OH279681   1.677   0.674   3.208  0.2201  0.2227  0.6188
19397TIP3    H179682   1.639   0.750   3.252  1.2444  2.0762 -1.4947
19397TIP3    H279683   1.753   0.708   3.162  2.8252 -2.7716  2.3160
19398TIP3   OH279684   4.310   2.928   6.049  0.1110 -0.6214  0.1265
19398TIP3    H179685   4.302   2.845   6.098 -1.1428 -0.5797  0.0170
19398TIP3    H279686   4.243   2.922   5.981  1.6957 -0.5922 -1.5058
19399TIP3   OH279687   1.164   4.291   2.301  0.1556  0.3360  0.0132
19399TIP3    H179688   1.195   4.317   2.387  0.4241 -0.6560  0.2220
19399TIP3    H279689   1.081   4.338   2.290  1.1791  2.2299 -0.1385
19400TIP3   OH279690   2.784   1.814   0.988 -0.3677 -0.3496 -0.6445
19400TIP3    H179691   2.770   1.806   0.894 -1.0849  0.4366 -0.6103
19400TIP3    H279692   2.699   1.838   1.024 -0.2927 -1.4599  0.3151
19401TIP3   OH279693   3.232   6.273  16.489  0.5063 -0.2555  0.2391
19401TIP3    H179694   3.303   6.337  16.499  0.1096  0.3102 -0.5330
19401TIP3    H279695   3.156   6.314  16.530  0.6747 -0.9846  1.3318
19402TIP3   OH279696   5.090   5.385   4.729  0.0691  0.3054  0.5733
19402TIP3    H179697   4.995   5.391   4.738 -0.0895 -1.3966  0.5026
19402TIP3    H279698   5.114   5.455   4.669 -1.4829 -0.7122 -1.3623
19403TIP3   OH279699   2.325   0.150   1.251  0.1881  0.0984  0.8659
19403TIP3    H179700   2.252   0.201   1.216 -0.3965 -1.6723 -0.6133
19403TIP3    H279701   2.309   0.061   1.221  2.7507 -0.4334  0.8455
19404TIP3   OH279702   5.349   3.487  11.890  0.3032  0.1934 -0.4012
19404TIP3    H179703   5.383   3.483  11.801  2.2995  0.9676  0.2774
19404TIP3    H279704   5.300   3.569  11.893  0.6907  0.4393 -0.6423
19405TIP3   OH279705   6.028   4.564   2.341  0.3520 -0.0356  0.2264
19405TIP3    H179706   5.982   4.499   2.288  0.1954 -0.3387  0.7274
19405TIP3    H279707   6.120   4.537   2.337  0.1695 -0.8992  1.2512
19406TIP3   OH279708   3.347   3.132   0.917 -0.0423  0.3776 -0.7217
19406TIP3    H179709   3.405   3.074   0.868  1.3971 -0.5556  1.8841
19406TIP3    H279710   3.383   3.220   0.901  2.3855 -0.1940  0.9778
19407TIP3   OH279711   4.485   2.808   0.761  0.2839 -0.5691 -0.2990
19407TIP3    H179712   4.400   2.810   0.719  0.0527 -1.1923  0.1120
19407TIP3    H279713   4.470   2.759   0.842  0.7085  0.6081  0.5233
19408TIP3   OH279714   0.299   6.225  17.148  0.4825  0.4933 -0.1633
19408TIP3    H179715   0.353   6.260  17.219  0.8009 -0.7040  0.2127
19408TIP3    H279716   0.250   6.300  17.115  1.5143  1.3801  0.2701
19409TIP3   OH279717   0.691   3.563   2.809  0.0934 -0.3095  0.0268
19409TIP3    H179718   0.719   3.503   2.740 -0.9684 -2.7973  1.6168
19409TIP3    H279719   0.596   3.552   2.813  0.1398 -0.3341  1.9178
19410TIP3   OH279720   3.630   0.446   4.803 -0.2376 -0.1315  0.3458
19410TIP3    H179721   3.610   0.415   4.715  0.3922 -0.7534  0.4107
19410TIP3    H279722   3.580   0.527   4.812  0.9611  0.8412 -1.2025
19411TIP3   OH279723   0.609   4.257  16.266  0.3997 -0.0376 -0.1176
19411TIP3    H179724   0.610   4.304  16.182  0.1341  2.3298  1.1126
19411TIP3    H279725   0.699   4.267  16.299  0.7331 -1.6861 -0.4631
19412TIP3   OH279726   3.581   1.423   4.108  0.0353  0.0736  0.2119
19412TIP3    H179727   3.515   1.472   4.156  0.7277 -1.0851  2.5019
19412TIP3    H279728   3.536   1.391   4.029 -1.8305  0.1204  1.2131
19413TIP3   OH279729   1.470   0.815   0.431 -0.3631  0.2921 -0.3936
19413TIP3    H179730   1.387   0.840   0.391 -0.3477  0.2750 -0.4361
19413TIP3    H279731   1.533   0.817   0.359 -0.0668  1.5339 -0.1212
19414TIP3   OH279732   1.857   1.123  16.749 -0.2015  0.4755 -0.7329
19414TIP3    H179733   1.851   1.189  16.680 -1.1717  0.1128 -1.0089
19414TIP3    H279734   1.925   1.063  16.719 -0.3873  0.5047 -1.2151
19415TIP3   OH279735   4.808   0.311  16.242  0.0297  0.3745 -0.0985
19415TIP3    H179736   4.886   0.342  16.196  0.8029 -4.4838 -2.8691
19415TIP3    H279737   4.735   0.341  16.188  0.5823 -0.6575 -1.4995
19416TIP3   OH279738   6.258   4.995   0.013  0.9227  0.3661  0.1212
19416TIP3    H179739   6.184   4.935   0.004  2.0223 -1.5281  2.2931
19416TIP3    H279740   6.321   4.966  -0.054  1.0208 -0.2845  0.4783
19417TIP3   OH279741   4.378   6.375   0.614  0.4556 -0.4429  0.1511
19417TIP3    H179742   4.353   6.289   0.648 -1.5870 -0.1706 -0.5570
19417TIP3    H279743   4.392   6.429   0.692  0.8517 -1.1604  0.5835
19418TIP3   OH279744   2.574   4.319  11.820 -0.1008  0.1305 -0.6308
19418TIP3    H179745   2.616   4.242  11.859  0.3497  1.6537  2.2090
19418TIP3    H279746   2.494   4.331  11.872 -0.3457  1.3567 -1.2567
19419TIP3   OH279747   1.515   3.095  14.526  0.0558 -0.1411 -0.3133
19419TIP3    H179748   1.507   3.168  14.588  0.1937 -0.2425 -0.1761
19419TIP3    H279749   1.603   3.103  14.491  0.6298 -1.1232  0.8238
19420TIP3   OH279750   4.805   6.193   3.995  0.1836 -0.4528  0.2271
19420TIP3    H179751   4.844   6.259   4.052  1.9230 -0.6295 -0.6927
19420TIP3    H279752   4.841   6.213   3.908 -1.7809 -0.6658 -0.6782
19421TIP3   OH279753   6.142   5.652  13.946 -0.1993 -0.7117 -0.0925
19421TIP3    H179754   6.069   5.702  13.911  0.8603 -0.0611 -1.4699
19421TIP3    H279755   6.177   5.604  13.870 -0.9783 -3.3651  1.0811
19422TIP3   OH279756   4.408   1.728   1.052  0.2258 -0.0593 -0.2598
19422TIP3    H179757   4.444   1.730   1.141  1.4004 -0.2022 -0.7150
19422TIP3    H279758   4.328   1.780   1.058  1.2374  1.5134  0.4936
19423TIP3   OH279759   2.000   5.828   5.649  0.2143 -0.2063 -0.1917
19423TIP3    H179760   2.085   5.822   5.606  1.0590  0.5003  1.3061
19423TIP3    H279761   1.972   5.919   5.633  0.6434  0.1312  0.9089
19424TIP3   OH279762   2.218   3.575   0.905 -0.3721 -0.0607 -0.2741
19424TIP3    H179763   2.267   3.653   0.928  0.5858 -1.0125  1.1070
19424TIP3    H279764   2.168   3.553   0.984  1.4283 -2.2813  0.3780
19425TIP3   OH279765   5.335   2.630  15.048 -0.5258  0.3008 -0.3445
19425TIP3    H179766   5.336   2.707  14.992 -3.3525  0.6580 -0.0771
19425TIP3    H279767   5.251   2.636  15.095  1.4060 -0.2523  3.5570
19426TIP3   OH279768   5.591   3.628  12.591 -0.1242 -0.2337  0.7219
19426TIP3    H179769   5.569   3.602  12.502 -0.7805  1.9508  0.1931
19426TIP3    H279770   5.686   3.617  12.597 -0.0379 -0.1250 -0.3366
19427TIP3   OH279771   2.966   4.026  16.471  0.1458  0.3203  0.2072
19427TIP3    H179772   2.962   4.103  16.528 -0.3138 -1.1623  2.2885
19427TIP3    H279773   3.056   4.025  16.438  0.1453  1.7378  0.0875
19428TIP3   OH279774   1.421   1.933   3.670  0.0975  0.1855  0.0942
19428TIP3    H179775   1.347   1.942   3.610 -1.0122  3.1504  1.6783
19428TIP3    H279776   1.498   1.942   3.614 -0.8633  1.4524 -1.1201
19429TIP3   OH279777   5.816   1.962   3.881 -0.3627  0.3849  0.3319
19429TIP3    H179778   5.726   1.959   3.849 -0.1266 -0.4388 -0.3160
19429TIP3    H279779   5.809   1.948   3.975 -0.9784  1.4366  0.4617
19430TIP3   OH279780   1.606   3.366  14.260  0.2940  0.1165  0.1263
19430TIP3    H179781   1.637   3.447  14.219  1.0917  1.4122  3.0012
19430TIP3    H279782   1.682   3.309  14.262 -0.2999 -0.8435 -2.0139
19431TIP3   OH279783   3.288   1.608   3.734 -0.0977 -0.5821 -0.5995
19431TIP3    H179784   3.286   1.679   3.798  1.0344 -0.9053 -0.1786
19431TIP3    H279785   3.357   1.634   3.672  0.0920 -1.1396 -0.6330
19432TIP3   OH279786   0.890   1.236  15.196  0.6299 -0.6816  0.1911
19432TIP3    H179787   0.848   1.318  15.170  0.0822 -1.4154 -1.3433
19432TIP3    H279788   0.828   1.168  15.171  1.7046 -1.6603  0.0915
19433TIP3   OH279789   3.747   6.056  16.661  0.5009  0.4911 -1.1608
19433TIP3    H179790   3.747   6.011  16.746  1.2568  0.8994 -0.9415
19433TIP3    H279791   3.662   6.101  16.658  0.8720  1.2903 -0.1767
19434TIP3   OH279792   5.298   5.504   0.949  0.4347 -0.1304  0.0190
19434TIP3    H179793   5.226   5.515   0.887  2.0356  0.2903 -1.8583
19434TIP3    H279794   5.295   5.412   0.973  0.2229 -0.4850 -1.2981
19435TIP3   OH279795   1.278   3.069   0.215  0.5805 -0.5385  0.1660
19435TIP3    H179796   1.269   3.118   0.297  0.5300  0.5758 -0.4805
19435TIP3    H279797   1.324   3.129   0.156  2.3587 -2.0236 -0.0502
19436TIP3   OH279798   2.915   2.417  14.699 -0.0916  0.0165 -0.2422
19436TIP3    H179799   2.903   2.462  14.615  0.3766  1.3064  0.3552
19436TIP3    H279800   2.858   2.341  14.694 -0.0959  0.0857 -1.7244
19437TIP3   OH279801   6.193   2.209  16.656  0.0279 -0.5746  0.1441
19437TIP3    H179802   6.176   2.157  16.735  0.1733  0.7495  1.0953
19437TIP3    H279803   6.265   2.164  16.612 -0.1528 -1.4223  0.6972
19438TIP3   OH279804   5.385   5.710   1.293 -0.0742  0.2418  0.0578
19438TIP3    H179805   5.413   5.757   1.371  0.7931 -1.9412  1.1473
19438TIP3    H279806   5.455   5.647   1.276 -0.9794 -0.4012 -1.5647
19439TIP3   OH279807   1.373   5.700   1.347 -0.1032  0.0949 -0.1001
19439TIP3    H179808   1.378   5.687   1.442 -1.4928 -1.3058 -0.1828
19439TIP3    H279809   1.292   5.657   1.321  0.8569 -0.6477 -2.0942
19440TIP3   OH279810   5.508   4.541   4.611 -0.1411  0.1851  0.4086
19440TIP3    H179811   5.535   4.533   4.703 -0.6853  1.6102  0.7167
19440TIP3    H279812   5.590   4.535   4.561  0.0487 -1.7921  0.8684
19441TIP3   OH279813   2.811   2.514   0.802 -1.1506 -0.2900 -0.3114
19441TIP3    H179814   2.724   2.476   0.812 -0.8346 -1.1390 -0.6534
19441TIP3    H279815   2.831   2.551   0.888 -1.8052 -0.1646 -0.2042
19442TIP3   OH279816   2.387   1.849  12.913  0.3435 -0.2008  0.2360
19442TIP3    H179817   2.440   1.856  12.993  0.9128 -0.6169 -0.1030
19442TIP3    H279818   2.451   1.840  12.843 -0.1079  1.1637 -0.3908
19443TIP3   OH279819   0.302   3.731   1.346 -0.2070  0.3006 -0.1743
19443TIP3    H179820   0.229   3.766   1.296  0.7237  2.5254 -0.1033
19443TIP3    H279821   0.275   3.739   1.438 -0.1488  0.4804 -0.1724
19444TIP3   OH279822   1.447   1.974   5.373 -0.0860  0.4189 -0.1014
19444TIP3    H179823   1.414   2.057   5.338  1.9305 -0.1788 -4.0267
19444TIP3    H279824   1.453   1.917   5.296  1.4776 -2.3679  1.9150
19445TIP3   OH279825   1.792   3.044   2.958 -0.1284  0.1254 -0.6956
19445TIP3    H179826   1.750   3.125   2.929 -0.3325  0.1823 -0.2412
19445TIP3    H279827   1.809   2.995   2.877 -0.8639  0.2021 -0.8944
19446TIP3   OH279828   4.094   4.331  10.234 -1.3943 -0.3995  0.1905
19446TIP3    H179829   3.999   4.326  10.249 -1.1705  0.5387  2.2903
19446TIP3    H279830   4.128   4.250  10.272 -1.1785  0.3379  1.6733
19447TIP3   OH279831   1.769   3.079  17.242 -0.0462 -0.3885 -0.2602
19447TIP3    H179832   1.860   3.049  17.251 -0.3371 -1.1458  0.2837
19447TIP3    H279833   1.722   3.003  17.206 -0.3476  0.2049 -1.1318
19448TIP3   OH279834   6.346   2.701   5.159 -0.4104  0.4037 -0.7462
19448TIP3    H179835   6.285   2.657   5.099  0.8578 -2.2237 -0.2452
19448TIP3    H279836   6.431   2.689   5.118  0.3414 -0.4615  0.9720
19449TIP3   OH279837   5.048   6.755  16.784 -0.1218  0.0441  0.4796
19449TIP3    H179838   4.997   6.835  16.799  0.1596 -0.1372  2.6436
19449TIP3    H279839   4.991   6.684  16.812 -0.4451 -0.6002 -1.6207
19450TIP3   OH279840   5.805   0.295   3.597 -0.4609 -0.3486  0.0999
19450TIP3    H179841   5.851   0.371   3.562 -1.9433  0.0650 -1.0908
19450TIP3    H279842   5.740   0.332   3.657 -0.7280 -0.7274  0.0461
19451TIP3   OH279843   1.604   6.421  11.610  0.1556  0.2421 -0.0552
19451TIP3    H179844   1.635   6.479  11.680 -1.0773 -0.0866  0.8043
19451TIP3    H279845   1.680   6.410  11.553  0.8258  1.5667  0.5213
19452TIP3   OH279846   4.272   0.527  15.494 -0.2734 -0.4820 -0.4054
19452TIP3    H179847   4.337   0.526  15.565 -0.7002  0.3531  0.0185
19452TIP3    H279848   4.298   0.601  15.439 -0.2120 -0.8479 -0.8817
19453TIP3   OH279849   1.297   0.720  16.604  0.0427  0.3168  0.5910
19453TIP3    H179850   1.332   0.635  16.579 -0.1101 -0.2470  2.1956
19453TIP3    H279851   1.204   0.716  16.583 -0.2234 -0.4030  1.8664
19454TIP3   OH279852   2.773   1.431   3.330 -0.7797  0.7903  0.5030
19454TIP3    H179853   2.748   1.464   3.244 -0.3557 -2.5081 -1.0303
19454TIP3    H279854   2.700   1.375   3.356 -0.1256  0.3690  1.4959
19455TIP3   OH279855   1.985   0.272  12.820 -0.2502  0.6993 -0.0598
19455TIP3    H179856   1.981   0.202  12.885  0.7386  0.7488  0.0699
19455TIP3    H279857   1.973   0.353  12.870  0.3066  0.7243  0.0391
19456TIP3   OH279858   0.821   4.667  17.027 -0.3939 -0.0988 -0.2942
19456TIP3    H179859   0.893   4.730  17.038  1.3207 -2.0195  0.0689
19456TIP3    H279860   0.778   4.694  16.946 -0.7465  2.4515  0.6411
19457TIP3   OH279861   4.033   5.183   2.846 -0.0255 -0.4715  0.0280
19457TIP3    H179862   3.953   5.132   2.857  0.7085 -2.0265 -1.3260
19457TIP3    H279863   4.071   5.189   2.934 -0.3902 -1.8791  0.3035
19458TIP3   OH279864   2.218   0.963   4.330 -0.1552 -0.2908 -0.4176
19458TIP3    H179865   2.122   0.960   4.324 -0.0953 -1.1664 -1.1295
19458TIP3    H279866   2.248   0.955   4.239  0.6098 -0.8064 -0.1255
19459TIP3   OH279867   0.931   5.735  13.014  0.6000 -0.3074 -0.0605
19459TIP3    H179868   0.887   5.790  13.079 -0.1587 -2.6281  1.5061
19459TIP3    H279869   0.862   5.680  12.978  1.5864 -1.4044 -0.3448
19460TIP3   OH279870   5.376   6.191   3.239 -0.7064 -0.5394 -0.3500
19460TIP3    H179871   5.394   6.267   3.183 -2.8997 -0.1579 -0.6280
19460TIP3    H279872   5.345   6.124   3.178 -0.0299 -1.2380  0.0591
19461TIP3   OH279873   1.100   0.702   2.388  0.2677 -0.3836  0.2001
19461TIP3    H179874   1.028   0.643   2.365  1.4012 -1.1599 -1.5862
19461TIP3    H279875   1.104   0.699   2.483 -0.6548 -2.0652  0.2273
19462TIP3   OH279876   2.274   1.445  14.915 -0.0325 -0.5508  0.1111
19462TIP3    H179877   2.330   1.408  14.846 -0.9848 -1.9155  0.0191
19462TIP3    H279878   2.234   1.522  14.875 -0.4727 -1.2558 -0.8383
19463TIP3   OH279879   0.252   5.523   2.428 -0.4566 -0.2030 -0.2558
19463TIP3    H179880   0.186   5.589   2.448  0.0159 -0.0329  0.7846
19463TIP3    H279881   0.258   5.469   2.507 -0.0903 -0.8581 -0.7135
19464TIP3   OH279882   2.327   2.829  11.469 -0.1073 -0.0374  0.2945
19464TIP3    H179883   2.321   2.825  11.374  2.9542 -0.7746  0.0051
19464TIP3    H279884   2.295   2.916  11.492 -1.2351  0.0158 -1.3453
19465TIP3   OH279885   1.622   0.663  14.203  0.0188 -0.0442 -0.2289
19465TIP3    H179886   1.575   0.714  14.270  0.9735  0.5720  0.0004
19465TIP3    H279887   1.588   0.574  14.212 -2.0210  0.6262 -0.9392
19466TIP3   OH279888   2.687   6.411   4.554  0.5121  0.2023  0.1803
19466TIP3    H179889   2.690   6.346   4.625  0.7923  0.4818  0.4240
19466TIP3    H279890   2.614   6.468   4.577 -1.1569 -1.2611 -1.1254
19467TIP3   OH279891   0.165   2.180   1.489 -0.1505 -0.0788 -0.3147
19467TIP3    H179892   0.081   2.172   1.443 -0.1043 -0.6596 -0.3082
19467TIP3    H279893   0.148   2.149   1.578  0.7369 -3.2842 -1.1077
19468TIP3   OH279894   0.525   1.018   1.444  0.2451  0.0070  0.2914
19468TIP3    H179895   0.486   1.095   1.405  1.1953  0.1416 -0.4333
19468TIP3    H279896   0.608   1.048   1.482 -0.3172 -0.2583  1.8375
19469TIP3   OH279897   4.905   5.516  13.011  0.0108  0.4065  0.1607
19469TIP3    H179898   4.950   5.433  13.022  1.9804  1.3672 -0.0769
19469TIP3    H279899   4.904   5.555  13.098  1.4967  1.2463 -0.1680
19470TIP3   OH279900   4.554   1.369  14.826 -0.1216  0.0596  0.3998
19470TIP3    H179901   4.610   1.431  14.780 -0.0381 -0.2684  0.0544
19470TIP3    H279902   4.506   1.323  14.757  0.3835 -0.7960  0.5986
19471TIP3   OH279903   4.598   3.979   3.642 -0.7214 -0.1683  0.2304
19471TIP3    H179904   4.618   4.021   3.726  0.9212 -0.1442 -0.1481
19471TIP3    H279905   4.502   3.972   3.642 -0.7772 -0.0175  2.0188
19472TIP3   OH279906   4.487   3.739   2.047 -0.1227  0.0312 -0.0227
19472TIP3    H179907   4.515   3.785   1.967  1.3587  0.0621  0.4750
19472TIP3    H279908   4.544   3.662   2.051 -0.5723 -0.2716  0.7177
19473TIP3   OH279909   2.107   3.105  13.284 -0.3411  0.1460 -0.2787
19473TIP3    H179910   2.093   3.018  13.246 -0.9449 -0.3834  1.0870
19473TIP3    H279911   2.106   3.165  13.209  0.6005 -1.0643 -1.3061
19474TIP3   OH279912   1.750   3.921  16.272  0.6874 -0.1438  0.5808
19474TIP3    H179913   1.819   3.859  16.293  1.4736  0.0028 -1.3537
19474TIP3    H279914   1.754   3.987  16.342  1.1622 -1.1858  1.5499
19475TIP3   OH279915   4.208   0.973  17.280 -0.4267  0.0966  0.5586
19475TIP3    H179916   4.290   1.004  17.319 -0.0022  1.0853 -1.0120
19475TIP3    H279917   4.215   0.877  17.283  1.8007  0.1155 -1.4610
19476TIP3   OH279918   0.915   6.228  12.201  0.5859  0.0748 -0.2371
19476TIP3    H179919   0.842   6.179  12.162  0.2089  1.1006 -0.8775
19476TIP3    H279920   0.978   6.238  12.130  2.2733 -2.3817  0.7632
19477TIP3   OH279921   0.975   0.549  16.234  0.0409 -0.6322  0.3782
19477TIP3    H179922   1.039   0.522  16.168  1.6491 -0.3667  1.7507
19477TIP3    H279923   1.025   0.603  16.295 -1.6663  0.1518  1.1567
19478TIP3   OH279924   4.398   6.420  11.549  0.5539 -0.0139 -0.0352
19478TIP3    H179925   4.391   6.511  11.519  0.0515 -0.4854 -1.4697
19478TIP3    H279926   4.365   6.421  11.639  1.1963  1.3319  0.2039
19479TIP3   OH279927   6.497   3.322  17.255 -0.0266  0.0254 -0.0988
19479TIP3    H179928   6.543   3.244  17.224 -2.5360 -0.3063 -3.5974
19479TIP3    H279929   6.427   3.288  17.311 -0.5424 -0.2146 -0.8660
19480TIP3   OH279930   0.036   3.169  12.615  0.0371 -0.0736  0.9014
19480TIP3    H179931   0.121   3.154  12.573  0.3466  0.4340  1.3217
19480TIP3    H279932  -0.028   3.138  12.552  0.5113  0.2425  0.2520
19481TIP3   OH279933   3.302   1.877  13.153 -0.0418 -0.1943  0.1905
19481TIP3    H179934   3.347   1.958  13.126 -0.1483  0.5213  2.0093
19481TIP3    H279935   3.364   1.807  13.132  0.6255  0.4917 -0.1820
19482TIP3   OH279936   3.322   5.504   1.416  0.3618 -0.1242 -0.5968
19482TIP3    H179937   3.381   5.533   1.346  0.7931  0.4379 -0.0158
19482TIP3    H279938   3.318   5.579   1.476 -0.8202 -0.2162 -0.5453
19483TIP3   OH279939   2.986   0.132  14.298 -0.5309 -0.6345 -0.5319
19483TIP3    H179940   2.941   0.176  14.370 -1.0323  0.0300 -1.2344
19483TIP3    H279941   3.034   0.061  14.340 -0.2222  0.1863  0.5532
19484TIP3   OH279942   2.048   2.890  13.120 -0.3849  0.0744 -0.2906
19484TIP3    H179943   1.996   2.946  13.062  0.4291  2.3525  1.0685
19484TIP3    H279944   1.984   2.829  13.157 -1.1652 -0.4535 -2.3756
19485TIP3   OH279945   6.793   2.229  16.393  0.1462 -0.1053  0.0072
19485TIP3    H179946   6.856   2.158  16.378 -0.0700 -0.0542 -1.2359
19485TIP3    H279947   6.846   2.304  16.420  0.5337 -0.2922 -0.2351
19486TIP3   OH279948   0.679   1.668  11.264 -0.5782  0.0678  0.1619
19486TIP3    H179949   0.665   1.744  11.207 -0.6375  0.2055  0.3583
19486TIP3    H279950   0.732   1.608  11.212 -0.2195  0.4011  0.1393
19487TIP3   OH279951   2.685   2.048  10.438  0.1179  0.1065 -0.1159
19487TIP3    H179952   2.637   1.994  10.374 -0.9558  1.7189 -0.7259
19487TIP3    H279953   2.670   2.004  10.522 -2.5134  0.5405 -0.2757
19488TIP3   OH279954   2.997   0.772   4.875  0.5879 -0.3998 -0.1205
19488TIP3    H179955   3.040   0.810   4.951  1.4943 -1.4392 -0.0864
19488TIP3    H279956   2.907   0.755   4.905  1.0939 -1.3725  0.9512
19489TIP3   OH279957   2.521   0.613   3.676 -0.8898 -0.4827  0.2894
19489TIP3    H179958   2.479   0.699   3.675 -0.6916 -0.3742  0.6903
19489TIP3    H279959   2.451   0.552   3.697 -0.5726 -0.1159  2.7081
19490TIP3   OH279960   6.408   4.539   0.222 -0.4412 -0.1473 -0.3724
19490TIP3    H179961   6.358   4.472   0.175  0.7287 -0.7917 -0.7255
19490TIP3    H279962   6.461   4.490   0.285 -0.5402  0.5607  0.2857
19491TIP3   OH279963   0.460   1.285   1.836  0.2267 -0.2379  0.3298
19491TIP3    H179964   0.545   1.244   1.848 -0.3601 -1.3732  0.8063
19491TIP3    H279965   0.397   1.213   1.845 -0.7440  0.4371 -0.7543
19492TIP3   OH279966   3.445   3.180  16.873 -0.1836  0.5927  0.4033
19492TIP3    H179967   3.518   3.194  16.933  0.5800  1.1667 -0.6451
19492TIP3    H279968   3.431   3.085  16.874 -0.1699  0.5844  1.4518
19493TIP3   OH279969   4.378   3.017   4.321 -0.0481  0.4690 -0.0597
19493TIP3    H179970   4.382   3.110   4.340 -1.6198  0.8635 -1.4788
19493TIP3    H279971   4.365   2.976   4.407  0.2964  1.5628  0.5340
19494TIP3   OH279972   2.671   0.875   3.879 -0.1995 -0.0277  0.4618
19494TIP3    H179973   2.748   0.820   3.866 -0.8558 -1.1116  1.0658
19494TIP3    H279974   2.705   0.956   3.917  0.7053 -0.2312  0.1039
19495TIP3   OH279975   1.259   1.627   5.491  0.1545 -0.1670  0.1100
19495TIP3    H179976   1.334   1.606   5.436  0.9891  0.6963  0.8816
19495TIP3    H279977   1.243   1.720   5.476 -0.0907 -0.1012  0.7453
19496TIP3   OH279978   3.103   2.239  13.403  0.1457 -0.2602  0.0524
19496TIP3    H179979   3.069   2.223  13.491  0.1199 -0.9883 -0.0779
19496TIP3    H279980   3.073   2.326  13.380  1.3497  0.5203  1.3142
19497TIP3   OH279981   0.945   3.696  12.140  0.3163 -0.2577  0.1890
19497TIP3    H179982   0.923   3.749  12.064  0.8011 -2.0420 -1.2807
19497TIP3    H279983   0.888   3.727  12.210  0.0537  1.6198 -0.8088
19498TIP3   OH279984   5.944   0.523  13.795  0.1216  0.0018  0.3143
19498TIP3    H179985   6.026   0.561  13.763  0.9716  0.2178  2.6030
19498TIP3    H279986   5.955   0.429  13.784 -0.7227  0.1147 -2.4205
19499TIP3   OH279987   5.874   2.535  12.390  0.0208  0.2438 -0.6411
19499TIP3    H179988   5.896   2.627  12.406  0.7134 -0.0609  0.1731
19499TIP3    H279989   5.812   2.539  12.317 -2.0151  1.5721  1.0049
19500TIP3   OH279990   4.363   6.463  13.224 -0.4563  0.5347  0.0791
19500TIP3    H179991   4.408   6.474  13.140 -1.1834  1.8867 -0.1728
19500TIP3    H279992   4.381   6.544  13.271 -1.1875  0.3663  0.6667
19501TIP3   OH279993   5.773   6.463   5.235  0.0777  0.4320  0.3450
19501TIP3    H179994   5.732   6.455   5.321  0.9358 -0.3457  0.7008
19501TIP3    H279995   5.859   6.422   5.246 -0.4379 -1.2362 -1.3030
19502TIP3   OH279996   2.635   3.564  16.689 -0.0342 -0.1433  0.3117
19502TIP3    H179997   2.706   3.625  16.708  0.8883 -1.5401  1.5735
19502TIP3    H279998   2.556   3.609  16.720  0.1817  1.6383 -1.5666
19503TIP3   OH279999   2.110   2.631  11.830  0.2540 -0.1327 -0.2561
19503TIP3    H180000   2.053   2.556  11.815 -1.6750  1.5214 -1.8335
19503TIP3    H280001   2.152   2.647  11.746  2.5890 -0.8552  0.6847
19504TIP3   OH280002   4.098   5.454   4.798 -0.0335 -0.0052  0.1027
19504TIP3    H180003   4.183   5.416   4.776 -0.5376 -0.0192 -2.0770
19504TIP3    H280004   4.082   5.428   4.889  1.3506 -1.7552 -0.1098
19505TIP3   OH280005   6.397   0.652  16.485 -0.1119  0.1223  0.3639
19505TIP3    H180006   6.436   0.597  16.417 -1.4037 -0.7589  0.3015
19505TIP3    H280007   6.303   0.633  16.481 -0.3122  0.6502  1.8679
19506TIP3   OH280008   0.825   0.384  13.772 -0.2015  0.0505  0.5603
19506TIP3    H180009   0.869   0.437  13.705 -1.4066 -0.4210 -0.6602
19506TIP3    H280010   0.861   0.296  13.760  0.3446  0.1695  1.2585
19507TIP3   OH280011   3.376   3.704  13.305  0.3419  0.6277  0.4751
19507TIP3    H180012   3.315   3.651  13.356  2.1668 -0.3536  1.7443
19507TIP3    H280013   3.374   3.666  13.217 -0.9363  0.7077  0.4512
19508TIP3   OH280014   3.122   0.847  14.642 -0.4497  0.1214 -0.0057
19508TIP3    H180015   3.141   0.763  14.599 -0.9974 -0.7337  1.3623
19508TIP3    H280016   3.208   0.887  14.655  0.0712 -1.3813  1.5543
19509TIP3   OH280017   3.048   0.940   5.415 -0.3425 -0.5566 -0.6483
19509TIP3    H180018   3.097   0.962   5.494  0.0002 -2.5248 -0.2668
19509TIP3    H280019   2.971   0.893   5.447 -0.1671 -1.4357 -1.4852
19510TIP3   OH280020   3.236   1.152  17.019  0.2529  0.4873  0.4789
19510TIP3    H180021   3.270   1.065  17.039  0.3427  0.5004  0.3881
19510TIP3    H280022   3.141   1.144  17.031  0.0338 -0.1345 -1.3357
19511TIP3   OH280023   3.158   0.394   6.789  0.2135  0.2023 -0.4637
19511TIP3    H180024   3.239   0.420   6.744  0.8485 -0.7406  0.0981
19511TIP3    H280025   3.108   0.346   6.723  1.8487 -2.5900  0.1541
19512TIP3   OH280026   5.897   4.212   5.074  0.1959  0.1475 -0.1043
19512TIP3    H180027   5.871   4.208   5.166  1.1508 -1.4861  0.1403
19512TIP3    H280028   5.897   4.121   5.045 -0.4624  0.6591 -1.8578
19513TIP3   OH280029   3.045   6.176  12.479 -0.4001 -0.1294  0.2723
19513TIP3    H180030   3.081   6.139  12.559  0.6220 -3.5320 -1.5648
19513TIP3    H280031   2.950   6.162  12.487 -0.1825 -1.8271  0.3635
19514TIP3   OH280032   2.044   5.990   6.672 -0.0216 -0.3218 -0.1796
19514TIP3    H180033   2.022   5.991   6.578  0.8342  0.2221 -0.3853
19514TIP3    H280034   2.115   5.926   6.679 -0.3146 -0.6109  0.1534
19515TIP3   OH280035   4.441   5.777  16.749 -0.0434 -0.3252  0.0161
19515TIP3    H180036   4.441   5.749  16.840  0.1107  0.0593  0.1325
19515TIP3    H280037   4.444   5.872  16.752 -1.5511 -0.2305 -0.3644
19516TIP3   OH280038   5.865   5.884  16.120  0.2743  0.6074  0.4522
19516TIP3    H180039   5.873   5.807  16.063  0.3363 -0.0341  1.3043
19516TIP3    H280040   5.878   5.850  16.208 -0.3589  1.4905  0.9066
19517TIP3   OH280041   0.693   6.643  16.297  0.0002 -0.0590 -0.1745
19517TIP3    H180042   0.702   6.631  16.203 -1.7006  0.7411 -0.4803
19517TIP3    H280043   0.753   6.715  16.318  1.6708 -1.3525 -0.2980
19518TIP3   OH280044   3.530   2.754  16.159 -0.2427  0.2450 -0.2504
19518TIP3    H180045   3.516   2.780  16.250 -0.0192  0.3503 -0.2436
19518TIP3    H280046   3.614   2.707  16.160 -1.1792 -1.5099 -0.0675
19519TIP3   OH280047   5.648   6.473  16.421 -0.3561  0.0808 -0.1602
19519TIP3    H180048   5.647   6.423  16.502 -2.2046 -0.6987 -0.6304
19519TIP3    H280049   5.600   6.553  16.441 -0.2153  0.2016 -0.2982
19520TIP3   OH280050   0.504   3.108  12.844 -0.3877 -0.5145  0.0014
19520TIP3    H180051   0.587   3.087  12.888 -0.7056 -2.4280 -0.1931
19520TIP3    H280052   0.499   3.203  12.846  0.9844 -0.4233  1.5552
19521TIP3   OH280053   3.230   5.718  13.936  0.1095  0.4623 -0.2261
19521TIP3    H180054   3.182   5.797  13.960 -0.7916 -0.4415  1.0670
19521TIP3    H280055   3.263   5.684  14.019  0.2070 -0.6964 -0.7241
19522TIP3   OH280056   6.170   0.596   4.290  0.2770  0.0710  0.9579
19522TIP3    H180057   6.081   0.606   4.325 -0.8674 -1.6682 -1.1335
19522TIP3    H280058   6.186   0.677   4.241  0.0401  0.5897  1.7313
19523TIP3   OH280059   3.916   5.692   4.456 -0.0040 -0.2695 -0.3426
19523TIP3    H180060   3.962   5.695   4.540  0.2307 -0.7400 -0.4488
19523TIP3    H280061   3.901   5.783   4.433 -1.2825 -0.1505  0.8718
19524TIP3   OH280062   1.505   2.992  14.860 -0.3042 -0.6294 -0.3363
19524TIP3    H180063   1.487   2.905  14.825 -0.3134 -0.9627  0.4894
19524TIP3    H280064   1.437   3.047  14.820 -0.3708 -1.0151 -0.7690
19525TIP3   OH280065   6.708   5.337   1.194  0.0734  0.5673  0.4912
19525TIP3    H180066   6.649   5.262   1.202  1.2415 -0.3882  0.4536
19525TIP3    H280067   6.758   5.336   1.276  2.6313 -0.9576 -0.9811
19526TIP3   OH280068   5.261   1.550   3.161 -0.0192  0.0212 -0.2818
19526TIP3    H180069   5.324   1.478   3.158 -1.0387 -1.0879  1.9837
19526TIP3    H280070   5.185   1.519   3.112 -1.4122 -1.6067  2.6448
19527TIP3   OH280071   1.621   1.386  14.048 -0.1312  0.3547 -0.1594
19527TIP3    H180072   1.615   1.450  13.977  0.4300 -0.5213 -1.0254
19527TIP3    H280073   1.706   1.343  14.034 -1.7798 -2.7604 -1.5488
19528TIP3   OH280074   5.411   4.314   5.200 -0.4513  0.6611  0.2359
19528TIP3    H180075   5.318   4.335   5.197 -0.5064  0.3021 -0.6449
19528TIP3    H280076   5.419   4.231   5.155  0.3474  0.8495  0.0073
19529TIP3   OH280077   5.987   2.997   4.086 -0.4325  0.3143 -0.6002
19529TIP3    H180078   6.003   2.902   4.087 -1.2047  0.1524 -1.7898
19529TIP3    H280079   6.061   3.033   4.038  0.5799  0.5021  1.0040
19530TIP3   OH280080   3.888   2.523   6.169 -0.6003  0.7943 -0.1743
19530TIP3    H180081   3.800   2.494   6.144  0.1174 -0.4478 -1.3741
19530TIP3    H280082   3.947   2.469   6.116  0.9358  0.3834  1.8392
19531TIP3   OH280083   3.505   5.186  11.337  0.2993  0.0611  0.2813
19531TIP3    H180084   3.580   5.245  11.332  1.3954 -1.0757  1.9957
19531TIP3    H280085   3.538   5.102  11.306 -0.4390 -0.3057  0.4538
19532TIP3   OH280086   6.435   0.986  15.206 -0.6657  0.0971  0.7176
19532TIP3    H180087   6.368   0.917  15.203  0.6458 -1.1808 -1.0968
19532TIP3    H280088   6.385   1.067  15.197 -2.1751 -0.6375  1.9365
19533TIP3   OH280089   3.781   3.284  16.809  0.6019 -0.1965 -0.2362
19533TIP3    H180090   3.742   3.265  16.894 -0.0528  1.7515 -0.0599
19533TIP3    H280091   3.785   3.199  16.765 -0.6948 -0.9695  1.0579
19534TIP3   OH280092   5.173   5.465   2.976  0.4660 -0.0559 -0.2174
19534TIP3    H180093   5.258   5.508   2.977  0.3783  0.1169 -0.2648
19534TIP3    H280094   5.142   5.476   2.886 -0.6566  1.9375  0.3591
19535TIP3   OH280095   0.068   4.822  14.162 -0.5742  0.3800  0.0727
19535TIP3    H180096   0.137   4.885  14.183 -0.4647  0.1086  0.5544
19535TIP3    H280097   0.025   4.858  14.085  0.1372  0.5375 -0.2662
19536TIP3   OH280098   6.517   3.016   2.161 -0.2808  0.4947 -0.5148
19536TIP3    H180099   6.448   3.081   2.146 -0.8148 -0.3984 -2.2280
19536TIP3    H280100   6.470   2.939   2.196 -0.5884 -0.8294 -3.5174
19537TIP3   OH280101   0.995   1.192   0.951  0.1857 -0.1598 -0.1509
19537TIP3    H180102   1.037   1.271   0.986  0.2144 -0.4656  0.5119
19537TIP3    H280103   1.025   1.121   1.008  0.8301 -0.7931 -1.2307
19538TIP3   OH280104   5.045   0.570  13.738  0.2416 -0.2042 -0.0312
19538TIP3    H180105   5.087   0.605  13.659 -0.3741  2.8226  0.8687
19538TIP3    H280106   4.959   0.611  13.739  0.5683  0.6047  2.6549
19539TIP3   OH280107   2.420   1.699  12.270  0.0873 -0.1643  0.3404
19539TIP3    H180108   2.328   1.674  12.276 -0.2130  1.0451  0.9246
19539TIP3    H280109   2.450   1.661  12.187 -0.4022 -2.2006  1.0236
19540TIP3   OH280110   3.326   6.728   2.144 -0.1035 -0.6193  0.6455
19540TIP3    H180111   3.250   6.782   2.122  0.3730  0.1826  0.9677
19540TIP3    H280112   3.401   6.785   2.130  0.4714 -1.4923  0.0722
19541TIP3   OH280113   4.368   4.989  14.586 -0.0725 -0.5763 -0.6888
19541TIP3    H180114   4.346   5.074  14.549 -0.2752 -0.1213  0.4433
19541TIP3    H280115   4.317   4.927  14.534  0.7421 -0.1128 -2.0899
19542TIP3   OH280116   1.979   5.756  13.909  0.5937 -0.1731 -0.4992
19542TIP3    H180117   1.933   5.706  13.843 -1.7970  1.2760 -0.0587
19542TIP3    H280118   1.951   5.847  13.895  2.1808  0.5906  0.7828
19543TIP3   OH280119   4.974   5.881  16.715  0.2126  0.3123 -0.5379
19543TIP3    H180120   4.912   5.826  16.762 -0.6910  1.3925 -0.4056
19543TIP3    H280121   4.924   5.916  16.641  0.9974  0.3107 -1.0854
19544TIP3   OH280122   4.487   4.308  15.750  0.0773 -0.2603  0.3982
19544TIP3    H180123   4.581   4.289  15.756 -0.2669 -2.1925  0.3443
19544TIP3    H280124   4.469   4.364  15.825  1.3733  0.6233  0.0758
19545TIP3   OH280125   6.107   5.696   4.169 -0.3905  0.3438  0.0669
19545TIP3    H180126   6.093   5.662   4.080  0.8079  1.1270 -0.4580
19545TIP3    H280127   6.052   5.774   4.174 -0.4641  0.2959  0.0151
19546TIP3   OH280128   0.532   5.543   0.922  0.5444  0.1375  0.3429
19546TIP3    H180129   0.627   5.534   0.927  0.6834  0.7035 -0.8539
19546TIP3    H280130   0.513   5.620   0.975  1.1880  2.0432 -1.9763
19547TIP3   OH280131   2.735   4.709  12.387  0.1724  0.1194 -0.3667
19547TIP3    H180132   2.692   4.750  12.312 -1.2649  0.9858  0.8635
19547TIP3    H280133   2.665   4.696  12.451  1.7218  1.6671  1.7842
19548TIP3   OH280134   3.096   6.600  14.662 -0.3282  0.3533 -0.1757
19548TIP3    H180135   3.003   6.604  14.684 -0.5277 -0.1046 -0.8791
19548TIP3    H280136   3.141   6.621  14.743 -1.0409  0.1475  0.2834
19549TIP3   OH280137   6.681   2.463  15.910 -0.2928  0.1639 -0.2437
19549TIP3    H180138   6.709   2.552  15.890  0.5946  0.3701  1.7263
19549TIP3    H280139   6.596   2.474  15.953  0.0587  0.1173  0.4753
19550TIP3   OH280140   3.965   5.459   0.144 -0.4146  0.1252  0.6354
19550TIP3    H180141   3.932   5.374   0.173 -2.9115  1.5890  2.4331
19550TIP3    H280142   4.039   5.477   0.202 -0.9358 -0.1230  1.3959
19551TIP3   OH280143   5.735   2.325   0.549  0.3965 -0.0761 -0.0795
19551TIP3    H180144   5.762   2.356   0.463  1.2694 -1.0003 -0.1640
19551TIP3    H280145   5.705   2.235   0.534 -1.3316  0.4129  0.2698
19552TIP3   OH280146   0.940   2.651  14.818 -0.8274  0.2612 -0.5446
19552TIP3    H180147   0.982   2.737  14.813 -0.5143  0.1682  0.3589
19552TIP3    H280148   1.009   2.592  14.846 -1.7020  0.2589  1.8524
19553TIP3   OH280149   3.175   2.864   3.943  0.1938 -0.0090 -0.8280
19553TIP3    H180150   3.258   2.819   3.957  0.8983  1.7880  1.5019
19553TIP3    H280151   3.116   2.795   3.912  2.0412 -1.7627 -0.7035
19554TIP3   OH280152   1.672   1.092  13.415  0.1783 -0.6851 -0.1027
19554TIP3    H180153   1.749   1.086  13.358  0.8332  0.4429  0.6146
19554TIP3    H280154   1.684   1.175  13.462 -2.3201  0.4098 -1.2174
19555TIP3   OH280155   4.443   5.704  12.359  0.0125 -0.4100 -0.6892
19555TIP3    H180156   4.491   5.668  12.284 -0.6346 -1.7172 -0.5046
19555TIP3    H280157   4.483   5.661  12.435  0.7068  0.9514 -0.2518
19556TIP3   OH280158   0.982   1.015  12.266  0.3480 -0.0066 -0.3676
19556TIP3    H180159   0.936   1.050  12.189  1.1002 -0.7743 -1.1996
19556TIP3    H280160   0.948   0.927  12.277  0.0531  0.1916  0.3551
19557TIP3   OH280161   4.247   5.195  13.371 -0.3540 -0.1272  0.5128
19557TIP3    H180162   4.178   5.206  13.306 -0.5502  1.5484  0.9737
19557TIP3    H280163   4.293   5.115  13.343 -2.4983 -1.3394  0.2618
19558TIP3   OH280164   0.877   0.305  12.394 -0.1092 -0.7342 -0.1031
19558TIP3    H180165   0.873   0.222  12.346 -0.2851 -0.9682  0.3075
19558TIP3    H280166   0.966   0.306  12.431 -0.6578 -1.5577  1.3072
19559TIP3   OH280167   3.287   4.318  11.818  0.4091 -0.2411  0.0720
19559TIP3    H180168   3.239   4.350  11.741 -2.7309 -0.5826  1.7058
19559TIP3    H280169   3.327   4.396  11.856 -0.6034  0.4759 -0.2763
19560TIP3   OH280170   4.099   1.988   1.873  0.4638 -0.0081  0.5853
19560TIP3    H180171   4.032   2.012   1.937 -1.3508 -1.0465 -0.8184
19560TIP3    H280172   4.127   2.071   1.836  1.4381  0.6037  2.5420
19561TIP3   OH280173   3.268   2.961   1.155 -0.4867 -0.2266  0.2099
19561TIP3    H180174   3.296   3.017   1.082  0.2920  0.9863  1.3877
19561TIP3    H280175   3.172   2.963   1.152 -0.4676  0.8057 -0.0611
19562TIP3   OH280176   4.876   6.086   3.516 -0.3278  0.0320 -0.0117
19562TIP3    H180177   4.830   6.101   3.433 -1.9078  1.0966  1.0149
19562TIP3    H280178   4.832   6.011   3.555  1.0159 -1.0592 -0.5136
19563TIP3   OH280179   3.850   1.857  15.959  0.4974  0.7301  0.5589
19563TIP3    H180180   3.869   1.945  15.926  1.6591 -0.0375 -0.9269
19563TIP3    H280181   3.905   1.799  15.907 -0.7237 -0.9617  1.0541
19564TIP3   OH280182   0.104   5.698  11.493  0.1931 -0.0390  0.0886
19564TIP3    H180183   0.011   5.720  11.486  0.0780 -0.0037  1.3779
19564TIP3    H280184   0.147   5.783  11.505  0.5911  0.0950 -2.0103
19565TIP3   OH280185   6.185   5.064  15.268 -0.1789 -0.0781  0.3895
19565TIP3    H180186   6.142   5.149  15.280  0.8775  0.7635 -1.3430
19565TIP3    H280187   6.141   5.025  15.193 -0.1214 -0.7060  0.6807
19566TIP3   OH280188   6.251   2.475  13.013 -0.5269 -0.5755 -0.0696
19566TIP3    H180189   6.310   2.412  13.056 -0.0169 -0.8968 -1.2196
19566TIP3    H280190   6.181   2.422  12.976 -0.4993 -0.3933 -0.3886
19567TIP3   OH280191   2.409   1.207  13.819  0.7367 -0.1137  0.1742
19567TIP3    H180192   2.365   1.246  13.895  0.8637 -1.7210  1.1235
19567TIP3    H280193   2.494   1.251  13.816 -0.1535  1.6600 -0.5282
19568TIP3   OH280194   1.685   2.270   0.333 -0.0560 -0.1876  0.4875
19568TIP3    H180195   1.667   2.361   0.355 -1.3399 -0.6344  1.4114
19568TIP3    H280196   1.643   2.220   0.403  0.0433 -1.5062 -0.3637
19569TIP3   OH280197   2.935   1.369  16.269  0.5660 -0.7676 -0.5451
19569TIP3    H180198   2.885   1.343  16.346  2.0570 -1.8263  0.1079
19569TIP3    H280199   2.988   1.444  16.298  2.0537 -1.9332 -0.1249
19570TIP3   OH280200   4.457   6.511   0.866 -0.2806 -0.0767  0.2617
19570TIP3    H180201   4.490   6.566   0.937 -0.2387  0.1907  0.0321
19570TIP3    H280202   4.363   6.502   0.884 -0.0564 -1.0685  1.0740
19571TIP3   OH280203   0.767   0.863  15.385  0.7572 -0.0009 -0.2071
19571TIP3    H180204   0.767   0.772  15.415  0.2810  0.0279 -0.1205
19571TIP3    H280205   0.765   0.915  15.465 -1.2326  0.0773 -0.2512
19572TIP3   OH280206   0.468   3.429   0.004 -0.2530 -0.6008 -0.7779
19572TIP3    H180207   0.389   3.376  -0.002 -0.7567  0.2839 -2.3077
19572TIP3    H280208   0.437   3.517   0.027  0.2868 -0.2881 -1.2064
19573TIP3   OH280209   6.733   3.668  11.933 -0.5461  0.0268 -0.9440
19573TIP3    H180210   6.718   3.733  11.864 -2.3154  0.2710 -0.3888
19573TIP3    H280211   6.657   3.677  11.991  0.8928 -0.1239  1.0790
19574TIP3   OH280212   6.423   2.187   1.261 -0.5118 -0.3414 -0.0946
19574TIP3    H180213   6.487   2.161   1.194  0.3398 -0.8050  0.8730
19574TIP3    H280214   6.465   2.165   1.344 -1.7987 -0.3369  0.5815
19575TIP3   OH280215   3.852   6.524  12.595 -0.3355 -0.1212  0.0550
19575TIP3    H180216   3.846   6.588  12.523  0.9537  0.2673  0.2734
19575TIP3    H280217   3.941   6.489  12.589  1.5277  3.0866  4.0305
19576TIP3   OH280218   2.025   4.309   3.999 -0.4831  0.2565  0.0445
19576TIP3    H180219   2.042   4.245   3.930 -1.4674  0.1649 -0.1355
19576TIP3    H280220   2.025   4.393   3.954  1.5222  0.4918  0.3995
19577TIP3   OH280221   2.032   5.418  15.926  0.2833  0.2606  0.5928
19577TIP3    H180222   2.064   5.328  15.933  1.6993  0.6403 -0.5707
19577TIP3    H280223   1.965   5.415  15.857 -0.5164 -0.0904  1.3634
19578TIP3   OH280224   4.333   0.518   0.692  0.4481 -0.0868 -0.0145
19578TIP3    H180225   4.394   0.588   0.714 -2.0722  2.7674 -1.3603
19578TIP3    H280226   4.364   0.486   0.607  1.2272 -0.2126  0.2989
19579TIP3   OH280227   5.118   6.327   2.070 -0.6812 -0.5815 -1.1843
19579TIP3    H180228   5.093   6.244   2.112  1.2896 -0.0367  1.3061
19579TIP3    H280229   5.187   6.303   2.009 -0.0520 -0.8076 -0.4022
19580TIP3   OH280230   0.501   4.521  12.724 -0.3031 -0.5210  0.1231
19580TIP3    H180231   0.424   4.484  12.767  0.1407 -1.7032 -0.0657
19580TIP3    H280232   0.477   4.526  12.632 -1.0031  1.3685  0.3661
19581TIP3   OH280233   0.553   0.041  13.497  0.5508 -0.1041 -0.1057
19581TIP3    H180234   0.574   0.082  13.413  0.5437  0.0183 -0.0485
19581TIP3    H280235   0.633  -0.005  13.522 -0.0751 -1.9027 -1.1790
19582TIP3   OH280236   2.863   4.544  15.969  0.2669  0.6301 -0.1617
19582TIP3    H180237   2.852   4.502  15.884 -0.8336  0.3587  0.1028
19582TIP3    H280238   2.908   4.479  16.023 -1.1098 -0.1212  0.1413
19583TIP3   OH280239   6.236   3.549  12.916 -0.0715  0.0243 -0.2790
19583TIP3    H180240   6.251   3.631  12.962  0.8827 -0.2529 -0.0838
19583TIP3    H280241   6.250   3.481  12.982  2.2239 -0.4228 -1.1223
19584TIP3   OH280242   2.548   5.809  15.486 -0.8570  0.9208 -0.0123
19584TIP3    H180243   2.607   5.733  15.492  0.0186  1.5640 -0.3603
19584TIP3    H280244   2.467   5.772  15.451  0.0493  0.3865 -1.6491
19585TIP3   OH280245   1.454   5.793  15.351 -0.0178  0.1780 -0.1946
19585TIP3    H180246   1.458   5.715  15.407 -1.8951  0.5335  0.4950
19585TIP3    H280247   1.433   5.758  15.264  0.5334 -0.1789 -0.1922
19586TIP3   OH280248   0.569   5.049  13.676 -0.2880 -0.3395  0.0728
19586TIP3    H180249   0.535   4.961  13.694 -0.8357  0.2402  2.1539
19586TIP3    H280250   0.522   5.106  13.737  2.2604  0.9603  0.9804
19587TIP3   OH280251   6.206   2.905   6.255  0.3280  0.6469 -0.5308
19587TIP3    H180252   6.202   2.978   6.193  1.9367  0.1199 -1.2932
19587TIP3    H280253   6.195   2.827   6.201 -0.0919  0.2549  0.1115
19588TIP3   OH280254   2.467   2.689   6.334  0.7973  0.4382 -0.3491
19588TIP3    H180255   2.427   2.743   6.266 -0.4124 -0.0102 -0.0221
19588TIP3    H280256   2.434   2.726   6.416 -1.3281 -1.6589 -0.1471
19589TIP3   OH280257   6.523   3.546  11.798  0.5609 -0.3726  1.5749
19589TIP3    H180258   6.444   3.502  11.831  0.4133 -1.1669  0.2337
19589TIP3    H280259   6.595   3.498  11.837  0.3918 -0.4353  1.8156
19590TIP3   OH280260   0.985   6.726   4.308 -0.4092 -0.2358 -0.1143
19590TIP3    H180261   0.904   6.677   4.320 -0.3940 -0.0656  0.7086
19590TIP3    H280262   1.043   6.697   4.379 -0.3673  0.8877  0.3389
19591TIP3   OH280263   3.109   1.561  13.837 -0.1351 -0.8928 -0.2350
19591TIP3    H180264   3.053   1.511  13.777 -1.0884  0.5868 -0.6338
19591TIP3    H280265   3.047   1.607  13.894  0.7015 -0.1357  0.0804
19592TIP3   OH280266   3.248   2.451  10.784 -0.2203 -0.0145 -0.4364
19592TIP3    H180267   3.254   2.490  10.697 -0.8727  0.3676 -0.3209
19592TIP3    H280268   3.250   2.525  10.844 -0.9456 -0.1869 -0.1878
19593TIP3   OH280269   2.285   1.720  17.104  0.4118  0.4561 -0.0323
19593TIP3    H180270   2.232   1.742  17.028  0.2735  0.4030  0.0476
19593TIP3    H280271   2.317   1.631  17.088 -0.2852  0.1308  0.3435
19594TIP3   OH280272   1.315   3.736   3.200 -0.5329  1.2481  0.5501
19594TIP3    H180273   1.223   3.726   3.178 -0.6164  1.4713  0.7926
19594TIP3    H280274   1.347   3.646   3.212 -1.0853  1.2100  1.9355
19595TIP3   OH280275   5.552   1.331  13.588  0.4072  0.5529 -0.0668
19595TIP3    H180276   5.485   1.394  13.561 -0.0871 -0.2308 -0.7150
19595TIP3    H280277   5.634   1.365  13.553  0.4079  1.6336  0.9123
19596TIP3   OH280278   4.373   6.467   5.646 -0.1481 -0.0787  0.0951
19596TIP3    H180279   4.434   6.445   5.576 -0.9281  0.5461 -0.8028
19596TIP3    H280280   4.295   6.415   5.627 -0.2839 -0.0846  0.6383
19597TIP3   OH280281   4.662   4.807  16.109  0.6196  0.3906  0.1943
19597TIP3    H180282   4.572   4.775  16.114  1.2025 -1.7339 -1.4116
19597TIP3    H280283   4.681   4.839  16.197 -1.5670  0.5594  0.6595
19598TIP3   OH280284   5.534   1.890   2.052 -0.1485 -0.3942 -0.5229
19598TIP3    H180285   5.449   1.932   2.054  1.0560  2.2497  1.2235
19598TIP3    H280286   5.562   1.894   1.961 -1.2965 -0.0103 -0.8625
19599TIP3   OH280287   6.553   3.548   2.732 -0.9080 -0.0233 -0.2268
19599TIP3    H180288   6.561   3.591   2.647 -1.5118  0.3824 -0.0862
19599TIP3    H280289   6.497   3.472   2.716  1.1851 -1.5400 -0.7393
19600TIP3   OH280290   2.066   1.434   0.052 -0.2854  0.0551 -0.4139
19600TIP3    H180291   2.061   1.451  -0.042 -0.3196 -3.6808 -1.2401
19600TIP3    H280292   2.055   1.339   0.060  0.3663  0.1397  3.3323
19601TIP3   OH280293   1.420   1.704   2.839  0.1394  0.1256 -0.3665
19601TIP3    H180294   1.389   1.630   2.892 -0.6848  1.5608  1.2353
19601TIP3    H280295   1.489   1.744   2.891 -1.3997  2.1966  0.1969
19602TIP3   OH280296   0.028   1.388   2.551  0.1291  0.3158  0.0807
19602TIP3    H180297   0.044   1.479   2.526  0.3083  0.3674  0.3852
19602TIP3    H280298  -0.035   1.393   2.622  1.7857  0.3381  1.6150
19603TIP3   OH280299   2.162   5.581   6.557  0.2843  0.1539  0.2668
19603TIP3    H180300   2.149   5.667   6.596 -1.2837 -0.3080  0.8742
19603TIP3    H280301   2.208   5.598   6.475  2.8452  1.2478  1.8029
19604TIP3   OH280302   6.765   4.279  13.538 -0.8767  0.4428 -0.6865
19604TIP3    H180303   6.792   4.344  13.473  0.8049 -0.6537 -1.1272
19604TIP3    H280304   6.746   4.201  13.487 -3.5801  0.7132 -0.2356
19605TIP3   OH280305   1.015   1.305   5.620 -0.4849  0.0325  0.4367
19605TIP3    H180306   1.014   1.223   5.572  0.8727 -0.0981  0.6077
19605TIP3    H280307   0.973   1.285   5.704 -0.3819 -0.4189  0.3795
19606TIP3   OH280308   6.344   0.965   2.476  0.2202 -0.3191 -1.0242
19606TIP3    H180309   6.297   0.899   2.527 -0.8534  0.9916 -0.2437
19606TIP3    H280310   6.350   0.928   2.388 -1.1908 -1.0604 -0.8333
19607TIP3   OH280311   2.761   0.702   2.532 -0.1204 -0.3487  0.3048
19607TIP3    H180312   2.848   0.721   2.498 -0.2270 -0.2958  0.0563
19607TIP3    H280313   2.711   0.782   2.517 -0.8777 -1.1487 -1.7605
19608TIP3   OH280314   1.392   2.344   4.563  0.0191  0.1528 -0.8479
19608TIP3    H180315   1.346   2.262   4.548  0.0390  0.2202 -1.2664
19608TIP3    H280316   1.336   2.411   4.522 -0.2066  0.4035 -0.1624
19609TIP3   OH280317   0.960   3.104   1.172  0.1232 -0.0525  0.5048
19609TIP3    H180318   0.992   3.160   1.101  2.3354 -1.3384  0.3948
19609TIP3    H280319   0.971   3.158   1.251 -0.9689  0.8588  0.0532
19610TIP3   OH280320   5.585   0.907   6.421  0.4302  0.4433  0.5037
19610TIP3    H180321   5.649   0.913   6.350 -2.0728  3.9016 -1.8548
19610TIP3    H280322   5.518   0.846   6.388  0.0517  0.7994  0.6021
19611TIP3   OH280323   3.529   4.733   1.165  0.2382  0.1911  0.0338
19611TIP3    H180324   3.497   4.642   1.164 -1.8808  0.8462  1.3342
19611TIP3    H280325   3.452   4.785   1.188  1.5219  2.2915 -0.1655
19612TIP3   OH280326   2.767   2.225  14.162 -0.2584 -0.1798 -0.1112
19612TIP3    H180327   2.796   2.144  14.120  0.8795  1.1106 -2.0014
19612TIP3    H280328   2.813   2.227  14.246  1.4666 -0.4785 -0.9998
19613TIP3   OH280329   6.486   1.724  15.073  0.0784  0.7328 -0.2659
19613TIP3    H180330   6.537   1.761  15.002  1.0102  0.0855  0.0323
19613TIP3    H280331   6.457   1.799  15.125  0.9177  1.1083 -0.3307
19614TIP3   OH280332   0.987   0.403   2.592 -0.4452  0.1316 -0.6823
19614TIP3    H180333   0.959   0.475   2.649 -0.8305  0.2473 -1.0156
19614TIP3    H280334   0.974   0.324   2.645  1.5307  0.4033  0.2957
19615TIP3   OH280335   2.867   4.521   4.816 -0.5787 -0.2046  0.1481
19615TIP3    H180336   2.808   4.585   4.855 -0.5016  1.9883 -2.9690
19615TIP3    H280337   2.951   4.535   4.859 -1.2166 -0.2479  1.4714
19616TIP3   OH280338   4.058   1.646   2.666  0.4728  0.3581  0.4033
19616TIP3    H180339   4.140   1.683   2.634 -0.7292  0.9655 -2.1645
19616TIP3    H280340   4.065   1.552   2.647  0.9901  0.2176  1.2248
19617TIP3   OH280341   2.073   1.756  15.339 -0.3570  0.0121  0.0787
19617TIP3    H180342   2.054   1.671  15.299 -0.3093 -0.0723  0.2347
19617TIP3    H280343   1.990   1.782  15.380 -0.5152  0.2785 -0.3997
19618TIP3   OH280344   1.821   2.130  17.063 -0.6071 -0.5595 -0.0864
19618TIP3    H180345   1.771   2.181  16.998 -0.1590  0.0170  0.0105
19618TIP3    H280346   1.806   2.176  17.146 -1.7384 -1.6893  0.3671
19619TIP3   OH280347   4.797   0.883  14.691  0.3082 -0.6603  0.3647
19619TIP3    H180348   4.842   0.964  14.664 -0.6161 -0.0269  0.6775
19619TIP3    H280349   4.811   0.878  14.785 -0.6593 -0.2049  0.5417
19620TIP3   OH280350   5.437   1.608   0.336 -0.2785 -0.0989  0.3599
19620TIP3    H180351   5.349   1.573   0.349 -0.1409 -1.3578 -1.5440
19620TIP3    H280352   5.489   1.531   0.311  1.1363  0.7783  0.5130
19621TIP3   OH280353   4.051   6.756   0.515 -0.0393  0.1395 -0.1167
19621TIP3    H180354   4.030   6.663   0.506  0.1174  0.1271 -0.3681
19621TIP3    H280355   4.118   6.758   0.583  0.3599  0.0100 -0.4991
19622TIP3   OH280356   0.326   4.968  14.272 -0.1079 -0.2159 -0.3499
19622TIP3    H180357   0.365   5.047  14.309  0.8863  1.0389 -3.6992
19622TIP3    H280358   0.374   4.896  14.313  1.3888  1.0720  0.2581
19623TIP3   OH280359   0.708   0.998   4.500  0.1580 -0.2476  0.0359
19623TIP3    H180360   0.731   1.053   4.574 -2.3333 -3.2700  3.3832
19623TIP3    H280361   0.622   1.030   4.472 -0.2296 -0.9217  0.4343
19624TIP3   OH280362   0.684   2.087   5.368 -0.4128 -0.2867  0.1474
19624TIP3    H180363   0.733   2.051   5.442  1.4143 -0.3308 -1.0229
19624TIP3    H280364   0.658   2.010   5.318 -3.1085 -0.3793  1.5261
19625TIP3   OH280365   1.103   2.676   0.105  0.3926 -0.2457 -0.1355
19625TIP3    H180366   1.155   2.740   0.153  0.4375  0.4339 -1.0466
19625TIP3    H280367   1.063   2.621   0.172  0.3571  0.7477  0.6759
19626TIP3   OH280368   5.732   0.010   6.506 -0.2727  0.4957 -0.3502
19626TIP3    H180369   5.808  -0.008   6.561 -0.5393 -0.0748 -0.1565
19626TIP3    H280370   5.761   0.079   6.447  1.6739 -2.1640 -2.8004
19627TIP3   OH280371   0.033   5.880   3.222 -0.6780  0.8613 -0.5372
19627TIP3    H180372   0.045   5.841   3.135  2.0956  1.5664 -0.5652
19627TIP3    H280373   0.095   5.833   3.278 -0.9648  1.7798  0.5870
19628TIP3   OH280374   2.975   3.055   3.003  0.6376 -0.0070  0.0056
19628TIP3    H180375   2.966   3.087   3.093  1.7338 -0.6526  0.3724
19628TIP3    H280376   2.902   3.094   2.955 -0.2685 -0.0636  1.2936
19629TIP3   OH280377   1.088   2.296   5.305 -0.7326  0.6226  0.1279
19629TIP3    H180378   1.062   2.326   5.218 -1.0018  2.5081  0.8275
19629TIP3    H280379   1.045   2.356   5.365  1.8073  1.2013  1.4721
19630TIP3   OH280380   0.482   6.120  11.321  0.1708 -0.0510 -0.3595
19630TIP3    H180381   0.546   6.161  11.263  1.4323 -0.2870  0.8118
19630TIP3    H280382   0.497   6.026  11.309 -0.6396 -0.1280 -0.8027
19631TIP3   OH280383   5.788   6.760  11.390  0.1769 -0.1887  0.5372
19631TIP3    H180384   5.852   6.709  11.340 -0.7308 -0.6589 -0.1881
19631TIP3    H280385   5.725   6.791  11.324  0.1608  1.0451  1.1018
19632TIP3   OH280386   6.288   0.441   6.670  0.2900 -0.1882  0.2993
19632TIP3    H180387   6.249   0.524   6.699 -0.4917 -0.5820  0.3899
19632TIP3    H280388   6.232   0.374   6.707 -0.2872 -0.7339 -1.4927
19633TIP3   OH280389   1.376   3.028  13.235  0.2571  0.1719 -0.3441
19633TIP3    H180390   1.364   2.938  13.266 -1.3515  0.3138 -0.4786
19633TIP3    H280391   1.433   3.069  13.300 -4.0118  0.8841  3.4259
19634TIP3   OH280392   5.531   3.962   2.779  0.3419  0.3023  0.1680
19634TIP3    H180393   5.607   3.905   2.762  1.1330  1.3252  0.1533
19634TIP3    H280394   5.492   3.926   2.859 -1.1719 -2.2563 -1.5559
19635TIP3   OH280395   6.554   4.796   0.949  0.0184 -0.3376  0.2093
19635TIP3    H180396   6.464   4.770   0.967  0.7491 -1.8704  2.0580
19635TIP3    H280397   6.577   4.750   0.868 -1.2275  1.1643 -1.0592
19636TIP3   OH280398   6.214   4.765   1.375  0.1759  0.4440 -0.2157
19636TIP3    H180399   6.230   4.752   1.468 -1.1122 -0.7396 -0.1258
19636TIP3    H280400   6.119   4.754   1.365 -0.0555  2.7608 -1.3377
19637TIP3   OH280401   4.930   1.304  12.473 -0.5454  0.1471  0.5870
19637TIP3    H180402   5.019   1.317  12.506 -0.3220 -0.4335  0.2267
19637TIP3    H280403   4.925   1.359  12.395 -0.7319  0.7104  0.9885
19638TIP3   OH280404   6.508   2.845  15.109 -0.3150 -0.1602  0.1605
19638TIP3    H180405   6.519   2.756  15.141  2.4117  0.0280 -0.0290
19638TIP3    H280406   6.425   2.874  15.147 -0.6180 -2.3081  1.2877
19639TIP3   OH280407   6.495   3.706  12.813  0.2612  0.1630  0.5144
19639TIP3    H180408   6.445   3.785  12.833 -0.5810  0.0199 -0.8517
19639TIP3    H280409   6.513   3.666  12.898 -0.9781  0.8253  1.1116
19640TIP3   OH280410   3.538   0.486  13.085 -0.2254  0.1885 -0.0406
19640TIP3    H180411   3.471   0.551  13.064  1.0455  1.1092 -1.5267
19640TIP3    H280412   3.559   0.446  13.000  0.1869 -0.9824  0.5995
19641TIP3   OH280413   1.456   6.119  16.662 -0.0093  0.9078 -0.0322
19641TIP3    H180414   1.454   6.081  16.574 -0.7244  0.3261  0.2220
19641TIP3    H280415   1.368   6.103  16.697  0.6544 -0.0711  1.2959
19642TIP3   OH280416   2.020   3.434   4.248 -0.9172  0.2522 -0.2839
19642TIP3    H180417   1.985   3.425   4.159  1.6177 -1.9886 -1.2240
19642TIP3    H280418   1.973   3.369   4.299 -0.7374 -0.1492 -0.6198
19643TIP3   OH280419   2.663   0.194   2.876 -0.2732 -0.0055 -0.1820
19643TIP3    H180420   2.666   0.103   2.847  0.5646  0.5713 -2.0429
19643TIP3    H280421   2.678   0.190   2.971  2.2114 -1.6641 -0.5633
19644TIP3   OH280422   3.338   5.411   0.853  1.1834  0.3488 -0.7540
19644TIP3    H180423   3.306   5.431   0.765 -1.3353  0.2770  0.0677
19644TIP3    H280424   3.352   5.497   0.893 -0.2832  0.4544 -0.3962
19645TIP3   OH280425   1.168   5.952  11.615 -0.3713  0.0964 -0.0894
19645TIP3    H180426   1.258   5.986  11.618 -0.2101  0.3162 -3.6564
19645TIP3    H280427   1.178   5.858  11.629  0.0425  0.4105  2.1010
19646TIP3   OH280428   0.317   0.099   4.670 -0.8076  0.4263  0.0811
19646TIP3    H180429   0.351   0.066   4.754  1.1544  0.6357 -0.5637
19646TIP3    H280430   0.292   0.189   4.688  2.0026  1.3405 -0.0309
19647TIP3   OH280431   2.125   3.728  16.972 -0.9500  0.3167 -0.3790
19647TIP3    H180432   2.153   3.730  17.064  1.0570 -0.7451 -0.9167
19647TIP3    H280433   2.108   3.820  16.951  0.5780  0.8443  0.5053
19648TIP3   OH280434   4.552   6.774   2.841  0.6431 -0.4862 -0.1724
19648TIP3    H180435   4.546   6.869   2.838  1.8064 -0.2484  2.4635
19648TIP3    H280436   4.482   6.747   2.901 -0.1973 -1.4226 -1.5043
19649TIP3   OH280437   0.426   1.250   5.114 -0.1257  0.0850 -0.2456
19649TIP3    H180438   0.439   1.176   5.174 -0.0507 -1.7399 -2.3905
19649TIP3    H280439   0.513   1.288   5.104  0.0811 -0.3255 -0.0611
19650TIP3   OH280440   0.442   2.787   1.807  0.1622  0.1444  0.5718
19650TIP3    H180441   0.411   2.819   1.722 -1.3877  0.2029  1.1224
19650TIP3    H280442   0.463   2.695   1.792 -2.0243 -0.3948  0.5465
19651TIP3   OH280443   3.844   6.237  15.393 -0.0634 -0.2111  0.1794
19651TIP3    H180444   3.820   6.319  15.436  1.2249 -0.7111  1.9470
19651TIP3    H280445   3.790   6.170  15.435 -0.4208 -0.4146 -0.5856
19652TIP3   OH280446   3.497   3.153   4.509  0.1826 -0.0560  0.2530
19652TIP3    H180447   3.510   3.188   4.597  0.0631  0.3459  0.1146
19652TIP3    H280448   3.561   3.083   4.501 -0.2148 -0.5025  0.8819
19653TIP3   OH280449   3.642   6.667  16.906  0.4134  0.1926 -0.0691
19653TIP3    H180450   3.717   6.696  16.855  0.6804 -0.6038 -0.1446
19653TIP3    H280451   3.568   6.718  16.872  0.6154 -0.2141 -1.1442
19654TIP3   OH280452   5.548   1.020  14.026 -0.2178 -0.1552 -0.0096
19654TIP3    H180453   5.544   1.104  13.980  1.4860  0.2043  0.4276
19654TIP3    H280454   5.642   1.000  14.032 -0.2374  0.2935  4.1068
19655TIP3   OH280455   2.040   3.873  11.915  0.5725 -0.1094 -0.1376
19655TIP3    H180456   2.099   3.831  11.852  1.4176  1.0630 -0.1676
19655TIP3    H280457   1.991   3.801  11.954  0.3196 -0.9033 -1.8353
19656TIP3   OH280458   5.607   0.628  14.565 -0.2184 -0.0317  0.0977
19656TIP3    H180459   5.522   0.610  14.525  0.8123 -0.7737 -1.9073
19656TIP3    H280460   5.660   0.551  14.543  1.8302  1.6581 -1.2894
19657TIP3   OH280461   0.587   1.211  15.148  0.8964 -0.6215  0.5141
19657TIP3    H180462   0.522   1.270  15.110  1.4199 -0.9542 -0.9726
19657TIP3    H280463   0.554   1.192  15.236 -0.7468 -0.3814 -0.0171
19658TIP3   OH280464   6.273   3.918  16.732 -0.3523  0.6041  0.7277
19658TIP3    H180465   6.226   3.875  16.802 -0.4326  0.0059  0.3100
19658TIP3    H280466   6.300   4.002  16.769 -0.3485  0.2722  1.4864
19659TIP3   OH280467   6.378   6.382   4.702 -0.3395  0.2457 -0.1292
19659TIP3    H180468   6.310   6.330   4.659 -0.9631  0.7380  0.2462
19659TIP3    H280469   6.395   6.453   4.640 -0.7916  0.6058  0.1545
19660TIP3   OH280470   2.849   4.811   4.532  0.6470  0.2240  0.4377
19660TIP3    H180471   2.877   4.750   4.464  2.0219  1.7619 -0.4338
19660TIP3    H280472   2.771   4.770   4.570  0.9429 -1.5713 -0.7667
19661TIP3   OH280473   0.893   4.668  11.719 -0.1539 -0.0364  0.3992
19661TIP3    H180474   0.818   4.642  11.664  0.5967  0.1030 -0.7123
19661TIP3    H280475   0.936   4.586  11.741 -0.1278 -0.0446  0.3154
19662TIP3   OH280476   5.134   5.015  15.834  0.7885 -0.7553  0.4992
19662TIP3    H180477   5.224   5.042  15.816  0.6609  0.3410  1.3852
19662TIP3    H280478   5.127   5.017  15.929 -0.3557 -0.2168  0.4175
19663TIP3   OH280479   2.351   2.999  14.446  0.2492 -0.1566 -0.1876
19663TIP3    H180480   2.300   3.070  14.484  0.1965 -0.7749  0.9686
19663TIP3    H280481   2.294   2.960  14.380  0.9571  1.9834 -2.1421
19664TIP3   OH280482   5.789   0.182  14.227 -0.1047  0.0755  0.6108
19664TIP3    H180483   5.780   0.123  14.152  3.2216  0.9211 -0.6596
19664TIP3    H280484   5.735   0.257  14.206 -2.4472 -1.3907  1.0897
19665TIP3   OH280485   3.856   4.156   0.678 -0.0986  0.0797  0.0578
19665TIP3    H180486   3.782   4.101   0.650  0.4423 -0.9336  0.5644
19665TIP3    H280487   3.835   4.180   0.769  0.6981 -1.1481  0.5949
19666TIP3   OH280488   0.913   0.108   1.588 -0.1048 -0.8732  0.0474
19666TIP3    H180489   0.969   0.157   1.648  0.3276 -0.3139 -0.7849
19666TIP3    H280490   0.824   0.126   1.617  0.0182  0.7507 -0.4554
19667TIP3   OH280491   3.411   0.715  16.033 -0.0663  0.0229  0.2544
19667TIP3    H180492   3.341   0.713  16.097 -1.9366  0.0969 -1.6656
19667TIP3    H280493   3.409   0.804  15.997 -0.4059 -0.5530 -1.2446
19668TIP3   OH280494   2.325   0.460   1.569 -0.0714 -0.1603  0.6744
19668TIP3    H180495   2.342   0.508   1.488 -0.0274  0.9165  1.2992
19668TIP3    H280496   2.230   0.444   1.568 -0.0270 -0.3910  0.2791
19669TIP3   OH280497   0.683   5.541  13.024  0.3558  0.1589 -0.7781
19669TIP3    H180498   0.590   5.555  13.040  0.7154  1.7407  0.1723
19669TIP3    H280499   0.705   5.463  13.076 -0.9100 -1.8659 -3.0666
19670TIP3   OH280500   2.786   0.651  15.203 -0.1735 -0.3780 -0.4347
19670TIP3    H180501   2.815   0.640  15.112  1.1255 -0.7550  0.0012
19670TIP3    H280502   2.751   0.566  15.228 -0.5163 -0.2788 -0.5783
19671TIP3   OH280503   2.348   0.505   4.471  0.1778 -0.8732  0.3736
19671TIP3    H180504   2.279   0.534   4.531 -0.6434 -1.4242 -0.3007
19671TIP3    H280505   2.384   0.587   4.435 -0.8264 -0.6048 -0.0551
19672TIP3   OH280506   2.000   3.409  12.143  0.2167  0.4134  0.0161
19672TIP3    H180507   2.042   3.466  12.208 -0.8422  0.6624  0.5012
19672TIP3    H280508   1.964   3.337  12.196 -0.2873  0.3999 -0.3401
19673TIP3   OH280509   1.864   2.126   1.254  0.5003 -0.4448 -0.2217
19673TIP3    H180510   1.908   2.148   1.337  1.1120  0.7006 -0.8322
19673TIP3    H280511   1.826   2.208   1.224  1.1709 -0.6047 -1.5858
19674TIP3   OH280512   2.094   2.078   2.885 -0.2371  0.3117  0.0344
19674TIP3    H180513   2.116   2.145   2.820  0.2477  0.1094 -0.0109
19674TIP3    H280514   2.015   2.037   2.851  0.5476 -0.4433 -0.9153
19675TIP3   OH280515   5.638   0.697  11.113  0.2554  0.1175  0.6403
19675TIP3    H180516   5.625   0.757  11.186 -1.7644 -0.0220  0.4639
19675TIP3    H280517   5.671   0.752  11.042 -0.9875  0.9365  0.6627
19676TIP3   OH280518   5.770   3.838   1.005  0.1014  0.0600  0.1784
19676TIP3    H180519   5.805   3.926   0.990 -2.6943  1.6956  2.3468
19676TIP3    H280520   5.691   3.834   0.952 -1.1735 -0.1097  2.0106
19677TIP3   OH280521   1.265   3.566  17.029  0.7084  0.1843  0.4734
19677TIP3    H180522   1.334   3.592  17.091  0.0671  2.8529  0.1894
19677TIP3    H280523   1.189   3.549  17.084  1.2295 -1.6629  0.6925
19678TIP3   OH280524   3.571   2.490  11.929 -0.4365  0.3174 -0.6334
19678TIP3    H180525   3.598   2.551  11.861 -1.1228  1.0364 -0.2837
19678TIP3    H280526   3.566   2.405  11.885  3.0597 -0.0567 -0.5560
19679TIP3   OH280527   6.493   1.033   4.657 -0.1492 -0.0548  0.4820
19679TIP3    H180528   6.421   1.017   4.718  0.2446  2.0635  1.6116
19679TIP3    H280529   6.564   0.977   4.689  0.0513  1.0156  2.0472
19680TIP3   OH280530   3.099   0.299   1.703 -0.3371  0.0944 -0.4525
19680TIP3    H180531   3.006   0.305   1.722 -0.5966  0.6121 -1.7516
19680TIP3    H280532   3.117   0.205   1.694 -1.0903  0.0487 -1.7298
19681TIP3   OH280533   6.201   2.462   2.374  0.0708 -0.3519  0.0814
19681TIP3    H180534   6.130   2.468   2.310 -0.2870 -0.8109  0.4277
19681TIP3    H280535   6.196   2.544   2.423 -0.7483 -0.7310  0.6415
19682TIP3   OH280536   1.408   1.188  14.016  0.3732  0.0901  0.2948
19682TIP3    H180537   1.443   1.274  14.039  0.1663 -0.1087  1.3662
19682TIP3    H280538   1.475   1.126  14.046 -1.2211 -0.3591  3.2006
19683TIP3   OH280539   2.720   4.186  12.127  0.2995 -0.3935  0.2803
19683TIP3    H180540   2.638   4.231  12.148 -0.6394 -2.0091  0.2019
19683TIP3    H280541   2.695   4.116  12.068  1.6037 -1.4708  0.9496
19684TIP3   OH280542   0.425   1.072  12.711 -0.0549  0.9675 -0.2880
19684TIP3    H180543   0.517   1.098  12.718  0.2573  0.3456 -1.7403
19684TIP3    H280544   0.410   1.062  12.617 -1.0592 -0.8438  0.0256
19685TIP3   OH280545   6.018   2.449   6.022  0.0216  0.2222  0.1324
19685TIP3    H180546   6.005   2.416   5.933 -1.0262 -2.2386  1.0978
19685TIP3    H280547   5.941   2.503   6.039 -1.5066 -1.9122  0.5466
19686TIP3   OH280548   1.597   2.568   0.069  0.4418 -0.9609 -0.0294
19686TIP3    H180549   1.503   2.553   0.078  0.4886 -1.5773 -0.5037
19686TIP3    H280550   1.631   2.559   0.158  0.0397 -0.6210  0.1621
19687TIP3   OH280551   0.647   1.412   5.010 -0.3216 -0.6379  0.9462
19687TIP3    H180552   0.649   1.486   4.949 -0.1763  0.1454  1.8706
19687TIP3    H280553   0.663   1.452   5.095  1.0204 -1.8991  1.3172
19688TIP3   OH280554   0.080   1.725   0.119 -0.1660 -0.4085  0.5124
19688TIP3    H180555   0.129   1.795   0.164 -0.8355  0.5906 -0.2633
19688TIP3    H280556   0.097   1.647   0.171  1.7533  0.0305  0.6292
19689TIP3   OH280557   6.413   4.052   5.671  0.2048  0.1372 -0.0616
19689TIP3    H180558   6.378   3.993   5.604  0.3784  1.3355 -1.2505
19689TIP3    H280559   6.336   4.087   5.714 -0.0014  0.8249 -0.9567
19690TIP3   OH280560   5.384   1.027  12.802  0.3889 -0.1523 -0.1933
19690TIP3    H180561   5.435   1.105  12.780 -1.9827  1.7467  0.5825
19690TIP3    H280562   5.332   1.053  12.879 -0.3301 -2.5845  0.2258
19691TIP3   OH280563   6.502   3.810   0.018 -0.1132 -0.5839 -0.3508
19691TIP3    H180564   6.474   3.731  -0.028 -0.1698 -0.6512 -0.2011
19691TIP3    H280565   6.589   3.789   0.052 -0.1875 -0.6332 -0.1888
19692TIP3   OH280566   6.076   0.591  16.308  0.1642 -0.4356  0.5714
19692TIP3    H180567   6.094   0.668  16.362 -1.7631 -0.4079  1.2579
19692TIP3    H280568   6.119   0.519  16.355  0.3562 -0.0769  0.9583
19693TIP3   OH280569   2.306   1.666   5.234 -0.3491 -0.0012 -0.4525
19693TIP3    H180570   2.306   1.630   5.145 -0.2574 -0.7629 -0.1494
19693TIP3    H280571   2.351   1.600   5.286 -0.1895  0.5534  0.1186
19694TIP3   OH280572   1.444   2.897   4.955 -0.6145 -0.4276 -0.8262
19694TIP3    H180573   1.422   2.974   4.902  1.3040 -0.2492 -1.4751
19694TIP3    H280574   1.486   2.934   5.034 -0.5459 -0.7788 -0.6978
19695TIP3   OH280575   5.300   5.571   6.489 -0.7506 -0.3232 -0.2499
19695TIP3    H180576   5.323   5.627   6.563 -0.1791 -0.8696 -0.0169
19695TIP3    H280577   5.336   5.616   6.413 -0.1674 -0.4397 -0.0463
19696TIP3   OH280578   6.586   1.716   6.661 -0.2182 -0.2721  0.3850
19696TIP3    H180579   6.627   1.795   6.697 -1.5158  0.5013  0.2659
19696TIP3    H280580   6.644   1.689   6.590 -0.6006  1.6218 -0.7301
19697TIP3   OH280581   3.842   5.591   6.684 -0.1181  0.0157  0.4004
19697TIP3    H180582   3.928   5.607   6.721  0.0349 -1.1179  0.5663
19697TIP3    H280583   3.794   5.672   6.698  0.6524  0.3634  1.0681
19698TIP3   OH280584   0.897   0.205  10.660  0.1346 -0.1926  0.6122
19698TIP3    H180585   0.837   0.207  10.735  0.2930 -1.4209  0.7987
19698TIP3    H280586   0.839   0.200  10.584 -0.0151  0.3221  0.6860
19699TIP3   OH280587   4.663   5.625   5.245  0.9241  0.1588  0.0043
19699TIP3    H180588   4.584   5.573   5.229  0.0851  1.1941  0.6401
19699TIP3    H280589   4.735   5.563   5.237  0.1015 -0.6769 -1.2577
19700TIP3   OH280590   1.931   5.391   4.791 -0.4073 -0.3642  0.2829
19700TIP3    H180591   1.866   5.321   4.789 -0.4174 -0.3332 -1.1676
19700TIP3    H280592   1.880   5.472   4.781 -0.1493 -0.3481 -0.9833
19701TIP3   OH280593   2.877   2.963  15.375  0.1102 -0.0814 -0.5359
19701TIP3    H180594   2.803   3.024  15.370  0.4631  0.3036 -1.1971
19701TIP3    H280595   2.888   2.947  15.468 -0.0602  0.7807 -0.3552
19702TIP3   OH280596   1.407   1.895   2.368 -0.3229 -0.0639 -0.1304
19702TIP3    H180597   1.365   1.980   2.377 -0.5848 -0.3781  2.8355
19702TIP3    H280598   1.392   1.852   2.453  0.5970 -2.7025 -1.1836
19703TIP3   OH280599   6.665   1.729   0.307  0.5243 -0.6924 -0.0666
19703TIP3    H180600   6.739   1.785   0.286  0.3366 -0.2819  0.3619
19703TIP3    H280601   6.674   1.710   0.401 -1.1658  1.2772  0.5880
19704TIP3   OH280602   6.594   2.551   5.266 -0.4120 -0.0762  0.3538
19704TIP3    H180603   6.620   2.627   5.318 -0.6947  0.4652 -0.2806
19704TIP3    H280604   6.505   2.531   5.294  0.3814 -1.5517  2.0846
19705TIP3   OH280605   2.257   3.695  15.823  0.6777  0.4311 -0.0622
19705TIP3    H180606   2.342   3.654  15.808  0.5843 -0.5238  1.7381
19705TIP3    H280607   2.201   3.624  15.853 -0.8375  1.0170 -1.3261
19706TIP3   OH280608   5.324   3.686   4.965  0.5820 -0.1711  0.1798
19706TIP3    H180609   5.323   3.639   4.881  0.5442 -0.4645  0.3462
19706TIP3    H280610   5.347   3.776   4.941 -2.6120  0.5936 -0.6008
19707TIP3   OH280611   0.975   6.760  16.343  0.1653  0.1843  0.0431
19707TIP3    H180612   0.925   6.830  16.385  1.1944  0.5100  0.7353
19707TIP3    H280613   1.046   6.805  16.297 -1.4692 -0.0356 -3.0114
19708TIP3   OH280614   5.119   0.599  15.240 -0.2081 -0.2526  0.0523
19708TIP3    H180615   5.129   0.577  15.333  0.7905  0.3106  0.0946
19708TIP3    H280616   5.060   0.533  15.206 -0.4406 -0.5808  1.0522
19709TIP3   OH280617   3.724   1.019   3.210 -0.3829  0.3059  0.2624
19709TIP3    H180618   3.711   1.109   3.242  0.5213  0.7510 -0.5695
19709TIP3    H280619   3.715   1.026   3.115  1.9844 -0.0262 -0.0422
19710TIP3   OH280620   3.448   0.051  12.802  0.5882 -0.0345  0.2732
19710TIP3    H180621   3.461   0.081  12.712 -0.5321  0.3782  0.2344
19710TIP3    H280622   3.379  -0.014  12.796 -1.1003  1.5959  1.0942
19711TIP3   OH280623   3.834   4.245   3.643 -0.3750 -0.2393 -0.1794
19711TIP3    H180624   3.879   4.164   3.620 -0.2544 -0.1934 -0.1069
19711TIP3    H280625   3.897   4.315   3.623 -0.2489 -0.2032  0.3245
19712TIP3   OH280626   6.052   4.034  14.145  0.2747 -0.3462 -0.2112
19712TIP3    H180627   6.031   4.075  14.229 -2.2228  2.3663 -1.9365
19712TIP3    H280628   6.130   4.080  14.114 -0.4303  0.6846 -0.5328
19713TIP3   OH280629   0.009   1.648   3.899 -0.4488 -0.2807 -0.2013
19713TIP3    H180630  -0.043   1.726   3.880 -1.2868 -1.1656 -1.8056
19713TIP3    H280631   0.096   1.668   3.866 -0.7203 -0.1018 -0.8183
19714TIP3   OH280632   3.994   4.514   2.837 -0.3387  0.4872  0.2907
19714TIP3    H180633   3.979   4.443   2.775 -0.3074 -1.1083  2.0117
19714TIP3    H280634   4.012   4.591   2.783 -1.1525 -0.6358 -1.6451
19715TIP3   OH280635   5.754   4.744  12.209  0.0441  0.0573 -0.3520
19715TIP3    H180636   5.716   4.730  12.295 -0.1259 -0.0522 -0.4448
19715TIP3    H280637   5.847   4.725  12.221  0.6245  2.9140  0.5148
19716TIP3   OH280638   5.401   1.685  17.101  0.3582  0.1639  0.2802
19716TIP3    H180639   5.482   1.730  17.125 -0.0435  1.2974 -0.4251
19716TIP3    H280640   5.429   1.595  17.081  1.2063  0.1438  1.4445
19717TIP3   OH280641   4.606   1.339  11.270  0.1319  0.0910 -0.8724
19717TIP3    H180642   4.636   1.258  11.311  0.3760  1.2086  1.3261
19717TIP3    H280643   4.681   1.371  11.220  1.0335  0.3765  0.5996
19718TIP3   OH280644   5.949   2.360  14.918  0.4880  0.6864 -0.2711
19718TIP3    H180645   5.981   2.270  14.906  1.8601  0.6773  2.6924
19718TIP3    H280646   5.926   2.365  15.011 -1.2891  2.9255 -0.7454
19719TIP3   OH280647   2.280   2.804   4.457 -0.6599 -0.0915  0.0709
19719TIP3    H180648   2.355   2.782   4.512 -0.1990  3.2598  1.0283
19719TIP3    H280649   2.205   2.765   4.502 -0.1726  1.6943  2.7236
19720TIP3   OH280650   3.191   4.880   2.260 -0.3636  0.0294  0.7269
19720TIP3    H180651   3.205   4.920   2.346  1.5146 -0.2577  0.5987
19720TIP3    H280652   3.222   4.945   2.198  1.5556 -1.0584  0.4607
19721TIP3   OH280653   4.750   2.780   2.954  0.5875 -0.0024 -0.2567
19721TIP3    H180654   4.698   2.775   2.874  1.5222 -0.8847 -0.8365
19721TIP3    H280655   4.800   2.862   2.944  0.9359 -0.2666 -0.7350
19722TIP3   OH280656   4.606   4.195   0.027 -0.4155 -0.0731  0.4535
19722TIP3    H180657   4.542   4.203   0.097 -0.6336  0.7169  0.1768
19722TIP3    H280658   4.677   4.255   0.052 -1.1850  1.4215 -0.7176
19723TIP3   OH280659   3.433   2.351   4.165 -0.4132  0.2388  0.1499
19723TIP3    H180660   3.390   2.376   4.246  0.2822 -1.3665  1.0522
19723TIP3    H280661   3.371   2.293   4.121 -0.5474  0.6370 -0.1920
19724TIP3   OH280662   0.620   1.598  12.274 -0.0481  0.3657  0.4953
19724TIP3    H180663   0.690   1.660  12.295  1.5064 -1.0251 -0.2717
19724TIP3    H280664   0.543   1.633  12.318  0.4900  3.3322 -0.6891
19725TIP3   OH280665   0.937   2.680  13.031  0.1518 -0.0936 -0.2755
19725TIP3    H180666   0.961   2.591  13.003  0.4710 -0.3455  0.7676
19725TIP3    H280667   0.856   2.668  13.081 -0.1374  0.2873 -0.6459
19726TIP3   OH280668   0.148   4.223  11.799  0.2515  0.3405  0.1673
19726TIP3    H180669   0.193   4.255  11.721  1.0472  0.6681  0.7398
19726TIP3    H280670   0.090   4.295  11.825 -0.2912  0.0864 -0.3267
19727TIP3   OH280671   0.814   0.121   2.460  0.0416  0.7485 -0.5373
19727TIP3    H180672   0.900   0.144   2.423  0.4972  0.4522  0.3203
19727TIP3    H280673   0.778   0.205   2.489  1.0713  0.6208  1.2426
19728TIP3   OH280674   3.449   1.850   0.744 -0.2026 -0.3044 -0.1959
19728TIP3    H180675   3.370   1.805   0.713 -0.2831  0.2303 -0.7600
19728TIP3    H280676   3.439   1.851   0.840 -1.2123  0.3572 -0.2934
19729TIP3   OH280677   0.358   6.487  14.492  0.1223  0.0486 -0.1130
19729TIP3    H180678   0.386   6.493  14.583 -1.0330 -0.7623  0.3277
19729TIP3    H280679   0.357   6.393  14.473 -1.1815  0.1009 -0.4309
19730TIP3   OH280680   5.638   1.707  16.605  0.0683 -0.3262  0.1876
19730TIP3    H180681   5.730   1.678  16.603 -0.2678 -1.5015  0.9297
19730TIP3    H280682   5.615   1.708  16.698  0.2552  3.1260  0.3010
19731TIP3   OH280683   1.331   6.583   1.220 -0.2221  0.1855 -0.4685
19731TIP3    H180684   1.377   6.536   1.150  0.5479  0.7226 -0.3395
19731TIP3    H280685   1.394   6.584   1.292  0.4740  2.8378 -1.0194
19732TIP3   OH280686   6.419   0.881  11.159 -0.3016  0.2394 -0.1090
19732TIP3    H180687   6.451   0.832  11.235 -1.9034 -0.3272  0.2493
19732TIP3    H280688   6.431   0.973  11.183  1.2166  0.0612 -0.1010
19733TIP3   OH280689   5.109   4.899   4.781  0.2549 -0.3298  0.3000
19733TIP3    H180690   5.148   4.883   4.695  0.8158  2.3367 -0.0266
19733TIP3    H280691   5.016   4.883   4.769  0.3579 -0.1906 -0.7365
19734TIP3   OH280692   6.110   3.075   3.253 -0.8545  0.7182  0.0324
19734TIP3    H180693   6.206   3.070   3.248 -0.9076  0.0925 -0.5319
19734TIP3    H280694   6.093   3.130   3.329 -0.0436  1.0905 -0.0402
19735TIP3   OH280695   6.497   2.379  12.344  0.3548  0.0713  0.2853
19735TIP3    H180696   6.470   2.426  12.423 -1.1007 -0.2748  0.0345
19735TIP3    H280697   6.590   2.361  12.357  1.0227  3.0254  0.3564
19736TIP3   OH280698   2.517   0.685  12.646 -0.1581 -0.1992  0.3633
19736TIP3    H180699   2.467   0.752  12.693  0.9485  1.2630 -0.4680
19736TIP3    H280700   2.470   0.673  12.564 -1.3335 -1.7744  1.2075
19737TIP3   OH280701   4.293   0.317   4.248  0.0367 -0.3537 -0.2801
19737TIP3    H180702   4.284   0.223   4.235  1.1902 -0.4032 -0.7770
19737TIP3    H280703   4.288   0.354   4.160  2.3555 -0.2137 -0.4047
19738TIP3   OH280704   5.858   1.153  15.644 -1.2429 -0.4282 -0.5413
19738TIP3    H180705   5.925   1.178  15.580  1.2518 -2.0535  1.2641
19738TIP3    H280706   5.810   1.082  15.602 -1.1890  0.0750 -1.4753
19739TIP3   OH280707   4.934   0.998   3.053  0.3121 -0.0628 -0.2948
19739TIP3    H180708   4.993   0.927   3.079  0.5722  0.0395 -0.5830
19739TIP3    H280709   4.900   0.970   2.968 -1.5015 -0.9790  0.6767
19740TIP3   OH280710   5.124   1.214  13.967 -0.0733 -0.4162  0.1789
19740TIP3    H180711   5.178   1.234  13.890  2.3500 -0.7957  1.6867
19740TIP3    H280712   5.077   1.134  13.942 -0.4196  0.2385 -1.3882
19741TIP3   OH280713   1.472   1.884   3.364 -0.2150  0.0924  0.3727
19741TIP3    H180714   1.485   1.972   3.328 -0.2782  0.5281  1.3940
19741TIP3    H280715   1.380   1.883   3.392 -1.1821 -1.3723 -2.4473
19742TIP3   OH280716   5.589   2.680   0.239 -0.4480 -0.2327  0.0795
19742TIP3    H180717   5.618   2.588   0.244  1.3160  0.2025 -1.1008
19742TIP3    H280718   5.498   2.678   0.267 -0.3717 -2.3122  0.3442
19743TIP3   OH280719   4.585   1.662  13.076 -0.2087  0.2994 -0.2228
19743TIP3    H180720   4.492   1.667  13.098  0.1273  0.5585  1.3137
19743TIP3    H280721   4.625   1.622  13.154  1.1006  1.2091 -0.4074
19744TIP3   OH280722   1.643   5.374  13.823 -0.0629 -0.0355 -0.3017
19744TIP3    H180723   1.631   5.428  13.746  0.1615  0.5169  0.0466
19744TIP3    H280724   1.698   5.426  13.881  0.6506 -0.8783 -0.2057
19745TIP3   OH280725   3.840   0.128   4.328 -0.7908  0.0665  0.0802
19745TIP3    H180726   3.899   0.059   4.299 -2.9735 -2.1013  0.5340
19745TIP3    H280727   3.857   0.137   4.422 -0.2067  0.4844 -0.0599
19746TIP3   OH280728   1.339   3.129   5.873  0.0135  0.3666 -0.1277
19746TIP3    H180729   1.255   3.167   5.846 -0.1599 -0.9994 -1.6310
19746TIP3    H280730   1.404   3.172   5.817  0.5093  2.0602  1.6112
19747TIP3   OH280731   2.206   1.163  10.735  0.3047  1.2313 -0.9383
19747TIP3    H180732   2.135   1.217  10.770  0.7766  1.6491 -0.6164
19747TIP3    H280733   2.167   1.119  10.659 -0.1367  1.8990 -1.1092
19748TIP3   OH280734   2.342   2.026  11.139 -0.0527  0.2456  0.3729
19748TIP3    H180735   2.375   1.945  11.177  2.0731  1.2351  0.8291
19748TIP3    H280736   2.356   2.016  11.044  2.0763  0.7656  0.5733
19749TIP3   OH280737   5.905   3.382   0.635 -0.0485 -0.6793  0.1828
19749TIP3    H180738   5.967   3.409   0.567  0.6888 -0.7114  0.8227
19749TIP3    H280739   5.929   3.435   0.711 -1.8993  0.5335 -0.0148
19750TIP3   OH280740   2.622   4.606  10.865  0.1681  0.0467 -0.2397
19750TIP3    H180741   2.635   4.701  10.863  2.3873 -0.2210 -1.0653
19750TIP3    H280742   2.594   4.583  10.776 -1.0161 -0.0406  0.1293
19751TIP3   OH280743   1.341   4.496  16.740 -0.0474  0.5718 -0.2391
19751TIP3    H180744   1.360   4.493  16.834  1.2363  0.1569 -0.4932
19751TIP3    H280745   1.389   4.421  16.703  1.3601  2.0304 -1.5317
19752TIP3   OH280746   1.109   6.313   5.465 -0.6340  0.4211 -0.2083
19752TIP3    H180747   1.170   6.324   5.538  1.1385 -0.0185 -1.5607
19752TIP3    H280748   1.108   6.398   5.421  0.3421 -0.0369 -1.1569
19753TIP3   OH280749   5.058   3.868   3.937 -0.2669 -0.2763 -0.1751
19753TIP3    H180750   5.018   3.875   4.024  0.8540 -1.8441  0.5138
19753TIP3    H280751   5.152   3.857   3.955  0.0370 -0.1604 -1.6027
19754TIP3   OH280752   3.786   2.662  11.508  0.3235 -0.1108 -0.5369
19754TIP3    H180753   3.692   2.654  11.527  0.2903  0.0257 -0.6364
19754TIP3    H280754   3.826   2.587  11.552  0.1120 -0.4230 -0.8750
19755TIP3   OH280755   1.523   4.235  13.861 -0.0525 -0.3051 -0.5483
19755TIP3    H180756   1.612   4.202  13.853  0.7269  1.7086 -0.8864
19755TIP3    H280757   1.520   4.277  13.947 -0.4565  0.2185 -0.8115
19756TIP3   OH280758   3.669   0.953   0.268 -0.8427  0.0809 -0.0541
19756TIP3    H180759   3.671   0.975   0.362  0.6940 -0.0380 -0.0322
19756TIP3    H280760   3.669   1.038   0.224  0.0649  0.1545  0.0637
19757TIP3   OH280761   5.425   4.411  16.539 -0.2465 -0.5203 -0.4405
19757TIP3    H180762   5.398   4.319  16.543 -0.4949 -0.5425 -1.8772
19757TIP3    H280763   5.387   4.443  16.457  0.8686  0.5296 -0.5771
19758TIP3   OH280764   3.805   0.265  14.519 -0.0840  0.0296  0.6897
19758TIP3    H180765   3.840   0.290  14.433 -1.0458  0.8602  0.5147
19758TIP3    H280766   3.816   0.344  14.573  0.3748 -0.4375  1.2834
19759TIP3   OH280767   4.336   1.766   4.125  0.1144  0.1751  0.1954
19759TIP3    H180768   4.370   1.707   4.057 -1.2141  0.3568 -0.6676
19759TIP3    H280769   4.332   1.851   4.082  1.9623  0.9371  1.4189
19760TIP3   OH280770   5.864   5.303   4.664  0.1099 -0.0321 -0.6502
19760TIP3    H180771   5.786   5.248   4.660  0.8235 -1.1966  0.6058
19760TIP3    H280772   5.831   5.392   4.675 -1.0443 -0.3799 -1.1889
19761TIP3   OH280773   0.944   6.025   4.311 -0.4957 -0.0982  0.1078
19761TIP3    H180774   0.866   5.981   4.344 -1.0360 -0.4102 -1.5088
19761TIP3    H280775   0.913   6.108   4.277 -0.0120  0.0679  0.0604
19762TIP3   OH280776   3.245   5.732  12.036  0.0599 -0.0526 -0.5029
19762TIP3    H180777   3.278   5.643  12.024  0.5350  0.0469  0.0379
19762TIP3    H280778   3.150   5.722  12.039  0.1455 -0.7722  1.1595
19763TIP3   OH280779   6.712   6.033  13.106  0.5808 -0.4535  0.4198
19763TIP3    H180780   6.721   6.025  13.201  2.4142 -1.9089  0.1756
19763TIP3    H280781   6.731   5.945  13.073  0.9568  0.2611 -1.3641
19764TIP3   OH280782   1.042   1.601   4.811 -0.1806 -0.1200  0.0658
19764TIP3    H180783   0.998   1.607   4.726 -0.8961 -0.0554  0.4294
19764TIP3    H280784   1.024   1.512   4.841  0.5329 -0.3220 -0.0894
19765TIP3   OH280785   5.411   1.603   4.486 -0.4479 -0.1410  0.3214
19765TIP3    H180786   5.425   1.697   4.470 -0.0956 -0.0401  1.1821
19765TIP3    H280787   5.493   1.562   4.460  0.0603  0.0032  1.6497
19766TIP3   OH280788   6.120   4.075   5.764  0.1225 -0.1027 -0.5847
19766TIP3    H180789   6.097   4.121   5.845  2.9909  1.5620 -0.6144
19766TIP3    H280790   6.106   4.140   5.695  2.3486  0.1513 -0.8423
19767TIP3   OH280791   3.340   3.673  16.700  0.1095  0.3501 -0.0313
19767TIP3    H180792   3.359   3.630  16.618 -0.8372  1.3590 -0.8155
19767TIP3    H280793   3.369   3.612  16.768 -1.8017 -1.8309 -1.0587
19768TIP3   OH280794   2.184   1.266  11.053 -0.1364  0.1246  0.0613
19768TIP3    H180795   2.106   1.239  11.006 -0.3983 -1.3537  1.2437
19768TIP3    H280796   2.235   1.317  10.990 -1.4862  0.0912 -1.0879
19769TIP3   OH280797   1.689   5.522  12.834  0.3808  0.0735 -0.2309
19769TIP3    H180798   1.712   5.565  12.917 -3.1073 -0.0523  0.9723
19769TIP3    H280799   1.700   5.429  12.851 -0.5996  0.0313  0.2224
19770TIP3   OH280800   4.606   1.178   0.150  0.3090  0.6427 -0.4751
19770TIP3    H180801   4.649   1.263   0.154  0.6976  0.4008  0.7328
19770TIP3    H280802   4.668   1.117   0.189 -0.2993 -0.0614 -0.5739
19771TIP3   OH280803   4.344   3.648  16.684  0.2622 -0.0224  0.0467
19771TIP3    H180804   4.315   3.558  16.694  0.8567 -0.2994 -0.6431
19771TIP3    H280805   4.436   3.647  16.710  0.5131  0.1951 -0.7875
19772TIP3   OH280806   6.431   0.210  16.399  0.3041  0.2833 -0.3890
19772TIP3    H180807   6.450   0.130  16.350 -3.4315  0.1807 -1.9995
19772TIP3    H280808   6.437   0.184  16.491  2.7893 -0.7737 -0.7674
19773TIP3   OH280809   0.109   4.679  14.995 -0.3812 -0.2028 -0.0320
19773TIP3    H180810   0.048   4.611  14.968  0.5673 -1.1857  0.2146
19773TIP3    H280811   0.055   4.747  15.035 -1.4104 -0.4851 -0.9055
19774TIP3   OH280812   5.842   0.677   4.679  0.0966  0.6553 -0.0890
19774TIP3    H180813   5.759   0.648   4.717 -0.0586  2.5007  1.0872
19774TIP3    H280814   5.895   0.704   4.755  0.6053  2.3669 -1.0050
19775TIP3   OH280815   5.355   4.721  13.520 -0.0022  0.0001 -0.2907
19775TIP3    H180816   5.321   4.790  13.577 -0.8716 -0.2183 -0.5363
19775TIP3    H280817   5.448   4.743  13.509  0.8884 -1.3017  3.2379
19776TIP3   OH280818   5.274   3.034   5.355 -0.2905 -0.5761  0.0603
19776TIP3    H180819   5.347   3.096   5.355 -0.2541 -0.6048  0.8762
19776TIP3    H280820   5.229   3.049   5.272 -0.6096  0.9428  0.4779
19777TIP3   OH280821   3.405   4.755  15.748  0.1032 -0.4675 -0.0574
19777TIP3    H180822   3.312   4.763  15.727  0.6543  0.9639 -2.3108
19777TIP3    H280823   3.431   4.670  15.713 -0.5583 -1.4370  1.6819
19778TIP3   OH280824   2.595   3.904   6.220  0.6194  0.2830  0.3148
19778TIP3    H180825   2.582   3.995   6.194  0.6173  1.3294  3.5017
19778TIP3    H280826   2.689   3.898   6.239  0.8289 -0.7460 -0.9193
19779TIP3   OH280827   2.690   4.790  15.623  0.6541 -0.2965 -0.2547
19779TIP3    H180828   2.779   4.785  15.587  1.7076  0.4230  2.0520
19779TIP3    H280829   2.644   4.718  15.580  2.1378 -0.2969 -2.0022
19780TIP3   OH280830   6.042   0.302  12.615 -0.0979  0.3402 -0.4776
19780TIP3    H180831   6.095   0.242  12.668 -0.8061  0.8622  0.8638
19780TIP3    H280832   6.060   0.275  12.525  0.9868 -0.7112  0.0128
19781TIP3   OH280833   2.767   2.681   2.344  0.0658 -0.7659  0.0472
19781TIP3    H180834   2.753   2.736   2.421  1.6462 -0.8193  0.4130
19781TIP3    H280835   2.802   2.600   2.379  0.9194 -0.7492 -0.7251
19782TIP3   OH280836   4.476   3.852  16.114  0.0758 -0.4250 -0.0747
19782TIP3    H180837   4.448   3.943  16.107  2.3922  0.2397 -3.6480
19782TIP3    H280838   4.543   3.852  16.183 -1.2340  0.1174  1.2343
19783TIP3   OH280839   0.171   0.444  12.458 -0.1575  0.4998  0.1540
19783TIP3    H180840   0.167   0.522  12.402 -0.7009  1.0517  0.9521
19783TIP3    H280841   0.152   0.476  12.546  0.4981 -0.3915  0.6402
19784TIP3   OH280842   1.833   1.090   0.242 -0.3055 -0.1650  0.5586
19784TIP3    H180843   1.840   1.046   0.327 -3.5669  1.2455  1.7274
19784TIP3    H280844   1.741   1.080   0.218  0.2638  0.5812 -2.2441
19785TIP3   OH280845   1.646   4.648  11.992 -0.0636  0.1068 -0.4991
19785TIP3    H180846   1.578   4.590  11.958 -0.4326 -0.3658  0.9752
19785TIP3    H280847   1.723   4.591  12.002 -0.0594  0.1583 -0.2298
19786TIP3   OH280848   3.235   5.969   4.384 -0.0401 -0.4987 -0.2666
19786TIP3    H180849   3.172   6.018   4.436 -0.0544  1.0470 -1.6683
19786TIP3    H280850   3.316   6.019   4.391  0.0415 -0.4375 -1.4199
19787TIP3   OH280851   2.913   5.010  14.343 -0.2063 -0.6132  0.4034
19787TIP3    H180852   2.884   4.919  14.332  0.1597 -0.9435  1.8159
19787TIP3    H280853   2.998   5.013  14.299 -0.0432 -1.0766  0.6702
19788TIP3   OH280854   1.511   6.315   3.954 -0.6415  0.0318 -0.3964
19788TIP3    H180855   1.569   6.242   3.932 -0.4494  0.2543 -0.6351
19788TIP3    H280856   1.564   6.369   4.014 -0.1631  0.8473 -1.5203
19789TIP3   OH280857   2.641   2.391  16.716 -0.2709 -0.0999 -0.6471
19789TIP3    H180858   2.575   2.399  16.786 -0.7465 -0.9636 -0.9836
19789TIP3    H280859   2.663   2.482  16.694 -0.5179  0.1944  0.2411
19790TIP3   OH280860   3.589   1.180  16.373 -0.0018 -0.4615  0.1282
19790TIP3    H180861   3.616   1.090  16.358 -0.4045 -0.6302  0.4019
19790TIP3    H280862   3.671   1.228  16.385  0.1781 -1.0108  1.2004
19791TIP3   OH280863   1.829   0.849  11.190  0.5991  0.0951  0.1489
19791TIP3    H180864   1.761   0.903  11.230 -0.4201 -1.5526  0.7581
19791TIP3    H280865   1.788   0.763  11.180  1.3561 -0.0350 -2.8982
19792TIP3   OH280866   2.680   5.001  16.363 -0.8520 -0.7644 -0.2801
19792TIP3    H180867   2.683   4.917  16.317 -2.0293 -0.9802 -0.0117
19792TIP3    H280868   2.742   4.991  16.435  0.9060 -0.4697 -1.6919
19793TIP3   OH280869   6.301   0.750   3.851 -0.0212  0.0742 -0.2099
19793TIP3    H180870   6.270   0.667   3.887 -2.0960  0.6605 -0.4992
19793TIP3    H280871   6.323   0.729   3.760 -0.8756 -0.1214 -0.3886
19794TIP3   OH280872   2.665   2.639   6.522  0.1624  0.0274 -0.2575
19794TIP3    H180873   2.654   2.597   6.437  1.7503 -1.0743  0.0376
19794TIP3    H280874   2.598   2.599   6.577  0.9709 -1.3880 -0.2624
19795TIP3   OH280875   2.252   0.882  12.242  0.1843 -0.2793  0.1087
19795TIP3    H180876   2.261   0.969  12.280 -0.4102  0.3565 -1.1716
19795TIP3    H280877   2.217   0.897  12.154  0.0619 -1.8075 -0.1297
19796TIP3   OH280878   2.626   0.515  14.131  0.3383 -0.0864  0.3732
19796TIP3    H180879   2.536   0.499  14.161 -0.1317  0.1552 -0.8360
19796TIP3    H280880   2.661   0.427  14.114  0.3780 -0.1887  0.9723
19797TIP3   OH280881   6.594   5.668   5.151 -0.0527  0.0757 -0.2629
19797TIP3    H180882   6.670   5.615   5.175  0.0735  0.9445  1.3893
19797TIP3    H280883   6.623   5.718   5.075  0.5609 -0.6079 -0.4875
19798TIP3   OH280884   4.404   3.019   1.665  0.1375 -0.0958 -0.2743
19798TIP3    H180885   4.390   2.925   1.653  1.1366 -0.4633  1.1499
19798TIP3    H280886   4.486   3.025   1.715 -0.4033  1.4773  0.5099
19799TIP3   OH280887   2.014   3.515  14.419 -0.3859  0.1578  0.2854
19799TIP3    H180888   1.944   3.548  14.475  0.6593  2.9104  0.1272
19799TIP3    H280889   2.085   3.494  14.479  0.1105  1.4173  0.1589
19800TIP3   OH280890   6.581   2.082   1.465 -0.0463  0.1553  0.2913
19800TIP3    H180891   6.654   2.021   1.475 -0.3150 -0.5428 -1.5628
19800TIP3    H280892   6.557   2.105   1.554  0.9547 -1.3924  1.0148
19801TIP3   OH280893   3.802   4.176  15.786 -0.4821  0.6085  0.8001
19801TIP3    H180894   3.799   4.183  15.691  0.1890 -0.6757  0.6608
19801TIP3    H280895   3.885   4.216  15.811 -0.2352  0.1388  0.7476
19802TIP3   OH280896   2.589   4.914  17.244 -0.1736 -0.1420 -0.2538
19802TIP3    H180897   2.498   4.895  17.223 -0.7870 -0.7459  2.5304
19802TIP3    H280898   2.607   4.863  17.323  1.9689  1.4404  0.3964
19803TIP3   OH280899   4.831   2.904   1.404  0.4623  0.3844  0.2500
19803TIP3    H180900   4.851   2.863   1.488 -0.8300 -2.1200 -0.5567
19803TIP3    H280901   4.765   2.971   1.425 -1.7761 -1.9002  1.0549
19804TIP3   OH280902   2.397   6.336  17.228  0.4004 -0.6516  0.1651
19804TIP3    H180903   2.381   6.379  17.145  1.6721 -0.4157  0.0218
19804TIP3    H280904   2.357   6.249  17.219  1.0498 -0.8492 -0.9180
19805TIP3   OH280905   6.240   5.605  15.338 -0.0881 -0.2098  0.3936
19805TIP3    H180906   6.148   5.628  15.329 -0.1460 -0.2872  0.7799
19805TIP3    H280907   6.253   5.532  15.277 -0.2591 -0.1338  0.2675
19806TIP3   OH280908   5.567   1.210  14.703 -0.5064  0.0076 -0.4514
19806TIP3    H180909   5.493   1.270  14.709 -1.1580 -0.8394  0.3993
19806TIP3    H280910   5.588   1.207  14.609 -2.0547 -0.3115 -0.8146
19807TIP3   OH280911   0.598   2.546  16.975 -0.1398 -0.3988  0.1519
19807TIP3    H180912   0.570   2.552  17.066 -0.9659 -2.7750  0.1268
19807TIP3    H280913   0.693   2.534  16.981 -0.3081 -1.6688  0.8242
19808TIP3   OH280914   6.719   1.309  12.161  0.0359  0.4979  0.3009
19808TIP3    H180915   6.712   1.272  12.073 -3.0411  0.0619  0.6344
19808TIP3    H280916   6.755   1.396  12.147 -0.6264  0.5387 -1.4401
19809TIP3   OH280917   3.135   2.238   4.591  0.2838 -0.0199  0.1889
19809TIP3    H180918   3.159   2.329   4.577  0.0439 -0.1392 -1.0948
19809TIP3    H280919   3.200   2.205   4.654 -0.4731  1.3900  1.7930
19810TIP3   OH280920   6.327   4.027   4.322 -0.3618  0.3240 -0.5621
19810TIP3    H180921   6.410   3.987   4.294  0.3566  1.4526 -0.1145
19810TIP3    H280922   6.322   4.108   4.272 -0.2726  1.1601  0.7554
19811TIP3   OH280923   0.495   5.638  17.222 -0.4060  0.2547  0.4013
19811TIP3    H180924   0.430   5.568  17.223 -1.9125  1.4746 -2.0092
19811TIP3    H280925   0.500   5.668  17.313  0.5978 -3.1287  1.5947
19812TIP3   OH280926   6.147   2.716   1.564  0.2760  0.1609 -0.6638
19812TIP3    H180927   6.101   2.744   1.643 -1.9985  0.4407 -2.0076
19812TIP3    H280928   6.090   2.651   1.524  1.7750 -0.5841 -1.6862
19813TIP3   OH280929   2.388   4.169   2.577 -0.3436 -0.1689 -0.0151
19813TIP3    H180930   2.409   4.164   2.670 -3.1215 -0.0452  0.7075
19813TIP3    H280931   2.307   4.119   2.568 -1.4235  1.7476 -1.9093
19814TIP3   OH280932   2.065   1.579   3.233 -0.3446 -0.4581 -0.0312
19814TIP3    H180933   2.142   1.636   3.233 -0.1712 -0.6612  1.1715
19814TIP3    H280934   1.996   1.630   3.275 -0.5816 -0.6469 -0.1824
19815TIP3   OH280935   2.671   2.990   6.247 -0.5359 -0.4882 -0.6183
19815TIP3    H180936   2.681   2.911   6.300  0.0488 -0.0881 -0.1251
19815TIP3    H280937   2.617   2.962   6.173 -1.2261 -1.0939  0.0902
19816TIP3   OH280938   1.710   1.692   1.555 -0.6635 -0.2842  0.3049
19816TIP3    H180939   1.786   1.746   1.574 -0.2492 -1.2887  1.6804
19816TIP3    H280940   1.734   1.605   1.587 -2.0483 -0.8264 -0.0552
19817TIP3   OH280941   6.179   3.039  16.080 -0.3726 -0.2556 -0.4337
19817TIP3    H180942   6.270   3.065  16.096 -0.1758 -1.5353  0.7453
19817TIP3    H280943   6.129   3.086  16.146 -0.3239 -0.9491  0.1061
19818TIP3   OH280944   1.860   3.634   4.696  0.5911 -0.3738  0.3044
19818TIP3    H180945   1.871   3.542   4.672 -0.5817 -0.2528 -0.8294
19818TIP3    H280946   1.942   3.676   4.671 -0.1939 -0.4338 -2.8183
19819TIP3   OH280947   5.648   1.225   5.621  0.0260  0.2510  0.0101
19819TIP3    H180948   5.687   1.304   5.661 -1.0642  0.4960  0.6210
19819TIP3    H280949   5.717   1.159   5.628  1.1149  1.2424 -0.8901
19820TIP3   OH280950   3.967   5.151   5.893  0.6961  0.1725 -0.3482
19820TIP3    H180951   3.917   5.223   5.932  1.0923 -0.6938  1.9225
19820TIP3    H280952   4.012   5.110   5.967  1.5093 -1.6254 -1.7508
19821TIP3   OH280953   0.161   2.025  16.418  0.4989 -0.2012 -0.3373
19821TIP3    H180954   0.177   1.938  16.381  0.7137  0.8202 -2.8569
19821TIP3    H280955   0.218   2.029  16.495  1.3743 -1.8736 -0.8472
19822TIP3   OH280956   4.977   1.993  14.877 -0.3267 -0.3039  0.2242
19822TIP3    H180957   4.956   2.020  14.788 -0.5806 -3.8059 -0.9601
19822TIP3    H280958   4.894   1.996  14.924 -1.3725 -3.0942 -1.1825
19823TIP3   OH280959   1.364   2.098  13.234  0.5484  0.1348 -0.2417
19823TIP3    H180960   1.356   2.187  13.201 -1.3804  0.8419  1.9460
19823TIP3    H280961   1.427   2.104  13.305  2.0865 -0.7322 -1.4663
19824TIP3   OH280962   2.332   1.726  15.717 -0.0358  0.3013  0.9216
19824TIP3    H180963   2.307   1.815  15.744 -1.0710  0.5526 -0.7525
19824TIP3    H280964   2.379   1.738  15.635 -0.3920 -0.7200  0.5537
19825TIP3   OH280965   1.143   2.173   5.860  0.3388  0.1694  0.5718
19825TIP3    H180966   1.201   2.190   5.786  1.4165 -0.4595  1.2426
19825TIP3    H280967   1.151   2.251   5.915 -2.4153  1.8118 -1.1111
19826TIP3   OH280968   2.630   3.600  15.226  0.1831  0.9672  0.2344
19826TIP3    H180969   2.695   3.606  15.156 -1.5208 -1.7491 -1.8438
19826TIP3    H280970   2.681   3.592  15.306  2.4643 -0.7380 -1.2579
19827TIP3   OH280971   2.304   5.699   5.953 -0.5231 -0.1945 -0.3095
19827TIP3    H180972   2.380   5.702   6.010 -0.5340  1.5518 -0.3289
19827TIP3    H280973   2.331   5.745   5.874 -1.7430  0.9314 -0.1038
19828TIP3   OH280974   6.192   1.867  10.934  0.3649 -0.5538 -0.1960
19828TIP3    H180975   6.103   1.864  10.967  0.7216  0.6671  0.9551
19828TIP3    H280976   6.208   1.779  10.900 -0.2745 -1.7180  2.2934
19829TIP3   OH280977   1.561   3.022   3.442  0.5775 -0.4669 -0.3473
19829TIP3    H180978   1.609   3.062   3.370  1.8554 -1.4056 -0.0409
19829TIP3    H280979   1.578   2.929   3.434 -0.9684 -0.8033 -0.0360
19830TIP3   OH280980   3.439   5.714   5.540 -0.4559 -0.3733  0.3994
19830TIP3    H180981   3.351   5.743   5.566 -1.0395 -1.9441  0.2781
19830TIP3    H280982   3.498   5.775   5.584 -1.6249  1.4345 -0.4446
19831TIP3   OH280983   0.608   1.997   1.841 -0.5474  0.3266 -0.0881
19831TIP3    H180984   0.527   1.973   1.794 -0.9470  0.9603  0.2615
19831TIP3    H280985   0.611   2.093   1.835  0.1316  0.3105 -0.0069
19832TIP3   OH280986   4.395   0.406  11.806 -0.4826  0.2504  0.7918
19832TIP3    H180987   4.342   0.486  11.811 -1.4192 -0.3190  0.3474
19832TIP3    H280988   4.384   0.376  11.715  0.4997  0.0324  0.7301
19833TIP3   OH280989   1.910   4.420  16.124  0.3573 -0.0358  0.1217
19833TIP3    H180990   1.975   4.397  16.057 -0.6487 -0.2235 -0.8233
19833TIP3    H280991   1.889   4.336  16.166  1.6952  0.2109  1.3842
19834TIP3   OH280992   2.866   2.914   5.625 -0.2942 -0.1444 -0.3517
19834TIP3    H180993   2.840   3.005   5.609 -0.9118 -0.3772 -0.7259
19834TIP3    H280994   2.845   2.899   5.717 -0.2183  0.0830 -0.2966
19835TIP3   OH280995   0.425   0.057  12.714  0.6595 -0.1478 -0.7098
19835TIP3    H180996   0.477   0.131  12.744  0.2918  0.2352 -1.0166
19835TIP3    H280997   0.420  -0.002  12.790  3.6206 -1.3880 -1.3377
19836TIP3   OH280998   1.620   6.623  15.868  0.5757 -0.5902 -0.1358
19836TIP3    H180999   1.658   6.676  15.799 -0.2961 -0.1124 -0.2691
19836TIP3    H281000   1.554   6.569  15.823  0.6459 -0.9443  0.1800
19837TIP3   OH281001   5.271   1.137   4.936 -0.0773 -0.2212  0.2479
19837TIP3    H181002   5.279   1.056   4.986  0.2734  0.1049  0.7192
19837TIP3    H281003   5.295   1.206   4.997  1.4595  0.1034 -0.6794
19838TIP3   OH281004   4.234   3.916  10.648  0.0485 -0.0211 -0.0850
19838TIP3    H181005   4.219   3.890  10.557 -2.2656  1.0468 -0.0689
19838TIP3    H281006   4.147   3.918  10.688  0.9713 -0.1903  2.1061
19839TIP3   OH281007   5.039   6.772  15.284 -0.1385  0.4966  0.4604
19839TIP3    H181008   5.075   6.826  15.213 -0.3464  1.2682  0.9291
19839TIP3    H281009   5.059   6.682  15.258  1.1813  0.8504  0.1878
19840TIP3   OH281010   2.871   5.465  16.906  0.2901  0.4070 -0.0768
19840TIP3    H181011   2.843   5.555  16.921  0.8061  0.5618  0.0048
19840TIP3    H281012   2.919   5.468  16.823 -0.1197  0.1122 -0.3250
19841TIP3   OH281013   2.495   0.781   0.647  0.9861 -0.0368 -0.2358
19841TIP3    H181014   2.457   0.826   0.722  0.3885 -1.1815  0.1770
19841TIP3    H281015   2.549   0.847   0.604 -0.9496  1.4817 -0.4770
19842TIP3   OH281016   2.262   1.757  14.948  0.3918  0.1732  0.2860
19842TIP3    H181017   2.253   1.849  14.925  1.9262  0.8528  2.1145
19842TIP3    H281018   2.181   1.736  14.995 -0.9617 -0.1154 -2.0393
19843TIP3   OH281019   5.394   6.774   2.994  0.1253 -0.6044 -0.1460
19843TIP3    H181020   5.364   6.851   2.945  0.1977  0.2442  1.1068
19843TIP3    H281021   5.337   6.771   3.071  0.9216 -1.0768  0.4371
19844TIP3   OH281022   4.215   3.347  11.838 -0.1614  0.5692 -0.0151
19844TIP3    H181023   4.207   3.409  11.911 -0.1760  2.6601 -1.7040
19844TIP3    H281024   4.176   3.392  11.763 -2.2981 -2.4040 -0.9066
19845TIP3   OH281025   6.505   6.413  14.468  0.3008 -0.4117 -0.3790
19845TIP3    H181026   6.430   6.354  14.469 -1.1278  1.3167  0.3888
19845TIP3    H281027   6.474   6.491  14.422  1.5697  0.4004  0.0761
19846TIP3   OH281028   0.955   5.981  11.075 -0.4832  0.1650  0.3297
19846TIP3    H181029   0.981   5.890  11.062 -0.8529  0.2130 -0.8749
19846TIP3    H281030   0.981   6.001  11.165  3.2390  0.0687 -0.5403
19847TIP3   OH281031   3.182   1.551  13.447  0.0490 -0.1949  0.0025
19847TIP3    H181032   3.106   1.556  13.505  0.1477 -1.8373  0.3398
19847TIP3    H281033   3.147   1.518  13.364  0.2841 -0.2953 -0.0581
19848TIP3   OH281034   0.734   5.995   3.902  0.0755 -0.1071 -0.3239
19848TIP3    H181035   0.733   5.899   3.898  1.6265 -0.1610  0.0236
19848TIP3    H281036   0.645   6.018   3.930 -0.5601 -1.3892 -1.1388
19849TIP3   OH281037   3.054   5.104  12.436 -0.0422 -0.2352  0.5543
19849TIP3    H181038   3.099   5.177  12.394 -2.3773  0.8689 -0.2173
19849TIP3    H281039   2.990   5.145  12.494 -1.6004 -1.6260 -0.0883
19850TIP3   OH281040   1.407   6.818  16.702  0.2191 -0.6852  0.5653
19850TIP3    H181041   1.465   6.871  16.757  0.9729 -1.5350  0.6164
19850TIP3    H281042   1.466   6.757  16.657 -0.3072  0.3518 -1.6334
19851TIP3   OH281043   3.997   1.218  11.826  0.2018  0.0168 -0.0983
19851TIP3    H181044   3.923   1.278  11.831 -0.2090 -0.4317 -0.6695
19851TIP3    H281045   4.067   1.261  11.875 -0.0502  0.9962 -0.5851
19852TIP3   OH281046   4.672   3.118   1.454 -0.4622  0.1650  0.0585
19852TIP3    H181047   4.712   3.166   1.381 -1.0899 -1.3356 -1.3325
19852TIP3    H281048   4.578   3.129   1.442 -0.5824 -0.4444  0.3767
19853TIP3   OH281049   5.782   2.556  16.954 -0.4317 -0.2539  0.6027
19853TIP3    H181050   5.861   2.575  16.903 -1.3797 -1.5626 -1.5069
19853TIP3    H281051   5.810   2.561  17.045  1.6523  0.9955 -0.0458
19854TIP3   OH281052   5.483   2.111   4.582  0.1694 -0.3106  0.4940
19854TIP3    H181053   5.435   2.144   4.658 -0.7693 -0.5038  0.0021
19854TIP3    H281054   5.456   2.167   4.509  1.3819  0.1411  0.3640
19855TIP3   OH281055   1.719   6.756  15.654 -0.1920 -0.2707 -0.0072
19855TIP3    H181056   1.729   6.661  15.646  0.3703 -0.4626  2.3574
19855TIP3    H281057   1.808   6.790  15.645 -0.3844  0.0684 -0.7871
19856TIP3   OH281058   0.592   5.772  13.661 -0.4202 -0.2461  0.3057
19856TIP3    H181059   0.612   5.679  13.662  1.9482  0.1831 -0.2438
19856TIP3    H281060   0.606   5.801  13.751  1.3296 -0.0112 -0.0098
19857TIP3   OH281061   6.640   6.629  17.208  0.2588  0.2991  0.2676
19857TIP3    H181062   6.631   6.683  17.287 -1.8137  2.0242 -1.0399
19857TIP3    H281063   6.726   6.654  17.172  0.6742  0.4069  1.2941
19858TIP3   OH281064   0.586   0.473   5.042 -0.0410 -0.3607 -0.4687
19858TIP3    H181065   0.607   0.456   4.950 -0.5661 -0.4966 -0.5668
19858TIP3    H281066   0.507   0.527   5.039 -0.1882 -0.5492 -0.0938
19859TIP3   OH281067   1.832   4.883   0.805 -0.3664  0.4333  0.2345
19859TIP3    H181068   1.849   4.976   0.794 -0.1737  0.2345 -1.4585
19859TIP3    H281069   1.765   4.863   0.740  0.1904 -0.7658  0.0029
19860TIP3   OH281070   6.621   5.549  12.123  0.1149 -0.9055 -0.6535
19860TIP3    H181071   6.625   5.639  12.091  0.2824 -0.6515  0.0701
19860TIP3    H281072   6.528   5.532  12.137  0.0499 -0.9810 -1.1622
19861TIP3   OH281073   2.341   0.400   0.767  0.5115  0.4002  0.2772
19861TIP3    H181074   2.386   0.448   0.698 -0.6678  1.1925  0.0405
19861TIP3    H281075   2.334   0.461   0.840 -1.1009  0.6763 -0.0668
19862TIP3   OH281076   6.183   0.955  15.482 -0.1954 -0.0599 -0.5982
19862TIP3    H181077   6.113   0.952  15.417 -1.4147  0.1114  0.6754
19862TIP3    H281078   6.168   1.036  15.530  1.8069  0.7796 -1.2722
19863TIP3   OH281079   2.446   0.012  11.778 -0.0044  0.5727  0.0780
19863TIP3    H181080   2.418  -0.079  11.768 -1.3198  0.9508  0.0560
19863TIP3    H281081   2.539   0.012  11.753 -0.4076 -0.4571 -1.6239
19864TIP3   OH281082   6.086   1.073   0.813 -0.3976 -0.0036  0.3423
19864TIP3    H181083   6.117   1.010   0.748  0.8782 -0.6104  1.4823
19864TIP3    H281084   6.054   1.018   0.885  0.8065  0.6305  1.3860
19865TIP3   OH281085   2.729   3.156   2.352 -0.2096  0.3153 -0.0901
19865TIP3    H181086   2.816   3.117   2.343 -0.6163 -0.0915 -3.0574
19865TIP3    H281087   2.745   3.250   2.360  0.5194  0.0992  1.4847
19866TIP3   OH281088   3.993   5.745   0.101  0.4481 -0.0405  0.5067
19866TIP3    H181089   4.075   5.720   0.144 -0.0247 -1.5489  0.5819
19866TIP3    H281090   3.926   5.692   0.144 -0.6140  1.3324  0.5990
19867TIP3   OH281091   0.179   0.289  16.320  0.3250  0.1827  0.0721
19867TIP3    H181092   0.213   0.247  16.241  0.5263  2.2815 -1.0244
19867TIP3    H281093   0.084   0.277  16.315  0.2466  1.1562 -1.0232
19868TIP3   OH281094   6.603   3.458   4.566  0.0963 -0.3260  0.4434
19868TIP3    H181095   6.688   3.497   4.549 -0.4437  0.2997 -0.9917
19868TIP3    H281096   6.612   3.416   4.652  1.5516  0.5204  0.7350
19869TIP3   OH281097   0.439   3.626   4.617 -0.4128 -0.3232  0.2882
19869TIP3    H181098   0.480   3.685   4.681  0.2018  0.4324 -0.7730
19869TIP3    H281099   0.365   3.588   4.664  1.2303 -1.4337  2.1577
19870TIP3   OH281100   4.364   5.606   1.838  0.1300  0.0881  0.1397
19870TIP3    H181101   4.438   5.550   1.814 -1.0703 -1.9532  0.9446
19870TIP3    H281102   4.287   5.550   1.826 -1.5387  2.6675 -2.3449
19871TIP3   OH281103   2.594   4.802   5.729 -0.2421 -0.0259  0.0958
19871TIP3    H181104   2.618   4.895   5.722  1.6092 -0.5132 -0.8641
19871TIP3    H281105   2.528   4.799   5.798 -0.7439  2.0696 -0.2270
19872TIP3   OH281106   4.874   3.919  13.490 -0.0899  0.5644 -0.3741
19872TIP3    H181107   4.859   3.963  13.574 -3.3758 -0.3521 -0.3468
19872TIP3    H281108   4.896   3.829  13.513  2.0767  1.0076 -0.5174
19873TIP3   OH281109   4.151   3.724  12.991 -0.3137 -0.0391  0.4360
19873TIP3    H181110   4.135   3.800  12.935  1.9688 -0.4209 -0.8950
19873TIP3    H281111   4.164   3.760  13.079  1.3237  1.2258 -0.2876
19874TIP3   OH281112   3.552   2.872  15.475  0.0767 -0.3420  0.3422
19874TIP3    H181113   3.599   2.826  15.405 -0.4750 -1.7123  0.8510
19874TIP3    H281114   3.566   2.819  15.553 -1.3041 -0.1423  0.7618
19875TIP3   OH281115   0.467   3.329  11.610 -0.0791  0.3800 -0.2225
19875TIP3    H181116   0.432   3.326  11.699  0.0308 -1.3827 -0.2150
19875TIP3    H281117   0.423   3.258  11.564 -0.0703  1.2037 -1.5754
19876TIP3   OH281118   0.654   3.655   1.334  0.3552 -0.3789  0.4875
19876TIP3    H181119   0.579   3.643   1.392  0.6834 -1.1984  0.7504
19876TIP3    H281120   0.618   3.649   1.246 -0.0643  0.3686  0.5930
19877TIP3   OH281121   2.355   5.172   3.361  0.4176  0.1480  0.1513
19877TIP3    H181122   2.347   5.268   3.356  2.5357  0.3739  0.2161
19877TIP3    H281123   2.407   5.148   3.284  3.0318 -0.4692  1.9689
19878TIP3   OH281124   3.239   0.955   1.998  0.5725  0.0408  0.1300
19878TIP3    H181125   3.215   0.952   2.090 -4.2136 -0.2334 -0.8392
19878TIP3    H281126   3.216   1.043   1.970 -2.3733 -1.1069 -1.5318
19879TIP3   OH281127   2.432   4.829   2.239  0.0781  0.1561 -0.0689
19879TIP3    H181128   2.397   4.910   2.205  1.5021  0.2533 -1.4154
19879TIP3    H281129   2.441   4.844   2.334 -0.2725  1.3250 -0.2124
19880TIP3   OH281130   0.681   0.700   6.105 -0.1430  0.3288  0.2451
19880TIP3    H181131   0.633   0.689   6.187 -0.1266 -0.2040  0.1877
19880TIP3    H281132   0.768   0.664   6.124  0.5641  2.1678  0.6469
19881TIP3   OH281133   6.370   5.870  14.335  0.0057  0.0321 -0.4481
19881TIP3    H181134   6.279   5.846  14.356  0.9160 -2.4714  1.0187
19881TIP3    H281135   6.395   5.810  14.264  0.9759 -0.3387  0.1933
19882TIP3   OH281136   5.420   5.097   4.152 -0.4404  0.0680 -0.1252
19882TIP3    H181137   5.467   5.179   4.135 -0.2862 -0.0425 -0.2287
19882TIP3    H281138   5.469   5.031   4.104  0.8516 -0.4867  1.8504
19883TIP3   OH281139   0.774   6.735  11.830  0.7028 -0.0237  1.2440
19883TIP3    H181140   0.812   6.703  11.748  0.0043 -0.4168  1.0617
19883TIP3    H281141   0.849   6.763  11.882  1.0444  2.3005 -0.3767
19884TIP3   OH281142   5.952   0.777   0.556 -0.3343 -0.4778 -0.2118
19884TIP3    H181143   5.922   0.692   0.588 -0.6290 -0.0699  0.6304
19884TIP3    H281144   5.897   0.796   0.480  1.9317 -2.5643 -2.5947
19885TIP3   OH281145   0.187   6.571  15.968  0.3816  0.0980 -0.4022
19885TIP3    H181146   0.144   6.566  16.053 -0.9623 -1.5467 -1.1357
19885TIP3    H281147   0.213   6.663  15.960  1.3714  0.1234  2.1488
19886TIP3   OH281148   3.888   3.027   2.558 -0.2336 -0.1047 -0.3265
19886TIP3    H181149   3.968   2.981   2.532  0.7857  1.0931  0.6158
19886TIP3    H281150   3.855   3.065   2.477  1.3985  1.2784 -0.3819
19887TIP3   OH281151   5.618   3.351  13.448 -0.4068 -0.6670  0.0812
19887TIP3    H181152   5.545   3.291  13.436 -1.2945  0.5317 -0.8605
19887TIP3    H281153   5.610   3.382  13.538 -0.4011 -1.3415  0.3205
19888TIP3   OH281154   5.795   4.131  11.577 -0.0497 -0.3684 -0.7659
19888TIP3    H181155   5.730   4.171  11.634 -0.4714 -0.5428 -1.1194
19888TIP3    H281156   5.869   4.111  11.635 -0.6584 -0.9883 -0.1846
19889TIP3   OH281157   5.143   4.905   2.955  0.2018  0.0340  0.6163
19889TIP3    H181158   5.051   4.930   2.946 -0.1814 -1.3472  0.4821
19889TIP3    H281159   5.141   4.825   3.007  1.3284 -0.0053  0.6143
19890TIP3   OH281160   0.982   2.035   1.399 -0.0987  0.1000 -0.5632
19890TIP3    H181161   0.964   1.971   1.468  0.8499  0.3886 -0.0257
19890TIP3    H281162   1.073   2.062   1.415 -1.4503  4.2458  1.4139
19891TIP3   OH281163   1.380   4.242  15.719 -0.2350  0.4143 -0.1562
19891TIP3    H181164   1.409   4.239  15.628  1.4709 -0.4098  0.3707
19891TIP3    H281165   1.355   4.333  15.733  0.9969  0.9139 -1.0247
19892TIP3   OH281166   6.363   4.767  16.354  0.4619  0.3482 -0.5816
19892TIP3    H181167   6.281   4.740  16.397  0.4235  0.6281 -0.4752
19892TIP3    H281168   6.335   4.818  16.278  0.5356  0.1708 -0.7297
19893TIP3   OH281169   5.986   4.594  13.189  0.1366  0.1685  0.2935
19893TIP3    H181170   6.074   4.631  13.185  0.1231  0.2518  0.7201
19893TIP3    H281171   5.945   4.622  13.107  0.7277 -0.4505 -0.2167
19894TIP3   OH281172   5.175   0.612   4.261 -0.3382  0.5307 -0.2266
19894TIP3    H181173   5.223   0.689   4.229  0.9726 -0.1365  0.0579
19894TIP3    H281174   5.165   0.628   4.355  1.2598 -0.2725  0.1264
19895TIP3   OH281175   6.366   6.503  14.708  0.7223 -0.1694 -0.3451
19895TIP3    H181176   6.363   6.596  14.688  0.2540 -0.2705 -0.7676
19895TIP3    H281177   6.439   6.470  14.655  0.7716 -0.0771 -0.3357
19896TIP3   OH281178   2.102   6.234  16.106 -0.4190  0.6172  0.0203
19896TIP3    H181179   2.068   6.160  16.055  1.2887 -0.4694  0.3527
19896TIP3    H281180   2.173   6.269  16.052  1.5949 -0.7190  1.6658
19897TIP3   OH281181   6.503   1.737   3.236 -0.0494 -0.1556 -0.1118
19897TIP3    H181182   6.593   1.706   3.227 -0.2602 -0.8645  0.1374
19897TIP3    H281183   6.462   1.715   3.153  0.5715  2.2143 -1.1347
19898TIP3   OH281184   5.879   3.137  15.325  0.3476 -1.3277 -0.3482
19898TIP3    H181185   5.847   3.046  15.325 -2.9568 -0.3039  0.5922
19898TIP3    H281186   5.813   3.185  15.276 -0.2562  1.1985  2.6878
19899TIP3   OH281187   3.817   1.182  15.363  0.0973  0.2574  0.2082
19899TIP3    H181188   3.780   1.198  15.449  0.2920 -0.0223  0.3442
19899TIP3    H281189   3.910   1.207  15.371 -0.1014  1.1779 -0.1935
19900TIP3   OH281190   3.179   6.153   2.899  1.0289 -0.0129 -0.0772
19900TIP3    H181191   3.113   6.161   2.969 -0.0454  2.4915 -1.2267
19900TIP3    H281192   3.136   6.100   2.832 -0.0105  1.8174 -0.9293
19901TIP3   OH281193   5.085   2.903  11.447 -0.4732 -0.0358  0.3691
19901TIP3    H181194   5.011   2.964  11.452 -0.0791  0.5708 -0.8349
19901TIP3    H281195   5.080   2.853  11.529 -1.5902  0.7036  0.7824
19902TIP3   OH281196   0.754   3.080  11.506  0.6911  0.3278 -0.0864
19902TIP3    H181197   0.670   3.108  11.469 -0.3797 -1.1530  1.0501
19902TIP3    H281198   0.732   3.057  11.597  2.8797  2.3763  1.0727
19903TIP3   OH281199   5.853   2.594   6.601  0.1054 -0.5577 -0.0517
19903TIP3    H181200   5.895   2.633   6.678  1.5347  0.6220 -1.3536
19903TIP3    H281201   5.787   2.535   6.637  1.5018 -0.9376  2.0958
19904TIP3   OH281202   3.797   6.673  15.217  0.2539 -0.5965  0.1109
19904TIP3    H181203   3.833   6.730  15.149 -1.1391  0.9409  0.5868
19904TIP3    H281204   3.874   6.634  15.258  1.2257  0.2313 -0.8387
19905TIP3   OH281205   5.995   3.781   0.700 -0.5891  0.1276 -0.0845
19905TIP3    H181206   6.017   3.788   0.607 -1.3011 -2.5036 -0.5197
19905TIP3    H281207   6.032   3.860   0.739  0.6454  0.7982 -2.4189
19906TIP3   OH281208   5.431   6.515  14.482 -0.1998 -0.0481  0.5225
19906TIP3    H181209   5.522   6.502  14.510 -0.1788 -1.2699 -0.0764
19906TIP3    H281210   5.391   6.428  14.488 -0.9941  0.2352 -0.3921
19907TIP3   OH281211   0.027   6.658   4.538  0.0358 -0.0204  0.3652
19907TIP3    H181212   0.073   6.588   4.493 -0.0915  0.3786 -0.4044
19907TIP3    H281213  -0.066   6.634   4.534  0.0425 -0.0939  0.6162
19908TIP3   OH281214   4.733   1.747  14.866  0.3624 -0.1695  0.0411
19908TIP3    H181215   4.814   1.798  14.862 -0.4083  1.2714  1.4636
19908TIP3    H281216   4.749   1.672  14.809  2.0756  0.9318 -1.0348
19909TIP3   OH281217   2.281   0.751  12.852 -0.1249  0.2455 -0.0041
19909TIP3    H181218   2.292   0.660  12.880 -0.5916  0.0305 -0.5183
19909TIP3    H281219   2.215   0.786  12.911  0.9809  0.6428  1.0510
19910TIP3   OH281220   5.626   1.230  16.240 -0.2585 -0.8512  0.5340
19910TIP3    H181221   5.623   1.203  16.148 -1.3921 -1.3974  0.7168
19910TIP3    H281222   5.534   1.233  16.267 -0.1997  2.4020  0.7686
19911TIP3   OH281223   4.164   5.033   3.469 -0.0584 -0.1425  0.2131
19911TIP3    H181224   4.211   5.080   3.539 -2.3220  1.4703  0.7510
19911TIP3    H281225   4.166   5.093   3.395 -1.0899 -0.1351  0.1854
19912TIP3   OH281226   3.273   4.178   5.251  0.3865 -0.3667  0.1621
19912TIP3    H181227   3.264   4.231   5.172  1.5323 -1.0267 -0.4470
19912TIP3    H281228   3.321   4.100   5.222 -0.2949 -1.2201  1.2574
19913TIP3   OH281229   4.042   3.470  13.400  0.1548  0.2154 -0.1278
19913TIP3    H181230   4.016   3.550  13.446 -2.3755 -0.8236  0.4022
19913TIP3    H281231   4.127   3.447  13.439  1.3122  2.9480 -0.7806
19914TIP3   OH281232   5.146   6.612  13.498  0.0741 -0.7002 -0.1709
19914TIP3    H181233   5.117   6.667  13.425 -0.7535  0.1101  0.7465
19914TIP3    H281234   5.077   6.619  13.564  1.7569  0.3241  1.5990
19915TIP3   OH281235   0.161   3.663  16.403  0.0052  0.8390  0.5277
19915TIP3    H181236   0.083   3.655  16.348 -0.0628  3.2275  0.1656
19915TIP3    H281237   0.197   3.749  16.381  1.6062  0.6449  2.1504
19916TIP3   OH281238   0.635   5.016   5.359  0.2523  0.0184  0.6754
19916TIP3    H181239   0.702   4.954   5.389 -0.2779  0.1011  2.1488
19916TIP3    H281240   0.581   4.965   5.298  1.9205  0.1072 -0.9569
19917TIP3   OH281241   1.381   0.361  16.275  0.1586 -0.2239 -0.0658
19917TIP3    H181242   1.314   0.397  16.333  0.3407 -1.5148  0.9721
19917TIP3    H281243   1.397   0.273  16.308  1.2337 -0.5080 -1.2745
19918TIP3   OH281244   1.101   4.858   3.147 -0.2519 -0.4903 -0.2833
19918TIP3    H181245   1.154   4.937   3.158 -0.8642  0.3361 -2.6389
19918TIP3    H281246   1.148   4.807   3.082 -0.6998 -1.2953  0.0186
19919TIP3   OH281247   2.979   1.113  14.604  0.2082  0.3694 -0.3279
19919TIP3    H181248   2.992   1.079  14.515  0.9572 -1.0861  0.2975
19919TIP3    H281249   2.966   1.034  14.658 -1.7699  1.2764  0.6436
19920TIP3   OH281250   6.636   0.173  16.957  0.1344  0.6870 -0.2917
19920TIP3    H181251   6.644   0.136  16.869 -1.7661  0.3723 -0.3903
19920TIP3    H281252   6.567   0.120  16.998 -0.1745  1.9027  0.8044
19921TIP3   OH281253   2.213   1.872   0.039 -0.1563 -0.5652  0.0049
19921TIP3    H181254   2.216   1.835  -0.049 -2.0240 -2.5909  0.6784
19921TIP3    H281255   2.161   1.952   0.030  1.3266  0.3269 -1.0002
19922TIP3   OH281256   3.478   4.517  15.664  0.2661 -0.2418 -0.6144
19922TIP3    H181257   3.482   4.426  15.636  0.4665 -1.0923  1.9054
19922TIP3    H281258   3.480   4.513  15.760 -3.0229  2.2048 -0.2522
19923TIP3   OH281259   2.131   2.191  13.523  0.2342  0.2189 -0.0580
19923TIP3    H181260   2.209   2.165  13.475 -1.3786  0.9739 -3.3777
19923TIP3    H281261   2.143   2.285  13.539  1.0459 -0.1471  1.7404
19924TIP3   OH281262   3.884   3.287  13.716 -0.1935  0.0237  0.2517
19924TIP3    H181263   3.957   3.305  13.657 -0.4416 -0.2103 -0.1350
19924TIP3    H281264   3.806   3.309  13.665 -0.4404 -0.8041  0.2539
19925TIP3   OH281265   4.896   6.500  14.732 -0.0539  0.3782 -0.7507
19925TIP3    H181266   4.801   6.514  14.735 -0.1676 -0.4388 -0.2306
19925TIP3    H281267   4.931   6.565  14.793 -0.1707  1.4267 -1.7657
19926TIP3   OH281268   0.137   5.089   0.071  0.1868 -0.2104  0.2145
19926TIP3    H181269   0.108   5.011   0.024  0.4336  0.5847 -1.3010
19926TIP3    H281270   0.203   5.129   0.014  1.0764  0.3892  1.5832
19927TIP3   OH281271   0.243   1.441  16.723  0.9053  0.3811  0.1628
19927TIP3    H181272   0.319   1.447  16.781  2.8660 -2.0486 -1.9497
19927TIP3    H281273   0.277   1.406  16.641 -2.5104 -0.8843 -0.9099
19928TIP3   OH281274   4.308   3.795  15.032  0.1241 -0.3616  0.0182
19928TIP3    H181275   4.312   3.713  14.983  1.5112  0.0157 -0.5375
19928TIP3    H281276   4.325   3.863  14.967 -0.4403  0.3410  0.5860
19929TIP3   OH281277   2.889   2.159   4.674  1.0131  0.5019 -0.4572
19929TIP3    H181278   2.957   2.200   4.621  1.7389  0.4626  0.4250
19929TIP3    H281279   2.931   2.079   4.708  0.4386  0.3405 -0.1208
19930TIP3   OH281280   2.060   3.762   0.330 -0.2409  0.1609  0.0616
19930TIP3    H181281   2.088   3.837   0.383 -0.2961  0.1777  0.0675
19930TIP3    H281282   2.133   3.700   0.336 -0.8869 -0.5105  1.4487
19931TIP3   OH281283   3.991   5.999   1.734 -0.5821 -0.2096  0.0260
19931TIP3    H181284   3.935   6.025   1.807  1.6427  0.6386  1.5360
19931TIP3    H281285   4.070   5.966   1.776 -0.0834 -1.7881 -2.0178
19932TIP3   OH281286   4.043   4.499  15.251 -0.4401 -0.1610  0.0067
19932TIP3    H181287   3.993   4.443  15.193 -0.4169  0.1599 -0.3290
19932TIP3    H281288   4.018   4.588  15.226 -1.0581 -0.0321  1.0498
19933TIP3   OH281289   5.992   5.150   2.092  0.0030  0.3120 -0.3524
19933TIP3    H181290   5.934   5.214   2.051  1.9420  2.1056 -0.5076
19933TIP3    H281291   5.937   5.075   2.110 -2.1835  1.6551 -1.0764
19934TIP3   OH281292   4.469   3.953  14.629 -0.7403 -0.5998  0.5851
19934TIP3    H181293   4.510   3.990  14.707 -0.8462  0.5874  0.0978
19934TIP3    H281294   4.538   3.953  14.562 -0.7112 -1.4052  0.6016
19935TIP3   OH281295   4.586   2.639   3.588  0.7171 -0.4964  0.2701
19935TIP3    H181296   4.625   2.703   3.528 -0.5917  0.5424  0.4930
19935TIP3    H281297   4.562   2.690   3.665 -2.1298 -0.8261 -0.3142
19936TIP3   OH281298   2.578   4.892  16.110 -0.1629 -0.3543  0.0540
19936TIP3    H181299   2.489   4.927  16.097 -0.3562 -1.4029 -1.7885
19936TIP3    H281300   2.565   4.799  16.127  0.6148 -0.9920 -2.4247
19937TIP3   OH281301   3.130   4.777  15.401  0.1860 -0.1646  0.0174
19937TIP3    H181302   3.187   4.727  15.460 -2.5194 -0.3964  2.7067
19937TIP3    H281303   3.107   4.716  15.331  1.4376 -0.7775  0.1191
19938TIP3   OH281304   5.830   0.498  15.903  0.4330  0.6630  0.1566
19938TIP3    H181305   5.830   0.403  15.920 -0.7237  0.2806 -1.7768
19938TIP3    H281306   5.880   0.508  15.822 -0.8006  1.5197 -0.5202
19939TIP3   OH281307   3.008   0.799  13.573 -0.6684 -0.2046 -0.1667
19939TIP3    H181308   3.089   0.808  13.623 -0.6504 -1.7603  0.1244
19939TIP3    H281309   2.946   0.858  13.616 -0.1227 -0.1427  0.5467
19940TIP3   OH281310   2.278   6.668  15.337 -0.2395 -0.1934 -0.7542
19940TIP3    H181311   2.324   6.673  15.421  1.1339  3.5386 -1.5214
19940TIP3    H281312   2.319   6.737  15.284 -2.5467 -0.9285 -3.7371
19941TIP3   OH281313   6.045   3.798  14.617  0.2974  0.4329  0.1439
19941TIP3    H181314   5.982   3.794  14.545  1.0790  0.1589 -0.5549
19941TIP3    H281315   6.071   3.707  14.632  1.0400  0.5994 -0.0652
19942TIP3   OH281316   4.927   6.725   4.068 -0.6581  0.3451  0.2815
19942TIP3    H181317   4.973   6.677   3.999  2.2116  1.6806  1.1162
19942TIP3    H281318   4.928   6.816   4.040  0.5952  0.9253  1.9786
19943TIP3   OH281319   3.377   0.322   2.458 -0.7545 -0.7148 -0.2062
19943TIP3    H181320   3.392   0.305   2.552  0.1000 -0.0933 -0.2157
19943TIP3    H281321   3.436   0.261   2.414 -0.8496 -0.7179 -0.3276
19944TIP3   OH281322   5.876   1.127  14.740 -0.3440 -0.4598 -0.2585
19944TIP3    H181323   5.790   1.168  14.740  0.6001  1.6852 -0.5312
19944TIP3    H281324   5.906   1.134  14.830  0.9504  2.1567 -0.8056
19945TIP3   OH281325   4.177   4.872   4.050  0.0231  0.1709  0.1377
19945TIP3    H181326   4.141   4.858   3.962 -1.0988  0.1981  0.5767
19945TIP3    H281327   4.263   4.830   4.048  0.5604  1.2568 -1.3475
19946TIP3   OH281328   4.461   5.989   1.440  0.1820 -0.0542 -0.2546
19946TIP3    H181329   4.488   5.966   1.529  1.4616 -0.8056 -0.8020
19946TIP3    H281330   4.366   5.997   1.445  0.3857  2.3612  1.6967
19947TIP3   OH281331   6.311   4.902  14.634  0.2306 -0.4503 -0.5018
19947TIP3    H181332   6.303   4.924  14.541  1.5777  0.6477 -0.3892
19947TIP3    H281333   6.229   4.858  14.655 -0.3815 -0.1239 -2.0508
19948TIP3   OH281334   3.449   0.917   0.579 -0.3141  0.2084  0.3396
19948TIP3    H181335   3.372   0.872   0.544 -0.1797 -1.1218  1.6191
19948TIP3    H281336   3.520   0.852   0.573  0.3571  0.9128  0.4727
19949TIP3   OH281337   3.271   4.304   2.412 -1.0052  0.0556  0.0793
19949TIP3    H181338   3.336   4.368   2.441 -0.2574 -1.6260  2.4151
19949TIP3    H281339   3.320   4.244   2.356 -0.5983 -0.9592  1.4830
19950TIP3   OH281340   4.775   6.600  16.322 -0.0000 -0.7830 -0.2304
19950TIP3    H181341   4.717   6.675  16.335  0.3033 -0.7580  1.2190
19950TIP3    H281342   4.838   6.606  16.394  0.8724 -1.6520 -0.8978
19951TIP3   OH281343   2.591   6.138  14.545 -0.1949  0.0556 -0.1280
19951TIP3    H181344   2.560   6.204  14.483  0.8241  0.0830 -0.6275
19951TIP3    H281345   2.514   6.118  14.599 -0.6649  1.2439 -0.3143
19952TIP3   OH281346   1.538   2.655   5.429 -0.8488 -0.9602 -0.0759
19952TIP3    H181347   1.505   2.720   5.368 -0.1310  1.2595  1.7669
19952TIP3    H281348   1.633   2.660   5.421 -0.7179 -0.3481  1.4003
19953TIP3   OH281349   1.740   1.085   4.719 -0.4324  0.1430 -0.9364
19953TIP3    H181350   1.670   1.096   4.784 -0.2277  0.4976 -0.7734
19953TIP3    H281351   1.732   0.995   4.690 -1.6045  0.4583 -1.6597
19954TIP3   OH281352   6.484   0.872   5.992 -0.3011  0.1142  0.8220
19954TIP3    H181353   6.488   0.950   6.048  0.9358  1.4688 -1.0271
19954TIP3    H281354   6.430   0.898   5.918 -0.5460 -1.0744  0.5607
19955TIP3   OH281355   5.359   4.701  15.505 -0.4138 -0.5492 -0.2453
19955TIP3    H181356   5.274   4.723  15.543  0.2506 -0.8305  1.5096
19955TIP3    H281357   5.401   4.786  15.490 -0.7646 -0.4286 -0.5636
19956TIP3   OH281358   1.956   6.018  14.554  0.1218 -0.5225 -0.6871
19956TIP3    H181359   2.021   6.048  14.491  0.8994 -1.0375 -0.1409
19956TIP3    H281360   1.880   6.075  14.539  1.1685  1.0018 -0.3971
19957TIP3   OH281361   4.609   6.511  10.957 -0.0356  0.1203  0.1868
19957TIP3    H181362   4.592   6.573  10.887 -1.1561 -1.1710 -0.7441
19957TIP3    H281363   4.696   6.534  10.990  0.6393  0.5963 -1.8093
19958TIP3   OH281364   3.207   1.778  11.741  0.3081 -0.1431 -0.4701
19958TIP3    H181365   3.283   1.719  11.742  0.0642 -0.4519  1.1893
19958TIP3    H281366   3.200   1.805  11.649  1.2859 -1.5733 -1.0049
19959TIP3   OH281367   2.655   2.827   1.250  0.3245 -0.4598 -0.1057
19959TIP3    H181368   2.638   2.901   1.309 -0.4386 -1.2524  0.6961
19959TIP3    H281369   2.750   2.818   1.251  0.4285  0.4766 -0.1799
19960TIP3   OH281370   4.951   5.433  16.871  0.3589 -0.6925  0.3398
19960TIP3    H181371   5.022   5.483  16.831 -0.0814  0.1691  0.6193
19960TIP3    H281372   4.906   5.392  16.796 -0.0970  0.4304 -0.0217
19961TIP3   OH281373   2.144   0.886  16.186 -0.4277  0.0767  0.2091
19961TIP3    H181374   2.238   0.872  16.200 -0.4603 -2.1212 -1.1259
19961TIP3    H281375   2.103   0.861  16.269  0.1189  0.2120  0.5212
19962TIP3   OH281376   3.177   3.013   3.700  0.0658 -0.2421  0.3174
19962TIP3    H181377   3.102   2.954   3.695 -0.2844  0.3033 -1.1300
19962TIP3    H281378   3.189   3.028   3.794 -0.9248 -1.2214  0.6223
19963TIP3   OH281379   3.433   5.016   0.678 -0.5170  0.3729  0.2366
19963TIP3    H181380   3.388   4.986   0.599  1.7129 -1.9876 -0.2905
19963TIP3    H281381   3.403   4.956   0.746 -0.9475  1.1449  0.7305
19964TIP3   OH281382   1.849   1.463   2.716  0.3447  1.0484 -0.0587
19964TIP3    H181383   1.768   1.423   2.747  0.5150  0.4139 -0.4113
19964TIP3    H281384   1.868   1.532   2.780 -1.2865  2.2497 -0.8308
19965TIP3   OH281385   4.887   1.812  12.909 -0.3316 -0.0192  0.8412
19965TIP3    H181386   4.809   1.860  12.936  0.6656  0.8646  2.2535
19965TIP3    H281387   4.961   1.867  12.936  0.8192 -0.4069 -1.2283
19966TIP3   OH281388   0.804   2.046  10.816 -0.1028  0.2438 -0.2461
19966TIP3    H181389   0.897   2.047  10.841  0.0255  1.3287 -0.7070
19966TIP3    H281390   0.766   2.120  10.863 -0.6325  0.0869 -0.4279
19967TIP3   OH281391   4.714   0.776  16.691 -0.4949 -0.4422  0.1537
19967TIP3    H181392   4.652   0.715  16.732  1.2721 -2.5419 -0.1390
19967TIP3    H281393   4.714   0.751  16.598 -0.8222  1.0188 -0.2578
19968TIP3   OH281394   6.660   3.559   2.981  0.3332  0.6234 -0.0879
19968TIP3    H181395   6.689   3.522   2.898  0.0292 -0.2075  0.1583
19968TIP3    H281396   6.581   3.608   2.960 -1.4473 -1.9509  0.0815
19969TIP3   OH281397   2.043   2.976  14.520  0.2024 -0.3914  0.2393
19969TIP3    H181398   2.002   2.945  14.600 -1.8732 -0.2123 -0.6794
19969TIP3    H281399   2.039   2.901  14.460  1.9418 -0.5994  0.3336
19970TIP3   OH281400   1.227   6.236  12.800 -0.2356  0.4883  0.0202
19970TIP3    H181401   1.231   6.309  12.861  0.2787  1.4371 -1.1057
19970TIP3    H281402   1.209   6.160  12.855 -1.2196  1.5053  1.1684
19971TIP3   OH281403   0.945   1.133  15.712  0.0485 -0.0849 -0.4556
19971TIP3    H181404   0.980   1.148  15.624 -0.3034 -0.0806 -0.5991
19971TIP3    H281405   0.856   1.101  15.697 -0.2453  0.5313 -0.0969
19972TIP3   OH281406   1.536   3.388  14.534 -0.3314  0.3611 -0.0584
19972TIP3    H181407   1.589   3.467  14.531  0.6024 -0.2635 -0.6518
19972TIP3    H281408   1.554   3.344  14.451 -0.3419 -0.7837  0.5283
19973TIP3   OH281409   0.808   2.200   6.155 -0.4906 -0.4399  0.1873
19973TIP3    H181410   0.769   2.223   6.071  1.8025  0.1655 -0.7664
19973TIP3    H281411   0.798   2.278   6.209  1.7939  0.7467 -0.9943
19974TIP3   OH281412   2.833   4.822  15.990 -0.0032  0.3572  0.4517
19974TIP3    H181413   2.829   4.727  15.995 -1.0719  0.4102  0.7708
19974TIP3    H281414   2.752   4.852  16.030  0.2552  1.4023  0.2233
19975TIP3   OH281415   1.134   5.659   2.192  0.5679 -0.0593  0.1204
19975TIP3    H181416   1.093   5.707   2.263  0.9633  1.5418 -0.6738
19975TIP3    H281417   1.220   5.701   2.181  1.3071 -1.5510 -0.0277
19976TIP3   OH281418   4.597   4.288   1.759 -0.8464 -0.2179  0.5719
19976TIP3    H181419   4.692   4.280   1.770 -0.6617  0.1602 -0.5761
19976TIP3    H281420   4.584   4.377   1.726 -1.6104 -0.2265  0.8344
19977TIP3   OH281421   3.196   1.369   5.462 -0.5739  0.0992 -0.2130
19977TIP3    H181422   3.197   1.446   5.518  1.4737  1.7898 -2.3384
19977TIP3    H281423   3.215   1.296   5.521 -0.5709  1.4787  1.5786
19978TIP3   OH281424   1.598   3.673  11.960  0.4157 -0.3912 -0.1147
19978TIP3    H181425   1.596   3.760  11.921 -0.1079 -1.5915 -2.9795
19978TIP3    H281426   1.691   3.649  11.962  0.5442  0.1188  0.5207
19979TIP3   OH281427   6.137   6.078   5.913  0.0553  0.2367 -0.3257
19979TIP3    H181428   6.141   6.052   5.821  1.3395 -0.7469 -0.0171
19979TIP3    H281429   6.044   6.073   5.936 -0.0999 -0.9818 -1.1583
19980TIP3   OH281430   0.415   3.977   1.349  0.0559  0.0133  0.1951
19980TIP3    H181431   0.344   3.914   1.364  0.3549 -0.2422  0.5361
19980TIP3    H281432   0.449   3.955   1.262  0.3199 -0.4545  0.4140
19981TIP3   OH281433   0.053   5.720  12.543 -0.0446 -0.3781 -0.3009
19981TIP3    H181434   0.027   5.691  12.455 -1.1064  0.1444 -0.1628
19981TIP3    H281435  -0.024   5.765  12.578  1.2539  1.9282 -0.1878
19982TIP3   OH281436   4.069   3.774   4.006 -0.5209 -0.6246  0.2650
19982TIP3    H181437   4.035   3.821   4.082 -2.0396  0.2542 -0.8924
19982TIP3    H281438   4.136   3.832   3.970 -2.4878  0.8591 -1.2423
19983TIP3   OH281439   5.984   1.927  12.171 -0.3431 -0.2158 -0.0774
19983TIP3    H181440   6.055   1.961  12.116  1.4446 -1.8936  1.0435
19983TIP3    H281441   5.944   1.857  12.119 -0.5504  0.0943 -0.3384
19984TIP3   OH281442   5.322   4.492  16.807  0.5244  0.0381  0.2149
19984TIP3    H181443   5.331   4.440  16.727  0.1394 -0.6071  0.5854
19984TIP3    H281444   5.233   4.527  16.802  0.5259  0.0561  0.3239
19985TIP3   OH281445   1.375   2.765  12.570  0.0667 -0.2235  0.5307
19985TIP3    H181446   1.339   2.791  12.486  1.4390 -0.6520 -0.2249
19985TIP3    H281447   1.358   2.671  12.577  0.4548 -0.3032  0.4563
19986TIP3   OH281448   1.301   4.713  12.499  0.5218  0.0498  0.4492
19986TIP3    H181449   1.287   4.699  12.405 -0.1770  1.2593  0.3469
19986TIP3    H281450   1.388   4.752  12.505  0.1158  1.0293  0.1770
19987TIP3   OH281451   0.203   4.114   1.441  0.1460 -0.1157  0.0310
19987TIP3    H181452   0.132   4.147   1.386  0.6817 -0.6405 -0.9887
19987TIP3    H281453   0.281   4.120   1.386  0.8988  0.3718  1.1053
19988TIP3   OH281454   4.768   0.046  15.317  0.3671  0.1957 -0.4314
19988TIP3    H181455   4.859   0.019  15.306  0.3102  0.0136 -0.4552
19988TIP3    H281456   4.731   0.042  15.229  0.0030 -0.9332 -0.2484
19989TIP3   OH281457   2.133   5.670  14.755 -0.2247  0.1485 -0.3347
19989TIP3    H181458   2.060   5.608  14.764 -0.8689  0.8758 -0.3583
19989TIP3    H281459   2.162   5.685  14.844  1.2561 -1.6672 -0.4481
19990TIP3   OH281460   3.046   3.598  14.042 -0.1865  0.1147  0.0019
19990TIP3    H181461   3.092   3.613  13.959  1.7885  0.5863  1.0976
19990TIP3    H281462   2.973   3.658  14.041 -1.5083 -1.3805 -2.2772
19991TIP3   OH281463   2.873   5.381   6.185  0.4713 -0.0436 -0.0676
19991TIP3    H181464   2.857   5.473   6.166 -2.3421 -0.4617 -0.2140
19991TIP3    H281465   2.932   5.382   6.261 -0.1073  1.8970  0.4249
19992TIP3   OH281466   1.989   3.305   5.541 -0.2267 -0.2270 -0.1608
19992TIP3    H181467   1.969   3.250   5.465  1.3150  0.4996 -1.1545
19992TIP3    H281468   2.024   3.385   5.503  0.7716  0.0809  1.3444
19993TIP3   OH281469   0.840   1.895   0.983 -0.3192 -0.0123 -0.0048
19993TIP3    H181470   0.777   1.849   1.038  0.3389 -0.3861  0.4465
19993TIP3    H281471   0.924   1.880   1.025  0.4375 -1.5863 -1.9240
19994TIP3   OH281472   6.393   4.144  13.150  0.0818 -0.3271  0.5910
19994TIP3    H181473   6.338   4.091  13.206  0.8790  0.7769  2.4985
19994TIP3    H281474   6.428   4.212  13.207  2.4072 -0.2199 -0.8053
19995TIP3   OH281475   4.490   0.852  11.350  0.5508 -0.6925 -0.5873
19995TIP3    H181476   4.486   0.826  11.442  2.1509 -0.6464 -0.4807
19995TIP3    H281477   4.474   0.946  11.351 -1.0497 -0.9304 -0.5516
19996TIP3   OH281478   2.228   5.220  13.019 -0.2405  0.6787  0.2835
19996TIP3    H181479   2.156   5.274  12.988 -0.2265  1.1130  0.9742
19996TIP3    H281480   2.307   5.267  12.991 -0.2288  0.7592  0.4490
19997TIP3   OH281481   0.994   4.804   3.729 -0.4345  0.6379 -0.6581
19997TIP3    H181482   1.043   4.824   3.808  0.3699  1.1209 -1.2633
19997TIP3    H281483   0.935   4.879   3.717 -1.2428  0.1225 -0.0085
19998TIP3   OH281484   2.081   1.387  10.489  0.5299 -0.3227  0.0007
19998TIP3    H181485   2.070   1.292  10.501 -1.1728  0.0053  1.3505
19998TIP3    H281486   2.168   1.405  10.525  0.1043 -1.1288  1.5247
19999TIP3   OH281487   6.669   3.951  12.988  0.5467  0.1574 -0.1055
19999TIP3    H181488   6.608   3.879  13.001 -1.6038  1.8910  0.0995
19999TIP3    H281489   6.717   3.958  13.071  0.0102 -0.3491  0.2526
20000TIP3   OH281490   4.530   1.165   1.144  0.0196 -0.1510  0.1608
20000TIP3    H181491   4.614   1.149   1.185 -1.0849  0.7670  3.0333
20000TIP3    H281492   4.484   1.082   1.149  0.6626 -0.6330 -1.3435
20001TIP3   OH281493   3.069   2.710  13.568 -0.1591  0.4709 -0.4780
20001TIP3    H181494   3.067   2.804  13.551 -0.8374  0.3410 -1.1703
20001TIP3    H281495   3.161   2.685  13.556 -0.0030  1.0208 -0.4219
20002TIP3   OH281496   3.945   3.204  17.086  0.1252 -0.0733 -0.0632
20002TIP3    H181497   4.025   3.179  17.131 -0.7779 -0.0167  1.6530
20002TIP3    H281498   3.972   3.218  16.995  1.4249 -3.4399 -0.3306
20003TIP3   OH281499   1.693   5.123  11.900 -0.2207  0.0394 -0.1564
20003TIP3    H181500   1.751   5.165  11.964 -0.6868 -0.3493  0.5263
20003TIP3    H281501   1.704   5.030  11.914 -0.0559 -0.0647 -0.8993
20004TIP3   OH281502   5.096   2.462   5.134  0.3896 -0.1743 -0.4523
20004TIP3    H181503   5.124   2.437   5.222  0.5267 -1.6175 -0.8672
20004TIP3    H281504   5.054   2.383   5.099  0.9217  0.1500 -1.9107
20005TIP3   OH281505   6.810   6.046  16.688  0.2591  0.2909 -0.4617
20005TIP3    H181506   6.774   6.085  16.768  0.6749  1.1686 -0.6953
20005TIP3    H281507   6.814   5.952  16.708 -0.1527  0.4326  0.3468
20006TIP3   OH281508   3.582   3.753   6.519 -0.0740 -1.0662  0.0483
20006TIP3    H181509   3.617   3.834   6.556 -2.5813  0.0340  0.2364
20006TIP3    H281510   3.523   3.719   6.586 -1.7803 -1.0835 -1.3951
20007TIP3   OH281511   3.073   3.304  12.187 -0.6751 -0.2073 -0.0853
20007TIP3    H181512   3.037   3.390  12.165  0.3676  0.1428 -0.5346
20007TIP3    H281513   3.063   3.297  12.282  0.5190  1.0572  0.1728
20008TIP3   OH281514   0.910   1.971  14.518  0.1338 -0.1033 -0.3169
20008TIP3    H181515   0.860   2.052  14.502  0.2497 -0.4780 -3.0480
20008TIP3    H281516   0.982   1.975  14.455  0.6423 -1.9390  0.0972
20009TIP3   OH281517   4.855   5.649   3.385  0.2584 -0.6201 -0.3589
20009TIP3    H181518   4.869   5.697   3.304  1.0662 -0.2748 -0.0277
20009TIP3    H281519   4.941   5.647   3.427 -0.3282  0.1296  0.9785
20010TIP3   OH281520   1.790   5.157   4.621 -0.6081 -0.0372 -0.5132
20010TIP3    H181521   1.855   5.143   4.552  0.1577  2.1369 -0.3111
20010TIP3    H281522   1.806   5.086   4.683  1.3636  0.2158 -0.6563
20011TIP3   OH281523   3.425   1.096   0.333 -0.2992 -0.0583 -0.2868
20011TIP3    H181524   3.459   1.073   0.420  0.1971 -0.4278 -0.5763
20011TIP3    H281525   3.422   1.192   0.334  0.6649 -0.0134 -0.2088
20012TIP3   OH281526   1.398   0.617  10.865  0.1965  0.3195 -0.0603
20012TIP3    H181527   1.333   0.598  10.932 -0.6183 -2.0483 -1.4253
20012TIP3    H281528   1.481   0.626  10.913 -0.4479 -0.7689  1.3104
20013TIP3   OH281529   5.142   0.521  12.424 -0.0913 -0.0411  0.8632
20013TIP3    H181530   5.189   0.437  12.427  0.2393  0.1060  0.1466
20013TIP3    H281531   5.176   0.571  12.498 -1.3425 -1.0684  2.1733
20014TIP3   OH281532   1.808   6.191  15.411 -0.0728 -0.1094  0.7041
20014TIP3    H181533   1.838   6.140  15.336  0.1239  2.8984 -1.4513
20014TIP3    H281534   1.798   6.127  15.481  0.8107 -2.9256 -1.5453
20015TIP3   OH281535   0.309   5.048   0.607  0.0923 -0.5432 -0.1343
20015TIP3    H181536   0.294   4.954   0.616 -0.3313 -0.5595 -1.0089
20015TIP3    H281537   0.233   5.081   0.559  0.7378  0.0776 -0.7557
20016TIP3   OH281538   5.546   5.562  15.388  0.1629 -0.4646  0.0490
20016TIP3    H181539   5.468   5.515  15.417  0.3697 -0.3840  0.7481
20016TIP3    H281540   5.543   5.556  15.293 -0.1953 -1.2762  0.1008
20017TIP3   OH281541   0.068   3.428   6.388 -1.1516 -0.5841 -0.1272
20017TIP3    H181542   0.067   3.515   6.429 -3.7910 -0.4692 -0.3080
20017TIP3    H281543   0.134   3.380   6.438 -0.0363  1.3336  0.3484
20018TIP3   OH281544   4.947   1.172  13.264  0.7878 -0.2347  0.2972
20018TIP3    H181545   4.949   1.083  13.300 -1.4274 -0.3873  0.1497
20018TIP3    H281546   4.855   1.188  13.244  1.3957  1.3719 -1.5325
20019TIP3   OH281547   4.526   5.564  13.845  0.1771  0.4099 -0.1155
20019TIP3    H181548   4.483   5.523  13.770  0.0282  2.0692 -0.9895
20019TIP3    H281549   4.520   5.658  13.828  4.2664  0.8115 -0.4269
20020TIP3   OH281550   4.010   4.279   2.686 -0.0354 -0.2499 -0.2533
20020TIP3    H181551   4.035   4.187   2.688 -0.9105 -0.4839  0.2811
20020TIP3    H281552   4.036   4.309   2.599 -1.0675 -1.3875 -0.9822
20021TIP3   OH281553   4.478   6.116  11.609 -0.1143 -0.0994 -0.4717
20021TIP3    H181554   4.490   6.119  11.514  2.3401 -0.1130 -0.2312
20021TIP3    H281555   4.431   6.197  11.630 -0.3828  0.0723 -1.6448
20022TIP3   OH281556   4.370   2.125  15.207  0.0444  0.1531  0.3285
20022TIP3    H181557   4.303   2.147  15.272  0.4228 -0.3597  0.8948
20022TIP3    H281558   4.381   2.030  15.215 -0.7275 -0.1159 -1.2767
20023TIP3   OH281559   5.530   2.154  15.347 -0.2880  0.6644  0.5227
20023TIP3    H181560   5.623   2.132  15.338 -0.2307  1.0314  0.2214
20023TIP3    H281561   5.514   2.147  15.441 -0.4947 -1.5591  0.3817
20024TIP3   OH281562   5.940   3.842   4.186 -0.1554  0.1306 -0.6687
20024TIP3    H181563   5.855   3.800   4.175  0.5458 -1.3437 -0.7028
20024TIP3    H281564   5.927   3.932   4.156 -2.2145  0.5359  1.1782
20025TIP3   OH281565   2.464   0.600  12.126 -0.6688 -0.5345 -0.0427
20025TIP3    H181566   2.448   0.668  12.061  0.2737 -0.7005 -0.4685
20025TIP3    H281567   2.486   0.522  12.075  1.2995 -0.3598  0.4577
20026TIP3   OH281568   3.844   2.419   4.733 -0.0254 -0.0205 -0.0240
20026TIP3    H181569   3.792   2.446   4.810 -0.8783 -1.8289  0.0912
20026TIP3    H281570   3.918   2.479   4.732 -1.0100  1.2854  1.0805
20027TIP3   OH281571   3.442   1.661   1.672 -0.1233  0.1963 -0.4151
20027TIP3    H181572   3.424   1.702   1.587 -2.8704  1.3892  0.6544
20027TIP3    H281573   3.463   1.733   1.730 -0.1859 -0.4149  0.3826
20028TIP3   OH281574   2.369   4.936   5.915  0.4240  0.7368 -0.5939
20028TIP3    H181575   2.361   4.842   5.896 -0.1652  0.1874  1.8991
20028TIP3    H281576   2.281   4.962   5.943  0.9085  1.6445  0.1443
20029TIP3   OH281577   6.487   0.073   0.653 -0.4194 -0.1295 -0.1984
20029TIP3    H181578   6.444  -0.009   0.677 -0.5889 -0.3744 -1.2563
20029TIP3    H281579   6.576   0.065   0.688 -0.8371 -0.1862  0.8663
20030TIP3   OH281580   5.420   4.795  12.524 -0.4358 -0.0110 -0.4808
20030TIP3    H181581   5.401   4.761  12.437 -0.8213 -0.8890 -0.0707
20030TIP3    H281582   5.389   4.885  12.523  0.7748  0.4144 -1.6628
20031TIP3   OH281583   4.502   2.886  16.328 -0.0734  0.2515 -0.0246
20031TIP3    H181584   4.547   2.940  16.263 -1.2358 -0.5925 -1.6062
20031TIP3    H281585   4.565   2.818  16.351 -0.5465 -1.0991 -2.4369
20032TIP3   OH281586   0.512   6.424   0.424  0.2036  0.3051  0.0810
20032TIP3    H181587   0.484   6.470   0.503 -1.5308  0.7433 -0.7189
20032TIP3    H281588   0.478   6.478   0.352  3.1780  0.8324 -1.0566
20033TIP3   OH281589   1.557   3.175  16.291 -0.2645  0.2259 -0.0012
20033TIP3    H181590   1.562   3.241  16.222 -1.2722  0.3742  0.0614
20033TIP3    H281591   1.479   3.198  16.341  1.1615  0.9633  2.0607
20034TIP3   OH281592   5.657   3.685  14.028 -0.7574 -0.0271 -0.2174
20034TIP3    H181593   5.690   3.773  14.011  0.5009 -0.3348  0.4772
20034TIP3    H281594   5.571   3.682  13.985 -0.0140  0.9110 -1.8460
20035TIP3   OH281595   5.535   3.585   5.353 -0.0553  0.2250  0.3112
20035TIP3    H181596   5.545   3.598   5.447 -1.2829 -1.4353  0.7358
20035TIP3    H281597   5.440   3.575   5.340 -0.1022  2.2227 -1.3953
20036TIP3   OH281598   4.007   4.061   4.747 -0.1599 -0.4224 -0.0613
20036TIP3    H181599   3.941   4.064   4.816 -0.6358  0.2550 -0.5337
20036TIP3    H281600   3.981   4.130   4.686  2.0792  1.2034  0.7158
20037TIP3   OH281601   4.318   1.991  14.039 -0.5923 -0.1194 -0.1370
20037TIP3    H181602   4.384   1.924  14.024 -0.6946 -0.0418 -1.0129
20037TIP3    H281603   4.281   2.007  13.952 -0.4709  1.1654  0.0289
20038TIP3   OH281604   5.002   3.224  12.770 -0.4135  0.3802  0.5731
20038TIP3    H181605   5.071   3.157  12.761 -0.5015  0.2732  0.6869
20038TIP3    H281606   4.942   3.188  12.836 -0.4702  0.5655  0.6234
20039TIP3   OH281607   3.924   1.372   5.269  0.0116 -0.1167 -0.0176
20039TIP3    H181608   3.867   1.373   5.192  1.0270 -1.1951 -0.8341
20039TIP3    H281609   4.010   1.347   5.234  0.9755  1.3656  1.1768
20040TIP3   OH281610   3.266   5.647   4.451 -0.3133  0.3903 -0.0814
20040TIP3    H181611   3.201   5.609   4.510 -1.2508 -1.0927 -1.9702
20040TIP3    H281612   3.215   5.706   4.395 -0.1971 -1.2166 -1.9512
20041TIP3   OH281613   2.296   4.342  15.773 -0.2294  0.1931  0.3408
20041TIP3    H181614   2.244   4.262  15.786 -1.2548  0.6145 -0.8631
20041TIP3    H281615   2.286   4.391  15.855 -2.4253  0.6045 -0.1032
20042TIP3   OH281616   6.726   5.289  15.025  0.0855 -0.1677 -0.8552
20042TIP3    H181617   6.814   5.325  15.012 -0.1061  0.0870 -1.4370
20042TIP3    H281618   6.715   5.225  14.954 -0.6147  0.5876 -1.4447
20043TIP3   OH281619   3.205   1.448   2.652 -0.4807 -0.5034  0.8224
20043TIP3    H181620   3.231   1.491   2.570  0.5615 -1.5749  0.5658
20043TIP3    H281621   3.243   1.503   2.721 -0.2012 -0.3403  0.5431
20044TIP3   OH281622   0.016   5.811  16.217 -0.4027 -0.1502  0.0154
20044TIP3    H181623   0.046   5.804  16.308  0.0379  2.0678  0.1010
20044TIP3    H281624   0.082   5.865  16.174 -1.8248  0.8618 -1.0026
20045TIP3   OH281625   0.283   2.871   2.354  0.1577 -0.0784 -0.6566
20045TIP3    H181626   0.251   2.871   2.444  1.0681  0.3618 -0.3200
20045TIP3    H281627   0.259   2.785   2.320 -0.4677 -0.1343 -0.0978
20046TIP3   OH281628   5.122   1.560   3.776  0.7954 -0.2393  0.0132
20046TIP3    H181629   5.177   1.610   3.716 -0.1436  0.0485 -0.6335
20046TIP3    H281630   5.035   1.601   3.768 -0.3688 -2.8102 -1.5865
20047TIP3   OH281631   4.908   5.340   2.959  0.3255  0.3096  0.1744
20047TIP3    H181632   4.974   5.405   2.984 -0.3526 -0.2154  3.7612
20047TIP3    H281633   4.947   5.256   2.982 -1.0824 -0.0824  1.2704
20048TIP3   OH281634   0.531   5.225   4.425  0.4785 -0.6096 -0.0011
20048TIP3    H181635   0.560   5.192   4.510 -0.7691 -1.6362  0.0627
20048TIP3    H281636   0.572   5.312   4.417  2.3477 -1.3779  0.6637
20049TIP3   OH281637   5.713   3.428  10.972 -0.2338 -0.1724 -0.0360
20049TIP3    H181638   5.644   3.484  11.008 -0.3323 -0.4180  0.1631
20049TIP3    H281639   5.787   3.487  10.958 -0.5216  0.1181 -0.3682
20050TIP3   OH281640   0.408   4.273  14.412  0.4535 -0.3939 -0.1525
20050TIP3    H181641   0.501   4.260  14.430  0.7855  0.7284 -0.9502
20050TIP3    H281642   0.369   4.288  14.498  1.2393  0.4317  0.0807
20051TIP3   OH281643   1.038   4.280   3.396 -0.3785 -0.2462 -0.2517
20051TIP3    H181644   1.119   4.326   3.418  0.3461 -1.0640 -1.1498
20051TIP3    H281645   0.980   4.298   3.471  0.2993  1.0854 -0.0039
20052TIP3   OH281646   5.330   6.291   5.450 -0.4070 -0.0224 -0.4568
20052TIP3    H181647   5.300   6.382   5.447  0.3146  0.2196 -0.5707
20052TIP3    H281648   5.253   6.239   5.427 -2.1206  0.2572  3.7195
20053TIP3   OH281649   2.489   1.804   5.360 -0.2865  0.3513  0.0431
20053TIP3    H181650   2.451   1.818   5.447  1.2430 -0.6638  0.9010
20053TIP3    H281651   2.420   1.758   5.312 -0.8212  0.1210  0.9940
20054TIP3   OH281652   4.522   2.044  16.232 -0.0444 -0.4050  0.1010
20054TIP3    H181653   4.444   2.095  16.253  0.8933  1.8572 -1.4679
20054TIP3    H281654   4.594   2.098  16.263  0.9419 -2.3360  1.2975
20055TIP3   OH281655   2.966   3.892  16.967  0.1079 -0.4494  0.2853
20055TIP3    H181656   2.964   3.818  17.028 -0.3949 -0.3375  0.4050
20055TIP3    H281657   2.984   3.851  16.882  0.7337 -0.6123  0.4868
20056TIP3   OH281658   5.885   0.364   4.307 -0.0302 -0.1856  0.0035
20056TIP3    H181659   5.909   0.303   4.377  0.5656  1.5725  1.4124
20056TIP3    H281660   5.898   0.451   4.346 -0.5216  0.8511 -2.0307
20057TIP3   OH281661   3.592   0.493  10.748  0.5963  0.1734  0.1082
20057TIP3    H181662   3.617   0.585  10.747  2.9221 -0.4011 -1.0471
20057TIP3    H281663   3.657   0.450  10.803  0.9751 -1.0994 -1.2652
20058TIP3   OH281664   5.795   4.975   3.903  0.4575  0.5011  0.5979
20058TIP3    H181665   5.837   4.948   3.985  0.3191  0.5880  0.6971
20058TIP3    H281666   5.805   5.070   3.901  0.1944  0.5310  0.6611
20059TIP3   OH281667   4.303   3.868  12.367 -0.5363  0.3660  0.0313
20059TIP3    H181668   4.348   3.944  12.330 -0.7193  0.4460 -0.0288
20059TIP3    H281669   4.210   3.886  12.353 -0.5642 -0.0582 -0.3527
20060TIP3   OH281670   2.579   6.074  12.985  0.3381 -0.3606 -0.9114
20060TIP3    H181671   2.633   6.033  12.918  3.2873  0.7993  0.6000
20060TIP3    H281672   2.516   6.127  12.936  1.2821 -0.8469 -2.7436
20061TIP3   OH281673   1.173   1.550   2.401 -0.1586  0.3854  0.0193
20061TIP3    H181674   1.107   1.575   2.336  0.2431  0.8451 -0.2103
20061TIP3    H281675   1.255   1.546   2.352  0.0730  0.3046  0.4137
20062TIP3   OH281676   0.013   4.569  11.145 -0.3405 -0.5392 -0.2001
20062TIP3    H181677  -0.005   4.478  11.170  0.0307 -0.5262  0.1188
20062TIP3    H281678   0.099   4.566  11.102 -0.8584 -0.5210 -1.2751
20063TIP3   OH281679   1.633   3.549   4.117 -0.0695  0.3337  0.0530
20063TIP3    H181680   1.597   3.495   4.188 -0.8351  0.0742 -0.5225
20063TIP3    H281681   1.655   3.487   4.048  1.3690  0.5075  0.3342
20064TIP3   OH281682   3.620   6.426  14.667  0.0706  0.4199  0.7814
20064TIP3    H181683   3.672   6.489  14.617  1.9106 -1.4995  0.1112
20064TIP3    H281684   3.530   6.453  14.653  0.5759  0.8799 -2.4215
20065TIP3   OH281685   3.021   6.004  13.235 -0.4662 -0.0710  0.5717
20065TIP3    H181686   3.064   6.073  13.183 -1.1759 -0.9597 -1.3113
20065TIP3    H281687   2.964   5.960  13.172 -0.5620 -1.9271  1.8864
20066TIP3   OH281688   2.753   4.357   0.332 -0.1913  0.6720 -0.1015
20066TIP3    H181689   2.742   4.304   0.411  2.4008  2.1818  1.4210
20066TIP3    H281690   2.669   4.402   0.322 -1.3045 -1.1567  0.4787
20067TIP3   OH281691   1.354   4.855  15.527 -0.5498  0.2392 -0.0399
20067TIP3    H181692   1.449   4.847  15.527 -0.4098  0.5862 -3.2163
20067TIP3    H281693   1.322   4.765  15.515 -0.4543  0.3810 -1.5705
20068TIP3   OH281694   4.006   4.522   1.157  0.1678 -0.0838  0.2371
20068TIP3    H181695   4.097   4.493   1.157  0.1101 -0.4062  2.1352
20068TIP3    H281696   4.000   4.584   1.084  1.5748 -0.9942 -0.7038
20069TIP3   OH281697   6.310   3.933   0.186  0.0642  0.6964  0.2443
20069TIP3    H181698   6.365   3.957   0.260  1.7275  0.8893 -0.9952
20069TIP3    H281699   6.369   3.885   0.128 -1.6208 -0.9363 -0.1963
20070TIP3   OH281700   4.269   6.193  12.320 -0.0310 -0.0974 -0.5350
20070TIP3    H181701   4.306   6.111  12.351  0.8108  1.1744  2.1434
20070TIP3    H281702   4.175   6.179  12.318  0.0296 -0.8255  0.9409
20071TIP3   OH281703   1.016   5.257  15.493 -0.0650  0.2685  0.1116
20071TIP3    H181704   1.029   5.315  15.418 -0.6478 -2.0963 -1.9432
20071TIP3    H281705   1.035   5.169  15.460 -0.7869 -0.9459  2.6228
20072TIP3   OH281706   0.464   1.636   5.536 -0.2325  0.1895  0.5836
20072TIP3    H181707   0.461   1.728   5.563 -2.7908  0.2839  0.1786
20072TIP3    H281708   0.374   1.605   5.547  0.4927 -2.1760  0.3294
20073TIP3   OH281709   6.363   1.755   6.818 -0.0779 -0.3122 -0.1154
20073TIP3    H181710   6.294   1.784   6.758 -0.7373 -2.4080 -0.4660
20073TIP3    H281711   6.442   1.753   6.763 -0.2154 -0.1350 -0.3254
20074TIP3   OH281712   0.226   6.509   1.120 -0.5831  0.6111  0.3353
20074TIP3    H181713   0.170   6.480   1.193  0.6048  1.7146  1.7376
20074TIP3    H281714   0.284   6.574   1.159  0.6296  0.6479 -1.4495
20075TIP3   OH281715   0.803   1.685   2.279 -0.4591 -0.1096 -0.2249
20075TIP3    H181716   0.757   1.616   2.327  0.0043 -0.5841 -0.4534
20075TIP3    H281717   0.764   1.767   2.311 -1.1944 -0.4835 -0.1405
20076TIP3   OH281718   6.465   5.863   0.305  0.1547  0.3342  0.1178
20076TIP3    H181719   6.487   5.946   0.347 -1.3882  1.2421 -0.7407
20076TIP3    H281720   6.525   5.799   0.343  1.6392  1.9079  0.5231
20077TIP3   OH281721   1.055   6.574   4.069 -0.3874  0.4184  0.4658
20077TIP3    H181722   1.097   6.660   4.067  1.3590 -0.3129  2.5095
20077TIP3    H281723   0.984   6.584   4.132  0.3521  0.1750  1.3586
20078TIP3   OH281724   3.109   2.335  14.884  0.2873  0.1236 -0.5694
20078TIP3    H181725   3.053   2.382  14.822 -0.9401 -2.2292 -1.3581
20078TIP3    H281726   3.054   2.322  14.961 -0.0038 -1.4295 -1.0061
20079TIP3   OH281727   2.218   4.478   3.825  0.0066 -0.3290  0.1648
20079TIP3    H181728   2.199   4.568   3.852 -1.8083 -0.5679 -0.2025
20079TIP3    H281729   2.226   4.430   3.908  0.4022  0.0521  0.3518
20080TIP3   OH281730   0.312   0.712  14.052  0.2968 -0.1320 -0.0747
20080TIP3    H181731   0.310   0.749  13.963 -0.7946 -1.3688 -0.5826
20080TIP3    H281732   0.331   0.787  14.108 -0.9724  1.0541 -1.1622
20081TIP3   OH281733   3.071   4.235   4.381 -0.7096  0.3089 -0.7495
20081TIP3    H181734   3.012   4.245   4.307  0.7061 -0.1023 -1.9873
20081TIP3    H281735   3.036   4.293   4.448 -1.6002  1.2977 -2.0188
20082TIP3   OH281736   5.405   4.314   3.630 -0.1675 -0.0951  0.9987
20082TIP3    H181737   5.453   4.372   3.570 -2.7484  0.3489 -0.8044
20082TIP3    H281738   5.402   4.361   3.713 -1.2435  1.9149 -0.1188
20083TIP3   OH281739   3.547   4.921  13.356 -0.0101 -0.2940 -0.4097
20083TIP3    H181740   3.537   5.012  13.327  0.4998  0.1456  0.7230
20083TIP3    H281741   3.637   4.899  13.333  0.5418  0.2019  1.1270
20084TIP3   OH281742   5.939   5.980   4.921 -0.9150  0.2275 -0.0956
20084TIP3    H181743   5.892   5.945   4.845 -2.1057  0.8740  0.3231
20084TIP3    H281744   5.879   6.044   4.959 -0.2057  0.1481  1.2028
20085TIP3   OH281745   0.786   4.911  15.544 -0.0042  0.4298  0.0988
20085TIP3    H181746   0.712   4.894  15.603  0.4712 -2.2814  0.0227
20085TIP3    H281747   0.863   4.899  15.599  0.4199 -0.9914 -0.7613
20086TIP3   OH281748   4.952   2.684   4.332 -0.3306 -0.0034 -0.0798
20086TIP3    H181749   4.895   2.610   4.356  0.2224  0.1839  2.0057
20086TIP3    H281750   5.014   2.647   4.269 -0.5912 -1.1044  0.2868
20087TIP3   OH281751   2.253   6.157   0.615  0.5678 -0.4750 -0.3546
20087TIP3    H181752   2.324   6.143   0.677  1.6029 -0.3949 -1.4721
20087TIP3    H281753   2.204   6.231   0.651  0.9689 -0.6087  0.4920
20088TIP3   OH281754   0.675   5.129  16.235 -0.1693  0.3276 -0.4600
20088TIP3    H181755   0.711   5.055  16.186  1.1678  0.7733 -0.1949
20088TIP3    H281756   0.580   5.125  16.219 -0.1676 -1.6298 -0.1801
20089TIP3   OH281757   1.109   3.823   0.938  0.0868 -0.5273 -0.5456
20089TIP3    H181758   1.073   3.897   0.986 -1.5894 -2.4366  1.3385
20089TIP3    H281759   1.055   3.815   0.860  1.7002  1.5135 -1.9612
20090TIP3   OH281760   3.828   5.573   6.386 -0.7298  0.3545 -0.0211
20090TIP3    H181761   3.859   5.491   6.349  0.4672  0.4696  0.6934
20090TIP3    H281762   3.833   5.561   6.480 -0.2677  1.3381  0.0934
20091TIP3   OH281763   1.729   5.523   1.401 -0.4847  0.0572  0.6337
20091TIP3    H181764   1.711   5.616   1.412 -0.4859  0.2910 -1.1627
20091TIP3    H281765   1.723   5.507   1.307  4.6126 -0.6582  0.1397
20092TIP3   OH281766   0.346   2.421   4.787 -0.4727  0.4276  0.6232
20092TIP3    H181767   0.407   2.352   4.762 -1.5267 -0.1594 -0.4708
20092TIP3    H281768   0.274   2.375   4.831 -1.6378  0.6497 -0.9427
20093TIP3   OH281769   6.240   5.966   5.685 -0.7109 -0.0856 -0.1825
20093TIP3    H181770   6.280   6.018   5.615 -0.4816  0.3725  0.2787
20093TIP3    H281771   6.256   5.875   5.660  1.7888  0.0671  0.6247
20094TIP3   OH281772   6.360   5.834  16.103  0.0662  0.2000  0.6075
20094TIP3    H181773   6.345   5.788  16.185 -1.5159 -0.6086 -0.0909
20094TIP3    H281774   6.373   5.764  16.039  0.4637  0.8041  0.0171
20095TIP3   OH281775   4.883   3.689  16.281 -0.6118 -1.0531  0.1267
20095TIP3    H181776   4.898   3.707  16.373 -1.4845 -0.6162  0.1909
20095TIP3    H281777   4.838   3.604  16.280 -0.4308 -1.1512  0.0820
20096TIP3   OH281778   6.493   5.102  13.666  0.2811  0.2980 -0.6422
20096TIP3    H181779   6.586   5.115  13.686  0.3455 -1.4950  0.4395
20096TIP3    H281780   6.493   5.054  13.583  0.4564 -1.5681  0.3829
20097TIP3   OH281781   3.782   6.553   4.474  0.4505 -0.3055 -0.0001
20097TIP3    H181782   3.739   6.616   4.416 -0.2072 -0.9729 -0.2515
20097TIP3    H281783   3.755   6.467   4.441  0.8494 -0.7107  0.6994
20098TIP3   OH281784   5.110   1.810  13.897  0.2716 -0.5905  0.1995
20098TIP3    H181785   5.041   1.862  13.855 -0.9652 -2.1075  0.2938
20098TIP3    H281786   5.072   1.723  13.908  1.8537 -1.2001  1.1899
20099TIP3   OH281787   4.022   3.748   1.613  0.0318 -0.2307 -0.0510
20099TIP3    H181788   3.932   3.781   1.607  0.2171  0.2120 -0.5465
20099TIP3    H281789   4.076   3.827   1.613  0.4620 -0.5192 -0.6590
20100TIP3   OH281790   3.121   4.771  13.072 -0.2318  0.2233 -0.3712
20100TIP3    H181791   3.095   4.789  13.163 -1.8320  0.6646 -0.8745
20100TIP3    H281792   3.059   4.821  13.019 -2.0631 -3.1722 -1.7942
20101TIP3   OH281793   0.160   1.858   6.127 -0.2017  0.1614 -0.0260
20101TIP3    H181794   0.093   1.882   6.063  1.0699  1.1001 -1.0701
20101TIP3    H281795   0.116   1.798   6.187 -2.0935  1.1132 -0.3885
20102TIP3   OH281796   6.159   2.776  12.784  0.4090 -0.3164 -0.3952
20102TIP3    H181797   6.127   2.688  12.763  1.5267 -1.1353  1.0745
20102TIP3    H281798   6.201   2.765  12.869 -0.7900  2.0020  0.5696
20103TIP3   OH281799   0.294   3.192   2.288 -0.4777 -0.1793 -0.4985
20103TIP3    H181800   0.268   3.122   2.347 -1.8372  0.8626  0.1922
20103TIP3    H281801   0.276   3.273   2.337 -0.0052  0.6792 -1.6872
20104TIP3   OH281802   3.201   6.218  11.799 -0.4206  0.8297 -0.0574
20104TIP3    H181803   3.285   6.233  11.843 -0.4511 -0.3523  0.4453
20104TIP3    H281804   3.163   6.143  11.846 -2.2377  1.9823  0.4183
20105TIP3   OH281805   1.836   1.236   1.034  0.1626 -0.3391  0.1155
20105TIP3    H181806   1.837   1.314   1.089 -1.2687  0.3750 -0.8161
20105TIP3    H281807   1.822   1.268   0.945  0.5982 -1.5844 -0.4303
20106TIP3   OH281808   4.490   1.506  16.612  0.3318  0.1992  0.5530
20106TIP3    H181809   4.490   1.514  16.517  0.6428 -1.0102  0.4325
20106TIP3    H281810   4.534   1.422  16.629  0.4310  0.4792  1.7668
20107TIP3   OH281811   3.335   1.076   3.509 -0.4379  0.7671  0.3375
20107TIP3    H181812   3.391   1.154   3.504  1.2681 -0.4937 -1.8021
20107TIP3    H281813   3.273   1.086   3.437  0.2281 -0.1215 -0.3832
20108TIP3   OH281814   5.862   6.253   1.079  0.0538  0.6559  0.4404
20108TIP3    H181815   5.866   6.195   1.155 -2.1112  0.1094  0.1926
20108TIP3    H281816   5.850   6.193   1.005  2.4312  1.1494 -0.4595
20109TIP3   OH281817   0.161   6.618  13.535 -0.2152  0.1410  0.6410
20109TIP3    H181818   0.231   6.671  13.574 -0.0511  1.5190 -1.4025
20109TIP3    H281819   0.201   6.533  13.520 -0.1105 -0.2675  2.8318
20110TIP3   OH281820   0.817   5.636   6.914 -0.1100 -0.9585 -0.6210
20110TIP3    H181821   0.825   5.585   6.834 -2.6004 -0.4352 -1.3007
20110TIP3    H281822   0.907   5.648   6.945  0.7969 -2.4054 -2.5295
20111TIP3   OH281823   3.978   5.407  15.886  0.3687  0.4922  0.1398
20111TIP3    H181824   3.917   5.479  15.900 -1.6363 -0.7983 -1.4461
20111TIP3    H281825   3.948   5.365  15.806  1.9863 -1.6079  0.5399
20112TIP3   OH281826   0.048   0.152   3.127 -0.6081  0.6188 -0.1701
20112TIP3    H181827   0.115   0.084   3.114 -1.3343 -0.3587  0.9686
20112TIP3    H281828   0.096   0.227   3.163  0.1305  0.5564 -0.9841
20113TIP3   OH281829   2.687   5.169  17.140  0.0153 -0.3229  0.0017
20113TIP3    H181830   2.686   5.085  17.186  1.4732 -0.1856  0.3439
20113TIP3    H281831   2.734   5.152  17.059  1.6075  0.4452  0.7236
20114TIP3   OH281832   3.390   4.088   2.275  0.0136  0.0915 -0.5326
20114TIP3    H181833   3.480   4.061   2.256  0.2808  0.5858 -0.0094
20114TIP3    H281834   3.365   4.035   2.351  0.2465  0.6941 -0.0213
20115TIP3   OH281835   6.186   5.689   4.423 -0.1925  0.6653 -0.1811
20115TIP3    H181836   6.200   5.601   4.459 -0.0949  1.1863  1.1075
20115TIP3    H281837   6.176   5.675   4.329  0.9958 -0.6042 -0.1516
20116TIP3   OH281838   3.340   3.893  16.127  0.9736  0.3716 -0.4156
20116TIP3    H181839   3.375   3.811  16.092 -2.4534 -1.5259  0.2529
20116TIP3    H281840   3.323   3.946  16.049 -1.7727 -1.7812 -1.4349
20117TIP3   OH281841   3.198   3.653   2.760  0.2464  0.3811  0.1396
20117TIP3    H181842   3.158   3.581   2.711  0.0500  1.4343 -1.3203
20117TIP3    H281843   3.141   3.728   2.743  1.2187  1.2147  0.4460
20118TIP3   OH281844   5.215   2.211   5.606 -0.3822 -0.1280 -0.4615
20118TIP3    H181845   5.252   2.292   5.639 -1.2158  0.2607 -0.4601
20118TIP3    H281846   5.267   2.142   5.648 -0.3187  0.3830  0.3259
20119TIP3   OH281847   0.228   5.653  12.719 -0.6290 -0.0316  0.3139
20119TIP3    H181848   0.187   5.569  12.742 -0.6712 -0.3548 -0.8499
20119TIP3    H281849   0.164   5.696  12.663 -0.0284  0.1381 -0.2588
20120TIP3   OH281850   6.603   5.666   2.051  0.1454  0.4257  0.6969
20120TIP3    H181851   6.510   5.647   2.054  0.1460  0.4887  2.7723
20120TIP3    H281852   6.622   5.708   2.135  1.5148  3.0560 -0.7666
20121TIP3   OH281853   6.487   0.632  16.735  0.3073  0.5126  0.4814
20121TIP3    H181854   6.537   0.713  16.733  0.4695  0.4114  0.4357
20121TIP3    H281855   6.450   0.625  16.647  1.1955 -0.0243  0.1375
20122TIP3   OH281856   3.981   2.231  16.561 -0.3346 -0.6371 -0.4562
20122TIP3    H181857   4.056   2.280  16.594 -0.7171  1.1037 -1.9980
20122TIP3    H281858   3.961   2.168  16.630  1.3676  0.1073  0.7890
20123TIP3   OH281859   6.276   0.218   2.293 -0.0692  0.4929 -0.0779
20123TIP3    H181860   6.186   0.248   2.308 -0.4645 -0.1718 -1.0120
20123TIP3    H281861   6.320   0.231   2.377 -1.4580 -0.6079  0.8738
20124TIP3   OH281862   2.505   1.031  16.929  0.6245 -0.1743 -0.7648
20124TIP3    H181863   2.547   1.103  16.882  0.3067  0.5771  0.0749
20124TIP3    H281864   2.506   0.958  16.867  0.5759  0.6737 -1.7929
20125TIP3   OH281865   3.649   0.904  16.334 -0.1689 -0.7412  0.4159
20125TIP3    H181866   3.679   0.841  16.269  1.3641 -0.9442  1.2624
20125TIP3    H281867   3.703   0.887  16.411 -2.6949 -1.2897  2.1947
20126TIP3   OH281868   1.084   5.557   2.746 -0.2122 -0.3592  0.1776
20126TIP3    H181869   1.074   5.502   2.823  0.2162  0.2718  0.7005
20126TIP3    H281870   1.112   5.498   2.676  0.1752 -0.8067  0.7105
20127TIP3   OH281871   0.628   0.257   0.979 -0.3572  0.0935 -0.0920
20127TIP3    H181872   0.628   0.181   1.037 -0.2309  0.0655 -0.1272
20127TIP3    H281873   0.676   0.324   1.028  1.4002 -0.5005 -0.8857
20128TIP3   OH281874   3.054   0.803   3.306 -0.4234 -0.3474 -0.2960
20128TIP3    H181875   2.968   0.770   3.280  0.0669 -0.2332 -2.1888
20128TIP3    H281876   3.117   0.752   3.255  0.5752  0.4537  0.0833
20129TIP3   OH281877   2.687   5.364  11.750  0.4073  0.2639  0.1297
20129TIP3    H181878   2.755   5.297  11.742  0.4601  0.4045 -0.6876
20129TIP3    H281879   2.658   5.358  11.841  0.7470 -0.5418  0.1925
20130TIP3   OH281880   3.647   2.194   2.434 -0.9215 -0.0515 -0.3350
20130TIP3    H181881   3.699   2.168   2.510 -0.4284  1.4432 -0.1215
20130TIP3    H281882   3.568   2.232   2.472 -0.9382  0.1676 -0.5880
20131TIP3   OH281883   5.665   5.713  11.069  0.0857 -0.3852 -0.2751
20131TIP3    H181884   5.714   5.635  11.043 -1.0027 -0.5066 -2.1839
20131TIP3    H281885   5.584   5.708  11.018 -0.9298  0.9429  1.1146
20132TIP3   OH281886   5.455   5.011  12.214 -0.2857 -0.2559 -0.4678
20132TIP3    H181887   5.495   5.063  12.144  0.5913  1.0336  0.9367
20132TIP3    H281888   5.384   5.066  12.247  0.5746  0.0745  0.9521
20133TIP3   OH281889   1.603   6.740  11.558  0.2697  0.0921 -0.2978
20133TIP3    H181890   1.675   6.795  11.525 -0.3929  1.5907  0.6901
20133TIP3    H281891   1.648   6.665  11.596  1.1283 -1.2977 -3.6238
20134TIP3   OH281892   2.648   2.458   0.289  0.0781 -0.0495 -0.0738
20134TIP3    H181893   2.652   2.535   0.345  0.3162  1.0628 -1.5383
20134TIP3    H281894   2.602   2.392   0.340 -1.6298  1.6108  0.6274
20135TIP3   OH281895   4.898   2.845  10.579 -0.3638 -0.5803 -0.4980
20135TIP3    H181896   4.957   2.831  10.653 -1.6543  0.4896  0.8113
20135TIP3    H281897   4.873   2.937  10.585 -2.2109 -0.9963 -0.9348
20136TIP3   OH281898   3.648   0.608   0.597  0.1140 -0.1215 -0.0431
20136TIP3    H181899   3.721   0.559   0.558  0.1735  0.8161 -1.1484
20136TIP3    H281900   3.589   0.625   0.524  0.2066  1.6519  0.2673
20137TIP3   OH281901   2.136   3.968   2.862 -0.0056 -0.2001 -0.8200
20137TIP3    H181902   2.096   3.958   2.776  0.0740 -0.3019 -0.8451
20137TIP3    H281903   2.120   4.059   2.885 -3.4566 -1.0482  0.7599
20138TIP3   OH281904   1.503   3.869  14.824 -0.3998 -0.0780 -0.1767
20138TIP3    H181905   1.569   3.800  14.821 -0.7022 -0.3853  0.2111
20138TIP3    H281906   1.488   3.892  14.733  0.7666  0.4894 -0.2539
20139TIP3   OH281907   4.830   3.799  16.595 -0.1115  0.5372 -0.2899
20139TIP3    H181908   4.830   3.817  16.689 -3.0080 -0.2546 -0.0528
20139TIP3    H281909   4.836   3.886  16.554 -0.7803  1.0424  0.6531
20140TIP3   OH281910   2.710   2.018  11.143 -0.2089  0.4938 -0.0654
20140TIP3    H181911   2.655   1.955  11.095  0.6659  0.5439 -1.1803
20140TIP3    H281912   2.767   2.056  11.076  0.7486  0.9137  0.9516
20141TIP3   OH281913   5.418   3.490  13.202 -0.2757  0.7172 -0.3386
20141TIP3    H181914   5.445   3.533  13.283 -1.7833  0.8828  0.1097
20141TIP3    H281915   5.361   3.553  13.159 -0.9938 -0.1000 -0.6087
20142TIP3   OH281916   6.486   4.180   0.895 -1.1581  0.4724  0.2394
20142TIP3    H181917   6.465   4.258   0.946 -0.3682  1.3199 -0.6942
20142TIP3    H281918   6.499   4.112   0.961 -0.3903  1.4812  1.1778
20143TIP3   OH281919   2.173   0.234  10.155 -0.6699 -0.4077 -0.3127
20143TIP3    H181920   2.150   0.324  10.179  1.8339  0.4935 -1.0081
20143TIP3    H281921   2.171   0.234  10.059  2.1038 -0.2190 -0.4302
20144TIP3   OH281922   3.456   5.937   1.926  0.2518 -0.4334 -0.4992
20144TIP3    H181923   3.391   5.967   1.863  0.6219  0.8402 -0.2869
20144TIP3    H281924   3.482   5.851   1.894 -0.7530 -0.5056 -1.1699
20145TIP3   OH281925   5.960   6.322  16.535  0.7917  0.0269 -0.4918
20145TIP3    H181926   5.954   6.227  16.527  1.5658 -0.1380  0.7468
20145TIP3    H281927   5.929   6.354  16.450 -0.5111 -1.2767 -0.5548
20146TIP3   OH281928   4.802   5.256  17.150 -0.7829  0.4314  0.4022
20146TIP3    H181929   4.843   5.327  17.101 -1.9823  1.2185  0.4695
20146TIP3    H281930   4.735   5.222  17.091  1.6993 -2.7581 -0.8265
20147TIP3   OH281931   3.300   2.902  14.652  0.0852 -0.2870  0.1862
20147TIP3    H181932   3.392   2.923  14.665  0.0355 -0.1078  0.2486
20147TIP3    H281933   3.284   2.918  14.559 -0.3842  1.6586  0.5558
20148TIP3   OH281934   0.366   6.514  11.371  0.4837 -0.1706  0.0087
20148TIP3    H181935   0.289   6.562  11.403 -0.7537 -2.4562  0.6774
20148TIP3    H281936   0.430   6.523  11.441  0.6205  1.2231 -0.2729
20149TIP3   OH281937   4.338   3.198  12.067  0.3358  0.0991  0.6046
20149TIP3    H181938   4.329   3.241  12.152 -0.2199  1.5153 -0.1176
20149TIP3    H281939   4.297   3.260  12.005 -0.0062 -1.2611 -0.5790
20150TIP3   OH281940   0.917   6.061  11.620  0.2284 -0.3054 -0.3037
20150TIP3    H181941   0.882   6.032  11.536  0.5530 -0.5792 -0.3462
20150TIP3    H281942   0.993   6.005  11.635 -1.7267 -2.6264  1.7867
20151TIP3   OH281943   4.977   0.538   1.264 -0.4974  0.0087 -0.2799
20151TIP3    H181944   4.882   0.541   1.266 -0.4718  0.7810  0.2353
20151TIP3    H281945   5.005   0.595   1.335  0.3554  0.1472 -0.7032
20152TIP3   OH281946   2.126   6.147  15.791  0.0367 -0.1737 -0.4558
20152TIP3    H181947   2.080   6.064  15.803 -1.8437  0.5638 -1.9836
20152TIP3    H281948   2.213   6.121  15.759 -0.1254 -1.5535  0.1223
20153TIP3   OH281949   4.884   0.894   5.953 -0.2843  0.1542  0.0176
20153TIP3    H181950   4.836   0.816   5.925  2.2556 -1.0950 -1.2270
20153TIP3    H281951   4.938   0.864   6.026 -1.3521  1.5482  1.4604
20154TIP3   OH281952   5.763   2.227   6.072  0.3448  0.0138 -0.8853
20154TIP3    H181953   5.757   2.156   6.135  1.7087  1.2911  0.7710
20154TIP3    H281954   5.680   2.274   6.081  0.9248  0.7862  0.7787
20155TIP3   OH281955   3.815   0.061   3.370 -0.3438 -0.1115  0.8181
20155TIP3    H181956   3.903   0.096   3.354 -1.0998  1.1082 -0.9628
20155TIP3    H281957   3.816   0.036   3.462  0.9269  2.7529  1.6823
20156TIP3   OH281958   3.713   0.848  11.093 -0.6494  0.2583 -0.5283
20156TIP3    H181959   3.721   0.885  11.005 -2.5743  1.0653 -0.4158
20156TIP3    H281960   3.690   0.922  11.148 -0.2789 -0.3871  0.5246
20157TIP3   OH281961   0.156   4.897  12.360 -0.3310  0.5981 -0.0598
20157TIP3    H181962   0.147   4.952  12.282 -0.0770 -1.5048 -1.6547
20157TIP3    H281963   0.232   4.933  12.406 -0.3422  1.7317 -0.8856
20158TIP3   OH281964   2.643   3.291   5.131  0.7084 -0.5558  0.1812
20158TIP3    H181965   2.581   3.239   5.181  0.5695 -0.6752 -0.1146
20158TIP3    H281966   2.726   3.243   5.139  0.1935 -1.8644 -1.6309
20159TIP3   OH281967   2.821   5.678   1.360 -0.4379 -0.1095 -0.1973
20159TIP3    H181968   2.843   5.766   1.328  1.0585 -0.4095 -0.0541
20159TIP3    H281969   2.843   5.620   1.287 -1.1005 -0.4038 -0.1656
20160TIP3   OH281970   1.681   6.109   3.951  0.0352  0.5467 -0.3650
20160TIP3    H181971   1.733   6.088   4.028  2.3352  0.5140 -1.8078
20160TIP3    H281972   1.636   6.027   3.929  2.5232 -0.7067 -1.2639
20161TIP3   OH281973   1.253   1.301   0.660  0.2116  0.1234 -0.3261
20161TIP3    H181974   1.248   1.208   0.678  0.4933 -0.7619 -4.0499
20161TIP3    H281975   1.344   1.324   0.679  0.3033 -0.4914  0.0116
20162TIP3   OH281976   2.309   4.262   0.463  0.4938  0.2054 -0.7433
20162TIP3    H181977   2.354   4.271   0.547  3.0928  2.0576 -2.1820
20162TIP3    H281978   2.361   4.199   0.414 -0.9133 -0.7434 -1.0925
20163TIP3   OH281979   5.209   6.708  16.412  0.2459  0.1780 -0.4149
20163TIP3    H181980   5.275   6.684  16.347  0.1273 -0.6411 -0.2379
20163TIP3    H281981   5.149   6.766  16.364 -0.9883 -2.0247 -1.6597
20164TIP3   OH281982   2.930   6.793   2.283  0.0064 -0.0158  0.3050
20164TIP3    H181983   2.903   6.878   2.248  1.0906 -0.6248 -2.2651
20164TIP3    H281984   3.024   6.788   2.262 -0.0227 -1.8121  0.4619
20165TIP3   OH281985   0.303   5.010   3.011 -0.3515  0.4330 -0.0702
20165TIP3    H181986   0.337   5.079   2.954  1.8291  0.3670  1.0366
20165TIP3    H281987   0.248   5.056   3.074 -1.4750  0.7027 -1.1957
20166TIP3   OH281988   4.653   1.454   4.161 -0.7624 -0.1955  0.8858
20166TIP3    H181989   4.746   1.474   4.173 -0.7161  0.1007  0.1153
20166TIP3    H281990   4.628   1.408   4.241 -0.4906  1.6059  2.0603
20167TIP3   OH281991   6.173   1.314   0.529 -0.1766 -0.0759  0.4070
20167TIP3    H181992   6.104   1.259   0.492  0.6147 -0.0266 -1.2524
20167TIP3    H281993   6.254   1.269   0.505  0.4426  1.1905  0.0348
20168TIP3   OH281994   0.106   1.444   2.988 -0.1809  0.2095 -0.3849
20168TIP3    H181995   0.074   1.406   3.070 -0.3085  1.5671  0.2089
20168TIP3    H281996   0.072   1.385   2.921 -1.5320  0.0165  0.4239
20169TIP3   OH281997   3.502   3.878  10.845 -0.1406 -0.5562 -0.0622
20169TIP3    H181998   3.594   3.865  10.822  1.0732  0.3922  3.5055
20169TIP3    H281999   3.473   3.949  10.789  1.1390 -1.1699 -1.5770
20170TIP3   OH282000   0.921   4.442  12.781 -0.3285  0.2050 -0.0030
20170TIP3    H182001   0.958   4.494  12.710  0.4772  1.1521  1.0658
20170TIP3    H282002   0.994   4.387  12.811 -0.8872 -0.7963 -0.4280
20171TIP3   OH282003   6.678   4.310   4.744  0.7803  0.3358  0.6622
20171TIP3    H182004   6.625   4.230   4.744  0.4578  0.5436  0.2323
20171TIP3    H282005   6.623   4.375   4.699  1.1639  0.7169  0.7350
20172TIP3   OH282006   3.706   1.218   1.022 -0.1821 -0.1342  0.7235
20172TIP3    H182007   3.726   1.300   0.978 -1.4595  0.7083  1.6536
20172TIP3    H282008   3.692   1.155   0.951 -0.9357  0.8721 -0.0532
20173TIP3   OH282009   3.422   1.934  13.879  0.2213  0.0888 -0.2192
20173TIP3    H182010   3.417   2.006  13.941 -1.8118 -2.0896  2.3935
20173TIP3    H282011   3.354   1.953  13.814 -1.4038 -0.1351  1.3361
20174TIP3   OH282012   4.416   3.781  11.749 -0.0228 -0.0752 -0.2663
20174TIP3    H182013   4.414   3.697  11.703  0.1557  1.7644 -3.9251
20174TIP3    H282014   4.331   3.821  11.731  0.0649  0.7683  1.0510
20175TIP3   OH282015   0.263   5.225  13.593  0.7355 -0.4151  0.4501
20175TIP3    H182016   0.230   5.140  13.620  1.0295 -0.4456  0.7285
20175TIP3    H282017   0.213   5.247  13.515 -0.3252 -0.2158  1.1553
20176TIP3   OH282018   1.765   1.683  11.087 -0.0795 -0.5259 -0.0114
20176TIP3    H182019   1.790   1.755  11.145  0.2667 -0.6575  0.0037
20176TIP3    H282020   1.847   1.639  11.067 -0.3241 -1.0554  0.1565
20177TIP3   OH282021   0.615   4.472   1.605  0.0357  0.2193  0.3232
20177TIP3    H182022   0.677   4.454   1.534 -0.8963  1.8314 -0.9614
20177TIP3    H282023   0.638   4.409   1.673  1.3899 -0.9418 -1.1377
20178TIP3   OH282024   0.190   2.761   0.827  0.1177 -0.8765 -0.2911
20178TIP3    H182025   0.159   2.671   0.840  0.1481 -0.7365  0.8682
20178TIP3    H282026   0.243   2.780   0.904 -1.1050  0.6505  0.2285
20179TIP3   OH282027   0.681   3.001   6.102 -0.8290 -0.1755  0.1549
20179TIP3    H182028   0.629   3.047   6.036  0.2410  0.6809 -0.1167
20179TIP3    H282029   0.730   3.070   6.146 -1.9778 -0.6568  2.3127
20180TIP3   OH282030   4.770   0.779  11.678 -0.2714 -0.1147 -0.2112
20180TIP3    H182031   4.802   0.713  11.616  1.7836 -0.5288  1.1895
20180TIP3    H282032   4.818   0.858  11.656  1.0489 -0.4560  1.2399
20181TIP3   OH282033   0.787   5.439   4.467 -0.0795  0.4253 -1.3184
20181TIP3    H182034   0.730   5.487   4.527  1.6397  1.2932 -0.3048
20181TIP3    H282035   0.769   5.477   4.381 -1.5803  0.1052 -1.1807
20182TIP3   OH282036   0.783   1.472  14.200  0.1907 -0.3756 -0.1339
20182TIP3    H182037   0.867   1.432  14.221  0.5752 -0.0875 -1.0683
20182TIP3    H282038   0.720   1.400  14.205  0.9352 -1.2768 -2.2420
20183TIP3   OH282039   5.856   4.389   0.693 -0.5995 -0.4388 -0.1585
20183TIP3    H182040   5.850   4.406   0.787 -0.0199  2.4649 -0.5778
20183TIP3    H282041   5.790   4.446   0.654  0.3936 -0.2643 -1.6373
20184TIP3   OH282042   3.933   4.546   3.600  0.0993 -0.3154 -0.5324
20184TIP3    H182043   3.951   4.638   3.581  2.8999 -0.8033 -0.6431
20184TIP3    H282044   3.945   4.538   3.694 -0.3217 -0.5462 -0.4957
20185TIP3   OH282045   2.030   4.656   0.023 -0.1404 -0.1346 -0.4281
20185TIP3    H182046   2.021   4.749   0.002  0.7752 -0.0054 -0.2704
20185TIP3    H282047   2.104   4.626  -0.030  1.1829 -0.1716  1.3475
20186TIP3   OH282048   3.509   5.511  14.861  0.2737 -0.1207 -0.0815
20186TIP3    H182049   3.540   5.587  14.911 -1.0288 -0.0384  0.6332
20186TIP3    H282050   3.418   5.499  14.888  0.3212 -1.6829 -0.5062
20187TIP3   OH282051   6.614   4.969   3.684  0.0942  0.5090  0.3385
20187TIP3    H182052   6.565   5.028   3.741 -1.4589  1.0827 -1.4853
20187TIP3    H282053   6.560   4.890   3.677  1.3714 -0.5278  1.4297
20188TIP3   OH282054   2.208   1.157   0.598  0.2494  0.0956  0.1823
20188TIP3    H182055   2.168   1.155   0.512  0.0445  0.7009  0.2566
20188TIP3    H282056   2.150   1.106   0.654 -0.5744  1.1756  0.3453
20189TIP3   OH282057   1.773   0.111  13.614  0.3670  0.0893  0.0505
20189TIP3    H182058   1.791   0.199  13.578  0.6701 -0.8540 -2.2875
20189TIP3    H282059   1.688   0.120  13.658  0.0427  1.4026 -0.7844
20190TIP3   OH282060   5.422   1.730  15.707 -0.3911 -0.5026  0.0849
20190TIP3    H182061   5.377   1.758  15.787  1.4880 -0.3726  1.1460
20190TIP3    H282062   5.357   1.743  15.638 -1.0733  2.4036  1.1192
20191TIP3   OH282063   4.701   2.575  14.482 -0.2263 -1.0416 -0.6271
20191TIP3    H182064   4.679   2.668  14.475  0.8083 -0.7217  0.2055
20191TIP3    H282065   4.616   2.532  14.494 -0.6801 -0.1728 -0.5856
20192TIP3   OH282066   4.655   5.104  16.958 -0.1177 -0.4193  0.3713
20192TIP3    H182067   4.685   5.020  16.925  0.9075  0.3728 -0.7856
20192TIP3    H282068   4.568   5.115  16.919 -0.8109 -1.4965  1.5570
20193TIP3   OH282069   5.675   2.567   5.266  0.6074 -0.1527 -0.1031
20193TIP3    H182070   5.677   2.476   5.237  0.1384 -0.2247  0.0802
20193TIP3    H282071   5.605   2.570   5.331  0.4608  0.3870 -0.2779
20194TIP3   OH282072   5.130   4.381  14.021  0.0100  0.1231  0.3362
20194TIP3    H182073   5.216   4.419  14.006 -0.6675  1.7178  0.2682
20194TIP3    H282074   5.079   4.405  13.944 -1.3091  1.8061  1.6433
20195TIP3   OH282075   3.320   4.357  16.563  0.5248 -0.2933  0.5000
20195TIP3    H182076   3.237   4.338  16.519 -0.2975 -1.2915  2.3483
20195TIP3    H282077   3.378   4.387  16.493 -1.9566  2.4885 -0.5875
20196TIP3   OH282078   5.563   0.800   1.267 -0.3188 -0.1588 -0.0285
20196TIP3    H182079   5.576   0.707   1.246  4.1674  0.1455  0.4602
20196TIP3    H282080   5.607   0.847   1.197 -0.6091  1.5245  0.8757
20197TIP3   OH282081   1.442   5.843   6.757 -0.1171 -0.2827  0.1695
20197TIP3    H182082   1.524   5.794   6.750 -0.1802 -0.2140 -1.4823
20197TIP3    H282083   1.376   5.778   6.781 -0.2469 -1.1453 -2.2473
20198TIP3   OH282084   6.121   4.306   0.801  0.4027 -0.1706  0.4994
20198TIP3    H182085   6.033   4.329   0.772  0.7073 -0.5598 -0.7869
20198TIP3    H282086   6.113   4.296   0.896 -1.0953 -0.8979  0.3257
20199TIP3   OH282087   0.916   2.498   0.293 -0.7684 -0.6084  0.3266
20199TIP3    H182088   0.836   2.472   0.247  0.1865 -2.0893 -0.5474
20199TIP3    H282089   0.895   2.484   0.386 -1.8519 -0.0038  0.1923
20200TIP3   OH282090   1.606   4.490  13.495  0.7211  0.1522  0.1462
20200TIP3    H182091   1.591   4.437  13.416  0.3300 -0.5290  0.6687
20200TIP3    H282092   1.661   4.562  13.465 -0.2694  0.4704 -0.9681
20201TIP3   OH282093   5.421   4.777  14.006 -0.0958 -0.1375 -0.1220
20201TIP3    H182094   5.344   4.822  14.041 -0.7007 -0.7089 -0.6884
20201TIP3    H282095   5.471   4.845  13.962 -0.2455  0.2477  0.2944
20202TIP3   OH282096   6.086   5.051  14.519  0.2532  0.5179 -0.0773
20202TIP3    H182097   5.996   5.021  14.502 -0.0929  0.3793  1.7643
20202TIP3    H282098   6.110   5.099  14.439 -1.6258  0.9405 -0.4525
20203TIP3   OH282099   5.436   1.463  14.625 -0.0092 -0.6484  0.3951
20203TIP3    H182100   5.415   1.538  14.568  1.1073 -0.7268 -0.1478
20203TIP3    H282101   5.525   1.481  14.655 -1.1743  0.3869  3.7447
20204TIP3   OH282102   0.707   4.742   0.793  0.0883 -0.1999 -0.2321
20204TIP3    H182103   0.742   4.830   0.774  0.3695 -0.0841  0.7990
20204TIP3    H282104   0.680   4.709   0.707 -0.2184  0.9742 -0.6156
20205TIP3   OH282105   4.268   6.443  14.439 -0.4821 -0.1674 -0.2373
20205TIP3    H182106   4.296   6.533  14.426 -0.8431  0.1475  1.0058
20205TIP3    H282107   4.305   6.395  14.365  2.1843  0.4577  0.5813
20206TIP3   OH282108   0.332   6.166   6.014 -0.3295 -0.0278 -0.0963
20206TIP3    H182109   0.314   6.255   5.982 -1.8400  0.1198  1.0831
20206TIP3    H282110   0.253   6.116   5.991  0.3235 -0.9786 -0.3466
20207TIP3   OH282111   2.146   3.265  14.764 -0.4032  0.0094 -0.2971
20207TIP3    H182112   2.118   3.174  14.756 -0.7858  0.0163  0.7946
20207TIP3    H282113   2.198   3.268  14.845  0.2432  0.6109 -0.7178
20208TIP3   OH282114   3.380   1.103  15.568 -1.0091  0.3994 -0.2757
20208TIP3    H182115   3.359   1.031  15.509  0.7831  1.8036 -2.7734
20208TIP3    H282116   3.444   1.066  15.629 -1.1131 -0.4595 -0.6729
20209TIP3   OH282117   0.976   2.226   3.909 -0.4485 -0.3991  0.2789
20209TIP3    H182118   0.988   2.315   3.941 -0.6918 -0.1377 -0.3523
20209TIP3    H282119   0.984   2.233   3.814  0.8629 -1.2614  0.2980
20210TIP3   OH282120   0.600   1.289  14.284  0.5175  0.0576  0.1823
20210TIP3    H182121   0.621   1.196  14.273  0.2650  0.0121  0.0883
20210TIP3    H282122   0.583   1.299  14.378 -0.5783 -0.2255  0.0239
20211TIP3   OH282123   4.620   3.653  16.723 -0.0552 -0.1996  0.1782
20211TIP3    H182124   4.623   3.559  16.742 -1.2198 -0.9232 -2.7086
20211TIP3    H282125   4.710   3.675  16.696 -0.1966 -0.9901 -1.0133
20212TIP3   OH282126   2.590   5.282   5.126  0.2990 -0.4497  0.2751
20212TIP3    H182127   2.617   5.357   5.179 -0.5105 -0.1231  0.2355
20212TIP3    H282128   2.523   5.238   5.178  0.4836 -0.9181  0.1216
20213TIP3   OH282129   5.233   0.434  17.036 -0.3875  0.1387  0.3313
20213TIP3    H182130   5.157   0.397  17.080  0.8386 -0.7803  1.7740
20213TIP3    H282131   5.249   0.374  16.962  1.2894 -2.1169  2.3670
20214TIP3   OH282132   1.030   0.153  16.670 -0.3679  0.7347 -0.1202
20214TIP3    H182133   1.079   0.075  16.696  0.0825  0.1468 -2.5376
20214TIP3    H282134   0.939   0.123  16.664  0.0674 -0.2827 -3.1350
20215TIP3   OH282135   3.840   1.039   1.232  0.0769 -0.1694  0.0377
20215TIP3    H182136   3.788   1.025   1.311 -1.2408 -2.7736 -1.1422
20215TIP3    H282137   3.779   1.079   1.170  0.4263 -0.1964 -0.3252
20216TIP3   OH282138   3.151   6.049  14.918  0.1282 -0.1983  0.2310
20216TIP3    H182139   3.208   5.976  14.895 -1.6964 -1.2845 -1.1244
20216TIP3    H282140   3.180   6.074  15.006  3.5156  0.2400 -0.8676
20217TIP3   OH282141   3.759   1.778   0.979  0.6724  0.2404  0.3287
20217TIP3    H182142   3.814   1.781   1.058  2.3287  0.5114 -0.7766
20217TIP3    H282143   3.797   1.707   0.927  0.0065  0.4876 -0.5055
20218TIP3   OH282144   6.044   3.057  15.690 -0.1697  0.0432  0.3687
20218TIP3    H182145   6.049   3.144  15.729  0.2869  0.0987  0.1849
20218TIP3    H282146   6.101   3.002  15.744  0.6128  0.1607 -0.3211
20219TIP3   OH282147   2.782   4.454  12.452 -0.1084 -0.2753  0.3517
20219TIP3    H182148   2.775   4.540  12.412  0.2146  0.8797  2.6259
20219TIP3    H282149   2.874   4.448  12.480 -0.5388 -0.5578  1.8007
20220TIP3   OH282150   6.494   0.962  14.005  0.1957 -0.1622  0.2105
20220TIP3    H182151   6.560   0.896  14.025  0.9107  0.2944 -0.5382
20220TIP3    H282152   6.423   0.945  14.066  1.8196  0.5678  2.4599
20221TIP3   OH282153   2.367   0.995   0.769  0.1778 -0.0134  0.4311
20221TIP3    H182154   2.274   0.999   0.791  0.0455 -1.2216  0.1809
20221TIP3    H282155   2.374   1.041   0.686 -0.8852 -3.0213 -1.4849
20222TIP3   OH282156   0.735   4.127  12.969  0.2741 -0.3650 -0.6514
20222TIP3    H182157   0.793   4.178  13.025 -0.5039 -0.4642  0.2765
20222TIP3    H282158   0.702   4.190  12.905 -0.7708  0.3821  0.5536
20223TIP3   OH282159   2.082   4.153  14.028 -0.7924 -0.1621  0.1533
20223TIP3    H182160   2.116   4.242  14.019  0.2508 -0.6049 -0.3723
20223TIP3    H282161   2.033   4.155  14.110  0.3025  0.5721  0.8203
20224TIP3   OH282162   5.183   0.904  14.370 -0.4740 -0.0095 -0.3389
20224TIP3    H182163   5.266   0.928  14.411 -1.2472  1.9140  0.2270
20224TIP3    H282164   5.187   0.945  14.284 -1.9285  2.7066  0.7447
20225TIP3   OH282165   0.877   3.552  13.116 -0.1260 -0.1883 -0.3025
20225TIP3    H182166   0.877   3.643  13.085 -0.1030  0.2176  0.8181
20225TIP3    H282167   0.882   3.560  13.211 -0.5747 -1.3654 -0.1688
20226TIP3   OH282168   1.034   1.868  17.214 -0.0239  0.0874 -0.4174
20226TIP3    H182169   1.013   1.857  17.122  0.6902  1.8684 -0.8350
20226TIP3    H282170   0.979   1.941  17.243 -2.7938 -2.4790  1.5357
20227TIP3   OH282171   2.136   1.791   4.675  0.5973 -0.0321 -0.3004
20227TIP3    H182172   2.141   1.724   4.744 -1.2130  0.3740  0.2585
20227TIP3    H282173   2.193   1.861   4.707  1.0318 -0.5062 -0.0008
20228TIP3   OH282174   1.483   0.922  12.918  0.7394  0.1674  0.4836
20228TIP3    H182175   1.482   1.017  12.930  1.9684  0.4389 -1.1589
20228TIP3    H282176   1.408   0.904  12.862 -0.6748 -0.1464  2.3702
20229TIP3   OH282177   4.290   4.090   5.767 -0.4526 -0.2830  0.3762
20229TIP3    H182178   4.346   4.115   5.694  0.6518 -0.1154  1.2359
20229TIP3    H282179   4.270   3.998   5.752 -1.4296  0.1143 -0.8680
20230TIP3   OH282180   6.295   4.214  14.652  0.9058 -0.3881 -0.0622
20230TIP3    H182181   6.258   4.166  14.578 -1.9968  0.3502  0.7547
20230TIP3    H282182   6.331   4.146  14.709 -0.9851 -1.4540 -0.0518
20231TIP3   OH282183   1.290   6.507  14.801 -0.3747  0.3466 -0.3793
20231TIP3    H182184   1.290   6.577  14.735 -3.7416 -0.6093 -1.5807
20231TIP3    H282185   1.288   6.427  14.749  1.0251 -0.6263  0.9888
20232TIP3   OH282186   5.805   1.021   3.922  0.2481  0.0178 -0.5033
20232TIP3    H182187   5.743   1.030   3.994  1.1995  1.7041  0.1666
20232TIP3    H282188   5.777   1.086   3.858  0.6043 -0.0545 -0.7345
20233TIP3   OH282189   3.242   0.654  11.125  0.5485  0.1533  0.2235
20233TIP3    H182190   3.299   0.616  11.057 -0.0144 -0.1301 -0.0943
20233TIP3    H282191   3.268   0.610  11.206  0.6691 -0.0935  0.0513
20234TIP3   OH282192   0.191   4.558  11.760  0.7922  0.0246  0.4882
20234TIP3    H182193   0.252   4.537  11.689 -0.2908  0.3121 -0.5465
20234TIP3    H282194   0.105   4.556  11.720  0.1474  0.2028  1.8040
20235TIP3   OH282195   6.393   5.955  11.797 -0.7489  0.2948  0.3396
20235TIP3    H182196   6.433   6.013  11.862  0.3848 -0.2636  0.1656
20235TIP3    H282197   6.422   5.867  11.822 -1.0185 -0.0125 -0.3989
20236LIG     O182198   1.517   1.703  16.406 -0.8149  0.2717 -0.6709
20236LIG     O282199   1.697   1.577  16.511 -0.0186 -0.6001  0.1041
20236LIG     O382200   1.586   1.638  16.707  0.3247 -0.1060  0.5762
20236LIG     O482201   1.738   1.671  16.161 -0.5405  0.4174 -1.0924
20236LIG     O582202   1.741   1.949  16.236 -0.1324  0.5832  0.0758
20236LIG     O682203   1.650   1.294  16.609 -0.0875 -0.3399  0.0144
20236LIG     O782204   1.893   1.448  16.651 -0.7539 -0.1490 -0.1552
20236LIG     O882205   1.909   1.623  16.879  0.1902 -0.0078 -0.3533
20236LIG     O982206   1.710   1.403  16.274  0.0743  0.2061 -0.1789
20236LIG    O1082207   1.494   1.942  16.557  0.5619 -0.1295  0.4911
20236LIG    O1182208   1.762   1.835  16.969  0.0998 -0.2569 -0.2161
20236LIG     C182209   1.634   1.616  16.392 -0.2236  0.8040 -0.4951
20236LIG     C282210   1.744   1.704  16.306 -0.1043  0.1446 -0.5239
20236LIG     C382211   1.705   1.846  16.336  0.2149 -0.2179  0.1993
20236LIG     C482212   1.547   1.832  16.352  0.2392  0.2885 -0.1890
20236LIG     C582213   1.606   1.538  16.612  0.1742 -0.6857 -0.6687
20236LIG     C682214   1.649   1.413  16.692  0.1394  0.3628  0.4629
20236LIG     C782215   1.791   1.438  16.755 -0.0156 -1.1029  1.0097
20236LIG     C882216   1.782   1.563  16.841 -0.3806 -0.1183  0.1184
20236LIG     C982217   1.707   1.679  16.768 -0.5285 -1.0000 -1.0873
20236LIG    C1082218   1.600   1.487  16.309 -0.0174 -0.2692 -0.3017
20236LIG    C1182219   1.473   1.950  16.415 -0.4428  0.3130 -0.4175
20236LIG    C1282220   1.676   1.807  16.853  0.1342 -0.4623 -1.0244
20236LIG     H182221   1.842   1.679  16.349 -0.5275  0.5695  0.7237
20236LIG     H282222   1.752   1.883  16.428 -0.6539  1.5983 -0.0449
20236LIG     H382223   1.518   1.824  16.246 -0.4851 -0.4712  0.0576
20236LIG     H482224   1.508   1.515  16.565 -0.8155  0.5882  0.6674
20236LIG     H582225   1.583   1.403  16.780 -0.2176  2.1640  0.4257
20236LIG     H682226   1.814   1.349  16.817  0.8546 -1.2285  0.5213
20236LIG     H782227   1.718   1.535  16.927  0.0397 -0.3011  0.3758
20236LIG     H882228   1.767   1.709  16.679 -1.6147  2.7990 -0.7063
20236LIG     H982229   1.523   1.434  16.370  0.3014  1.9978  2.2806
20236LIG    H1082230   1.544   1.527  16.222 -1.8359 -0.4468  0.7353
20236LIG    H1182231   1.516   2.045  16.377  1.9649 -0.3210  0.5619
20236LIG    H1282232   1.364   1.957  16.393 -0.9267 -2.2948  0.7112
20236LIG    H1382233   1.662   1.894  16.785 -1.7379 -0.7359 -1.0355
20236LIG    H1482234   1.575   1.798  16.899 -0.4443  1.4809 -1.7962
20236LIG    H1582235   1.745   1.575  16.166 -0.5501  0.4454 -0.3879
20236LIG    H1682236   1.780   1.902  16.162  0.4026  1.9143 -0.5299
20236LIG    H1782237   1.557   1.272  16.601 -0.0256  0.0201 -3.4418
20236LIG    H1882238   1.977   1.435  16.696 -0.0330 -0.8829 -1.6628
20236LIG    H1982239   1.880   1.693  16.938  0.2796  0.1099 -0.4467
20236LIG    H2082240   1.681   1.322  16.230 -0.1254 -1.2637  2.4541
20236LIG    H2182241   1.553   2.014  16.578 -0.6368  1.3806 -0.9694
20236LIG    H2282242   1.767   1.931  16.978 -2.2913 -0.0503 -0.3937
   6.82034   6.82034  17.28551
